CNT in water
33518
    1C        C    1   2.841   2.769   4.742 -0.5770 -0.4320  0.0822
    1C        C    2   2.895   2.720   4.863 -0.4750 -0.2837  0.0987
    1C        C    3   2.843   2.774   4.981  0.3582  0.2360  0.2337
    1C        C    4   2.842   2.763   4.255 -0.2828  0.0674  0.2106
    1C        C    5   2.895   2.720   4.378 -0.5277 -0.4969  0.1299
    1C        C    6   2.842   2.767   4.500 -0.3787 -0.3985  0.1623
    1C        C    7   3.015   2.644   4.623  0.0380  0.1899  0.0846
    1C        C    8   2.897   2.721   4.622 -0.3041 -0.3189  0.1620
    1C        C    9   3.077   2.604   4.744 -0.3840 -0.6406  0.0400
    1C        C   10   3.007   2.634   4.863  0.0157  0.3561  0.0345
    1C        C   11   3.178   2.496   4.975 -0.1101  0.3922 -0.1463
    1C        C   12   3.055   2.563   4.973  0.0369  0.6728  0.2321
    1C        C   13   2.846   2.762   3.764 -0.5080 -0.4234 -0.0849
    1C        C   14   2.895   2.713   3.888 -0.4763 -0.0501  0.0577
    1C        C   15   2.841   2.759   4.010 -0.3187 -0.3938  0.2639
    1C        C   16   3.012   2.637   4.133  0.3666  0.6615 -0.0413
    1C        C   17   2.897   2.717   4.133 -0.0936  0.0179  0.3083
    1C        C   18   3.074   2.608   4.257 -0.1056 -0.2478 -0.0015
    1C        C   19   3.011   2.639   4.379  0.1239  0.4098 -0.0382
    1C        C   20   3.203   2.548   4.498 -0.1238  0.0858  0.1935
    1C        C   21   3.076   2.608   4.500 -0.0731  0.2078  0.0207
    1C        C   22   3.272   2.521   4.619  0.3241 -0.2853 -0.1395
    1C        C   23   3.206   2.545   4.741 -0.1682 -0.1649 -0.4254
    1C        C   24   3.409   2.487   4.860 -0.1442  0.1209  0.0487
    1C        C   25   3.267   2.502   4.862 -0.0638  0.9353 -0.0804
    1C        C   26   3.485   2.478   4.977  0.1427 -0.5402 -0.1803
    1C        C   27   2.845   2.761   3.278 -0.1798 -0.2159  0.2646
    1C        C   28   2.899   2.717   3.401 -0.4852 -0.4044  0.3359
    1C        C   29   2.839   2.759   3.521 -1.0894 -0.6572  0.1278
    1C        C   30   3.006   2.626   3.643 -0.1445 -0.2800  0.3555
    1C        C   31   2.893   2.710   3.642  0.2508  0.2522 -0.0880
    1C        C   32   3.071   2.594   3.765  0.2374  0.0985  0.2546
    1C        C   33   3.013   2.635   3.887 -0.2284  0.3196 -0.0385
    1C        C   34   3.207   2.561   4.013  0.3674  1.3639  0.0360
    1C        C   35   3.071   2.599   4.010  0.1558  0.6162 -0.1299
    1C        C   36   3.272   2.531   4.134  0.3219  0.8922 -0.0548
    1C        C   37   3.203   2.551   4.255  0.0005 -0.0163 -0.0815
    1C        C   38   3.410   2.498   4.375 -0.3401 -0.2026  0.2276
    1C        C   39   3.272   2.528   4.377 -0.2820  0.0841  0.1015
    1C        C   40   3.483   2.486   4.496  0.2651 -1.3309 -0.2300
    1C        C   41   3.410   2.492   4.617  0.3369 -0.2334 -0.2239
    1C        C   42   3.625   2.493   4.737 -0.1228 -0.2461  0.0172
    1C        C   43   3.483   2.489   4.738 -0.1229 -0.2428  0.0533
    1C        C   44   3.699   2.492   4.857  0.2822  0.0024 -0.2302
    1C        C   45   3.624   2.470   4.973  0.1707 -0.0733 -0.3180
    1C        C   46   2.830   2.747   2.792 -0.8813 -0.5583  0.0109
    1C        C   47   2.890   2.705   2.913 -0.6426 -0.0797  0.0649
    1C        C   48   2.844   2.761   3.034  0.0466  0.1908  0.2082
    1C        C   49   3.016   2.637   3.157 -0.4852 -0.5831  0.4250
    1C        C   50   2.898   2.715   3.156 -0.1120 -0.0052  0.2086
    1C        C   51   3.071   2.591   3.279 -0.3751 -0.5020  0.4096
    1C        C   52   3.011   2.630   3.400 -0.5715 -0.5197  0.3204
    1C        C   53   3.205   2.546   3.524  0.0978  0.6478 -0.0305
    1C        C   54   3.073   2.595   3.522 -0.0970  0.1422  0.2732
    1C        C   55   3.272   2.525   3.647 -0.1285  0.9337  0.1418
    1C        C   56   3.203   2.546   3.768  0.3771  0.4960  0.5022
    1C        C   57   3.411   2.506   3.889  0.5243 -0.1598 -0.0178
    1C        C   58   3.273   2.534   3.891  0.7405  0.9095  0.3377
    1C        C   59   3.481   2.496   4.011  0.3785 -0.0591  0.0708
    1C        C   60   3.411   2.503   4.133  0.1893  0.2224 -0.0556
    1C        C   61   3.623   2.507   4.251 -0.4010 -0.2140 -0.0231
    1C        C   62   3.483   2.495   4.254 -0.3614 -0.6441  0.2224
    1C        C   63   3.693   2.515   4.373  0.0626  0.2072 -0.3140
    1C        C   64   3.623   2.503   4.495  0.2054 -0.8234 -0.3174
    1C        C   65   3.834   2.533   4.613 -0.1696 -0.7646 -0.2897
    1C        C   66   3.696   2.502   4.616 -0.2114 -0.5540 -0.0589
    1C        C   67   3.898   2.560   4.736 -0.1879 -0.3857 -0.3633
    1C        C   68   3.838   2.516   4.856  0.3738 -0.5253 -0.1310
    1C        C   69   4.050   2.578   4.970 -0.1430  0.1144 -0.2160
    1C        C   70   3.923   2.520   4.967  0.1134 -0.4628  0.0646
    1C        C   71   2.818   2.729   2.306  0.3593  0.2234  0.4936
    1C        C   72   2.875   2.685   2.428  0.3432 -0.1173  0.3801
    1C        C   73   2.823   2.737   2.548  0.2012  0.4826  0.0655
    1C        C   74   2.998   2.618   2.671 -0.1269  0.1514  0.2155
    1C        C   75   2.880   2.695   2.670 -0.5201 -0.4385  0.1004
    1C        C   76   3.064   2.588   2.792 -0.6001 -0.0320  0.4367
    1C        C   77   3.004   2.622   2.914 -0.2395  0.4656  0.4822
    1C        C   78   3.201   2.536   3.035  0.1837  0.8705  0.1106
    1C        C   79   3.072   2.593   3.035 -0.3049 -0.2044  0.3656
    1C        C   80   3.270   2.523   3.157 -0.1555  0.3518  0.2496
    1C        C   81   3.202   2.538   3.280 -0.1994 -0.0786  0.2828
    1C        C   82   3.411   2.506   3.401  0.1873  0.5177 -0.1275
    1C        C   83   3.270   2.518   3.402  0.1557  0.1255  0.1192
    1C        C   84   3.483   2.504   3.522 -0.0602  0.6110  0.0183
    1C        C   85   3.413   2.517   3.644 -0.1351  0.9232 -0.0602
    1C        C   86   3.623   2.500   3.766  0.0993  0.0614 -0.0979
    1C        C   87   3.482   2.507   3.767  0.1164  0.3421 -0.2504
    1C        C   88   3.692   2.511   3.888  0.0962  0.1503 -0.1090
    1C        C   89   3.622   2.499   4.010  0.3820 -0.3099  0.0118
    1C        C   90   3.833   2.548   4.131  0.1764 -0.9983 -0.2446
    1C        C   91   3.695   2.516   4.130  0.0922 -0.6470  0.2337
    1C        C   92   3.902   2.572   4.252  0.2597 -0.3304 -0.4241
    1C        C   93   3.830   2.550   4.371  0.1141 -0.0038 -0.4530
    1C        C   94   4.025   2.633   4.492 -0.0643 -0.6882 -0.0788
    1C        C   95   3.899   2.568   4.493 -0.2161 -0.3919 -0.2053
    1C        C   96   4.085   2.668   4.614 -0.1397 -0.3247 -0.1472
    1C        C   97   4.025   2.625   4.735 -0.6373  0.4999 -0.1005
    1C        C   98   4.190   2.759   4.858 -0.6080  0.5060 -0.0676
    1C        C   99   4.089   2.657   4.857 -0.4151  0.3160 -0.1712
    1C        C  100   4.215   2.831   4.975  0.1775  0.1013  0.0203
    1C        C  101   2.818   2.724   2.069  0.0327  0.3367  0.1989
    1C        C  102   2.984   2.583   2.187 -0.1919  0.2215  0.0522
    1C        C  103   2.869   2.669   2.188 -0.1640  0.2579  0.2473
    1C        C  104   3.053   2.562   2.310  0.0356 -0.5297 -0.1964
    1C        C  105   2.992   2.606   2.429  0.2001 -0.3526 -0.1766
    1C        C  106   3.195   2.540   2.550 -0.1060  0.2695 -0.0041
    1C        C  107   3.059   2.578   2.550 -0.0802  0.3748  0.1607
    1C        C  108   3.269   2.526   2.670 -0.0929  0.5465  0.0240
    1C        C  109   3.197   2.540   2.791 -0.4061  0.4889 -0.1508
    1C        C  110   3.408   2.502   2.912 -0.3041  1.0629 -0.0455
    1C        C  111   3.268   2.522   2.911 -0.4020  0.4062 -0.1623
    1C        C  112   3.480   2.496   3.033 -0.2374  0.0418 -0.1266
    1C        C  113   3.410   2.507   3.156 -0.2133 -0.1638 -0.0929
    1C        C  114   3.621   2.504   3.277  0.0002  0.4659 -0.1092
    1C        C  115   3.480   2.498   3.278  0.0150  0.1410 -0.1988
    1C        C  116   3.693   2.514   3.398 -0.3216  1.1609  0.0299
    1C        C  117   3.624   2.511   3.521 -0.0499  0.3606  0.1628
    1C        C  118   3.831   2.544   3.641  0.4035 -0.6741 -0.2254
    1C        C  119   3.693   2.514   3.644  0.2673 -0.0207 -0.0064
    1C        C  120   3.893   2.574   3.764 -0.0543  0.0438 -0.1652
    1C        C  121   3.827   2.552   3.887  0.1915 -0.1739 -0.0772
    1C        C  122   4.023   2.636   4.004  0.1867 -0.2396  0.3247
    1C        C  123   3.897   2.571   4.008  0.2610 -0.4033 -0.0844
    1C        C  124   4.086   2.670   4.126  0.5106 -0.2317  0.1530
    1C        C  125   4.029   2.633   4.250  0.2472 -0.2934  0.0116
    1C        C  126   4.198   2.761   4.371 -0.6034  0.5072 -0.0743
    1C        C  127   4.088   2.672   4.372  0.0459 -0.2949  0.1074
    1C        C  128   4.246   2.808   4.495 -0.5521  0.2358  0.0088
    1C        C  129   4.195   2.756   4.616 -0.7495  0.4391  0.0121
    1C        C  130   4.327   2.925   4.736  0.1722 -0.0824 -0.0877
    1C        C  131   4.244   2.810   4.737 -0.5091  0.4040 -0.0678
    1C        C  132   4.358   2.991   4.857 -0.1717  0.3317 -0.2190
    1C        C  133   4.288   2.949   4.971  0.5459 -0.1217  0.0670
    1C        C  134   3.165   2.458   2.083 -0.0964  0.2675  0.0066
    1C        C  135   3.029   2.490   2.088 -0.1149  0.1673  0.1381
    1C        C  136   3.253   2.477   2.190 -0.1720 -0.4102  0.1963
    1C        C  137   3.189   2.521   2.307  0.0598 -0.4928  0.3550
    1C        C  138   3.399   2.485   2.427  0.2609 -0.4547  0.3071
    1C        C  139   3.260   2.507   2.429  0.3558  0.1697  0.2626
    1C        C  140   3.475   2.482   2.546  0.1170 -0.3741  0.4039
    1C        C  141   3.407   2.501   2.668  0.0029  1.0465  0.1336
    1C        C  142   3.620   2.499   2.789  0.0143 -0.8019 -0.0326
    1C        C  143   3.478   2.496   2.790 -0.0309  0.5688  0.1349
    1C        C  144   3.689   2.512   2.912 -0.0720 -0.4986 -0.0158
    1C        C  145   3.621   2.501   3.035 -0.2398  0.0973 -0.0518
    1C        C  146   3.832   2.534   3.154 -0.1066  0.3722 -0.1125
    1C        C  147   3.694   2.507   3.156 -0.0697  0.1747 -0.1577
    1C        C  148   3.899   2.557   3.276  0.2622 -0.6692 -0.1129
    1C        C  149   3.831   2.543   3.399  0.0209 -0.3953 -0.2177
    1C        C  150   4.032   2.617   3.518  0.0167  0.0243  0.4772
    1C        C  151   3.900   2.566   3.520  0.1688 -0.3926 -0.3058
    1C        C  152   4.088   2.660   3.640  0.7749 -0.4692  0.3066
    1C        C  153   4.023   2.630   3.762  0.2548 -0.6704 -0.0225
    1C        C  154   4.199   2.753   3.883 -0.0369 -0.6608  0.1879
    1C        C  155   4.088   2.665   3.882  0.0098 -0.7131  0.1192
    1C        C  156   4.246   2.807   4.004 -0.0442  0.0401 -0.1213
    1C        C  157   4.195   2.759   4.127  0.3646 -0.0543  0.0113
    1C        C  158   4.337   2.918   4.249 -0.1587  0.4648 -0.0470
    1C        C  159   4.247   2.809   4.248 -0.4728  0.7221  0.0629
    1C        C  160   4.371   2.979   4.372 -0.3685  0.1875  0.1472
    1C        C  161   4.324   2.926   4.494 -0.2411  0.0315  0.1277
    1C        C  162   4.436   3.109   4.607  0.3126 -0.0267 -0.1777
    1C        C  163   4.369   2.984   4.614  0.0883  0.1012 -0.0278
    1C        C  164   4.457   3.178   4.729  0.0275  0.0950 -0.1956
    1C        C  165   4.427   3.114   4.851 -0.3426  0.4329 -0.1072
    1C        C  166   4.517   3.312   4.963 -0.3338  0.2275 -0.3943
    1C        C  167   4.479   3.178   4.964 -0.1156  0.1661 -0.0587
    1C        C  168   3.467   2.428   2.073 -0.4468 -0.0598 -0.4419
    1C        C  169   3.393   2.457   2.189 -0.2152 -0.6975 -0.1331
    1C        C  170   3.612   2.471   2.304 -0.3546 -0.0806 -0.0235
    1C        C  171   3.470   2.474   2.305 -0.3648 -0.4965 -0.0622
    1C        C  172   3.688   2.480   2.422  0.0038 -0.4042 -0.2256
    1C        C  173   3.616   2.480   2.544  0.1175 -0.0942 -0.1575
    1C        C  174   3.824   2.531   2.663 -0.0453 -0.2141  0.1723
    1C        C  175   3.687   2.499   2.665  0.0161 -0.4991 -0.0339
    1C        C  176   3.893   2.557   2.784 -0.3757 -0.0451  0.3262
    1C        C  177   3.827   2.541   2.907 -0.1582  0.0117  0.4510
    1C        C  178   4.019   2.626   3.029  0.1758  0.6762  0.3881
    1C        C  179   3.894   2.560   3.030  0.3958  0.2525  0.1126
    1C        C  180   4.085   2.654   3.151  0.1976  0.8180  0.3447
    1C        C  181   4.028   2.616   3.274 -0.2002  0.3584  0.0183
    1C        C  182   4.197   2.743   3.393 -0.5203 -0.0734  0.1399
    1C        C  183   4.093   2.647   3.395 -0.2853 -0.3254  0.2445
    1C        C  184   4.246   2.796   3.514 -0.1808  0.2896 -0.1582
    1C        C  185   4.194   2.753   3.638  0.4115 -0.0649 -0.0256
    1C        C  186   4.332   2.913   3.757 -0.7988  0.2905  0.3575
    1C        C  187   4.248   2.800   3.759 -0.3141 -0.0694  0.3036
    1C        C  188   4.373   2.971   3.879  0.1946 -0.1763  0.2562
    1C        C  189   4.335   2.917   4.004 -0.0837  0.0725  0.2782
    1C        C  190   4.439   3.102   4.122 -0.1601  0.5880  0.1227
    1C        C  191   4.376   2.976   4.126  0.0988  0.4573  0.0321
    1C        C  192   4.465   3.169   4.243  0.1112  0.3029  0.2237
    1C        C  193   4.431   3.106   4.365 -0.5002  0.2431  0.0264
    1C        C  194   4.507   3.308   4.483  0.0626  0.2760 -0.0322
    1C        C  195   4.463   3.174   4.485 -0.4134  0.4296 -0.1008
    1C        C  196   4.519   3.381   4.603 -0.3090  0.0331  0.1591
    1C        C  197   4.505   3.311   4.725  0.3145  0.0053  0.2190
    1C        C  198   4.550   3.527   4.840  0.2205  0.6341  0.4667
    1C        C  199   4.526   3.386   4.844 -0.2524  0.6915 -0.1007
    1C        C  200   4.584   3.612   4.950  0.1528  0.5532  0.5537
    1C        C  201   3.606   2.419   2.072 -0.4483 -0.1859  0.2779
    1C        C  202   3.823   2.506   2.181 -0.3087  0.2765  0.1213
    1C        C  203   3.687   2.462   2.183 -0.2438  0.0700  0.0325
    1C        C  204   3.897   2.527   2.301 -0.1328 -0.8891  0.2270
    1C        C  205   3.826   2.511   2.422  0.1249 -0.9103  0.3750
    1C        C  206   4.017   2.616   2.541 -0.0589  0.1681 -0.1039
    1C        C  207   3.893   2.548   2.541 -0.2213  0.4561  0.1600
    1C        C  208   4.078   2.655   2.662 -0.4932  0.2436  0.0972
    1C        C  209   4.018   2.622   2.785 -0.2036 -0.3664  0.0798
    1C        C  210   4.201   2.732   2.905 -0.0077 -0.4019 -0.2782
    1C        C  211   4.080   2.659   2.906 -0.0980 -0.2510 -0.0073
    1C        C  212   4.253   2.782   3.026 -0.1189  0.3321 -0.5295
    1C        C  213   4.200   2.736   3.148  0.4305  0.4816 -0.2287
    1C        C  214   4.344   2.891   3.267  0.1406 -0.4568  0.2034
    1C        C  215   4.254   2.782   3.270 -0.0541 -0.2943  0.2853
    1C        C  216   4.376   2.959   3.387  0.1367  0.2261 -0.1815
    1C        C  217   4.333   2.907   3.511 -0.5328  0.5595 -0.2677
    1C        C  218   4.429   3.095   3.633 -0.6157 -0.0842 -0.0602
    1C        C  219   4.376   2.964   3.633 -1.1872  0.1426  0.1613
    1C        C  220   4.453   3.163   3.754 -0.1808 -0.0783 -0.1538
    1C        C  221   4.439   3.096   3.877 -0.0096 -0.0755 -0.1354
    1C        C  222   4.500   3.300   3.995 -0.7192  0.2412 -0.0865
    1C        C  223   4.468   3.163   3.998 -0.5593  0.2040 -0.1608
    1C        C  224   4.513   3.374   4.114 -0.1007  0.0229 -0.0196
    1C        C  225   4.503   3.305   4.237  0.1195  0.2970  0.1517
    1C        C  226   4.510   3.516   4.356  0.4434  0.5165 -0.0965
    1C        C  227   4.516   3.375   4.359 -0.1377  0.4922  0.0682
    1C        C  228   4.504   3.590   4.476  0.0420  0.0235  0.1963
    1C        C  229   4.523   3.522   4.599 -0.2756  0.0384  0.2573
    1C        C  230   4.492   3.734   4.718 -0.0709  0.0838  0.0517
    1C        C  231   4.532   3.597   4.718  0.0621  0.1187  0.1865
    1C        C  232   4.490   3.811   4.836  0.8284  0.5490 -0.2288
    1C        C  233   4.541   3.746   4.949 -0.2307  0.4308  0.1919
    1C        C  234   4.013   2.607   2.060  0.1761  0.3329  0.0906
    1C        C  235   3.890   2.542   2.063  0.3115  0.0933  0.4147
    1C        C  236   4.082   2.637   2.178  0.2313 -0.2232  0.2026
    1C        C  237   4.020   2.597   2.298 -0.3288 -0.5595 -0.1943
    1C        C  238   4.194   2.726   2.419 -0.4493 -0.0597 -0.0239
    1C        C  239   4.081   2.640   2.418 -0.2964 -0.2596 -0.3166
    1C        C  240   4.252   2.776   2.538 -0.6221  0.3604 -0.1083
    1C        C  241   4.193   2.738   2.661 -0.1272 -0.2536 -0.0485
    1C        C  242   4.336   2.895   2.782 -0.3449  0.0271 -0.0454
    1C        C  243   4.250   2.783   2.782  0.4432 -0.5939 -0.1846
    1C        C  244   4.373   2.957   2.903 -0.1714 -0.0976 -0.0308
    1C        C  245   4.337   2.896   3.026  0.3657 -0.0154  0.1706
    1C        C  246   4.443   3.081   3.145 -0.4606  0.1175 -0.0893
    1C        C  247   4.379   2.956   3.147  0.0315 -0.1309  0.3452
    1C        C  248   4.456   3.152   3.267 -0.4154  0.1041 -0.0867
    1C        C  249   4.433   3.088   3.391  0.6445 -0.0042  0.0623
    1C        C  250   4.493   3.295   3.510 -0.2764  0.1103 -0.1529
    1C        C  251   4.460   3.158   3.510  0.0767  0.0267  0.1728
    1C        C  252   4.497   3.369   3.630  0.1686 -0.1057 -0.0361
    1C        C  253   4.487   3.300   3.753  0.1646 -0.1652 -0.0727
    1C        C  254   4.511   3.513   3.870  0.1078 -0.0145 -0.2034
    1C        C  255   4.508   3.371   3.873  0.2258 -0.0136 -0.1766
    1C        C  256   4.512   3.585   3.991 -0.4335 -0.0354 -0.1866
    1C        C  257   4.515   3.515   4.113 -0.0342  0.0210 -0.1625
    1C        C  258   4.477   3.724   4.232 -0.0101  0.3162 -0.3860
    1C        C  259   4.510   3.587   4.234 -0.4214  0.2132 -0.2876
    1C        C  260   4.457   3.795   4.353  0.0056 -0.1251 -0.1189
    1C        C  261   4.473   3.728   4.476 -0.1598 -0.0189 -0.0344
    1C        C  262   4.414   3.932   4.597  0.6411  0.2212 -0.0745
    1C        C  263   4.455   3.797   4.597  0.1410  0.0633 -0.0302
    1C        C  264   4.399   4.005   4.717  0.2402 -0.0095  0.0242
    1C        C  265   4.432   3.940   4.838 -0.1404  0.1180  0.2021
    1C        C  266   4.317   4.125   4.951 -0.9778 -0.2917  0.3039
    1C        C  267   4.396   4.011   4.953  0.0998  0.4313  0.0881
    1C        C  268   4.255   2.769   2.061 -0.2172 -0.1297 -0.0528
    1C        C  269   4.190   2.728   2.178 -0.4039  0.5433  0.0854
    1C        C  270   4.341   2.884   2.297 -0.7253  0.6386  0.0390
    1C        C  271   4.244   2.779   2.298 -0.2753  0.2199  0.1671
    1C        C  272   4.383   2.942   2.419 -0.0913 -0.2069  0.2381
    1C        C  273   4.344   2.883   2.540 -0.3832  0.1544  0.3266
    1C        C  274   4.442   3.076   2.658 -0.0816  0.3073 -0.2485
    1C        C  275   4.380   2.949   2.659 -0.1659  0.3489  0.1570
    1C        C  276   4.464   3.145   2.779 -0.5462 -0.1773  0.1213
    1C        C  277   4.438   3.082   2.902 -0.1876 -0.0842  0.2482
    1C        C  278   4.506   3.283   3.023  0.1105  0.1008  0.0365
    1C        C  279   4.474   3.146   3.023  0.1944  0.0804  0.0523
    1C        C  280   4.507   3.356   3.144  0.2631  0.4512 -0.1724
    1C        C  281   4.492   3.288   3.267  0.4133 -0.1064 -0.4573
    1C        C  282   4.510   3.503   3.381  0.2220 -0.2566 -0.1785
    1C        C  283   4.504   3.362   3.386  0.0005 -0.2521 -0.3229
    1C        C  284   4.504   3.577   3.501 -0.5035 -0.0433 -0.3446
    1C        C  285   4.506   3.510   3.625 -0.0943 -0.1031 -0.3871
    1C        C  286   4.468   3.718   3.747  0.2066 -0.1965 -0.1379
    1C        C  287   4.497   3.580   3.747  0.0810 -0.2198 -0.3102
    1C        C  288   4.454   3.787   3.870  0.3372  0.0915 -0.2860
    1C        C  289   4.488   3.725   3.992  0.2473  0.0853 -0.2661
    1C        C  290   4.430   3.933   4.106  0.4784  0.3728 -0.2636
    1C        C  291   4.468   3.797   4.112  0.4771  0.3663 -0.3966
    1C        C  292   4.399   3.997   4.228  0.2258 -0.1797 -0.0283
    1C        C  293   4.413   3.929   4.351  0.2192 -0.0465  0.0510
    1C        C  294   4.313   4.116   4.471  0.1943  0.0886 -0.2550
    1C        C  295   4.382   3.992   4.473  0.8093  0.4208 -0.0292
    1C        C  296   4.280   4.181   4.592  1.0267  0.0661  0.0032
    1C        C  297   4.327   4.127   4.714 -0.0560 -0.1703  0.3356
    1C        C  298   4.195   4.305   4.834  0.1040  0.2709 -0.6871
    1C        C  299   4.280   4.190   4.832 -0.5735 -0.2620  0.1885
    1C        C  300   4.164   4.394   4.941 -0.3815 -0.5405 -0.1359
    1C        C  301   4.342   2.878   2.059 -0.0109 -0.2900  0.1787
    1C        C  302   4.457   3.066   2.174 -0.5662  0.4099 -0.0575
    1C        C  303   4.386   2.942   2.176 -0.3884  0.3037 -0.0020
    1C        C  304   4.462   3.141   2.294 -0.6711 -0.0529  0.2392
    1C        C  305   4.436   3.073   2.416 -0.0437 -0.2209  0.2879
    1C        C  306   4.496   3.280   2.533  0.2998  0.4526 -0.2224
    1C        C  307   4.464   3.143   2.535 -0.1065  0.5418 -0.1302
    1C        C  308   4.506   3.350   2.656 -0.1724 -0.0363  0.1031
    1C        C  309   4.497   3.282   2.779 -0.0991 -0.2800 -0.0235
    1C        C  310   4.510   3.494   2.896 -0.1654 -0.1021 -0.3811
    1C        C  311   4.515   3.353   2.900 -0.2468 -0.0984 -0.1053
    1C        C  312   4.507   3.566   3.017 -0.6355 -0.2567 -0.3005
    1C        C  313   4.511   3.497   3.140 -1.0069  0.5032  0.1478
    1C        C  314   4.473   3.711   3.260 -0.0133  0.5087 -0.3010
    1C        C  315   4.496   3.572   3.259 -0.0919  0.4913  0.2722
    1C        C  316   4.463   3.784   3.380  0.3497  0.1443 -0.0507
    1C        C  317   4.478   3.716   3.503  0.0320  0.0535 -0.0647
    1C        C  318   4.408   3.918   3.619 -0.2029 -0.1561 -0.1702
    1C        C  319   4.457   3.786   3.624  0.3400  0.0498 -0.0118
    1C        C  320   4.386   3.988   3.740 -0.0023  0.0355 -0.2474
    1C        C  321   4.414   3.922   3.861 -0.2331 -0.0710 -0.2543
    1C        C  322   4.310   4.104   3.985  0.2504  0.1312  0.0312
    1C        C  323   4.394   3.991   3.983  0.3074  0.1809 -0.3046
    1C        C  324   4.268   4.163   4.107  0.5678 -0.0049  0.2098
    1C        C  325   4.320   4.114   4.229  0.7612  0.1868  0.2061
    1C        C  326   4.185   4.283   4.348 -0.3751 -0.0628  0.0056
    1C        C  327   4.277   4.175   4.349  0.2370  0.4439 -0.1039
    1C        C  328   4.135   4.335   4.469 -0.3243 -0.1915  0.0893
    1C        C  329   4.189   4.290   4.592  0.3809 -0.4563 -0.3109
    1C        C  330   4.015   4.420   4.709 -0.0324  0.1034 -0.1819
    1C        C  331   4.135   4.343   4.710 -0.1767 -0.1518 -0.6908
    1C        C  332   3.961   4.477   4.826  0.3099  0.3827 -0.1526
    1C        C  333   4.045   4.467   4.937 -0.2258 -0.2620  0.2037
    1C        C  334   4.542   3.266   2.061 -0.0773 -0.0172  0.0517
    1C        C  335   4.529   3.127   2.066  0.0550 -0.0299  0.0963
    1C        C  336   4.531   3.348   2.174  0.6430  0.1118  0.0365
    1C        C  337   4.496   3.279   2.292  0.4272 -0.3137 -0.2711
    1C        C  338   4.516   3.493   2.410  0.0179  0.0776  0.1367
    1C        C  339   4.507   3.352   2.412  0.2434  0.0494 -0.4697
    1C        C  340   4.509   3.564   2.532  0.0084  0.2119  0.0577
    1C        C  341   4.502   3.491   2.652 -0.0396 -0.0357 -0.0944
    1C        C  342   4.484   3.703   2.768  0.2988  0.2108 -0.4013
    1C        C  343   4.503   3.563   2.774  0.1243  0.1936 -0.2319
    1C        C  344   4.459   3.770   2.890  0.6404  0.2465 -0.3511
    1C        C  345   4.477   3.704   3.013  0.3457 -0.0419 -0.4631
    1C        C  346   4.402   3.904   3.135  0.5338  0.1970 -0.1407
    1C        C  347   4.458   3.774   3.134  0.2525  0.0788 -0.5490
    1C        C  348   4.378   3.976   3.253  1.2183  0.2555 -0.0352
    1C        C  349   4.413   3.916   3.376  0.4733  0.1939  0.1490
    1C        C  350   4.312   4.105   3.497  0.2972  0.4566  0.0543
    1C        C  351   4.383   3.984   3.497 -0.2217  0.1505  0.0012
    1C        C  352   4.272   4.164   3.619  0.2063  0.1607  0.1657
    1C        C  353   4.312   4.108   3.742  0.2777  0.1987  0.1581
    1C        C  354   4.168   4.263   3.860  0.1621  0.2164  0.1274
    1C        C  355   4.267   4.163   3.864  0.1714  0.2263  0.1053
    1C        C  356   4.122   4.315   3.983  0.4860  0.4250  0.1623
    1C        C  357   4.178   4.272   4.105  0.5341 -0.0323 -0.0198
    1C        C  358   4.012   4.405   4.228 -0.0005 -0.0358  0.0740
    1C        C  359   4.129   4.325   4.226 -0.2158 -0.3533 -0.1747
    1C        C  360   3.948   4.443   4.348  0.2267  0.3751  0.0721
    1C        C  361   4.014   4.408   4.468 -0.1696  0.0822  0.2137
    1C        C  362   3.821   4.507   4.587 -0.6127 -0.2015 -0.1922
    1C        C  363   3.949   4.447   4.587 -0.2737  0.4996  0.0289
    1C        C  364   3.755   4.538   4.708 -0.0333 -0.4702  0.2026
    1C        C  365   3.831   4.532   4.826  0.2846  0.3302  0.0470
    1C        C  366   3.621   4.578   4.946 -0.4550  0.1905 -0.3100
    1C        C  367   3.759   4.560   4.943 -0.5401 -0.4941 -0.2521
    1C        C  368   4.513   3.563   2.049  0.0214  0.0726 -0.2249
    1C        C  369   4.528   3.489   2.168  0.0409  0.0923 -0.2146
    1C        C  370   4.504   3.703   2.284 -0.0848 -0.1616 -0.2415
    1C        C  371   4.520   3.563   2.288 -0.7037 -0.2293 -0.0632
    1C        C  372   4.483   3.775   2.404 -0.1823 -0.0559 -0.3233
    1C        C  373   4.487   3.704   2.526  0.4386  0.2711 -0.1493
    1C        C  374   4.418   3.905   2.647  0.0845  0.3509 -0.4991
    1C        C  375   4.469   3.773   2.647  0.3183  0.4428 -0.2672
    1C        C  376   4.384   3.970   2.768  0.3110  0.1534 -0.3310
    1C        C  377   4.403   3.900   2.889  0.9575  0.3814 -0.3009
    1C        C  378   4.303   4.086   3.008  0.9367  0.2098  0.0496
    1C        C  379   4.380   3.968   3.011  0.9363  0.2050 -0.2087
    1C        C  380   4.262   4.149   3.127  0.4543 -0.1404  0.0644
    1C        C  381   4.309   4.099   3.250  0.7195 -0.0241  0.0089
    1C        C  382   4.168   4.255   3.372  0.0862 -0.1859 -0.1567
    1C        C  383   4.271   4.159   3.372  0.2115 -0.0511 -0.1355
    1C        C  384   4.113   4.301   3.493  0.4337  0.2397 -0.1570
    1C        C  385   4.169   4.260   3.616  0.4650  0.4320 -0.1066
    1C        C  386   4.002   4.391   3.738 -0.3222 -1.0609  0.4895
    1C        C  387   4.120   4.314   3.737  0.6317  0.3516 -0.0034
    1C        C  388   3.940   4.422   3.861 -0.4515 -0.0178  0.1740
    1C        C  389   4.002   4.389   3.983  0.3319  0.1789 -0.1547
    1C        C  390   3.813   4.479   4.103  0.0062 -0.7316 -0.2225
    1C        C  391   3.943   4.423   4.107  0.2234 -0.2265 -0.0890
    1C        C  392   3.745   4.503   4.224 -0.0022 -0.5492 -0.2600
    1C        C  393   3.816   4.493   4.346  0.2221  0.3617 -0.3052
    1C        C  394   3.610   4.549   4.471 -0.1458  0.1267 -0.1352
    1C        C  395   3.749   4.523   4.466 -0.1648  0.0516 -0.4346
    1C        C  396   3.539   4.555   4.592 -0.0945 -0.7397 -0.0565
    1C        C  397   3.615   4.550   4.711  0.0132  0.2293 -0.0729
    1C        C  398   3.403   4.536   4.835 -0.4400  0.2452 -0.0455
    1C        C  399   3.542   4.556   4.832 -0.3887 -0.1435 -0.2901
    1C        C  400   3.334   4.507   4.954  0.2859 -0.3719  0.2277
    1C        C  401   4.499   3.701   2.047 -0.1924  0.0511 -0.2782
    1C        C  402   4.450   3.912   2.162 -0.0792 -0.0671 -0.2844
    1C        C  403   4.490   3.776   2.164 -0.1558 -0.0874 -0.1872
    1C        C  404   4.406   3.974   2.281 -0.1027  0.3632 -0.5173
    1C        C  405   4.439   3.909   2.402  0.0086  0.0032 -0.7405
    1C        C  406   4.315   4.083   2.519  0.4072  0.1662  0.1513
    1C        C  407   4.399   3.970   2.523  0.3491  0.0900 -0.6748
    1C        C  408   4.270   4.144   2.638 -0.3481 -0.0601 -0.0150
    1C        C  409   4.313   4.091   2.762  0.1463  0.0645 -0.1355
    1C        C  410   4.168   4.246   2.882 -0.0419 -0.5702 -0.0188
    1C        C  411   4.263   4.142   2.884  0.5610 -0.0222  0.0689
    1C        C  412   4.115   4.298   3.002  0.9294  0.3717  0.0110
    1C        C  413   4.166   4.253   3.126  0.7813  0.1593 -0.0056
    1C        C  414   4.005   4.388   3.250 -0.0324 -0.3876  0.0645
    1C        C  415   4.116   4.301   3.249  0.3725  0.1289 -0.1592
    1C        C  416   3.940   4.424   3.370 -0.1694 -0.5440  0.0388
    1C        C  417   4.002   4.388   3.492  0.2670  0.0307 -0.0059
    1C        C  418   3.809   4.473   3.616  0.2484 -0.8191  0.1843
    1C        C  419   3.942   4.425   3.614  0.2167 -0.9120  0.2627
    1C        C  420   3.739   4.492   3.738 -0.2844 -0.8933 -0.1071
    1C        C  421   3.809   4.474   3.859 -0.8177 -0.9137  0.2005
    1C        C  422   3.605   4.522   3.983 -0.7561 -1.0286  0.1419
    1C        C  423   3.745   4.503   3.982 -0.6892 -0.5635  0.1901
    1C        C  424   3.535   4.533   4.105 -0.2738  0.2128  0.3184
    1C        C  425   3.606   4.531   4.227  0.0385 -0.3682  0.1339
    1C        C  426   3.397   4.529   4.350 -0.2869  0.4386 -0.1174
    1C        C  427   3.537   4.542   4.350 -0.2579  0.1513 -0.0720
    1C        C  428   3.328   4.529   4.474 -0.3515 -0.1240 -0.1483
    1C        C  429   3.398   4.546   4.595 -0.1479 -0.0747 -0.2698
    1C        C  430   3.187   4.510   4.717  0.0877 -0.3518 -0.0899
    1C        C  431   3.326   4.540   4.717 -0.1431  0.7634 -0.2220
    1C        C  432   3.118   4.483   4.838  0.1202 -0.4784 -0.1008
    1C        C  433   3.198   4.482   4.954  0.2487 -0.1633 -0.1860
    1C        C  434   4.364   4.106   2.041 -0.3729  0.0115 -0.2561
    1C        C  435   4.439   3.989   2.046 -0.4562 -0.0393 -0.2316
    1C        C  436   4.289   4.150   2.155 -0.2902 -0.0467 -0.1828
    1C        C  437   4.325   4.090   2.279  0.2794  0.6414 -0.0120
    1C        C  438   4.172   4.243   2.397  0.1254 -0.0128 -0.0969
    1C        C  439   4.271   4.142   2.399  0.4283  0.2895  0.2071
    1C        C  440   4.121   4.296   2.518 -0.2099  0.1218 -0.2979
    1C        C  441   4.173   4.247   2.640 -0.4305 -0.1365 -0.3095
    1C        C  442   4.000   4.375   2.761  0.2526 -0.0835  0.2551
    1C        C  443   4.114   4.292   2.760 -0.0686 -0.5200  0.0123
    1C        C  444   3.939   4.415   2.882  0.0050 -0.3241  0.2094
    1C        C  445   4.002   4.381   3.004  0.4170 -0.3179  0.0024
    1C        C  446   3.808   4.459   3.127  0.1043 -0.6096  0.0676
    1C        C  447   3.943   4.418   3.127  0.1092 -0.5970 -0.0590
    1C        C  448   3.737   4.472   3.249 -0.1348 -1.2179 -0.0028
    1C        C  449   3.805   4.465   3.372 -0.1661 -0.5305  0.0595
    1C        C  450   3.601   4.515   3.494  0.0660 -0.7979 -0.1699
    1C        C  451   3.740   4.493   3.495  0.0388 -0.9787  0.2754
    1C        C  452   3.532   4.539   3.615 -0.1987 -0.3270 -0.4143
    1C        C  453   3.602   4.526   3.736 -0.1575 -0.3766 -0.4439
    1C        C  454   3.395   4.531   3.858  0.0923  0.6128 -0.1536
    1C        C  455   3.536   4.532   3.861  0.1042 -0.3790 -0.3027
    1C        C  456   3.328   4.520   3.982 -0.3506  0.4273 -0.4089
    1C        C  457   3.394   4.532   4.106 -0.2782  0.0111 -0.4069
    1C        C  458   3.187   4.498   4.233  0.1242 -0.1185 -0.0730
    1C        C  459   3.325   4.530   4.229 -0.0437  0.5973 -0.2613
    1C        C  460   3.120   4.484   4.356  0.0211 -0.2105 -0.1407
    1C        C  461   3.190   4.502   4.477 -0.4162  0.2249  0.0493
    1C        C  462   2.987   4.429   4.596 -0.4300  0.2497  0.0337
    1C        C  463   3.117   4.484   4.597 -0.3221 -0.0048  0.0738
    1C        C  464   2.924   4.397   4.718  0.3173 -0.0560  0.3437
    1C        C  465   2.986   4.429   4.842  0.2786 -0.8348  0.5717
    1C        C  466   2.788   4.338   4.954  0.0763 -0.0556 -0.1660
    1C        C  467   2.899   4.423   4.956 -0.1071  0.1803  0.3447
    1C        C  468   4.105   4.269   2.039 -0.0045  0.1587  0.0060
    1C        C  469   4.179   4.240   2.154  0.1276  0.4655 -0.0028
    1C        C  470   4.001   4.367   2.275 -0.3053 -0.3120 -0.2071
    1C        C  471   4.121   4.290   2.274  0.1293  0.3530  0.0426
    1C        C  472   3.938   4.396   2.398  0.0848 -0.3686  0.0080
    1C        C  473   4.004   4.374   2.521 -0.1669  0.1620  0.2373
    1C        C  474   3.811   4.469   2.637 -0.0385 -0.3014  0.2300
    1C        C  475   3.944   4.421   2.640  0.1142  0.1205  0.3963
    1C        C  476   3.744   4.490   2.760 -0.4406 -1.3138  0.1908
    1C        C  477   3.808   4.468   2.884  0.1221 -0.0288  0.1459
    1C        C  478   3.603   4.516   3.007 -0.0597 -0.5854  0.2235
    1C        C  479   3.742   4.489   3.006 -0.0687 -0.6375  0.1533
    1C        C  480   3.528   4.516   3.127 -0.2538  0.2912  0.1129
    1C        C  481   3.599   4.501   3.248  0.0320 -0.4120 -0.1314
    1C        C  482   3.390   4.513   3.372  0.0120  0.2385 -0.0589
    1C        C  483   3.531   4.511   3.371  0.0055 -0.3781 -0.1492
    1C        C  484   3.318   4.524   3.493  0.0707  0.0823 -0.0116
    1C        C  485   3.391   4.533   3.613 -0.2170 -0.0930  0.1742
    1C        C  486   3.186   4.487   3.741 -0.4598  0.6691 -0.0396
    1C        C  487   3.324   4.518   3.737 -0.2798 -0.0895  0.1388
    1C        C  488   3.121   4.470   3.865 -0.6460  0.7051 -0.1356
    1C        C  489   3.191   4.486   3.987 -0.3387  0.4075 -0.2752
    1C        C  490   2.993   4.416   4.110  0.0695  0.1004  0.0681
    1C        C  491   3.124   4.467   4.110  0.1674 -0.1540 -0.0838
    1C        C  492   2.938   4.376   4.234 -0.3335  0.3568 -0.0321
    1C        C  493   2.993   4.422   4.355 -0.2733  0.3886 -0.0745
    1C        C  494   2.822   4.295   4.475 -0.0010  0.0184  0.1360
    1C        C  495   2.924   4.392   4.475 -0.2042  0.2276 -0.0763
    1C        C  496   2.769   4.251   4.598  0.1135 -0.2697  0.0801
    1C        C  497   2.812   4.310   4.719  0.0285  0.3068 -0.1705
    1C        C  498   2.661   4.158   4.837 -0.6168  0.6238 -0.2737
    1C        C  499   2.751   4.267   4.839  0.0791  0.0572 -0.2347
    1C        C  500   2.597   4.110   4.952 -0.1634  0.7042  0.0164
    1C        C  501   3.993   4.351   2.036 -0.0210  0.1374  0.0317
    1C        C  502   3.812   4.467   2.154 -0.1091  0.5807 -0.2493
    1C        C  503   3.937   4.401   2.154 -0.4921 -0.1537 -0.0650
    1C        C  504   3.741   4.479   2.275  0.5160  0.2738  0.1535
    1C        C  505   3.807   4.448   2.396  0.0863 -0.3540  0.2314
    1C        C  506   3.600   4.495   2.519  0.1869 -0.4882 -0.0301
    1C        C  507   3.741   4.482   2.516  0.2944  0.5134  0.1129
    1C        C  508   3.531   4.506   2.641 -0.0127 -0.0231 -0.1800
    1C        C  509   3.604   4.511   2.762 -0.2706 -0.0793 -0.0186
    1C        C  510   3.393   4.506   2.883  0.0123 -0.0935  0.2970
    1C        C  511   3.533   4.516   2.884  0.0312 -0.3257  0.1706
    1C        C  512   3.318   4.505   3.002 -0.2937  0.5700  0.1156
    1C        C  513   3.387   4.509   3.125 -0.2697  0.6226  0.0993
    1C        C  514   3.183   4.476   3.250 -0.3255  0.3591 -0.4812
    1C        C  515   3.320   4.507   3.249 -0.2536  0.0597  0.1014
    1C        C  516   3.115   4.459   3.373  0.0646  0.1144 -0.3002
    1C        C  517   3.181   4.488   3.494 -0.0592  0.5776 -0.3460
    1C        C  518   2.992   4.405   3.623 -0.2088  1.2393  0.1119
    1C        C  519   3.121   4.461   3.618 -0.0947  0.9384 -0.2874
    1C        C  520   2.928   4.375   3.746 -0.6437  0.8286 -0.2136
    1C        C  521   2.992   4.414   3.866 -0.5319  0.4495 -0.1537
    1C        C  522   2.831   4.279   3.990  0.1314  0.3719 -0.0779
    1C        C  523   2.932   4.377   3.989 -0.4279  0.9520  0.0443
    1C        C  524   2.781   4.231   4.112 -0.2178 -0.0310 -0.3830
    1C        C  525   2.834   4.280   4.233 -0.2803  0.3034 -0.4962
    1C        C  526   2.686   4.129   4.357  0.4213  0.3420 -0.0239
    1C        C  527   2.775   4.239   4.355  0.2864  0.4459 -0.1747
    1C        C  528   2.636   4.079   4.479  0.3319  0.2312 -0.1087
    1C        C  529   2.674   4.146   4.597  0.2596 -0.4035  0.2767
    1C        C  530   2.587   3.952   4.723 -0.2785 -0.2649 -0.0721
    1C        C  531   2.642   4.083   4.719 -0.4819 -0.1706  0.2011
    1C        C  532   2.544   3.893   4.845  0.1996 -0.0686  0.1929
    1C        C  533   2.529   3.987   4.952  0.3709  0.4069 -0.2005
    1C        C  534   3.607   4.540   2.034  0.0626  0.3849  0.0399
    1C        C  535   3.744   4.508   2.038  0.1003  0.4744 -0.4135
    1C        C  536   3.531   4.519   2.153  0.3371  0.1391  0.1769
    1C        C  537   3.601   4.504   2.276  0.3478 -0.6557  0.0788
    1C        C  538   3.388   4.508   2.399  0.2230 -0.1102 -0.1099
    1C        C  539   3.529   4.507   2.397  0.2282  0.0330 -0.0062
    1C        C  540   3.316   4.499   2.520  0.1222  0.5126 -0.1192
    1C        C  541   3.390   4.504   2.640 -0.0241  0.4963 -0.0251
    1C        C  542   3.181   4.474   2.765  0.1686  0.7328  0.1420
    1C        C  543   3.320   4.497   2.762  0.2708  0.1214  0.1239
    1C        C  544   3.111   4.452   2.885 -0.0586  0.3013 -0.0672
    1C        C  545   3.179   4.478   3.006 -0.2695  0.4382  0.0206
    1C        C  546   2.985   4.397   3.129 -0.6538  0.1262 -0.0187
    1C        C  547   3.114   4.453   3.129 -0.6679  0.1523 -0.2484
    1C        C  548   2.930   4.359   3.253 -0.3514  0.1362  0.1165
    1C        C  549   2.990   4.392   3.376 -0.1802  0.5833 -0.0908
    1C        C  550   2.829   4.268   3.498  0.1886  0.8026  0.2550
    1C        C  551   2.935   4.360   3.502  0.0115  1.0066  0.0983
    1C        C  552   2.780   4.222   3.622  0.2628  0.2423  0.0791
    1C        C  553   2.828   4.276   3.744  0.4251 -0.2902  0.2471
    1C        C  554   2.692   4.119   3.870 -0.2625  0.2412 -0.0997
    1C        C  555   2.778   4.232   3.868 -0.3119  0.2783  0.1567
    1C        C  556   2.649   4.063   3.992  0.2429 -0.1147 -0.0841
    1C        C  557   2.689   4.123   4.113  0.3318 -0.5010  0.0774
    1C        C  558   2.586   3.940   4.240  0.2706 -0.2176  0.3222
    1C        C  559   2.648   4.067   4.236  0.9009 -0.5245  0.2577
    1C        C  560   2.558   3.877   4.363  0.4967 -0.3110  0.3236
    1C        C  561   2.583   3.948   4.483  0.5504  0.1484  0.0422
    1C        C  562   2.536   3.742   4.606  0.5015 -0.1728  0.0134
    1C        C  563   2.560   3.881   4.605 -0.2706 -0.0388 -0.2098
    1C        C  564   2.512   3.675   4.728  0.2787 -0.1213 -0.0025
    1C        C  565   2.519   3.752   4.847 -0.3041  0.0161 -0.0558
    1C        C  566   2.520   3.541   4.972  0.0221  0.2354 -0.2487
    1C        C  567   2.536   3.679   4.965 -0.0063  0.2538  0.0497
    1C        C  568   3.320   4.469   2.038  0.1168 -0.0078  0.2864
    1C        C  569   3.389   4.504   2.154  0.3750 -0.2506  0.2083
    1C        C  570   3.182   4.457   2.275 -0.1307  0.4686  0.1221
    1C        C  571   3.318   4.500   2.277 -0.0021  0.0803  0.0039
    1C        C  572   3.113   4.446   2.398  0.0696 -0.3779  0.1651
    1C        C  573   3.177   4.473   2.520  0.2327 -0.0979  0.0223
    1C        C  574   2.984   4.393   2.642  0.1231  0.7405  0.1177
    1C        C  575   3.110   4.457   2.643  0.2701  0.4555  0.1206
    1C        C  576   2.922   4.357   2.763  0.0635 -0.0250 -0.1307
    1C        C  577   2.982   4.396   2.886 -0.2026  0.6326 -0.2031
    1C        C  578   2.813   4.270   3.009  0.0202  0.1369 -0.2019
    1C        C  579   2.920   4.363   3.008 -0.3735  0.5891 -0.3018
    1C        C  580   2.766   4.222   3.133  0.0574  0.0262 -0.2326
    1C        C  581   2.818   4.273   3.254  0.0812 -0.4277 -0.0534
    1C        C  582   2.689   4.107   3.378  0.8808 -0.1404 -0.6127
    1C        C  583   2.772   4.220   3.377  0.5435  0.1243  0.3536
    1C        C  584   2.651   4.052   3.503  0.8206  0.4323 -0.3759
    1C        C  585   2.692   4.112   3.623  0.4482  0.0986 -0.0839
    1C        C  586   2.596   3.930   3.751  0.4081  0.0568 -0.1948
    1C        C  587   2.652   4.060   3.748 -0.0057  0.2324 -0.1776
    1C        C  588   2.567   3.867   3.873  1.0260 -0.1195 -0.1402
    1C        C  589   2.591   3.934   3.995  0.6259 -0.2821  0.0275
    1C        C  590   2.540   3.732   4.123  0.1149  0.0935 -0.0133
    1C        C  591   2.564   3.871   4.119  0.4043  0.0476  0.1482
    1C        C  592   2.526   3.662   4.244 -0.1539 -0.1574 -0.1865
    1C        C  593   2.533   3.738   4.363 -0.0915 -0.2056 -0.1594
    1C        C  594   2.521   3.528   4.488  0.1793 -0.0699 -0.0702
    1C        C  595   2.526   3.669   4.485  0.5830 -0.0819 -0.0484
    1C        C  596   2.520   3.460   4.612 -0.1726 -0.1528 -0.1179
    1C        C  597   2.505   3.533   4.732 -0.4827 -0.0916 -0.1937
    1C        C  598   2.522   3.324   4.853  0.0265  0.0743 -0.2116
    1C        C  599   2.516   3.465   4.855  0.0356  0.0736 -0.1452
    1C        C  600   2.524   3.245   4.969  0.1834  0.2266 -0.1102
    1C        C  601   3.189   4.427   2.037  0.1645 -0.1545 -0.2453
    1C        C  602   2.975   4.388   2.155  0.5632 -0.5659 -0.2277
    1C        C  603   3.113   4.428   2.155  0.4237 -0.0743 -0.0766
    1C        C  604   2.919   4.351   2.280  0.2389 -0.4804 -0.3458
    1C        C  605   2.985   4.386   2.400 -0.0952 -0.0562 -0.2769
    1C        C  606   2.811   4.266   2.523  0.4010  0.0553  0.3282
    1C        C  607   2.921   4.354   2.522  0.8285 -0.4672  0.1174
    1C        C  608   2.761   4.216   2.645 -0.1034 -0.0725  0.0734
    1C        C  609   2.813   4.268   2.765 -0.4200  0.5598 -0.0570
    1C        C  610   2.674   4.110   2.891 -0.3411  0.2605  0.2578
    1C        C  611   2.758   4.224   2.888 -0.1971  0.1453 -0.1059
    1C        C  612   2.646   4.045   3.013 -0.7873  0.0229  0.0283
    1C        C  613   2.693   4.102   3.133  0.2794 -0.1089 -0.3178
    1C        C  614   2.592   3.918   3.262  0.5329 -0.3489  0.1993
    1C        C  615   2.655   4.044   3.256  0.2491 -0.2348 -0.3884
    1C        C  616   2.567   3.855   3.386  0.7363 -0.2363  0.2967
    1C        C  617   2.593   3.923   3.507  0.7239  0.4870 -0.1045
    1C        C  618   2.538   3.724   3.635  0.5544  0.2135 -0.1974
    1C        C  619   2.565   3.863   3.631  0.4195  0.2365 -0.2969
    1C        C  620   2.528   3.656   3.758  0.5658 -0.0982 -0.3673
    1C        C  621   2.538   3.729   3.878  1.2302 -0.1708 -0.3737
    1C        C  622   2.519   3.520   4.002  0.3596  0.2330  0.3644
    1C        C  623   2.524   3.661   4.002  0.8888  0.2192 -0.1958
    1C        C  624   2.522   3.450   4.124 -0.2890 -0.3043  0.0777
    1C        C  625   2.521   3.521   4.246 -0.4770 -0.1459 -0.0139
    1C        C  626   2.543   3.311   4.373 -0.2120 -0.1428 -0.0012
    1C        C  627   2.526   3.451   4.369 -0.4955 -0.1763 -0.0289
    1C        C  628   2.555   3.246   4.497 -0.0943 -0.3487 -0.1188
    1C        C  629   2.532   3.320   4.616 -0.4162 -0.1795 -0.2835
    1C        C  630   2.599   3.117   4.737  0.2986  0.2488  0.3377
    1C        C  631   2.541   3.247   4.736 -0.3530 -0.0357 -0.2007
    1C        C  632   2.620   3.050   4.861 -0.4363 -0.7026 -0.0329
    1C        C  633   2.558   3.109   4.975 -0.2305  0.1127 -0.3352
    1C        C  634   2.779   4.298   2.045  0.0495 -0.3153  0.4786
    1C        C  635   2.888   4.386   2.042 -0.3099  0.1321  0.4195
    1C        C  636   2.743   4.226   2.160 -0.1991 -0.3868  0.3581
    1C        C  637   2.805   4.266   2.281  0.1905 -0.4208  0.1734
    1C        C  638   2.672   4.102   2.406 -0.1945  0.2558  0.1564
    1C        C  639   2.755   4.217   2.403  0.5584 -0.2765  0.3864
    1C        C  640   2.634   4.043   2.529 -0.1328 -0.0685  0.0193
    1C        C  641   2.679   4.101   2.649 -0.5241  0.2217  0.0259
    1C        C  642   2.585   3.913   2.774  0.4317  0.0528 -0.1152
    1C        C  643   2.638   4.044   2.772 -0.1878  0.3127  0.1820
    1C        C  644   2.560   3.848   2.897  0.8769 -0.1458 -0.1296
    1C        C  645   2.583   3.919   3.017  0.1965 -0.4643  0.1917
    1C        C  646   2.524   3.717   3.145  0.0331 -0.2923 -0.1674
    1C        C  647   2.569   3.851   3.140  0.3043 -0.3697  0.2554
    1C        C  648   2.510   3.649   3.268  0.7504 -0.2481 -0.0601
    1C        C  649   2.525   3.720   3.389  0.5280 -0.1791 -0.0726
    1C        C  650   2.505   3.514   3.513  0.7183 -0.0894  0.3762
    1C        C  651   2.516   3.655   3.513  0.4471 -0.0647 -0.0194
    1C        C  652   2.513   3.444   3.635  0.1616 -0.0238  0.4564
    1C        C  653   2.521   3.515   3.757  0.0036 -0.0850  0.5065
    1C        C  654   2.537   3.307   3.882 -0.2837 -0.0739  0.1147
    1C        C  655   2.523   3.448   3.881 -0.3393 -0.0728  0.5208
    1C        C  656   2.553   3.240   4.005 -0.8580 -0.5004 -0.0335
    1C        C  657   2.541   3.310   4.127 -0.4635 -0.3353 -0.0841
    1C        C  658   2.613   3.112   4.250 -0.0454 -0.0273  0.0439
    1C        C  659   2.560   3.243   4.250 -0.5680 -0.2302 -0.0073
    1C        C  660   2.637   3.049   4.373 -0.2636 -0.5039 -0.1516
    1C        C  661   2.600   3.112   4.493 -0.1899 -0.3809 -0.1907
    1C        C  662   2.701   2.928   4.618 -0.3579  0.2344 -0.0703
    1C        C  663   2.629   3.050   4.617 -0.3726  0.2321  0.1714
    1C        C  664   2.746   2.874   4.741 -0.2712 -0.1559 -0.2686
    1C        C  665   2.695   2.928   4.862  0.0193 -0.4277 -0.0238
    1C        C  666   2.739   2.866   4.980  0.1225 -0.0309  0.1504
    1C        C  667   2.671   4.024   2.050 -0.2012 -0.2751  0.3741
    1C        C  668   2.678   4.101   2.167 -0.4867 -0.2386  0.3694
    1C        C  669   2.584   3.906   2.286 -0.3251 -0.1764 -0.1434
    1C        C  670   2.634   4.039   2.286 -0.4728 -0.1182  0.4363
    1C        C  671   2.559   3.842   2.409 -0.2468  0.0455 -0.0134
    1C        C  672   2.582   3.912   2.530  0.0200 -0.1295  0.0353
    1C        C  673   2.520   3.710   2.655  0.7648 -0.3250 -0.0299
    1C        C  674   2.555   3.847   2.653  0.2934 -0.2020  0.0565
    1C        C  675   2.510   3.641   2.777  0.8039 -0.3113 -0.0201
    1C        C  676   2.521   3.713   2.899 -0.0977  0.1333 -0.1961
    1C        C  677   2.499   3.506   3.023  0.0187 -0.0604  0.1517
    1C        C  678   2.512   3.647   3.023 -0.1323 -0.0458 -0.2942
    1C        C  679   2.500   3.436   3.146 -0.1967 -0.4653 -0.0759
    1C        C  680   2.497   3.508   3.267  0.1473 -0.1929 -0.2278
    1C        C  681   2.527   3.304   3.394 -0.2655  0.2425  0.6749
    1C        C  682   2.499   3.442   3.392  0.5500  0.4043  0.0869
    1C        C  683   2.547   3.235   3.516 -0.3336 -0.2673  0.4054
    1C        C  684   2.526   3.304   3.638 -0.6865 -0.1180  0.2671
    1C        C  685   2.594   3.104   3.763 -0.3194 -0.3265 -0.1707
    1C        C  686   2.542   3.235   3.760  0.1046 -0.1417  0.1629
    1C        C  687   2.631   3.041   3.884 -0.8871 -0.4088 -0.0266
    1C        C  688   2.599   3.107   4.004 -0.0715 -0.2376  0.1089
    1C        C  689   2.702   2.923   4.129 -0.7000 -0.4272 -0.2840
    1C        C  690   2.631   3.045   4.127 -0.9248 -0.5416  0.1854
    1C        C  691   2.750   2.870   4.251 -0.7676 -0.3510 -0.2179
    1C        C  692   2.711   2.929   4.373 -0.0942 -0.4037  0.0297
    1C        C  693   2.746   2.871   4.497  0.0519  0.0061  0.1860
    1C        C  694   2.620   3.894   2.051 -0.4507 -0.1893 -0.3939
    1C        C  695   2.538   3.694   2.169 -0.2480 -0.0534  0.0686
    1C        C  696   2.574   3.831   2.167 -0.1286 -0.0897 -0.2137
    1C        C  697   2.510   3.632   2.292  0.1271  0.0266  0.1941
    1C        C  698   2.519   3.707   2.412  0.3471 -0.1234  0.2686
    1C        C  699   2.492   3.498   2.537  0.2611 -0.4410 -0.2521
    1C        C  700   2.502   3.639   2.534  0.3764 -0.4414  0.0962
    1C        C  701   2.502   3.427   2.659 -0.7105 -0.1964 -0.0289
    1C        C  702   2.503   3.500   2.780  0.2862 -0.2849  0.0226
    1C        C  703   2.523   3.292   2.904  0.1719  0.0554 -0.1316
    1C        C  704   2.499   3.431   2.903 -0.4394 -0.0444  0.1395
    1C        C  705   2.538   3.226   3.027  0.2495  0.1118 -0.1106
    1C        C  706   2.525   3.297   3.149  0.3140 -0.3709  0.1815
    1C        C  707   2.597   3.104   3.276 -0.5412  0.2092  0.4031
    1C        C  708   2.538   3.232   3.273 -0.3021  0.3274  0.6184
    1C        C  709   2.628   3.039   3.398 -0.8945 -0.6183  0.0690
    1C        C  710   2.608   3.108   3.520 -0.8383 -0.5292  0.0330
    1C        C  711   2.708   2.923   3.642 -0.3597 -0.5073 -0.1524
    1C        C  712   2.630   3.041   3.642 -0.6622 -0.7007 -0.0858
    1C        C  713   2.755   2.869   3.764  0.0104  0.0291 -0.0453
    1C        C  714   2.718   2.930   3.886 -1.2337 -0.6896 -0.0355
    1C        C  715   2.753   2.870   4.009 -0.7182 -0.7004 -0.1789
    1C        C  716   2.446   3.494   2.061 -0.0295  0.2734  0.1547
    1C        C  717   2.485   3.629   2.057 -0.5370  0.4182 -0.0741
    1C        C  718   2.470   3.415   2.177 -0.1122  0.0683  0.0323
    1C        C  719   2.484   3.492   2.296 -0.0157  0.0499  0.0312
    1C        C  720   2.507   3.283   2.417 -0.0241 -0.3324 -0.2301
    1C        C  721   2.484   3.422   2.419 -0.4707 -0.4051 -0.2265
    1C        C  722   2.531   3.218   2.540  0.2212  0.2681  0.0413
    1C        C  723   2.514   3.287   2.663 -1.1620 -0.2341  0.1560
    1C        C  724   2.586   3.088   2.786 -0.4607 -0.3220  0.1381
    1C        C  725   2.530   3.217   2.784 -0.3382 -0.2689  0.0398
    1C        C  726   2.617   3.029   2.910 -0.3696 -0.3629  0.0987
    1C        C  727   2.585   3.093   3.032  0.0963  0.0606  0.0013
    1C        C  728   2.698   2.915   3.154 -0.3204  0.4122 -0.0413
    1C        C  729   2.623   3.035   3.156 -0.1009  0.5519  0.2973
    1C        C  730   2.746   2.862   3.275 -0.4280 -0.4662 -0.3733
    1C        C  731   2.704   2.921   3.397 -0.2644 -0.2193 -0.4303
    1C        C  732   2.744   2.864   3.520 -0.8692 -0.4547 -0.3364
    1C        C  733   2.492   3.192   2.063 -0.1183  0.0394 -0.3035
    1C        C  734   2.490   3.274   2.176 -0.1307  0.0676 -0.3240
    1C        C  735   2.583   3.079   2.300  0.1076  0.0000 -0.2187
    1C        C  736   2.526   3.209   2.298  0.3257  0.0940 -0.4408
    1C        C  737   2.611   3.017   2.423 -0.0439  0.2740 -0.0438
    1C        C  738   2.579   3.085   2.542 -0.0136  0.1817  0.0187
    1C        C  739   2.687   2.901   2.669 -0.0851  0.1095 -0.2542
    1C        C  740   2.615   3.023   2.664 -0.3335 -0.0250  0.0073
    1C        C  741   2.730   2.846   2.791 -0.1224  0.2258 -0.1850
    1C        C  742   2.694   2.911   2.911 -0.1370 -0.2136  0.0546
    1C        C  743   2.751   2.868   3.033 -0.2617 -0.0722  0.1684
    1C        C  744   2.546   3.064   2.064 -0.0472  0.0730  0.0241
    1C        C  745   2.681   2.891   2.182  0.2320 -0.0528 -0.1872
    1C        C  746   2.603   3.008   2.180  0.3052 -0.0039 -0.1846
    1C        C  747   2.722   2.834   2.304  0.0768 -0.0408 -0.1289
    1C        C  748   2.681   2.894   2.425  0.1082  0.3559 -0.3143
    1C        C  749   2.728   2.841   2.547 -0.3002  0.0357 -0.2930
    1C        C  750   2.732   2.834   2.065 -0.1913  0.1368 -0.4672
    1C        C  751   3.662   2.305   1.997 -0.0127  0.1107  0.1480
    1C        O  752   3.680   2.197   2.061 -0.9517 -0.0385  0.1658
    1C        O  753   3.730   2.301   1.875 -0.2396  0.1803  0.0201
    1C        C  754   4.635   3.045   2.003  0.3660  0.2848  0.2070
    1C        O  755   4.746   3.047   2.064  0.3380 -0.6777  0.3106
    1C        O  756   4.678   3.061   1.871 -0.0777 -0.1925  0.0005
    1C        C  757   4.406   4.192   1.928  0.4724  0.0597  0.0956
    1C        O  758   4.515   4.255   1.919  0.6188 -0.1827  0.1764
    1C        O  759   4.334   4.190   1.808 -0.0385 -0.0654  0.4075
    1C        C  760   3.576   4.661   1.955  0.6834  0.1967 -0.5073
    1C        O  761   3.568   4.774   2.009 -0.0007  0.0248 -0.2366
    1C        O  762   3.552   4.651   1.817 -0.0117  0.5861 -0.4206
    1C        C  763   2.890   4.481   1.928 -0.5670 -0.0229  0.2824
    1C        O  764   2.898   4.431   1.813  0.3081 -0.1438  0.3848
    1C        O  765   2.825   4.604   1.941  0.5461  0.6336 -0.2503
    1C        C  766   2.320   3.469   1.986  0.0186  0.6581 -0.0563
    1C        O  767   2.325   3.452   1.861 -0.3557 -0.0093  0.0194
    1C        O  768   2.196   3.499   2.043 -0.2484  0.0315 -0.3020
    1C        C  769   4.724   3.618   4.998  0.1484  0.1982  0.6170
    1C        O  770   4.755   3.549   5.098 -0.4989 -0.5109  0.3336
    1C        O  771   4.827   3.655   4.910 -0.2412 -0.4148 -0.1157
    1C        C  772   4.273   4.463   5.015 -0.3722 -0.2147 -0.4474
    1C        O  773   4.323   4.445   5.129  0.3111 -0.0043 -0.7067
    1C        O  774   4.348   4.551   4.936  0.1982 -0.1851  0.1162
    1C        C  775   4.146   2.509   5.059  0.1745  0.4029 -0.3318
    1C        O  776   4.216   2.409   5.027 -0.1466  0.2282 -0.4944
    1C        O  777   4.170   2.564   5.186  0.3196 -0.1494 -0.1156
    1C        C  778   2.876   4.532   5.053 -0.7256  0.0352  0.3635
    1C        O  779   2.896   4.652   5.020 -0.4091 -0.1218 -0.0173
    1C        O  780   2.883   4.509   5.191  0.1916 -0.1984  0.2844
    1C        C  781   2.458   3.029   5.049  0.2220  0.2056  0.3815
    1C        O  782   2.346   3.006   4.998  0.0603  0.3661  0.6593
    1C        O  783   2.475   2.973   5.176  0.4561 -0.0757  0.2282
    1C        C  784   2.402   3.987   5.028  0.6810  0.7560  0.3254
    1C        O  785   2.291   3.994   4.969  0.7523 -0.2216  0.0621
    1C        O  786   2.406   3.964   5.166  0.0413 -0.2342  0.1886
    1C        C  787   2.937   2.382   2.044  0.2390 -0.1435  0.1631
    1C        O  788   2.830   2.412   1.985  0.2443 -0.2649  0.0919
    1C        O  789   2.913   2.277   2.131 -0.0640 -0.4481 -0.2847
    1C        C  790   3.176   2.385   5.073 -0.0313  0.1091 -0.4575
    1C        O  791   3.167   2.267   5.030  0.3163 -0.0856 -0.0118
    1C        O  792   3.228   2.382   5.203 -0.1259 -0.1187 -0.4259
    1C        H  793   4.240   3.027   5.027  1.6218 -0.3671  1.3742
    1C        H  794   4.199   2.792   5.074 -0.1477 -0.4617 -0.2494
    1C        H  795   4.518   3.119   5.044 -0.2561  1.2395  0.8288
    1C        H  796   4.558   3.345   5.056 -1.0163 -0.5450  0.1919
    1C        H  797   4.503   3.777   5.044 -1.2612  0.8326 -0.3353
    1C        H  798   4.451   3.993   5.043  0.6739  0.5719 -0.2264
    1C        H  799   4.258   4.147   5.037 -1.2614  1.6413 -0.3118
    1C        H  800   4.022   4.531   5.021 -0.5125 -0.7393  0.4934
    1C        H  801   3.808   4.609   5.024 -1.5800 -1.9107  1.3139
    1C        H  802   3.573   4.618   5.034 -0.8259 -0.8584 -0.0248
    1C        H  803   3.389   4.452   5.028  0.5338  0.1732  0.4541
    1C        H  804   3.152   4.490   5.050  1.0508 -2.1060  0.4170
    1C        H  805   3.870   2.521   5.060 -0.5766  0.6176 -0.3214
    1C        H  806   3.663   2.396   5.040  0.3542  1.5240  1.4252
    1C        H  807   2.998   2.564   5.064 -0.5042 -0.7891 -0.0574
    1C        H  808   3.430   2.488   5.068  0.0819 -1.4995 -0.1093
    1C        H  809   2.874   2.738   5.077 -1.1822 -2.7914 -0.2724
    1C        H  810   2.697   2.889   5.076  0.3810  0.3043  0.1841
    1C        H  811   2.478   3.284   5.057 -0.0483 -0.6622  0.1649
    1C        H  812   2.493   3.499   5.067 -2.9888  1.1948 -0.5747
    1C        H  813   2.579   3.722   5.053  1.4953 -0.9924 -0.0163
    1C        H  814   2.574   4.179   5.030 -0.6445  1.6136 -0.8979
    1C        H  815   2.740   4.317   5.048  2.0313 -3.6283  0.2088
    1C        H  816   2.690   2.860   1.970  0.8733  1.4972 -0.5980
    1C        H  817   2.888   2.719   1.989  1.0748  0.4349  1.0709
    1C        H  818   3.201   2.427   1.987 -1.4819 -1.5461  0.0272
    1C        H  819   3.412   2.382   1.994 -1.3036 -0.0633  0.1406
    1C        H  820   3.891   2.460   1.995 -0.2235  0.0641  0.4374
    1C        H  821   4.043   2.649   1.966  0.7056  0.5641  0.3631
    1C        H  822   4.262   2.700   1.980 -1.1787 -0.3221  0.0149
    1C        H  823   4.336   2.938   1.971 -0.8043 -0.0589  0.3752
    1C        H  824   4.571   3.311   1.968 -1.6802  1.8271  0.3969
    1C        H  825   4.497   3.515   1.955 -0.2213  0.7016 -0.5059
    1C        H  826   4.492   3.747   1.950 -1.5155  0.0375 -0.2061
    1C        H  827   3.798   4.525   1.947 -1.2952 -0.5425 -1.4730
    1C        H  828   3.953   4.378   1.940 -0.9195 -1.8373 -0.2206
    1C        H  829   4.139   4.229   1.945 -0.5217 -0.1907 -0.0332
    1C        H  830   4.515   3.978   1.971 -0.8939  0.5530 -0.7711
    1C        H  831   2.615   3.844   1.956  0.2724 -1.8195  0.3829
    1C        H  832   2.730   4.048   1.963 -1.2949  0.5343 -0.1722
    1C        H  833   2.701   4.321   1.976  0.4640  0.1954  0.1728
    1C        H  834   3.354   4.506   1.943  0.3190 -0.0050  0.3590
    1C        H  835   3.162   4.352   1.966  0.0695  0.2237 -0.6147
    1C        H  836   2.510   2.994   1.992 -2.1788  0.5502  0.5697
    1C        H  837   2.436   3.218   1.975  1.3422  1.1864 -0.9397
    1C        H  838   2.464   3.686   1.969  1.3738  1.3105  0.0044
    2V3OU   H29  839   2.799   3.540   0.726 -0.8147 -1.2312 -0.4513
    2V3OU   C27  840   2.775   3.503   0.829 -0.1175  0.8829  0.5269
    2V3OU   H27  841   2.727   3.574   0.902 -0.1088  0.4560  0.9508
    2V3OU   H28  842   2.720   3.407   0.815 -0.2606  1.0633 -0.1829
    2V3OU   O11  843   2.902   3.471   0.885  0.0272  0.4742 -0.0243
    2V3OU   C15  844   2.913   3.402   1.004 -0.1413  0.4920  0.0017
    2V3OU   C13  845   3.046   3.369   1.037 -0.1508  0.1346 -0.3089
    2V3OU   C14  846   3.074   3.257   1.115  0.3170  1.0318  0.8394
    2V3OU   C16  847   2.967   3.178   1.156  0.4863  0.4323  0.1334
    2V3OU    H6  848   2.987   3.082   1.206  0.2803  1.0538  1.4331
    2V3OU   C12  849   3.213   3.227   1.155  0.2654  0.0369  0.3024
    2V3OU    O2  850   3.236   3.118   1.211 -0.0725 -0.5450 -0.6706
    2V3OU   C10  851   3.322   3.309   1.100  0.0028  0.2540  0.1056
    2V3OU    C8  852   3.455   3.268   1.113 -0.0607 -0.0379 -0.1515
    2V3OU   O10  853   3.486   3.162   1.192 -0.6948  0.1521  0.3723
    2V3OU   H26  854   3.401   3.124   1.218 -0.5084  0.3649  1.3169
    2V3OU    C6  855   3.561   3.352   1.068 -0.4013  0.2625 -0.3917
    2V3OU    C5  856   3.533   3.472   1.003 -0.1282  0.3781 -0.2948
    2V3OU    C4  857   3.699   3.298   1.080 -0.5707 -0.1442 -0.2885
    2V3OU    H4  858   3.719   3.236   1.172  1.3642  0.6580 -0.1310
    2V3OU    H5  859   3.707   3.225   0.994 -1.2985 -0.5589 -0.0211
    2V3OU    C2  860   3.817   3.394   1.070 -0.1758 -0.5387  0.5476
    2V3OU    O6  861   3.805   3.470   1.191 -0.0364  0.2161  0.0929
    2V3OU   H21  862   3.753   3.543   1.154 -1.5619 -0.5712  0.5769
    2V3OU    C3  863   3.784   3.490   0.956 -0.3739 -0.3713  0.7456
    2V3OU    H2  864   3.862   3.570   0.950  0.3179 -1.0566  0.4501
    2V3OU    H3  865   3.785   3.429   0.862  0.8099  1.1498 -0.2710
    2V3OU   C25  866   3.952   3.324   1.050  0.1166  0.0028  0.6092
    2V3OU    O7  867   3.996   3.315   0.935 -0.8310 -0.2617  0.2542
    2V3OU   C26  868   4.029   3.282   1.173  0.9314  0.3896  0.2408
    2V3OU   H22  869   4.063   3.367   1.238  1.7347  0.1556  0.1423
    2V3OU   H23  870   4.119   3.223   1.144  0.4531 -0.3546  0.2491
    2V3OU    O8  871   3.953   3.200   1.260  0.4127  0.0614 -0.5179
    2V3OU   H24  872   3.918   3.263   1.325  0.4886  2.8597 -2.9245
    2V3OU    C1  873   3.650   3.560   0.970 -0.1516  0.3255 -0.5147
    2V3OU    H1  874   3.626   3.613   0.873  0.2884  0.1732 -0.7091
    2V3OU    O3  875   3.659   3.653   1.078 -0.8524  0.5909 -0.6756
    2V3OU   C19  876   3.611   3.786   1.059 -0.2314  0.9343  0.0979
    2V3OU    H9  877   3.515   3.796   0.999  0.5513  2.2403 -1.0018
    2V3OU    O4  878   3.706   3.846   0.974  0.4524 -0.6646 -0.3034
    2V3OU   C20  879   3.837   3.870   1.025  0.3490  0.6629 -0.6214
    2V3OU   H10  880   3.885   3.768   1.035 -1.6054 -0.2479 -0.1583
    2V3OU   C24  881   3.605   3.855   1.196 -0.2272  0.4402  0.3484
    2V3OU   H16  882   3.541   3.792   1.263 -0.5835  1.2696  0.8022
    2V3OU   H17  883   3.558   3.956   1.182 -0.5125  0.5140  1.7074
    2V3OU   C23  884   3.745   3.868   1.255  0.0153 -0.2123 -0.0670
    2V3OU   H15  885   3.785   3.763   1.273 -0.4460 -0.6831 -1.6965
    2V3OU    N1  886   3.729   3.948   1.375 -0.5674 -0.4385  0.0080
    2V3OU   H19  887   3.806   3.926   1.435 -1.2913  1.5619  1.8268
    2V3OU   H20  888   3.645   3.925   1.425 -0.4628 -1.3128 -0.1992
    2V3OU   C21  889   3.847   3.939   1.161  0.0244 -0.2832 -0.1101
    2V3OU   H11  890   3.951   3.928   1.205  0.7988  0.5564 -1.6295
    2V3OU    O5  891   3.815   4.077   1.154 -0.2944 -0.3642 -0.2860
    2V3OU   H18  892   3.792   4.105   1.244 -0.9572 -3.5289  0.6630
    2V3OU   C22  893   3.912   3.945   0.916  0.5046  0.4714 -0.6482
    2V3OU   H12  894   3.859   4.042   0.896  1.0940  0.9970  0.3052
    2V3OU   H13  895   3.909   3.890   0.818  0.4525  3.1933 -2.2757
    2V3OU   H14  896   4.019   3.952   0.946 -0.1716  0.2260  2.0831
    2V3OU   C11  897   3.151   3.467   1.004 -0.3862  0.3304 -0.4813
    2V3OU    O1  898   3.130   3.585   0.970  0.0174  0.4599 -0.2948
    2V3OU    C9  899   3.292   3.428   1.028 -0.5448 -0.0798 -0.2189
    2V3OU    C7  900   3.396   3.508   0.983 -0.3331 -0.0739  0.2792
    2V3OU    O9  901   3.378   3.611   0.893  0.6566 -0.0879  0.0559
    2V3OU   H25  902   3.283   3.629   0.903  0.5612 -1.1873  1.5269
    2V3OU   C17  903   2.809   3.324   1.059  0.2880  0.3697  0.6562
    2V3OU    H7  904   2.709   3.347   1.022  0.4150  0.0741  0.1162
    2V3OU   C18  905   2.833   3.209   1.133  0.3996 -0.1514 -0.1730
    2V3OU    H8  906   2.756   3.132   1.148 -0.1094  0.5540  0.9112
    3SOL     OW  907   3.834   1.238   0.303 -0.6203  0.5128  0.2373
    3SOL    HW1  908   3.770   1.274   0.370 -1.2514 -1.0596  0.5203
    3SOL    HW2  909   3.886   1.162   0.343 -0.2286  0.2632 -0.7115
    4SOL     OW  910   3.819   6.669   4.786  0.1998  0.7172 -0.1662
    4SOL    HW1  911   3.757   6.640   4.713  1.1429 -0.7665 -0.4242
    4SOL    HW2  912   3.904   6.703   4.745  1.5249 -1.9240  0.1641
    5SOL     OW  913   6.214   6.570   4.040 -0.8136 -0.0088  0.3621
    5SOL    HW1  914   6.191   6.484   3.994 -2.0909  1.3457 -1.6846
    5SOL    HW2  915   6.132   6.609   4.081 -0.1226 -0.0335  1.8317
    6SOL     OW  916   2.946   0.628   1.941  0.7808  0.3483  0.7152
    6SOL    HW1  917   3.010   0.577   1.998  1.5019  1.3982  0.8691
    6SOL    HW2  918   2.997   0.689   1.880  0.0785 -1.0161 -1.3779
    7SOL     OW  919   4.886   4.287   2.902 -0.0945  0.6250  0.1204
    7SOL    HW1  920   4.984   4.277   2.887 -0.0582  0.0569  0.6811
    7SOL    HW2  921   4.866   4.381   2.932 -0.0452  1.4619 -2.2670
    8SOL     OW  922   0.988   3.003   2.829 -0.0437 -0.1779  0.7235
    8SOL    HW1  923   0.890   3.021   2.821  0.1663  0.9130  0.4694
    8SOL    HW2  924   1.039   3.067   2.771  0.7967 -1.1546  0.3309
    9SOL     OW  925   6.363   0.895   4.281  0.1905  0.5101 -0.5980
    9SOL    HW1  926   6.458   0.916   4.302 -0.1316 -0.2938  2.0560
    9SOL    HW2  927   6.307   0.977   4.293  0.1113  0.2201  1.3893
   10SOL     OW  928   3.598   0.859   4.704  0.1728  0.2023 -0.2216
   10SOL    HW1  929   3.692   0.830   4.685 -0.0125  0.7620 -2.3091
   10SOL    HW2  930   3.595   0.958   4.714 -0.2307  0.2283 -0.5476
   11SOL     OW  931   1.098   3.146   0.484  0.1086  0.2152 -0.6106
   11SOL    HW1  932   1.042   3.228   0.498 -1.3362 -0.9987  1.2484
   11SOL    HW2  933   1.191   3.164   0.515 -0.5676  0.7381  1.2973
   12SOL     OW  934   3.682   5.099   3.927  0.0658  1.5883  0.2465
   12SOL    HW1  935   3.607   5.161   3.902  1.0087  2.9385  0.6408
   12SOL    HW2  936   3.704   5.110   4.024 -0.4149 -0.1479  0.5889
   13SOL     OW  937   4.208   6.005   5.052 -0.4373  0.6179  0.4309
   13SOL    HW1  938   4.213   6.083   4.990  0.7365  1.5933  1.6734
   13SOL    HW2  939   4.170   6.034   5.140 -1.7061 -0.6457  0.3426
   14SOL     OW  940   3.843   3.405   3.013 -0.3859 -0.0672  0.2896
   14SOL    HW1  941   3.920   3.355   3.053 -0.0741 -0.6285 -0.9410
   14SOL    HW2  942   3.871   3.499   2.994  0.3753 -0.5228 -1.0600
   15SOL     OW  943   3.772   0.208   6.398 -0.1232 -0.1418  0.6313
   15SOL    HW1  944   3.732   0.127   6.441 -1.0731  0.3285  0.6707
   15SOL    HW2  945   3.726   0.225   6.311  0.4159  0.0743  0.3839
   16SOL     OW  946   0.744   4.848   6.829  0.4656  0.5334 -0.3206
   16SOL    HW1  947   0.734   4.749   6.836 -2.2745  0.6576 -1.4580
   16SOL    HW2  948   0.713   4.891   6.913 -1.6996  0.5250 -1.0543
   17SOL     OW  949   2.751   6.027   6.585  0.0789  0.1796 -0.2309
   17SOL    HW1  950   2.656   5.997   6.596  0.5090 -1.0325  0.4576
   17SOL    HW2  951   2.775   6.025   6.488 -0.3967 -0.1873 -0.3479
   18SOL     OW  952   0.252   1.444   1.969  0.6753 -0.0242  0.6618
   18SOL    HW1  953   0.218   1.499   2.045  2.1184 -1.5949  2.5238
   18SOL    HW2  954   0.352   1.442   1.972  0.6852 -1.9966  0.1041
   19SOL     OW  955   3.315   0.328   0.354  0.1589 -0.0902  0.1436
   19SOL    HW1  956   3.238   0.286   0.403 -0.4243  2.2511  1.3786
   19SOL    HW2  957   3.380   0.366   0.419  0.7003  0.8374 -0.9071
   20SOL     OW  958   1.659   4.646   4.431 -0.1830 -0.1198 -0.3336
   20SOL    HW1  959   1.628   4.561   4.388  0.4283 -0.7282  0.4082
   20SOL    HW2  960   1.754   4.637   4.458 -0.5117  0.2847  1.0453
   21SOL     OW  961   6.686   6.784   1.478 -0.2189 -0.4037  0.2900
   21SOL    HW1  962   6.693   6.844   1.557  0.0593  0.0781 -0.0980
   21SOL    HW2  963   6.769   6.728   1.472 -0.3312 -0.5895  0.4559
   22SOL     OW  964   2.003   4.717   6.945  0.1716  0.1958 -0.0574
   22SOL    HW1  965   2.078   4.781   6.958 -1.2228  1.8844  0.0452
   22SOL    HW2  966   2.004   4.649   7.018  0.9649  0.8225  0.5331
   23SOL     OW  967   0.447   4.405   1.689  0.1146  0.3467  0.1116
   23SOL    HW1  968   0.459   4.337   1.762 -0.8776 -0.0374 -0.0725
   23SOL    HW2  969   0.452   4.359   1.600  2.5123  0.9806 -0.1465
   24SOL     OW  970   1.344   5.752   3.818  0.7568 -0.2798 -0.2047
   24SOL    HW1  971   1.374   5.830   3.872  2.7926  0.2824 -2.0109
   24SOL    HW2  972   1.423   5.693   3.797 -0.3897 -1.7653 -0.5353
   25SOL     OW  973   0.085   5.177   2.266 -0.5617  0.4035  0.3813
   25SOL    HW1  974   0.048   5.204   2.355  0.3840 -0.9873  1.2441
   25SOL    HW2  975   0.173   5.131   2.280 -1.4910 -1.9639 -1.0402
   26SOL     OW  976   2.691   6.795   3.275  0.4096  0.2948 -0.5645
   26SOL    HW1  977   2.760   6.724   3.269  1.6489  1.3904  0.1705
   26SOL    HW2  978   2.670   6.829   3.183  1.1157  0.2041 -0.7614
   27SOL     OW  979   1.406   1.337   4.689 -0.1578  0.3663  0.1093
   27SOL    HW1  980   1.311   1.319   4.662 -0.1690  0.6969 -0.0816
   27SOL    HW2  981   1.407   1.390   4.773 -0.1279 -0.2975  0.5378
   28SOL     OW  982   1.016   4.679   0.619 -0.6924  0.0829 -0.1086
   28SOL    HW1  983   1.034   4.755   0.557  0.9897 -0.2656 -0.1092
   28SOL    HW2  984   1.019   4.593   0.569 -2.5481 -0.0140 -0.1003
   29SOL     OW  985   4.754   0.003   5.532  0.1228 -0.3532 -0.2867
   29SOL    HW1  986   4.741   0.102   5.538  0.5128 -0.2998 -0.2905
   29SOL    HW2  987   4.741  -0.026   5.437 -0.5779 -0.3961 -0.1850
   30SOL     OW  988   0.307   1.124   0.189  0.3260  0.5662 -0.6460
   30SOL    HW1  989   0.345   1.142   0.099 -0.6249  2.4025 -0.7182
   30SOL    HW2  990   0.243   1.196   0.214  0.0494 -0.2552  1.2285
   31SOL     OW  991   4.915   6.548   0.500 -0.1156 -0.6875 -0.6476
   31SOL    HW1  992   5.002   6.524   0.542  0.1910  0.3508 -0.6611
   31SOL    HW2  993   4.928   6.624   0.436 -1.3962  1.1930  1.1758
   32SOL     OW  994   0.755   1.065   6.989 -0.5086  0.1186 -0.1850
   32SOL    HW1  995   0.688   1.057   7.063 -0.6097 -1.7524 -0.4153
   32SOL    HW2  996   0.741   0.989   6.925  0.7850  0.6489 -1.1220
   33SOL     OW  997   0.905   6.854   1.333  0.7259  0.6563  0.5413
   33SOL    HW1  998   0.859   6.830   1.418 -1.3252  1.4991 -0.2638
   33SOL    HW2  999   0.852   6.821   1.255  2.2769  0.3755 -0.4410
   34SOL     OW 1000   5.974   6.866   3.810  0.0514  0.1603  0.7871
   34SOL    HW1 1001   6.035   6.814   3.751  1.0961  0.6730  1.3872
   34SOL    HW2 1002   5.880   6.837   3.794  0.4651 -0.8247  0.0251
   35SOL     OW 1003   2.793   4.508   5.637 -0.0942  0.3433 -0.3034
   35SOL    HW1 1004   2.719   4.503   5.570  0.2045  0.4607 -0.6471
   35SOL    HW2 1005   2.769   4.573   5.709 -0.3369  0.3592 -0.3980
   36SOL     OW 1006   4.720   6.658   0.731 -0.3240 -0.5468  0.5684
   36SOL    HW1 1007   4.730   6.585   0.664 -1.0178  0.2607 -0.4468
   36SOL    HW2 1008   4.807   6.706   0.742  0.0682 -1.3564  1.0526
   37SOL     OW 1009   1.342   6.974   3.394 -0.1110 -0.0051 -0.8087
   37SOL    HW1 1010   1.290   7.016   3.320 -1.1023 -0.1025 -0.1860
   37SOL    HW2 1011   1.402   6.903   3.356 -1.4140 -0.8279 -1.4204
   38SOL     OW 1012   3.194   4.635   6.557 -0.1501  0.1943  0.1504
   38SOL    HW1 1013   3.105   4.680   6.563 -0.1828  0.2939 -0.9745
   38SOL    HW2 1014   3.217   4.617   6.462  1.9232  2.0039  0.2070
   39SOL     OW 1015   0.455   5.870   5.296  0.0683 -0.5350  0.1462
   39SOL    HW1 1016   0.480   5.862   5.392  3.7257 -1.1883 -0.6951
   39SOL    HW2 1017   0.438   5.779   5.258  0.3283 -0.4608 -0.1625
   40SOL     OW 1018   0.411   6.451   2.651 -0.1656 -0.4984  0.8765
   40SOL    HW1 1019   0.488   6.483   2.707  2.1398 -3.2853 -0.4495
   40SOL    HW2 1020   0.386   6.358   2.679 -1.2159 -0.6665 -0.5399
   41SOL     OW 1021   1.802   5.356   6.194 -0.2140 -0.5768  0.1186
   41SOL    HW1 1022   1.883   5.388   6.241 -1.4551  0.0760  1.9037
   41SOL    HW2 1023   1.822   5.344   6.097  1.2920  2.2035 -0.0151
   42SOL     OW 1024   4.633   3.580   6.893 -0.1350 -0.4091  0.0069
   42SOL    HW1 1025   4.548   3.543   6.855 -0.6853  0.3950  0.4133
   42SOL    HW2 1026   4.674   3.645   6.829  0.6532 -1.4479 -0.5633
   43SOL     OW 1027   4.399   2.861   0.079 -0.1691  0.6731  0.2362
   43SOL    HW1 1028   4.349   2.892  -0.001 -0.3945  0.1931  0.1876
   43SOL    HW2 1029   4.386   2.926   0.154 -0.7463  0.6278  0.1790
   44SOL     OW 1030   0.888   4.948   2.304 -1.2436  0.1521 -0.1119
   44SOL    HW1 1031   0.837   4.966   2.220 -0.5673  0.1983 -0.5248
   44SOL    HW2 1032   0.842   4.877   2.357 -1.0080 -0.7942 -1.1364
   45SOL     OW 1033   0.347   3.643   3.124  0.8133  0.4851 -0.1397
   45SOL    HW1 1034   0.258   3.599   3.121  1.0477 -0.0844  1.0103
   45SOL    HW2 1035   0.393   3.621   3.210  2.0470  0.8081 -0.6972
   46SOL     OW 1036   2.517   0.431   4.242 -0.1688 -0.3452  0.1614
   46SOL    HW1 1037   2.555   0.521   4.223  0.3693 -0.7912 -0.9806
   46SOL    HW2 1038   2.592   0.366   4.258 -0.4919 -0.8358 -0.2637
   47SOL     OW 1039   3.140   6.010   4.202  0.6418 -0.0767 -0.2274
   47SOL    HW1 1040   3.226   5.965   4.177  1.4716  1.9678 -1.3158
   47SOL    HW2 1041   3.124   6.088   4.140 -0.2158  1.7073  2.0922
   48SOL     OW 1042   2.431   6.884   5.799  1.0057  0.0836 -0.1063
   48SOL    HW1 1043   2.509   6.854   5.852 -0.3831 -0.1995  1.8752
   48SOL    HW2 1044   2.405   6.813   5.733  1.7099 -0.2787  0.0021
   49SOL     OW 1045   5.061   5.127   4.846 -0.4739  0.3265 -0.2949
   49SOL    HW1 1046   5.048   5.119   4.747  0.1560 -1.3841 -0.2699
   49SOL    HW2 1047   4.972   5.143   4.890 -1.0008 -0.4935 -1.0177
   50SOL     OW 1048   3.400   1.181   4.724  0.4211 -0.5631  0.1135
   50SOL    HW1 1049   3.456   1.184   4.807  0.7028  1.3299 -0.0997
   50SOL    HW2 1050   3.316   1.234   4.738  1.1174  0.9865 -1.2054
   51SOL     OW 1051   4.473   2.277   5.553  0.1636  0.1681 -0.3020
   51SOL    HW1 1052   4.560   2.299   5.510 -0.6436 -0.5638 -2.4455
   51SOL    HW2 1053   4.459   2.178   5.553 -0.0005  0.1472  1.4863
   52SOL     OW 1054   4.221   3.941   1.745 -0.0278  0.2958 -0.1051
   52SOL    HW1 1055   4.258   4.032   1.763 -0.8435  0.4673  0.8504
   52SOL    HW2 1056   4.239   3.914   1.651  2.2889  0.4552  0.2438
   53SOL     OW 1057   2.924   5.620   2.654  0.2205  0.2342 -0.0852
   53SOL    HW1 1058   2.969   5.537   2.685 -0.0724  0.3019  0.5359
   53SOL    HW2 1059   2.829   5.599   2.631  0.2862  0.2972 -0.4222
   54SOL     OW 1060   0.622   5.871   6.694  0.1980  0.6159 -0.4647
   54SOL    HW1 1061   0.649   5.808   6.766 -0.9577  0.5908 -0.0251
   54SOL    HW2 1062   0.587   5.955   6.735 -1.3105  0.2546 -0.9308
   55SOL     OW 1063   2.608   1.930   0.531 -0.2711  0.0581  0.3046
   55SOL    HW1 1064   2.538   1.999   0.511 -0.0757  0.2153  0.1548
   55SOL    HW2 1065   2.573   1.839   0.510  0.5983  0.3079 -2.8270
   56SOL     OW 1066   2.217   4.247   0.397 -0.3174 -0.5122  0.1343
   56SOL    HW1 1067   2.249   4.192   0.475  2.0841  0.3178 -0.1740
   56SOL    HW2 1068   2.136   4.205   0.357 -2.6113 -0.1860  3.9669
   57SOL     OW 1069   6.095   5.158   0.515 -0.4535 -0.0600 -0.6347
   57SOL    HW1 1070   6.073   5.231   0.579  1.5777  0.2534 -0.2169
   57SOL    HW2 1071   6.087   5.193   0.421 -1.6266  0.0253 -0.5164
   58SOL     OW 1072   3.463   1.797   0.407 -0.3374  0.4653  0.2431
   58SOL    HW1 1073   3.518   1.880   0.397  0.5574  0.0246  1.3633
   58SOL    HW2 1074   3.520   1.717   0.390 -0.7528  0.0144  0.9330
   59SOL     OW 1075   0.266   1.456   3.851 -0.3612  0.1088 -0.4679
   59SOL    HW1 1076   0.336   1.440   3.782  0.1388 -0.0688  0.0699
   59SOL    HW2 1077   0.261   1.377   3.912 -0.2447  0.5884  0.1727
   60SOL     OW 1078   2.743   6.054   4.278 -0.0630 -0.1286 -0.0817
   60SOL    HW1 1079   2.680   6.045   4.356 -1.1222 -0.4264 -0.9457
   60SOL    HW2 1080   2.830   6.091   4.310 -0.9347  1.0789  1.0270
   61SOL     OW 1081   6.688   4.504   1.515  0.9681  0.4836  0.1356
   61SOL    HW1 1082   6.694   4.428   1.580 -1.0777 -0.8148 -1.0992
   61SOL    HW2 1083   6.771   4.505   1.458  0.6688 -1.3958 -0.3946
   62SOL     OW 1084   2.304   4.848   2.844 -0.2271 -0.2908 -0.3349
   62SOL    HW1 1085   2.295   4.947   2.850  0.3946 -0.2128 -0.5584
   62SOL    HW2 1086   2.326   4.811   2.934  0.5939 -0.0989 -0.4475
   63SOL     OW 1087   2.010   6.017   0.104  0.0779  0.1101  0.0226
   63SOL    HW1 1088   2.034   6.054   0.014  0.9461 -0.1984  0.1195
   63SOL    HW2 1089   1.957   6.085   0.154  0.8631  0.8727 -0.1561
   64SOL     OW 1090   1.205   4.723   4.413  0.5898  0.1429 -0.2069
   64SOL    HW1 1091   1.116   4.676   4.417  0.8741 -0.4005 -0.1213
   64SOL    HW2 1092   1.274   4.661   4.376  0.8818  0.6534 -0.5329
   65SOL     OW 1093   4.600   0.357   4.539 -0.2899  0.0909 -0.0759
   65SOL    HW1 1094   4.648   0.300   4.473  1.8085 -0.0969  1.5080
   65SOL    HW2 1095   4.508   0.323   4.552 -0.9605  0.3821 -3.1419
   66SOL     OW 1096   0.493   5.801   4.430  0.6807  0.2481  0.4326
   66SOL    HW1 1097   0.516   5.727   4.367  0.1668  1.4335 -1.2145
   66SOL    HW2 1098   0.473   5.762   4.520  1.8985 -1.4565  0.0286
   67SOL     OW 1099   3.226   3.386   4.289  0.0178  0.0090 -0.2994
   67SOL    HW1 1100   3.239   3.401   4.191 -1.1137 -1.1172 -0.6422
   67SOL    HW2 1101   3.258   3.467   4.339 -0.1894  0.9586 -1.6384
   68SOL     OW 1102   3.141   3.119   3.020 -0.2455 -0.3081 -0.1627
   68SOL    HW1 1103   3.066   3.127   2.955  0.5557  1.5569 -0.9336
   68SOL    HW2 1104   3.193   3.036   3.002 -0.0431  0.1655 -1.9491
   69SOL     OW 1105   3.022   3.909   2.395  0.4066 -0.4835  0.0199
   69SOL    HW1 1106   2.936   3.940   2.436 -0.1388  0.1226 -1.4939
   69SOL    HW2 1107   3.033   3.811   2.411 -0.0696 -0.3819  1.0616
   70SOL     OW 1108   3.194   1.611   2.428  0.2843  0.0828  0.6321
   70SOL    HW1 1109   3.126   1.630   2.357  0.3655  0.9436  0.7686
   70SOL    HW2 1110   3.198   1.513   2.446  0.3483 -0.1615 -0.6398
   71SOL     OW 1111   1.836   1.049   2.479  0.6706  0.2786 -0.0988
   71SOL    HW1 1112   1.914   1.079   2.423  0.7140  2.0749  0.8341
   71SOL    HW2 1113   1.837   1.099   2.565 -2.4651  1.6825 -0.7423
   72SOL     OW 1114   2.189   0.598   0.724  0.4834 -0.1115 -0.0831
   72SOL    HW1 1115   2.248   0.581   0.802 -0.3921  1.0151  0.8556
   72SOL    HW2 1116   2.098   0.622   0.755  0.0328  0.0740 -1.4614
   73SOL     OW 1117   0.600   4.945   3.610  0.0332  0.2936 -0.2381
   73SOL    HW1 1118   0.615   5.039   3.641  1.1910  0.1227 -0.2211
   73SOL    HW2 1119   0.505   4.934   3.581  0.2982  2.0061 -2.0302
   74SOL     OW 1120   4.922   3.738   6.306  0.0229  0.2783 -0.1140
   74SOL    HW1 1121   4.925   3.794   6.223 -2.4949  0.2934 -0.2756
   74SOL    HW2 1122   4.954   3.646   6.286 -1.1242  0.1107 -1.2750
   75SOL     OW 1123   1.495   1.643   4.040  0.3254 -0.2627 -0.2619
   75SOL    HW1 1124   1.484   1.721   4.102 -2.2351  0.0002 -0.9479
   75SOL    HW2 1125   1.593   1.623   4.029  0.9275  0.6852  2.5570
   76SOL     OW 1126   2.579   0.471   6.859 -0.2442 -0.4820 -0.0993
   76SOL    HW1 1127   2.504   0.484   6.794  0.4068  0.2957 -0.7266
   76SOL    HW2 1128   2.660   0.441   6.810  0.6909  1.5658  0.0762
   77SOL     OW 1129   2.904   6.218   1.962 -0.2558  0.4613  0.0082
   77SOL    HW1 1130   2.863   6.149   1.901  0.2295 -0.3773  0.6052
   77SOL    HW2 1131   2.858   6.215   2.050 -0.7834  1.4959 -0.2201
   78SOL     OW 1132   2.726   2.039   2.392 -0.1160 -0.0864  0.4137
   78SOL    HW1 1133   2.639   1.991   2.379  0.2577 -0.6739  0.0036
   78SOL    HW2 1134   2.716   2.135   2.364 -0.1001 -0.6408 -1.6838
   79SOL     OW 1135   2.426   6.232   3.893  0.5012  0.2313  0.4671
   79SOL    HW1 1136   2.345   6.272   3.936  1.0153  0.1254  1.5372
   79SOL    HW2 1137   2.483   6.187   3.962  1.2816 -0.0427 -0.3343
   80SOL     OW 1138   2.442   1.021   4.884  0.0042  0.1448 -0.4875
   80SOL    HW1 1139   2.480   0.930   4.902  0.1029  0.0438 -1.1667
   80SOL    HW2 1140   2.473   1.052   4.794 -1.4731  0.0813 -1.0419
   81SOL     OW 1141   4.655   5.991   1.854  0.1264  0.4578  0.1723
   81SOL    HW1 1142   4.645   5.998   1.953  1.3106  0.4164  0.2993
   81SOL    HW2 1143   4.568   5.960   1.815 -0.5912  1.2419  1.1018
   82SOL     OW 1144   4.903   3.448   4.760 -0.4970  0.3169 -0.2610
   82SOL    HW1 1145   4.891   3.539   4.800 -0.4266  0.3670 -0.3547
   82SOL    HW2 1146   4.834   3.386   4.798 -0.9087  0.5473 -0.6284
   83SOL     OW 1147   1.066   6.107   3.175  0.5564  0.2357 -0.5929
   83SOL    HW1 1148   1.145   6.167   3.162  0.6214  0.4603  0.7050
   83SOL    HW2 1149   1.021   6.092   3.088  1.6675  0.6120 -1.2564
   84SOL     OW 1150   2.732   1.397   3.780 -0.1656  0.0919 -0.3186
   84SOL    HW1 1151   2.678   1.434   3.704  0.9792  2.0281 -0.2406
   84SOL    HW2 1152   2.693   1.428   3.867 -0.7534 -1.1171 -0.1308
   85SOL     OW 1153   6.797   3.685   5.767 -0.1126 -0.5885  0.1931
   85SOL    HW1 1154   6.835   3.670   5.676 -0.1090 -0.3792  0.1608
   85SOL    HW2 1155   6.723   3.752   5.762  0.3646 -0.0376  0.4573
   86SOL     OW 1156   2.393   0.164   5.528 -0.0883 -0.1380 -0.1299
   86SOL    HW1 1157   2.414   0.197   5.436  0.5245 -1.4628 -0.4901
   86SOL    HW2 1158   2.354   0.072   5.522 -0.3286 -0.1124  0.9185
   87SOL     OW 1159   4.125   5.514   5.875  0.3383  0.4467 -0.0137
   87SOL    HW1 1160   4.048   5.527   5.811  0.0875  0.4634  0.2884
   87SOL    HW2 1161   4.095   5.456   5.951  0.4833  0.8542  0.3559
   88SOL     OW 1162   6.412   6.226   5.694 -0.5009  0.1618  0.1246
   88SOL    HW1 1163   6.431   6.130   5.674 -2.3884 -0.6775  2.0313
   88SOL    HW2 1164   6.314   6.242   5.690 -0.3876  1.5391  1.7496
   89SOL     OW 1165   0.263   4.967   1.844  0.3366  0.1447 -0.5887
   89SOL    HW1 1166   0.249   4.920   1.931  1.9761  1.0198  0.1823
   89SOL    HW2 1167   0.303   4.904   1.777 -0.8799 -0.5132 -0.7273
   90SOL     OW 1168   2.966   4.857   3.883  0.0281  0.3253  0.6088
   90SOL    HW1 1169   2.877   4.828   3.848  0.7502  0.5532 -1.5913
   90SOL    HW2 1170   2.959   4.950   3.920 -0.1646  1.4641 -2.0716
   91SOL     OW 1171   1.312   4.522   6.810  0.2145 -0.0463  0.4543
   91SOL    HW1 1172   1.352   4.549   6.722  1.7113  1.7118  1.6022
   91SOL    HW2 1173   1.366   4.448   6.850 -0.1173 -0.4432  0.1763
   92SOL     OW 1174   0.419   5.122   1.069  0.1634  0.2918 -0.1009
   92SOL    HW1 1175   0.344   5.186   1.084  1.0531  1.9647 -2.3214
   92SOL    HW2 1176   0.382   5.030   1.058 -1.4448  0.9165 -0.1125
   93SOL     OW 1177   1.450   1.081   1.724  0.2307  0.2182  0.4345
   93SOL    HW1 1178   1.460   0.986   1.752 -0.7488  0.4168  1.5279
   93SOL    HW2 1179   1.520   1.137   1.769 -0.6185  0.3538  1.6281
   94SOL     OW 1180   6.737   2.184   5.292 -0.2518  0.3801  0.3162
   94SOL    HW1 1181   6.781   2.228   5.370  1.4909  0.8520 -0.8742
   94SOL    HW2 1182   6.761   2.086   5.291  1.2126  0.7082 -0.5462
   95SOL     OW 1183   0.603   1.737   0.123  0.0086  0.2432  0.5910
   95SOL    HW1 1184   0.521   1.787   0.094 -1.3660 -1.3785  1.4763
   95SOL    HW2 1185   0.660   1.718   0.043 -1.2289  0.1150 -0.2968
   96SOL     OW 1186   5.302   2.596   1.330 -0.4145 -0.3090 -0.2804
   96SOL    HW1 1187   5.302   2.695   1.321 -0.7419 -0.2252  0.5423
   96SOL    HW2 1188   5.386   2.559   1.289 -1.1650  0.1147 -2.2981
   97SOL     OW 1189   3.467   5.544   0.443 -0.6054 -0.5701  0.7291
   97SOL    HW1 1190   3.499   5.502   0.357  2.8424 -0.7022  1.9032
   97SOL    HW2 1191   3.415   5.477   0.495 -0.2079 -1.4704  0.0036
   98SOL     OW 1192   5.306   1.331   5.530  0.3121 -0.0626 -0.0636
   98SOL    HW1 1193   5.225   1.378   5.496  1.1209 -0.2111 -2.3979
   98SOL    HW2 1194   5.283   1.237   5.554  0.0276 -0.6131 -2.2609
   99SOL     OW 1195   5.216   4.944   5.333  0.7664 -0.5167 -0.4089
   99SOL    HW1 1196   5.304   4.954   5.380  0.1993 -0.3869  0.6563
   99SOL    HW2 1197   5.221   4.990   5.244  2.3605 -2.0797 -1.1909
  100SOL     OW 1198   5.101   5.133   2.961  0.2358  0.5148  0.4607
  100SOL    HW1 1199   5.096   5.115   3.060 -0.7986  1.0937  0.5325
  100SOL    HW2 1200   5.013   5.112   2.920  0.4832  0.8462 -0.2451
  101SOL     OW 1201   6.302   5.126   3.183  0.1205 -0.4174 -0.5619
  101SOL    HW1 1202   6.330   5.030   3.186  0.6427 -0.2986 -1.3988
  101SOL    HW2 1203   6.373   5.182   3.225 -0.4376 -0.4323  0.4498
  102SOL     OW 1204   1.057   0.226   5.730 -0.1511  0.0426 -0.2776
  102SOL    HW1 1205   1.070   0.278   5.646  0.5833  0.3619  0.0282
  102SOL    HW2 1206   0.998   0.278   5.793  3.1760  2.1446  1.3803
  103SOL     OW 1207   3.971   5.391   6.362  0.0784 -0.8415 -0.1017
  103SOL    HW1 1208   3.874   5.370   6.376  0.1675 -0.9128  0.4084
  103SOL    HW2 1209   4.026   5.339   6.427  0.3477  0.5418  0.8035
  104SOL     OW 1210   5.600   1.814   4.401  0.4310  0.2634  0.3036
  104SOL    HW1 1211   5.519   1.845   4.350  1.0089 -0.2991 -1.0184
  104SOL    HW2 1212   5.598   1.853   4.493 -1.3168  0.2993  0.2941
  105SOL     OW 1213   5.426   1.803   0.094 -0.1731  0.3137  0.4695
  105SOL    HW1 1214   5.463   1.753   0.017 -0.2626  0.8055  0.1015
  105SOL    HW2 1215   5.439   1.751   0.178 -2.2741 -1.4060 -0.1784
  106SOL     OW 1216   2.961   1.363   2.481 -0.2072  0.2170 -0.1236
  106SOL    HW1 1217   3.056   1.365   2.510 -0.5003  3.2519  0.9609
  106SOL    HW2 1218   2.901   1.373   2.560 -1.5081 -1.8562 -0.7582
  107SOL     OW 1219   2.675   6.774   5.869  0.4932  0.5252  0.3534
  107SOL    HW1 1220   2.692   6.735   5.778  0.9209 -0.6204  0.9058
  107SOL    HW2 1221   2.759   6.817   5.902  0.2034  1.3686  0.0181
  108SOL     OW 1222   5.651   0.276   3.119 -0.4810 -0.1536  0.3453
  108SOL    HW1 1223   5.595   0.333   3.180 -0.3667 -0.4668  0.7511
  108SOL    HW2 1224   5.746   0.281   3.148 -0.2906  0.3959 -0.3584
  109SOL     OW 1225   5.110   1.098   4.157  0.5101 -0.1588 -0.4996
  109SOL    HW1 1226   5.167   1.057   4.227 -0.4421  0.5734  0.7454
  109SOL    HW2 1227   5.015   1.068   4.169  0.1020  1.0182 -0.6223
  110SOL     OW 1228   2.429   2.653   5.511  0.8945  0.0300 -0.2034
  110SOL    HW1 1229   2.400   2.676   5.604 -0.2530  0.2488 -0.5970
  110SOL    HW2 1230   2.478   2.730   5.470  2.3714 -0.4547  0.5788
  111SOL     OW 1231   4.120   2.189   4.930  0.0559 -0.2619  0.2567
  111SOL    HW1 1232   4.170   2.274   4.941 -0.2018 -0.1941  0.9357
  111SOL    HW2 1233   4.136   2.130   5.009 -0.0016 -0.7207 -0.0693
  112SOL     OW 1234   4.363   5.344   4.862 -0.1583 -0.3559 -0.5918
  112SOL    HW1 1235   4.324   5.252   4.871 -0.5892 -0.0902  0.3401
  112SOL    HW2 1236   4.398   5.375   4.950 -0.1434  0.4388 -0.8630
  113SOL     OW 1237   6.324   1.857   1.840 -0.2254  0.2387  0.0845
  113SOL    HW1 1238   6.328   1.941   1.785 -0.6742 -0.6381 -1.3385
  113SOL    HW2 1239   6.405   1.853   1.899 -0.1146  1.5793  0.0646
  114SOL     OW 1240   0.357   6.070   0.072  0.0318  0.6106  0.2784
  114SOL    HW1 1241   0.450   6.079   0.038 -0.0892 -0.3465 -0.3396
  114SOL    HW2 1242   0.296   6.129   0.019  0.2025  0.8497  0.3468
  115SOL     OW 1243   0.312   5.226   1.889 -0.2046  0.1109  0.2284
  115SOL    HW1 1244   0.272   5.134   1.888  1.0325 -0.4448  0.6089
  115SOL    HW2 1245   0.367   5.239   1.807 -0.1489  0.4111  0.3137
  116SOL     OW 1246   3.638   2.085   2.291  0.2030  0.2905 -0.1599
  116SOL    HW1 1247   3.542   2.077   2.320  0.0430  3.4770  0.5796
  116SOL    HW2 1248   3.642   2.133   2.204  1.1251 -0.6861 -0.6748
  117SOL     OW 1249   1.674   6.161   6.370  0.3822 -0.1442  0.3745
  117SOL    HW1 1250   1.617   6.160   6.288  1.2837  1.2784 -0.3003
  117SOL    HW2 1251   1.769   6.183   6.345  1.0769 -1.5812  1.5765
  118SOL     OW 1252   5.660   3.702   2.290  0.4102  0.4441 -0.3471
  118SOL    HW1 1253   5.717   3.725   2.212 -0.3060 -0.7948 -1.2746
  118SOL    HW2 1254   5.627   3.786   2.333  1.9173  1.1564 -0.5245
  119SOL     OW 1255   4.673   4.224   6.473 -0.3839  0.3140  0.7901
  119SOL    HW1 1256   4.760   4.194   6.434 -1.1539 -0.9291 -0.0221
  119SOL    HW2 1257   4.682   4.234   6.572  0.9066  1.0498  0.6152
  120SOL     OW 1258   3.245   1.911   0.710 -0.3834  0.4116 -0.6908
  120SOL    HW1 1259   3.209   1.854   0.636  0.7569  0.3351 -1.2124
  120SOL    HW2 1260   3.237   2.008   0.685 -1.3228  0.4504 -0.2753
  121SOL     OW 1261   5.409   5.400   3.105  0.2657 -1.1058 -0.3586
  121SOL    HW1 1262   5.335   5.333   3.106  0.2467 -1.1419 -1.8004
  121SOL    HW2 1263   5.439   5.415   3.011  0.3923  0.8036 -0.0450
  122SOL     OW 1264   6.302   0.563   4.556 -0.1255 -0.0375  0.3923
  122SOL    HW1 1265   6.388   0.535   4.599  1.2072  1.1958 -1.3467
  122SOL    HW2 1266   6.295   0.663   4.557 -1.0831 -0.0803 -0.3626
  123SOL     OW 1267   2.639   3.894   6.897 -0.2904  0.8925  0.2473
  123SOL    HW1 1268   2.726   3.887   6.945 -0.9701 -1.3419  1.2612
  123SOL    HW2 1269   2.650   3.951   6.815  1.9606  1.0870  0.6441
  124SOL     OW 1270   2.384   3.268   1.697  0.3792  0.3222 -0.0487
  124SOL    HW1 1271   2.370   3.348   1.755  0.7589 -0.0507  0.5650
  124SOL    HW2 1272   2.476   3.271   1.658 -0.0368  0.8237 -1.0471
  125SOL     OW 1273   6.391   5.144   3.565  0.6444 -0.1512  0.2815
  125SOL    HW1 1274   6.477   5.154   3.615  2.3781 -1.2562 -2.2546
  125SOL    HW2 1275   6.396   5.196   3.480 -0.4713 -1.6110 -0.7322
  126SOL     OW 1276   1.110   6.610   5.085  0.1926 -0.1745 -0.2878
  126SOL    HW1 1277   1.071   6.558   5.009  0.5774 -0.2782 -0.4138
  126SOL    HW2 1278   1.105   6.556   5.169  0.3322 -0.3020 -0.3614
  127SOL     OW 1279   1.723   3.279   2.163  1.0237 -0.6712  0.5978
  127SOL    HW1 1280   1.807   3.224   2.163  1.1278 -0.5104  0.8053
  127SOL    HW2 1281   1.747   3.376   2.172  0.7894 -0.6627  1.1019
  128SOL     OW 1282   2.599   5.338   1.723  0.0723 -0.5099 -0.4379
  128SOL    HW1 1283   2.575   5.338   1.820  0.3695  1.0002 -0.3259
  128SOL    HW2 1284   2.569   5.253   1.680  0.2252 -1.3291  1.0428
  129SOL     OW 1285   6.821   2.268   3.590  0.0509 -0.1254  0.0010
  129SOL    HW1 1286   6.868   2.211   3.658  0.6525 -0.8618 -1.0101
  129SOL    HW2 1287   6.862   2.359   3.590 -0.6115  0.2007  1.3040
  130SOL     OW 1288   3.565   0.431   1.337  0.2926 -0.0949  0.4091
  130SOL    HW1 1289   3.560   0.531   1.346  0.3960 -0.1055  0.6020
  130SOL    HW2 1290   3.649   0.398   1.381 -0.8782 -0.4922  2.4814
  131SOL     OW 1291   5.713   0.935   2.688  0.2140  0.3500  0.1019
  131SOL    HW1 1292   5.728   1.029   2.658 -2.5389  0.9663  0.3572
  131SOL    HW2 1293   5.735   0.872   2.614  2.3825  1.1324  0.0320
  132SOL     OW 1294   0.936   3.283   0.167 -0.0171  0.0225  0.0465
  132SOL    HW1 1295   1.014   3.223   0.149 -0.9705 -1.4718  0.7090
  132SOL    HW2 1296   0.969   3.370   0.205  1.3465 -0.3610 -0.2021
  133SOL     OW 1297   3.003   3.586   6.870  0.2827 -0.1878  0.2799
  133SOL    HW1 1298   3.007   3.553   6.776 -0.5671  1.4233 -0.3630
  133SOL    HW2 1299   2.916   3.557   6.911 -1.2096  2.4406 -0.8204
  134SOL     OW 1300   2.048   2.796   6.560 -0.4829 -0.9050 -0.5697
  134SOL    HW1 1301   1.997   2.857   6.621  0.0331 -1.5251  0.5107
  134SOL    HW2 1302   2.133   2.768   6.604  1.2747  0.7739 -2.6601
  135SOL     OW 1303   3.809   6.756   6.586 -0.2151 -0.3394 -0.2560
  135SOL    HW1 1304   3.874   6.826   6.618 -1.5289  0.7153  0.2331
  135SOL    HW2 1305   3.858   6.686   6.535  1.4662 -0.2038  1.0766
  136SOL     OW 1306   3.895   4.934   0.523 -0.1237 -0.5031 -0.4472
  136SOL    HW1 1307   3.822   4.980   0.573  0.1135 -0.7724  0.1632
  136SOL    HW2 1308   3.974   4.995   0.514 -0.2738 -0.3529 -0.7528
  137SOL     OW 1309   4.969   2.089   4.000 -0.4134 -0.2071 -0.5022
  137SOL    HW1 1310   4.909   2.014   4.028 -0.7246  0.9348  2.1674
  137SOL    HW2 1311   5.062   2.071   4.032  0.3053 -0.9602 -2.7906
  138SOL     OW 1312   2.294   3.911   5.955  0.2929 -0.4295  0.1919
  138SOL    HW1 1313   2.359   3.984   5.932  0.2102 -0.4331 -0.0500
  138SOL    HW2 1314   2.344   3.831   5.986  0.3865 -0.2805  0.4286
  139SOL     OW 1315   4.789   6.057   3.390 -0.7442 -0.1695  0.0120
  139SOL    HW1 1316   4.835   5.982   3.438  0.0981 -0.4084 -1.1138
  139SOL    HW2 1317   4.710   6.088   3.443  0.0150 -0.5727  1.4101
  140SOL     OW 1318   4.952   2.388   0.496 -0.4314 -0.3855  0.0242
  140SOL    HW1 1319   4.857   2.414   0.517 -0.0913  1.1573 -0.2597
  140SOL    HW2 1320   5.015   2.452   0.540  0.4476 -0.5304 -0.9768
  141SOL     OW 1321   5.964   2.495   3.056  0.4470  0.1844 -0.6118
  141SOL    HW1 1322   5.886   2.553   3.032  0.5381 -0.0374 -1.4927
  141SOL    HW2 1323   5.933   2.401   3.067  0.6531  0.0066 -1.4553
  142SOL     OW 1324   0.455   6.444   1.416 -0.5743 -0.4626  0.4011
  142SOL    HW1 1325   0.421   6.465   1.507 -0.0764  1.7032  0.1503
  142SOL    HW2 1326   0.498   6.354   1.416 -0.2522 -0.3489  2.3975
  143SOL     OW 1327   0.700   2.643   3.542  0.4986 -0.0551  0.1719
  143SOL    HW1 1328   0.788   2.659   3.497 -0.4855  3.0466 -0.8891
  143SOL    HW2 1329   0.642   2.588   3.483  0.3917  1.1935 -0.9194
  144SOL     OW 1330   2.350   3.383   5.736  1.2446 -0.0042  0.6387
  144SOL    HW1 1331   2.321   3.292   5.767  0.4579 -0.0713 -0.2644
  144SOL    HW2 1332   2.420   3.373   5.665  1.4143  0.1055  0.7902
  145SOL     OW 1333   2.218   2.186   1.097 -0.1354  0.0463  0.5437
  145SOL    HW1 1334   2.227   2.173   0.998 -1.6918 -0.2865  0.4171
  145SOL    HW2 1335   2.141   2.246   1.116 -1.1186 -1.4617  1.5943
  146SOL     OW 1336   0.873   6.020   4.890  0.1226 -0.4675  0.0414
  146SOL    HW1 1337   0.887   5.965   4.972  1.7445 -1.4348 -0.8299
  146SOL    HW2 1338   0.808   6.093   4.910 -2.5265 -2.9301  1.1268
  147SOL     OW 1339   3.522   6.228   5.180 -0.2070  0.0663  0.7418
  147SOL    HW1 1340   3.616   6.227   5.214 -0.4806 -1.4480  1.5527
  147SOL    HW2 1341   3.517   6.283   5.097  1.1659  1.0681  1.2933
  148SOL     OW 1342   2.109   4.593   3.295 -0.1957  0.0057  0.1747
  148SOL    HW1 1343   2.170   4.661   3.336  1.0068 -0.1765 -1.2193
  148SOL    HW2 1344   2.059   4.545   3.367  1.7005 -0.1971  1.4356
  149SOL     OW 1345   0.930   5.123   2.517 -0.1076 -0.3472  0.2135
  149SOL    HW1 1346   0.834   5.113   2.544  0.0365 -2.3399  0.0996
  149SOL    HW2 1347   0.942   5.090   2.423  0.8887 -1.2476  0.6351
  150SOL     OW 1348   3.817   6.813   6.983  0.2870  0.1511 -0.1704
  150SOL    HW1 1349   3.857   6.778   6.898 -0.4032  0.2515 -0.5534
  150SOL    HW2 1350   3.717   6.815   6.973  0.2109  0.2981  0.5960
  151SOL     OW 1351   1.125   4.275   5.199  0.0713 -0.8157 -0.4669
  151SOL    HW1 1352   1.130   4.300   5.296  0.2708 -1.5645 -0.2714
  151SOL    HW2 1353   1.030   4.269   5.170  0.0194  0.8857 -0.7291
  152SOL     OW 1354   1.750   3.166   1.622  0.4812  0.1214 -0.1063
  152SOL    HW1 1355   1.845   3.177   1.592  0.8370 -0.9872  0.5783
  152SOL    HW2 1356   1.747   3.117   1.709 -0.7547 -0.3513 -0.3842
  153SOL     OW 1357   3.464   5.445   5.725 -0.0694 -0.7156 -0.0514
  153SOL    HW1 1358   3.431   5.484   5.811  2.5516 -0.2556  0.8488
  153SOL    HW2 1359   3.400   5.466   5.651 -1.1245  1.0921  1.3025
  154SOL     OW 1360   1.862   6.488   1.437  0.0223  0.3635  0.5142
  154SOL    HW1 1361   1.871   6.409   1.377  0.2518  1.1687 -0.5507
  154SOL    HW2 1362   1.815   6.461   1.521 -1.3585 -0.5803 -0.5025
  155SOL     OW 1363   3.605   4.405   1.682  0.0151  0.2158 -0.3377
  155SOL    HW1 1364   3.580   4.487   1.734  2.3216  0.6219  0.2516
  155SOL    HW2 1365   3.591   4.421   1.585 -0.6608  0.8686 -0.1433
  156SOL     OW 1366   4.406   4.839   1.815  0.2408  0.2061  0.6482
  156SOL    HW1 1367   4.449   4.925   1.843 -0.6128  0.5027  1.0768
  156SOL    HW2 1368   4.461   4.762   1.849  0.6250  0.5778  0.8829
  157SOL     OW 1369   2.994   1.388   6.380  0.0298 -0.1615  0.2971
  157SOL    HW1 1370   2.967   1.303   6.336  0.8883 -0.3044  0.0330
  157SOL    HW2 1371   3.064   1.433   6.325  0.8427 -0.1560  1.3156
  158SOL     OW 1372   4.693   2.722   3.593  0.4129  0.0004  0.0585
  158SOL    HW1 1373   4.737   2.793   3.539 -0.2319  1.6287  1.5551
  158SOL    HW2 1374   4.739   2.635   3.579  2.6511  1.1571 -0.1819
  159SOL     OW 1375   3.134   3.270   0.690 -0.4634 -0.3275  0.1085
  159SOL    HW1 1376   3.132   3.369   0.706 -1.1030 -0.5179  1.3719
  159SOL    HW2 1377   3.041   3.236   0.677 -0.1159 -0.5273 -2.1158
  160SOL     OW 1378   1.020   5.556   4.636 -0.0195  0.4594  0.4626
  160SOL    HW1 1379   0.959   5.478   4.643  1.4602 -0.5838  2.6156
  160SOL    HW2 1380   0.971   5.640   4.659 -1.5045  0.1855 -1.4325
  161SOL     OW 1381   1.433   1.410   1.707 -0.7490 -0.0683  0.0877
  161SOL    HW1 1382   1.446   1.483   1.774 -3.1301  0.8291 -0.3101
  161SOL    HW2 1383   1.505   1.342   1.717  0.8886  1.7322  1.2631
  162SOL     OW 1384   2.833   1.492   2.706 -0.5612  0.0071 -0.0140
  162SOL    HW1 1385   2.924   1.533   2.711 -0.1335 -0.8142 -0.7226
  162SOL    HW2 1386   2.774   1.549   2.649 -0.6259  0.7489  0.7646
  163SOL     OW 1387   3.012   1.074   4.923  0.8361  0.1090  0.0827
  163SOL    HW1 1388   3.083   1.048   4.989  1.5171 -0.2621 -0.7876
  163SOL    HW2 1389   3.027   1.025   4.837 -0.4556  0.0509 -0.1231
  164SOL     OW 1390   4.187   0.624   4.125 -0.1571  0.1510  0.0773
  164SOL    HW1 1391   4.194   0.713   4.170  0.9374 -0.5694  1.4213
  164SOL    HW2 1392   4.141   0.560   4.186  2.9342 -1.3264  1.0755
  165SOL     OW 1393   5.989   5.376   1.468 -0.2080 -0.0635 -0.2780
  165SOL    HW1 1394   5.965   5.385   1.372  0.7928 -0.0150 -0.5372
  165SOL    HW2 1395   5.916   5.330   1.517 -0.9229  0.3215 -0.9709
  166SOL     OW 1396   6.278   4.104   6.922  0.0461 -0.8354 -0.5378
  166SOL    HW1 1397   6.377   4.095   6.926  0.4064  1.7657 -1.8497
  166SOL    HW2 1398   6.245   4.152   7.004  0.1509  0.1164 -1.0410
  167SOL     OW 1399   6.439   2.785   0.824  0.6204 -0.2737  0.4754
  167SOL    HW1 1400   6.446   2.743   0.915 -1.0532 -1.8357 -0.0554
  167SOL    HW2 1401   6.374   2.733   0.768  2.4503 -0.0337 -2.0379
  168SOL     OW 1402   6.802   6.367   1.867 -0.2943  0.5454  0.0748
  168SOL    HW1 1403   6.824   6.413   1.953  0.3615  1.3785 -0.5275
  168SOL    HW2 1404   6.830   6.424   1.790  0.6419 -0.9047 -0.7096
  169SOL     OW 1405   3.082   1.398   6.870 -0.3449 -0.1178  0.5706
  169SOL    HW1 1406   3.068   1.304   6.901  1.0894 -0.2638  0.8430
  169SOL    HW2 1407   3.167   1.433   6.909  1.4788 -0.2370 -2.9583
  170SOL     OW 1408   5.967   1.629   3.333 -0.0591  0.2201 -0.6755
  170SOL    HW1 1409   6.038   1.560   3.319  1.1078  1.2207  0.0231
  170SOL    HW2 1410   5.956   1.682   3.249 -2.2049 -1.8596 -1.7955
  171SOL     OW 1411   2.696   6.278   6.689  0.1007 -0.0303  0.4079
  171SOL    HW1 1412   2.762   6.305   6.759  0.2811 -0.7610  0.5296
  171SOL    HW2 1413   2.722   6.189   6.651 -0.5292 -0.0875  0.0952
  172SOL     OW 1414   2.532   1.641   0.564 -0.0162 -0.0070 -0.5194
  172SOL    HW1 1415   2.594   1.577   0.518  0.1475  0.3406 -0.7810
  172SOL    HW2 1416   2.517   1.611   0.658  1.0612  0.2625 -0.2578
  173SOL     OW 1417   3.649   3.775   5.305  0.2056 -0.5977 -0.1546
  173SOL    HW1 1418   3.674   3.737   5.394 -0.7746 -3.4113 -0.9754
  173SOL    HW2 1419   3.719   3.751   5.238 -0.2981 -0.6856 -0.6498
  174SOL     OW 1420   2.149   0.152   0.999 -0.0819 -0.3451  0.2508
  174SOL    HW1 1421   2.222   0.156   0.930  0.1098 -1.0778  0.4065
  174SOL    HW2 1422   2.099   0.239   0.999  1.3660  0.5260  0.7882
  175SOL     OW 1423   6.372   4.960   0.645 -0.5195 -0.1258  0.4289
  175SOL    HW1 1424   6.453   4.953   0.585 -0.0042  0.8758  0.9875
  175SOL    HW2 1425   6.383   4.899   0.723 -0.9891 -1.0992 -0.2469
  176SOL     OW 1426   0.070   1.942   3.040  0.4332 -1.3911 -0.2961
  176SOL    HW1 1427   0.089   2.039   3.025  2.9408 -1.6935  0.4224
  176SOL    HW2 1428  -0.012   1.932   3.096  1.5772  0.4837  1.8957
  177SOL     OW 1429   1.454   1.891   5.244  0.4411 -0.0054  0.2622
  177SOL    HW1 1430   1.463   1.800   5.283 -0.7373 -1.2504 -2.1121
  177SOL    HW2 1431   1.361   1.903   5.209  0.7799  1.8315 -0.1240
  178SOL     OW 1432   1.943   1.435   3.608 -0.1509  0.0380  0.7613
  178SOL    HW1 1433   1.891   1.520   3.613  1.0028  0.7785  0.6669
  178SOL    HW2 1434   1.895   1.369   3.550 -0.9482  0.7020  0.6552
  179SOL     OW 1435   3.262   2.342   0.148  0.0787  0.0462  0.2612
  179SOL    HW1 1436   3.314   2.264   0.114  1.5462  0.6753  0.9962
  179SOL    HW2 1437   3.286   2.359   0.244 -1.7016  0.1911  0.7301
  180SOL     OW 1438   6.996   3.116   6.370 -0.0234  0.2042  0.7220
  180SOL    HW1 1439   7.017   3.188   6.303  0.8916 -0.4844  0.2626
  180SOL    HW2 1440   7.058   3.124   6.448 -0.8203  0.7482  1.3215
  181SOL     OW 1441   2.338   2.738   0.206 -0.4806 -0.1700 -0.1113
  181SOL    HW1 1442   2.273   2.807   0.175 -0.1482  0.0590 -0.3050
  181SOL    HW2 1443   2.430   2.762   0.175  0.0741  0.6849  2.0167
  182SOL     OW 1444   4.022   3.727   5.807 -0.3691 -0.0685 -0.1173
  182SOL    HW1 1445   3.940   3.766   5.764  0.9711  2.7112 -0.3652
  182SOL    HW2 1446   4.042   3.775   5.891  1.1111 -0.5939 -0.1396
  183SOL     OW 1447   0.827   6.947   4.216 -0.6568 -0.0425 -0.2684
  183SOL    HW1 1448   0.908   6.890   4.204 -0.1395  0.7011 -0.4308
  183SOL    HW2 1449   0.760   6.899   4.272 -0.1919 -0.7559 -0.3141
  184SOL     OW 1450   0.006   6.186   3.938 -0.3720 -0.1553 -0.3600
  184SOL    HW1 1451  -0.025   6.281   3.925 -0.1307 -0.1859 -1.2231
  184SOL    HW2 1452  -0.073   6.126   3.941 -0.5624  0.1259  0.7754
  185SOL     OW 1453   3.418   6.277   3.227 -0.2565 -0.0322 -0.1342
  185SOL    HW1 1454   3.411   6.202   3.293  1.2299 -1.9074 -1.9568
  185SOL    HW2 1455   3.506   6.323   3.239 -0.7729  0.8639  0.3600
  186SOL     OW 1456   0.162   4.211   3.809 -0.3504  0.2675 -0.3482
  186SOL    HW1 1457   0.258   4.238   3.814  0.0381 -0.3021 -3.0349
  186SOL    HW2 1458   0.148   4.126   3.859  0.7446 -0.0833 -0.6135
  187SOL     OW 1459   2.370   4.230   5.441  0.1339  0.4246  0.5305
  187SOL    HW1 1460   2.404   4.159   5.503  0.9104 -0.6933 -1.0770
  187SOL    HW2 1461   2.313   4.187   5.371  1.5000  1.1802 -1.1230
  188SOL     OW 1462   2.544   1.659   1.342  0.7431 -0.1788  0.6313
  188SOL    HW1 1463   2.615   1.699   1.285  0.6177  0.4563  0.9218
  188SOL    HW2 1464   2.472   1.726   1.359  0.0065 -0.8412  0.2494
  189SOL     OW 1465   2.378   6.154   2.097  0.0375 -0.7753 -0.4569
  189SOL    HW1 1466   2.293   6.159   2.149  1.1109 -0.0847  1.2981
  189SOL    HW2 1467   2.444   6.218   2.134  0.5862  0.4650 -3.2725
  190SOL     OW 1468   0.502   3.603   0.920 -0.4760 -0.3234  0.2663
  190SOL    HW1 1469   0.522   3.643   1.009 -0.4631  0.5551 -0.1203
  190SOL    HW2 1470   0.586   3.565   0.881 -0.3139  0.0121  0.2836
  191SOL     OW 1471   5.550   3.640   0.274  0.5395 -0.5374  0.1344
  191SOL    HW1 1472   5.642   3.650   0.311  0.2478  0.7955  0.5737
  191SOL    HW2 1473   5.497   3.577   0.331  1.2196 -1.4819 -0.2474
  192SOL     OW 1474   3.867   2.136   2.438 -0.6707  0.2205 -1.0733
  192SOL    HW1 1475   3.927   2.162   2.362 -0.7529  0.3648 -1.0896
  192SOL    HW2 1476   3.773   2.129   2.405 -0.6840  0.1328 -1.0176
  193SOL     OW 1477   2.661   4.065   6.376 -0.0029  0.1300  0.8043
  193SOL    HW1 1478   2.595   4.122   6.327 -0.2778 -1.1991 -0.4512
  193SOL    HW2 1479   2.621   3.975   6.395  1.4350 -0.7385 -0.0620
  194SOL     OW 1480   4.728   5.628   0.501 -0.4987  0.0224  0.8080
  194SOL    HW1 1481   4.728   5.589   0.409 -1.3584 -1.0718  1.2474
  194SOL    HW2 1482   4.705   5.726   0.496  0.2900  0.1659 -0.1983
  195SOL     OW 1483   6.960   3.789   2.571  0.5936  0.6818 -0.0354
  195SOL    HW1 1484   6.926   3.882   2.587 -0.6963  0.4897 -1.4237
  195SOL    HW2 1485   6.995   3.783   2.477  1.5171 -0.0028  0.3417
  196SOL     OW 1486   4.334   1.264   6.128 -0.1891  0.2892  0.0546
  196SOL    HW1 1487   4.429   1.291   6.142 -0.1236  2.2297 -3.0142
  196SOL    HW2 1488   4.330   1.167   6.105  1.1549  0.3293 -0.4379
  197SOL     OW 1489   0.531   5.420   0.831 -0.4266  0.1584  0.5446
  197SOL    HW1 1490   0.576   5.349   0.885  1.9331  1.7955  0.8915
  197SOL    HW2 1491   0.476   5.478   0.892  0.3489  0.6045  0.8345
  198SOL     OW 1492   4.522   0.329   6.575 -0.5709 -0.5605  0.0292
  198SOL    HW1 1493   4.532   0.237   6.614  0.4228 -0.1994  0.6708
  198SOL    HW2 1494   4.601   0.349   6.516  0.1006  0.4869  1.2175
  199SOL     OW 1495   2.894   1.935   0.602 -0.1355  0.1573  0.3333
  199SOL    HW1 1496   2.797   1.914   0.612  0.0751 -1.7219 -0.9575
  199SOL    HW2 1497   2.944   1.851   0.579  1.1796  1.6831 -3.0875
  200SOL     OW 1498   5.732   5.990   1.161 -0.3188 -0.6305 -0.2462
  200SOL    HW1 1499   5.636   5.967   1.180 -0.2675 -0.6243  0.0246
  200SOL    HW2 1500   5.790   5.950   1.232 -0.1507 -0.3698 -0.2373
  201SOL     OW 1501   5.659   3.853   1.775  0.0341 -0.5621  0.5841
  201SOL    HW1 1502   5.603   3.791   1.720  0.1766 -1.4138  1.3862
  201SOL    HW2 1503   5.755   3.839   1.754 -0.0019  1.3822 -1.3057
  202SOL     OW 1504   3.331   2.584   1.443 -0.1460  0.0083 -0.1600
  202SOL    HW1 1505   3.364   2.658   1.385  1.4649 -1.2461 -0.9350
  202SOL    HW2 1506   3.361   2.599   1.537 -1.2130  1.1263  0.0200
  203SOL     OW 1507   6.502   2.662   4.534  0.3708  0.0863 -0.0619
  203SOL    HW1 1508   6.520   2.573   4.493 -0.1548  0.2492 -0.6600
  203SOL    HW2 1509   6.466   2.724   4.465 -2.1514 -0.1159  0.9706
  204SOL     OW 1510   0.506   3.717   6.459  0.2328  0.0933  0.1010
  204SOL    HW1 1511   0.431   3.662   6.421  0.1094 -0.6713  1.3839
  204SOL    HW2 1512   0.569   3.658   6.509  1.1410  0.8761 -0.0967
  205SOL     OW 1513   2.916   6.589   2.291 -0.0819  0.5525 -0.1203
  205SOL    HW1 1514   2.958   6.499   2.280  1.2110  0.9373  1.3042
  205SOL    HW2 1515   2.988   6.659   2.292 -0.9606  1.4759  0.0897
  206SOL     OW 1516   4.742   5.794   6.642 -0.3295 -0.0014  0.1035
  206SOL    HW1 1517   4.714   5.809   6.547  0.5140 -3.0224 -0.7209
  206SOL    HW2 1518   4.661   5.773   6.697 -0.7618  1.2401 -0.0201
  207SOL     OW 1519   5.178   6.774   6.598 -0.8335 -0.1265 -0.6686
  207SOL    HW1 1520   5.270   6.739   6.586 -0.8295 -0.2578 -0.2752
  207SOL    HW2 1521   5.168   6.810   6.691 -1.0847  0.1629 -0.8058
  208SOL     OW 1522   0.298   6.505   5.616 -0.3507  0.1644 -0.0778
  208SOL    HW1 1523   0.332   6.454   5.537 -1.2934  0.4021 -0.6425
  208SOL    HW2 1524   0.374   6.524   5.678  0.8043  1.6973 -1.8676
  209SOL     OW 1525   4.486   1.171   2.211 -0.3035  0.6068  0.2272
  209SOL    HW1 1526   4.444   1.262   2.205 -1.5017 -0.0032 -1.5501
  209SOL    HW2 1527   4.526   1.146   2.122 -0.5154 -0.8273  0.5050
  210SOL     OW 1528   3.896   4.189   5.484 -0.0188  0.2584 -0.2538
  210SOL    HW1 1529   3.920   4.099   5.448  0.1206  0.3655 -0.4343
  210SOL    HW2 1530   3.840   4.179   5.566  0.8721 -0.0063  0.3361
  211SOL     OW 1531   1.304   1.966   0.592 -0.1957  0.0351  0.1808
  211SOL    HW1 1532   1.354   2.035   0.645 -1.3382  0.5153  0.6611
  211SOL    HW2 1533   1.352   1.878   0.598 -0.3228  0.0584  2.0821
  212SOL     OW 1534   4.299   4.042   5.679 -0.3685 -0.4701  0.0830
  212SOL    HW1 1535   4.306   3.963   5.739 -0.5588  0.0245  0.7701
  212SOL    HW2 1536   4.203   4.073   5.675 -0.2928 -0.2614 -0.1581
  213SOL     OW 1537   5.877   3.317   3.373 -0.1216 -0.4103 -0.3735
  213SOL    HW1 1538   5.942   3.393   3.379  1.5083 -1.7219 -0.5902
  213SOL    HW2 1539   5.872   3.271   3.462  0.1231 -0.9948 -0.6576
  214SOL     OW 1540   6.116   1.825   2.004  0.2758 -0.0029 -0.0848
  214SOL    HW1 1541   6.182   1.865   1.940  0.5605 -0.2292  0.0683
  214SOL    HW2 1542   6.069   1.749   1.959  0.1114  0.1668 -0.1983
  215SOL     OW 1543   6.651   5.432   3.983 -0.8624  0.5955  0.9179
  215SOL    HW1 1544   6.737   5.463   4.023 -0.7166 -0.1162  1.1671
  215SOL    HW2 1545   6.658   5.431   3.883  0.6334 -2.7375  0.9390
  216SOL     OW 1546   3.036   0.132   2.888 -0.3217  0.3865 -0.0522
  216SOL    HW1 1547   2.995   0.043   2.905  0.7395 -0.0788  0.1940
  216SOL    HW2 1548   3.136   0.124   2.890 -0.1502  1.1445 -2.2347
  217SOL     OW 1549   6.936   3.668   4.239  0.8864  0.0074 -0.0788
  217SOL    HW1 1550   6.931   3.570   4.259  1.9761 -0.3305 -1.2958
  217SOL    HW2 1551   6.948   3.681   4.140  0.9980  1.3577  0.0955
  218SOL     OW 1552   5.074   4.295   2.310 -0.4318  0.2846  0.3952
  218SOL    HW1 1553   5.020   4.373   2.279 -1.7834 -0.5054  0.6842
  218SOL    HW2 1554   5.042   4.266   2.401  0.7205  0.0122  0.7275
  219SOL     OW 1555   1.295   3.771   1.963 -0.2362 -0.0459 -0.1810
  219SOL    HW1 1556   1.321   3.764   1.866 -1.1592 -0.6330 -0.3980
  219SOL    HW2 1557   1.207   3.727   1.977  0.5146 -1.2256  1.1862
  220SOL     OW 1558   6.446   4.947   5.218  0.7565  0.1748 -0.2204
  220SOL    HW1 1559   6.363   4.895   5.199 -0.1327  1.1285  0.9260
  220SOL    HW2 1560   6.423   5.032   5.264  2.1372  1.8142 -2.3611
  221SOL     OW 1561   0.799   0.691   5.405  0.5664  0.2439  0.2364
  221SOL    HW1 1562   0.849   0.751   5.343  0.0457  1.0668  0.6006
  221SOL    HW2 1563   0.731   0.744   5.456  0.9652 -0.4266  1.5021
  222SOL     OW 1564   0.615   5.262   0.089  0.3011 -1.0316 -0.4232
  222SOL    HW1 1565   0.629   5.246   0.186  0.2826  1.9435  0.1755
  222SOL    HW2 1566   0.703   5.257   0.041  0.8843  0.6286  0.3694
  223SOL     OW 1567   5.332   3.831   1.893  0.0360  0.0877  0.0480
  223SOL    HW1 1568   5.410   3.777   1.864  0.2486  1.1886 -1.5006
  223SOL    HW2 1569   5.349   3.867   1.985  1.1195 -0.0804 -0.0758
  224SOL     OW 1570   6.917   1.079   2.709 -0.5789  0.1368 -0.0470
  224SOL    HW1 1571   6.878   1.162   2.750 -0.0939 -0.0474  0.8198
  224SOL    HW2 1572   6.920   1.088   2.610 -3.6168 -0.1817 -0.2474
  225SOL     OW 1573   6.105   1.825   6.669  0.0330 -0.2994  0.7664
  225SOL    HW1 1574   6.131   1.921   6.657 -1.2913  0.0309  0.3957
  225SOL    HW2 1575   6.088   1.784   6.580  0.0432 -0.7254  0.9610
  226SOL     OW 1576   6.518   4.235   6.801  0.7717 -0.4100  0.4802
  226SOL    HW1 1577   6.547   4.202   6.711 -2.3861  0.4405 -0.9904
  226SOL    HW2 1578   6.506   4.334   6.798  0.1623 -0.4309  1.7024
  227SOL     OW 1579   3.591   1.946   6.978 -0.0111  0.0951  0.1382
  227SOL    HW1 1580   3.625   1.885   7.049 -1.9650 -0.4299  0.6791
  227SOL    HW2 1581   3.510   1.993   7.011 -0.5911  0.3122 -1.5280
  228SOL     OW 1582   1.457   4.239   6.551  0.0837  0.8050  0.0584
  228SOL    HW1 1583   1.378   4.293   6.579  0.4751  1.2167  0.3840
  228SOL    HW2 1584   1.459   4.153   6.603  0.3020  1.1635  0.6541
  229SOL     OW 1585   1.777   3.331   6.349 -0.4728 -0.2084 -0.1611
  229SOL    HW1 1586   1.690   3.347   6.396 -1.8337  0.1361 -2.6490
  229SOL    HW2 1587   1.790   3.233   6.335  0.2566 -0.3692  1.3762
  230SOL     OW 1588   6.344   2.399   5.925 -0.4846 -0.0549 -0.3979
  230SOL    HW1 1589   6.419   2.350   5.881  0.5309  0.9138  0.2115
  230SOL    HW2 1590   6.379   2.450   6.004 -1.9220 -0.2045  0.3714
  231SOL     OW 1591   0.476   4.127   2.861 -0.1578  0.3501  0.3243
  231SOL    HW1 1592   0.546   4.153   2.795  1.2876 -1.2310  1.1511
  231SOL    HW2 1593   0.440   4.037   2.838  0.4497 -0.2797  1.6884
  232SOL     OW 1594   6.389   3.584   0.286 -0.2813 -0.0078  0.2146
  232SOL    HW1 1595   6.305   3.598   0.232  0.1240 -1.0793 -0.7562
  232SOL    HW2 1596   6.446   3.516   0.240  0.1125 -0.9401  2.0007
  233SOL     OW 1597   4.932   1.879   1.187  0.0213  0.1882  0.7680
  233SOL    HW1 1598   4.850   1.822   1.200 -0.0732  0.4794  1.5165
  233SOL    HW2 1599   4.989   1.874   1.269 -1.1568  3.0248  1.8928
  234SOL     OW 1600   4.100   1.467   6.605 -0.0090 -0.0184 -0.6408
  234SOL    HW1 1601   4.139   1.376   6.622 -1.4112 -0.6449 -0.6166
  234SOL    HW2 1602   4.159   1.536   6.645  0.8204 -0.9542 -0.1883
  235SOL     OW 1603   4.699   1.135   0.768 -0.2996  0.1313 -0.1790
  235SOL    HW1 1604   4.744   1.216   0.731 -0.5029  0.8923  1.1653
  235SOL    HW2 1605   4.734   1.117   0.860 -2.3090  0.4218  0.6914
  236SOL     OW 1606   1.379   2.740   2.165  0.0637  0.3639  0.0041
  236SOL    HW1 1607   1.347   2.790   2.245  1.1424  0.9505  0.0829
  236SOL    HW2 1608   1.479   2.745   2.160  0.0322  0.0573 -1.1930
  237SOL     OW 1609   6.514   5.825   2.342 -0.1600 -1.0560 -0.0194
  237SOL    HW1 1610   6.519   5.856   2.247 -0.3670  0.2804  0.3881
  237SOL    HW2 1611   6.449   5.749   2.350 -1.0486 -0.3826 -0.7466
  238SOL     OW 1612   7.007   0.297   0.195  0.2172 -0.5706 -0.7852
  238SOL    HW1 1613   6.915   0.336   0.188  0.1968 -0.9260 -3.3913
  238SOL    HW2 1614   7.073   0.371   0.209 -0.1203  0.1632 -2.7365
  239SOL     OW 1615   4.887   4.417   1.303  0.2078 -0.1748 -0.1528
  239SOL    HW1 1616   4.831   4.412   1.220 -0.6517 -1.5901  0.4756
  239SOL    HW2 1617   4.867   4.503   1.351 -1.1593 -0.4753 -0.1424
  240SOL     OW 1618   2.352   5.807   4.742  0.4116  0.2097 -0.3088
  240SOL    HW1 1619   2.349   5.891   4.797 -1.8459  0.6099 -0.9376
  240SOL    HW2 1620   2.389   5.828   4.651 -0.4023  0.5977 -0.5559
  241SOL     OW 1621   5.559   4.358   1.033 -0.4608 -0.3782 -0.4177
  241SOL    HW1 1622   5.486   4.331   0.970  0.8301 -0.6359 -1.8462
  241SOL    HW2 1623   5.648   4.349   0.988  0.3560  1.7900  0.5980
  242SOL     OW 1624   2.306   5.437   6.788 -0.1491  0.0465 -0.4976
  242SOL    HW1 1625   2.275   5.385   6.708  0.4305  2.0324 -2.0713
  242SOL    HW2 1626   2.405   5.453   6.780  0.3138 -1.3669  1.6319
  243SOL     OW 1627   1.033   0.781   5.304 -0.3193  0.0761 -0.2631
  243SOL    HW1 1628   1.078   0.696   5.275  1.1523  1.1254 -1.2168
  243SOL    HW2 1629   1.081   0.859   5.263 -0.5020  1.4772  2.0316
  244SOL     OW 1630   6.436   3.795   0.598  0.0066 -0.7254 -0.1226
  244SOL    HW1 1631   6.353   3.805   0.543 -0.2749 -1.0026  0.2465
  244SOL    HW2 1632   6.418   3.824   0.692  0.7031  0.5263 -0.3392
  245SOL     OW 1633   2.255   1.949   4.768  0.3882 -0.3910  0.5708
  245SOL    HW1 1634   2.206   1.983   4.688 -0.1882 -0.9838  0.6632
  245SOL    HW2 1635   2.316   2.020   4.802 -0.2470  0.2891  0.3192
  246SOL     OW 1636   1.934   3.024   4.475 -0.2170 -0.2380 -0.2460
  246SOL    HW1 1637   2.025   2.985   4.463  0.2056  0.6098  0.1186
  246SOL    HW2 1638   1.934   3.119   4.444 -0.4817  0.3472  1.4514
  247SOL     OW 1639   1.105   5.153   3.485 -0.5112  0.4539  0.0665
  247SOL    HW1 1640   1.172   5.101   3.433  0.2906 -0.6768  2.0989
  247SOL    HW2 1641   1.069   5.228   3.429 -0.6133 -1.3600 -2.4584
  248SOL     OW 1642   4.839   3.718   1.313 -0.4436 -0.5114  0.0216
  248SOL    HW1 1643   4.905   3.791   1.295 -0.5930 -0.4525 -0.2991
  248SOL    HW2 1644   4.883   3.644   1.363 -0.1602 -0.4228 -0.0974
  249SOL     OW 1645   1.109   4.960   2.644 -1.1123  0.4406  0.2252
  249SOL    HW1 1646   1.049   4.880   2.658 -2.5050  1.6081  1.2399
  249SOL    HW2 1647   1.054   5.036   2.610 -0.2986  1.7051  1.6668
  250SOL     OW 1648   6.312   5.982   4.455 -0.1677  0.2052 -0.2369
  250SOL    HW1 1649   6.374   5.937   4.519  1.1297 -0.1684 -1.6945
  250SOL    HW2 1650   6.316   6.081   4.469  0.6599  0.1770 -0.2240
  251SOL     OW 1651   4.052   3.155   2.865 -0.4643 -0.5257 -0.3827
  251SOL    HW1 1652   4.065   3.125   2.771 -1.5729  0.9787 -1.0561
  251SOL    HW2 1653   4.084   3.249   2.875 -1.3497 -0.2870  0.4489
  252SOL     OW 1654   4.695   6.755   3.747  0.0657 -0.1752 -0.0950
  252SOL    HW1 1655   4.663   6.834   3.695  1.9798  1.0630  0.5225
  252SOL    HW2 1656   4.747   6.786   3.827  1.6649 -2.0429 -0.3406
  253SOL     OW 1657   3.933   3.667   5.423  0.6369  0.1869  0.1220
  253SOL    HW1 1658   3.853   3.644   5.478  1.0118 -0.1500  0.5378
  253SOL    HW2 1659   3.909   3.666   5.326  0.1255  0.1511  0.2469
  254SOL     OW 1660   5.701   1.764   0.009 -0.2348 -0.2964 -0.2128
  254SOL    HW1 1661   5.723   1.861   0.018 -1.3657 -0.0686  0.3153
  254SOL    HW2 1662   5.736   1.715   0.088  0.4865 -0.3537 -0.5622
  255SOL     OW 1663   1.511   1.177   2.582 -0.0715 -0.1900 -0.1712
  255SOL    HW1 1664   1.508   1.078   2.589 -0.6050 -0.2102 -0.6245
  255SOL    HW2 1665   1.430   1.210   2.534  0.1229  0.4627 -0.0693
  256SOL     OW 1666   6.360   2.952   3.929 -0.3387 -0.4285  0.3669
  256SOL    HW1 1667   6.367   2.861   3.887  3.2251  0.0341 -0.3600
  256SOL    HW2 1668   6.356   3.022   3.858 -0.9675  0.1009  0.9060
  257SOL     OW 1669   0.112   3.307   4.446  0.1795 -0.0612 -0.3396
  257SOL    HW1 1670   0.209   3.331   4.450  0.0820  0.4904 -1.1367
  257SOL    HW2 1671   0.100   3.213   4.477  1.1066 -0.5212 -1.3157
  258SOL     OW 1672   4.695   6.461   6.301  0.3321  0.5434  0.1243
  258SOL    HW1 1673   4.767   6.531   6.304  0.8292  0.0215  1.8958
  258SOL    HW2 1674   4.730   6.376   6.339 -0.6419 -0.3282 -0.8641
  259SOL     OW 1675   5.946   1.672   1.367 -1.1074  0.0049  0.3464
  259SOL    HW1 1676   5.885   1.751   1.356 -0.4493  0.4202 -0.4255
  259SOL    HW2 1677   5.891   1.588   1.369 -1.6742  0.2548 -1.6271
  260SOL     OW 1678   2.258   1.974   6.731  0.4788  0.1972  0.4395
  260SOL    HW1 1679   2.233   1.978   6.635 -1.4927  1.1498  0.9402
  260SOL    HW2 1680   2.246   1.881   6.766 -1.6450  0.4248  0.4248
  261SOL     OW 1681   3.075   3.759   2.074 -0.4769  0.0044  1.1423
  261SOL    HW1 1682   3.035   3.779   2.164 -3.2933  2.3661 -0.4598
  261SOL    HW2 1683   3.018   3.693   2.026 -0.3987  0.6212  0.1829
  262SOL     OW 1684   5.834   4.420   0.395  0.3748  0.0802  0.3130
  262SOL    HW1 1685   5.759   4.482   0.421  1.3093  1.4536 -0.1691
  262SOL    HW2 1686   5.918   4.450   0.440  0.8587 -0.8240  0.0187
  263SOL     OW 1687   5.613   0.926   6.938  0.4190 -0.4502 -0.9323
  263SOL    HW1 1688   5.670   1.000   6.972 -0.5241  0.6465 -1.6571
  263SOL    HW2 1689   5.551   0.895   7.010  2.3272 -2.1456  0.0969
  264SOL     OW 1690   5.631   4.600   0.519  0.4414  0.1245  0.2280
  264SOL    HW1 1691   5.681   4.675   0.476 -0.6705  0.6941 -0.1232
  264SOL    HW2 1692   5.533   4.619   0.515 -0.0940 -2.4076 -2.0137
  265SOL     OW 1693   0.872   4.602   2.220 -0.7099 -0.5455  0.1682
  265SOL    HW1 1694   0.830   4.666   2.156 -0.8790 -0.4603  0.3618
  265SOL    HW2 1695   0.951   4.558   2.177 -0.6135 -0.2293  0.0244
  266SOL     OW 1696   1.538   5.337   5.300  0.4101  0.4775 -0.3367
  266SOL    HW1 1697   1.549   5.423   5.251 -1.8790  1.5851  0.9557
  266SOL    HW2 1698   1.506   5.355   5.393  2.7521 -1.6476  1.0213
  267SOL     OW 1699   4.079   0.157   1.935  0.3469  0.3353  0.7114
  267SOL    HW1 1700   4.057   0.248   1.900 -0.2256 -0.4290 -0.9913
  267SOL    HW2 1701   4.009   0.129   2.000 -0.0450  0.6888  0.4504
  268SOL     OW 1702   1.635   3.805   2.369 -0.3654  0.0516  0.5664
  268SOL    HW1 1703   1.685   3.892   2.366 -1.3843  0.6502  0.4381
  268SOL    HW2 1704   1.692   3.735   2.412  1.1001  0.3602 -0.7793
  269SOL     OW 1705   0.532   5.370   0.544  0.1627  0.2433  0.0946
  269SOL    HW1 1706   0.568   5.370   0.638  2.3700  2.8778 -0.6100
  269SOL    HW2 1707   0.461   5.439   0.536 -0.2661 -0.2179 -0.1217
  270SOL     OW 1708   3.150   0.697   1.249  0.3306 -0.5043 -0.5277
  270SOL    HW1 1709   3.126   0.706   1.152  2.0219  0.1532 -0.9300
  270SOL    HW2 1710   3.167   0.601   1.270 -0.0712 -0.6551 -0.8797
  271SOL     OW 1711   2.982   0.200   0.135  0.4581 -0.7060 -0.2207
  271SOL    HW1 1712   3.052   0.159   0.192  1.6099  1.6319  0.1576
  271SOL    HW2 1713   3.017   0.209   0.041  0.5765  0.1914 -0.0977
  272SOL     OW 1714   5.121   3.233   3.661  0.7878 -0.5380  0.0350
  272SOL    HW1 1715   5.127   3.139   3.694  0.5858 -0.8427 -0.7679
  272SOL    HW2 1716   5.213   3.268   3.643  0.8531 -0.6622  0.1309
  273SOL     OW 1717   2.501   6.792   4.459  0.1062  0.1722 -0.0651
  273SOL    HW1 1718   2.412   6.836   4.468 -0.1217 -0.0724 -1.0230
  273SOL    HW2 1719   2.529   6.793   4.363  1.0370  0.0492  0.1951
  274SOL     OW 1720   2.873   1.417   3.041  0.3423 -0.1881 -0.1730
  274SOL    HW1 1721   2.852   1.375   2.953 -1.1025  0.9591 -0.4086
  274SOL    HW2 1722   2.836   1.361   3.115  1.4195 -1.0704 -0.2856
  275SOL     OW 1723   0.812   1.450   1.752  0.6275  0.2164  0.4509
  275SOL    HW1 1724   0.855   1.360   1.758  1.7411  0.6674 -0.3938
  275SOL    HW2 1725   0.845   1.508   1.826  1.1549  0.4215  0.0628
  276SOL     OW 1726   1.925   6.576   4.935  0.1702 -0.4841 -0.2272
  276SOL    HW1 1727   1.949   6.653   4.994 -1.2266  1.0031 -1.5201
  276SOL    HW2 1728   1.828   6.556   4.944  0.3029 -1.4038 -0.7076
  277SOL     OW 1729   6.617   5.626   6.418  0.3465 -0.3249 -0.1068
  277SOL    HW1 1730   6.653   5.532   6.419 -0.6342 -0.7965 -2.4710
  277SOL    HW2 1731   6.654   5.674   6.338 -0.8380  0.5871 -0.1263
  278SOL     OW 1732   6.282   6.390   0.077  0.1711  0.2298  0.2124
  278SOL    HW1 1733   6.190   6.375   0.112  0.3120  0.7147  0.8036
  278SOL    HW2 1734   6.277   6.413  -0.020 -0.1449 -2.1343 -0.3926
  279SOL     OW 1735   6.612   6.294   2.258  0.6207 -0.5212 -0.1381
  279SOL    HW1 1736   6.635   6.200   2.232  1.3535  0.1139 -1.9341
  279SOL    HW2 1737   6.695   6.350   2.256 -0.0094  0.4173 -0.2879
  280SOL     OW 1738   4.814   1.146   1.778  0.1290  0.1851  0.0053
  280SOL    HW1 1739   4.886   1.159   1.847  3.4380  1.1260 -3.2965
  280SOL    HW2 1740   4.809   1.228   1.720 -2.0006 -0.8307 -1.3561
  281SOL     OW 1741   4.991   3.030   1.673  0.4977 -0.4440  0.4469
  281SOL    HW1 1742   5.062   2.980   1.623  1.2846  1.7768 -0.7962
  281SOL    HW2 1743   4.930   3.075   1.608  0.3919  0.9778  1.4838
  282SOL     OW 1744   6.371   6.644   2.295 -0.6814  0.4412  0.8590
  282SOL    HW1 1745   6.347   6.708   2.367 -0.9295  1.4462 -0.0825
  282SOL    HW2 1746   6.456   6.598   2.317 -0.7071  0.8049  1.7352
  283SOL     OW 1747   3.131   5.782   1.091  0.4464  0.2474 -0.3510
  283SOL    HW1 1748   3.082   5.838   1.157  0.5315  1.5665 -1.3697
  283SOL    HW2 1749   3.229   5.803   1.096  0.5482 -0.2100 -0.3678
  284SOL     OW 1750   6.844   5.452   2.265 -0.1870  0.0203  0.3515
  284SOL    HW1 1751   6.887   5.371   2.224 -1.1096 -0.5234  0.4241
  284SOL    HW2 1752   6.749   5.431   2.288 -0.4747  1.1737  0.2609
  285SOL     OW 1753   2.897   2.218   5.458  0.4064 -0.5857 -0.2203
  285SOL    HW1 1754   2.893   2.275   5.540 -0.1782 -0.3593 -0.3971
  285SOL    HW2 1755   2.804   2.201   5.424  0.6801  0.5516 -1.6702
  286SOL     OW 1756   4.527   1.349   1.055 -0.1568 -0.1985 -0.0824
  286SOL    HW1 1757   4.553   1.360   0.959  1.2165 -0.8545  0.1797
  286SOL    HW2 1758   4.610   1.350   1.112 -0.9165 -0.1961  1.0572
  287SOL     OW 1759   4.182   6.665   6.077  0.2565  0.2485 -0.8975
  287SOL    HW1 1760   4.102   6.612   6.047  0.4052 -0.7602  0.4188
  287SOL    HW2 1761   4.153   6.733   6.145  0.2348  1.2027 -1.8308
  288SOL     OW 1762   4.359   5.549   1.614 -0.3499  0.0727  0.0704
  288SOL    HW1 1763   4.277   5.492   1.608 -0.1923 -0.0130 -1.5160
  288SOL    HW2 1764   4.431   5.511   1.557  0.7291  0.3055  1.2327
  289SOL     OW 1765   4.423   2.084   6.638 -0.5490 -0.4596  0.3891
  289SOL    HW1 1766   4.368   2.131   6.568  1.0155 -1.0226 -1.3082
  289SOL    HW2 1767   4.449   2.149   6.709  0.3943  0.9605 -1.1742
  290SOL     OW 1768   3.671   2.900   4.898  0.5504 -0.3036 -0.4051
  290SOL    HW1 1769   3.725   2.820   4.923  0.8108  0.8233  3.3177
  290SOL    HW2 1770   3.574   2.879   4.904  0.6141 -0.4795 -0.0007
  291SOL     OW 1771   1.148   3.794   5.834 -0.4027  0.3236  0.0840
  291SOL    HW1 1772   1.174   3.796   5.930 -1.0288  1.7383  0.2522
  291SOL    HW2 1773   1.149   3.888   5.798  1.9459 -0.3626 -1.8806
  292SOL     OW 1774   4.145   0.518   3.166 -0.4194  0.4373 -0.0976
  292SOL    HW1 1775   4.225   0.458   3.157 -0.2879  0.4387  0.9037
  292SOL    HW2 1776   4.091   0.514   3.083 -0.2739 -0.8853 -0.1524
  293SOL     OW 1777   5.477   3.021   5.812 -0.3941 -0.3362  0.0881
  293SOL    HW1 1778   5.389   3.063   5.833  0.5272  0.6354  2.2816
  293SOL    HW2 1779   5.502   3.041   5.717 -0.6770  2.9089  0.5900
  294SOL     OW 1780   4.240   1.405   1.473 -0.0539 -0.4687  0.4948
  294SOL    HW1 1781   4.174   1.434   1.405 -0.5039  2.5100  2.0435
  294SOL    HW2 1782   4.194   1.392   1.561  0.7624 -2.7557  0.6744
  295SOL     OW 1783   5.059   2.415   5.188 -0.3675  0.5412  0.2393
  295SOL    HW1 1784   4.974   2.407   5.241  0.1724  0.9882  1.2026
  295SOL    HW2 1785   5.037   2.438   5.093 -1.3130  0.9564  0.5450
  296SOL     OW 1786   0.834   3.193   2.593 -0.5774 -0.3870 -0.4784
  296SOL    HW1 1787   0.830   3.289   2.619  0.8395 -0.4802  0.1461
  296SOL    HW2 1788   0.911   3.178   2.531 -0.9032 -1.1001 -0.7257
  297SOL     OW 1789   0.475   3.071   6.431 -0.1988  0.3758 -0.2999
  297SOL    HW1 1790   0.466   2.981   6.388 -1.0468  0.4552 -0.3057
  297SOL    HW2 1791   0.541   3.066   6.506  0.9018  0.1112 -1.2602
  298SOL     OW 1792   1.713   2.274   4.928  0.5683 -0.5176  0.1016
  298SOL    HW1 1793   1.745   2.363   4.960 -0.5438 -1.3861  4.2192
  298SOL    HW2 1794   1.791   2.213   4.913  1.2323  0.5260 -0.8189
  299SOL     OW 1795   1.023   0.974   0.097  0.1482  0.1185  0.2333
  299SOL    HW1 1796   0.949   1.023   0.052 -0.4382 -1.0412 -0.1070
  299SOL    HW2 1797   0.985   0.903   0.157  0.9521 -1.2677 -0.8228
  300SOL     OW 1798   2.927   1.384   5.443 -0.0997 -0.0313  0.1204
  300SOL    HW1 1799   2.835   1.353   5.418 -0.3288  0.7309 -0.0131
  300SOL    HW2 1800   2.920   1.458   5.510  0.4444 -0.4891  0.6900
  301SOL     OW 1801   1.416   1.558   1.396  0.5615 -0.1463 -0.2798
  301SOL    HW1 1802   1.421   1.475   1.452 -1.3311  0.0751  0.2883
  301SOL    HW2 1803   1.395   1.636   1.455 -2.0644  0.0082 -1.2965
  302SOL     OW 1804   4.576   0.255   5.099  0.1321  0.2563  0.7939
  302SOL    HW1 1805   4.531   0.244   5.010  1.1907  0.5788  0.1959
  302SOL    HW2 1806   4.601   0.166   5.135  1.8836  0.2035 -0.4224
  303SOL     OW 1807   2.829   1.774   6.732  0.4611 -0.6301 -0.6228
  303SOL    HW1 1808   2.795   1.816   6.648 -0.8101 -1.2224 -0.4404
  303SOL    HW2 1809   2.845   1.677   6.716 -0.1674 -0.8274 -0.0904
  304SOL     OW 1810   0.734   4.520   2.868 -0.2883  0.6433 -0.0043
  304SOL    HW1 1811   0.783   4.433   2.878 -0.0902  0.8223  0.6218
  304SOL    HW2 1812   0.767   4.584   2.937 -0.7835  1.0584 -0.1531
  305SOL     OW 1813   1.005   0.492   1.061 -0.3369  0.2167  0.2774
  305SOL    HW1 1814   0.975   0.479   0.967  0.5073 -1.1460  0.1641
  305SOL    HW2 1815   1.035   0.586   1.074 -2.4494  1.0087 -0.1985
  306SOL     OW 1816   3.944   0.606   0.915  0.7387 -0.6347 -0.2913
  306SOL    HW1 1817   3.868   0.576   0.858  2.7045 -2.9879 -1.8894
  306SOL    HW2 1818   3.991   0.683   0.871 -0.4758  0.6477  0.5696
  307SOL     OW 1819   2.430   3.593   1.659  0.4219  0.7912 -0.3677
  307SOL    HW1 1820   2.355   3.648   1.623 -0.1634 -0.7298 -1.5918
  307SOL    HW2 1821   2.395   3.535   1.733  0.1716 -0.4325 -1.4058
  308SOL     OW 1822   1.462   6.713   0.540  0.2416  0.5929  0.2098
  308SOL    HW1 1823   1.465   6.732   0.639  1.5268 -1.6383  0.6679
  308SOL    HW2 1824   1.554   6.691   0.508 -0.2451  0.8058 -1.4162
  309SOL     OW 1825   3.612   2.874   3.300 -0.2637  0.1391  0.6080
  309SOL    HW1 1826   3.639   2.869   3.397  0.1907 -3.7234  0.4224
  309SOL    HW2 1827   3.518   2.840   3.290  0.2431 -1.0155 -0.4359
  310SOL     OW 1828   6.659   1.750   1.079  0.1536 -0.1090  0.0475
  310SOL    HW1 1829   6.657   1.722   1.175  1.5597  2.7353  1.0101
  310SOL    HW2 1830   6.751   1.733   1.042 -0.4963 -1.5940 -1.0032
  311SOL     OW 1831   6.595   5.339   6.905  0.2060 -0.0375  0.0010
  311SOL    HW1 1832   6.614   5.380   6.815  0.5960 -1.5999 -0.6559
  311SOL    HW2 1833   6.526   5.267   6.895 -0.9020  0.7946  1.2330
  312SOL     OW 1834   1.697   6.764   6.743 -0.3069  0.2083  0.0558
  312SOL    HW1 1835   1.625   6.743   6.809 -0.1131  1.2014  0.6023
  312SOL    HW2 1836   1.786   6.757   6.788 -0.0968 -0.2396 -0.4137
  313SOL     OW 1837   4.730   0.709   4.778  0.5547 -0.1558  0.2303
  313SOL    HW1 1838   4.823   0.678   4.760 -0.0941 -0.8292 -2.3242
  313SOL    HW2 1839   4.669   0.680   4.704 -1.6469  0.5857  1.6221
  314SOL     OW 1840   3.121   6.359   1.560 -0.1145 -0.2224  0.0718
  314SOL    HW1 1841   3.031   6.332   1.525 -0.9536  0.9958  1.2133
  314SOL    HW2 1842   3.117   6.366   1.659  1.3305 -0.3949  0.1577
  315SOL     OW 1843   3.928   0.947   4.006  0.1652  0.3483  0.1169
  315SOL    HW1 1844   3.920   0.868   3.945 -0.9908 -0.2900  1.0633
  315SOL    HW2 1845   3.984   0.923   4.085 -0.5210  0.3315  0.6063
  316SOL     OW 1846   1.940   6.777   4.370 -0.4074  0.3580 -0.8562
  316SOL    HW1 1847   1.957   6.684   4.402  1.6869  0.6805 -0.8698
  316SOL    HW2 1848   1.999   6.797   4.292  0.4074  2.2106  0.1488
  317SOL     OW 1849   6.816   0.277   6.515  0.7475 -0.0392 -0.1959
  317SOL    HW1 1850   6.783   0.218   6.441  1.3271  0.1191 -0.5884
  317SOL    HW2 1851   6.756   0.356   6.524  0.6313 -0.0961 -0.4582
  318SOL     OW 1852   1.470   5.451   0.678 -0.1692 -0.0387  0.4310
  318SOL    HW1 1853   1.395   5.385   0.688  0.5437 -0.8380  0.6179
  318SOL    HW2 1854   1.543   5.411   0.623 -0.0937  0.9324 -0.2043
  319SOL     OW 1855   1.221   3.929   0.432  0.1068 -0.7054  0.0734
  319SOL    HW1 1856   1.266   3.910   0.520 -0.8024 -1.7820  0.3166
  319SOL    HW2 1857   1.232   4.026   0.411  1.0173 -0.5800  0.9862
  320SOL     OW 1858   2.532   6.470   0.699  0.2196 -0.2459 -0.1432
  320SOL    HW1 1859   2.537   6.402   0.626 -1.1498 -0.8832  0.3284
  320SOL    HW2 1860   2.592   6.443   0.774  1.2170  0.1341 -0.7739
  321SOL     OW 1861   6.846   3.294   1.338 -0.4497  0.4609  0.5762
  321SOL    HW1 1862   6.840   3.353   1.257 -0.0672 -0.6728 -0.3130
  321SOL    HW2 1863   6.754   3.271   1.370 -0.7446 -1.4240 -1.3561
  322SOL     OW 1864   5.853   3.716   5.250  0.5340 -0.0808  0.0088
  322SOL    HW1 1865   5.838   3.806   5.290 -0.7875  0.0090 -0.6093
  322SOL    HW2 1866   5.872   3.726   5.152 -0.5568 -0.4915 -0.2651
  323SOL     OW 1867   5.175   5.168   1.121  0.5451 -0.1009  0.4171
  323SOL    HW1 1868   5.194   5.241   1.055 -1.5258  0.0873 -0.0483
  323SOL    HW2 1869   5.162   5.207   1.212 -0.2989  0.0910  0.2181
  324SOL     OW 1870   2.987   1.558   0.336  0.3103  0.5512  0.2541
  324SOL    HW1 1871   3.036   1.473   0.356 -0.3195  0.1154 -0.0442
  324SOL    HW2 1872   2.988   1.574   0.237  0.7155  1.0666  0.3396
  325SOL     OW 1873   6.449   4.878   3.573  0.0160  0.0813 -0.0500
  325SOL    HW1 1874   6.419   4.970   3.548 -0.7389 -0.2345 -0.3409
  325SOL    HW2 1875   6.374   4.830   3.620  1.1549  0.4184  2.2740
  326SOL     OW 1876   3.825   5.016   6.125 -0.0782  0.1418  0.2697
  326SOL    HW1 1877   3.735   5.033   6.085 -0.3221  0.3248  0.8859
  326SOL    HW2 1878   3.856   4.925   6.098 -0.3979  0.1208 -0.0369
  327SOL     OW 1879   6.678   6.255   6.795 -0.2620 -0.6255 -0.1773
  327SOL    HW1 1880   6.607   6.188   6.778 -1.2951  0.4057 -0.0544
  327SOL    HW2 1881   6.688   6.314   6.715  1.9831 -2.0548 -1.0663
  328SOL     OW 1882   5.543   1.991   5.348 -0.1031  0.2804  0.5910
  328SOL    HW1 1883   5.475   2.054   5.312  0.7228  0.1729 -1.2576
  328SOL    HW2 1884   5.616   1.977   5.281  1.4944 -0.0277  2.2870
  329SOL     OW 1885   1.988   2.890   5.080 -0.2581 -0.1197  0.6631
  329SOL    HW1 1886   1.890   2.882   5.099 -1.0010 -0.9097 -2.7667
  329SOL    HW2 1887   2.029   2.799   5.080 -0.4565 -0.2860 -1.5878
  330SOL     OW 1888   4.932   4.592   5.134  0.1155  0.0748 -0.1686
  330SOL    HW1 1889   4.876   4.514   5.105 -0.9394  0.9916 -0.6809
  330SOL    HW2 1890   5.022   4.559   5.162 -0.7993 -1.5144  1.1349
  331SOL     OW 1891   0.631   0.080   5.189  0.6526  0.2572 -0.1916
  331SOL    HW1 1892   0.587   0.149   5.246 -1.3247 -0.5780 -0.6419
  331SOL    HW2 1893   0.685   0.019   5.246  1.5140  1.4768  0.3396
  332SOL     OW 1894   1.024   1.650   5.092 -0.3459  0.0203  0.1026
  332SOL    HW1 1895   1.059   1.621   5.003 -1.3831 -1.5097  0.1550
  332SOL    HW2 1896   0.983   1.740   5.083  0.7580  0.4747 -0.6486
  333SOL     OW 1897   0.715   5.044   2.105  0.6836  0.2372 -0.1948
  333SOL    HW1 1898   0.746   5.139   2.107  1.9089 -0.1581  0.8159
  333SOL    HW2 1899   0.701   5.016   2.010 -2.6105  2.2797 -0.4643
  334SOL     OW 1900   6.196   6.318   3.886 -0.6160 -0.3145 -0.2517
  334SOL    HW1 1901   6.198   6.228   3.931  0.6731 -0.4596 -0.5423
  334SOL    HW2 1902   6.183   6.306   3.788  0.8832 -0.3058 -0.4809
  335SOL     OW 1903   3.924   6.205   4.229  0.3319  0.1058  0.5797
  335SOL    HW1 1904   3.883   6.191   4.319 -1.5455  0.3891 -0.1867
  335SOL    HW2 1905   3.997   6.273   4.236  0.5613 -0.2484  1.9561
  336SOL     OW 1906   0.237   2.485   3.240  0.2001  0.5060 -0.1431
  336SOL    HW1 1907   0.218   2.395   3.280  2.4857 -0.4061 -0.9084
  336SOL    HW2 1908   0.253   2.475   3.142  3.8160  1.0557  0.2464
  337SOL     OW 1909   6.525   3.361   0.899  0.3384  0.2535 -0.7284
  337SOL    HW1 1910   6.616   3.321   0.887  0.3645  0.3169 -0.7373
  337SOL    HW2 1911   6.456   3.298   0.861  0.4995  0.9748 -2.3064
  338SOL     OW 1912   2.446   5.717   2.722 -0.1072  0.3265  0.0981
  338SOL    HW1 1913   2.439   5.785   2.795 -0.0176  0.5337 -0.0886
  338SOL    HW2 1914   2.373   5.731   2.655  1.0547  1.4509 -0.9685
  339SOL     OW 1915   1.343   2.492   2.313  0.5758 -0.2942  0.6018
  339SOL    HW1 1916   1.316   2.521   2.405  0.8910 -1.7290  1.1724
  339SOL    HW2 1917   1.357   2.573   2.255 -2.2910  0.6015  1.0109
  340SOL     OW 1918   5.073   0.225   3.414 -0.7202 -0.2281  0.5445
  340SOL    HW1 1919   5.070   0.295   3.343  0.0510 -0.7849 -0.0489
  340SOL    HW2 1920   5.150   0.164   3.398 -0.1410  0.0034  2.2261
  341SOL     OW 1921   5.859   6.844   0.137 -0.7213  0.1774 -0.2554
  341SOL    HW1 1922   5.931   6.852   0.206 -0.2368  0.8253 -0.8261
  341SOL    HW2 1923   5.811   6.757   0.149  0.8784 -0.7756 -0.5437
  342SOL     OW 1924   5.999   3.938   3.452  0.3901  0.2888 -0.0893
  342SOL    HW1 1925   5.951   3.997   3.388  1.6674  1.0214 -0.4125
  342SOL    HW2 1926   6.093   3.923   3.420  0.4587 -0.9543  0.5994
  343SOL     OW 1927   4.825   1.873   3.231 -0.0440 -1.0535  0.1660
  343SOL    HW1 1928   4.851   1.847   3.138  0.0237 -0.0807 -0.0901
  343SOL    HW2 1929   4.883   1.824   3.297 -0.9787 -2.7908 -0.2391
  344SOL     OW 1930   5.243   0.297   3.198  0.2600  0.4348 -0.6546
  344SOL    HW1 1931   5.254   0.208   3.153 -1.4422  0.2864 -0.8273
  344SOL    HW2 1932   5.170   0.348   3.153 -0.6018  0.8257  1.1104
  345SOL     OW 1933   1.369   1.562   2.452 -0.3749  0.1463 -0.0837
  345SOL    HW1 1934   1.363   1.656   2.486  1.2011  0.0893  0.4264
  345SOL    HW2 1935   1.439   1.556   2.381 -1.0257 -0.4963 -0.6924
  346SOL     OW 1936   6.765   3.581   2.858  0.2607 -0.2297  0.2023
  346SOL    HW1 1937   6.702   3.647   2.817 -0.0797 -0.5999  0.1242
  346SOL    HW2 1938   6.839   3.630   2.905  0.3672  0.2063 -0.4004
  347SOL     OW 1939   5.050   5.033   4.586 -0.2707 -0.3093 -0.0443
  347SOL    HW1 1940   5.105   4.950   4.591 -0.3349 -0.5021 -1.8037
  347SOL    HW2 1941   4.954   5.009   4.575 -0.4346  0.0124  0.6491
  348SOL     OW 1942   4.673   6.889   0.114  0.1590  0.1416  0.0608
  348SOL    HW1 1943   4.737   6.922   0.044  0.2346 -0.5909 -0.2153
  348SOL    HW2 1944   4.636   6.968   0.164 -2.1082  0.9288 -2.6588
  349SOL     OW 1945   4.819   4.863   2.085  0.5371  0.7931  0.3287
  349SOL    HW1 1946   4.908   4.831   2.051  0.7101  1.4042  0.1947
  349SOL    HW2 1947   4.825   4.881   2.183  0.5992  0.9716  0.2918
  350SOL     OW 1948   5.722   1.987   2.332  0.1231  0.3340 -0.1558
  350SOL    HW1 1949   5.623   1.973   2.329  0.1082 -1.4653  3.6147
  350SOL    HW2 1950   5.767   1.919   2.273 -0.8099 -0.9090  0.5157
  351SOL     OW 1951   0.546   3.979   1.654 -0.4449 -0.0575 -0.3629
  351SOL    HW1 1952   0.462   3.937   1.621  1.1743 -2.8120 -1.2967
  351SOL    HW2 1953   0.596   3.913   1.710  0.0970  2.2757  2.1190
  352SOL     OW 1954   6.302   6.376   6.213  0.4009  0.1157 -0.2735
  352SOL    HW1 1955   6.263   6.450   6.267  1.9369  1.3542 -0.7862
  352SOL    HW2 1956   6.234   6.345   6.146 -0.6660  0.2259  0.7197
  353SOL     OW 1957   2.951   1.348   5.812 -0.4863 -0.4213  0.3379
  353SOL    HW1 1958   3.050   1.345   5.823 -0.2610  1.1695 -0.8191
  353SOL    HW2 1959   2.921   1.444   5.810 -1.9262 -0.8540 -0.2648
  354SOL     OW 1960   3.204   6.782   0.585 -0.4626 -0.5032  0.1125
  354SOL    HW1 1961   3.188   6.839   0.666  2.2032 -1.3040  1.3056
  354SOL    HW2 1962   3.284   6.816   0.536 -2.7320  0.7811 -3.1072
  355SOL     OW 1963   1.673   4.075   1.487 -0.5259  0.1966 -0.5599
  355SOL    HW1 1964   1.763   4.114   1.465 -1.0478  1.0756 -1.2065
  355SOL    HW2 1965   1.651   4.095   1.582  0.0758 -0.2503 -0.3221
  356SOL     OW 1966   5.639   4.075   6.208  0.0161 -1.0906 -0.0908
  356SOL    HW1 1967   5.686   4.080   6.296  1.9315 -2.8924 -0.9205
  356SOL    HW2 1968   5.619   4.167   6.176  0.6118 -0.3511  1.5307
  357SOL     OW 1969   4.099   4.959   3.080  0.2534  0.0088 -0.2623
  357SOL    HW1 1970   4.007   4.932   3.051 -0.6810  1.4259  1.2004
  357SOL    HW2 1971   4.125   5.044   3.033  0.3146  0.2431  0.1880
  358SOL     OW 1972   1.007   3.519   0.303 -0.4973 -0.0231  0.2300
  358SOL    HW1 1973   1.006   3.618   0.317 -1.7082  0.0104  0.0001
  358SOL    HW2 1974   1.049   3.474   0.382 -0.3329  0.6464  0.5268
  359SOL     OW 1975   0.997   1.538   1.374  0.0107  0.1587  0.4266
  359SOL    HW1 1976   1.063   1.479   1.421  0.9235 -0.1716 -1.1825
  359SOL    HW2 1977   0.926   1.482   1.333 -0.5974  0.4200  1.0940
  360SOL     OW 1978   4.458   0.021   0.958  0.7055 -0.1532  0.2017
  360SOL    HW1 1979   4.477   0.104   1.011  0.2049 -0.4817  0.9125
  360SOL    HW2 1980   4.524  -0.050   0.983  1.7332  0.3033 -1.0955
  361SOL     OW 1981   2.633   4.562   0.644  0.1794  0.8578  0.0063
  361SOL    HW1 1982   2.712   4.532   0.591 -0.5652  1.4165 -1.4533
  361SOL    HW2 1983   2.628   4.508   0.729  3.1557  2.0309  1.0579
  362SOL     OW 1984   6.897   2.992   0.952  0.1945  0.1085  0.3348
  362SOL    HW1 1985   6.987   2.963   0.919  0.1584 -3.2548  2.7091
  362SOL    HW2 1986   6.826   2.941   0.904 -0.0902 -1.2212  2.0926
  363SOL     OW 1987   5.213   0.055   0.936  0.1694 -0.5831 -0.4778
  363SOL    HW1 1988   5.125   0.014   0.959 -1.4500  2.9703  0.2786
  363SOL    HW2 1989   5.264   0.074   1.020  0.7653 -0.8184 -0.7835
  364SOL     OW 1990   1.673   3.548   5.592  0.2421 -0.3500 -0.1214
  364SOL    HW1 1991   1.734   3.528   5.669 -1.1081  0.4360  1.2157
  364SOL    HW2 1992   1.580   3.519   5.614 -0.4979  1.3807 -0.7621
  365SOL     OW 1993   5.628   2.543   0.479  0.5655  0.8724  0.5449
  365SOL    HW1 1994   5.720   2.567   0.447  0.0036  0.1104 -1.7965
  365SOL    HW2 1995   5.576   2.627   0.494  0.2812  1.3153 -2.4539
  366SOL     OW 1996   2.548   0.280   1.540  1.1598 -0.1705 -0.1822
  366SOL    HW1 1997   2.540   0.325   1.451  1.8485  0.9894  0.3149
  366SOL    HW2 1998   2.465   0.227   1.558  1.1173 -0.6295 -1.6089
  367SOL     OW 1999   3.644   0.117   2.924 -0.1361 -0.3411  0.1510
  367SOL    HW1 2000   3.728   0.169   2.940  1.0368 -1.7089 -1.3284
  367SOL    HW2 2001   3.575   0.177   2.883  0.2807  0.6580  0.8620
  368SOL     OW 2002   5.857   4.760   0.930 -0.1492 -0.0605  0.1483
  368SOL    HW1 2003   5.865   4.788   0.834 -2.2063 -2.1651 -0.7513
  368SOL    HW2 2004   5.793   4.683   0.936 -0.0881  0.0296  3.2407
  369SOL     OW 2005   5.819   0.670   4.229 -0.1452  0.5913  0.3665
  369SOL    HW1 2006   5.791   0.575   4.217  0.8257 -0.0094  2.4246
  369SOL    HW2 2007   5.879   0.697   4.154 -0.6800 -0.2947 -0.4038
  370SOL     OW 2008   2.959   3.305   4.382  0.0557 -0.4359  0.0522
  370SOL    HW1 2009   2.888   3.371   4.409 -0.9992 -1.0025 -1.2439
  370SOL    HW2 2010   3.043   3.354   4.360 -0.1506  0.3183  0.8789
  371SOL     OW 2011   5.761   6.572   5.225  0.6411  0.1852  0.1653
  371SOL    HW1 2012   5.686   6.608   5.169 -0.1885  0.0564  1.1660
  371SOL    HW2 2013   5.763   6.619   5.313  0.6297 -0.9964  0.8228
  372SOL     OW 2014   2.956   3.481   4.972 -0.1036  0.3754  0.1806
  372SOL    HW1 2015   2.909   3.395   4.955 -0.1717  0.2099  1.2049
  372SOL    HW2 2016   3.052   3.464   4.995  0.1019  0.6293 -0.4522
  373SOL     OW 2017   2.036   1.602   0.533  0.0222  0.0144 -0.1344
  373SOL    HW1 2018   1.980   1.625   0.453  0.1158  0.9123  0.0409
  373SOL    HW2 2019   2.133   1.610   0.510  0.0491  0.3491  0.0757
  374SOL     OW 2020   5.369   6.648   2.911  0.5118 -0.0894 -0.1412
  374SOL    HW1 2021   5.377   6.585   2.833 -1.4393  2.9033 -2.9955
  374SOL    HW2 2022   5.460   6.681   2.936  1.2318 -1.5268 -0.7043
  375SOL     OW 2023   3.828   4.917   2.990 -0.9223  0.5943  0.4826
  375SOL    HW1 2024   3.781   4.993   3.034 -0.2506  1.2562  0.0737
  375SOL    HW2 2025   3.801   4.912   2.894  2.0502  2.9318 -0.6308
  376SOL     OW 2026   0.368   0.352   6.243  0.3632 -0.1519 -0.0872
  376SOL    HW1 2027   0.370   0.446   6.279  0.1925  0.7982 -2.3829
  376SOL    HW2 2028   0.278   0.312   6.260 -0.1403  0.7429 -0.5867
  377SOL     OW 2029   3.730   0.356   1.107 -0.0612 -0.4646 -0.2610
  377SOL    HW1 2030   3.634   0.377   1.122 -0.6059 -2.1065 -1.1351
  377SOL    HW2 2031   3.777   0.436   1.071 -1.9804 -0.5728 -3.4046
  378SOL     OW 2032   3.461   3.995   5.300  0.4403 -0.3586 -0.0089
  378SOL    HW1 2033   3.532   3.924   5.303  1.7123  0.8893  0.9716
  378SOL    HW2 2034   3.470   4.048   5.217 -0.5206 -1.3091 -0.7495
  379SOL     OW 2035   4.490   4.852   0.563 -0.4283 -0.2864  0.0941
  379SOL    HW1 2036   4.487   4.823   0.468 -0.3160 -1.8059  0.5151
  379SOL    HW2 2037   4.456   4.778   0.621  1.5876 -0.2805  1.3920
  380SOL     OW 2038   5.187   6.733   0.831  0.3295 -0.4209 -0.1712
  380SOL    HW1 2039   5.228   6.773   0.913  0.0682 -2.4402  1.0108
  380SOL    HW2 2040   5.237   6.650   0.806 -1.2982 -1.3727 -0.3703
  381SOL     OW 2041   0.197   1.934   4.726  0.2377  0.2125 -0.7780
  381SOL    HW1 2042   0.227   1.858   4.784 -1.1731 -0.0442 -0.3567
  381SOL    HW2 2043   0.225   1.916   4.631 -0.0562 -0.8212 -0.6784
  382SOL     OW 2044   4.756   3.243   1.211 -0.4909 -0.0525  0.1650
  382SOL    HW1 2045   4.718   3.330   1.178 -0.1583 -0.2683 -0.8044
  382SOL    HW2 2046   4.686   3.172   1.206  0.2511 -0.6842 -2.5682
  383SOL     OW 2047   5.490   3.211   2.736 -0.3417  0.4412 -0.4889
  383SOL    HW1 2048   5.583   3.196   2.769 -0.5823  0.7548  0.3685
  383SOL    HW2 2049   5.430   3.231   2.814 -1.4006 -1.0986 -0.8703
  384SOL     OW 2050   0.354   1.257   2.248  0.1270 -0.4443 -1.1040
  384SOL    HW1 2051   0.380   1.174   2.199  0.3983 -0.6675 -0.5905
  384SOL    HW2 2052   0.266   1.243   2.294  0.1771 -0.4526 -1.0101
  385SOL     OW 2053   0.499   3.103   3.395 -0.4118 -0.3367  0.1547
  385SOL    HW1 2054   0.429   3.172   3.378  1.0835  0.9727 -1.0167
  385SOL    HW2 2055   0.509   3.045   3.314 -0.5743 -0.9157  0.5481
  386SOL     OW 2056   4.800   0.476   1.907 -0.0209  0.3292 -0.1335
  386SOL    HW1 2057   4.714   0.429   1.927  0.5446 -0.7643 -0.1916
  386SOL    HW2 2058   4.781   0.570   1.877 -1.3150 -0.4318 -1.8809
  387SOL     OW 2059   3.613   3.868   0.712  0.8322  0.3964  0.6852
  387SOL    HW1 2060   3.654   3.876   0.803  0.6410  1.0318  0.7193
  387SOL    HW2 2061   3.557   3.949   0.693 -0.7857 -0.6542  0.8164
  388SOL     OW 2062   0.766   0.262   4.790 -0.6620  0.1128 -0.3723
  388SOL    HW1 2063   0.861   0.246   4.818 -0.8247  1.2050  0.9281
  388SOL    HW2 2064   0.764   0.329   4.716 -0.4038 -0.0284 -0.5062
  389SOL     OW 2065   2.409   5.933   5.343  0.6011 -0.4438 -0.0563
  389SOL    HW1 2066   2.371   5.840   5.337  1.3390 -0.8891  1.6070
  389SOL    HW2 2067   2.469   5.939   5.423 -0.5468  1.8752  0.6958
  390SOL     OW 2068   2.493   5.555   3.416 -0.3207  0.2518 -0.5420
  390SOL    HW1 2069   2.533   5.647   3.414 -1.0138  0.7038  2.3601
  390SOL    HW2 2070   2.563   5.488   3.390  1.0533  1.3639  0.1518
  391SOL     OW 2071   6.025   5.655   5.126  0.1017  0.0060  0.5493
  391SOL    HW1 2072   6.040   5.636   5.029 -1.7791  0.0627  0.2087
  391SOL    HW2 2073   6.067   5.742   5.150  0.8160 -0.1396 -0.1251
  392SOL     OW 2074   3.564   2.340   6.641  0.5432 -0.3086  0.1000
  392SOL    HW1 2075   3.496   2.409   6.667  0.2460 -0.5940  0.0784
  392SOL    HW2 2076   3.538   2.251   6.678  1.5145 -0.2028  1.1019
  393SOL     OW 2077   4.138   1.952   3.228 -0.6252 -0.0559  0.0191
  393SOL    HW1 2078   4.043   1.920   3.233 -0.8100  0.5387  0.4083
  393SOL    HW2 2079   4.188   1.898   3.160 -1.4192  0.0673 -0.6794
  394SOL     OW 2080   6.389   4.147   4.328  0.1063  0.6553  0.4782
  394SOL    HW1 2081   6.398   4.158   4.427 -0.0030  2.9016  0.2937
  394SOL    HW2 2082   6.424   4.228   4.282 -0.4520 -0.0595 -1.3075
  395SOL     OW 2083   1.864   0.992   5.440 -0.0010 -0.4214 -0.1442
  395SOL    HW1 2084   1.795   0.932   5.399  0.2669  0.1748 -1.5330
  395SOL    HW2 2085   1.827   1.085   5.447  1.2855  0.4167 -2.9089
  396SOL     OW 2086   5.116   0.661   1.082  0.0774  0.6236 -0.0703
  396SOL    HW1 2087   5.092   0.712   1.165  1.3240  0.5118  0.3907
  396SOL    HW2 2088   5.215   0.667   1.068 -0.1880  1.1489 -1.9110
  397SOL     OW 2089   5.993   5.300   0.733  0.1820 -0.2646 -0.2086
  397SOL    HW1 2090   6.044   5.386   0.741  0.3317 -0.4955  1.5161
  397SOL    HW2 2091   5.953   5.276   0.821  1.6974 -2.9038 -0.1119
  398SOL     OW 2092   5.388   2.948   2.674  0.0602  0.3425 -0.3655
  398SOL    HW1 2093   5.435   2.916   2.591 -0.8026  0.3482 -0.8662
  398SOL    HW2 2094   5.404   3.046   2.685  1.2546  0.1085  0.2088
  399SOL     OW 2095   0.399   4.610   6.204 -0.4741 -0.3234  0.1599
  399SOL    HW1 2096   0.353   4.521   6.199 -1.1331 -0.0513  1.1803
  399SOL    HW2 2097   0.348   4.671   6.264  1.1211  0.0574  1.1972
  400SOL     OW 2098   0.023   1.563   3.423  0.1198  0.1542 -0.0614
  400SOL    HW1 2099   0.060   1.491   3.483 -1.1719 -0.5177 -0.0246
  400SOL    HW2 2100   0.075   1.647   3.435  1.7543 -0.8048 -0.1911
  401SOL     OW 2101   3.418   3.799   3.789  0.3100 -0.2896 -0.0861
  401SOL    HW1 2102   3.337   3.849   3.821  1.2585  0.9203  0.4962
  401SOL    HW2 2103   3.447   3.835   3.700  1.0574  0.2994  0.3836
  402SOL     OW 2104   5.193   0.580   4.250  0.5856  0.1199  0.0991
  402SOL    HW1 2105   5.096   0.557   4.261  0.9688 -1.3370  0.6531
  402SOL    HW2 2106   5.208   0.612   4.156 -0.3952  0.1927 -0.0500
  403SOL     OW 2107   4.847   4.898   0.058 -0.4363 -0.4234  0.4103
  403SOL    HW1 2108   4.860   4.929  -0.036  0.5670 -0.5499  0.5050
  403SOL    HW2 2109   4.770   4.833   0.061 -0.5045 -0.3837 -0.3067
  404SOL     OW 2110   3.659   6.115   4.210  0.4821 -0.9715 -0.2115
  404SOL    HW1 2111   3.638   6.146   4.303 -0.1101 -0.7140 -0.4290
  404SOL    HW2 2112   3.748   6.152   4.182  0.9652 -1.5762  0.4864
  405SOL     OW 2113   6.703   0.874   6.595  0.0479 -0.1765 -0.2767
  405SOL    HW1 2114   6.629   0.913   6.540  0.6040 -0.9609 -1.6344
  405SOL    HW2 2115   6.670   0.793   6.643 -0.0477 -0.3556 -0.6458
  406SOL     OW 2116   3.371   0.380   1.661  0.6056  0.5666  0.3454
  406SOL    HW1 2117   3.310   0.360   1.737  2.6459 -1.7268  1.5107
  406SOL    HW2 2118   3.347   0.324   1.582  1.0349 -0.1844  0.7362
  407SOL     OW 2119   1.318   3.258   0.571  0.2922  0.0671  0.1908
  407SOL    HW1 2120   1.369   3.221   0.649  1.0429  1.4314  0.3786
  407SOL    HW2 2121   1.377   3.256   0.490  0.5299  1.2731  0.3183
  408SOL     OW 2122   4.832   1.389   5.259  0.1792  0.6341  0.9359
  408SOL    HW1 2123   4.827   1.372   5.358  1.4394  2.8654  1.4389
  408SOL    HW2 2124   4.882   1.314   5.215  1.6594  0.7587  2.3376
  409SOL     OW 2125   1.335   3.134   6.822 -0.9197  0.0752 -0.5007
  409SOL    HW1 2126   1.410   3.074   6.792 -1.3593 -1.3287  1.0145
  409SOL    HW2 2127   1.251   3.107   6.776 -0.8236  0.5547 -0.9619
  410SOL     OW 2128   1.236   2.019   6.885  0.0314  0.3427  0.4109
  410SOL    HW1 2129   1.277   1.928   6.871 -1.5035 -0.1533 -1.2461
  410SOL    HW2 2130   1.198   2.025   6.977 -1.9954 -1.6748 -0.1874
  411SOL     OW 2131   6.414   3.913   3.568  0.7804  0.9373  0.0663
  411SOL    HW1 2132   6.511   3.925   3.548  1.6746 -1.7572  2.0469
  411SOL    HW2 2133   6.400   3.916   3.667 -0.4531 -2.1184  0.1118
  412SOL     OW 2134   1.537   5.857   0.264  0.6063 -0.2021  0.3556
  412SOL    HW1 2135   1.556   5.954   0.281  1.0479  0.0612 -1.5108
  412SOL    HW2 2136   1.601   5.821   0.197  0.6947 -1.9188  1.3069
  413SOL     OW 2137   0.606   6.198   0.296 -0.0345  0.1176 -0.4393
  413SOL    HW1 2138   0.513   6.226   0.321 -0.4397 -1.0822 -0.5536
  413SOL    HW2 2139   0.665   6.279   0.293 -0.4475  0.6288  2.2413
  414SOL     OW 2140   3.889   0.942   4.374 -0.4678 -0.4843 -0.2318
  414SOL    HW1 2141   3.988   0.954   4.372 -0.7198  2.3194 -1.5426
  414SOL    HW2 2142   3.856   0.920   4.282 -1.2360  1.4254 -0.4642
  415SOL     OW 2143   2.960   4.818   6.590 -0.1090  0.0433  0.2030
  415SOL    HW1 2144   2.931   4.889   6.526  0.5984  0.6452  0.5328
  415SOL    HW2 2145   2.884   4.755   6.607 -0.1358 -0.5244 -1.7291
  416SOL     OW 2146   4.129   5.785   2.132  0.5224 -0.4055  0.2237
  416SOL    HW1 2147   4.173   5.696   2.144  1.4866  0.1229  0.7063
  416SOL    HW2 2148   4.060   5.778   2.060  1.2879 -1.3015 -0.4523
  417SOL     OW 2149   3.949   0.843   3.513  0.0815 -1.1460  0.2350
  417SOL    HW1 2150   3.886   0.921   3.508  0.4716 -0.6076  2.4778
  417SOL    HW2 2151   3.967   0.808   3.421  0.1877  1.6447 -0.9085
  418SOL     OW 2152   1.001   4.360   5.463 -0.0804  0.2375 -0.4528
  418SOL    HW1 2153   0.909   4.342   5.428  1.0259 -0.0885 -3.4710
  418SOL    HW2 2154   1.038   4.441   5.417  0.7956  0.9797  1.4897
  419SOL     OW 2155   4.487   2.533   3.383  0.6961  0.8156  0.0829
  419SOL    HW1 2156   4.416   2.475   3.423  0.0070  1.4293 -0.2332
  419SOL    HW2 2157   4.498   2.615   3.439 -0.8856  2.1023 -1.3809
  420SOL     OW 2158   2.088   6.956   3.277 -0.1676  0.4936  0.1690
  420SOL    HW1 2159   2.050   7.030   3.333 -0.6822 -0.9914  1.8841
  420SOL    HW2 2160   2.023   6.881   3.273  1.0631 -0.5913 -0.0477
  421SOL     OW 2161   0.771   2.189   4.503 -0.0805  0.1901  0.3319
  421SOL    HW1 2162   0.682   2.160   4.469 -0.1045 -0.9168  1.2649
  421SOL    HW2 2163   0.782   2.287   4.490  0.1389 -0.1765 -3.2637
  422SOL     OW 2164   1.031   3.597   3.908  0.5016 -0.4456  0.1125
  422SOL    HW1 2165   1.127   3.573   3.924  1.0328  1.9248  0.8928
  422SOL    HW2 2166   0.986   3.617   3.995  0.2399  1.5904 -0.4347
  423SOL     OW 2167   0.778   5.203   4.084  0.7086 -0.1424 -0.4196
  423SOL    HW1 2168   0.755   5.112   4.118  0.2341 -0.7847 -2.3258
  423SOL    HW2 2169   0.874   5.206   4.056  0.8209  0.0559 -0.0150
  424SOL     OW 2170   4.447   1.747   3.005  0.0731  0.2230  0.0984
  424SOL    HW1 2171   4.461   1.758   3.104  0.3895 -1.1335  0.2281
  424SOL    HW2 2172   4.362   1.696   2.989  0.0986  0.3141 -0.3320
  425SOL     OW 2173   6.585   2.288   0.825  0.4045 -0.0461  0.1823
  425SOL    HW1 2174   6.485   2.289   0.815  0.4064 -0.1714  0.1439
  425SOL    HW2 2175   6.609   2.307   0.921  0.3770  0.8311  0.0249
  426SOL     OW 2176   3.143   6.127   2.111 -0.0868 -0.5572 -0.5340
  426SOL    HW1 2177   3.060   6.117   2.055  0.4056 -0.1550 -1.3504
  426SOL    HW2 2178   3.174   6.037   2.141  0.1614 -0.8603 -1.6786
  427SOL     OW 2179   5.095   4.828   5.675  0.1076  0.1327  0.1059
  427SOL    HW1 2180   5.042   4.743   5.674 -0.6697  0.6087  0.2077
  427SOL    HW2 2181   5.119   4.853   5.581  1.2003 -0.7195  0.1442
  428SOL     OW 2182   2.766   5.028   0.096 -0.1358  0.1993  0.2741
  428SOL    HW1 2183   2.819   5.034   0.181  0.7218 -2.5365  0.0174
  428SOL    HW2 2184   2.821   5.062   0.020 -0.4407  1.4649  0.5889
  429SOL     OW 2185   2.659   5.664   4.934 -0.1980  0.2293 -0.2849
  429SOL    HW1 2186   2.685   5.603   4.860  1.6279  0.6233 -0.0206
  429SOL    HW2 2187   2.703   5.753   4.921 -0.2549  0.4661  0.9844
  430SOL     OW 2188   2.954   5.107   2.523 -0.2694  0.3559  0.0187
  430SOL    HW1 2189   2.929   5.010   2.532  0.0648  0.2885  0.2239
  430SOL    HW2 2190   2.872   5.161   2.504 -1.0177  0.4845  3.1532
  431SOL     OW 2191   0.625   3.895   6.262  0.1240  0.0089  0.4631
  431SOL    HW1 2192   0.560   3.877   6.189 -0.1543 -1.7318  1.0914
  431SOL    HW2 2193   0.616   3.825   6.333  1.4260  0.7845  1.4480
  432SOL     OW 2194   3.066   1.129   4.152 -0.0933  0.0879 -0.1994
  432SOL    HW1 2195   3.130   1.073   4.205 -0.3897 -0.5301 -0.4736
  432SOL    HW2 2196   3.015   1.189   4.214 -0.5820 -0.7663  0.2631
  433SOL     OW 2197   1.974   3.722   4.537 -0.1277 -0.2532  0.6007
  433SOL    HW1 2198   2.003   3.764   4.623 -1.4382 -0.9164  1.4036
  433SOL    HW2 2199   1.901   3.776   4.497 -0.9612 -1.0420  1.0023
  434SOL     OW 2200   2.571   2.428   5.979 -0.0653  0.0811 -1.4264
  434SOL    HW1 2201   2.547   2.369   5.901  0.0810  0.0511 -1.4493
  434SOL    HW2 2202   2.534   2.389   6.063 -0.1800  0.0862 -1.4741
  435SOL     OW 2203   3.142   0.294   5.261 -0.3873  0.4191 -0.1395
  435SOL    HW1 2204   3.217   0.345   5.304 -0.8451  0.3340  0.7872
  435SOL    HW2 2205   3.178   0.208   5.223 -0.0106  0.3773  0.2998
  436SOL     OW 2206   0.838   4.486   1.628 -0.1420  0.2960  0.0076
  436SOL    HW1 2207   0.930   4.483   1.665 -0.5925  1.2231  1.2657
  436SOL    HW2 2208   0.776   4.435   1.688 -0.3960 -0.6371 -1.0232
  437SOL     OW 2209   6.056   6.895   2.791 -0.0219  0.2259  0.0991
  437SOL    HW1 2210   6.143   6.875   2.746 -0.0420  1.5360 -0.5453
  437SOL    HW2 2211   5.986   6.832   2.758  0.4536 -0.2094 -0.0898
  438SOL     OW 2212   3.903   5.555   0.941 -0.1471 -0.3979  0.8108
  438SOL    HW1 2213   3.959   5.479   0.974 -1.9761 -2.0094  0.3380
  438SOL    HW2 2214   3.953   5.641   0.955  1.3130 -1.4947  2.8523
  439SOL     OW 2215   4.163   5.069   4.627 -0.2745  0.1752 -0.6420
  439SOL    HW1 2216   4.219   5.083   4.708  0.1033  0.4570 -0.9495
  439SOL    HW2 2217   4.220   5.073   4.545 -0.7697  0.6694 -0.9705
  440SOL     OW 2218   5.705   4.519   1.207  0.1439  1.0266  0.0148
  440SOL    HW1 2219   5.691   4.617   1.191 -3.4598  0.5916 -0.3382
  440SOL    HW2 2220   5.629   4.468   1.167  2.1720 -2.0141 -0.2499
  441SOL     OW 2221   4.403   2.520   6.935  1.1793 -0.3683  0.5085
  441SOL    HW1 2222   4.495   2.490   6.913  2.0432  1.3616  1.6085
  441SOL    HW2 2223   4.394   2.534   7.033 -0.4351 -0.9906  0.4970
  442SOL     OW 2224   0.116   5.561   5.719 -0.4576  0.1917 -0.2808
  442SOL    HW1 2225   0.101   5.544   5.621  1.8545  2.1012 -1.0505
  442SOL    HW2 2226   0.163   5.483   5.759 -0.3776 -0.1157 -0.9499
  443SOL     OW 2227   4.124   4.930   6.814 -0.0359 -0.1102 -0.7143
  443SOL    HW1 2228   4.079   4.848   6.779 -0.0312 -0.5183  0.1901
  443SOL    HW2 2229   4.214   4.940   6.771  0.3365 -1.0798 -0.2137
  444SOL     OW 2230   0.332   1.942   0.742  0.1353 -0.0360 -0.8197
  444SOL    HW1 2231   0.398   1.922   0.670  0.2021  0.2295 -0.8360
  444SOL    HW2 2232   0.284   2.027   0.720  1.1313  0.8006  0.1051
  445SOL     OW 2233   1.729   5.280   1.046 -0.3905 -0.3936 -0.1966
  445SOL    HW1 2234   1.741   5.326   0.959 -0.2403  0.1312  0.0951
  445SOL    HW2 2235   1.634   5.249   1.055 -0.3152 -0.7823 -0.6974
  446SOL     OW 2236   4.526   2.581   4.968  0.5728 -0.3390  0.3260
  446SOL    HW1 2237   4.434   2.573   5.005  0.2879  2.2947  0.3405
  446SOL    HW2 2238   4.593   2.558   5.039 -0.0405  0.1762  1.0861
  447SOL     OW 2239   4.147   6.816   3.187 -0.4622  0.3200 -0.6295
  447SOL    HW1 2240   4.084   6.870   3.131 -1.7352  0.8284  1.1794
  447SOL    HW2 2241   4.128   6.833   3.284  2.1828  0.1189  0.0094
  448SOL     OW 2242   0.453   4.341   3.190 -0.4725 -0.5068  0.6837
  448SOL    HW1 2243   0.475   4.397   3.270  0.2450  1.1747 -0.6231
  448SOL    HW2 2244   0.523   4.271   3.177  0.9497  0.9614  0.0190
  449SOL     OW 2245   1.442   4.441   5.110  0.1567 -0.0333 -0.4258
  449SOL    HW1 2246   1.409   4.524   5.155 -0.9798 -0.4375 -0.4751
  449SOL    HW2 2247   1.375   4.410   5.043 -0.4711 -2.1458  1.0460
  450SOL     OW 2248   1.569   5.077   2.666  0.3447 -0.1984 -0.3996
  450SOL    HW1 2249   1.485   5.129   2.650  1.0501  0.5864 -1.7375
  450SOL    HW2 2250   1.632   5.133   2.721  0.5695 -0.1657 -0.6851
  451SOL     OW 2251   6.301   2.015   0.100  0.4422  0.3161 -0.0361
  451SOL    HW1 2252   6.307   1.916   0.094  1.2106  0.3818 -0.5461
  451SOL    HW2 2253   6.206   2.042   0.120  0.2213 -0.5088  0.0579
  452SOL     OW 2254   3.101   6.487   2.993 -0.5356  0.3769 -0.5188
  452SOL    HW1 2255   3.130   6.500   3.087  1.5213  1.6388 -1.2567
  452SOL    HW2 2256   3.175   6.445   2.940 -1.0889  1.0321 -1.8767
  453SOL     OW 2257   6.209   3.705   2.915  0.0448  0.3151 -0.0636
  453SOL    HW1 2258   6.150   3.753   2.850  1.7248 -0.8101 -2.5994
  453SOL    HW2 2259   6.185   3.608   2.917 -0.4585  0.4445  1.6307
  454SOL     OW 2260   1.383   3.478   1.963  0.1242 -0.2304  0.4256
  454SOL    HW1 2261   1.463   3.535   1.942  1.6411 -1.5069  2.4385
  454SOL    HW2 2262   1.407   3.382   1.950 -1.3332 -0.6076  0.4008
  455SOL     OW 2263   2.059   5.672   6.318 -0.2365  0.0281 -0.0573
  455SOL    HW1 2264   2.091   5.580   6.299 -0.6580 -0.1790  0.2184
  455SOL    HW2 2265   2.005   5.705   6.240 -3.7117 -1.6036  1.4210
  456SOL     OW 2266   1.042   3.818   2.504  0.1227  0.0145 -0.4426
  456SOL    HW1 2267   0.996   3.783   2.585 -1.1615  2.2544 -0.1121
  456SOL    HW2 2268   1.080   3.908   2.523 -1.4520  1.2399 -2.6675
  457SOL     OW 2269   4.120   5.618   0.349 -0.4359 -0.2432 -0.3123
  457SOL    HW1 2270   4.068   5.682   0.407 -0.3266 -0.7283  0.3425
  457SOL    HW2 2271   4.072   5.530   0.346 -0.1061 -0.4209 -0.4322
  458SOL     OW 2272   5.147   2.336   4.193 -0.6883  0.7999  0.0449
  458SOL    HW1 2273   5.224   2.274   4.211 -2.5303 -2.6362 -2.6405
  458SOL    HW2 2274   5.073   2.316   4.257 -0.4242  2.0876  0.7800
  459SOL     OW 2275   3.984   5.747   2.401 -0.5073  0.2692 -0.0549
  459SOL    HW1 2276   4.042   5.807   2.346  1.4188 -1.2485  0.1963
  459SOL    HW2 2277   4.036   5.664   2.425 -2.5415 -0.7928  0.8949
  460SOL     OW 2278   5.928   6.937   6.885  0.8959 -0.0688 -0.0637
  460SOL    HW1 2279   5.908   6.923   6.982  0.2137 -0.8004 -0.2977
  460SOL    HW2 2280   6.027   6.945   6.873  1.2138 -2.3493  0.4389
  461SOL     OW 2281   2.217   4.054   2.048  0.2347  0.5354  0.0505
  461SOL    HW1 2282   2.285   4.120   2.079 -0.2814  1.6555 -1.1267
  461SOL    HW2 2283   2.126   4.094   2.053 -0.3660 -0.8741  1.4123
  462SOL     OW 2284   1.997   6.512   4.444 -0.3510  0.7329  0.0269
  462SOL    HW1 2285   1.991   6.455   4.361 -0.7084 -2.0324  1.8164
  462SOL    HW2 2286   2.071   6.479   4.502 -1.2520  1.4040  1.6268
  463SOL     OW 2287   5.315   4.544   3.327 -0.0432  0.4767 -0.0423
  463SOL    HW1 2288   5.232   4.555   3.382  0.4379  1.3277  0.5261
  463SOL    HW2 2289   5.393   4.525   3.386  1.0667  4.3151 -0.0048
  464SOL     OW 2290   6.619   4.305   6.489 -0.4838  0.5248  0.6409
  464SOL    HW1 2291   6.626   4.206   6.503 -1.4318  0.5282  1.2079
  464SOL    HW2 2292   6.581   4.322   6.398  0.5783  0.4030  0.1528
  465SOL     OW 2293   1.821   2.759   2.406 -0.2909 -0.8862  0.0571
  465SOL    HW1 2294   1.912   2.724   2.429 -0.1127 -2.5789 -2.7734
  465SOL    HW2 2295   1.752   2.694   2.439 -0.5754  0.3938  2.1979
  466SOL     OW 2296   4.315   2.157   2.909  0.2341  0.3369 -0.3518
  466SOL    HW1 2297   4.281   2.185   2.999  0.2680 -0.7987  0.0348
  466SOL    HW2 2298   4.415   2.166   2.908  0.4871 -1.7147  0.5364
  467SOL     OW 2299   3.656   1.733   4.916 -0.1590  0.5820 -0.3854
  467SOL    HW1 2300   3.732   1.792   4.944  0.2093  0.8052 -1.7666
  467SOL    HW2 2301   3.627   1.758   4.824 -0.1304 -1.2662 -0.9346
  468SOL     OW 2302   5.372   1.286   1.238  0.2098 -0.2617  0.8333
  468SOL    HW1 2303   5.281   1.245   1.249  0.0753 -0.3194 -0.3771
  468SOL    HW2 2304   5.385   1.358   1.306 -1.0324  0.2523  0.5436
  469SOL     OW 2305   6.150   2.969   6.431 -0.2892 -0.2692  0.3728
  469SOL    HW1 2306   6.238   2.992   6.388 -0.3738  0.4431  0.5699
  469SOL    HW2 2307   6.131   2.872   6.418  0.8124 -0.5613  0.8239
  470SOL     OW 2308   4.472   5.120   2.056 -0.3197 -0.0015  0.4318
  470SOL    HW1 2309   4.402   5.179   2.017  0.1605  0.2818 -0.0006
  470SOL    HW2 2310   4.562   5.160   2.041  0.3280 -2.2359 -2.5882
  471SOL     OW 2311   0.511   0.158   4.001 -0.4172 -0.1900 -0.4535
  471SOL    HW1 2312   0.419   0.190   3.980  0.2645  1.4830 -1.1402
  471SOL    HW2 2313   0.534   0.179   4.096 -0.1613  0.9914 -0.7573
  472SOL     OW 2314   4.215   1.066   3.816 -0.2012 -0.0533 -0.6261
  472SOL    HW1 2315   4.164   1.147   3.845  1.1298  1.3380 -1.9606
  472SOL    HW2 2316   4.198   1.049   3.719  0.7391 -0.4453 -0.7302
  473SOL     OW 2317   6.925   6.610   2.019 -0.0667  0.5425  0.3357
  473SOL    HW1 2318   6.864   6.670   1.967 -0.1526 -0.1860 -0.4334
  473SOL    HW2 2319   7.013   6.656   2.032 -0.2601  0.9906  0.1063
  474SOL     OW 2320   5.742   4.254   2.130 -0.0446  0.3045 -0.2545
  474SOL    HW1 2321   5.812   4.322   2.106  1.8459 -1.6653 -0.6918
  474SOL    HW2 2322   5.720   4.200   2.049  1.7275 -2.3399  0.9032
  475SOL     OW 2323   3.343   0.201   1.359  0.6628 -0.3757 -0.5826
  475SOL    HW1 2324   3.412   0.260   1.315 -0.3478 -1.1820 -3.5114
  475SOL    HW2 2325   3.389   0.132   1.414  2.1154  0.1662 -1.0612
  476SOL     OW 2326   4.952   5.977   6.502  0.5700 -0.2126  0.0067
  476SOL    HW1 2327   4.884   5.936   6.563  0.4190  0.5554  0.3677
  476SOL    HW2 2328   5.019   5.908   6.475 -0.1876 -0.9147 -0.1232
  477SOL     OW 2329   6.399   5.561   3.817  0.4981 -0.3031 -0.3437
  477SOL    HW1 2330   6.354   5.476   3.846  0.9967 -0.2641  0.5919
  477SOL    HW2 2331   6.477   5.579   3.877  0.5119  0.7188 -0.6595
  478SOL     OW 2332   0.134   0.041   4.013 -0.7531  0.0231  0.0793
  478SOL    HW1 2333   0.204   0.032   3.942  1.8279  0.2394  2.4770
  478SOL    HW2 2334   0.127  -0.044   4.065  0.1222  1.0104  1.9059
  479SOL     OW 2335   2.025   1.311   2.116 -0.1968  0.2086  0.3312
  479SOL    HW1 2336   2.107   1.291   2.062 -1.5449 -1.9520 -1.1058
  479SOL    HW2 2337   1.957   1.357   2.059 -1.0661 -0.7228  0.5637
  480SOL     OW 2338   1.580   4.870   5.503  0.2473 -0.5671 -0.3359
  480SOL    HW1 2339   1.494   4.840   5.545  0.5202  0.4389  1.0362
  480SOL    HW2 2340   1.568   4.963   5.467  0.9050 -0.1639  0.4437
  481SOL     OW 2341   4.661   6.684   4.394  0.2734 -0.0284 -0.6975
  481SOL    HW1 2342   4.618   6.643   4.474 -1.6211 -0.8519 -2.0454
  481SOL    HW2 2343   4.752   6.645   4.382  0.5607  0.0574  0.9816
  482SOL     OW 2344   4.646   2.274   2.159  0.1906  0.4129 -0.2891
  482SOL    HW1 2345   4.551   2.305   2.158 -0.1255 -0.5220 -1.9112
  482SOL    HW2 2346   4.656   2.196   2.099  2.3712  1.6119 -1.6078
  483SOL     OW 2347   6.883   6.512   4.639 -0.0345 -0.2105 -0.4076
  483SOL    HW1 2348   6.948   6.448   4.597  0.4161  0.0747 -0.1421
  483SOL    HW2 2349   6.856   6.478   4.729  0.2141 -0.0195 -0.2615
  484SOL     OW 2350   0.989   2.424   1.504  0.8339  0.4777 -0.1161
  484SOL    HW1 2351   1.043   2.396   1.425  0.2866 -0.0990 -0.2965
  484SOL    HW2 2352   1.023   2.378   1.586  0.3329 -0.2665 -0.3091
  485SOL     OW 2353   2.967   1.937   3.485 -0.0732 -0.1494 -0.1751
  485SOL    HW1 2354   2.973   1.882   3.402  0.3402 -1.3284  0.5947
  485SOL    HW2 2355   2.958   1.876   3.564 -0.8860  0.9528  0.6118
  486SOL     OW 2356   1.770   2.417   1.096 -0.1663 -0.3673  0.1909
  486SOL    HW1 2357   1.750   2.496   1.038  1.1908  1.4775  2.0874
  486SOL    HW2 2358   1.730   2.430   1.186 -0.0232 -1.9223  0.5028
  487SOL     OW 2359   6.119   3.638   5.296  0.5862 -0.5884 -0.1493
  487SOL    HW1 2360   6.023   3.664   5.310  0.7820 -0.8472  2.0501
  487SOL    HW2 2361   6.123   3.564   5.229 -0.5332  0.7260 -1.7645
  488SOL     OW 2362   1.090   2.704   0.939 -0.0886 -0.0448  0.0352
  488SOL    HW1 2363   1.085   2.624   0.880 -0.6837 -1.3145  1.7098
  488SOL    HW2 2364   1.155   2.770   0.902  0.1802 -1.1606 -1.5468
  489SOL     OW 2365   4.257   0.838   5.350 -0.1097 -0.2831 -0.1382
  489SOL    HW1 2366   4.170   0.790   5.352  0.8144 -2.0645  1.6737
  489SOL    HW2 2367   4.331   0.772   5.333  1.1176  0.6465  1.3126
  490SOL     OW 2368   0.210   3.665   4.089 -0.1899 -0.3778  0.1089
  490SOL    HW1 2369   0.189   3.578   4.133  2.9194 -1.3018 -0.0049
  490SOL    HW2 2370   0.156   3.738   4.132 -0.5742 -1.8821  2.3433
  491SOL     OW 2371   1.762   3.857   4.444  0.5366  0.3463 -0.3688
  491SOL    HW1 2372   1.715   3.911   4.514  1.4194  1.1027 -0.3488
  491SOL    HW2 2373   1.713   3.865   4.357 -0.8127 -0.9370  0.2160
  492SOL     OW 2374   5.299   4.501   5.716 -0.3727  0.0130  1.3228
  492SOL    HW1 2375   5.250   4.556   5.648  0.6092  0.9745  1.3641
  492SOL    HW2 2376   5.384   4.467   5.677 -0.6591 -0.9496  1.5121
  493SOL     OW 2377   2.749   3.651   6.661  0.3539 -0.0629 -0.0022
  493SOL    HW1 2378   2.827   3.603   6.622  0.0604 -0.1343 -0.5130
  493SOL    HW2 2379   2.778   3.741   6.693  0.5227  0.1732 -0.7824
  494SOL     OW 2380   4.253   6.677   1.224  0.0870 -0.6521 -0.6606
  494SOL    HW1 2381   4.156   6.656   1.216  0.0988 -0.4389 -1.5314
  494SOL    HW2 2382   4.307   6.599   1.194  0.2804 -1.8936  2.5526
  495SOL     OW 2383   4.854   1.823   0.496  0.1441  0.2275  0.5010
  495SOL    HW1 2384   4.914   1.793   0.571  0.1121  0.5732  0.6645
  495SOL    HW2 2385   4.874   1.769   0.414 -0.8815 -1.2642  1.1664
  496SOL     OW 2386   4.278   0.238   6.831 -0.0233  0.4638 -0.1011
  496SOL    HW1 2387   4.180   0.250   6.846 -0.3316 -0.1992 -1.4053
  496SOL    HW2 2388   4.329   0.301   6.889 -1.1811  0.1514  1.3181
  497SOL     OW 2389   6.206   2.940   3.131  0.1911  0.2810  0.0348
  497SOL    HW1 2390   6.150   3.001   3.074 -0.3684  0.1834  0.4703
  497SOL    HW2 2391   6.180   2.845   3.113  0.6302  0.2039 -0.1918
  498SOL     OW 2392   6.229   1.778   5.143  0.0458 -0.2620  0.8573
  498SOL    HW1 2393   6.150   1.805   5.198 -2.2082  0.7214 -2.5469
  498SOL    HW2 2394   6.210   1.692   5.097  0.3445  0.6254 -1.0105
  499SOL     OW 2395   3.026   3.142   3.286  0.2412 -0.2697  0.0286
  499SOL    HW1 2396   3.056   3.150   3.190 -0.4415 -1.6822 -0.3275
  499SOL    HW2 2397   2.928   3.160   3.291 -0.1699 -2.3062  0.0891
  500SOL     OW 2398   5.686   5.141   3.904  0.2673  0.3510 -0.2118
  500SOL    HW1 2399   5.725   5.233   3.897 -2.0647  1.3634 -1.0038
  500SOL    HW2 2400   5.604   5.135   3.846 -0.5843 -1.7311  1.0879
  501SOL     OW 2401   2.831   5.843   1.082 -0.4077  0.2209  0.2986
  501SOL    HW1 2402   2.858   5.919   1.140 -0.2837  0.6193 -0.2670
  501SOL    HW2 2403   2.750   5.799   1.119 -1.2168  1.3999 -0.0185
  502SOL     OW 2404   2.910   5.070   0.555  0.4202 -0.1068 -0.1216
  502SOL    HW1 2405   2.946   5.151   0.602  0.2052 -0.2346  0.2617
  502SOL    HW2 2406   2.964   5.054   0.472  0.9674 -0.0302  0.2106
  503SOL     OW 2407   5.207   1.522   3.074 -0.7133 -0.1836  0.2624
  503SOL    HW1 2408   5.289   1.494   3.024 -1.7094  0.0673 -1.5933
  503SOL    HW2 2409   5.232   1.590   3.143  0.6151  0.0122 -0.3776
  504SOL     OW 2410   5.773   5.269   6.102  0.1029 -0.4518  0.1630
  504SOL    HW1 2411   5.701   5.338   6.090 -0.7160 -1.2083  0.5932
  504SOL    HW2 2412   5.742   5.182   6.062 -0.0066 -1.2758  1.9640
  505SOL     OW 2413   3.329   3.655   4.404 -0.0869 -0.3132  0.4586
  505SOL    HW1 2414   3.276   3.702   4.474  0.2054 -0.1721  0.5904
  505SOL    HW2 2415   3.375   3.576   4.443  0.9305  0.3667  0.6969
  506SOL     OW 2416   5.360   1.072   0.497  0.1784 -0.3306 -0.0978
  506SOL    HW1 2417   5.456   1.096   0.511  0.3851 -0.1081 -1.7781
  506SOL    HW2 2418   5.342   1.056   0.400 -1.5273 -0.2259  0.1597
  507SOL     OW 2419   3.879   6.104   0.267  0.2172  0.1765  0.0658
  507SOL    HW1 2420   3.911   6.123   0.360  1.5730  0.2070 -0.3835
  507SOL    HW2 2421   3.937   6.153   0.202  0.7451 -1.6356 -0.8885
  508SOL     OW 2422   2.449   5.418   2.378  0.0196 -0.0512 -0.2933
  508SOL    HW1 2423   2.375   5.479   2.349 -0.7501 -0.9452 -0.2401
  508SOL    HW2 2424   2.415   5.325   2.385 -0.1648  0.1594  4.3948
  509SOL     OW 2425   4.700   4.222   3.810  0.2346  0.5431  0.2849
  509SOL    HW1 2426   4.790   4.182   3.828 -1.3069 -2.1195  3.1068
  509SOL    HW2 2427   4.675   4.282   3.886 -1.3855 -0.9356  0.9959
  510SOL     OW 2428   6.317   2.319   6.927  0.5771 -0.3870 -0.2257
  510SOL    HW1 2429   6.406   2.313   6.973  0.0567  0.6821  0.9604
  510SOL    HW2 2430   6.247   2.277   6.983  0.2548 -0.8933 -0.9912
  511SOL     OW 2431   1.451   2.413   6.610  0.2073 -0.3940  0.2260
  511SOL    HW1 2432   1.445   2.512   6.628 -0.8292 -0.3837 -0.1476
  511SOL    HW2 2433   1.537   2.378   6.649  0.7009  0.6921  0.1628
  512SOL     OW 2434   3.516   2.170   1.089 -0.5516  0.4242  0.2939
  512SOL    HW1 2435   3.493   2.109   1.014 -0.2062  0.6226  0.0222
  512SOL    HW2 2436   3.577   2.123   1.153  2.1091  1.3561 -1.4050
  513SOL     OW 2437   4.441   1.689   5.606  0.3101 -0.0618  0.1690
  513SOL    HW1 2438   4.449   1.592   5.583  0.8768  0.3799 -1.6160
  513SOL    HW2 2439   4.516   1.740   5.565 -0.8554  1.3653 -0.2751
  514SOL     OW 2440   5.094   6.633   5.205 -0.2817  0.6522 -0.4156
  514SOL    HW1 2441   5.059   6.598   5.118  2.0193  1.6670 -1.8319
  514SOL    HW2 2442   5.131   6.558   5.259 -0.7965  0.1517 -0.7500
  515SOL     OW 2443   3.206   6.472   2.512  0.3172 -0.0536  0.0567
  515SOL    HW1 2444   3.120   6.517   2.534 -0.5988 -2.0116  0.7166
  515SOL    HW2 2445   3.193   6.373   2.511  1.5925 -0.3496 -3.9036
  516SOL     OW 2446   1.696   1.424   0.588  0.2355  0.2707 -0.1821
  516SOL    HW1 2447   1.757   1.408   0.666  0.4982 -0.4903 -0.5384
  516SOL    HW2 2448   1.721   1.364   0.513 -0.6642  0.2792 -0.5021
  517SOL     OW 2449   4.150   1.950   1.491 -0.4866  0.0162 -1.0379
  517SOL    HW1 2450   4.094   2.025   1.457 -0.8361  0.0763 -0.3580
  517SOL    HW2 2451   4.177   1.892   1.415 -1.9404 -0.3325 -1.3314
  518SOL     OW 2452   0.237   3.626   2.551 -0.0107 -0.5917  0.4329
  518SOL    HW1 2453   0.252   3.725   2.549  0.3092 -0.6389 -1.4681
  518SOL    HW2 2454   0.198   3.597   2.464  1.3856 -2.3619  0.3496
  519SOL     OW 2455   4.608   1.338   5.914 -0.2454  0.0479  0.2999
  519SOL    HW1 2456   4.567   1.278   5.845 -0.7231 -1.0054  1.4706
  519SOL    HW2 2457   4.694   1.376   5.878  0.4781 -1.9403 -0.2130
  520SOL     OW 2458   1.601   3.653   0.544 -0.1574  0.0882  0.0374
  520SOL    HW1 2459   1.558   3.683   0.629 -1.1390 -0.6983 -0.1624
  520SOL    HW2 2460   1.532   3.651   0.471  0.7131  0.9931 -0.8490
  521SOL     OW 2461   4.058   0.543   6.381 -0.8615 -0.4150  0.4379
  521SOL    HW1 2462   4.157   0.533   6.398 -0.9086 -0.1803  0.8778
  521SOL    HW2 2463   4.025   0.626   6.426 -1.1933 -0.3007 -0.0128
  522SOL     OW 2464   5.811   2.354   3.699  0.0226 -0.1369 -0.0888
  522SOL    HW1 2465   5.797   2.255   3.712  0.0403  0.1972  3.6362
  522SOL    HW2 2466   5.903   2.370   3.664  2.0213 -1.4820  3.8727
  523SOL     OW 2467   2.207   3.941   1.020 -0.3989  0.5009  0.3241
  523SOL    HW1 2468   2.128   3.898   1.064 -0.3907 -0.8464 -0.8866
  523SOL    HW2 2469   2.179   3.980   0.933  0.0814  0.8906  0.3449
  524SOL     OW 2470   0.831   2.508   1.193 -0.5176 -0.4721  0.0446
  524SOL    HW1 2471   0.924   2.473   1.207 -0.9060 -0.8229  2.0490
  524SOL    HW2 2472   0.833   2.608   1.196 -0.1164 -0.4580 -0.5761
  525SOL     OW 2473   4.973   3.178   6.343 -0.4637  0.3962  0.2523
  525SOL    HW1 2474   4.885   3.156   6.384 -1.8155  0.6788 -2.2908
  525SOL    HW2 2475   5.005   3.267   6.376 -0.5598 -0.1624  1.9680
  526SOL     OW 2476   1.510   6.941   2.410 -0.2210  0.7874  0.3334
  526SOL    HW1 2477   1.570   7.020   2.426  1.9091 -0.4509 -1.0491
  526SOL    HW2 2478   1.429   6.971   2.359 -0.1154  2.2811  0.9877
  527SOL     OW 2479   1.555   6.825   3.251 -0.1472  0.0438 -0.2706
  527SOL    HW1 2480   1.648   6.800   3.281 -0.6174 -2.3222 -0.5397
  527SOL    HW2 2481   1.556   6.917   3.212  1.9652  0.2967  0.2298
  528SOL     OW 2482   1.404   6.964   0.320  0.0889 -0.2524 -0.6941
  528SOL    HW1 2483   1.388   6.887   0.382  2.0369  0.8293  1.3077
  528SOL    HW2 2484   1.468   6.937   0.249  0.6561 -0.5326 -0.0831
  529SOL     OW 2485   4.350   4.632   5.766 -0.5625  0.2101  0.5701
  529SOL    HW1 2486   4.269   4.627   5.709 -0.7855  0.6045  0.8445
  529SOL    HW2 2487   4.346   4.562   5.837 -1.3658  1.1450  1.4724
  530SOL     OW 2488   0.661   4.930   6.078  0.3207  0.2232 -0.3777
  530SOL    HW1 2489   0.701   4.892   5.995  1.8323  2.1480 -0.6048
  530SOL    HW2 2490   0.733   4.974   6.132 -0.7564 -0.3104  1.5865
  531SOL     OW 2491   0.425   1.469   5.920  0.5925 -0.0044 -0.9721
  531SOL    HW1 2492   0.514   1.444   5.956  0.3358 -0.9670 -0.9970
  531SOL    HW2 2493   0.364   1.496   5.995  0.9145  0.7360 -0.9632
  532SOL     OW 2494   2.633   1.376   0.159  0.1922  0.2815 -0.0900
  532SOL    HW1 2495   2.568   1.339   0.226  0.8401 -1.8759 -0.5542
  532SOL    HW2 2496   2.706   1.425   0.207 -0.5566  0.7501  0.5972
  533SOL     OW 2497   1.096   2.034   5.796 -0.0251 -0.1348  0.5471
  533SOL    HW1 2498   1.072   2.003   5.888 -0.2421 -0.2270  0.4595
  533SOL    HW2 2499   1.136   2.125   5.801  0.4622 -0.3584  0.7888
  534SOL     OW 2500   3.844   6.936   1.047  0.1266 -0.3171 -0.1683
  534SOL    HW1 2501   3.863   7.022   1.094  0.5212 -1.2132  1.4040
  534SOL    HW2 2502   3.891   6.935   0.959 -0.8044  1.5065 -0.7544
  535SOL     OW 2503   2.140   4.544   3.034 -0.3538  0.9155 -0.0569
  535SOL    HW1 2504   2.121   4.572   3.129  0.7322  0.1811  0.3881
  535SOL    HW2 2505   2.091   4.605   2.972 -0.3710  1.9792  0.9549
  536SOL     OW 2506   4.196   1.972   2.212  0.5725 -0.5190  0.1830
  536SOL    HW1 2507   4.130   2.046   2.198  1.3560  0.0626 -0.4482
  536SOL    HW2 2508   4.250   1.991   2.295  0.4904 -0.5998  0.2558
  537SOL     OW 2509   3.577   1.565   1.376 -0.1538  0.2347  0.4670
  537SOL    HW1 2510   3.664   1.580   1.423  0.1410  0.2087 -0.0590
  537SOL    HW2 2511   3.507   1.624   1.416 -0.2862 -0.8836  1.9562
  538SOL     OW 2512   6.351   1.924   4.660 -0.0640 -0.1360  0.2161
  538SOL    HW1 2513   6.301   1.992   4.606  0.0911 -0.7765 -0.7800
  538SOL    HW2 2514   6.289   1.881   4.726  0.0525  1.5808  1.4976
  539SOL     OW 2515   6.605   0.406   3.120 -0.0063  0.4338 -0.1374
  539SOL    HW1 2516   6.561   0.450   3.042  1.8110  0.4229 -1.2193
  539SOL    HW2 2517   6.700   0.436   3.126 -0.5358  2.0067  3.2863
  540SOL     OW 2518   6.375   6.974   0.531  0.0697 -0.4084  0.0455
  540SOL    HW1 2519   6.444   6.947   0.464  0.4053 -1.8468  0.9319
  540SOL    HW2 2520   6.419   7.022   0.607 -0.3648  1.6211 -0.9070
  541SOL     OW 2521   2.748   5.838   0.618  0.3576 -0.2535  0.3571
  541SOL    HW1 2522   2.692   5.811   0.697  0.6589  2.1915  1.5076
  541SOL    HW2 2523   2.827   5.777   0.612  1.0822  0.2855  2.8750
  542SOL     OW 2524   0.973   2.350   4.366  0.2306 -0.1689  0.3624
  542SOL    HW1 2525   1.063   2.386   4.341 -0.4139  2.3292  1.4226
  542SOL    HW2 2526   0.932   2.406   4.437 -1.6146 -2.0813  0.9199
  543SOL     OW 2527   0.595   0.009   2.221  0.9584  0.0729 -0.3279
  543SOL    HW1 2528   0.589  -0.058   2.147 -0.7634  0.7418 -0.8418
  543SOL    HW2 2529   0.548   0.093   2.193  1.5892  0.8853  0.9659
  544SOL     OW 2530   4.692   1.420   3.113  0.1872 -0.4588  0.0992
  544SOL    HW1 2531   4.760   1.483   3.076  0.0098  0.6070  1.4707
  544SOL    HW2 2532   4.641   1.378   3.038 -0.6652  2.1446 -0.9035
  545SOL     OW 2533   6.656   4.819   5.715 -0.4068  0.1778  0.3741
  545SOL    HW1 2534   6.596   4.761   5.660  0.2484  1.1951 -1.4785
  545SOL    HW2 2535   6.720   4.762   5.766 -1.4176 -0.8091  0.5888
  546SOL     OW 2536   4.795   5.389   3.271  0.2557  0.0184  0.3990
  546SOL    HW1 2537   4.816   5.405   3.368  0.5835 -2.0247  0.7240
  546SOL    HW2 2538   4.701   5.357   3.263  0.3371 -0.1408  0.0918
  547SOL     OW 2539   2.680   3.049   6.147  0.0025  0.1553  0.1181
  547SOL    HW1 2540   2.769   3.079   6.115 -0.2928  1.4076  0.4358
  547SOL    HW2 2541   2.683   3.038   6.247  0.1695 -1.1457 -0.0071
  548SOL     OW 2542   5.298   3.652   5.168 -0.3112 -0.7132 -0.6947
  548SOL    HW1 2543   5.329   3.633   5.261  0.2898  1.4507 -0.3891
  548SOL    HW2 2544   5.199   3.644   5.163 -0.3123 -1.2160  0.0194
  549SOL     OW 2545   2.677   4.710   4.601 -0.1098 -0.4948 -0.1009
  549SOL    HW1 2546   2.767   4.722   4.643  0.2001 -1.1549 -0.5494
  549SOL    HW2 2547   2.608   4.696   4.672  0.1350  0.0236  0.2471
  550SOL     OW 2548   3.046   2.208   1.170 -0.1700  0.0483 -0.5356
  550SOL    HW1 2549   3.069   2.287   1.227 -1.2286  1.3663 -1.8712
  550SOL    HW2 2550   3.080   2.223   1.077  0.0800 -1.3275 -0.6892
  551SOL     OW 2551   1.480   1.873   4.827  0.1593 -0.1724  0.4125
  551SOL    HW1 2552   1.410   1.942   4.812  1.2976  0.6125 -1.6222
  551SOL    HW2 2553   1.469   1.798   4.762  1.8848  0.5706 -0.8165
  552SOL     OW 2554   3.869   0.033   2.073 -0.1544  0.4058 -0.5168
  552SOL    HW1 2555   3.933   0.059   2.145 -0.4850  1.1496 -0.4782
  552SOL    HW2 2556   3.830  -0.057   2.094  1.6835 -0.5820 -1.1056
  553SOL     OW 2557   1.303   2.332   1.919  0.1789 -0.2072  0.0217
  553SOL    HW1 2558   1.316   2.431   1.932 -0.1235 -0.1247 -0.2876
  553SOL    HW2 2559   1.301   2.287   2.008 -1.0602  0.2502  0.2403
  554SOL     OW 2560   1.730   1.706   0.169  0.1406 -0.3833  0.2655
  554SOL    HW1 2561   1.687   1.617   0.186  1.2893 -0.6143  2.0872
  554SOL    HW2 2562   1.798   1.725   0.239  2.1874  0.5362 -1.8347
  555SOL     OW 2563   5.268   0.583   1.684 -0.1466  0.4028  0.1006
  555SOL    HW1 2564   5.334   0.518   1.721 -0.4233  0.0768  0.0311
  555SOL    HW2 2565   5.178   0.565   1.724 -0.0797  1.2182  0.6355
  556SOL     OW 2566   1.946   6.433   4.132 -0.0088  0.0578 -0.3417
  556SOL    HW1 2567   1.869   6.369   4.136 -0.0083  0.0985  2.3621
  556SOL    HW2 2568   1.911   6.527   4.123 -0.3314  0.0683  0.7961
  557SOL     OW 2569   0.307   4.795   0.308  0.0271  0.4569 -0.2657
  557SOL    HW1 2570   0.248   4.867   0.346  1.1921  3.2933 -3.3220
  557SOL    HW2 2571   0.398   4.801   0.348 -0.0565  0.2320 -0.0405
  558SOL     OW 2572   0.590   4.258   5.834  0.6864  0.4836  0.5799
  558SOL    HW1 2573   0.628   4.213   5.915  3.3032  1.1641 -0.1808
  558SOL    HW2 2574   0.664   4.297   5.779 -1.0714  0.9319 -1.6443
  559SOL     OW 2575   1.465   3.657   0.788 -0.4275 -0.3331 -0.2188
  559SOL    HW1 2576   1.464   3.657   0.888 -0.2828 -1.4819 -0.2088
  559SOL    HW2 2577   1.410   3.581   0.754 -0.3088 -0.0709 -1.0193
  560SOL     OW 2578   4.832   6.172   6.024 -0.0350  0.1942 -0.0786
  560SOL    HW1 2579   4.905   6.239   6.033  0.9495 -0.5293 -2.0712
  560SOL    HW2 2580   4.860   6.086   6.068  0.2468 -0.0151 -0.6548
  561SOL     OW 2581   4.324   6.586   1.653  0.5687 -0.2158 -0.0630
  561SOL    HW1 2582   4.316   6.664   1.591 -0.3139  0.1588  0.5104
  561SOL    HW2 2583   4.266   6.600   1.733 -1.0690 -2.2739 -0.7854
  562SOL     OW 2584   6.157   4.467   4.482 -0.4733  0.1104 -0.2324
  562SOL    HW1 2585   6.106   4.535   4.430  0.1240 -0.0708 -1.0674
  562SOL    HW2 2586   6.114   4.378   4.472 -0.2204  0.0295 -0.6263
  563SOL     OW 2587   0.569   0.666   5.652  0.5080 -0.1829  0.0398
  563SOL    HW1 2588   0.610   0.757   5.656  3.4845 -1.4463  0.8618
  563SOL    HW2 2589   0.634   0.598   5.686 -2.4598 -2.3955  1.7950
  564SOL     OW 2590   3.449   3.437   4.493  0.3505  0.3378  0.2732
  564SOL    HW1 2591   3.454   3.432   4.593  2.3525  0.6702  0.2271
  564SOL    HW2 2592   3.507   3.365   4.453  0.3630  0.8369 -0.6348
  565SOL     OW 2593   3.646   2.723   6.622 -0.2491  0.4008  0.3545
  565SOL    HW1 2594   3.626   2.801   6.680 -1.8661  0.6009 -0.4212
  565SOL    HW2 2595   3.581   2.720   6.546  0.5610 -0.9921 -0.3312
  566SOL     OW 2596   5.448   2.134   6.701 -0.0661  0.0093 -0.2920
  566SOL    HW1 2597   5.392   2.211   6.731 -0.5803 -0.2639 -0.5389
  566SOL    HW2 2598   5.452   2.131   6.601  2.0041  1.1725 -0.2979
  567SOL     OW 2599   1.724   3.054   5.834 -0.3431  0.3085  0.0401
  567SOL    HW1 2600   1.721   2.988   5.758  2.8002 -0.4087  0.4038
  567SOL    HW2 2601   1.763   3.140   5.802 -1.0353  0.7705  0.4035
  568SOL     OW 2602   5.890   4.239   2.572 -0.4868  0.5766 -0.3456
  568SOL    HW1 2603   5.948   4.320   2.574  1.1785 -0.5603 -0.3196
  568SOL    HW2 2604   5.944   4.159   2.600 -1.4800 -0.8847 -2.3492
  569SOL     OW 2605   5.986   6.461   1.307  0.3859 -0.1911 -0.1798
  569SOL    HW1 2606   5.958   6.391   1.373 -0.4996  0.5049  0.2108
  569SOL    HW2 2607   6.018   6.542   1.355  0.2768  0.1104 -0.6069
  570SOL     OW 2608   1.106   5.838   2.918 -0.1300 -0.1208 -0.1125
  570SOL    HW1 2609   1.011   5.815   2.938 -0.4463  2.1507  1.3618
  570SOL    HW2 2610   1.110   5.927   2.874  1.2534 -0.9831 -1.8515
  571SOL     OW 2611   1.000   5.057   1.324  0.0040  0.2878  0.2966
  571SOL    HW1 2612   0.966   5.044   1.231  1.0829 -0.5157 -0.0090
  571SOL    HW2 2613   0.943   5.006   1.388 -0.0990 -0.0449 -0.0548
  572SOL     OW 2614   0.210   2.883   2.476 -0.3459  0.6109 -0.4207
  572SOL    HW1 2615   0.224   2.898   2.378  1.2018 -0.3415 -0.3698
  572SOL    HW2 2616   0.139   2.813   2.489 -0.7205  0.9017 -0.8341
  573SOL     OW 2617   2.976   2.626   5.750 -0.1534  0.1696 -0.0570
  573SOL    HW1 2618   2.906   2.557   5.729 -1.0216  1.2695 -0.9571
  573SOL    HW2 2619   3.063   2.600   5.707  0.3089 -1.7010  1.8719
  574SOL     OW 2620   2.972   0.576   2.473 -0.9740 -0.3650 -0.0466
  574SOL    HW1 2621   3.047   0.640   2.493  0.1931 -2.2557  2.1668
  574SOL    HW2 2622   2.985   0.538   2.381  0.6154 -0.3318  0.1221
  575SOL     OW 2623   5.917   4.055   0.990  0.2521 -0.1602  0.0333
  575SOL    HW1 2624   5.918   4.079   1.087  2.2159 -2.3620  0.6559
  575SOL    HW2 2625   6.007   4.022   0.963 -0.8602 -1.8104 -1.9638
  576SOL     OW 2626   2.568   6.016   5.130 -0.0053  0.1436  0.5690
  576SOL    HW1 2627   2.516   5.968   5.201 -1.3664 -0.8201 -0.9974
  576SOL    HW2 2628   2.581   6.111   5.157 -2.1613  0.2886  1.2703
  577SOL     OW 2629   0.240   0.545   5.124 -0.4138 -0.7097 -0.2147
  577SOL    HW1 2630   0.335   0.519   5.104 -1.1507 -1.8493 -2.6923
  577SOL    HW2 2631   0.202   0.482   5.191  1.1091  1.0284  2.4733
  578SOL     OW 2632   1.777   6.642   2.940  0.0360  0.3804  0.0598
  578SOL    HW1 2633   1.800   6.729   2.896  4.8605 -1.6274 -2.0540
  578SOL    HW2 2634   1.815   6.640   3.033 -0.0332  0.5022  0.0910
  579SOL     OW 2635   5.072   0.027   6.231 -0.2912  0.1393 -0.8548
  579SOL    HW1 2636   5.081   0.016   6.132  0.9666  0.4258 -0.7998
  579SOL    HW2 2637   5.044  -0.060   6.273 -1.8376  0.2881 -1.5545
  580SOL     OW 2638   6.615   1.722   1.764 -0.0265  0.8946 -0.5013
  580SOL    HW1 2639   6.619   1.622   1.754 -0.4567  0.6269  1.5169
  580SOL    HW2 2640   6.707   1.760   1.758  0.4408  0.0796  1.0064
  581SOL     OW 2641   5.665   4.107   1.911 -0.5012  1.0304  0.1395
  581SOL    HW1 2642   5.612   4.176   1.861  0.0034  1.2895 -0.0460
  581SOL    HW2 2643   5.627   4.016   1.894  1.6656  0.6278 -3.5247
  582SOL     OW 2644   3.459   1.498   0.846 -0.0347  0.0911  0.0081
  582SOL    HW1 2645   3.523   1.422   0.858 -0.3863 -0.2477 -0.2579
  582SOL    HW2 2646   3.394   1.477   0.773  0.3340  0.9672 -0.5985
  583SOL     OW 2647   6.384   2.429   1.114  0.0149  0.2158 -0.1372
  583SOL    HW1 2648   6.398   2.526   1.097  2.7463 -0.2161 -0.9014
  583SOL    HW2 2649   6.473   2.385   1.130 -1.1614 -2.1234  0.4480
  584SOL     OW 2650   4.399   6.368   4.320 -0.4198 -0.0329 -0.6166
  584SOL    HW1 2651   4.465   6.401   4.252 -1.1924  0.7678 -0.9978
  584SOL    HW2 2652   4.446   6.310   4.386  0.9278  1.4949 -0.1648
  585SOL     OW 2653   3.448   1.860   3.962 -0.0482 -0.1918  0.4108
  585SOL    HW1 2654   3.382   1.911   3.907  2.6103  1.7584 -1.2677
  585SOL    HW2 2655   3.455   1.766   3.928  0.5916  0.6171 -1.8788
  586SOL     OW 2656   3.647   0.486   5.123 -0.3340  0.3059 -0.5845
  586SOL    HW1 2657   3.603   0.563   5.078  0.5556  0.3480 -1.4013
  586SOL    HW2 2658   3.705   0.437   5.058  1.2006  0.5228  0.5439
  587SOL     OW 2659   5.740   0.936   3.492 -0.2205  0.0054 -0.1076
  587SOL    HW1 2660   5.665   0.920   3.557  0.1504  1.5426  0.7274
  587SOL    HW2 2661   5.768   0.848   3.453 -3.1729 -0.5374 -1.2970
  588SOL     OW 2662   2.053   4.011   2.317  0.3282 -0.0523  0.5958
  588SOL    HW1 2663   2.092   3.920   2.301  0.6542 -0.0119  1.1398
  588SOL    HW2 2664   2.097   4.077   2.256 -1.9532 -0.7148 -1.9678
  589SOL     OW 2665   5.456   4.909   4.423 -0.1816 -0.0736 -0.6037
  589SOL    HW1 2666   5.440   4.930   4.327 -0.7428  0.4659 -0.4005
  589SOL    HW2 2667   5.489   4.815   4.432  2.5085  0.6974 -1.5438
  590SOL     OW 2668   2.230   2.401   1.370  0.1526  0.1576 -0.3039
  590SOL    HW1 2669   2.324   2.420   1.397  0.6778 -0.2850 -1.7709
  590SOL    HW2 2670   2.227   2.369   1.276 -1.4663  0.0773 -0.2629
  591SOL     OW 2671   1.899   5.523   2.009 -0.3596 -0.3512 -0.0745
  591SOL    HW1 2672   1.902   5.555   1.914 -0.8976 -0.1985 -0.0428
  591SOL    HW2 2673   1.929   5.596   2.070 -0.9854 -0.1126 -0.0504
  592SOL     OW 2674   6.771   2.055   1.811 -0.1504 -0.1001  0.2997
  592SOL    HW1 2675   6.780   2.130   1.746  1.3522 -0.2709  0.2855
  592SOL    HW2 2676   6.811   1.972   1.772 -0.3244 -0.5083  0.9629
  593SOL     OW 2677   5.209   2.108   3.038  0.7027 -0.0186 -0.1621
  593SOL    HW1 2678   5.160   2.099   2.951  0.1805 -1.9124  0.2825
  593SOL    HW2 2679   5.307   2.094   3.023  0.4770 -1.7656 -0.3070
  594SOL     OW 2680   0.949   0.727   0.225 -0.5737 -0.2743  0.1985
  594SOL    HW1 2681   0.880   0.714   0.296 -0.6651 -1.6212 -0.1097
  594SOL    HW2 2682   0.910   0.706   0.136 -0.3354  0.9967 -0.2251
  595SOL     OW 2683   1.401   3.841   4.484  0.0079 -0.2901  0.0790
  595SOL    HW1 2684   1.352   3.754   4.474 -2.2139  0.9593 -0.5583
  595SOL    HW2 2685   1.395   3.872   4.579  1.2170 -1.0197  0.4168
  596SOL     OW 2686   2.499   3.055   5.864  0.0512  0.5220 -0.4567
  596SOL    HW1 2687   2.539   3.057   5.955  0.1832  3.0627 -0.5083
  596SOL    HW2 2688   2.407   3.095   5.867 -0.9725 -1.6319 -1.0454
  597SOL     OW 2689   1.923   0.167   3.367  0.2730 -0.0110  0.8763
  597SOL    HW1 2690   1.867   0.195   3.445 -1.5040  0.4470 -0.4933
  597SOL    HW2 2691   1.910   0.233   3.292 -0.7863 -2.2209 -0.9901
  598SOL     OW 2692   3.613   2.595   5.407  0.1093 -0.0906 -0.9022
  598SOL    HW1 2693   3.608   2.620   5.503 -1.5448 -1.0650 -0.6937
  598SOL    HW2 2694   3.689   2.530   5.393  1.2052  1.0670 -0.5459
  599SOL     OW 2695   2.790   0.914   4.542 -0.3879  0.5538 -0.1549
  599SOL    HW1 2696   2.878   0.952   4.513 -0.4782  0.9798  0.1310
  599SOL    HW2 2697   2.717   0.954   4.487 -0.5810  1.5058  0.7681
  600SOL     OW 2698   0.977   2.367   6.231  0.0221 -0.1752  0.3376
  600SOL    HW1 2699   0.892   2.380   6.180 -0.9643  0.8568  2.1538
  600SOL    HW2 2700   0.957   2.353   6.327  1.9311  0.6973  0.9215
  601SOL     OW 2701   2.149   5.359   5.525  0.3423 -0.7568 -0.2220
  601SOL    HW1 2702   2.151   5.269   5.566  0.4930 -0.9699 -0.6859
  601SOL    HW2 2703   2.057   5.379   5.491  0.3208 -0.7581 -0.1632
  602SOL     OW 2704   5.529   5.615   5.207 -0.0082  0.4548  0.4024
  602SOL    HW1 2705   5.458   5.669   5.251  0.3248  0.6218  0.7432
  602SOL    HW2 2706   5.592   5.677   5.158 -1.0893  0.1907 -1.3888
  603SOL     OW 2707   1.491   4.879   4.150  1.0601  0.0580  0.3299
  603SOL    HW1 2708   1.441   4.805   4.106  0.3316  1.1183 -0.6623
  603SOL    HW2 2709   1.586   4.851   4.165  1.1965 -0.5099 -1.4587
  604SOL     OW 2710   5.582   2.876   0.056  0.0362  0.0712  0.1213
  604SOL    HW1 2711   5.624   2.862  -0.034  0.1998  0.4003  0.1441
  604SOL    HW2 2712   5.646   2.849   0.128  0.8490  2.0290  0.2080
  605SOL     OW 2713   4.955   4.814   1.505  0.6778 -0.0743  0.5240
  605SOL    HW1 2714   5.026   4.840   1.439 -0.4261 -1.4296 -1.2833
  605SOL    HW2 2715   4.905   4.735   1.470 -1.6256  0.7416  1.8282
  606SOL     OW 2716   2.024   6.773   1.140 -0.1809  0.1897 -0.0650
  606SOL    HW1 2717   2.062   6.705   1.202  0.3005 -0.1132 -0.6858
  606SOL    HW2 2718   1.936   6.805   1.176 -0.9315 -1.5279 -0.2725
  607SOL     OW 2719   3.642   0.656   6.488 -0.3986  0.0370  0.2782
  607SOL    HW1 2720   3.627   0.752   6.464  0.2456  0.0287 -0.1968
  607SOL    HW2 2721   3.740   0.640   6.498 -0.2455 -1.1840 -2.3801
  608SOL     OW 2722   5.867   3.711   0.864 -0.5219  0.4154 -0.0074
  608SOL    HW1 2723   5.881   3.653   0.944 -0.7693 -2.1633 -1.7106
  608SOL    HW2 2724   5.950   3.764   0.847 -0.6579  1.4643  2.2027
  609SOL     OW 2725   4.950   5.189   2.192  0.0089 -0.5120  0.0573
  609SOL    HW1 2726   4.891   5.123   2.239  2.4190 -2.3032  0.8018
  609SOL    HW2 2727   4.994   5.249   2.259  0.0986 -0.1342 -0.3362
  610SOL     OW 2728   2.300   0.398   2.138 -0.0380 -0.4473  0.1909
  610SOL    HW1 2729   2.398   0.399   2.123  0.0539 -1.0093  0.6895
  610SOL    HW2 2730   2.259   0.481   2.101  0.8882  0.7645  1.7619
  611SOL     OW 2731   3.323   6.482   5.420 -0.0565 -0.0348 -0.3930
  611SOL    HW1 2732   3.420   6.472   5.399 -0.0195  1.1756 -0.8962
  611SOL    HW2 2733   3.293   6.405   5.476  1.3611 -0.0438  0.3985
  612SOL     OW 2734   3.087   4.854   2.729 -0.2923  0.7008  0.5795
  612SOL    HW1 2735   2.996   4.814   2.715  1.5916 -3.5611 -1.2778
  612SOL    HW2 2736   3.131   4.869   2.640  1.3782  1.1984  1.4458
  613SOL     OW 2737   4.966   3.163   3.024  0.3625  0.1341  0.6346
  613SOL    HW1 2738   5.036   3.153   3.094 -1.1403  1.2435  2.3856
  613SOL    HW2 2739   4.915   3.078   3.015  1.8178 -0.6607 -0.6087
  614SOL     OW 2740   0.022   3.010   4.896 -0.8159  0.7842 -0.7320
  614SOL    HW1 2741   0.028   2.916   4.929  2.2086  1.1212 -0.0061
  614SOL    HW2 2742  -0.074   3.035   4.883 -1.9519 -1.0310  2.9249
  615SOL     OW 2743   1.397   6.500   3.480 -0.4778 -0.5228  0.3526
  615SOL    HW1 2744   1.391   6.539   3.388 -1.9824 -1.2798  0.1065
  615SOL    HW2 2745   1.419   6.572   3.545  2.0726 -0.1931 -0.7358
  616SOL     OW 2746   1.671   4.521   5.348  0.2899 -0.5237 -0.0140
  616SOL    HW1 2747   1.612   4.513   5.428  1.1312 -2.1642  0.4802
  616SOL    HW2 2748   1.615   4.531   5.266 -0.5905  0.6568  0.6984
  617SOL     OW 2749   4.659   6.977   0.542  0.4415 -0.1546  0.4936
  617SOL    HW1 2750   4.690   6.883   0.527  2.3349  0.1755  1.9032
  617SOL    HW2 2751   4.736   7.039   0.528 -0.4881  1.0772  0.7410
  618SOL     OW 2752   6.898   6.884   4.256  0.1723  0.5816  0.1555
  618SOL    HW1 2753   6.868   6.834   4.337 -0.6629 -1.1487 -1.1427
  618SOL    HW2 2754   6.823   6.939   4.220 -0.6721 -1.4741 -1.4313
  619SOL     OW 2755   2.565   2.874   0.096 -0.6137 -0.5533 -0.1194
  619SOL    HW1 2756   2.544   2.943   0.026  0.4295 -0.0256  0.0677
  619SOL    HW2 2757   2.653   2.831   0.074 -0.2289 -0.3094  0.9297
  620SOL     OW 2758   2.624   6.268   6.244 -0.1795 -0.4338  0.1265
  620SOL    HW1 2759   2.692   6.308   6.305 -0.7213  1.2669 -0.3182
  620SOL    HW2 2760   2.533   6.299   6.271 -0.5639 -0.8567 -0.6517
  621SOL     OW 2761   4.885   0.445   2.435  0.1545 -0.0857  0.0561
  621SOL    HW1 2762   4.885   0.346   2.420  0.0240 -0.4101  1.9211
  621SOL    HW2 2763   4.895   0.464   2.532 -0.3293  1.7397 -0.2056
  622SOL     OW 2764   4.941   4.576   5.613  0.3866 -0.0381 -0.3557
  622SOL    HW1 2765   4.966   4.481   5.598  2.3329  0.5663 -1.2828
  622SOL    HW2 2766   4.842   4.585   5.616  0.1367 -1.8446 -1.8903
  623SOL     OW 2767   6.883   3.378   5.819 -0.5311  0.2184  0.0273
  623SOL    HW1 2768   6.963   3.379   5.878 -2.3569  0.7748  2.6459
  623SOL    HW2 2769   6.879   3.463   5.766  1.0083 -0.1868 -0.7878
  624SOL     OW 2770   4.293   3.870   1.455  0.4467  0.0755 -0.1831
  624SOL    HW1 2771   4.230   3.948   1.461  0.6314  0.2444 -0.4168
  624SOL    HW2 2772   4.387   3.903   1.451  0.6517 -0.2184  1.4685
  625SOL     OW 2773   4.689   2.202   6.672  0.0497 -0.2392  0.0342
  625SOL    HW1 2774   4.784   2.185   6.699  0.7648  2.2525 -0.5792
  625SOL    HW2 2775   4.646   2.117   6.644  0.8045 -2.1485  4.0726
  626SOL     OW 2776   4.047   6.445   1.644  0.0872 -0.3319 -0.2313
  626SOL    HW1 2777   4.005   6.384   1.711  0.7424  1.2091  1.6581
  626SOL    HW2 2778   4.089   6.523   1.690 -1.9990  2.4228 -2.6077
  627SOL     OW 2779   3.859   0.737   5.792  0.5888 -0.4829  0.0226
  627SOL    HW1 2780   3.853   0.814   5.729 -0.2518 -0.4655  0.1220
  627SOL    HW2 2781   3.927   0.757   5.863 -0.7696  0.8631  1.0091
  628SOL     OW 2782   0.348   0.855   0.284  0.1557 -0.2624 -0.4208
  628SOL    HW1 2783   0.273   0.802   0.243  1.0821  0.1241 -2.8070
  628SOL    HW2 2784   0.328   0.953   0.274  0.3311 -0.1594  0.2355
  629SOL     OW 2785   5.816   4.802   0.388  0.3572  0.7775  0.1970
  629SOL    HW1 2786   5.752   4.875   0.362  0.2272  1.2550  1.7630
  629SOL    HW2 2787   5.910   4.835   0.379  0.3127  0.9587  0.4042
  630SOL     OW 2788   6.448   1.881   2.154 -0.5246  0.5413  0.0575
  630SOL    HW1 2789   6.351   1.891   2.178 -0.8586 -0.6141 -0.7284
  630SOL    HW2 2790   6.479   1.963   2.105 -1.1698  0.8193  0.1050
  631SOL     OW 2791   5.290   3.195   3.926  0.5079  0.0232 -0.2265
  631SOL    HW1 2792   5.207   3.199   3.982  1.2842 -0.9428  1.0184
  631SOL    HW2 2793   5.288   3.270   3.860 -1.5468 -0.2080 -0.5050
  632SOL     OW 2794   2.563   5.640   6.244 -0.1336  0.1256  0.1455
  632SOL    HW1 2795   2.599   5.666   6.334 -0.8245  1.2981  0.1065
  632SOL    HW2 2796   2.584   5.712   6.178 -3.6020  1.5712  0.4076
  633SOL     OW 2797   0.787   3.938   0.403 -0.2748 -0.1853 -0.4606
  633SOL    HW1 2798   0.820   3.975   0.491 -1.0368  0.4348 -0.4297
  633SOL    HW2 2799   0.752   4.012   0.347 -0.0570 -0.6219 -1.1856
  634SOL     OW 2800   3.160   0.319   5.922 -0.1327 -0.3235  0.3019
  634SOL    HW1 2801   3.223   0.393   5.898 -0.3906 -0.2954 -0.3055
  634SOL    HW2 2802   3.092   0.353   5.986  0.1340 -0.2081  0.5283
  635SOL     OW 2803   1.120   3.380   4.293  0.0595 -0.3070  0.6937
  635SOL    HW1 2804   1.132   3.327   4.209 -0.7330 -1.3789  1.2323
  635SOL    HW2 2805   1.033   3.357   4.335  0.4434  0.2100  1.8192
  636SOL     OW 2806   6.196   0.928   3.933  0.8601 -0.2653  0.7927
  636SOL    HW1 2807   6.144   0.925   4.018  0.1389 -0.2164  0.3598
  636SOL    HW2 2808   6.213   0.835   3.901 -0.4331 -0.2786  0.0640
  637SOL     OW 2809   5.746   0.437   4.742 -0.4364 -0.5757 -0.7377
  637SOL    HW1 2810   5.727   0.338   4.741 -1.3026 -0.4143 -0.7642
  637SOL    HW2 2811   5.770   0.465   4.835  2.8294 -1.3362 -1.2082
  638SOL     OW 2812   5.617   1.547   5.057 -0.2395  0.0209 -0.2435
  638SOL    HW1 2813   5.630   1.463   5.003  2.4066  0.3898 -0.3329
  638SOL    HW2 2814   5.627   1.626   4.997  1.3129  0.4167  0.4963
  639SOL     OW 2815   1.735   3.079   3.457 -0.2099  0.0922 -0.0759
  639SOL    HW1 2816   1.785   3.166   3.458 -0.3913  0.1974  1.0882
  639SOL    HW2 2817   1.799   3.003   3.452 -0.0129  0.2710 -0.2842
  640SOL     OW 2818   5.323   6.804   0.555  0.9072 -0.6891 -0.6800
  640SOL    HW1 2819   5.224   6.816   0.555  0.9460 -0.3731 -0.6377
  640SOL    HW2 2820   5.364   6.861   0.625  0.8450 -3.1428  1.5038
  641SOL     OW 2821   1.393   1.826   5.582 -0.4768 -0.2888  0.0572
  641SOL    HW1 2822   1.310   1.820   5.637 -0.0709 -0.7712  0.6244
  641SOL    HW2 2823   1.373   1.799   5.488 -1.1582  0.4627 -0.0230
  642SOL     OW 2824   2.184   2.014   6.491  0.4086 -0.1632  0.0158
  642SOL    HW1 2825   2.149   2.097   6.447 -1.4401 -0.1012  1.4788
  642SOL    HW2 2826   2.129   1.936   6.464 -1.4051  0.0213  2.8001
  643SOL     OW 2827   0.507   3.872   5.094  0.1151  0.2008  0.0717
  643SOL    HW1 2828   0.481   3.775   5.097 -0.5395  0.3955  1.1865
  643SOL    HW2 2829   0.446   3.922   5.033  0.5192 -0.0947 -0.5892
  644SOL     OW 2830   6.877   5.108   4.802  0.6124 -0.1500 -0.1237
  644SOL    HW1 2831   6.893   5.114   4.703  2.2525 -1.9885 -0.0229
  644SOL    HW2 2832   6.804   5.042   4.820  0.4497  0.0387 -0.0848
  645SOL     OW 2833   6.339   6.883   5.694  0.3307 -0.1118  0.3151
  645SOL    HW1 2834   6.334   6.788   5.663  0.3383 -0.0340  0.0721
  645SOL    HW2 2835   6.375   6.940   5.620  0.8778 -0.0116  0.6534
  646SOL     OW 2836   6.773   1.830   3.680  0.4642 -0.8633  0.3063
  646SOL    HW1 2837   6.750   1.736   3.706  1.0137 -1.1707 -0.3055
  646SOL    HW2 2838   6.851   1.862   3.735 -0.0477 -0.5676  0.8830
  647SOL     OW 2839   6.154   1.589   1.799 -0.3901  0.0989 -0.5376
  647SOL    HW1 2840   6.071   1.629   1.760 -1.0592  0.5732  1.2966
  647SOL    HW2 2841   6.211   1.662   1.837 -0.7068 -0.4802  1.1202
  648SOL     OW 2842   1.924   3.078   6.376  0.0042  0.0007 -0.3151
  648SOL    HW1 2843   1.909   2.981   6.358  0.3361  0.1955 -1.7515
  648SOL    HW2 2844   2.004   3.110   6.324 -0.8615  1.3332 -0.8804
  649SOL     OW 2845   0.795   4.138   1.616 -0.2726  0.0519 -0.3984
  649SOL    HW1 2846   0.820   4.160   1.522  0.7427 -3.5584 -1.1161
  649SOL    HW2 2847   0.699   4.110   1.619 -1.0673  2.5478  0.2146
  650SOL     OW 2848   5.939   2.683   6.594 -0.0366 -0.1166  0.0837
  650SOL    HW1 2849   5.866   2.751   6.583 -0.6118 -0.6207  0.6762
  650SOL    HW2 2850   6.012   2.722   6.650 -0.4929 -0.0663  0.6578
  651SOL     OW 2851   2.533   6.540   0.040 -0.4278 -0.7301  0.8491
  651SOL    HW1 2852   2.552   6.543   0.138 -1.9798 -2.8360  1.2686
  651SOL    HW2 2853   2.445   6.496   0.024 -0.5091  0.1387 -1.4888
  652SOL     OW 2854   6.895   4.947   1.248 -0.1837  0.1265  0.8378
  652SOL    HW1 2855   6.953   4.907   1.319 -0.3877  0.7129  1.3454
  652SOL    HW2 2856   6.800   4.949   1.281 -0.0974  1.5446  1.0668
  653SOL     OW 2857   5.457   3.757   0.613 -0.0494 -0.1904  0.2304
  653SOL    HW1 2858   5.502   3.673   0.643 -0.5061 -0.8497 -0.8973
  653SOL    HW2 2859   5.359   3.741   0.601 -0.4894  1.0080  1.7941
  654SOL     OW 2860   5.665   5.479   0.896 -0.4919 -0.3010  0.3904
  654SOL    HW1 2861   5.711   5.393   0.920  0.6472  0.4927  1.1848
  654SOL    HW2 2862   5.665   5.540   0.976 -1.9739  0.1533  0.0658
  655SOL     OW 2863   4.689   5.941   1.579  0.2627  0.4078  0.0459
  655SOL    HW1 2864   4.609   5.892   1.546  1.3509 -1.7664  0.4658
  655SOL    HW2 2865   4.663   6.001   1.654 -1.1381  0.5577 -0.5366
  656SOL     OW 2866   0.429   1.989   3.167  0.2535 -0.2796 -0.7032
  656SOL    HW1 2867   0.341   1.941   3.164  0.0024  0.1758 -0.7410
  656SOL    HW2 2868   0.469   1.990   3.075 -0.1888  0.4013 -0.8904
  657SOL     OW 2869   5.362   4.956   0.692  0.0552 -1.2066 -1.0688
  657SOL    HW1 2870   5.367   4.864   0.730  0.4194 -0.7103  0.1368
  657SOL    HW2 2871   5.370   4.952   0.593 -0.7654 -2.5325 -1.0912
  658SOL     OW 2872   4.763   2.125   2.763 -0.0301 -0.2289 -0.2343
  658SOL    HW1 2873   4.703   2.085   2.833 -2.2289  2.7408 -0.1947
  658SOL    HW2 2874   4.780   2.221   2.786  2.0325 -0.0984 -2.0769
  659SOL     OW 2875   6.248   0.678   4.162  0.1628 -0.3923 -0.0566
  659SOL    HW1 2876   6.304   0.736   4.220 -0.5004 -0.9171  1.1469
  659SOL    HW2 2877   6.273   0.692   4.066  0.5335  1.3005  0.2572
  660SOL     OW 2878   5.112   1.918   4.845 -0.3812 -0.0061  0.4384
  660SOL    HW1 2879   5.105   1.830   4.893  1.0102 -0.1698  0.4001
  660SOL    HW2 2880   5.174   1.978   4.896  1.8177 -0.4721 -1.5133
  661SOL     OW 2881   6.768   0.722   0.861 -0.6825 -0.3933 -0.2356
  661SOL    HW1 2882   6.847   0.662   0.850  0.7087  1.1200  1.0267
  661SOL    HW2 2883   6.791   0.813   0.826 -1.1484  0.5930  1.8931
  662SOL     OW 2884   4.298   6.272   5.535  0.2048 -0.6227  0.3725
  662SOL    HW1 2885   4.317   6.354   5.482  2.9760 -1.6504 -0.4079
  662SOL    HW2 2886   4.381   6.242   5.582 -0.3621 -3.5341 -0.2533
  663SOL     OW 2887   0.455   2.520   0.470 -0.7564  0.0935 -0.3632
  663SOL    HW1 2888   0.413   2.445   0.521  0.1885  0.8114  1.5887
  663SOL    HW2 2889   0.397   2.601   0.476 -0.4816  0.2745 -0.1307
  664SOL     OW 2890   4.398   3.938   6.244  0.3906  0.3889  0.1634
  664SOL    HW1 2891   4.493   3.907   6.248 -0.2916 -1.9719 -0.1979
  664SOL    HW2 2892   4.349   3.886   6.174 -1.0318  2.0299 -0.1184
  665SOL     OW 2893   6.916   6.307   1.427 -0.2337  0.3289 -0.1264
  665SOL    HW1 2894   6.904   6.362   1.510 -0.6667  1.4477 -0.9226
  665SOL    HW2 2895   7.011   6.275   1.422  0.2488  1.6852 -0.0570
  666SOL     OW 2896   2.209   5.158   1.623 -0.4194  0.3324 -0.3325
  666SOL    HW1 2897   2.188   5.067   1.586 -0.4358 -0.2045  0.9611
  666SOL    HW2 2898   2.138   5.184   1.688  0.8618  0.2016  1.1541
  667SOL     OW 2899   3.119   1.770   5.715  0.3104 -0.1668 -0.1970
  667SOL    HW1 2900   3.139   1.829   5.794  0.1109  1.9080 -1.6044
  667SOL    HW2 2901   3.203   1.749   5.667  0.2822 -0.3451 -0.1697
  668SOL     OW 2902   5.514   4.369   3.594  0.2738 -0.3920 -0.1080
  668SOL    HW1 2903   5.419   4.339   3.593  0.2688 -0.3910 -1.7000
  668SOL    HW2 2904   5.571   4.298   3.636 -0.5448  0.1420  2.0983
  669SOL     OW 2905   2.171   2.856   5.654  0.2920 -0.2117  0.2636
  669SOL    HW1 2906   2.153   2.761   5.678 -1.8833 -0.5861 -2.3363
  669SOL    HW2 2907   2.117   2.881   5.574  2.8532  2.4392 -0.8300
  670SOL     OW 2908   2.031   2.475   4.384  0.0279 -0.0564 -0.0248
  670SOL    HW1 2909   1.933   2.473   4.400 -0.0162  0.6265 -0.1958
  670SOL    HW2 2910   2.060   2.389   4.341 -0.9778  0.9014 -2.8123
  671SOL     OW 2911   0.278   1.920   3.661 -0.1482  0.0852 -0.0330
  671SOL    HW1 2912   0.356   1.859   3.670 -0.4063 -0.6690 -2.2765
  671SOL    HW2 2913   0.256   1.959   3.751  2.5675  0.0992  0.7238
  672SOL     OW 2914   3.400   1.775   2.386 -0.5415  0.7391  0.1255
  672SOL    HW1 2915   3.324   1.715   2.411 -0.4309  0.3750 -0.3868
  672SOL    HW2 2916   3.366   1.851   2.331 -0.3857 -0.0791 -1.1390
  673SOL     OW 2917   0.399   6.744   6.930  0.3391  0.1268  0.2375
  673SOL    HW1 2918   0.365   6.804   7.003  1.3391 -0.9262  1.6027
  673SOL    HW2 2919   0.369   6.650   6.947 -0.3266  0.0125 -1.3222
  674SOL     OW 2920   0.188   6.422   5.304  0.5270 -0.6470 -0.8085
  674SOL    HW1 2921   0.264   6.444   5.242 -0.5917 -0.7678 -2.3003
  674SOL    HW2 2922   0.169   6.324   5.300  0.5076 -0.6731 -0.1732
  675SOL     OW 2923   0.929   4.304   5.925 -0.2103  0.2251  0.2267
  675SOL    HW1 2924   0.927   4.276   6.022 -0.6281  1.9818  0.7563
  675SOL    HW2 2925   0.866   4.380   5.912 -0.8501 -0.5701 -1.6533
  676SOL     OW 2926   3.554   1.120   3.688  0.1157  0.5157  0.6300
  676SOL    HW1 2927   3.534   1.195   3.626  0.9521  0.5593  0.4079
  676SOL    HW2 2928   3.640   1.076   3.662  0.0999  0.0611  1.3035
  677SOL     OW 2929   0.697   0.595   2.264 -0.0645 -0.1333 -0.6475
  677SOL    HW1 2930   0.789   0.558   2.265  0.1482  0.3737  0.1675
  677SOL    HW2 2931   0.692   0.671   2.200  0.3328  0.3982 -0.0669
  678SOL     OW 2932   4.411   3.858   1.143  0.2251 -0.0440  0.7810
  678SOL    HW1 2933   4.473   3.853   1.221  0.0163 -1.0638  0.8915
  678SOL    HW2 2934   4.333   3.797   1.158 -0.0166  0.0502 -0.0469
  679SOL     OW 2935   2.751   0.915   3.004  0.0321 -0.3346  0.0133
  679SOL    HW1 2936   2.791   0.982   3.067  0.6841  0.6783 -1.4172
  679SOL    HW2 2937   2.663   0.884   3.040  0.1779  0.5520  1.2018
  680SOL     OW 2938   2.137   5.107   2.000  0.4633 -0.1558  0.5824
  680SOL    HW1 2939   2.075   5.125   2.077  0.2396  1.8754  0.0024
  680SOL    HW2 2940   2.231   5.115   2.031  0.3760  0.3854  0.7376
  681SOL     OW 2941   0.974   2.657   5.415 -0.2880 -0.4471 -0.1845
  681SOL    HW1 2942   0.920   2.738   5.435 -2.6946 -1.6015 -1.5749
  681SOL    HW2 2943   0.927   2.575   5.448  1.6531 -1.3870  0.4062
  682SOL     OW 2944   4.924   6.026   1.839  0.3636  0.1909 -0.1527
  682SOL    HW1 2945   4.826   6.039   1.855  0.4942  0.8060  0.1801
  682SOL    HW2 2946   4.938   5.943   1.785 -0.1666 -1.6448  2.3464
  683SOL     OW 2947   2.342   4.495   5.705 -0.1105  0.3429  0.2384
  683SOL    HW1 2948   2.408   4.462   5.637  1.1467  0.8047  1.1941
  683SOL    HW2 2949   2.338   4.594   5.702  1.7270  0.5603  2.3457
  684SOL     OW 2950   1.625   3.600   4.441  0.1551 -0.2480  0.0555
  684SOL    HW1 2951   1.536   3.553   4.447 -0.7167  1.2850 -0.2718
  684SOL    HW2 2952   1.618   3.689   4.484  0.9809  0.7027 -1.6734
  685SOL     OW 2953   4.511   1.351   0.274 -0.0696  0.1529 -0.1825
  685SOL    HW1 2954   4.487   1.254   0.269  1.2527 -0.1353 -1.6843
  685SOL    HW2 2955   4.611   1.360   0.278 -0.1920  1.4534  0.2889
  686SOL     OW 2956   5.122   5.280   1.675 -0.0324 -0.2440 -0.1695
  686SOL    HW1 2957   5.156   5.350   1.612  0.3553 -1.4001 -1.2759
  686SOL    HW2 2958   5.030   5.254   1.649 -0.1083 -0.2758  0.1312
  687SOL     OW 2959   4.877   3.536   3.814  0.1870 -0.6569  0.3596
  687SOL    HW1 2960   4.862   3.446   3.772  0.1912 -0.0015 -1.1062
  687SOL    HW2 2961   4.864   3.607   3.745 -2.8329  0.7093  2.1672
  688SOL     OW 2962   4.772   3.578   5.514  0.2241 -0.0675 -0.2936
  688SOL    HW1 2963   4.768   3.653   5.581  0.3527 -0.4406  0.1376
  688SOL    HW2 2964   4.867   3.561   5.488  0.4364 -1.5510  1.3065
  689SOL     OW 2965   6.103   4.675   3.043 -0.1719  0.7065 -0.5545
  689SOL    HW1 2966   6.033   4.682   3.114  0.9088  2.7279  0.3927
  689SOL    HW2 2967   6.096   4.585   2.998 -0.6925 -0.7908  2.2965
  690SOL     OW 2968   4.897   1.553   4.099  0.1575  0.1008  1.0842
  690SOL    HW1 2969   4.957   1.604   4.037  0.7090  0.0064  1.5301
  690SOL    HW2 2970   4.949   1.479   4.142 -0.4304 -0.3431  1.0466
  691SOL     OW 2971   3.962   6.118   3.752 -0.1281  0.4256  0.5682
  691SOL    HW1 2972   3.864   6.105   3.769  0.3064 -0.0186  2.9940
  691SOL    HW2 2973   3.980   6.213   3.727 -0.9048  1.1553  2.6166
  692SOL     OW 2974   2.835   0.027   5.324  0.1107  0.1314  0.7440
  692SOL    HW1 2975   2.857   0.005   5.229 -0.9495 -1.8284  0.8862
  692SOL    HW2 2976   2.827   0.126   5.334 -0.1829  0.3719 -1.3079
  693SOL     OW 2977   2.514   2.663   1.061  0.4378  0.6145 -0.0053
  693SOL    HW1 2978   2.583   2.639   0.992  0.0123  0.5090 -0.4049
  693SOL    HW2 2979   2.514   2.761   1.075  1.6531  0.4932  1.0608
  694SOL     OW 2980   6.950   3.445   6.364  0.2960  0.0427 -0.4085
  694SOL    HW1 2981   6.862   3.401   6.380  0.1900 -0.0950 -1.2837
  694SOL    HW2 2982   6.954   3.476   6.269  1.3512 -0.3457 -0.5024
  695SOL     OW 2983   3.193   1.563   3.311  0.4878 -0.4812 -0.3148
  695SOL    HW1 2984   3.283   1.607   3.308  1.0257 -1.2514  1.9176
  695SOL    HW2 2985   3.182   1.505   3.231  0.5989  2.0242 -2.2799
  696SOL     OW 2986   3.680   3.332   0.195  0.5070 -0.1396  0.0566
  696SOL    HW1 2987   3.727   3.254   0.237  1.8796  0.8091  0.3473
  696SOL    HW2 2988   3.618   3.374   0.262 -0.5809 -1.2099 -0.2354
  697SOL     OW 2989   6.887   5.235   2.677 -0.3650  0.2646 -0.4708
  697SOL    HW1 2990   6.880   5.334   2.692 -0.9456  0.0805  0.5582
  697SOL    HW2 2991   6.972   5.202   2.719 -0.5582  0.2066 -0.1221
  698SOL     OW 2992   1.091   1.825   0.711  0.1787 -0.2676 -0.5309
  698SOL    HW1 2993   1.142   1.741   0.726 -0.7937 -0.8296 -0.2574
  698SOL    HW2 2994   1.149   1.893   0.666  1.8889 -0.0451  1.8147
  699SOL     OW 2995   6.702   6.498   6.954  0.2640  0.0629  0.4252
  699SOL    HW1 2996   6.701   6.399   6.938  0.2244 -0.0091  0.8623
  699SOL    HW2 2997   6.632   6.542   6.898  1.1670  0.0098 -0.7986
  700SOL     OW 2998   1.563   1.499   3.022  0.4612  0.4940  0.1404
  700SOL    HW1 2999   1.496   1.574   3.025  0.1641  0.2292  0.0994
  700SOL    HW2 3000   1.519   1.415   2.991  0.6464  0.1374  0.8250
  701SOL     OW 3001   2.066   2.051   4.566 -0.0257 -0.0467 -0.0543
  701SOL    HW1 3002   1.992   2.087   4.622 -2.4417 -2.2944 -1.6114
  701SOL    HW2 3003   2.084   2.114   4.490 -1.1680 -0.0169 -0.3109
  702SOL     OW 3004   0.905   3.781   2.741 -0.6187 -0.8457 -0.0967
  702SOL    HW1 3005   0.986   3.725   2.759  0.7771  0.6315 -1.4400
  702SOL    HW2 3006   0.842   3.774   2.818  0.9127 -1.8157  1.1318
  703SOL     OW 3007   3.111   2.999   2.226  0.9119 -0.1630 -0.3440
  703SOL    HW1 3008   3.054   2.929   2.268  0.2130  0.4438 -0.2607
  703SOL    HW2 3009   3.198   3.005   2.275  0.5074 -0.1593  0.3887
  704SOL     OW 3010   2.016   0.868   0.790 -0.2150 -0.0838  0.4965
  704SOL    HW1 3011   1.995   0.778   0.827  0.3043 -1.1351 -1.6280
  704SOL    HW2 3012   1.942   0.898   0.730 -0.1970  0.7573  0.8715
  705SOL     OW 3013   4.874   3.873   0.764  0.2605  0.1827  0.2497
  705SOL    HW1 3014   4.973   3.856   0.767  0.2234  0.0024  0.4737
  705SOL    HW2 3015   4.834   3.850   0.853  0.0613  0.5333  0.2513
  706SOL     OW 3016   4.979   6.454   5.647  0.6558  0.4971  0.1911
  706SOL    HW1 3017   4.952   6.551   5.653 -1.9346 -0.1473  0.1182
  706SOL    HW2 3018   4.964   6.421   5.554  1.1164 -0.1077  0.3254
  707SOL     OW 3019   4.792   5.189   6.134  0.1547  0.3400 -0.3737
  707SOL    HW1 3020   4.878   5.137   6.141  0.1836  0.4574  0.2117
  707SOL    HW2 3021   4.715   5.128   6.155  0.1907  0.5348  0.3467
  708SOL     OW 3022   4.168   5.664   4.394 -0.0479  0.0244  0.2332
  708SOL    HW1 3023   4.091   5.631   4.339 -0.6242  0.7727  0.5751
  708SOL    HW2 3024   4.206   5.747   4.351  0.3661 -0.1582  0.2418
  709SOL     OW 3025   2.521   1.489   6.406  0.0188 -0.1284  0.7753
  709SOL    HW1 3026   2.443   1.439   6.445  0.6680 -1.7212  0.0642
  709SOL    HW2 3027   2.606   1.453   6.444  0.4933  0.6002  0.4148
  710SOL     OW 3028   6.990   2.790   3.909 -0.1192 -0.3655  0.6241
  710SOL    HW1 3029   6.972   2.887   3.894  1.1206 -0.3181 -0.8381
  710SOL    HW2 3030   6.920   2.751   3.969 -2.1379  0.8237 -0.8512
  711SOL     OW 3031   3.275   7.008   2.848 -0.2614 -0.5582 -0.4228
  711SOL    HW1 3032   3.250   7.001   2.945  0.7294  1.3948  0.0209
  711SOL    HW2 3033   3.353   6.948   2.829 -0.8995 -1.4708 -0.1832
  712SOL     OW 3034   5.676   1.293   3.577 -0.4312  0.2433 -0.1506
  712SOL    HW1 3035   5.765   1.293   3.533  0.0303  0.0346  0.7552
  712SOL    HW2 3036   5.605   1.274   3.509  0.2822 -0.3246 -0.7509
  713SOL     OW 3037   3.871   1.042   0.765 -0.3390  0.2062 -0.0588
  713SOL    HW1 3038   3.928   1.118   0.732 -2.7367  1.5005 -1.5966
  713SOL    HW2 3039   3.836   1.064   0.856  1.9219 -0.8410  1.1283
  714SOL     OW 3040   5.920   4.038   1.995  0.2637 -0.3778 -0.0055
  714SOL    HW1 3041   6.010   4.083   1.993  0.7707 -1.3623 -2.0949
  714SOL    HW2 3042   5.853   4.096   1.948 -0.4096  0.6201  2.0335
  715SOL     OW 3043   1.042   2.818   1.186  0.2145 -0.4023 -0.4546
  715SOL    HW1 3044   1.074   2.757   1.114 -0.5417 -1.6130  0.2032
  715SOL    HW2 3045   0.943   2.828   1.181  0.3429  1.0519 -0.7363
  716SOL     OW 3046   2.172   3.476   0.457 -0.0430  0.2635  0.4095
  716SOL    HW1 3047   2.089   3.452   0.508  1.2072 -1.4961  1.7279
  716SOL    HW2 3048   2.250   3.479   0.519  1.5058 -1.7090 -1.2888
  717SOL     OW 3049   5.693   6.156   1.821 -0.0174 -0.4591  0.0997
  717SOL    HW1 3050   5.787   6.137   1.793  0.9775 -0.0307  2.8140
  717SOL    HW2 3051   5.678   6.255   1.822 -0.7176 -0.5434 -0.8728
  718SOL     OW 3052   2.927   1.202   0.571  0.1383 -0.0461 -0.0019
  718SOL    HW1 3053   2.942   1.174   0.666  2.9033 -0.7538 -0.5545
  718SOL    HW2 3054   2.870   1.134   0.525 -1.2916  0.3391  1.1165
  719SOL     OW 3055   5.640   5.402   0.265 -0.1780  0.0283 -0.0781
  719SOL    HW1 3056   5.633   5.499   0.244 -0.8371  0.0950  0.4335
  719SOL    HW2 3057   5.630   5.349   0.181  1.3441  0.4313 -0.5395
  720SOL     OW 3058   6.161   6.099   2.132 -0.0351 -0.7415 -0.2019
  720SOL    HW1 3059   6.180   6.025   2.197  1.8257 -1.3711 -1.4011
  720SOL    HW2 3060   6.112   6.173   2.179 -1.1345 -2.3078  1.2400
  721SOL     OW 3061   6.968   1.938   5.055  0.3344  0.4690  0.0863
  721SOL    HW1 3062   6.893   1.960   5.118  0.5097  0.8041  0.1761
  721SOL    HW2 3063   7.045   1.900   5.106 -0.1593 -0.8664 -0.1226
  722SOL     OW 3064   0.033   0.961   5.026 -0.0695 -0.3066  0.0955
  722SOL    HW1 3065   0.021   1.038   5.089  0.0704 -1.1045  1.1043
  722SOL    HW2 3066   0.045   0.997   4.933  0.8865  0.9411  0.6651
  723SOL     OW 3067   1.558   0.420   4.115 -0.1132  0.0183 -0.4513
  723SOL    HW1 3068   1.548   0.515   4.145  1.2943  0.8371 -2.3962
  723SOL    HW2 3069   1.474   0.370   4.136 -0.7180  1.5492  1.0197
  724SOL     OW 3070   5.689   6.553   4.853  0.6301  0.1362  0.1272
  724SOL    HW1 3071   5.736   6.641   4.840 -0.7612  0.8012 -0.7078
  724SOL    HW2 3072   5.621   6.541   4.780 -0.8510 -0.5321  1.5553
  725SOL     OW 3073   0.328   3.890   2.565 -0.0674 -0.2994 -0.2536
  725SOL    HW1 3074   0.341   3.985   2.536 -0.4753 -0.1024  0.1999
  725SOL    HW2 3075   0.330   3.885   2.664 -2.5455 -0.3659 -0.1427
  726SOL     OW 3076   5.547   5.837   5.599 -0.0896 -0.2637 -0.3171
  726SOL    HW1 3077   5.622   5.771   5.595  0.6058  0.5393 -1.3900
  726SOL    HW2 3078   5.553   5.899   5.520 -0.5773  1.2197  0.7528
  727SOL     OW 3079   1.515   3.326   2.407 -0.3659  0.1481 -0.2442
  727SOL    HW1 3080   1.556   3.240   2.377  0.8941  0.0710  1.5892
  727SOL    HW2 3081   1.519   3.392   2.332  2.1657 -0.2034 -0.5213
  728SOL     OW 3082   0.845   5.980   0.984  0.0239  0.0289 -0.8321
  728SOL    HW1 3083   0.903   6.040   0.929 -0.9088 -0.0322 -1.9426
  728SOL    HW2 3084   0.893   5.954   1.068  0.3728  2.4688 -0.2156
  729SOL     OW 3085   5.239   1.220   0.713  0.5098 -0.0263  0.8302
  729SOL    HW1 3086   5.267   1.165   0.634 -1.3019 -0.5336  0.4806
  729SOL    HW2 3087   5.265   1.316   0.698 -0.3160 -0.0105 -0.6866
  730SOL     OW 3088   5.358   4.923   1.121 -0.5822 -0.5407 -0.4311
  730SOL    HW1 3089   5.350   4.848   1.056 -0.9589  0.1099 -1.1535
  730SOL    HW2 3090   5.362   5.010   1.071 -0.4950 -0.0575  0.4007
  731SOL     OW 3091   2.831   5.437   1.607 -0.4593 -0.1899  0.5136
  731SOL    HW1 3092   2.744   5.418   1.653 -2.2117 -0.0358 -2.4457
  731SOL    HW2 3093   2.850   5.535   1.612 -0.1816 -0.2905  1.5782
  732SOL     OW 3094   5.561   0.305   2.864 -0.4340  0.2586  0.0392
  732SOL    HW1 3095   5.589   0.289   2.958 -1.5347 -1.4449  0.1291
  732SOL    HW2 3096   5.482   0.367   2.863  0.0731  0.9168  0.1620
  733SOL     OW 3097   0.595   0.169   4.261  0.2341 -0.3575 -0.5551
  733SOL    HW1 3098   0.527   0.122   4.318  0.1300  1.1019  0.6260
  733SOL    HW2 3099   0.686   0.155   4.299  0.5273 -1.6723 -1.6878
  734SOL     OW 3100   0.585   0.856   1.701  0.3189  0.2966 -0.2068
  734SOL    HW1 3101   0.606   0.925   1.631 -0.6902  0.0069 -0.8159
  734SOL    HW2 3102   0.620   0.886   1.789  2.2914  0.3323 -0.9471
  735SOL     OW 3103   4.735   3.465   6.270  0.0896  0.0464  0.2893
  735SOL    HW1 3104   4.712   3.472   6.173 -0.2431 -0.9868  0.2764
  735SOL    HW2 3105   4.834   3.464   6.281  0.1312 -0.1358 -0.0771
  736SOL     OW 3106   3.352   2.917   1.641 -0.5133  0.3872  0.3878
  736SOL    HW1 3107   3.395   3.000   1.605 -1.1817  0.9757  0.9155
  736SOL    HW2 3108   3.274   2.892   1.583  0.2086 -0.3991 -0.2846
  737SOL     OW 3109   3.888   0.399   6.549  0.6285  0.3665 -0.2616
  737SOL    HW1 3110   3.856   0.344   6.472  2.2167 -0.5949 -0.2917
  737SOL    HW2 3111   3.965   0.456   6.520 -0.8473  2.5263 -0.1721
  738SOL     OW 3112   0.234   5.166   0.111  0.2989  0.3059 -0.0236
  738SOL    HW1 3113   0.141   5.203   0.119  0.6424  1.8517 -2.2997
  738SOL    HW2 3114   0.298   5.241   0.093  1.8355 -0.8811  0.2864
  739SOL     OW 3115   1.047   4.752   1.038  0.0203  0.1339 -0.6233
  739SOL    HW1 3116   1.134   4.783   1.000 -0.6418  1.1106 -1.3972
  739SOL    HW2 3117   1.062   4.721   1.132  1.7738 -2.7791 -1.7300
  740SOL     OW 3118   4.441   5.912   4.922 -0.6630 -0.2351 -0.3818
  740SOL    HW1 3119   4.487   5.823   4.912 -1.4164 -0.7439  0.5739
  740SOL    HW2 3120   4.358   5.901   4.976 -0.1864  1.2496  0.7136
  741SOL     OW 3121   2.973   3.531   6.586  0.2719  0.1459  0.2141
  741SOL    HW1 3122   2.942   3.449   6.538 -1.2404  0.7205  0.1526
  741SOL    HW2 3123   3.019   3.592   6.521  0.3759 -0.1373  0.0199
  742SOL     OW 3124   0.578   0.248   1.973  0.0135 -0.1344  0.7730
  742SOL    HW1 3125   0.555   0.339   2.008  1.2239  0.4309  0.1470
  742SOL    HW2 3126   0.668   0.221   2.006 -0.3270 -1.0987  0.9317
  743SOL     OW 3127   5.427   1.891   6.127 -0.5415 -0.2275  0.2738
  743SOL    HW1 3128   5.526   1.895   6.108 -0.7443  0.1444 -0.7682
  743SOL    HW2 3129   5.413   1.894   6.226  0.4551  0.7464  0.4104
  744SOL     OW 3130   2.504   5.736   6.684  0.0461 -0.1047  0.2467
  744SOL    HW1 3131   2.498   5.833   6.660 -1.1250 -0.3703 -0.6430
  744SOL    HW2 3132   2.473   5.724   6.778  0.6479  0.4295  0.5240
  745SOL     OW 3133   6.230   0.856   5.791  0.6440  0.8566 -0.3585
  745SOL    HW1 3134   6.295   0.920   5.752  0.2735  0.7461 -1.1667
  745SOL    HW2 3135   6.137   0.879   5.760  0.1105  1.7966  1.7582
  746SOL     OW 3136   2.199   2.440   6.365  0.1105  0.1442 -0.7842
  746SOL    HW1 3137   2.174   2.482   6.277 -0.5706  3.1116  0.6871
  746SOL    HW2 3138   2.273   2.493   6.407 -1.4642  0.5751  1.6538
  747SOL     OW 3139   1.499   2.567   3.793 -0.2684  0.3950  0.7664
  747SOL    HW1 3140   1.417   2.591   3.740 -0.8692  0.9487  1.9095
  747SOL    HW2 3141   1.537   2.482   3.757 -1.3038  0.1654  0.1476
  748SOL     OW 3142   0.347   0.097   5.675  0.5829 -0.2025  0.3090
  748SOL    HW1 3143   0.376   0.052   5.760  0.9619  0.4239  0.5207
  748SOL    HW2 3144   0.370   0.194   5.680  2.8282 -0.5535 -1.4885
  749SOL     OW 3145   6.199   2.494   6.735  0.8334 -0.1523 -0.0440
  749SOL    HW1 3146   6.140   2.539   6.803  0.3203 -2.0813  0.8647
  749SOL    HW2 3147   6.275   2.449   6.783 -0.0879 -2.4059 -0.5636
  750SOL     OW 3148   5.672   6.189   3.633  0.0951  0.3452 -0.0677
  750SOL    HW1 3149   5.760   6.149   3.605 -0.1803  0.4049 -1.0471
  750SOL    HW2 3150   5.597   6.138   3.590 -0.3382  0.5832  0.3940
  751SOL     OW 3151   5.465   5.425   0.532  0.1857  0.5936 -0.3891
  751SOL    HW1 3152   5.463   5.354   0.461 -1.3202  0.5558 -0.3377
  751SOL    HW2 3153   5.427   5.389   0.617  0.9716  0.9736  0.1392
  752SOL     OW 3154   4.222   2.210   5.912  0.2791 -0.5204 -0.2917
  752SOL    HW1 3155   4.159   2.285   5.929  0.0703 -1.1238  1.9376
  752SOL    HW2 3156   4.171   2.130   5.880  0.0614 -0.6158  0.2761
  753SOL     OW 3157   2.721   1.341   6.556  0.1869  0.0858  0.4696
  753SOL    HW1 3158   2.723   1.242   6.546  0.7611  0.0082  1.2195
  753SOL    HW2 3159   2.789   1.383   6.496  0.3751 -0.0300  0.5984
  754SOL     OW 3160   0.515   5.921   4.822  0.4253 -0.0391  0.3998
  754SOL    HW1 3161   0.544   5.942   4.916  2.2832 -0.0871 -0.1247
  754SOL    HW2 3162   0.550   5.832   4.795  3.9919  1.8167 -1.8458
  755SOL     OW 3163   0.270   0.074   2.024 -0.0282 -0.5591  0.2125
  755SOL    HW1 3164   0.295   0.012   1.949  0.9466  0.8638 -0.6893
  755SOL    HW2 3165   0.179   0.051   2.057 -1.0077 -0.4916 -2.2352
  756SOL     OW 3166   5.073   5.698   5.447 -0.5259 -0.1199  0.2973
  756SOL    HW1 3167   5.044   5.756   5.523  1.0531  0.6045  0.3977
  756SOL    HW2 3168   5.173   5.695   5.444 -0.5457  0.0730 -1.9090
  757SOL     OW 3169   1.740   2.875   6.652  0.3125  0.1220  0.5598
  757SOL    HW1 3170   1.767   2.791   6.700  0.8198 -0.3186 -0.4640
  757SOL    HW2 3171   1.818   2.937   6.647  0.4900 -0.1534 -0.3251
  758SOL     OW 3172   4.133   4.794   4.277 -0.0164  0.4362 -0.3798
  758SOL    HW1 3173   4.084   4.723   4.226 -0.4317  0.3906  0.0716
  758SOL    HW2 3174   4.231   4.776   4.274 -0.0291  0.4770 -1.2238
  759SOL     OW 3175   3.224   1.039   5.097  0.0946 -0.0484 -0.4392
  759SOL    HW1 3176   3.221   1.002   5.190 -1.7430 -2.2638 -1.2862
  759SOL    HW2 3177   3.317   1.034   5.061  0.2016 -2.6322  0.0336
  760SOL     OW 3178   2.026   5.129   3.986  0.4156  0.1435  0.1793
  760SOL    HW1 3179   2.121   5.119   3.956  0.1825  0.0334 -0.5198
  760SOL    HW2 3180   2.012   5.073   4.068  1.0803  0.5451  0.5801
  761SOL     OW 3181   5.439   6.656   5.544  0.3670  0.5531 -0.0359
  761SOL    HW1 3182   5.422   6.561   5.519  1.2897  0.7248 -1.3573
  761SOL    HW2 3183   5.534   6.679   5.526  0.3610  1.5091  1.0406
  762SOL     OW 3184   0.495   6.959   3.252 -0.5576 -0.0951 -0.4536
  762SOL    HW1 3185   0.525   7.041   3.203 -0.7859 -0.2578 -0.8675
  762SOL    HW2 3186   0.574   6.904   3.276 -0.2576  0.9439  1.0961
  763SOL     OW 3187   5.009   2.025   2.849  0.1674  0.2461 -0.4114
  763SOL    HW1 3188   4.967   1.934   2.847 -0.7045  0.5904  1.2402
  763SOL    HW2 3189   4.956   2.088   2.793 -0.0585  0.0822 -0.3808
  764SOL     OW 3190   4.867   3.220   2.555  0.2126 -0.2120  0.1268
  764SOL    HW1 3191   4.878   3.272   2.470 -0.1778  1.5006  1.0685
  764SOL    HW2 3192   4.851   3.284   2.631  1.8388 -1.6055  1.7271
  765SOL     OW 3193   3.833   1.790   1.254 -0.0493 -0.2927  0.0471
  765SOL    HW1 3194   3.787   1.707   1.224  0.3486  0.2437 -2.3192
  765SOL    HW2 3195   3.931   1.772   1.264  0.1235 -0.0351 -0.9996
  766SOL     OW 3196   5.700   6.787   3.787  0.1137 -0.3963 -0.4053
  766SOL    HW1 3197   5.641   6.837   3.723  0.0966  0.8452  0.5353
  766SOL    HW2 3198   5.702   6.690   3.762 -2.4111 -0.5208 -0.4477
  767SOL     OW 3199   4.140   3.425   3.449 -0.6408 -0.0252  0.7187
  767SOL    HW1 3200   4.072   3.365   3.492 -1.1095  1.6990  2.5487
  767SOL    HW2 3201   4.224   3.424   3.503  0.5021 -1.3660 -0.9810
  768SOL     OW 3202   5.075   4.468   0.207  0.0658  0.2029  0.3123
  768SOL    HW1 3203   5.146   4.408   0.170  0.6360  1.1621 -0.2019
  768SOL    HW2 3204   5.066   4.454   0.305  0.2705 -0.6325  0.2157
  769SOL     OW 3205   3.567   6.598   0.349 -0.1288 -0.4054  0.1445
  769SOL    HW1 3206   3.632   6.672   0.331  0.4205 -0.9008  0.0716
  769SOL    HW2 3207   3.480   6.619   0.304  0.6749 -0.8011 -1.6764
  770SOL     OW 3208   5.202   5.870   2.214 -0.1325  0.1866 -0.2845
  770SOL    HW1 3209   5.262   5.860   2.293  0.3328 -0.1655 -0.6720
  770SOL    HW2 3210   5.178   5.779   2.178 -1.1475  0.3130  0.0448
  771SOL     OW 3211   1.930   6.660   1.788 -0.3403 -0.3067 -0.3391
  771SOL    HW1 3212   2.017   6.696   1.822 -1.1819  2.0408 -0.4931
  771SOL    HW2 3213   1.856   6.683   1.851 -1.2948  0.4672 -1.6763
  772SOL     OW 3214   3.927   6.973   3.135  0.0509 -0.8712 -0.1676
  772SOL    HW1 3215   3.891   6.935   3.050 -2.1738 -1.2597  0.8517
  772SOL    HW2 3216   3.912   7.072   3.136 -1.4149 -1.0711  0.3827
  773SOL     OW 3217   2.127   3.601   4.038 -0.5402 -0.2787 -0.0605
  773SOL    HW1 3218   2.071   3.542   4.095 -1.2676 -1.3328 -1.7805
  773SOL    HW2 3219   2.068   3.662   3.985  0.0558  0.1284 -0.2639
  774SOL     OW 3220   1.914   1.796   3.123  0.0841 -0.0517 -0.4541
  774SOL    HW1 3221   1.862   1.717   3.155 -1.4734 -0.0722 -2.7718
  774SOL    HW2 3222   1.898   1.874   3.182  0.5599 -1.0761  1.0832
  775SOL     OW 3223   2.581   6.260   0.546 -0.1983  0.0440 -0.1593
  775SOL    HW1 3224   2.515   6.189   0.569  0.9954 -0.8750  0.5638
  775SOL    HW2 3225   2.655   6.221   0.491 -1.1013  1.4245 -2.5007
  776SOL     OW 3226   1.345   0.083   1.263  0.4316  0.5940 -0.4353
  776SOL    HW1 3227   1.417   0.118   1.203 -0.6570  1.1051 -1.4699
  776SOL    HW2 3228   1.384   0.064   1.354  2.1141 -0.1910 -1.2669
  777SOL     OW 3229   0.621   1.379   5.249  0.3439 -0.4797 -0.1117
  777SOL    HW1 3230   0.630   1.398   5.346  0.2319  2.2876 -0.5473
  777SOL    HW2 3231   0.585   1.287   5.235 -1.4687 -0.2411  2.4997
  778SOL     OW 3232   3.572   1.305   0.414  0.5261  0.0341  0.3850
  778SOL    HW1 3233   3.564   1.272   0.508 -0.0134 -0.8812  0.0304
  778SOL    HW2 3234   3.520   1.245   0.353 -0.3317  1.4342 -0.3171
  779SOL     OW 3235   2.876   7.013   4.441  0.0973  0.2388  0.4467
  779SOL    HW1 3236   2.809   7.001   4.514  0.5266  0.0746  0.8234
  779SOL    HW2 3237   2.880   7.109   4.414 -0.6412  0.1721  0.0695
  780SOL     OW 3238   1.958   4.582   5.113  0.0702  0.5834  0.0308
  780SOL    HW1 3239   1.914   4.577   5.023 -1.0403  1.2278  0.5271
  780SOL    HW2 3240   2.037   4.520   5.114 -2.0709 -2.3812 -0.1428
  781SOL     OW 3241   5.708   0.654   0.664 -0.5006  0.6950  0.6030
  781SOL    HW1 3242   5.616   0.662   0.624  0.1534  2.5717 -0.6846
  781SOL    HW2 3243   5.733   0.558   0.672 -2.3061  0.1669  0.3398
  782SOL     OW 3244   2.974   6.928   3.085  0.5767 -0.0129 -0.1619
  782SOL    HW1 3245   2.951   6.991   3.160  0.9366 -0.1449  0.0608
  782SOL    HW2 3246   2.913   6.849   3.089 -0.5011  0.7344 -0.9935
  783SOL     OW 3247   6.471   2.283   6.545 -0.1911  0.2109  0.0514
  783SOL    HW1 3248   6.563   2.277   6.506 -0.7297  1.6330 -1.5656
  783SOL    HW2 3249   6.477   2.296   6.644  1.3096 -0.4898  0.0744
  784SOL     OW 3250   1.338   0.052   2.209  0.6993 -0.2638 -0.0116
  784SOL    HW1 3251   1.329   0.125   2.277 -1.5215  0.4833 -1.0384
  784SOL    HW2 3252   1.349   0.092   2.118  0.0125 -1.2065 -0.5195
  785SOL     OW 3253   4.678   5.383   2.422 -0.2290 -0.1014  0.3787
  785SOL    HW1 3254   4.644   5.442   2.495 -0.0408 -2.2154  2.3005
  785SOL    HW2 3255   4.773   5.357   2.441 -0.0852 -0.5013 -0.7582
  786SOL     OW 3256   0.314   3.852   3.850  0.0367 -0.3718 -0.0169
  786SOL    HW1 3257   0.368   3.844   3.767 -0.3714  2.6350 -0.6846
  786SOL    HW2 3258   0.216   3.854   3.826 -0.2943 -2.5704  0.8876
  787SOL     OW 3259   1.288   5.815   0.361 -0.2082 -0.7136  0.6510
  787SOL    HW1 3260   1.379   5.824   0.320 -0.2518 -0.1683  0.6635
  787SOL    HW2 3261   1.240   5.902   0.353 -1.1794 -1.3224 -0.4153
  788SOL     OW 3262   2.611   6.657   6.818 -0.4255  0.2828 -0.0099
  788SOL    HW1 3263   2.591   6.618   6.908  0.8902 -1.2455 -0.3412
  788SOL    HW2 3264   2.567   6.603   6.747 -0.1289  0.5296 -0.3855
  789SOL     OW 3265   2.421   0.780   0.403 -0.0703 -0.6117  0.6067
  789SOL    HW1 3266   2.339   0.737   0.367 -0.4491  1.3231 -1.0348
  789SOL    HW2 3267   2.491   0.710   0.419 -1.1254 -2.0000 -0.5299
  790SOL     OW 3268   6.910   5.212   2.060 -0.2069 -0.0413  0.2099
  790SOL    HW1 3269   6.835   5.158   2.020 -0.6699  0.1492  0.8065
  790SOL    HW2 3270   6.957   5.158   2.129 -0.2646  0.0946  0.3566
  791SOL     OW 3271   2.084   3.338   1.105  0.2218  0.0205 -0.2475
  791SOL    HW1 3272   2.042   3.423   1.135  1.7370  0.1243  1.8329
  791SOL    HW2 3273   2.052   3.262   1.161 -0.7468 -0.7544 -1.7669
  792SOL     OW 3274   2.446   5.033   4.989  0.2892  0.1969 -0.3220
  792SOL    HW1 3275   2.394   4.961   5.034 -0.6578 -0.7681 -2.7906
  792SOL    HW2 3276   2.422   5.122   5.028 -1.3340 -0.4816  0.2787
  793SOL     OW 3277   1.856   5.281   5.670  0.3623 -0.4898  0.6727
  793SOL    HW1 3278   1.876   5.306   5.575 -1.1670  1.7972  0.8623
  793SOL    HW2 3279   1.770   5.230   5.673 -1.2859  2.1440  1.0019
  794SOL     OW 3280   0.972   2.922   0.259  0.1901 -0.4041  0.5822
  794SOL    HW1 3281   0.988   2.885   0.351  1.4407 -0.7648  0.2402
  794SOL    HW2 3282   0.999   3.018   0.257  2.6840 -1.0351 -0.0196
  795SOL     OW 3283   1.339   4.830   2.491 -0.6278  0.1140  0.2393
  795SOL    HW1 3284   1.437   4.836   2.509 -0.4546 -0.2905 -0.5279
  795SOL    HW2 3285   1.300   4.757   2.547 -0.7018  0.9605  1.3316
  796SOL     OW 3286   2.283   1.039   0.372  0.7116  0.6449  0.2307
  796SOL    HW1 3287   2.364   1.097   0.367  2.7188 -1.7748  2.4491
  796SOL    HW2 3288   2.310   0.944   0.387 -2.4677 -0.8188 -2.0652
  797SOL     OW 3289   1.197   6.098   2.781  0.1684 -0.2749 -0.4056
  797SOL    HW1 3290   1.129   6.136   2.718  0.8402 -0.5811 -1.3510
  797SOL    HW2 3291   1.289   6.123   2.749  0.5467 -1.0669  0.0380
  798SOL     OW 3292   4.000   0.655   2.568 -0.0873 -0.1498  0.0338
  798SOL    HW1 3293   3.941   0.592   2.518  0.6599  0.5170 -1.7616
  798SOL    HW2 3294   3.944   0.728   2.608 -0.6275 -0.2465 -0.5275
  799SOL     OW 3295   3.064   3.202   2.465 -0.1828 -0.5051  0.1929
  799SOL    HW1 3296   3.082   3.135   2.392 -1.4213  0.8475 -1.4212
  799SOL    HW2 3297   3.151   3.242   2.495  0.3187 -0.6404 -0.9993
  800SOL     OW 3298   4.141   5.730   3.901 -0.2554  0.0601 -0.0729
  800SOL    HW1 3299   4.059   5.773   3.940  0.7712  1.0351  1.0667
  800SOL    HW2 3300   4.123   5.633   3.887 -1.1565 -0.0255  1.4652
  801SOL     OW 3301   1.350   3.171   5.711 -0.2868  0.6584  0.0640
  801SOL    HW1 3302   1.334   3.122   5.797 -2.2567 -1.1789 -1.2531
  801SOL    HW2 3303   1.425   3.129   5.661 -2.1186 -1.3478 -1.1680
  802SOL     OW 3304   3.949   0.100   2.578  0.4577 -0.2073  0.2368
  802SOL    HW1 3305   3.853   0.092   2.552 -0.1255  1.7913  1.5745
  802SOL    HW2 3306   3.976   0.018   2.630 -1.0064 -0.0836  1.2444
  803SOL     OW 3307   2.778   1.931   6.017 -0.1567  1.0526  0.6947
  803SOL    HW1 3308   2.826   1.946   5.931  0.2578  1.3979  0.9824
  803SOL    HW2 3309   2.837   1.880   6.080 -0.3811  0.9815  0.8499
  804SOL     OW 3310   0.980   4.365   3.627  0.4259 -0.0102  0.7480
  804SOL    HW1 3311   1.020   4.455   3.606  0.4398  0.1943  1.6148
  804SOL    HW2 3312   0.930   4.370   3.714 -0.5072 -0.5656  0.2596
  805SOL     OW 3313   5.128   6.651   6.965 -0.6422 -0.5311  0.1101
  805SOL    HW1 3314   5.214   6.635   7.012  0.4291  0.0994 -1.5224
  805SOL    HW2 3315   5.118   6.586   6.890 -1.0363  0.1188 -0.4166
  806SOL     OW 3316   3.040   4.441   0.792 -0.0366  0.3313  0.5183
  806SOL    HW1 3317   3.117   4.467   0.850  1.3432 -0.5765 -0.8188
  806SOL    HW2 3318   3.008   4.521   0.741  0.8249  0.4826  0.1991
  807SOL     OW 3319   6.326   0.835   4.538 -0.9748  0.3841 -0.3642
  807SOL    HW1 3320   6.361   0.911   4.592 -1.9231  0.4454  0.1710
  807SOL    HW2 3321   6.368   0.837   4.447 -1.0597  1.5999 -0.3872
  808SOL     OW 3322   2.218   5.311   6.545 -0.3445  0.3418 -0.3236
  808SOL    HW1 3323   2.274   5.389   6.515 -0.7949  0.6761 -0.2958
  808SOL    HW2 3324   2.265   5.226   6.520  1.3574  0.5655  1.8107
  809SOL     OW 3325   3.032   2.002   3.834  0.0997 -0.8850 -0.1600
  809SOL    HW1 3326   2.946   2.050   3.850  0.9059  1.3044 -1.8770
  809SOL    HW2 3327   3.015   1.921   3.778 -0.7408  0.2522 -1.6218
  810SOL     OW 3328   5.990   2.349   6.687  0.5110 -0.0609 -0.1165
  810SOL    HW1 3329   6.073   2.404   6.696  0.8087 -0.4056 -0.6657
  810SOL    HW2 3330   5.915   2.406   6.653  0.4644  0.2997  0.5827
  811SOL     OW 3331   1.711   2.317   0.867 -0.0613  0.2536 -0.0457
  811SOL    HW1 3332   1.741   2.353   0.955  0.4929  0.5161 -0.3370
  811SOL    HW2 3333   1.760   2.364   0.793 -2.2423  1.7790 -0.6204
  812SOL     OW 3334   6.625   5.119   2.450  0.4708 -0.1304  0.3841
  812SOL    HW1 3335   6.583   5.048   2.394  1.0267  0.7033 -1.1666
  812SOL    HW2 3336   6.615   5.096   2.547 -0.9995 -1.3584 -0.0189
  813SOL     OW 3337   6.111   1.571   5.030 -0.1936  0.1454  0.0175
  813SOL    HW1 3338   6.157   1.509   4.967  0.4788 -0.6786  1.2703
  813SOL    HW2 3339   6.042   1.624   4.981  0.1940 -0.5784 -1.3550
  814SOL     OW 3340   6.354   4.437   2.797 -0.0763 -0.7005  0.2500
  814SOL    HW1 3341   6.350   4.369   2.724 -0.4323  0.9655 -1.3297
  814SOL    HW2 3342   6.433   4.496   2.783 -0.7606  0.3117  0.5869
  815SOL     OW 3343   4.052   1.206   1.911  0.1065 -0.1070 -0.4749
  815SOL    HW1 3344   3.996   1.161   1.842 -0.1952  1.6260 -1.4174
  815SOL    HW2 3345   4.145   1.169   1.907 -0.6931 -2.4284  0.5575
  816SOL     OW 3346   3.331   3.598   6.664 -0.1477  0.0902  0.2676
  816SOL    HW1 3347   3.256   3.534   6.678 -2.2267  2.6591  1.7443
  816SOL    HW2 3348   3.378   3.614   6.752 -1.2392  2.3017  0.5245
  817SOL     OW 3349   2.177   6.142   5.051 -0.5163 -0.4446 -0.5139
  817SOL    HW1 3350   2.163   6.100   5.140 -2.3334 -2.0588 -1.4938
  817SOL    HW2 3351   2.103   6.207   5.032  0.5473  0.8595 -0.3531
  818SOL     OW 3352   5.083   6.412   5.368 -0.2457 -0.2122  0.1977
  818SOL    HW1 3353   4.987   6.397   5.344 -0.4534 -0.2930  1.0679
  818SOL    HW2 3354   5.139   6.345   5.319 -0.3327  1.4539 -2.3731
  819SOL     OW 3355   1.210   3.729   4.672  0.2422 -0.1671 -0.6398
  819SOL    HW1 3356   1.154   3.680   4.604 -0.1506 -0.5829 -0.0276
  819SOL    HW2 3357   1.252   3.663   4.734  0.4191  0.2270 -0.3376
  820SOL     OW 3358   4.307   0.751   1.134 -0.1820 -0.2746 -0.3209
  820SOL    HW1 3359   4.358   0.694   1.198 -1.0053 -1.9200 -1.0483
  820SOL    HW2 3360   4.291   0.841   1.174 -1.0913 -1.3880  2.0285
  821SOL     OW 3361   6.543   3.280   3.093 -0.1393 -1.1980 -0.1901
  821SOL    HW1 3362   6.624   3.308   3.041 -1.2684  0.8215 -1.0113
  821SOL    HW2 3363   6.479   3.234   3.031 -0.5213 -0.8292 -0.0736
  822SOL     OW 3364   5.392   3.485   0.453 -0.0600 -0.0842  0.0412
  822SOL    HW1 3365   5.297   3.515   0.466  0.1790  0.2660  1.0406
  822SOL    HW2 3366   5.440   3.489   0.540  1.6308  2.3372 -0.8997
  823SOL     OW 3367   5.494   5.344   6.043  0.3484 -0.7555  0.4634
  823SOL    HW1 3368   5.467   5.307   5.954 -0.9892  2.1699 -0.4621
  823SOL    HW2 3369   5.453   5.289   6.116 -1.9012 -0.8770 -0.8232
  824SOL     OW 3370   2.402   2.575   4.172  0.4621  0.1942  0.7312
  824SOL    HW1 3371   2.441   2.592   4.262 -0.1144 -1.3973  1.3290
  824SOL    HW2 3372   2.468   2.523   4.117  0.7674  1.0613  0.2696
  825SOL     OW 3373   4.031   1.399   1.318 -0.5741  0.8525  0.1388
  825SOL    HW1 3374   4.020   1.401   1.219  0.3437 -0.1942 -0.0109
  825SOL    HW2 3375   3.949   1.360   1.360 -0.1109 -0.8311 -0.4209
  826SOL     OW 3376   1.486   4.284   0.733  0.1091  0.1221 -0.0216
  826SOL    HW1 3377   1.528   4.364   0.775  0.8936 -0.8340  1.0596
  826SOL    HW2 3378   1.505   4.284   0.635 -1.2661  2.0812 -0.3310
  827SOL     OW 3379   6.170   3.066   5.860 -0.5198  0.7874 -0.3670
  827SOL    HW1 3380   6.205   2.983   5.816 -1.3071 -0.0609  0.5584
  827SOL    HW2 3381   6.226   3.087   5.940  0.5683  2.0086 -1.4026
  828SOL     OW 3382   0.616   5.338   2.357  0.2666  0.3558  0.0388
  828SOL    HW1 3383   0.678   5.377   2.289  0.9823  1.1607  1.1005
  828SOL    HW2 3384   0.525   5.328   2.318  0.0120  3.1796 -0.3207
  829SOL     OW 3385   4.063   3.247   0.271  0.2742  0.1024 -0.0009
  829SOL    HW1 3386   3.980   3.204   0.304  0.8769 -0.6764  0.5279
  829SOL    HW2 3387   4.108   3.187   0.204  0.3581  0.5562 -0.3550
  830SOL     OW 3388   0.478   0.163   6.413 -0.0420  0.0147 -0.3330
  830SOL    HW1 3389   0.459   0.247   6.362 -1.1171 -1.5979 -2.7888
  830SOL    HW2 3390   0.394   0.131   6.456  0.6500  0.8292  1.7395
  831SOL     OW 3391   0.201   0.464   2.676  0.1642  0.1956  0.5129
  831SOL    HW1 3392   0.288   0.509   2.696  0.6051 -0.8142  0.9450
  831SOL    HW2 3393   0.153   0.514   2.605  1.4683  0.3319 -0.3027
  832SOL     OW 3394   0.432   1.120   1.403 -0.0826 -0.2598 -1.1184
  832SOL    HW1 3395   0.448   1.035   1.454 -0.2722 -0.4843 -1.4310
  832SOL    HW2 3396   0.441   1.198   1.465 -1.0064 -0.5647 -0.5799
  833SOL     OW 3397   5.160   0.328   6.851 -0.1552 -0.0578 -0.5133
  833SOL    HW1 3398   5.111   0.249   6.814  0.1267 -0.1585 -0.6717
  833SOL    HW2 3399   5.247   0.299   6.889 -1.0517 -0.2015  1.5834
  834SOL     OW 3400   6.031   1.699   5.724 -0.1514  0.0745  0.2469
  834SOL    HW1 3401   5.999   1.649   5.805 -0.5544 -1.0518 -0.5723
  834SOL    HW2 3402   6.128   1.679   5.709 -0.2461 -0.2622  0.0721
  835SOL     OW 3403   0.065   1.931   2.239  0.3749 -0.5390  0.5509
  835SOL    HW1 3404  -0.025   1.912   2.200  1.0613 -0.5039 -1.1220
  835SOL    HW2 3405   0.054   1.983   2.324 -1.3229 -3.3019  2.2122
  836SOL     OW 3406   6.187   1.043   1.180 -0.2586 -0.2863  0.3732
  836SOL    HW1 3407   6.233   1.051   1.092 -0.5136  0.7533  0.3190
  836SOL    HW2 3408   6.255   1.029   1.252 -0.0262 -0.8191  0.0499
  837SOL     OW 3409   3.027   3.402   3.699  0.1034  0.0608 -0.3906
  837SOL    HW1 3410   3.092   3.458   3.751  0.0437 -1.2693  1.1948
  837SOL    HW2 3411   3.075   3.323   3.661 -0.1027  0.3947 -1.3500
  838SOL     OW 3412   3.286   3.268   2.633  0.2389 -0.0505 -0.1747
  838SOL    HW1 3413   3.270   3.186   2.687  2.3813  0.5450  1.5166
  838SOL    HW2 3414   3.379   3.266   2.596 -0.6195  0.3497 -2.5303
  839SOL     OW 3415   6.232   3.841   6.422  0.5179 -0.2848  0.3025
  839SOL    HW1 3416   6.290   3.920   6.405 -0.1489  0.0043 -0.7254
  839SOL    HW2 3417   6.180   3.855   6.506  1.1002 -0.0622  0.6336
  840SOL     OW 3418   6.863   1.226   1.852  0.4065 -0.0565 -0.0169
  840SOL    HW1 3419   6.903   1.304   1.900 -0.3814 -0.5571  1.5427
  840SOL    HW2 3420   6.845   1.152   1.918 -0.9746 -0.6787 -1.0368
  841SOL     OW 3421   6.716   2.808   5.784 -0.2150 -0.1685 -0.5840
  841SOL    HW1 3422   6.774   2.746   5.731  0.2472 -0.9953  0.8525
  841SOL    HW2 3423   6.654   2.755   5.841  0.6035  0.6547  1.1259
  842SOL     OW 3424   4.820   2.002   6.899 -0.3312  0.0833 -0.2558
  842SOL    HW1 3425   4.869   1.928   6.945 -0.8572 -0.8363 -1.1226
  842SOL    HW2 3426   4.885   2.073   6.873  0.0021  0.5452  1.6851
  843SOL     OW 3427   1.145   1.555   0.821  0.3308 -0.4237 -0.4762
  843SOL    HW1 3428   1.184   1.514   0.739  2.6849 -0.2803  0.5175
  843SOL    HW2 3429   1.216   1.567   0.890 -1.3798  0.4083  1.2304
  844SOL     OW 3430   2.730   0.379   6.310 -0.4480  0.2491 -0.3128
  844SOL    HW1 3431   2.643   0.341   6.340 -0.0661 -1.0641 -0.8108
  844SOL    HW2 3432   2.743   0.469   6.352 -1.9288  0.3696 -0.0622
  845SOL     OW 3433   2.860   3.418   1.649 -0.3063  0.5147  0.2721
  845SOL    HW1 3434   2.852   3.370   1.736 -1.7583  0.0911 -0.0670
  845SOL    HW2 3435   2.861   3.516   1.665  0.2503  0.4345  0.8025
  846SOL     OW 3436   5.385   6.388   1.873  0.9214  0.4576  0.3280
  846SOL    HW1 3437   5.468   6.435   1.844  0.3367  1.7417  0.6723
  846SOL    HW2 3438   5.402   6.289   1.877  1.6386  0.3802 -2.3320
  847SOL     OW 3439   0.631   3.194   1.639  0.6284  0.4968  0.2232
  847SOL    HW1 3440   0.705   3.227   1.581 -1.0666  1.1068 -1.7021
  847SOL    HW2 3441   0.669   3.138   1.713  2.8651 -0.7589 -1.7391
  848SOL     OW 3442   6.843   2.636   5.596  0.3263  0.4536  0.0071
  848SOL    HW1 3443   6.921   2.636   5.534  0.3593  1.0375  0.0448
  848SOL    HW2 3444   6.759   2.654   5.545  0.3045  0.5477  0.0759
  849SOL     OW 3445   6.227   2.428   5.424 -0.3730 -0.2920 -0.1996
  849SOL    HW1 3446   6.248   2.522   5.399 -0.1427 -0.3132 -0.0843
  849SOL    HW2 3447   6.137   2.424   5.468 -0.5694 -0.1877 -0.5874
  850SOL     OW 3448   5.962   2.107   5.311 -0.2684 -0.5646 -0.7001
  850SOL    HW1 3449   6.026   2.142   5.242 -0.8418  1.5041 -0.2359
  850SOL    HW2 3450   5.868   2.117   5.278 -0.4685 -2.0257 -0.6690
  851SOL     OW 3451   4.281   1.849   0.718  0.1347  0.2680 -0.5845
  851SOL    HW1 3452   4.293   1.895   0.630 -1.1460  0.6940 -0.5573
  851SOL    HW2 3453   4.184   1.848   0.742  0.5142  0.6605  1.0903
  852SOL     OW 3454   1.572   0.314   6.134 -0.1519  0.3028  0.0251
  852SOL    HW1 3455   1.496   0.281   6.079  1.7317 -2.1733 -1.2760
  852SOL    HW2 3456   1.655   0.318   6.078  1.2491  0.3900  2.0042
  853SOL     OW 3457   1.687   1.992   4.192 -0.1197  0.4692 -0.3039
  853SOL    HW1 3458   1.611   1.928   4.177 -1.3942  2.2845 -2.0019
  853SOL    HW2 3459   1.673   2.042   4.277  0.4714 -0.8763  0.6203
  854SOL     OW 3460   6.609   4.971   0.486  0.1005  0.1980 -0.0583
  854SOL    HW1 3461   6.650   4.950   0.575 -1.0775  0.0937  0.4808
  854SOL    HW2 3462   6.639   4.903   0.419  2.4390  1.2880 -0.2252
  855SOL     OW 3463   3.870   2.073   0.194  0.2209  0.2612 -0.0941
  855SOL    HW1 3464   3.967   2.086   0.173  0.4222 -0.1154  0.5468
  855SOL    HW2 3465   3.816   2.081   0.111  0.9156 -0.5883 -0.6451
  856SOL     OW 3466   5.315   0.621   5.973  0.1421 -0.0677  0.5195
  856SOL    HW1 3467   5.399   0.673   5.987  0.9091 -1.0372 -0.3660
  856SOL    HW2 3468   5.331   0.524   5.992 -0.6730 -0.3157  0.0275
  857SOL     OW 3469   2.237   2.638   1.035  0.1105 -0.3357  0.3346
  857SOL    HW1 3470   2.336   2.630   1.038  0.0385 -1.1794  0.6160
  857SOL    HW2 3471   2.208   2.719   1.086  0.6275 -0.3193  0.6038
  858SOL     OW 3472   6.004   2.570   5.183  0.1798 -0.3780 -0.2633
  858SOL    HW1 3473   6.071   2.582   5.110  1.2386 -1.0193  0.5606
  858SOL    HW2 3474   6.036   2.619   5.265 -0.0089 -1.2425  0.3455
  859SOL     OW 3475   5.907   6.358   6.306 -0.0412 -0.2216  0.1014
  859SOL    HW1 3476   5.896   6.451   6.342 -0.7662 -0.1256 -0.3501
  859SOL    HW2 3477   5.939   6.298   6.379  0.7833  0.4472  0.3152
  860SOL     OW 3478   5.136   5.372   3.464  0.5186 -0.0523  0.6326
  860SOL    HW1 3479   5.100   5.292   3.511 -1.7110 -0.3565 -1.4288
  860SOL    HW2 3480   5.166   5.348   3.372  1.9351  1.0967  0.7439
  861SOL     OW 3481   6.681   3.968   3.511 -0.0304  0.1048  0.1901
  861SOL    HW1 3482   6.734   3.891   3.476  1.1987  1.0700 -0.1134
  861SOL    HW2 3483   6.700   3.980   3.608  0.8033  0.8296 -0.0530
  862SOL     OW 3484   4.907   4.190   5.337 -0.1098 -0.2464 -0.3232
  862SOL    HW1 3485   4.934   4.160   5.245  2.1175 -1.4606  0.6349
  862SOL    HW2 3486   4.970   4.261   5.368  0.2126 -1.0332  0.8866
  863SOL     OW 3487   3.735   2.656   0.372 -0.7571 -0.6704 -0.1879
  863SOL    HW1 3488   3.646   2.677   0.333 -1.0112  0.0098  0.7356
  863SOL    HW2 3489   3.725   2.638   0.470  0.1842 -0.0939  0.0254
  864SOL     OW 3490   4.926   4.969   3.542  0.3425 -0.0988 -0.0461
  864SOL    HW1 3491   5.008   5.020   3.568  1.2507 -1.1814 -0.6941
  864SOL    HW2 3492   4.904   4.988   3.447 -0.3046  0.3661  0.1935
  865SOL     OW 3493   1.259   6.300   0.052 -0.0047  0.7884 -0.1272
  865SOL    HW1 3494   1.330   6.243   0.010 -0.6300  0.0227 -0.1687
  865SOL    HW2 3495   1.169   6.272   0.019 -0.2960  2.1642 -0.5429
  866SOL     OW 3496   0.483   4.603   5.149 -0.5332 -0.2712  0.4619
  866SOL    HW1 3497   0.579   4.613   5.123 -0.7631  1.0060  0.0305
  866SOL    HW2 3498   0.426   4.605   5.067 -1.0875  1.3288  0.8500
  867SOL     OW 3499   2.440   1.796   5.861 -0.3394 -0.3274  0.0993
  867SOL    HW1 3500   2.445   1.868   5.792 -0.4766  0.0368  0.4653
  867SOL    HW2 3501   2.375   1.726   5.832 -0.2200 -0.2952 -0.2499
  868SOL     OW 3502   0.107   4.045   5.357 -0.6018  0.1468 -0.0867
  868SOL    HW1 3503   0.078   4.107   5.284  1.1219  1.1399 -0.0072
  868SOL    HW2 3504   0.142   3.960   5.318 -0.2460  0.4340 -0.4054
  869SOL     OW 3505   0.543   5.055   1.314 -0.2815 -1.0662 -0.0025
  869SOL    HW1 3506   0.585   4.968   1.339  0.7731 -0.6685 -0.3181
  869SOL    HW2 3507   0.508   5.051   1.221 -0.8163 -1.3533  0.2092
  870SOL     OW 3508   3.352   5.324   3.676 -0.2265 -0.1455  0.1770
  870SOL    HW1 3509   3.435   5.343   3.624 -0.4298  0.9913  0.2519
  870SOL    HW2 3510   3.286   5.398   3.663 -1.0173 -0.7644  0.5588
  871SOL     OW 3511   4.298   0.347   5.208 -0.5648  0.8352  0.3405
  871SOL    HW1 3512   4.376   0.329   5.148 -0.4183 -0.0392  0.7690
  871SOL    HW2 3513   4.257   0.260   5.236 -1.0542  1.2495  0.9481
  872SOL     OW 3514   4.415   4.858   5.608 -0.1262  0.5678  0.1491
  872SOL    HW1 3515   4.399   4.776   5.661  0.6765  0.3445  0.0483
  872SOL    HW2 3516   4.338   4.873   5.545 -0.5554  0.2372  0.5971
  873SOL     OW 3517   3.261   2.962   3.939  0.8642 -0.2642  0.3309
  873SOL    HW1 3518   3.326   2.891   3.909  1.6885  0.0573  1.3226
  873SOL    HW2 3519   3.189   2.971   3.870  0.4743 -2.3871  0.3777
  874SOL     OW 3520   1.567   5.794   5.509  0.3300 -0.4508  0.4305
  874SOL    HW1 3521   1.489   5.739   5.537 -0.7179  0.3597 -0.8000
  874SOL    HW2 3522   1.599   5.763   5.420  0.8916 -0.2352  0.5522
  875SOL     OW 3523   6.881   5.525   1.075 -0.0136 -0.2148  0.2665
  875SOL    HW1 3524   6.863   5.516   1.173  0.4179 -0.9225  0.2860
  875SOL    HW2 3525   6.809   5.580   1.033 -1.0284 -1.1479  0.7258
  876SOL     OW 3526   0.635   0.425   2.503 -0.0866 -0.3660  0.2226
  876SOL    HW1 3527   0.690   0.417   2.420 -1.2155 -0.3153 -0.5607
  876SOL    HW2 3528   0.557   0.485   2.485  1.9549  3.3076  2.6005
  877SOL     OW 3529   2.685   5.009   4.850 -0.4280  0.8691  0.0613
  877SOL    HW1 3530   2.594   5.022   4.890 -0.6656  1.3069 -0.6177
  877SOL    HW2 3531   2.693   5.063   4.767  0.1140  0.0687 -0.4144
  878SOL     OW 3532   3.445   2.051   2.651  0.0887 -0.1674 -0.0420
  878SOL    HW1 3533   3.511   2.013   2.587  0.2161 -1.7726  0.9945
  878SOL    HW2 3534   3.493   2.098   2.725 -0.0121  0.4278 -0.3483
  879SOL     OW 3535   6.794   3.235   2.137 -0.1712  0.6542 -0.1467
  879SOL    HW1 3536   6.836   3.160   2.085  1.3698  1.0574  0.4842
  879SOL    HW2 3537   6.852   3.316   2.132  0.6163  0.3953  3.0653
  880SOL     OW 3538   1.760   1.549   2.536  0.1512 -0.3463 -0.0872
  880SOL    HW1 3539   1.782   1.636   2.492  0.0060 -1.1541 -1.8202
  880SOL    HW2 3540   1.701   1.566   2.615 -1.3864  1.0103 -1.4494
  881SOL     OW 3541   2.212   6.816   4.242 -0.0025  0.5560  0.2614
  881SOL    HW1 3542   2.306   6.837   4.215 -0.2399  2.3649  0.7347
  881SOL    HW2 3543   2.198   6.841   4.337 -0.8394 -0.1789  0.3454
  882SOL     OW 3544   6.891   6.839   2.306  0.3755 -0.3913  0.2270
  882SOL    HW1 3545   6.935   6.755   2.338  0.0042  0.0905  2.1099
  882SOL    HW2 3546   6.796   6.819   2.280  0.5413 -0.7012 -0.1508
  883SOL     OW 3547   6.487   2.727   6.855  0.2907  0.3668  0.1256
  883SOL    HW1 3548   6.526   2.694   6.769 -0.1852  0.7143 -0.2291
  883SOL    HW2 3549   6.540   2.691   6.932 -0.1178 -1.1195 -0.2389
  884SOL     OW 3550   6.709   2.007   6.455  0.4159  0.3310  0.3256
  884SOL    HW1 3551   6.619   2.012   6.497 -0.0927 -0.0643 -0.6826
  884SOL    HW2 3552   6.735   1.911   6.443  0.5548  0.4331 -0.2426
  885SOL     OW 3553   1.078   6.795   1.797  0.0599 -0.0422  0.2867
  885SOL    HW1 3554   1.128   6.811   1.712  2.4979 -1.7928  1.2640
  885SOL    HW2 3555   1.009   6.724   1.782 -0.0759  0.2236 -0.3916
  886SOL     OW 3556   3.119   4.980   5.300  0.2752 -0.2913  0.2644
  886SOL    HW1 3557   3.035   5.032   5.314  0.4251  0.0085  0.0600
  886SOL    HW2 3558   3.112   4.892   5.348  0.5618  0.4877  1.8164
  887SOL     OW 3559   5.368   5.706   4.730 -0.4514 -0.7964 -0.0916
  887SOL    HW1 3560   5.348   5.780   4.666  0.8369 -1.2977 -1.1176
  887SOL    HW2 3561   5.465   5.682   4.724 -0.5425 -1.5892  1.2824
  888SOL     OW 3562   6.523   3.242   2.192 -0.1569 -0.7545 -0.3869
  888SOL    HW1 3563   6.619   3.257   2.169 -0.2076 -1.0612 -0.8056
  888SOL    HW2 3564   6.468   3.249   2.109 -0.5021 -0.5444 -0.1425
  889SOL     OW 3565   6.847   5.233   5.999  0.5043  0.0481  0.2202
  889SOL    HW1 3566   6.771   5.255   6.059  0.8657  1.4957  0.1930
  889SOL    HW2 3567   6.814   5.185   5.918  0.0195 -1.9491  1.5511
  890SOL     OW 3568   6.597   1.441   2.985  0.0493  0.0388 -0.2348
  890SOL    HW1 3569   6.500   1.442   2.958  0.4597  1.0783 -1.7986
  890SOL    HW2 3570   6.647   1.510   2.932  1.9268 -1.4115 -0.4496
  891SOL     OW 3571   2.620   0.107   3.239  0.0325  0.2495 -0.1500
  891SOL    HW1 3572   2.611   0.022   3.188 -2.5303  1.1606 -1.4108
  891SOL    HW2 3573   2.661   0.177   3.180  0.6910  0.3119  0.3691
  892SOL     OW 3574   1.459   2.638   2.722 -0.2006  0.2358  0.2118
  892SOL    HW1 3575   1.472   2.596   2.812 -0.7022 -1.8091 -0.6238
  892SOL    HW2 3576   1.542   2.624   2.667 -0.7457 -0.5868 -0.4149
  893SOL     OW 3577   1.099   3.084   6.214  0.1469 -0.1674  0.1681
  893SOL    HW1 3578   1.175   3.138   6.178  0.5012 -0.2817  0.7239
  893SOL    HW2 3579   1.045   3.141   6.277  0.0300 -0.2167  0.1129
  894SOL     OW 3580   3.783   6.042   5.173  0.8768  0.2857 -0.0907
  894SOL    HW1 3581   3.803   5.989   5.255  2.5182  1.3602  0.2473
  894SOL    HW2 3582   3.685   6.036   5.153  1.0766 -3.6856 -0.7073
  895SOL     OW 3583   5.019   5.563   6.925 -0.4316  0.7116 -0.4578
  895SOL    HW1 3584   5.009   5.655   6.888 -0.0181  0.5250 -1.0610
  895SOL    HW2 3585   5.114   5.547   6.950 -0.7987  1.0361  1.2827
  896SOL     OW 3586   2.353   5.927   4.144 -0.0317  0.3978  0.3407
  896SOL    HW1 3587   2.307   5.939   4.056 -0.7003 -0.2695  0.5862
  896SOL    HW2 3588   2.384   5.832   4.153 -1.3137  0.0422  1.4267
  897SOL     OW 3589   0.876   4.742   5.904  0.1581 -0.0291  0.1250
  897SOL    HW1 3590   0.907   4.771   5.995  0.3848  0.2053 -0.0256
  897SOL    HW2 3591   0.833   4.652   5.911 -1.9159  0.9294  0.8805
  898SOL     OW 3592   2.204   4.425   5.168  0.0344  0.0092 -0.2959
  898SOL    HW1 3593   2.267   4.492   5.129  0.0764 -0.2344 -0.6520
  898SOL    HW2 3594   2.244   4.334   5.163 -0.4617 -0.1887 -0.7878
  899SOL     OW 3595   2.781   0.285   6.701 -0.2884 -0.3020 -0.2249
  899SOL    HW1 3596   2.815   0.267   6.608  0.3373  0.8678 -0.2477
  899SOL    HW2 3597   2.817   0.216   6.764  1.5245  0.4469 -0.3947
  900SOL     OW 3598   3.575   0.743   3.374  0.5708  0.3015 -0.3060
  900SOL    HW1 3599   3.484   0.743   3.415 -0.4221  1.1483 -2.4085
  900SOL    HW2 3600   3.643   0.722   3.445 -1.2853 -1.0854  1.1662
  901SOL     OW 3601   1.237   4.338   4.963  0.0735 -0.5414  0.2065
  901SOL    HW1 3602   1.170   4.332   4.889 -0.6294  1.1529  0.6541
  901SOL    HW2 3603   1.197   4.303   5.048  0.0186 -0.2635  0.2980
  902SOL     OW 3604   0.223   0.939   3.044  0.4197  0.1068 -0.1291
  902SOL    HW1 3605   0.296   0.883   3.005  1.1963  1.8259 -1.2526
  902SOL    HW2 3606   0.198   1.012   2.980 -0.8576  0.7898  1.0843
  903SOL     OW 3607   1.674   3.135   0.102 -0.0536 -0.2592  0.3967
  903SOL    HW1 3608   1.726   3.216   0.131  0.0716 -0.5730  1.0780
  903SOL    HW2 3609   1.737   3.064   0.072 -0.0643 -0.6733  1.3099
  904SOL     OW 3610   0.627   2.104   2.273 -0.4987  0.9448 -0.1767
  904SOL    HW1 3611   0.680   2.141   2.350  0.4181 -1.5532  0.4834
  904SOL    HW2 3612   0.534   2.085   2.303  0.1310 -0.9797  0.6793
  905SOL     OW 3613   4.048   6.482   2.602  0.2986 -0.2334  0.3792
  905SOL    HW1 3614   4.085   6.479   2.509  1.7046  0.9403  0.8616
  905SOL    HW2 3615   4.030   6.389   2.634  0.2131 -0.6707 -0.9000
  906SOL     OW 3616   4.409   1.592   1.905 -0.1004 -0.9792 -0.8649
  906SOL    HW1 3617   4.333   1.633   1.954  1.8296 -1.1118  2.5434
  906SOL    HW2 3618   4.413   1.630   1.812 -3.5809 -0.2124 -0.8375
  907SOL     OW 3619   2.208   3.174   6.230  0.0179 -0.3875  0.4656
  907SOL    HW1 3620   2.229   3.094   6.286 -0.3789 -0.7292  0.1322
  907SOL    HW2 3621   2.273   3.247   6.251  0.3180 -0.7575  0.8486
  908SOL     OW 3622   6.231   2.799   6.950  0.0970 -0.2330 -0.7924
  908SOL    HW1 3623   6.149   2.750   6.920  0.4784 -0.9878 -0.6176
  908SOL    HW2 3624   6.312   2.744   6.930  0.3583 -1.1669  2.3106
  909SOL     OW 3625   4.865   0.132   4.931 -0.3408 -0.6161  0.1923
  909SOL    HW1 3626   4.787   0.069   4.926 -0.3129 -0.6725  0.4323
  909SOL    HW2 3627   4.867   0.189   4.850 -0.7808 -0.4461  0.2965
  910SOL     OW 3628   2.775   1.967   2.638 -0.2662 -0.2191 -0.7801
  910SOL    HW1 3629   2.786   2.000   2.544  0.4911  0.7577 -0.3750
  910SOL    HW2 3630   2.699   2.016   2.682  0.4164  0.5269 -0.3944
  911SOL     OW 3631   1.210   1.263   1.850 -0.1125 -0.3670 -0.2407
  911SOL    HW1 3632   1.134   1.303   1.800 -1.2893 -0.4124  1.4257
  911SOL    HW2 3633   1.296   1.304   1.820 -0.6644 -0.9630 -2.8034
  912SOL     OW 3634   6.485   3.632   3.934 -0.7255 -0.4100  0.3560
  912SOL    HW1 3635   6.524   3.596   3.849 -0.3755 -0.7432  0.6518
  912SOL    HW2 3636   6.534   3.593   4.012  2.1563  3.3885  0.7427
  913SOL     OW 3637   3.330   0.775   3.486  0.9895  0.4771 -0.3006
  913SOL    HW1 3638   3.232   0.769   3.506  0.9570 -1.1034 -0.7524
  913SOL    HW2 3639   3.353   0.868   3.457 -0.4903  0.7230 -0.7750
  914SOL     OW 3640   1.216   1.930   1.905 -0.0927  0.0546 -0.6254
  914SOL    HW1 3641   1.195   1.834   1.887  0.2100 -0.4395  1.3505
  914SOL    HW2 3642   1.136   1.986   1.884 -0.6214 -0.7614 -0.8520
  915SOL     OW 3643   5.052   3.835   1.915 -0.6120  0.0875 -0.2784
  915SOL    HW1 3644   5.039   3.769   1.989 -0.1168 -0.6002 -0.7969
  915SOL    HW2 3645   5.148   3.839   1.889 -0.5035  1.5666  0.2356
  916SOL     OW 3646   2.529   5.953   3.669 -0.9352 -0.3353  0.0280
  916SOL    HW1 3647   2.538   5.896   3.750  0.6102  0.2690  0.3073
  916SOL    HW2 3648   2.439   5.998   3.670 -1.4118 -1.2752  0.7560
  917SOL     OW 3649   3.426   1.593   4.934  0.3298  0.1992 -0.4740
  917SOL    HW1 3650   3.482   1.675   4.947 -0.2526  0.7801 -1.5688
  917SOL    HW2 3651   3.352   1.612   4.870  1.0901 -1.6020 -1.9941
  918SOL     OW 3652   4.102   1.018   2.841  0.1872  0.4548 -0.0818
  918SOL    HW1 3653   4.043   1.035   2.762  1.4687 -1.3856 -1.5286
  918SOL    HW2 3654   4.166   0.944   2.819  0.9082  0.2100  2.5416
  919SOL     OW 3655   5.622   3.519   6.742 -0.5691  0.0353 -0.9032
  919SOL    HW1 3656   5.681   3.593   6.709 -1.3208  0.4270 -1.3961
  919SOL    HW2 3657   5.535   3.521   6.692 -1.5463  0.3242  0.7305
  920SOL     OW 3658   0.988   6.255   6.980 -0.6376 -0.1559 -0.3193
  920SOL    HW1 3659   0.906   6.301   7.014 -1.4225  0.2600 -2.5744
  920SOL    HW2 3660   0.969   6.215   6.890  0.5075 -3.5234  0.7738
  921SOL     OW 3661   2.183   6.671   6.608  0.2625  0.0999 -0.3323
  921SOL    HW1 3662   2.253   6.692   6.540  0.7688  0.6502  0.3418
  921SOL    HW2 3663   2.193   6.734   6.686 -0.9245  0.1282 -0.1914
  922SOL     OW 3664   3.814   1.302   1.434  0.0402  0.0072 -0.1557
  922SOL    HW1 3665   3.724   1.277   1.401 -0.0041 -0.2451  0.1517
  922SOL    HW2 3666   3.812   1.309   1.534 -0.1132  1.8329 -0.2445
  923SOL     OW 3667   0.917   1.292   2.219  0.5710 -0.1796 -0.6024
  923SOL    HW1 3668   0.916   1.357   2.295  1.3690 -1.1523  0.2638
  923SOL    HW2 3669   0.989   1.224   2.234 -0.4227 -1.4432 -1.3468
  924SOL     OW 3670   1.840   0.754   5.968  0.0550  0.7507 -0.2467
  924SOL    HW1 3671   1.812   0.813   5.893  2.2481  0.1881 -1.6197
  924SOL    HW2 3672   1.935   0.726   5.954 -0.4931 -2.0563  1.0336
  925SOL     OW 3673   1.951   4.708   1.572 -0.3313 -0.5938  0.4419
  925SOL    HW1 3674   1.914   4.797   1.547  2.1357  0.9893  2.0057
  925SOL    HW2 3675   1.948   4.697   1.671 -0.5145 -2.2451  0.2870
  926SOL     OW 3676   0.569   6.914   6.459 -0.3279  0.2220 -0.4749
  926SOL    HW1 3677   0.563   7.014   6.457 -0.7888  0.2556  1.2222
  926SOL    HW2 3678   0.648   6.885   6.405 -1.4524  1.3327 -2.8565
  927SOL     OW 3679   0.038   0.001   3.378 -0.7060 -0.0845 -0.0210
  927SOL    HW1 3680   0.074  -0.033   3.291  0.5126  0.9903  0.0411
  927SOL    HW2 3681  -0.034   0.069   3.360  0.6241  1.3099 -0.2537
  928SOL     OW 3682   4.257   4.368   5.869  0.1381 -0.2906  0.0932
  928SOL    HW1 3683   4.338   4.310   5.875  0.1441 -0.3357 -0.3903
  928SOL    HW2 3684   4.235   4.384   5.773 -1.1260 -1.2439  0.2042
  929SOL     OW 3685   3.749   1.543   6.968 -0.5164  0.0580 -0.0814
  929SOL    HW1 3686   3.816   1.614   6.990 -1.6206  0.7816  1.1188
  929SOL    HW2 3687   3.762   1.465   7.028 -0.0734 -0.2605 -0.5837
  930SOL     OW 3688   3.058   3.057   6.695 -0.4724  0.4524  0.1507
  930SOL    HW1 3689   2.961   3.034   6.688 -1.2127  3.5329 -1.2227
  930SOL    HW2 3690   3.085   3.065   6.791 -1.5102 -0.4953  0.5414
  931SOL     OW 3691   0.240   1.295   1.021 -0.3796 -0.2623  0.0967
  931SOL    HW1 3692   0.187   1.345   1.089 -0.4385  0.2358 -0.3057
  931SOL    HW2 3693   0.296   1.225   1.066  2.2266  2.2748  1.1074
  932SOL     OW 3694   3.334   5.057   0.382 -0.5760 -0.6370 -0.1635
  932SOL    HW1 3695   3.434   5.066   0.374 -0.6846 -0.3828 -1.3617
  932SOL    HW2 3696   3.313   5.002   0.463  0.5243 -0.4335  0.2875
  933SOL     OW 3697   6.564   0.725   1.487 -0.1180  0.6378  0.0555
  933SOL    HW1 3698   6.639   0.742   1.423  0.0991  0.0135  0.1388
  933SOL    HW2 3699   6.501   0.658   1.449 -0.7791  1.3408 -0.1215
  934SOL     OW 3700   0.784   4.718   4.956 -0.0044 -0.2130 -0.0942
  934SOL    HW1 3701   0.794   4.640   4.895  0.6544  0.6521 -1.1251
  934SOL    HW2 3702   0.765   4.800   4.902  0.2609  0.5161  0.8912
  935SOL     OW 3703   5.434   1.205   1.590  0.5010 -0.5135  0.1751
  935SOL    HW1 3704   5.388   1.283   1.548 -2.1788 -1.8722  0.3637
  935SOL    HW2 3705   5.392   1.185   1.679  2.8299 -0.6783  1.3224
  936SOL     OW 3706   3.673   5.201   1.938 -0.2943  0.1706  0.0469
  936SOL    HW1 3707   3.720   5.113   1.934 -0.0939  0.2979 -3.0063
  936SOL    HW2 3708   3.616   5.212   1.856 -0.0663  2.9981  0.1645
  937SOL     OW 3709   0.417   2.868   4.358  0.2694 -0.1589  0.0705
  937SOL    HW1 3710   0.353   2.945   4.366  0.9422  0.3739  0.3620
  937SOL    HW2 3711   0.402   2.821   4.270 -0.3707  0.0931  0.0415
  938SOL     OW 3712   0.649   2.592   4.174  0.0880  0.3634 -0.2991
  938SOL    HW1 3713   0.669   2.690   4.171  1.8590  0.0924  1.0272
  938SOL    HW2 3714   0.735   2.541   4.169 -0.8617 -1.1746 -1.8040
  939SOL     OW 3715   1.072   3.943   3.336  0.6457 -0.1013 -0.0282
  939SOL    HW1 3716   1.143   3.911   3.399  0.9574 -1.2241 -0.9183
  939SOL    HW2 3717   1.013   4.009   3.383  2.5625  1.2585  0.5947
  940SOL     OW 3718   6.585   3.688   1.929  0.1481 -0.3137 -0.7615
  940SOL    HW1 3719   6.544   3.776   1.904  2.7073  1.5202  0.9781
  940SOL    HW2 3720   6.592   3.681   2.029  0.4120 -2.3223 -0.8730
  941SOL     OW 3721   1.380   4.599   1.623  0.1211  0.3602  0.0980
  941SOL    HW1 3722   1.316   4.538   1.670 -0.6589 -1.8897 -3.4940
  941SOL    HW2 3723   1.330   4.674   1.580  0.3525  0.4590 -0.0022
  942SOL     OW 3724   3.952   0.071   4.440 -0.8736  0.5005 -0.0528
  942SOL    HW1 3725   3.880   0.093   4.374 -0.1413 -0.2389 -1.1349
  942SOL    HW2 3726   3.915   0.076   4.533 -2.7762 -1.3630 -0.6272
  943SOL     OW 3727   4.621   6.606   5.232  0.0550 -0.0729 -0.0180
  943SOL    HW1 3728   4.600   6.659   5.315 -1.8456 -0.0980 -0.4336
  943SOL    HW2 3729   4.556   6.531   5.223  0.0283  0.1092 -1.6838
  944SOL     OW 3730   6.437   4.247   0.749  0.0846 -0.1229 -0.0358
  944SOL    HW1 3731   6.440   4.285   0.841 -1.3175  1.2200 -0.5056
  944SOL    HW2 3732   6.529   4.223   0.720  0.5737 -0.4392  1.6386
  945SOL     OW 3733   4.992   4.882   5.074 -0.4218  0.0909  0.0763
  945SOL    HW1 3734   4.953   4.936   5.149 -0.0520 -0.8500  0.9631
  945SOL    HW2 3735   4.982   4.784   5.095 -1.5973 -0.2248 -1.7585
  946SOL     OW 3736   2.243   6.813   6.846 -0.6019 -0.5484 -0.1024
  946SOL    HW1 3737   2.223   6.911   6.837  3.6176  0.6443  1.0327
  946SOL    HW2 3738   2.267   6.793   6.941  1.2891 -1.9736 -0.8145
  947SOL     OW 3739   5.015   6.812   2.863  0.0526 -0.6395  0.0277
  947SOL    HW1 3740   4.992   6.785   2.769  1.6812 -0.7163 -0.3666
  947SOL    HW2 3741   5.100   6.864   2.863 -0.0830 -0.3918  1.4421
  948SOL     OW 3742   4.398   0.656   4.345  0.2273  0.3939  0.4087
  948SOL    HW1 3743   4.472   0.596   4.314 -1.2397 -2.4312  2.0658
  948SOL    HW2 3744   4.362   0.707   4.266  1.1771 -1.3113 -1.2162
  949SOL     OW 3745   2.284   4.654   5.025 -0.0423  0.1860  0.1801
  949SOL    HW1 3746   2.230   4.738   5.024 -0.0261  0.2066  1.0021
  949SOL    HW2 3747   2.261   4.599   4.944 -0.0508  0.9726 -0.3673
  950SOL     OW 3748   2.782   0.232   3.022 -0.0198 -0.0473  0.1638
  950SOL    HW1 3749   2.793   0.326   2.991 -0.7666 -0.1177 -0.3239
  950SOL    HW2 3750   2.869   0.182   3.011  0.4132  0.6050  0.5460
  951SOL     OW 3751   6.092   5.461   3.636 -0.1636 -1.1005  0.6262
  951SOL    HW1 3752   6.023   5.458   3.563 -0.3466 -0.9896  0.7956
  951SOL    HW2 3753   6.156   5.536   3.618  0.8325 -2.1273 -0.3588
  952SOL     OW 3754   5.257   3.837   6.639 -0.2164  0.2929 -0.0246
  952SOL    HW1 3755   5.220   3.808   6.550 -0.7193  0.3705  0.1529
  952SOL    HW2 3756   5.307   3.922   6.628  0.8323 -0.3606 -0.4612
  953SOL     OW 3757   0.717   1.790   3.712  0.4634  0.8844 -0.4990
  953SOL    HW1 3758   0.749   1.755   3.800  0.9328 -0.2577 -1.1167
  953SOL    HW2 3759   0.751   1.733   3.638 -2.4182 -0.0187 -1.2735
  954SOL     OW 3760   5.953   0.470   3.017  0.1279 -0.2360  0.4726
  954SOL    HW1 3761   5.889   0.487   3.091 -0.0267  0.0807  0.2656
  954SOL    HW2 3762   5.931   0.383   2.973  0.0434 -0.2852  0.6127
  955SOL     OW 3763   1.077   6.851   4.237 -0.0303  0.0552 -0.1758
  955SOL    HW1 3764   1.172   6.881   4.228  0.1277 -0.2901  0.2954
  955SOL    HW2 3765   1.074   6.751   4.242 -0.2817  0.1163  1.2567
  956SOL     OW 3766   3.687   4.116   4.550  0.0410 -0.5197 -0.0003
  956SOL    HW1 3767   3.732   4.059   4.482 -1.4143 -1.0464 -0.5574
  956SOL    HW2 3768   3.756   4.160   4.607  1.2634 -0.7157 -1.2768
  957SOL     OW 3769   6.324   0.374   0.756 -0.4540 -0.9434  0.2243
  957SOL    HW1 3770   6.375   0.446   0.802  1.3450 -0.1891 -2.7151
  957SOL    HW2 3771   6.233   0.409   0.731 -1.0321 -1.0116  2.0459
  958SOL     OW 3772   3.380   1.182   6.017  0.4256 -0.1361 -0.2010
  958SOL    HW1 3773   3.366   1.103   5.957  0.4153 -0.9708  0.8669
  958SOL    HW2 3774   3.329   1.169   6.102  0.1838  1.1715 -0.1152
  959SOL     OW 3775   2.853   0.249   4.913 -0.3653 -0.3934  0.2609
  959SOL    HW1 3776   2.777   0.314   4.906 -1.0153 -1.3075 -2.3117
  959SOL    HW2 3777   2.939   0.300   4.914 -0.8982  0.5584 -0.2859
  960SOL     OW 3778   2.108   3.400   1.713 -0.0020 -0.0196 -0.4704
  960SOL    HW1 3779   2.174   3.407   1.788  0.1637 -2.1605 -0.3663
  960SOL    HW2 3780   2.017   3.425   1.746 -0.1717 -2.1781  0.8582
  961SOL     OW 3781   0.013   6.922   4.751 -0.2031  0.4124  0.4549
  961SOL    HW1 3782   0.073   6.845   4.772 -0.0579  0.2697 -0.4314
  961SOL    HW2 3783   0.048   7.005   4.793  0.8507  0.4067 -0.3735
  962SOL     OW 3784   0.377   6.930   4.703  0.3366 -0.9437 -0.4734
  962SOL    HW1 3785   0.472   6.949   4.677  0.4608 -0.5398  0.2345
  962SOL    HW2 3786   0.362   6.960   4.797 -0.8173  0.0628 -0.9576
  963SOL     OW 3787   3.520   5.000   5.591  0.8848 -0.0221  0.0769
  963SOL    HW1 3788   3.530   5.031   5.496 -0.4446  0.9300  0.2194
  963SOL    HW2 3789   3.460   5.063   5.641 -0.6913 -1.9802  0.8065
  964SOL     OW 3790   6.747   5.427   4.717  0.0765 -0.0793  0.5797
  964SOL    HW1 3791   6.726   5.373   4.636 -3.2269  0.4580  0.9619
  964SOL    HW2 3792   6.737   5.525   4.696  1.2052  0.1858  1.1516
  965SOL     OW 3793   4.883   3.717   4.433  0.1539  0.1417  0.2387
  965SOL    HW1 3794   4.854   3.631   4.392 -0.8051  0.7380 -0.3877
  965SOL    HW2 3795   4.813   3.787   4.417  0.7240  0.9385  1.0827
  966SOL     OW 3796   1.277   6.444   2.953  0.2347 -0.5795 -0.6419
  966SOL    HW1 3797   1.273   6.406   2.860  0.5253  0.8155 -1.2463
  966SOL    HW2 3798   1.373   6.449   2.982  0.2883  0.6509 -0.9927
  967SOL     OW 3799   1.478   3.368   5.068 -0.0884 -0.1269  0.2812
  967SOL    HW1 3800   1.575   3.392   5.068  0.0781 -0.7126  1.3928
  967SOL    HW2 3801   1.446   3.359   5.163 -0.5268 -2.6654 -0.0388
  968SOL     OW 3802   5.782   1.725   2.192 -0.1937 -0.4195 -0.6109
  968SOL    HW1 3803   5.781   1.706   2.290 -0.4699  0.7686 -0.3660
  968SOL    HW2 3804   5.850   1.667   2.148 -1.1531 -2.0989  0.0234
  969SOL     OW 3805   6.029   5.167   1.756  0.0308  1.0271 -0.2826
  969SOL    HW1 3806   5.991   5.191   1.845  0.4483  0.1590  0.1436
  969SOL    HW2 3807   6.089   5.241   1.724  0.7645  0.8649  0.6792
  970SOL     OW 3808   4.790   1.093   4.947 -0.3739  0.3219 -0.1698
  970SOL    HW1 3809   4.698   1.070   4.980  0.1648 -2.2338 -0.2511
  970SOL    HW2 3810   4.791   1.092   4.847  0.0589 -1.1882 -0.1654
  971SOL     OW 3811   2.244   2.848   2.881  0.5245 -0.2054 -0.1496
  971SOL    HW1 3812   2.245   2.880   2.786  1.1453  0.0997 -0.0436
  971SOL    HW2 3813   2.248   2.926   2.943  1.6605 -0.4532  0.1098
  972SOL     OW 3814   3.946   5.825   4.060  0.5288  0.2688  0.4744
  972SOL    HW1 3815   3.999   5.908   4.075  0.0220  0.7015 -0.0992
  972SOL    HW2 3816   3.878   5.816   4.133  0.0981  0.7473  0.1328
  973SOL     OW 3817   5.209   3.926   2.831 -0.0932  0.4014 -0.1016
  973SOL    HW1 3818   5.266   3.889   2.904 -0.9205 -1.2304 -0.2146
  973SOL    HW2 3819   5.231   3.879   2.745  2.4840  3.8373 -1.5564
  974SOL     OW 3820   5.083   5.621   2.194  0.1295 -0.0691 -0.1999
  974SOL    HW1 3821   5.018   5.677   2.245 -1.6853  0.7179 -3.1118
  974SOL    HW2 3822   5.036   5.541   2.157  0.9316  0.2071 -1.8906
  975SOL     OW 3823   2.994   3.922   1.700  0.4362 -0.4444 -0.1941
  975SOL    HW1 3824   2.912   3.975   1.674 -0.6491 -3.1466 -2.8244
  975SOL    HW2 3825   3.066   3.985   1.729 -1.4836  2.2906 -0.9359
  976SOL     OW 3826   0.223   3.629   0.926  0.0113  0.0191 -0.7353
  976SOL    HW1 3827   0.216   3.727   0.945 -0.1412  0.0783 -1.1115
  976SOL    HW2 3828   0.320   3.603   0.922  0.0516  0.1603 -0.6798
  977SOL     OW 3829   4.168   3.334   1.888 -0.9043  0.5443  0.5382
  977SOL    HW1 3830   4.184   3.393   1.808 -0.0989 -0.1578  0.1687
  977SOL    HW2 3831   4.217   3.248   1.876 -0.0367  0.7775  2.2087
  978SOL     OW 3832   3.918   4.110   5.937 -0.6750 -0.2780 -0.4869
  978SOL    HW1 3833   3.939   4.013   5.944 -2.4261 -0.6702 -0.2180
  978SOL    HW2 3834   3.969   4.161   6.007 -1.5203 -1.3214  0.9312
  979SOL     OW 3835   2.079   6.826   2.680  0.6486 -0.1907  0.6774
  979SOL    HW1 3836   2.077   6.848   2.582 -0.1830 -3.7088 -0.2492
  979SOL    HW2 3837   2.153   6.761   2.698 -0.2394 -0.8808  2.0098
  980SOL     OW 3838   2.009   4.225   6.637 -0.1777  0.3417  0.0860
  980SOL    HW1 3839   2.055   4.314   6.628  0.4838  0.0153  0.1992
  980SOL    HW2 3840   2.067   4.162   6.689 -0.9590  0.0599  0.6369
  981SOL     OW 3841   5.753   1.150   0.013  0.0234 -0.0191  0.5422
  981SOL    HW1 3842   5.707   1.210   0.078  0.9534 -0.6125  1.7841
  981SOL    HW2 3843   5.851   1.149   0.032  0.2662 -0.4824 -0.6521
  982SOL     OW 3844   4.892   1.853   4.106  0.3257 -0.0841  0.0211
  982SOL    HW1 3845   4.974   1.835   4.161 -0.3290 -1.5818  0.5703
  982SOL    HW2 3846   4.813   1.857   4.166 -0.4677 -2.1382 -0.8011
  983SOL     OW 3847   2.705   0.780   6.625  0.0437  0.8804  0.0209
  983SOL    HW1 3848   2.690   0.863   6.572 -1.1132 -0.0610 -1.1923
  983SOL    HW2 3849   2.617   0.737   6.647  0.6460 -0.7810 -0.6334
  984SOL     OW 3850   3.071   2.415   1.401  0.3030  0.3489 -0.2327
  984SOL    HW1 3851   3.034   2.478   1.333  0.3896  1.3516  0.6159
  984SOL    HW2 3852   3.166   2.439   1.421 -0.3220  1.4341  1.7313
  985SOL     OW 3853   6.867   3.815   5.332  0.2919  0.3335 -0.1839
  985SOL    HW1 3854   6.904   3.747   5.395 -0.7282 -1.3113 -1.2653
  985SOL    HW2 3855   6.889   3.788   5.238 -1.8572  0.3827 -0.7417
  986SOL     OW 3856   2.270   6.026   3.632  0.0576 -0.5976  0.0982
  986SOL    HW1 3857   2.233   6.069   3.549  1.3541  1.0512  0.3191
  986SOL    HW2 3858   2.240   6.078   3.712 -3.4563 -3.7045  1.0521
  987SOL     OW 3859   2.854   0.818   0.148 -0.4747  0.0891  0.7946
  987SOL    HW1 3860   2.803   0.853   0.070 -1.3245 -0.7463  0.9610
  987SOL    HW2 3861   2.950   0.807   0.122 -1.1128 -2.3651 -0.9302
  988SOL     OW 3862   0.629   2.271   1.094 -0.0082  0.1164  0.6874
  988SOL    HW1 3863   0.677   2.208   1.156  2.7946  0.5127 -0.8871
  988SOL    HW2 3864   0.624   2.362   1.136 -0.4685 -0.2002  1.3415
  989SOL     OW 3865   3.893   6.072   1.563 -0.3134  0.0925  0.0179
  989SOL    HW1 3866   3.928   6.145   1.622 -2.0595 -1.5436  3.4343
  989SOL    HW2 3867   3.832   6.014   1.617 -1.6359 -1.9634 -3.4120
  990SOL     OW 3868   5.831   2.000   1.377 -0.1460  0.6090 -0.2979
  990SOL    HW1 3869   5.918   2.036   1.344 -0.8343  1.0281 -1.7289
  990SOL    HW2 3870   5.789   1.943   1.306 -1.1398  0.5760  0.2962
  991SOL     OW 3871   4.189   3.473   4.852 -0.5843  0.0428  0.1877
  991SOL    HW1 3872   4.167   3.570   4.847  0.0293  0.1642 -0.3742
  991SOL    HW2 3873   4.265   3.459   4.916  1.5810  0.3902 -2.1490
  992SOL     OW 3874   2.526   2.671   6.442 -0.6416  0.2846 -0.1173
  992SOL    HW1 3875   2.616   2.695   6.404 -0.3231  0.8803  0.9594
  992SOL    HW2 3876   2.526   2.575   6.468  0.0259  0.4897  0.7216
  993SOL     OW 3877   5.074   1.753   1.984 -0.0836  0.0625  0.0168
  993SOL    HW1 3878   5.170   1.778   1.999 -0.4717  1.5033  0.2338
  993SOL    HW2 3879   5.015   1.824   2.022 -1.2385 -0.5673 -0.5573
  994SOL     OW 3880   3.094   4.689   1.268 -0.3559 -0.0756  0.0912
  994SOL    HW1 3881   3.112   4.663   1.363 -0.2289  0.1867  0.1387
  994SOL    HW2 3882   3.164   4.753   1.237 -0.6746  0.2194 -0.0212
  995SOL     OW 3883   6.135   1.344   3.828 -0.3032 -0.7547  0.5004
  995SOL    HW1 3884   6.186   1.384   3.904  0.8126  0.1566 -0.6902
  995SOL    HW2 3885   6.122   1.412   3.756  0.4333 -2.1121 -0.9909
  996SOL     OW 3886   0.614   1.104   0.680 -0.0995 -0.1894  0.8326
  996SOL    HW1 3887   0.562   1.162   0.743 -0.1439 -2.1855  2.7419
  996SOL    HW2 3888   0.670   1.162   0.621 -1.4602  1.8478  1.4104
  997SOL     OW 3889   6.259   1.569   6.362  0.6182 -0.8412 -0.3364
  997SOL    HW1 3890   6.323   1.556   6.438  0.9985  1.2090 -0.2412
  997SOL    HW2 3891   6.198   1.645   6.384  0.8650 -0.0703 -2.1578
  998SOL     OW 3892   6.728   2.885   3.392 -0.3315  0.2952  0.2128
  998SOL    HW1 3893   6.691   2.865   3.301 -1.9722  0.9772  0.6847
  998SOL    HW2 3894   6.808   2.828   3.409 -1.0009 -1.0676 -1.0008
  999SOL     OW 3895   6.951   4.099   0.715 -0.2752 -0.2778  0.2536
  999SOL    HW1 3896   6.866   4.047   0.714 -0.6996  0.3751  1.2945
  999SOL    HW2 3897   7.027   4.039   0.741 -0.7069 -0.4481  1.1320
 1000SOL     OW 3898   3.144   1.726   5.077  0.4838  0.4003  0.3749
 1000SOL    HW1 3899   3.071   1.734   5.144 -0.3529 -0.6095 -0.3843
 1000SOL    HW2 3900   3.121   1.779   4.995 -0.2324 -1.2365 -0.5358
 1001SOL     OW 3901   1.371   4.585   5.403  0.2014  0.0724 -0.2690
 1001SOL    HW1 3902   1.373   4.658   5.335 -0.5281  1.1577  0.8234
 1001SOL    HW2 3903   1.276   4.566   5.428  0.4811  0.0989  0.8622
 1002SOL     OW 3904   6.566   6.039   4.743  1.1336  0.3345 -0.4684
 1002SOL    HW1 3905   6.571   5.954   4.796  2.0709  0.7058  0.0489
 1002SOL    HW2 3906   6.474   6.079   4.754  0.8397 -0.3597 -0.3325
 1003SOL     OW 3907   1.928   3.731   0.245  0.2136  0.0941  0.3027
 1003SOL    HW1 3908   1.901   3.768   0.333  1.0325  1.3566  0.0391
 1003SOL    HW2 3909   2.022   3.698   0.249  0.6611  1.2486 -0.4109
 1004SOL     OW 3910   3.059   3.998   6.563 -0.3406  0.2272 -0.7523
 1004SOL    HW1 3911   3.014   3.932   6.623  0.1217  1.2914  0.8551
 1004SOL    HW2 3912   3.148   3.963   6.535 -0.4671 -0.2039 -0.6197
 1005SOL     OW 3913   1.911   1.274   4.685 -0.2766 -0.1955  0.0701
 1005SOL    HW1 3914   2.006   1.242   4.687 -0.4201 -0.5839  0.6733
 1005SOL    HW2 3915   1.909   1.370   4.656  0.1856 -0.6078 -1.4388
 1006SOL     OW 3916   3.641   0.989   4.201  0.1058 -0.9035  0.0097
 1006SOL    HW1 3917   3.711   1.059   4.203  0.7038 -1.4033 -1.5848
 1006SOL    HW2 3918   3.596   0.983   4.290  0.6152  0.8935  0.4125
 1007SOL     OW 3919   2.445   4.448   6.034  0.1339 -0.4915  0.3517
 1007SOL    HW1 3920   2.465   4.362   6.081  0.3023 -0.7375 -0.1605
 1007SOL    HW2 3921   2.413   4.429   5.941 -0.1120 -0.0106  0.3337
 1008SOL     OW 3922   0.424   1.111   4.461 -0.1205 -0.0480 -0.0833
 1008SOL    HW1 3923   0.419   1.138   4.365  0.9463  0.8836  0.1002
 1008SOL    HW2 3924   0.388   1.184   4.518 -1.1966 -0.7905  0.2223
 1009SOL     OW 3925   4.453   2.529   0.699 -0.0955  0.2740 -0.0997
 1009SOL    HW1 3926   4.474   2.583   0.781 -0.7392  1.7596 -0.8750
 1009SOL    HW2 3927   4.454   2.589   0.619 -0.9516 -0.8635 -0.9870
 1010SOL     OW 3928   4.990   4.927   6.141 -0.1312 -0.1803 -0.5291
 1010SOL    HW1 3929   4.951   4.863   6.207 -1.5924  0.4215 -0.7786
 1010SOL    HW2 3930   5.049   4.877   6.078 -0.0959 -1.0350  0.1604
 1011SOL     OW 3931   0.640   0.872   6.826  0.1623  0.0104  0.0322
 1011SOL    HW1 3932   0.604   0.790   6.783 -0.3221  1.4929 -2.6249
 1011SOL    HW2 3933   0.565   0.937   6.841  0.9228  1.0052 -0.4054
 1012SOL     OW 3934   5.183   5.488   1.498 -0.6636 -0.3971  0.4641
 1012SOL    HW1 3935   5.089   5.521   1.513 -0.1124  1.0911  0.8876
 1012SOL    HW2 3936   5.219   5.528   1.414 -0.1408 -0.3209  0.7214
 1013SOL     OW 3937   0.687   4.570   6.896 -0.7034 -0.0931 -0.7073
 1013SOL    HW1 3938   0.766   4.523   6.858 -0.2332  0.3659 -0.3161
 1013SOL    HW2 3939   0.661   4.526   6.982 -0.3469  0.2721 -0.4097
 1014SOL     OW 3940   3.613   0.455   2.148  0.2020 -0.4244  0.0242
 1014SOL    HW1 3941   3.530   0.481   2.197  0.1065 -0.5083 -0.0953
 1014SOL    HW2 3942   3.621   0.355   2.145  0.4634 -0.4145  0.3024
 1015SOL     OW 3943   1.741   4.410   1.309 -0.2180  0.6868  0.6002
 1015SOL    HW1 3944   1.642   4.424   1.303 -0.2932  0.0027  0.2069
 1015SOL    HW2 3945   1.761   4.347   1.384 -0.1945 -0.2623 -0.1850
 1016SOL     OW 3946   2.043   4.021   6.136 -0.1778 -0.0189  0.2467
 1016SOL    HW1 3947   2.069   4.118   6.135  0.1118 -0.0968  0.0154
 1016SOL    HW2 3948   2.092   3.974   6.209 -0.1849 -0.0291  0.2451
 1017SOL     OW 3949   0.433   2.836   6.304 -0.0347  0.4484  0.1689
 1017SOL    HW1 3950   0.336   2.852   6.284 -0.0513  0.4327  0.2339
 1017SOL    HW2 3951   0.484   2.828   6.219 -0.2114 -0.2843  0.1253
 1018SOL     OW 3952   4.401   2.743   1.582 -0.4906  0.4679 -0.5782
 1018SOL    HW1 3953   4.474   2.795   1.626  1.2356 -1.3174 -1.2072
 1018SOL    HW2 3954   4.432   2.650   1.563 -2.9439 -0.3645 -0.8982
 1019SOL     OW 3955   6.476   1.847   1.550  0.3232  0.2543  0.0002
 1019SOL    HW1 3956   6.381   1.820   1.535 -0.1244  1.4174  0.6144
 1019SOL    HW2 3957   6.508   1.810   1.637 -0.6017  2.3433  1.3191
 1020SOL     OW 3958   3.065   5.131   2.121  0.1474  0.2635  0.2388
 1020SOL    HW1 3959   3.045   5.211   2.064 -0.4334 -0.2366 -0.2932
 1020SOL    HW2 3960   2.979   5.092   2.154  0.4906  0.6404  1.6130
 1021SOL     OW 3961   0.130   5.556   3.250 -0.2824  0.2874  0.1405
 1021SOL    HW1 3962   0.216   5.524   3.210 -0.1108 -0.6374  1.1997
 1021SOL    HW2 3963   0.148   5.632   3.313 -0.5277  1.5944 -1.2954
 1022SOL     OW 3964   0.247   5.347   2.545  0.6029 -0.0881  0.1760
 1022SOL    HW1 3965   0.289   5.268   2.501  2.1817  1.4160 -1.1313
 1022SOL    HW2 3966   0.242   5.423   2.480  0.1968  1.2728  1.7339
 1023SOL     OW 3967   3.239   6.007   3.898 -0.1776  0.0380  0.5951
 1023SOL    HW1 3968   3.198   5.919   3.874 -0.1014  0.3932 -0.9627
 1023SOL    HW2 3969   3.167   6.069   3.931 -0.6305  0.0885 -0.4392
 1024SOL     OW 3970   6.055   1.765   4.137 -0.1164  1.0474  0.2639
 1024SOL    HW1 3971   5.961   1.733   4.149 -0.0046  0.9493  0.9214
 1024SOL    HW2 3972   6.075   1.773   4.039 -0.9995  1.6407  0.1203
 1025SOL     OW 3973   2.573   4.751   6.906 -0.1870 -0.2885 -0.5242
 1025SOL    HW1 3974   2.490   4.744   6.961  0.7028  0.2362  0.9473
 1025SOL    HW2 3975   2.597   4.847   6.895  1.5130 -0.4675  1.1411
 1026SOL     OW 3976   6.488   4.704   1.552 -0.4718  0.5728  0.0357
 1026SOL    HW1 3977   6.547   4.628   1.524 -1.8727 -0.5111 -0.0501
 1026SOL    HW2 3978   6.422   4.724   1.480 -0.7946  1.1745  0.4850
 1027SOL     OW 3979   0.108   0.147   5.543  0.1033 -0.3091  0.1265
 1027SOL    HW1 3980   0.126   0.211   5.469 -0.8486  1.2814  1.1952
 1027SOL    HW2 3981   0.194   0.108   5.576  0.8966  1.5429  0.3833
 1028SOL     OW 3982   6.325   1.578   5.635 -0.3073  0.0274  0.2908
 1028SOL    HW1 3983   6.385   1.514   5.683 -2.0359 -0.0728  2.5052
 1028SOL    HW2 3984   6.255   1.527   5.585 -0.8598  0.1510  0.9263
 1029SOL     OW 3985   6.679   2.479   2.696 -0.1042  0.2652  0.2622
 1029SOL    HW1 3986   6.729   2.557   2.660  1.5098  0.1641  2.1265
 1029SOL    HW2 3987   6.620   2.508   2.771  0.8844 -0.3432  1.3034
 1030SOL     OW 3988   4.971   0.019   1.155  0.7155 -0.3646  0.6800
 1030SOL    HW1 3989   5.016   0.105   1.180  0.2665 -0.6331  2.5442
 1030SOL    HW2 3990   5.023  -0.058   1.192  0.9086 -0.9018 -0.6589
 1031SOL     OW 3991   2.774   2.650   1.420 -0.3165  0.0973  1.0157
 1031SOL    HW1 3992   2.777   2.557   1.457 -0.9017 -0.7852 -1.0306
 1031SOL    HW2 3993   2.679   2.679   1.413 -0.2871 -0.1239 -0.5866
 1032SOL     OW 3994   2.099   0.325   4.531  0.7920  0.0278  0.4677
 1032SOL    HW1 3995   2.076   0.351   4.438 -0.3861  1.3497  1.0868
 1032SOL    HW2 3996   2.168   0.388   4.568  1.6887 -0.8376  0.3270
 1033SOL     OW 3997   0.852   4.361   6.637 -0.0014  0.0881 -0.3847
 1033SOL    HW1 3998   0.882   4.429   6.704 -1.3425  0.8667 -0.5309
 1033SOL    HW2 3999   0.930   4.328   6.585  1.1751 -0.9423  1.8968
 1034SOL     OW 4000   0.080   5.676   2.067  0.1184 -0.3601 -0.0496
 1034SOL    HW1 4001   0.035   5.588   2.049 -0.3664 -0.2152  0.4396
 1034SOL    HW2 4002   0.077   5.732   1.984 -1.5494  0.0614  0.2709
 1035SOL     OW 4003   3.384   3.088   6.152 -0.2884 -0.6308 -0.0171
 1035SOL    HW1 4004   3.300   3.036   6.139 -1.0535  0.8627 -1.4027
 1035SOL    HW2 4005   3.420   3.117   6.063  0.1696  1.0526  0.6688
 1036SOL     OW 4006   1.031   5.078   2.023 -0.4976  0.1812  0.3180
 1036SOL    HW1 4007   1.053   4.981   2.012  1.2605  0.6215 -0.2768
 1036SOL    HW2 4008   0.985   5.111   1.941 -0.1056  0.1177  0.0743
 1037SOL     OW 4009   0.242   3.178   0.806 -0.3675  0.1213 -0.1777
 1037SOL    HW1 4010   0.298   3.215   0.732  1.0582  0.8399  1.1974
 1037SOL    HW2 4011   0.237   3.245   0.881  0.0221 -1.3955  1.2650
 1038SOL     OW 4012   5.176   1.165   3.466 -0.0608  0.4238 -0.1681
 1038SOL    HW1 4013   5.241   1.146   3.393  2.5189 -0.8655  2.2842
 1038SOL    HW2 4014   5.111   1.089   3.472  1.1077 -0.5793  0.2417
 1039SOL     OW 4015   3.524   3.845   4.349  0.4212 -0.6962 -0.0109
 1039SOL    HW1 4016   3.458   3.795   4.405  1.5787 -0.5226  1.5664
 1039SOL    HW2 4017   3.596   3.782   4.319  0.8246 -0.3821  0.3058
 1040SOL     OW 4018   0.133   2.451   5.547  0.6907  0.3193  0.3768
 1040SOL    HW1 4019   0.070   2.494   5.481  0.6888  0.8250  0.6982
 1040SOL    HW2 4020   0.082   2.389   5.606  0.7919 -0.6149 -0.4822
 1041SOL     OW 4021   2.581   4.329   5.799  0.1619  0.0254 -0.5898
 1041SOL    HW1 4022   2.635   4.385   5.862  1.1600 -0.9062 -0.5810
 1041SOL    HW2 4023   2.551   4.385   5.722  1.2170  0.5640 -0.6282
 1042SOL     OW 4024   5.690   6.888   1.695 -0.0083  0.0599 -0.1261
 1042SOL    HW1 4025   5.639   6.870   1.780 -0.6103 -0.6411 -0.6149
 1042SOL    HW2 4026   5.625   6.907   1.621  0.5357  1.5971 -0.2461
 1043SOL     OW 4027   5.554   4.389   4.037 -0.2585 -0.1341  0.3230
 1043SOL    HW1 4028   5.542   4.369   4.134  3.5285  3.1856  1.7623
 1043SOL    HW2 4029   5.606   4.316   3.994 -1.0314 -1.1214  1.0161
 1044SOL     OW 4030   6.866   1.170   5.473  0.1723 -0.2709  0.0904
 1044SOL    HW1 4031   6.905   1.250   5.427  2.5275 -0.2479  1.9341
 1044SOL    HW2 4032   6.891   1.087   5.423  0.6594 -0.0989  0.0484
 1045SOL     OW 4033   5.484   2.124   3.594  0.0468 -0.2427 -0.6730
 1045SOL    HW1 4034   5.455   2.208   3.547  2.5108  1.1403  0.0874
 1045SOL    HW2 4035   5.523   2.060   3.528  2.0748  1.0466 -0.8219
 1046SOL     OW 4036   6.887   4.962   0.967 -0.3299  0.4111 -0.0011
 1046SOL    HW1 4037   6.909   4.976   1.063 -1.4083 -0.7208  0.4528
 1046SOL    HW2 4038   6.942   5.022   0.910  1.2438  0.2164  1.2464
 1047SOL     OW 4039   2.530   4.423   5.523  0.1842 -0.0002 -0.6440
 1047SOL    HW1 4040   2.467   4.359   5.479 -0.6280  1.1316 -1.1633
 1047SOL    HW2 4041   2.584   4.470   5.453 -0.1524  0.8306 -0.3518
 1048SOL     OW 4042   2.211   2.755   4.012  0.0773  0.3682  0.4772
 1048SOL    HW1 4043   2.225   2.834   4.071  2.0295  0.5969 -0.2248
 1048SOL    HW2 4044   2.229   2.671   4.064  1.0639  0.5384  0.4358
 1049SOL     OW 4045   5.211   5.206   0.741  0.1402  0.6388  0.3206
 1049SOL    HW1 4046   5.263   5.129   0.704 -0.3169  0.9339 -1.0056
 1049SOL    HW2 4047   5.272   5.264   0.795  0.9731  0.4257 -0.3512
 1050SOL     OW 4048   1.136   0.963   3.455 -0.4686 -0.1299 -0.3237
 1050SOL    HW1 4049   1.060   0.916   3.500  0.2651  0.2984  1.4914
 1050SOL    HW2 4050   1.201   0.994   3.525  0.2280  1.5364 -1.6476
 1051SOL     OW 4051   6.238   5.163   2.276  0.5592  0.5902  0.1873
 1051SOL    HW1 4052   6.228   5.076   2.325  0.1974  1.6996  2.2184
 1051SOL    HW2 4053   6.151   5.187   2.232  1.0862 -0.7627 -1.7135
 1052SOL     OW 4054   5.144   4.449   3.832  0.1800 -0.2167  0.0513
 1052SOL    HW1 4055   5.115   4.534   3.788 -0.0651 -0.1993  0.2427
 1052SOL    HW2 4056   5.193   4.470   3.916  0.0553 -0.2643  0.1367
 1053SOL     OW 4057   2.486   1.838   4.940 -0.6803  0.2088 -0.3582
 1053SOL    HW1 4058   2.399   1.886   4.936  0.0820  1.8118  1.1313
 1053SOL    HW2 4059   2.557   1.900   4.974  0.8346 -1.3546 -0.5316
 1054SOL     OW 4060   5.581   4.802   0.214  0.3297  0.6933 -0.0449
 1054SOL    HW1 4061   5.567   4.703   0.219 -2.3204  0.8535 -1.8409
 1054SOL    HW2 4062   5.644   4.823   0.139 -1.1906  0.4001 -1.4635
 1055SOL     OW 4063   4.356   4.041   0.932 -0.0342 -0.4342 -0.3005
 1055SOL    HW1 4064   4.386   3.969   0.995  0.6015 -0.1067 -0.2118
 1055SOL    HW2 4065   4.295   4.003   0.863  0.7573 -1.1783 -0.6051
 1056SOL     OW 4066   6.145   2.170   5.107 -0.4539  0.7220  0.5682
 1056SOL    HW1 4067   6.079   2.236   5.072  1.0158  1.3136 -1.2437
 1056SOL    HW2 4068   6.223   2.217   5.147  0.7431  0.1726 -0.9912
 1057SOL     OW 4069   4.394   2.744   5.335 -0.1445 -0.2322  0.1567
 1057SOL    HW1 4070   4.328   2.706   5.270  2.1804 -1.2771 -1.7587
 1057SOL    HW2 4071   4.389   2.693   5.421 -3.4145  1.3023  1.0207
 1058SOL     OW 4072   1.343   0.403   0.867 -0.3001  0.3108  0.0262
 1058SOL    HW1 4073   1.441   0.412   0.848 -0.2480 -0.6235 -0.2086
 1058SOL    HW2 4074   1.300   0.493   0.865  0.5066  0.7012 -0.1340
 1059SOL     OW 4075   4.570   5.119   5.141 -0.1435 -0.4157 -0.7127
 1059SOL    HW1 4076   4.575   5.019   5.144  1.8273 -0.4104 -1.9097
 1059SOL    HW2 4077   4.663   5.156   5.142 -0.8557  1.4340 -0.0210
 1060SOL     OW 4078   3.780   6.237   5.421 -0.3336 -0.3678 -0.1523
 1060SOL    HW1 4079   3.855   6.258   5.483 -0.5224  0.5184 -0.2186
 1060SOL    HW2 4080   3.788   6.142   5.391  1.3896  0.0078 -1.0063
 1061SOL     OW 4081   0.040   2.135   1.470 -0.1731  0.3768  0.5394
 1061SOL    HW1 4082   0.081   2.162   1.557  0.1990 -0.6927  0.7069
 1061SOL    HW2 4083   0.071   2.197   1.398  0.2708  0.6879  0.9930
 1062SOL     OW 4084   0.388   1.565   1.558 -0.0982 -0.0852 -0.2776
 1062SOL    HW1 4085   0.438   1.634   1.610  0.8727 -0.2191 -1.0046
 1062SOL    HW2 4086   0.358   1.604   1.471  0.7710 -0.6637 -0.8509
 1063SOL     OW 4087   0.530   2.739   1.268 -0.2165 -0.4766 -0.0727
 1063SOL    HW1 4088   0.476   2.823   1.275 -0.2108 -0.2907 -1.7516
 1063SOL    HW2 4089   0.582   2.726   1.352  0.4302  1.6840 -0.0644
 1064SOL     OW 4090   1.774   1.116   3.125  0.0679 -0.0285  0.3249
 1064SOL    HW1 4091   1.790   1.098   3.028 -0.6017 -0.4973  0.2927
 1064SOL    HW2 4092   1.746   1.211   3.138 -0.9857 -0.2680 -0.0925
 1065SOL     OW 4093   2.853   4.763   4.331 -0.5727  0.7065  0.1216
 1065SOL    HW1 4094   2.801   4.833   4.282 -1.3439  0.6386  0.8433
 1065SOL    HW2 4095   2.795   4.717   4.397  0.4573  0.8029  1.1287
 1066SOL     OW 4096   3.994   6.958   6.033 -0.2174  0.1788 -0.1893
 1066SOL    HW1 4097   4.093   6.970   6.027 -0.2717  0.7660  0.0605
 1066SOL    HW2 4098   3.959   6.929   5.943  0.4061 -1.8723  0.1799
 1067SOL     OW 4099   4.030   6.907   5.051  0.0657 -0.8683 -0.2609
 1067SOL    HW1 4100   4.071   6.987   5.007  0.0164 -1.0310 -0.6048
 1067SOL    HW2 4101   4.093   6.830   5.046  0.7106 -0.4861  1.3118
 1068SOL     OW 4102   1.511   5.106   2.259  0.5973  0.2774  0.1164
 1068SOL    HW1 4103   1.522   5.012   2.227  0.9568  0.1529  0.5896
 1068SOL    HW2 4104   1.596   5.137   2.303  0.4683  0.8067  0.0005
 1069SOL     OW 4105   1.954   4.962   5.920 -0.6078  0.5456  0.3054
 1069SOL    HW1 4106   1.955   4.977   5.821  0.0228 -1.0046  0.0517
 1069SOL    HW2 4107   1.975   5.048   5.967  3.7875  0.4718 -1.0500
 1070SOL     OW 4108   3.150   3.206   5.253  0.3520  0.0231  0.6377
 1070SOL    HW1 4109   3.246   3.217   5.227 -0.0702  0.1525 -0.9446
 1070SOL    HW2 4110   3.136   3.245   5.345  1.5568  1.1510  0.3768
 1071SOL     OW 4111   1.339   5.445   6.543  0.1087 -0.2254  0.4196
 1071SOL    HW1 4112   1.431   5.433   6.508  0.0093 -0.3270  0.1919
 1071SOL    HW2 4113   1.273   5.403   6.480 -0.1618  0.5748  0.1601
 1072SOL     OW 4114   6.355   6.880   1.413  0.5266  0.0812  0.1412
 1072SOL    HW1 4115   6.342   6.797   1.466 -1.8592  1.0826  1.2534
 1072SOL    HW2 4116   6.324   6.865   1.319 -1.8154  0.1911  0.8316
 1073SOL     OW 4117   6.772   6.617   5.041  0.0510  0.2407  0.2183
 1073SOL    HW1 4118   6.765   6.538   4.979 -1.8108 -0.5604  1.3836
 1073SOL    HW2 4119   6.798   6.586   5.132  0.9181  1.1969  0.3173
 1074SOL     OW 4120   2.318   1.696   0.194 -0.1563 -0.0968  0.3151
 1074SOL    HW1 4121   2.394   1.665   0.138 -0.2874  0.3534 -0.1190
 1074SOL    HW2 4122   2.261   1.759   0.141 -0.5221 -0.0040  0.8129
 1075SOL     OW 4123   2.119   2.324   2.915  0.6290  0.8069 -0.5761
 1075SOL    HW1 4124   2.038   2.339   2.971  1.1722  0.8966  0.2052
 1075SOL    HW2 4125   2.183   2.400   2.928  0.8215  0.7641 -1.2284
 1076SOL     OW 4126   5.422   4.960   0.414 -0.5955  0.7590 -0.4646
 1076SOL    HW1 4127   5.435   5.057   0.391 -0.2370  0.1624 -2.9735
 1076SOL    HW2 4128   5.486   4.904   0.361  0.0329 -0.8278  1.7993
 1077SOL     OW 4129   5.876   0.107   4.344 -0.5484  0.5162 -0.5256
 1077SOL    HW1 4130   5.806   0.045   4.306 -1.5599  1.3326 -0.0415
 1077SOL    HW2 4131   5.951   0.116   4.278 -1.4341  0.5117 -1.5641
 1078SOL     OW 4132   1.396   2.109   4.008  0.4533 -0.2838 -0.0276
 1078SOL    HW1 4133   1.475   2.155   3.966  0.3268 -0.8861 -0.9578
 1078SOL    HW2 4134   1.393   2.131   4.105  1.4158  0.2398 -0.0973
 1079SOL     OW 4135   4.354   5.224   1.412 -0.1104 -0.1945 -0.1891
 1079SOL    HW1 4136   4.387   5.219   1.318  0.6572  0.2741  0.0493
 1079SOL    HW2 4137   4.377   5.140   1.461  0.9449  0.2047  0.0331
 1080SOL     OW 4138   5.672   1.142   5.359 -0.2783  0.0123 -0.1319
 1080SOL    HW1 4139   5.763   1.177   5.335  0.6576 -1.5279  0.9655
 1080SOL    HW2 4140   5.605   1.215   5.349  1.4275  1.8751  1.2465
 1081SOL     OW 4141   0.862   0.250   1.674 -0.3362 -0.1407  0.1011
 1081SOL    HW1 4142   0.947   0.207   1.643 -0.5841 -0.8286  0.3441
 1081SOL    HW2 4143   0.859   0.345   1.643  0.5645 -0.0765  0.1711
 1082SOL     OW 4144   0.464   6.797   0.802 -0.3309  0.0964 -0.1466
 1082SOL    HW1 4145   0.485   6.809   0.899  0.8794 -1.4127 -0.1980
 1082SOL    HW2 4146   0.547   6.810   0.748 -1.0678  1.2854 -1.0469
 1083SOL     OW 4147   6.865   1.425   1.269  0.1537  0.5357 -0.3468
 1083SOL    HW1 4148   6.886   1.377   1.355  1.9782 -1.7692 -1.9276
 1083SOL    HW2 4149   6.777   1.470   1.277 -1.4983 -2.6309  1.6018
 1084SOL     OW 4150   6.555   6.947   6.417  0.0461  0.4257 -0.0860
 1084SOL    HW1 4151   6.587   6.856   6.391 -0.3836  0.6520 -1.5172
 1084SOL    HW2 4152   6.623   7.016   6.390 -0.7336  0.7316 -1.3904
 1085SOL     OW 4153   4.669   5.540   4.581  0.2695  0.1381  0.2262
 1085SOL    HW1 4154   4.648   5.488   4.664  0.8229  1.4869  1.2441
 1085SOL    HW2 4155   4.585   5.565   4.535 -0.0784  0.0645  0.8124
 1086SOL     OW 4156   4.470   1.357   1.333 -0.5001  0.2364  0.3865
 1086SOL    HW1 4157   4.472   1.367   1.234 -0.1916  2.5223  0.5741
 1086SOL    HW2 4158   4.379   1.382   1.367  0.0551  1.7327  0.8405
 1087SOL     OW 4159   2.354   3.516   0.653  0.0178 -0.1770 -0.2788
 1087SOL    HW1 4160   2.383   3.607   0.680  0.0289  0.1965 -1.4877
 1087SOL    HW2 4161   2.433   3.464   0.620  0.4665 -1.4704  2.5105
 1088SOL     OW 4162   4.925   2.960   4.242  0.3136  0.4601 -0.1878
 1088SOL    HW1 4163   4.913   3.025   4.317  0.2849  1.6690 -1.1972
 1088SOL    HW2 4164   4.835   2.941   4.201  0.1038 -1.4399  1.0493
 1089SOL     OW 4165   0.900   0.800   4.037 -0.2055  0.3280 -0.8430
 1089SOL    HW1 4166   0.800   0.807   4.029 -0.3089  0.0909  0.1810
 1089SOL    HW2 4167   0.938   0.780   3.947 -1.1359 -0.1802 -1.1397
 1090SOL     OW 4168   0.864   4.294   5.176  0.3253  0.5919 -0.4320
 1090SOL    HW1 4169   0.825   4.251   5.257  0.8076  1.7584  0.4463
 1090SOL    HW2 4170   0.795   4.298   5.104 -0.4999  0.6421  0.3417
 1091SOL     OW 4171   5.390   1.444   2.710  0.5737 -0.4319  0.3164
 1091SOL    HW1 4172   5.458   1.410   2.644 -1.6196 -0.8179 -1.8567
 1091SOL    HW2 4173   5.302   1.454   2.665 -0.6811  0.7997  2.8724
 1092SOL     OW 4174   5.437   0.195   3.659 -0.4128  0.4086  0.0237
 1092SOL    HW1 4175   5.494   0.123   3.698 -0.2209 -0.7451 -2.2241
 1092SOL    HW2 4176   5.345   0.189   3.697  0.1090  0.2903  1.3300
 1093SOL     OW 4177   2.429   1.119   0.925 -0.1395  0.4483  0.6788
 1093SOL    HW1 4178   2.519   1.081   0.949 -0.4083  0.5252  1.8684
 1093SOL    HW2 4179   2.389   1.065   0.850  0.5099 -0.1336  0.7341
 1094SOL     OW 4180   5.945   3.254   3.066 -0.0502  0.1491 -0.2311
 1094SOL    HW1 4181   5.946   3.285   3.161  2.1008  1.4901 -0.6315
 1094SOL    HW2 4182   5.859   3.281   3.023 -1.1085 -0.5855  1.3155
 1095SOL     OW 4183   4.709   0.344   0.559 -0.2268  0.2643 -0.1487
 1095SOL    HW1 4184   4.618   0.358   0.519 -0.0970  1.1804 -0.1553
 1095SOL    HW2 4185   4.748   0.433   0.582  0.2298 -0.1911  0.8550
 1096SOL     OW 4186   1.287   1.128   0.001 -0.1504 -0.0603 -0.4098
 1096SOL    HW1 4187   1.251   1.208   0.050  0.3414  1.0147 -1.7462
 1096SOL    HW2 4188   1.250   1.045   0.042  0.1327  0.7792  1.7013
 1097SOL     OW 4189   0.280   1.341   4.564 -0.0976  0.1890 -0.2877
 1097SOL    HW1 4190   0.187   1.310   4.542 -1.4559  2.2979  2.0011
 1097SOL    HW2 4191   0.299   1.323   4.660  0.3593  3.1494  0.2469
 1098SOL     OW 4192   0.197   5.514   6.651  0.3446 -0.0668  0.1640
 1098SOL    HW1 4193   0.278   5.470   6.612  1.1694 -0.4768  2.2388
 1098SOL    HW2 4194   0.143   5.446   6.700 -0.8370  0.3794 -0.4818
 1099SOL     OW 4195   2.386   0.961   7.007 -0.5227 -0.7077  0.4334
 1099SOL    HW1 4196   2.344   0.902   6.937  0.7944  2.6456 -3.5502
 1099SOL    HW2 4197   2.314   1.003   7.062 -1.6812 -2.6522  0.4983
 1100SOL     OW 4198   6.186   1.428   4.101  0.1812  0.2088 -0.7221
 1100SOL    HW1 4199   6.255   1.498   4.084 -0.3705  0.7594 -0.7244
 1100SOL    HW2 4200   6.114   1.464   4.160  1.1882 -1.1584  1.4509
 1101SOL     OW 4201   1.058   5.063   7.005  0.2632 -0.0680 -0.0106
 1101SOL    HW1 4202   1.127   5.037   6.937 -0.2279  0.1384 -0.6014
 1101SOL    HW2 4203   0.984   5.112   6.959 -0.0433  0.1320  0.6932
 1102SOL     OW 4204   3.392   2.097   0.103 -0.1996  0.2971  0.3826
 1102SOL    HW1 4205   3.352   2.066   0.189  0.3013 -0.4642  0.3492
 1102SOL    HW2 4206   3.348   2.051   0.026  0.9773 -0.8492  0.3657
 1103SOL     OW 4207   6.132   2.966   4.108  0.4805  0.1781 -0.3940
 1103SOL    HW1 4208   6.144   3.035   4.179  1.4421 -0.8778  0.5157
 1103SOL    HW2 4209   6.211   2.966   4.048  0.7648 -0.5104 -0.0328
 1104SOL     OW 4210   2.204   4.040   4.529 -0.1536  0.7152  0.4254
 1104SOL    HW1 4211   2.179   3.965   4.466 -0.2538  0.5979  0.6039
 1104SOL    HW2 4212   2.179   4.015   4.622  1.6201  0.1231  0.7859
 1105SOL     OW 4213   2.371   6.371   0.342 -0.1237 -0.1280 -0.0513
 1105SOL    HW1 4214   2.455   6.322   0.319 -0.2266 -0.5252  0.3908
 1105SOL    HW2 4215   2.301   6.305   0.368 -0.3672  0.2421  0.2404
 1106SOL     OW 4216   3.240   2.186   0.590  0.3487  0.0716  0.0906
 1106SOL    HW1 4217   3.330   2.228   0.577  0.9381 -1.5100 -1.4438
 1106SOL    HW2 4218   3.168   2.252   0.569  1.2414  0.0290 -3.8100
 1107SOL     OW 4219   2.503   3.336   5.516  0.0608 -0.2176  0.4202
 1107SOL    HW1 4220   2.536   3.275   5.444  0.7615  1.6260 -0.9379
 1107SOL    HW2 4221   2.581   3.385   5.556 -0.4553 -0.2945  1.5538
 1108SOL     OW 4222   0.555   5.570   0.158  0.0780 -0.1332  0.0164
 1108SOL    HW1 4223   0.570   5.475   0.187 -0.0834 -0.6676 -1.5981
 1108SOL    HW2 4224   0.614   5.630   0.212  0.3893 -1.1684  0.8716
 1109SOL     OW 4225   5.841   4.894   0.671 -0.1159 -0.1925  0.3111
 1109SOL    HW1 4226   5.770   4.947   0.717 -0.0867  0.6651 -0.5899
 1109SOL    HW2 4227   5.821   4.889   0.573  0.7600 -0.4327  0.1349
 1110SOL     OW 4228   2.001   5.776   3.416  0.4980 -0.0163 -0.2417
 1110SOL    HW1 4229   1.967   5.755   3.507  1.1001 -1.4762 -0.3314
 1110SOL    HW2 4230   1.928   5.819   3.362 -0.3629 -0.6375  0.4073
 1111SOL     OW 4231   5.878   5.370   1.208 -0.3214 -0.3943  0.5096
 1111SOL    HW1 4232   5.809   5.442   1.202  1.7129  1.6099 -0.9364
 1111SOL    HW2 4233   5.885   5.322   1.120  1.2688  0.6568  0.0138
 1112SOL     OW 4234   2.062   4.484   6.633  0.7247  0.1331 -0.1041
 1112SOL    HW1 4235   1.982   4.485   6.693  1.4903  0.1917  0.9390
 1112SOL    HW2 4236   2.145   4.488   6.688  1.4632 -0.2579 -1.1577
 1113SOL     OW 4237   4.999   6.119   0.927  0.3532  0.1820  0.1852
 1113SOL    HW1 4238   4.998   6.179   0.848  1.6389  2.4708  1.7759
 1113SOL    HW2 4239   5.006   6.024   0.897  0.6407  0.9546 -2.4131
 1114SOL     OW 4240   2.204   1.717   6.851 -1.0056 -0.4579 -0.1622
 1114SOL    HW1 4241   2.176   1.633   6.897 -0.1965 -1.2204 -1.0048
 1114SOL    HW2 4242   2.304   1.722   6.848 -0.9458  1.7926  2.0550
 1115SOL     OW 4243   0.602   2.548   4.669  0.1679 -0.0511 -0.6169
 1115SOL    HW1 4244   0.592   2.647   4.674 -0.0395 -0.1271  1.1572
 1115SOL    HW2 4245   0.607   2.510   4.761 -0.5096 -1.7721 -1.2429
 1116SOL     OW 4246   1.695   1.130   0.510 -0.4657 -0.0876  0.5981
 1116SOL    HW1 4247   1.734   1.130   0.418 -1.7796  1.0907 -0.0055
 1116SOL    HW2 4248   1.756   1.081   0.573 -0.0675 -1.8719 -1.1020
 1117SOL     OW 4249   2.177   1.409   5.433 -0.0301  0.2376  0.2807
 1117SOL    HW1 4250   2.171   1.332   5.370 -1.3073  2.2655 -2.2416
 1117SOL    HW2 4251   2.093   1.414   5.487 -0.7688  0.8993 -0.8958
 1118SOL     OW 4252   3.231   5.708   1.383 -0.5971 -0.3734 -0.2454
 1118SOL    HW1 4253   3.218   5.719   1.481  0.3017 -0.0262 -0.1563
 1118SOL    HW2 4254   3.147   5.671   1.342 -1.3784  0.5529  0.4681
 1119SOL     OW 4255   0.605   4.944   0.787 -0.6378 -0.0235  0.5268
 1119SOL    HW1 4256   0.682   4.939   0.723 -0.9572 -0.7618  0.1940
 1119SOL    HW2 4257   0.519   4.946   0.736 -1.0092 -2.7150  0.9093
 1120SOL     OW 4258   1.927   6.141   0.746  0.8233  0.3717 -0.3259
 1120SOL    HW1 4259   1.925   6.041   0.750  1.1371  0.3728 -0.0659
 1120SOL    HW2 4260   2.022   6.173   0.751  0.7312  0.6800 -0.4918
 1121SOL     OW 4261   2.211   4.186   1.758  0.4281 -0.2313  0.0867
 1121SOL    HW1 4262   2.195   4.096   1.719 -0.1066 -0.4639  0.8154
 1121SOL    HW2 4263   2.137   4.209   1.820  1.5270 -0.1331  1.4183
 1122SOL     OW 4264   0.875   5.568   4.062  0.1372  0.5038 -0.3047
 1122SOL    HW1 4265   0.962   5.555   4.108 -1.2100 -0.3636  2.1490
 1122SOL    HW2 4266   0.852   5.666   4.062 -0.1990  0.4501  1.6337
 1123SOL     OW 4267   0.045   2.378   3.937 -1.4702  0.8875  0.5532
 1123SOL    HW1 4268   0.096   2.379   3.851 -1.0867 -0.6236  0.7284
 1123SOL    HW2 4269   0.060   2.464   3.986 -0.7917  1.3132 -0.3720
 1124SOL     OW 4270   5.165   0.666   3.197  0.2322 -0.4533 -0.2386
 1124SOL    HW1 4271   5.218   0.602   3.143 -0.3206 -0.6627 -0.5460
 1124SOL    HW2 4272   5.146   0.628   3.287  1.5986  0.1094  0.3124
 1125SOL     OW 4273   1.201   5.685   3.552 -0.8555 -0.5565  0.6180
 1125SOL    HW1 4274   1.150   5.690   3.467  0.3487 -0.4178 -0.1151
 1125SOL    HW2 4275   1.197   5.773   3.599  1.0345  0.3890 -0.8541
 1126SOL     OW 4276   2.445   1.999   4.457 -0.4737 -0.1989  0.3719
 1126SOL    HW1 4277   2.532   2.025   4.498 -0.3870  0.9992 -0.5036
 1126SOL    HW2 4278   2.392   2.082   4.436 -0.6785 -0.7527 -1.5416
 1127SOL     OW 4279   6.831   1.848   0.215 -0.2713  0.4081 -0.0291
 1127SOL    HW1 4280   6.887   1.771   0.245 -0.7745  0.8474  2.1744
 1127SOL    HW2 4281   6.735   1.825   0.222 -0.4355  0.2846 -2.1005
 1128SOL     OW 4282   0.860   1.258   5.518 -0.2104  0.9600 -0.0705
 1128SOL    HW1 4283   0.899   1.254   5.427  1.2512  1.0289  0.5295
 1128SOL    HW2 4284   0.922   1.215   5.584 -3.5335 -4.1787  0.2574
 1129SOL     OW 4285   4.881   4.553   5.982 -0.1212 -0.2543 -0.4988
 1129SOL    HW1 4286   4.981   4.554   5.976 -0.1866  0.9778 -1.7140
 1129SOL    HW2 4287   4.842   4.536   5.891 -1.0360  0.1881 -0.1971
 1130SOL     OW 4288   2.027   2.822   6.293  0.2775 -0.3513 -0.0823
 1130SOL    HW1 4289   2.103   2.831   6.229 -0.5840  0.2932 -1.0356
 1130SOL    HW2 4290   2.063   2.810   6.386  1.5375 -1.1166 -0.6460
 1131SOL     OW 4291   1.797   6.679   2.026  0.1026  0.2352 -0.1865
 1131SOL    HW1 4292   1.730   6.727   2.082  1.1153  0.6078  0.7417
 1131SOL    HW2 4293   1.824   6.594   2.071  1.8171  1.1210  0.5311
 1132SOL     OW 4294   4.514   5.274   1.192  0.3027  0.0068  0.1056
 1132SOL    HW1 4295   4.554   5.183   1.192 -1.3064 -0.7531  1.3456
 1132SOL    HW2 4296   4.566   5.333   1.130  1.9819 -1.4549  0.0207
 1133SOL     OW 4297   3.355   5.141   3.155  0.4083 -0.1533  0.0244
 1133SOL    HW1 4298   3.398   5.053   3.175  1.7363  0.6147  0.6649
 1133SOL    HW2 4299   3.355   5.156   3.056  0.3742 -0.7679 -0.0718
 1134SOL     OW 4300   2.797   6.337   6.047 -0.2055  0.2681  0.8212
 1134SOL    HW1 4301   2.754   6.290   6.125 -1.1222  2.0053  1.4214
 1134SOL    HW2 4302   2.739   6.327   5.967 -0.8454  1.0827  1.1707
 1135SOL     OW 4303   2.351   2.251   4.193 -0.0845 -0.3865  0.2306
 1135SOL    HW1 4304   2.436   2.198   4.192  1.1749  1.5159  0.6165
 1135SOL    HW2 4305   2.359   2.328   4.129 -2.4772 -1.4817 -1.5475
 1136SOL     OW 4306   6.127   3.867   6.982 -0.2572  0.0913 -0.6971
 1136SOL    HW1 4307   6.191   3.937   6.952  0.1140 -0.4311 -1.1279
 1136SOL    HW2 4308   6.110   3.803   6.908 -1.5426  0.4007 -0.7047
 1137SOL     OW 4309   2.215   2.568   6.656 -0.0956 -0.2412 -0.4432
 1137SOL    HW1 4310   2.295   2.616   6.692 -0.6123 -0.7722  1.5413
 1137SOL    HW2 4311   2.238   2.471   6.642 -0.0001 -0.1074 -1.2608
 1138SOL     OW 4312   0.675   0.091   5.839 -0.4141 -0.1846  0.0388
 1138SOL    HW1 4313   0.602   0.029   5.811 -0.4224 -0.1393 -0.0416
 1138SOL    HW2 4314   0.641   0.154   5.909  0.0576 -1.3638  1.3721
 1139SOL     OW 4315   0.060   6.985   2.184  0.3061  0.3236  1.4795
 1139SOL    HW1 4316  -0.015   6.939   2.232  0.8758 -0.2894  1.8033
 1139SOL    HW2 4317   0.147   6.961   2.227  0.8363 -0.2225  0.1591
 1140SOL     OW 4318   2.226   6.933   4.492  0.8269  0.0461  0.1403
 1140SOL    HW1 4319   2.226   7.021   4.444 -0.3816 -0.9794 -1.8493
 1140SOL    HW2 4320   2.161   6.937   4.568  1.2648  1.0603  0.4821
 1141SOL     OW 4321   2.574   0.756   4.967  0.2329 -0.4048 -0.2596
 1141SOL    HW1 4322   2.616   0.666   4.968 -0.4134 -0.7275 -0.8489
 1141SOL    HW2 4323   2.634   0.821   4.919  1.2966 -0.1866  1.2832
 1142SOL     OW 4324   1.792   2.037   2.298 -0.1411 -0.5046  0.0490
 1142SOL    HW1 4325   1.707   1.988   2.316  0.7014 -1.1854  2.5785
 1142SOL    HW2 4326   1.856   1.977   2.250 -0.1539 -0.9181  0.5414
 1143SOL     OW 4327   5.802   3.890   3.673 -0.9229  0.1641 -0.2884
 1143SOL    HW1 4328   5.747   3.973   3.665 -1.8027 -0.4076 -0.2778
 1143SOL    HW2 4329   5.851   3.874   3.588 -0.4028  0.9286 -0.1392
 1144SOL     OW 4330   6.439   6.771   1.923  0.4108 -0.0304 -0.4251
 1144SOL    HW1 4331   6.361   6.709   1.938  0.2441  0.3755  0.4514
 1144SOL    HW2 4332   6.523   6.718   1.920  0.0813 -0.5208 -1.7606
 1145SOL     OW 4333   4.877   4.025   2.008 -0.0411  0.1919  0.2681
 1145SOL    HW1 4334   4.799   3.989   2.058 -1.6050  0.8268 -1.5784
 1145SOL    HW2 4335   4.923   3.951   1.958  1.5137 -0.4392  2.4742
 1146SOL     OW 4336   6.284   0.656   0.403 -0.0229  0.3041  0.0815
 1146SOL    HW1 4337   6.207   0.629   0.345 -0.4314  0.1640  0.6788
 1146SOL    HW2 4338   6.344   0.578   0.418  1.4567  0.9116 -2.1725
 1147SOL     OW 4339   6.143   5.165   4.265 -0.0997  0.1380  0.0685
 1147SOL    HW1 4340   6.078   5.175   4.340 -1.8125  2.5769 -1.5902
 1147SOL    HW2 4341   6.204   5.244   4.262 -0.5350  0.4617 -1.4768
 1148SOL     OW 4342   2.924   5.080   3.632  0.0588  0.5129  0.4669
 1148SOL    HW1 4343   2.943   5.169   3.672 -1.1965 -0.3570  3.2087
 1148SOL    HW2 4344   2.826   5.061   3.637  0.1773 -0.6528 -0.9372
 1149SOL     OW 4345   6.498   3.751   5.198  0.0964  0.0327  0.1119
 1149SOL    HW1 4346   6.545   3.670   5.231  1.5681  0.1182 -1.6472
 1149SOL    HW2 4347   6.564   3.814   5.156 -1.3435  0.9630 -0.8681
 1150SOL     OW 4348   5.572   1.625   1.506 -0.5396 -0.3790 -0.4826
 1150SOL    HW1 4349   5.553   1.715   1.545 -0.1114 -0.3509 -0.3371
 1150SOL    HW2 4350   5.645   1.581   1.558 -2.4440 -1.8833  1.0871
 1151SOL     OW 4351   3.211   4.728   6.912  0.5774  0.1315  0.3244
 1151SOL    HW1 4352   3.261   4.678   6.842  0.0759 -0.6482  0.4982
 1151SOL    HW2 4353   3.184   4.818   6.877 -0.2180 -0.4927 -0.7217
 1152SOL     OW 4354   3.242   2.379   1.676  0.3350  0.1048  0.1350
 1152SOL    HW1 4355   3.313   2.445   1.700  0.3405  0.4864 -0.8970
 1152SOL    HW2 4356   3.264   2.290   1.717  0.9801  0.4175  0.4845
 1153SOL     OW 4357   2.867   5.097   1.359 -0.0510 -0.6753  0.6734
 1153SOL    HW1 4358   2.905   5.157   1.429 -0.2918 -0.3860  0.5609
 1153SOL    HW2 4359   2.774   5.128   1.335  0.9749  0.8868 -1.6792
 1154SOL     OW 4360   2.471   0.410   2.787 -0.6930  0.0858  0.3495
 1154SOL    HW1 4361   2.434   0.458   2.867  1.1290  1.7052  0.2906
 1154SOL    HW2 4362   2.507   0.321   2.816  2.2086  1.6368  1.9661
 1155SOL     OW 4363   3.879   5.569   3.507 -0.1174 -0.2720 -0.2388
 1155SOL    HW1 4364   3.943   5.634   3.468  0.2069 -0.4390  0.0111
 1155SOL    HW2 4365   3.838   5.607   3.589  1.2950 -0.9942  0.8547
 1156SOL     OW 4366   1.769   4.170   6.512 -0.1228  0.0693  0.6090
 1156SOL    HW1 4367   1.771   4.154   6.413 -0.6846  0.5521  0.5110
 1156SOL    HW2 4368   1.861   4.191   6.545 -0.1308  1.1727 -0.0312
 1157SOL     OW 4369   1.805   3.705   3.464  0.3845  1.1096 -0.1608
 1157SOL    HW1 4370   1.793   3.728   3.367 -4.1108 -1.0458 -0.3820
 1157SOL    HW2 4371   1.757   3.772   3.520  0.4675  0.7799  0.3109
 1158SOL     OW 4372   1.852   3.613   1.805  0.4997 -0.2527  0.2683
 1158SOL    HW1 4373   1.841   3.514   1.807  1.1756 -0.3296  0.3427
 1158SOL    HW2 4374   1.940   3.638   1.847  1.4133  0.2100 -1.7872
 1159SOL     OW 4375   6.112   0.986   3.213  0.6968  0.2525  0.3194
 1159SOL    HW1 4376   6.075   1.022   3.298 -1.1567 -0.4406 -0.1373
 1159SOL    HW2 4377   6.059   0.906   3.185  1.9239 -0.1572 -0.9541
 1160SOL     OW 4378   3.263   0.643   6.961 -0.2460  0.1144 -0.0007
 1160SOL    HW1 4379   3.252   0.565   7.023  3.8298  0.8656  2.0063
 1160SOL    HW2 4380   3.219   0.724   7.000 -1.4854 -0.3562 -0.3709
 1161SOL     OW 4381   1.353   3.466   0.281  0.0468 -0.1422 -0.1586
 1161SOL    HW1 4382   1.375   3.382   0.329  0.8111 -0.3122 -0.7785
 1161SOL    HW2 4383   1.431   3.494   0.225 -0.9669 -0.2316 -1.6884
 1162SOL     OW 4384   6.514   0.376   1.881  0.3120  0.1661 -0.2599
 1162SOL    HW1 4385   6.530   0.469   1.847  0.8270 -0.3287 -1.4279
 1162SOL    HW2 4386   6.555   0.310   1.817  2.3353 -0.7854  1.8780
 1163SOL     OW 4387   6.250   4.750   5.228  0.2818  0.0686  0.3545
 1163SOL    HW1 4388   6.226   4.803   5.309 -0.9994 -0.8272  0.5920
 1163SOL    HW2 4389   6.174   4.752   5.163  1.3616  0.9261 -0.9300
 1164SOL     OW 4390   6.936   1.133   0.416 -0.0091 -0.2596 -0.4342
 1164SOL    HW1 4391   6.868   1.066   0.448 -0.1568  0.7672  1.5606
 1164SOL    HW2 4392   7.028   1.093   0.425 -0.2163 -1.0051 -1.4513
 1165SOL     OW 4393   1.317   3.889   3.495 -0.0300 -0.8439 -0.0851
 1165SOL    HW1 4394   1.261   3.825   3.548 -1.2863  0.8219  0.6856
 1165SOL    HW2 4395   1.357   3.841   3.417 -2.4918 -2.1550 -0.6498
 1166SOL     OW 4396   3.345   2.796   0.702 -0.3134  0.6216  0.7116
 1166SOL    HW1 4397   3.382   2.712   0.742  0.3189  0.2333 -0.6280
 1166SOL    HW2 4398   3.401   2.874   0.729  0.7491  0.2122 -0.2597
 1167SOL     OW 4399   1.403   4.550   2.958  0.3136 -0.2639  0.1869
 1167SOL    HW1 4400   1.439   4.639   2.929 -0.3713 -0.0775 -0.0995
 1167SOL    HW2 4401   1.386   4.493   2.878 -2.0801  0.4411  0.1272
 1168SOL     OW 4402   5.979   5.115   6.730  0.5514 -0.0343  0.4309
 1168SOL    HW1 4403   6.013   5.115   6.636 -0.4749 -1.1194  0.0304
 1168SOL    HW2 4404   5.941   5.205   6.752  1.9148  0.6109  0.2516
 1169SOL     OW 4405   1.217   6.369   2.169 -0.0367  0.0701 -0.3894
 1169SOL    HW1 4406   1.200   6.462   2.139  1.4927  0.2695 -0.6955
 1169SOL    HW2 4407   1.197   6.305   2.094  1.7906  0.4086 -1.2160
 1170SOL     OW 4408   3.044   0.665   4.135 -0.0543  0.0353  0.6075
 1170SOL    HW1 4409   3.141   0.685   4.136  0.5150 -2.3493  0.0939
 1170SOL    HW2 4410   3.028   0.581   4.082 -2.5864  1.2483 -0.7178
 1171SOL     OW 4411   1.684   6.271   5.102 -0.1447 -0.4594 -0.6440
 1171SOL    HW1 4412   1.587   6.284   5.086  0.1415  1.6915 -0.8342
 1171SOL    HW2 4413   1.728   6.241   5.017 -0.4548 -0.3135 -0.8547
 1172SOL     OW 4414   0.474   1.339   3.011 -0.3219 -0.0543  0.2186
 1172SOL    HW1 4415   0.570   1.334   2.982 -0.0253  0.4653  1.1051
 1172SOL    HW2 4416   0.426   1.407   2.956  0.0365  0.3361  0.3893
 1173SOL     OW 4417   3.595   0.732   4.088 -0.3929  0.1456 -0.2273
 1173SOL    HW1 4418   3.620   0.822   4.125  0.5065 -0.5674  0.9461
 1173SOL    HW2 4419   3.657   0.663   4.123 -0.7455 -0.8838 -1.5421
 1174SOL     OW 4420   5.673   5.082   6.622 -0.0293  0.6815 -0.4616
 1174SOL    HW1 4421   5.682   4.983   6.635 -0.5689  0.7773  0.8603
 1174SOL    HW2 4422   5.703   5.107   6.530 -0.7465 -0.8217 -1.1357
 1175SOL     OW 4423   4.111   3.468   4.370 -0.3436 -0.2982 -0.0706
 1175SOL    HW1 4424   4.028   3.490   4.318  0.2871  1.4020 -0.4464
 1175SOL    HW2 4425   4.190   3.508   4.324  0.3469  0.4971  1.7197
 1176SOL     OW 4426   2.667   1.916   1.764 -0.3176  0.4788  0.8730
 1176SOL    HW1 4427   2.715   2.001   1.784  1.0830 -0.4455  1.6374
 1176SOL    HW2 4428   2.694   1.883   1.673 -0.7904  0.7857  0.6152
 1177SOL     OW 4429   2.691   6.443   2.433 -0.2524  0.6418  0.0779
 1177SOL    HW1 4430   2.749   6.516   2.398 -0.0808  0.3082 -0.3431
 1177SOL    HW2 4431   2.732   6.405   2.516  1.2556 -0.9686 -1.3157
 1178SOL     OW 4432   4.920   2.708   5.153 -0.0950  0.1369 -0.2093
 1178SOL    HW1 4433   4.947   2.648   5.078 -2.8043 -0.4097 -0.8632
 1178SOL    HW2 4434   4.827   2.685   5.183  0.7967  0.4628  3.2280
 1179SOL     OW 4435   4.220   0.011   1.271  0.1344 -0.3077 -0.5421
 1179SOL    HW1 4436   4.316  -0.011   1.287  0.2503 -0.4876 -1.4256
 1179SOL    HW2 4437   4.196  -0.010   1.176 -0.2331  1.6423 -0.9217
 1180SOL     OW 4438   0.824   3.510   6.278 -0.1400  0.0279 -0.1714
 1180SOL    HW1 4439   0.777   3.423   6.270  1.3728 -0.7364 -1.3472
 1180SOL    HW2 4440   0.865   3.534   6.189  2.8657 -0.0920  1.0686
 1181SOL     OW 4441   5.380   1.495   1.911 -0.3075 -0.4673  0.1756
 1181SOL    HW1 4442   5.477   1.519   1.925 -0.7133  1.1807  0.3957
 1181SOL    HW2 4443   5.341   1.464   1.998  0.1750 -1.7883 -0.0615
 1182SOL     OW 4444   0.090   5.901   0.766 -0.8190  0.0263  0.5136
 1182SOL    HW1 4445   0.178   5.907   0.812 -0.4016 -3.5155  0.4882
 1182SOL    HW2 4446   0.098   5.941   0.674 -0.2852  2.7258  1.6433
 1183SOL     OW 4447   2.674   1.609   1.031 -0.4260  0.0581  0.0893
 1183SOL    HW1 4448   2.605   1.539   1.013  0.9398 -1.1609 -0.6013
 1183SOL    HW2 4449   2.689   1.662   0.948 -1.3471  1.1180  0.5688
 1184SOL     OW 4450   5.700   6.978   4.012  0.4340 -0.7480  0.1027
 1184SOL    HW1 4451   5.748   6.903   3.968 -1.0900 -2.2455  0.8824
 1184SOL    HW2 4452   5.602   6.970   3.997 -0.0884 -0.8063  2.8668
 1185SOL     OW 4453   2.601   4.761   0.821 -0.1959  0.2208  0.3741
 1185SOL    HW1 4454   2.544   4.703   0.763  1.1795 -0.6559 -0.1552
 1185SOL    HW2 4455   2.652   4.825   0.764  0.3387  0.0897  0.6968
 1186SOL     OW 4456   0.326   7.013   1.513  0.1731 -0.2537  0.2004
 1186SOL    HW1 4457   0.310   7.072   1.593  0.9115 -0.2809  0.3692
 1186SOL    HW2 4458   0.375   7.064   1.443  1.1575 -0.7673  0.4978
 1187SOL     OW 4459   1.703   2.932   1.119 -0.1241 -0.0575 -0.2604
 1187SOL    HW1 4460   1.668   2.889   1.202 -1.0182  1.4226  0.1630
 1187SOL    HW2 4461   1.630   2.981   1.073  0.2279 -1.2998 -2.2618
 1188SOL     OW 4462   2.741   1.021   1.726 -0.1770 -0.0679  0.1419
 1188SOL    HW1 4463   2.792   0.965   1.661  0.4962 -0.0000  0.6000
 1188SOL    HW2 4464   2.790   1.107   1.743  0.1523 -0.4881  1.4403
 1189SOL     OW 4465   2.147   5.119   5.674 -0.0120 -0.0918 -0.4698
 1189SOL    HW1 4466   2.182   5.146   5.764  2.8831  0.5241 -1.6826
 1189SOL    HW2 4467   2.102   5.030   5.681  1.0547 -0.5329  1.4026
 1190SOL     OW 4468   6.891   5.538   4.062 -0.2482  0.7049  0.0671
 1190SOL    HW1 4469   6.905   5.527   4.161 -0.5162 -1.0426 -0.0595
 1190SOL    HW2 4470   6.978   5.528   4.015 -0.5326 -1.5345 -0.0716
 1191SOL     OW 4471   6.933   4.509   4.452 -0.4289 -0.4209  0.5180
 1191SOL    HW1 4472   6.954   4.489   4.548 -0.8637  1.7247  1.1165
 1191SOL    HW2 4473   6.837   4.533   4.443 -0.7237 -1.8706 -0.7385
 1192SOL     OW 4474   2.915   6.311   2.896 -0.9936 -0.3068 -0.2647
 1192SOL    HW1 4475   2.969   6.227   2.900  0.0979  0.3360 -0.9841
 1192SOL    HW2 4476   2.966   6.386   2.939 -2.0377 -0.0299  0.5534
 1193SOL     OW 4477   4.943   5.552   6.525 -0.4189  0.1315 -0.0037
 1193SOL    HW1 4478   5.001   5.626   6.493  1.6413 -1.0768  0.7114
 1193SOL    HW2 4479   4.880   5.524   6.452  0.6256  0.7777 -1.1866
 1194SOL     OW 4480   5.862   5.374   2.928  0.2388 -0.0557 -0.1804
 1194SOL    HW1 4481   5.960   5.391   2.939  0.5048 -1.2751 -0.4924
 1194SOL    HW2 4482   5.818   5.372   3.017  0.8740 -1.4758  0.1336
 1195SOL     OW 4483   4.655   2.610   6.175  0.6007 -0.0616  0.1966
 1195SOL    HW1 4484   4.701   2.678   6.118  0.0104  0.3943  0.2583
 1195SOL    HW2 4485   4.597   2.552   6.117  0.9013 -0.3533  0.1805
 1196SOL     OW 4486   4.860   5.835   2.752 -0.0633 -0.6279  0.2920
 1196SOL    HW1 4487   4.948   5.810   2.713 -0.7264 -0.4437 -1.4047
 1196SOL    HW2 4488   4.790   5.836   2.680 -1.3514 -0.2532  1.4938
 1197SOL     OW 4489   5.360   6.578   0.053  0.0464 -0.0806 -0.6359
 1197SOL    HW1 4490   5.380   6.595   0.149  0.2696 -0.9206 -0.5185
 1197SOL    HW2 4491   5.309   6.492   0.044  0.1899 -0.1083 -1.2743
 1198SOL     OW 4492   1.644   1.973   6.005 -0.3156  0.4643  0.2148
 1198SOL    HW1 4493   1.684   1.976   6.097  3.5323 -0.7071 -1.2281
 1198SOL    HW2 4494   1.649   2.063   5.963  0.3324  0.4464  0.2468
 1199SOL     OW 4495   5.330   2.204   0.933  0.6879 -0.1037  0.4170
 1199SOL    HW1 4496   5.378   2.202   1.020  0.2000  0.7477  0.7147
 1199SOL    HW2 4497   5.233   2.185   0.948  0.8056 -1.1684 -0.0979
 1200SOL     OW 4498   6.275   2.375   3.240  0.2774  0.5070 -0.5593
 1200SOL    HW1 4499   6.300   2.295   3.296 -0.7445 -0.3221 -1.2425
 1200SOL    HW2 4500   6.176   2.374   3.225 -0.0716  2.9875  1.0377
 1201SOL     OW 4501   5.121   4.135   2.104 -0.4333 -0.1583 -0.1427
 1201SOL    HW1 4502   5.098   4.202   2.174 -0.8606 -1.4229  0.9753
 1201SOL    HW2 4503   5.037   4.089   2.073 -0.1762 -0.0312 -1.0574
 1202SOL     OW 4504   3.752   5.254   2.355  0.3759 -0.7154  0.0140
 1202SOL    HW1 4505   3.770   5.167   2.310  0.5482 -1.4216  1.3824
 1202SOL    HW2 4506   3.676   5.243   2.419  1.1259 -0.1728  1.0302
 1203SOL     OW 4507   2.180   5.574   2.917 -0.2363  0.4156  0.1257
 1203SOL    HW1 4508   2.203   5.646   2.852  0.1365 -0.5137 -0.7817
 1203SOL    HW2 4509   2.153   5.492   2.868 -0.9309  0.0075  1.1543
 1204SOL     OW 4510   6.701   6.351   2.530  0.3418  0.3199  1.0647
 1204SOL    HW1 4511   6.683   6.322   2.436 -1.8931  0.1582  1.4899
 1204SOL    HW2 4512   6.635   6.420   2.557  2.0759  1.7079  1.9743
 1205SOL     OW 4513   6.677   3.946   0.720  0.3459  0.2094 -0.2572
 1205SOL    HW1 4514   6.632   3.984   0.640 -1.1372 -0.4897  0.2135
 1205SOL    HW2 4515   6.622   3.963   0.802  0.2211 -1.8207  0.1486
 1206SOL     OW 4516   3.381   3.470   2.953  0.1999  0.0514  0.2493
 1206SOL    HW1 4517   3.469   3.431   2.927 -0.2746 -1.1698  0.4385
 1206SOL    HW2 4518   3.347   3.424   3.035  0.0800  1.5407  1.0847
 1207SOL     OW 4519   5.079   4.851   3.900  0.3125 -0.3600  0.1762
 1207SOL    HW1 4520   5.035   4.798   3.827 -0.4479 -0.2390  0.5409
 1207SOL    HW2 4521   5.073   4.949   3.878 -3.6072  0.0669  2.2626
 1208SOL     OW 4522   0.370   1.496   5.186  0.1528  0.1743 -0.0738
 1208SOL    HW1 4523   0.332   1.499   5.093 -0.5194  1.9748  0.2020
 1208SOL    HW2 4524   0.397   1.403   5.209 -1.3642 -0.6396 -1.4064
 1209SOL     OW 4525   2.998   1.762   1.537 -0.2456  0.5362  0.6625
 1209SOL    HW1 4526   2.914   1.816   1.532  0.0757  1.0023  0.3117
 1209SOL    HW2 4527   3.063   1.794   1.469 -0.8255 -1.6457 -1.0409
 1210SOL     OW 4528   3.966   2.253   0.892  0.0616 -0.2642 -0.7673
 1210SOL    HW1 4529   3.903   2.328   0.916  0.1971 -0.4993  0.4055
 1210SOL    HW2 4530   4.039   2.288   0.834  0.7283  0.7797  0.6390
 1211SOL     OW 4531   3.813   6.611   2.635  0.0859 -0.1620  0.0895
 1211SOL    HW1 4532   3.774   6.632   2.724  1.3963  0.4801  0.5306
 1211SOL    HW2 4533   3.913   6.610   2.641  0.2108  0.2591 -1.4515
 1212SOL     OW 4534   3.086   3.089   4.465  0.1674 -0.2465  0.1396
 1212SOL    HW1 4535   3.124   3.036   4.390  1.3653  0.3120  0.3442
 1212SOL    HW2 4536   3.015   3.151   4.430 -2.0640 -2.6738  0.0333
 1213SOL     OW 4537   0.877   6.075   6.789  0.1447  0.0290 -0.4067
 1213SOL    HW1 4538   0.940   6.060   6.713 -1.7198 -0.7730 -1.8841
 1213SOL    HW2 4539   0.822   5.993   6.803  1.7264 -0.5885  3.1881
 1214SOL     OW 4540   5.157   4.691   3.638  0.2161 -0.0489  0.2940
 1214SOL    HW1 4541   5.254   4.671   3.619  0.0856 -0.6480  0.2198
 1214SOL    HW2 4542   5.100   4.644   3.571 -0.1111  0.6690  0.0684
 1215SOL     OW 4543   6.487   5.516   4.462  0.8969  0.2207 -0.1403
 1215SOL    HW1 4544   6.541   5.432   4.454 -1.3307 -1.3265  0.2604
 1215SOL    HW2 4545   6.473   5.555   4.371  1.9424  0.1998 -0.3291
 1216SOL     OW 4546   5.398   7.008   6.057  0.3383 -0.6583  0.3244
 1216SOL    HW1 4547   5.461   6.934   6.032  1.7193  0.1236  1.3725
 1216SOL    HW2 4548   5.418   7.040   6.149 -0.4253  0.8292  0.0101
 1217SOL     OW 4549   4.794   5.521   3.978  0.1443 -0.0067 -0.3266
 1217SOL    HW1 4550   4.843   5.583   4.040  1.8193 -0.6546 -0.9380
 1217SOL    HW2 4551   4.705   5.499   4.017  0.0506  1.7146  0.5383
 1218SOL     OW 4552   6.764   5.088   5.754  0.6205  0.1128 -0.1324
 1218SOL    HW1 4553   6.748   4.991   5.735  1.0631  0.0935 -0.4302
 1218SOL    HW2 4554   6.680   5.140   5.737  0.5123 -0.1572 -0.4334
 1219SOL     OW 4555   6.275   3.086   1.100  0.3249 -0.2949  0.1354
 1219SOL    HW1 4556   6.222   3.170   1.114  0.2209 -0.1361 -1.1607
 1219SOL    HW2 4557   6.326   3.092   1.015  2.4642 -0.4497  1.3273
 1220SOL     OW 4558   2.432   4.440   2.362  0.2685 -0.0945  0.5326
 1220SOL    HW1 4559   2.508   4.494   2.399 -0.4386  0.2038  1.5820
 1220SOL    HW2 4560   2.417   4.360   2.419 -1.8634  1.1982  1.9266
 1221SOL     OW 4561   3.819   3.398   4.419 -0.4023  0.6781 -0.2008
 1221SOL    HW1 4562   3.767   3.314   4.435  1.2619 -0.1143  1.2844
 1221SOL    HW2 4563   3.845   3.403   4.322 -2.2013  0.5248 -0.7219
 1222SOL     OW 4564   0.471   2.909   2.515  0.2915 -0.1905 -0.5074
 1222SOL    HW1 4565   0.374   2.886   2.523  0.6671 -1.4287  0.6483
 1222SOL    HW2 4566   0.485   2.965   2.433 -1.2200 -0.9374 -1.3040
 1223SOL     OW 4567   2.105   5.382   6.269 -0.0333  0.2835 -0.0229
 1223SOL    HW1 4568   2.078   5.353   6.360 -0.7011 -1.0161 -0.5992
 1223SOL    HW2 4569   2.182   5.326   6.238 -1.8181 -1.5497 -1.4541
 1224SOL     OW 4570   5.380   3.038   0.037 -0.1259  0.5848  0.7044
 1224SOL    HW1 4571   5.417   3.121   0.080  1.1683 -0.2328  1.2203
 1224SOL    HW2 4572   5.446   2.964   0.047 -0.7528 -0.2018 -0.8110
 1225SOL     OW 4573   3.552   5.484   3.916  0.2750 -0.7805  0.8263
 1225SOL    HW1 4574   3.587   5.577   3.930  1.0552 -0.8372 -0.5855
 1225SOL    HW2 4575   3.561   5.459   3.820 -0.4883 -2.1066  1.0788
 1226SOL     OW 4576   2.504   2.392   6.474 -0.3858  0.0139 -0.0374
 1226SOL    HW1 4577   2.479   2.375   6.378 -1.2135 -1.4564  0.4136
 1226SOL    HW2 4578   2.441   2.343   6.534 -0.4795  1.7132  1.3125
 1227SOL     OW 4579   0.687   5.525   2.563  0.1405 -1.0524  0.2547
 1227SOL    HW1 4580   0.681   5.452   2.495 -0.2346  0.3978 -1.3362
 1227SOL    HW2 4581   0.596   5.541   2.602  0.5593 -2.6886  2.0607
 1228SOL     OW 4582   5.212   6.294   0.362 -0.5548  0.5021  0.0338
 1228SOL    HW1 4583   5.235   6.292   0.265 -0.5950  0.3023  0.0293
 1228SOL    HW2 4584   5.231   6.385   0.399  1.9734 -0.1218  0.4427
 1229SOL     OW 4585   5.201   0.481   0.605 -0.4366  0.1452 -0.3004
 1229SOL    HW1 4586   5.180   0.560   0.662  0.6301  0.1920  0.0508
 1229SOL    HW2 4587   5.192   0.506   0.508 -1.1180  0.3951 -0.1770
 1230SOL     OW 4588   0.274   4.899   0.070 -0.0727 -0.0651  0.2177
 1230SOL    HW1 4589   0.257   4.993   0.099 -1.3764  0.0047 -0.6572
 1230SOL    HW2 4590   0.283   4.840   0.150 -0.1677  0.6501  0.7650
 1231SOL     OW 4591   3.055   1.925   2.619  0.3535  0.0769 -0.0917
 1231SOL    HW1 4592   2.959   1.911   2.641  0.7851 -0.6955  1.4388
 1231SOL    HW2 4593   3.088   2.008   2.664  1.1014 -1.2051  1.8322
 1232SOL     OW 4594   1.282   1.512   6.290  0.0038  0.3369  0.0568
 1232SOL    HW1 4595   1.279   1.588   6.354  1.1857  0.6828 -0.2690
 1232SOL    HW2 4596   1.225   1.532   6.211  0.0303  0.7297  0.1373
 1233SOL     OW 4597   5.562   0.762   0.362 -0.0346 -0.5614  0.4352
 1233SOL    HW1 4598   5.517   0.785   0.276  1.9973  0.5338 -0.3964
 1233SOL    HW2 4599   5.503   0.788   0.439 -1.5049 -0.7520 -0.6007
 1234SOL     OW 4600   4.901   1.563   1.130  0.1239  0.1600  0.3661
 1234SOL    HW1 4601   4.999   1.572   1.111  0.2391  0.6860  1.1394
 1234SOL    HW2 4602   4.864   1.653   1.155 -1.0098  0.3890 -1.9346
 1235SOL     OW 4603   1.834   6.992   3.071 -0.2054  0.4922  0.2526
 1235SOL    HW1 4604   1.870   6.904   3.103 -1.5167 -0.3011 -0.3862
 1235SOL    HW2 4605   1.897   7.065   3.099  0.9882 -0.6430  0.6785
 1236SOL     OW 4606   4.338   5.976   5.589  0.1004 -0.2664 -0.0177
 1236SOL    HW1 4607   4.307   6.018   5.674 -0.3999  1.0022 -0.7902
 1236SOL    HW2 4608   4.260   5.934   5.543  0.2701 -0.4997 -0.0926
 1237SOL     OW 4609   3.350   3.741   3.068 -0.5632  0.4222 -0.4926
 1237SOL    HW1 4610   3.369   3.649   3.032 -0.0801  0.1784  0.3570
 1237SOL    HW2 4611   3.254   3.764   3.051 -1.3224 -1.1637  1.2286
 1238SOL     OW 4612   2.863   6.182   0.415  0.0695  0.4707  0.2936
 1238SOL    HW1 4613   2.827   6.240   0.342  0.0465 -0.0299 -0.0968
 1238SOL    HW2 4614   2.874   6.089   0.382  0.5932  0.3555  0.7619
 1239SOL     OW 4615   2.448   0.905   3.076  0.0154 -0.3819 -0.6243
 1239SOL    HW1 4616   2.479   0.898   3.170  0.4153  0.8494 -0.6438
 1239SOL    HW2 4617   2.448   1.001   3.048  0.2372 -0.7600 -1.9919
 1240SOL     OW 4618   1.201   3.639   0.070 -0.3497 -0.2058  0.1249
 1240SOL    HW1 4619   1.158   3.603   0.152  1.8845 -3.0397  0.2357
 1240SOL    HW2 4620   1.211   3.566   0.003 -1.0752  1.7630 -2.2639
 1241SOL     OW 4621   2.850   4.751   0.975  0.1559  0.0032  0.2014
 1241SOL    HW1 4622   2.937   4.778   0.934  0.3769  1.3032  1.4385
 1241SOL    HW2 4623   2.780   4.744   0.904  1.5971 -2.7523 -1.0805
 1242SOL     OW 4624   0.660   5.141   2.585 -0.1417  0.0949  0.2087
 1242SOL    HW1 4625   0.619   5.065   2.535 -0.1492  0.3358 -0.1565
 1242SOL    HW2 4626   0.653   5.224   2.530 -0.7458  0.5022  0.8945
 1243SOL     OW 4627   5.878   3.764   0.231 -0.2485  0.5846  0.2226
 1243SOL    HW1 4628   5.810   3.770   0.159 -0.8746 -0.3765  0.7165
 1243SOL    HW2 4629   5.903   3.668   0.246 -0.9299  0.6482  2.0133
 1244SOL     OW 4630   1.248   6.513   1.398  0.5583  0.4708 -0.4588
 1244SOL    HW1 4631   1.187   6.455   1.452 -0.3494  1.7944  0.0135
 1244SOL    HW2 4632   1.193   6.570   1.337  1.4670  0.3448 -1.4149
 1245SOL     OW 4633   6.199   0.020   6.403  0.7703 -0.2936 -0.0467
 1245SOL    HW1 4634   6.274  -0.001   6.340  0.7405 -0.1768 -0.1222
 1245SOL    HW2 4635   6.176  -0.062   6.455 -0.1059 -0.7771 -1.1492
 1246SOL     OW 4636   5.157   2.703   0.645 -0.3196  0.0219 -0.3335
 1246SOL    HW1 4637   5.218   2.765   0.595  0.2194  0.8542  1.2918
 1246SOL    HW2 4638   5.063   2.714   0.612 -0.2062  1.6149 -0.1647
 1247SOL     OW 4639   5.661   1.952   0.535  0.0492  0.5201  0.9605
 1247SOL    HW1 4640   5.577   1.965   0.482 -0.1036 -0.6733  0.8867
 1247SOL    HW2 4641   5.729   2.019   0.505 -0.6784  1.1350  0.6237
 1248SOL     OW 4642   0.990   5.068   5.176  0.0300 -0.1087  0.0652
 1248SOL    HW1 4643   1.023   5.139   5.115  0.1212  0.6752  1.0012
 1248SOL    HW2 4644   0.970   5.107   5.266 -2.6517 -0.7230 -0.2018
 1249SOL     OW 4645   1.964   1.425   3.206 -0.0168 -0.4526  0.5683
 1249SOL    HW1 4646   1.926   1.390   3.120  1.6257 -0.9298 -0.0070
 1249SOL    HW2 4647   2.063   1.418   3.203  0.0609 -0.7593  2.6480
 1250SOL     OW 4648   3.154   2.176   2.716  0.6006  0.2467 -0.1380
 1250SOL    HW1 4649   3.248   2.168   2.684  0.9988  1.8240  0.5656
 1250SOL    HW2 4650   3.094   2.197   2.638  0.8835 -0.3341 -0.5188
 1251SOL     OW 4651   3.671   0.318   5.326  0.0951  0.1000  1.0412
 1251SOL    HW1 4652   3.655   0.384   5.252 -0.0569 -1.4932 -0.4046
 1251SOL    HW2 4653   3.769   0.301   5.335  0.0198 -1.0080 -0.0189
 1252SOL     OW 4654   1.768   0.710   4.630 -0.1175  0.2320 -0.3287
 1252SOL    HW1 4655   1.679   0.663   4.631 -0.0322 -0.0286  2.4986
 1252SOL    HW2 4656   1.765   0.783   4.561 -2.1985 -0.3396 -0.9449
 1253SOL     OW 4657   3.210   1.481   4.018  0.3159 -0.0993 -0.0979
 1253SOL    HW1 4658   3.219   1.514   4.112 -0.6215  0.0633 -0.0558
 1253SOL    HW2 4659   3.218   1.381   4.017 -1.0591 -0.2252  0.3508
 1254SOL     OW 4660   6.542   1.783   0.242  0.5752  0.5144 -0.7702
 1254SOL    HW1 4661   6.481   1.726   0.297  0.0032  1.7824 -0.0437
 1254SOL    HW2 4662   6.508   1.786   0.148  0.4662 -0.1297 -0.7542
 1255SOL     OW 4663   3.950   4.101   6.641 -0.6691  0.2251 -0.4151
 1255SOL    HW1 4664   3.892   4.167   6.593 -1.3025  0.2035  0.2948
 1255SOL    HW2 4665   4.035   4.145   6.669 -0.7492  0.5194 -0.6345
 1256SOL     OW 4666   5.593   2.516   3.266 -0.1496 -0.4686  0.1527
 1256SOL    HW1 4667   5.520   2.453   3.240  0.0288 -0.4622 -0.3719
 1256SOL    HW2 4668   5.561   2.575   3.340  0.0496 -1.9007  1.4206
 1257SOL     OW 4669   3.515   1.476   4.249 -1.1387 -0.0489 -0.0742
 1257SOL    HW1 4670   3.547   1.415   4.176 -2.0877 -1.0302  0.3188
 1257SOL    HW2 4671   3.594   1.519   4.293 -0.3827 -1.6556  0.2129
 1258SOL     OW 4672   3.508   3.517   0.641 -0.3050 -0.3824  0.0110
 1258SOL    HW1 4673   3.522   3.600   0.696 -2.3684  0.7265 -1.0414
 1258SOL    HW2 4674   3.495   3.440   0.703 -3.3267  0.9552  1.2347
 1259SOL     OW 4675   4.129   4.313   5.569  0.3305  0.3608  0.1442
 1259SOL    HW1 4676   4.043   4.265   5.555 -0.6984  1.4027  2.3440
 1259SOL    HW2 4677   4.145   4.377   5.494  0.1113 -1.0702 -1.1663
 1260SOL     OW 4678   5.392   4.844   1.986  0.0202 -0.3188 -0.6182
 1260SOL    HW1 4679   5.325   4.794   2.041  1.5237 -1.3775  0.3302
 1260SOL    HW2 4680   5.392   4.940   2.014  0.7410 -0.8301  1.3067
 1261SOL     OW 4681   0.656   4.964   6.560 -0.3379 -0.5309 -0.4402
 1261SOL    HW1 4682   0.612   4.875   6.562 -0.6632 -0.3913 -1.1416
 1261SOL    HW2 4683   0.638   5.012   6.646  0.4652 -1.4242  0.2512
 1262SOL     OW 4684   3.453   4.604   1.447 -0.2545 -0.4533  0.0157
 1262SOL    HW1 4685   3.375   4.577   1.391 -0.9116 -1.2145  1.2630
 1262SOL    HW2 4686   3.422   4.658   1.525  0.4212 -0.9602  0.6561
 1263SOL     OW 4687   1.010   6.073   0.310  0.6593 -0.0227  0.3845
 1263SOL    HW1 4688   1.067   6.153   0.327  1.2112 -0.3389  0.0636
 1263SOL    HW2 4689   1.030   6.037   0.219 -1.5409  1.0788 -0.6073
 1264SOL     OW 4690   3.261   1.953   6.923  0.3212 -0.2137 -1.0221
 1264SOL    HW1 4691   3.252   1.893   7.003  0.8876  3.1538  1.8239
 1264SOL    HW2 4692   3.187   1.934   6.859 -0.7675 -2.4290  0.7230
 1265SOL     OW 4693   4.922   5.714   4.120  0.6748 -0.0644 -0.2147
 1265SOL    HW1 4694   4.856   5.779   4.158 -0.6401 -0.0682 -2.3008
 1265SOL    HW2 4695   4.961   5.752   4.036  0.5615 -1.5585 -0.9803
 1266SOL     OW 4696   3.059   5.965   1.742  0.3242 -0.2229  0.4091
 1266SOL    HW1 4697   3.130   6.034   1.757 -0.3965  0.5805  0.2388
 1266SOL    HW2 4698   3.045   5.913   1.826  0.7742 -0.0536  0.5929
 1267SOL     OW 4699   0.164   3.001   4.411 -0.2548  0.2445  0.7319
 1267SOL    HW1 4700   0.231   3.004   4.484  0.4801 -0.7752  0.1160
 1267SOL    HW2 4701   0.205   3.036   4.327 -1.3592  2.2696  0.9706
 1268SOL     OW 4702   6.211   5.659   2.953 -0.4456  0.5661  0.0986
 1268SOL    HW1 4703   6.187   5.562   2.954  0.7322  0.2613  0.4999
 1268SOL    HW2 4704   6.255   5.683   3.040 -0.5349  1.4075 -0.0861
 1269SOL     OW 4705   2.764   6.452   4.801  0.0132  0.2516 -0.6040
 1269SOL    HW1 4706   2.794   6.547   4.810 -0.2300  0.3121 -0.4264
 1269SOL    HW2 4707   2.666   6.447   4.815 -0.0794  0.0666 -1.2619
 1270SOL     OW 4708   4.174   1.949   4.339 -0.4643  0.3141 -0.0478
 1270SOL    HW1 4709   4.184   2.042   4.374 -0.0504  0.0107  0.6645
 1270SOL    HW2 4710   4.164   1.886   4.416  2.8297 -0.6666 -0.3059
 1271SOL     OW 4711   2.104   3.942   4.787 -0.5138  0.1054 -0.6521
 1271SOL    HW1 4712   2.032   3.953   4.856  0.2573  0.5682  0.1025
 1271SOL    HW2 4713   2.193   3.943   4.832  0.0228  0.6328 -1.6877
 1272SOL     OW 4714   1.592   0.506   0.692 -0.3664  0.3583  0.2271
 1272SOL    HW1 4715   1.617   0.422   0.742  0.0145 -0.1156 -0.7227
 1272SOL    HW2 4716   1.664   0.526   0.625 -0.0857  1.8768  0.9515
 1273SOL     OW 4717   1.907   4.958   5.651 -0.1974 -0.2102  0.4979
 1273SOL    HW1 4718   1.921   4.983   5.555  0.0825 -0.4626  0.4690
 1273SOL    HW2 4719   1.851   4.875   5.657 -0.4124 -0.0608  0.5613
 1274SOL     OW 4720   0.583   3.679   5.597  0.1076  0.0486  0.0758
 1274SOL    HW1 4721   0.660   3.720   5.647  0.6371 -1.0310  0.1548
 1274SOL    HW2 4722   0.555   3.741   5.524  0.8206  0.6078  0.2581
 1275SOL     OW 4723   4.857   3.420   1.770 -0.1935 -0.5946 -0.1225
 1275SOL    HW1 4724   4.907   3.363   1.835 -0.0957 -0.1308  0.2151
 1275SOL    HW2 4725   4.780   3.368   1.733  0.6951 -1.4153 -0.8713
 1276SOL     OW 4726   6.286   4.199   2.353 -0.5320 -0.3595 -0.1473
 1276SOL    HW1 4727   6.370   4.148   2.335 -0.3869  0.0921 -0.8148
 1276SOL    HW2 4728   6.208   4.149   2.313 -0.4719 -0.3814 -0.2381
 1277SOL     OW 4729   6.723   6.956   5.194  0.0592 -0.0957  0.2529
 1277SOL    HW1 4730   6.769   6.991   5.276  1.2263  1.1851 -0.8940
 1277SOL    HW2 4731   6.705   7.032   5.131  1.4133 -1.3284 -1.7340
 1278SOL     OW 4732   5.555   1.036   3.914 -0.3717  0.4236  0.4921
 1278SOL    HW1 4733   5.476   1.094   3.930 -0.2684  0.5727  0.4587
 1278SOL    HW2 4734   5.628   1.089   3.871 -1.2215 -0.3338 -2.0140
 1279SOL     OW 4735   3.597   2.074   1.772  0.1391 -0.1835 -0.2425
 1279SOL    HW1 4736   3.639   2.159   1.802 -0.2396 -0.1603  0.2408
 1279SOL    HW2 4737   3.600   2.007   1.846  0.2769 -0.5313 -0.5613
 1280SOL     OW 4738   0.114   4.090   2.997 -0.1002  0.2508 -0.1913
 1280SOL    HW1 4739   0.026   4.108   3.040  0.5073  2.0188  0.4397
 1280SOL    HW2 4740   0.171   4.173   3.002  1.1910 -0.4903 -1.5635
 1281SOL     OW 4741   5.946   1.526   4.600  0.1514  0.3484 -0.7465
 1281SOL    HW1 4742   5.995   1.456   4.547  0.6189  0.8347 -0.9619
 1281SOL    HW2 4743   5.917   1.599   4.539 -1.2796 -0.1540 -0.7116
 1282SOL     OW 4744   5.440   2.654   3.461 -0.0108  0.3867 -0.1224
 1282SOL    HW1 4745   5.367   2.708   3.420 -0.4681  0.7705  1.1419
 1282SOL    HW2 4746   5.526   2.705   3.455 -0.4777  1.4035  1.2454
 1283SOL     OW 4747   6.406   6.747   3.707 -0.0185 -0.4133 -0.1097
 1283SOL    HW1 4748   6.464   6.676   3.667  0.1867 -0.0285 -0.5045
 1283SOL    HW2 4749   6.436   6.837   3.675 -1.5796 -0.2617 -1.3154
 1284SOL     OW 4750   3.529   1.128   3.336  0.4243 -0.3556  0.6225
 1284SOL    HW1 4751   3.500   1.211   3.385 -1.1052 -1.1696  1.1584
 1284SOL    HW2 4752   3.554   1.153   3.242 -1.2395  0.5689  0.3731
 1285SOL     OW 4753   6.952   4.456   3.270  0.3839 -0.3626  0.2764
 1285SOL    HW1 4754   6.857   4.484   3.256  0.1830 -1.4892 -0.7674
 1285SOL    HW2 4755   6.996   4.520   3.333 -0.7145  0.8813 -0.1613
 1286SOL     OW 4756   0.696   5.695   6.888  0.1132  0.0647 -0.2449
 1286SOL    HW1 4757   0.752   5.745   6.953 -0.9137  0.8111  0.0912
 1286SOL    HW2 4758   0.629   5.639   6.938  0.1815 -0.3857 -0.6459
 1287SOL     OW 4759   6.161   5.906   6.190 -0.3820  0.6689 -0.3286
 1287SOL    HW1 4760   6.238   5.893   6.128  0.4416  1.9007  0.3876
 1287SOL    HW2 4761   6.081   5.936   6.138 -0.4185 -0.6695 -1.0886
 1288SOL     OW 4762   0.989   0.025   3.392 -0.3679 -0.7944  0.2245
 1288SOL    HW1 4763   1.030   0.116   3.399 -1.2490 -0.3959  0.3349
 1288SOL    HW2 4764   1.002  -0.009   3.298  1.0866 -1.1183  0.5207
 1289SOL     OW 4765   3.809   1.108   1.011  0.6295 -0.1109 -0.2931
 1289SOL    HW1 4766   3.896   1.086   1.054  1.0564  0.7651 -0.7036
 1289SOL    HW2 4767   3.736   1.104   1.080  0.9892 -0.8011  0.0565
 1290SOL     OW 4768   5.792   0.040   0.504 -0.9755  0.8395  0.3813
 1290SOL    HW1 4769   5.866   0.055   0.569  1.7373 -0.2635 -2.2404
 1290SOL    HW2 4770   5.780   0.120   0.446 -0.2916  0.2524 -0.6022
 1291SOL     OW 4771   6.595   1.263   6.330 -0.5612 -0.0253  0.0158
 1291SOL    HW1 4772   6.524   1.203   6.293 -3.4941  1.8556  2.1317
 1291SOL    HW2 4773   6.641   1.218   6.407 -0.6761 -0.5923 -0.2426
 1292SOL     OW 4774   1.774   4.069   0.253 -0.2065 -0.1018  0.8561
 1292SOL    HW1 4775   1.711   3.999   0.220 -0.2645  0.5476 -0.4949
 1292SOL    HW2 4776   1.739   4.159   0.229  0.2052  0.3736  1.9742
 1293SOL     OW 4777   3.754   6.184   4.700  0.2392  0.1770  0.4314
 1293SOL    HW1 4778   3.785   6.193   4.795  1.0060 -0.8520  0.2987
 1293SOL    HW2 4779   3.775   6.092   4.667  0.2190  0.6050 -0.8229
 1294SOL     OW 4780   6.454   4.310   6.231 -0.0987 -0.0503  0.4713
 1294SOL    HW1 4781   6.508   4.360   6.163  2.2549 -0.4202  1.9564
 1294SOL    HW2 4782   6.367   4.283   6.190  1.2186 -0.3380 -2.4378
 1295SOL     OW 4783   1.291   6.804   5.747  0.2523  0.1994  0.1802
 1295SOL    HW1 4784   1.303   6.880   5.811  1.7862  0.2180 -0.0941
 1295SOL    HW2 4785   1.252   6.725   5.796 -2.3690  1.4096  0.2592
 1296SOL     OW 4786   6.897   2.200   0.609  0.4288  0.0779  0.0895
 1296SOL    HW1 4787   6.870   2.273   0.673  1.4838  0.0089  0.6345
 1296SOL    HW2 4788   6.858   2.113   0.640 -0.0380  0.2356 -0.0324
 1297SOL     OW 4789   0.517   6.442   6.329 -0.1402 -0.5078  0.2285
 1297SOL    HW1 4790   0.534   6.454   6.232 -0.9808 -0.5822  0.0627
 1297SOL    HW2 4791   0.588   6.489   6.382  0.2991 -0.4372 -0.4122
 1298SOL     OW 4792   2.150   0.098   3.820 -0.2270  0.3584 -0.2497
 1298SOL    HW1 4793   2.136  -0.001   3.817 -0.8590  0.3894  1.0589
 1298SOL    HW2 4794   2.138   0.136   3.729 -2.0506 -0.5026 -0.4114
 1299SOL     OW 4795   0.303   1.097   5.824  0.3299  0.1196  0.2893
 1299SOL    HW1 4796   0.279   1.167   5.891  1.4542  0.2248  0.6142
 1299SOL    HW2 4797   0.235   1.095   5.750 -2.0461 -1.3223  2.3549
 1300SOL     OW 4798   2.132   0.260   5.153  0.1344 -0.0187  0.2979
 1300SOL    HW1 4799   2.193   0.314   5.212  0.3437 -1.7203  1.6993
 1300SOL    HW2 4800   2.157   0.277   5.057  0.1841  2.3355  0.6617
 1301SOL     OW 4801   0.283   6.914   6.434  0.0854  0.4560  0.3340
 1301SOL    HW1 4802   0.236   6.902   6.346 -0.5944  0.8008  0.6442
 1301SOL    HW2 4803   0.380   6.892   6.423 -0.4688 -2.3984  0.1536
 1302SOL     OW 4804   4.738   5.463   6.697 -0.0816 -0.0843 -0.2210
 1302SOL    HW1 4805   4.805   5.520   6.649 -0.1307  0.3287  0.1900
 1302SOL    HW2 4806   4.681   5.521   6.755 -0.5917 -0.4752 -0.3330
 1303SOL     OW 4807   1.883   0.323   4.197  0.8278  0.6969 -0.3887
 1303SOL    HW1 4808   1.800   0.377   4.209  0.9459  1.2365 -1.8165
 1303SOL    HW2 4809   1.963   0.380   4.216  0.9013  0.4959 -0.0976
 1304SOL     OW 4810   6.811   1.250   4.892  0.3245 -0.1371 -0.1874
 1304SOL    HW1 4811   6.874   1.222   4.965 -1.1138  0.1385  1.2164
 1304SOL    HW2 4812   6.832   1.343   4.863  0.9997 -0.3038 -0.2469
 1305SOL     OW 4813   0.192   3.370   0.240 -0.1499  0.0587 -0.4341
 1305SOL    HW1 4814   0.272   3.427   0.258  0.7293 -0.7486 -1.6707
 1305SOL    HW2 4815   0.143   3.408   0.161 -0.9238  0.4610  0.2241
 1306SOL     OW 4816   1.235   0.772   1.425 -0.3805  0.2905 -0.2099
 1306SOL    HW1 4817   1.228   0.681   1.384 -1.0998  0.8598 -1.3875
 1306SOL    HW2 4818   1.297   0.829   1.370 -0.9240  0.8962 -0.2033
 1307SOL     OW 4819   1.798   0.764   0.351 -0.3102 -0.0327  0.8391
 1307SOL    HW1 4820   1.759   0.761   0.259  0.0471 -0.2808  0.6962
 1307SOL    HW2 4821   1.855   0.846   0.361  0.0054 -0.2358  0.6982
 1308SOL     OW 4822   4.500   4.887   0.904 -0.1293  0.1727  0.0527
 1308SOL    HW1 4823   4.485   4.953   0.830 -1.0881  0.4462  0.4679
 1308SOL    HW2 4824   4.459   4.922   0.988  0.1820 -0.5324  0.5069
 1309SOL     OW 4825   4.514   2.806   5.904 -0.0911 -0.0567 -0.1760
 1309SOL    HW1 4826   4.502   2.854   5.991  0.1311  2.4403 -1.4366
 1309SOL    HW2 4827   4.427   2.764   5.878 -0.2571 -0.5204  1.0458
 1310SOL     OW 4828   3.812   0.837   1.346 -0.3278 -0.0330 -0.6275
 1310SOL    HW1 4829   3.893   0.806   1.296  0.0638  1.2027 -0.7780
 1310SOL    HW2 4830   3.777   0.921   1.305  0.3147  1.3408  1.4525
 1311SOL     OW 4831   6.668   5.073   2.037  0.3833  0.0681  0.0698
 1311SOL    HW1 4832   6.685   5.041   1.944  3.5272 -0.0132  0.5633
 1311SOL    HW2 4833   6.572   5.099   2.046 -0.5545 -2.0409 -2.5035
 1312SOL     OW 4834   1.108   4.044   6.432 -0.5698  0.3083  0.6500
 1312SOL    HW1 4835   1.141   4.055   6.339 -0.2304  2.2169  0.9534
 1312SOL    HW2 4836   1.032   3.979   6.433 -0.0449 -0.3782 -0.8022
 1313SOL     OW 4837   6.919   0.691   4.024  0.1853  0.3035 -0.1743
 1313SOL    HW1 4838   6.919   0.787   3.996  2.0808  0.7540  1.2135
 1313SOL    HW2 4839   6.978   0.638   3.963  0.4161  0.3403  0.0145
 1314SOL     OW 4840   3.216   1.289   2.231  0.4584 -0.1039 -0.0289
 1314SOL    HW1 4841   3.117   1.275   2.227  0.3962  0.1948  0.4224
 1314SOL    HW2 4842   3.242   1.317   2.323  0.9711 -0.2319 -0.1331
 1315SOL     OW 4843   0.430   5.784   2.489  0.1287  0.4990 -1.0846
 1315SOL    HW1 4844   0.402   5.785   2.393  0.1754 -1.8590 -1.1958
 1315SOL    HW2 4845   0.357   5.743   2.544  1.6226 -2.0297 -0.7963
 1316SOL     OW 4846   2.112   0.040   5.325 -0.6968  0.1546 -0.0353
 1316SOL    HW1 4847   2.034   0.060   5.385 -0.4626  1.2987 -0.0741
 1316SOL    HW2 4848   2.109   0.101   5.246 -0.1103 -0.2231 -0.3524
 1317SOL     OW 4849   3.145   3.727   5.252  0.2135  0.3198  0.3598
 1317SOL    HW1 4850   3.116   3.760   5.162 -1.2107  0.5032  0.8523
 1317SOL    HW2 4851   3.237   3.689   5.246  1.0413  2.3545 -0.7024
 1318SOL     OW 4852   3.841   3.270   6.391 -0.1478 -0.1964 -0.1697
 1318SOL    HW1 4853   3.886   3.181   6.403 -0.1802 -0.4713 -1.7906
 1318SOL    HW2 4854   3.908   3.337   6.361  0.0856  0.6301  2.0412
 1319SOL     OW 4855   5.800   4.786   2.472  0.3199 -0.3472  0.2031
 1319SOL    HW1 4856   5.853   4.869   2.493  2.2188 -1.3940 -0.1886
 1319SOL    HW2 4857   5.718   4.811   2.422 -0.2935  1.4768  1.9721
 1320SOL     OW 4858   1.739   4.198   4.800 -0.2035  0.1792 -0.2760
 1320SOL    HW1 4859   1.752   4.287   4.844 -0.7021  0.5847 -0.9369
 1320SOL    HW2 4860   1.670   4.146   4.849  0.2396  0.0634  0.2375
 1321SOL     OW 4861   1.920   4.874   4.718 -0.3800  0.5375  0.7015
 1321SOL    HW1 4862   1.901   4.847   4.623 -0.5395  0.6031  0.7158
 1321SOL    HW2 4863   1.940   4.972   4.721 -1.8283  0.8468  0.9441
 1322SOL     OW 4864   1.143   4.664   4.832  0.7133 -0.1929  0.3471
 1322SOL    HW1 4865   1.054   4.657   4.787  0.1199 -0.9317  1.5782
 1322SOL    HW2 4866   1.197   4.736   4.788 -0.0878 -0.4132 -1.0654
 1323SOL     OW 4867   2.826   4.228   0.110 -0.2651 -0.4664 -0.2375
 1323SOL    HW1 4868   2.754   4.246   0.043 -0.8317 -1.2412  0.1391
 1323SOL    HW2 4869   2.913   4.215   0.062 -0.0282  2.0579 -0.5826
 1324SOL     OW 4870   6.816   5.266   6.698 -0.0650  0.0866  0.1576
 1324SOL    HW1 4871   6.774   5.182   6.733 -0.1107 -0.0029 -0.1088
 1324SOL    HW2 4872   6.915   5.264   6.716 -0.0295 -0.1292 -0.0458
 1325SOL     OW 4873   5.476   3.648   1.725 -0.0181  0.0673 -0.1234
 1325SOL    HW1 4874   5.487   3.554   1.756  1.1841 -0.1798 -1.2125
 1325SOL    HW2 4875   5.382   3.663   1.695 -0.8066 -0.1233  2.0791
 1326SOL     OW 4876   5.125   0.594   0.023 -0.4238 -0.2483  0.2765
 1326SOL    HW1 4877   5.060   0.598   0.099 -2.1049 -1.2763 -1.0197
 1326SOL    HW2 4878   5.193   0.523   0.041 -1.4549 -1.2365  0.3805
 1327SOL     OW 4879   1.058   3.813   6.766 -0.1632  0.0112 -0.5448
 1327SOL    HW1 4880   1.138   3.870   6.783 -0.4354 -0.1461  1.4293
 1327SOL    HW2 4881   1.013   3.843   6.682  0.9863  1.2104 -0.7579
 1328SOL     OW 4882   1.424   2.684   6.682  0.1397  0.2935  0.2886
 1328SOL    HW1 4883   1.383   2.699   6.772  1.4519  0.7977  0.8286
 1328SOL    HW2 4884   1.427   2.771   6.632 -1.4254 -0.1537 -0.6371
 1329SOL     OW 4885   5.196   1.170   6.525 -0.1279  0.1965  0.1142
 1329SOL    HW1 4886   5.188   1.177   6.426 -1.9372  0.7299  0.2534
 1329SOL    HW2 4887   5.218   1.076   6.551  1.3468  0.2542 -0.8100
 1330SOL     OW 4888   1.910   1.940   0.138 -0.1990 -0.2901  0.0541
 1330SOL    HW1 4889   1.934   2.035   0.123  0.5695 -0.6275 -0.9201
 1330SOL    HW2 4890   1.814   1.925   0.112 -0.2203  0.1267 -0.1102
 1331SOL     OW 4891   4.520   2.410   1.024 -0.8986 -0.1774  0.0764
 1331SOL    HW1 4892   4.603   2.368   0.985 -1.7403 -3.2208  1.2463
 1331SOL    HW2 4893   4.439   2.370   0.980 -1.7906  0.8715  0.7222
 1332SOL     OW 4894   4.089   1.330   2.513  0.5495  0.2345 -0.3407
 1332SOL    HW1 4895   4.044   1.300   2.429 -0.0839 -0.0679  0.1013
 1332SOL    HW2 4896   4.175   1.281   2.525  0.2688 -0.2826 -0.4210
 1333SOL     OW 4897   0.763   1.993   6.131  0.1930 -0.3253  0.9900
 1333SOL    HW1 4898   0.718   2.052   6.064 -0.8901 -1.4751  0.6532
 1333SOL    HW2 4899   0.707   1.989   6.214  0.7224 -0.1733  1.3609
 1334SOL     OW 4900   3.973   1.473   0.157 -0.0461  0.5682 -0.3406
 1334SOL    HW1 4901   4.062   1.505   0.189 -0.8219  1.1141  1.4218
 1334SOL    HW2 4902   3.959   1.378   0.187  0.7354 -0.2686 -2.3982
 1335SOL     OW 4903   5.716   0.409   6.265 -0.1281 -0.0293  0.7806
 1335SOL    HW1 4904   5.648   0.410   6.339  1.2219  0.8310  2.0844
 1335SOL    HW2 4905   5.683   0.353   6.190 -1.4561 -1.1729  2.1479
 1336SOL     OW 4906   2.965   0.499   3.320  0.1818 -0.3679 -0.1186
 1336SOL    HW1 4907   2.934   0.571   3.258  0.5946 -0.6125 -0.6204
 1336SOL    HW2 4908   2.999   0.421   3.267 -0.0471 -0.8447  0.4158
 1337SOL     OW 4909   3.976   0.982   5.898 -0.9900  0.2352 -0.1307
 1337SOL    HW1 4910   3.890   0.952   5.939 -1.7779  1.0557 -1.1193
 1337SOL    HW2 4911   3.999   1.073   5.932 -0.5957  0.0911 -0.0029
 1338SOL     OW 4912   6.803   2.779   2.939  0.4580  0.5163 -0.0919
 1338SOL    HW1 4913   6.903   2.774   2.941  0.5448  1.4468 -1.2105
 1338SOL    HW2 4914   6.775   2.869   2.908 -0.7628  0.7394  1.4920
 1339SOL     OW 4915   6.069   6.241   6.095  0.2435 -0.4983  0.3405
 1339SOL    HW1 4916   6.036   6.148   6.081 -0.8695 -0.2825  1.3197
 1339SOL    HW2 4917   6.036   6.274   6.184 -2.1848  1.9957 -1.3276
 1340SOL     OW 4918   0.793   2.993   6.027 -0.2042 -0.8506  0.5572
 1340SOL    HW1 4919   0.871   2.971   5.968  0.0008  0.4114  0.3269
 1340SOL    HW2 4920   0.795   3.090   6.050 -0.3427 -1.2857  2.5789
 1341SOL     OW 4921   1.760   1.682   0.924  0.0867 -0.0766 -0.0828
 1341SOL    HW1 4922   1.814   1.598   0.926 -0.0298 -0.2476 -1.8553
 1341SOL    HW2 4923   1.668   1.662   0.889 -0.3893  0.5851  0.7377
 1342SOL     OW 4924   5.057   2.741   6.783 -0.1132 -0.3106 -0.4055
 1342SOL    HW1 4925   5.091   2.675   6.850 -1.2709 -0.5734 -0.0506
 1342SOL    HW2 4926   5.095   2.831   6.804  1.9985 -0.9461 -1.2873
 1343SOL     OW 4927   5.106   2.557   3.368  0.0778 -0.2182 -0.0325
 1343SOL    HW1 4928   5.112   2.498   3.288  1.6445  0.6116 -0.5539
 1343SOL    HW2 4929   5.068   2.646   3.341 -3.9272 -1.3674  1.0358
 1344SOL     OW 4930   4.852   1.859   5.501 -0.0819 -0.0893 -0.5396
 1344SOL    HW1 4931   4.770   1.844   5.446  0.1445 -1.1211 -0.6189
 1344SOL    HW2 4932   4.877   1.774   5.547  1.1557  0.1115 -0.8102
 1345SOL     OW 4933   4.373   5.543   0.414 -0.0422  0.0444  0.1259
 1345SOL    HW1 4934   4.389   5.485   0.494  2.2257 -2.3933 -1.9285
 1345SOL    HW2 4935   4.275   5.562   0.406 -0.3694  0.3340  3.3460
 1346SOL     OW 4936   6.317   3.578   4.288  0.1795  0.5259 -0.3140
 1346SOL    HW1 4937   6.284   3.489   4.255  0.9136  0.2648 -0.3767
 1346SOL    HW2 4938   6.393   3.608   4.230 -0.8664  1.8071 -1.0689
 1347SOL     OW 4939   2.438   5.533   4.686 -0.1246 -0.2158 -0.1325
 1347SOL    HW1 4940   2.415   5.628   4.707  0.8575  0.6297 -2.5349
 1347SOL    HW2 4941   2.532   5.515   4.715 -0.4156 -0.5664  0.6082
 1348SOL     OW 4942   6.996   1.757   6.755  0.4894  0.0233 -0.8784
 1348SOL    HW1 4943   7.001   1.749   6.855  2.3191  2.2620 -0.7261
 1348SOL    HW2 4944   6.906   1.726   6.725 -0.1810 -0.5611  1.4654
 1349SOL     OW 4945   3.599   0.893   3.153  0.4286  0.2438 -0.7161
 1349SOL    HW1 4946   3.606   0.848   3.241  0.5458  0.6334 -0.5248
 1349SOL    HW2 4947   3.680   0.950   3.138 -0.5813  1.9427 -0.0827
 1350SOL     OW 4948   1.191   3.723   1.013 -0.4127  0.7051 -0.1195
 1350SOL    HW1 4949   1.196   3.704   1.111 -1.6237  0.4759 -0.0862
 1350SOL    HW2 4950   1.258   3.667   0.965 -0.7339 -0.1889  0.4464
 1351SOL     OW 4951   2.052   2.025   0.698  0.2816 -0.0678  0.1117
 1351SOL    HW1 4952   2.031   2.115   0.735  1.0586  0.0356  0.3340
 1351SOL    HW2 4953   2.024   1.955   0.764  0.1254  0.0385  0.1578
 1352SOL     OW 4954   5.932   5.256   2.609  0.1355 -0.1304 -0.6016
 1352SOL    HW1 4955   5.992   5.335   2.606  0.8746 -0.6801 -0.6110
 1352SOL    HW2 4956   5.867   5.266   2.684  0.1800  0.5101 -0.6458
 1353SOL     OW 4957   4.103   2.090   6.492 -0.1700 -0.1467 -0.1838
 1353SOL    HW1 4958   4.024   2.053   6.541 -0.9678 -0.0452 -1.3395
 1353SOL    HW2 4959   4.158   2.014   6.456 -0.1470 -0.2204  0.0101
 1354SOL     OW 4960   1.157   1.542   3.479  0.1458 -0.1026 -0.1723
 1354SOL    HW1 4961   1.230   1.609   3.472 -0.2557  0.3230 -0.3500
 1354SOL    HW2 4962   1.112   1.531   3.390  0.1312 -0.5208 -0.1178
 1355SOL     OW 4963   3.421   2.589   1.696  0.0168 -0.2635  0.2211
 1355SOL    HW1 4964   3.436   2.655   1.769 -0.6707 -1.7146  1.7245
 1355SOL    HW2 4965   3.506   2.540   1.677  0.4701  0.8265 -0.7435
 1356SOL     OW 4966   5.820   0.287   0.355 -0.1838 -0.4461 -0.4612
 1356SOL    HW1 4967   5.916   0.311   0.367 -0.6392  1.6373 -0.5916
 1356SOL    HW2 4968   5.777   0.349   0.290 -1.4101 -1.9753 -1.2071
 1357SOL     OW 4969   4.810   1.392   1.657 -0.2701 -0.1843  0.2550
 1357SOL    HW1 4970   4.856   1.467   1.705  1.6982 -0.5246 -0.9828
 1357SOL    HW2 4971   4.804   1.413   1.560  0.1801 -1.5404 -0.0886
 1358SOL     OW 4972   3.718   6.631   2.877 -0.4542 -0.3831 -0.3635
 1358SOL    HW1 4973   3.752   6.550   2.924  0.1301 -0.0683 -0.2309
 1358SOL    HW2 4974   3.634   6.662   2.920  0.5975  0.5037  1.1542
 1359SOL     OW 4975   4.026   0.118   2.309  0.6706 -0.0502  0.3237
 1359SOL    HW1 4976   4.079   0.203   2.303 -0.4951  0.7012  0.3434
 1359SOL    HW2 4977   3.994   0.106   2.403  0.1907 -0.1058  0.1538
 1360SOL     OW 4978   1.169   4.855   3.164  0.2117  0.3046  0.1448
 1360SOL    HW1 4979   1.267   4.838   3.176  0.1001 -1.3890 -0.9321
 1360SOL    HW2 4980   1.133   4.792   3.095 -1.2693  2.1760 -0.8755
 1361SOL     OW 4981   2.581   1.750   4.679 -0.2984 -0.6952 -0.3824
 1361SOL    HW1 4982   2.533   1.792   4.755  0.3147 -2.7008  1.2005
 1361SOL    HW2 4983   2.560   1.799   4.594 -1.4756  1.2192  0.9631
 1362SOL     OW 4984   3.768   3.260   2.443  0.2709  0.1827 -0.5463
 1362SOL    HW1 4985   3.794   3.174   2.486 -1.7328 -0.0293  0.3484
 1362SOL    HW2 4986   3.784   3.254   2.344  1.1365 -0.8061 -0.3595
 1363SOL     OW 4987   4.140   0.149   4.955 -0.0299 -0.0321 -0.4746
 1363SOL    HW1 4988   4.089   0.233   4.935  0.6813  0.3003 -0.9239
 1363SOL    HW2 4989   4.237   0.164   4.937  0.2039 -0.7245  0.1632
 1364SOL     OW 4990   5.028   2.658   1.585 -0.3549 -0.1348  0.3284
 1364SOL    HW1 4991   5.011   2.560   1.582 -3.6657  0.1869  2.6489
 1364SOL    HW2 4992   4.947   2.706   1.551  1.3202  1.8864 -1.1029
 1365SOL     OW 4993   5.149   6.436   2.018 -0.0192 -0.1025 -0.5383
 1365SOL    HW1 4994   5.220   6.417   1.951  0.7623 -0.1890  0.2854
 1365SOL    HW2 4995   5.093   6.354   2.032  1.2797 -0.8356  0.5957
 1366SOL     OW 4996   6.161   1.821   6.155  0.0183  0.2202 -0.0334
 1366SOL    HW1 4997   6.138   1.882   6.080 -1.4601  0.9606  0.9681
 1366SOL    HW2 4998   6.236   1.761   6.128  1.2087  2.1466 -1.2070
 1367SOL     OW 4999   1.913   1.160   5.069 -0.6010 -0.4286 -0.2679
 1367SOL    HW1 5000   1.914   1.062   5.046  2.7911 -0.4985 -0.2358
 1367SOL    HW2 5001   1.871   1.211   4.993 -1.4320 -1.7860 -0.7585
 1368SOL     OW 5002   0.986   4.371   4.179 -0.4787 -0.2964  0.7581
 1368SOL    HW1 5003   1.038   4.362   4.263  1.8273 -0.0041 -0.5581
 1368SOL    HW2 5004   0.891   4.394   4.201  0.1571  0.2699  3.2351
 1369SOL     OW 5005   2.394   3.711   6.661  0.8826  0.1238 -0.0528
 1369SOL    HW1 5006   2.384   3.691   6.564  0.7242  0.8721 -0.1994
 1369SOL    HW2 5007   2.491   3.727   6.682  1.1298 -1.5588  0.2357
 1370SOL     OW 5008   5.377   5.744   0.894 -0.0364  0.1280  0.6286
 1370SOL    HW1 5009   5.473   5.764   0.876  0.0802 -0.9018 -0.0248
 1370SOL    HW2 5010   5.332   5.721   0.807 -0.6276 -0.3366  1.0528
 1371SOL     OW 5011   0.297   2.171   5.056  0.1746 -0.0976 -0.4661
 1371SOL    HW1 5012   0.388   2.199   5.084  0.7872  0.3290 -2.7075
 1371SOL    HW2 5013   0.236   2.250   5.056 -0.1428 -0.3306  0.7699
 1372SOL     OW 5014   0.311   5.924   0.910  0.4326  0.3960 -0.1526
 1372SOL    HW1 5015   0.409   5.934   0.894  0.8920 -2.4157  0.3804
 1372SOL    HW2 5016   0.294   5.914   1.008 -0.7052  3.0430 -0.0047
 1373SOL     OW 5017   2.632   2.229   3.685  0.5671  0.3832  0.3550
 1373SOL    HW1 5018   2.715   2.245   3.632  0.1669 -3.2776 -1.7316
 1373SOL    HW2 5019   2.653   2.174   3.765  0.5956  2.6361  1.9713
 1374SOL     OW 5020   4.663   6.800   5.035 -0.1062  0.3656 -0.5964
 1374SOL    HW1 5021   4.642   6.746   5.117  1.6802  0.6790  0.1120
 1374SOL    HW2 5022   4.685   6.738   4.960  1.1599  0.0437  0.0018
 1375SOL     OW 5023   5.966   3.950   5.534 -0.0423 -0.0899 -0.1415
 1375SOL    HW1 5024   5.966   4.009   5.454 -1.6233 -0.0616 -0.1396
 1375SOL    HW2 5025   5.945   3.856   5.506  0.4022 -0.2719  0.1199
 1376SOL     OW 5026   1.605   1.666   5.988 -0.5116  0.2793  0.1379
 1376SOL    HW1 5027   1.561   1.596   6.044 -0.1425  1.7607  2.4444
 1376SOL    HW2 5028   1.583   1.757   6.025  2.5116  1.1920 -0.0135
 1377SOL     OW 5029   0.741   3.968   0.024 -0.3438 -0.0658 -0.1101
 1377SOL    HW1 5030   0.822   3.909   0.018 -0.8891 -0.7804 -0.6078
 1377SOL    HW2 5031   0.688   3.961  -0.060 -2.8638 -2.5085  1.4921
 1378SOL     OW 5032   6.130   3.128   2.928 -0.7457  0.2095 -0.3190
 1378SOL    HW1 5033   6.057   3.158   2.989  0.3390 -1.3263  1.8922
 1378SOL    HW2 5034   6.106   3.038   2.890  0.2775 -0.7106  1.1031
 1379SOL     OW 5035   5.663   4.044   5.530  0.2896  0.0952  0.1338
 1379SOL    HW1 5036   5.584   4.102   5.513 -1.0046 -1.9165 -1.1811
 1379SOL    HW2 5037   5.719   4.039   5.447  0.0647 -0.9345  0.0247
 1380SOL     OW 5038   6.916   3.182   4.694  0.7103 -0.3003 -0.1967
 1380SOL    HW1 5039   6.991   3.149   4.751  0.0107 -0.9088  0.3871
 1380SOL    HW2 5040   6.876   3.106   4.644  1.2439  0.2034 -1.4673
 1381SOL     OW 5041   3.875   3.487   0.495  0.6253  0.2490  0.4448
 1381SOL    HW1 5042   3.803   3.554   0.511  0.6910  0.3859  0.1791
 1381SOL    HW2 5043   3.842   3.396   0.516  1.3734  0.5875  3.6025
 1382SOL     OW 5044   1.443   2.473   0.258 -0.1475 -0.1808  0.0289
 1382SOL    HW1 5045   1.416   2.430   0.172  1.2768  2.7474 -2.0603
 1382SOL    HW2 5046   1.373   2.540   0.285  0.3811  0.4276 -0.0676
 1383SOL     OW 5047   4.181   0.029   0.942  0.1277  0.1018 -0.3702
 1383SOL    HW1 5048   4.277   0.060   0.940 -0.0677  0.7709  0.3427
 1383SOL    HW2 5049   4.178  -0.067   0.968  0.5685  0.2841  0.3890
 1384SOL     OW 5050   4.900   0.040   0.862 -0.0544 -0.2082 -0.6235
 1384SOL    HW1 5051   4.943  -0.050   0.858  3.1543  1.2113 -1.7300
 1384SOL    HW2 5052   4.892   0.070   0.957  1.7947 -0.4177 -0.3779
 1385SOL     OW 5053   1.168   4.872   4.014  0.6482  0.1554 -0.1718
 1385SOL    HW1 5054   1.157   4.872   3.915  3.0820 -1.0665 -0.4957
 1385SOL    HW2 5055   1.154   4.780   4.049  0.3218  0.4800  0.5757
 1386SOL     OW 5056   4.259   1.854   6.444  0.2426 -0.4451  0.0133
 1386SOL    HW1 5057   4.274   1.771   6.390  1.0551  0.5318 -1.3070
 1386SOL    HW2 5058   4.218   1.829   6.532  0.9365 -2.2882 -0.1412
 1387SOL     OW 5059   5.232   3.504   0.010  0.2947 -0.3595 -0.3671
 1387SOL    HW1 5060   5.275   3.520  -0.079  0.2541  1.5249 -0.0824
 1387SOL    HW2 5061   5.160   3.571   0.025 -1.0901 -1.9214  0.2446
 1388SOL     OW 5062   0.030   6.771   4.029  0.0346 -0.0301  0.3501
 1388SOL    HW1 5063   0.037   6.813   3.939  1.9741  2.2572  1.4663
 1388SOL    HW2 5064  -0.047   6.812   4.079 -1.0851 -1.3483 -0.2319
 1389SOL     OW 5065   3.719   0.156   6.733  0.5356  0.0296 -0.2451
 1389SOL    HW1 5066   3.802   0.204   6.707  0.1194  0.2566 -1.2217
 1389SOL    HW2 5067   3.649   0.222   6.760 -0.0854  0.0320 -1.7299
 1390SOL     OW 5068   3.645   3.436   5.814  0.6639 -0.0729 -0.1788
 1390SOL    HW1 5069   3.692   3.429   5.726  1.1775 -1.2334  0.1626
 1390SOL    HW2 5070   3.710   3.422   5.888  0.1621  0.4871  0.3811
 1391SOL     OW 5071   2.713   5.559   4.685  0.2153 -0.3926  0.3036
 1391SOL    HW1 5072   2.687   5.610   4.602  0.2788  2.6826  2.0312
 1391SOL    HW2 5073   2.807   5.525   4.674 -0.6360 -2.3459 -1.8182
 1392SOL     OW 5074   4.233   5.371   6.998  0.4389  0.3054 -0.1513
 1392SOL    HW1 5075   4.298   5.422   7.054  0.0972 -2.5664  3.1256
 1392SOL    HW2 5076   4.281   5.300   6.946  0.5255  1.9177 -2.4549
 1393SOL     OW 5077   6.094   5.956   1.480 -0.0891  0.3374 -0.5166
 1393SOL    HW1 5078   6.079   5.867   1.437 -1.7317  1.0802 -1.5503
 1393SOL    HW2 5079   6.128   6.021   1.412 -1.3519  1.1513 -0.3939
 1394SOL     OW 5080   5.413   5.308   2.283 -0.2265 -0.4111  0.3584
 1394SOL    HW1 5081   5.382   5.403   2.289  0.1474 -0.1478 -1.1887
 1394SOL    HW2 5082   5.419   5.282   2.186  0.9367 -1.5840  0.7207
 1395SOL     OW 5083   3.878   0.042   4.737 -0.2910  0.4475  0.5787
 1395SOL    HW1 5084   3.866   0.037   4.836 -0.4791  0.8718  0.5787
 1395SOL    HW2 5085   3.793   0.014   4.692  0.5556 -2.3450  0.4736
 1396SOL     OW 5086   4.399   0.174   4.870  0.1981  0.3197  0.2599
 1396SOL    HW1 5087   4.479   0.115   4.860  0.0179 -0.0159  0.7884
 1396SOL    HW2 5088   4.384   0.224   4.784 -0.5393 -1.5198 -0.7525
 1397SOL     OW 5089   2.979   2.245   1.628  0.2440 -0.1103  0.0527
 1397SOL    HW1 5090   3.051   2.297   1.582 -0.2721  0.8770  0.3287
 1397SOL    HW2 5091   3.020   2.181   1.692  0.9211 -0.5359 -0.7858
 1398SOL     OW 5092   4.565   1.239   3.961  0.1358 -0.4961  0.0500
 1398SOL    HW1 5093   4.632   1.294   3.911  1.7713 -1.7005  0.8112
 1398SOL    HW2 5094   4.477   1.241   3.913  0.5799  1.4449 -0.7748
 1399SOL     OW 5095   0.069   2.591   4.410 -0.0072  0.0013 -0.6849
 1399SOL    HW1 5096  -0.019   2.559   4.446 -0.6021 -0.1967 -2.2659
 1399SOL    HW2 5097   0.109   2.656   4.474 -2.0159  1.2437 -0.6316
 1400SOL     OW 5098   1.866   6.502   2.706 -0.2020  0.5092  0.1812
 1400SOL    HW1 5099   1.963   6.478   2.708 -0.0191  1.0114 -1.2592
 1400SOL    HW2 5100   1.845   6.566   2.780  0.2821 -0.5152  1.2409
 1401SOL     OW 5101   1.211   5.447   5.138  0.3509  0.0648 -0.1960
 1401SOL    HW1 5102   1.296   5.496   5.119  0.9557 -1.1607 -0.7003
 1401SOL    HW2 5103   1.217   5.401   5.226 -0.1130  0.6253  0.1425
 1402SOL     OW 5104   0.700   0.438   5.266 -0.1796 -0.4810  0.3854
 1402SOL    HW1 5105   0.740   0.499   5.334 -0.4990 -1.1452  1.1952
 1402SOL    HW2 5106   0.772   0.388   5.219 -0.0005 -1.5086  1.6822
 1403SOL     OW 5107   2.583   0.689   2.889 -0.1020 -0.0015 -0.3301
 1403SOL    HW1 5108   2.518   0.764   2.873 -0.4977 -0.3509 -0.3678
 1403SOL    HW2 5109   2.633   0.669   2.805 -0.0176  0.1976 -0.3282
 1404SOL     OW 5110   6.951   6.089   0.329 -0.0386 -0.7083  0.1034
 1404SOL    HW1 5111   6.946   6.017   0.260  1.4374  0.9612 -1.8618
 1404SOL    HW2 5112   6.859   6.109   0.363 -0.9949 -0.8135 -2.2391
 1405SOL     OW 5113   3.741   3.622   0.057 -0.5242 -0.0850 -0.6927
 1405SOL    HW1 5114   3.748   3.692   0.129 -0.5351 -0.7670 -0.0102
 1405SOL    HW2 5115   3.832   3.597   0.025 -0.3680 -1.2876  0.5967
 1406SOL     OW 5116   0.021   2.277   4.208  0.2518 -0.3618  0.1993
 1406SOL    HW1 5117   0.095   2.309   4.267 -0.0429 -1.2528  1.0758
 1406SOL    HW2 5118   0.008   2.343   4.134  2.7944 -0.8062 -0.7653
 1407SOL     OW 5119   5.070   6.947   4.965  0.3033  0.5019 -0.1569
 1407SOL    HW1 5120   5.001   7.011   4.933 -1.2842 -0.3537  1.4134
 1407SOL    HW2 5121   5.059   6.932   5.063  0.2726 -2.5403 -0.5422
 1408SOL     OW 5122   6.817   2.314   4.822  0.1693 -0.4387 -0.5192
 1408SOL    HW1 5123   6.750   2.339   4.752  0.6500  0.8529 -0.5436
 1408SOL    HW2 5124   6.905   2.295   4.779  0.4383  0.2520 -0.2900
 1409SOL     OW 5125   1.776   2.147   6.802  0.2894  0.7807  0.2925
 1409SOL    HW1 5126   1.743   2.090   6.877 -1.0670  2.1848  0.8232
 1409SOL    HW2 5127   1.857   2.105   6.761 -1.0414 -1.8411  0.1738
 1410SOL     OW 5128   5.574   0.314   6.000 -0.1887 -0.0265  0.2586
 1410SOL    HW1 5129   5.476   0.335   5.993 -0.0776  0.2268 -0.6961
 1410SOL    HW2 5130   5.624   0.369   5.932  0.5893 -0.3141  0.5952
 1411SOL     OW 5131   0.704   5.477   4.594 -0.1710 -0.1569  0.3012
 1411SOL    HW1 5132   0.631   5.505   4.656 -0.2694 -3.8759  2.1126
 1411SOL    HW2 5133   0.666   5.459   4.503 -0.7970  1.2735  0.2490
 1412SOL     OW 5134   6.798   0.138   2.867  0.0688 -0.7491 -0.1774
 1412SOL    HW1 5135   6.753   0.220   2.904 -0.9997 -1.2715 -0.2812
 1412SOL    HW2 5136   6.886   0.163   2.828  1.4083 -0.1847  2.9163
 1413SOL     OW 5137   6.108   3.433   4.688 -0.3181  0.3902 -0.3804
 1413SOL    HW1 5138   6.126   3.336   4.673  1.1834  0.6129 -0.1567
 1413SOL    HW2 5139   6.094   3.479   4.600  1.2925  0.3770 -0.6695
 1414SOL     OW 5140   3.214   0.458   1.341  0.2215 -0.3291 -0.1424
 1414SOL    HW1 5141   3.120   0.465   1.372  0.4059  0.9787  0.1934
 1414SOL    HW2 5142   3.264   0.395   1.400 -0.0755  0.1538  0.6411
 1415SOL     OW 5143   2.770   0.130   0.345 -0.2960  0.1316  0.4071
 1415SOL    HW1 5144   2.797   0.041   0.382  1.0144  0.7197  0.9311
 1415SOL    HW2 5145   2.834   0.200   0.376 -2.0066  1.4931  1.0225
 1416SOL     OW 5146   1.900   2.528   6.643 -0.1319 -0.0264 -0.7560
 1416SOL    HW1 5147   1.861   2.599   6.701 -0.4301 -0.9357  0.1939
 1416SOL    HW2 5148   2.000   2.531   6.649 -0.1649 -0.9493  0.9081
 1417SOL     OW 5149   4.385   3.778   5.370  0.3356  0.6309  0.0642
 1417SOL    HW1 5150   4.468   3.729   5.343  1.3251  0.4499  3.0313
 1417SOL    HW2 5151   4.345   3.735   5.451 -2.0651  1.4062 -0.6206
 1418SOL     OW 5152   6.370   3.620   6.794  0.5342 -0.1694  0.0981
 1418SOL    HW1 5153   6.394   3.638   6.699  0.1769 -0.2237 -0.0058
 1418SOL    HW2 5154   6.271   3.631   6.806  0.0797 -3.1274 -0.2261
 1419SOL     OW 5155   5.477   6.903   5.171 -0.3230 -0.7321 -0.0894
 1419SOL    HW1 5156   5.429   6.960   5.104 -2.6456 -2.0411  0.3693
 1419SOL    HW2 5157   5.486   6.810   5.136  1.2979 -0.7040  0.1538
 1420SOL     OW 5158   6.397   1.101   6.263  0.4804  0.1875  0.6881
 1420SOL    HW1 5159   6.375   1.027   6.200 -0.5230  1.3332 -0.3784
 1420SOL    HW2 5160   6.312   1.145   6.293  0.9502 -0.1739  2.6946
 1421SOL     OW 5161   4.007   1.220   2.224  0.5869  0.4928  0.2303
 1421SOL    HW1 5162   4.010   1.237   2.126  1.1246  0.0117  0.1566
 1421SOL    HW2 5163   4.060   1.138   2.245  0.9789  0.9314  0.9970
 1422SOL     OW 5164   3.287   1.901   6.589  0.4852  0.4158  0.0665
 1422SOL    HW1 5165   3.211   1.842   6.618 -0.1139  0.8604 -0.5462
 1422SOL    HW2 5166   3.372   1.850   6.592 -0.1479 -0.8196 -1.3990
 1423SOL     OW 5167   3.723   3.593   1.470 -0.1206 -0.0198  0.1614
 1423SOL    HW1 5168   3.664   3.555   1.399 -0.1374  1.1784 -0.4804
 1423SOL    HW2 5169   3.813   3.549   1.465 -0.0562  0.2012 -0.7472
 1424SOL     OW 5170   0.364   5.059   4.448 -0.3187 -0.3786  0.3750
 1424SOL    HW1 5171   0.453   5.014   4.447 -0.4934 -0.7480 -1.1975
 1424SOL    HW2 5172   0.326   5.058   4.541  1.1195 -0.5842  0.9734
 1425SOL     OW 5173   6.060   3.442   2.664 -0.6247  0.4279  0.0145
 1425SOL    HW1 5174   6.103   3.443   2.755  2.1803 -0.0345 -1.1989
 1425SOL    HW2 5175   5.969   3.482   2.670  0.7396  3.7023  2.4644
 1426SOL     OW 5176   4.898   6.477   6.873 -0.1567 -0.3288 -0.7425
 1426SOL    HW1 5177   4.803   6.469   6.842  0.4532 -2.7319 -2.2607
 1426SOL    HW2 5178   4.953   6.519   6.801 -0.4967  4.2428  1.3474
 1427SOL     OW 5179   6.860   2.217   3.286  0.0846 -0.5949  0.4975
 1427SOL    HW1 5180   6.815   2.226   3.375  1.4925 -0.9041  1.2683
 1427SOL    HW2 5181   6.791   2.222   3.214 -1.1032 -0.4392  1.5954
 1428SOL     OW 5182   1.819   3.869   1.681  0.0577 -0.2082 -0.3212
 1428SOL    HW1 5183   1.728   3.892   1.647  0.6290 -0.3464 -2.0261
 1428SOL    HW2 5184   1.832   3.770   1.679  0.8429 -0.1172 -1.8421
 1429SOL     OW 5185   1.720   3.378   4.321  0.1130 -0.0526  0.3236
 1429SOL    HW1 5186   1.688   3.473   4.328 -0.4493 -0.2777  0.9148
 1429SOL    HW2 5187   1.707   3.346   4.227 -1.1527 -0.0440  0.4808
 1430SOL     OW 5188   3.181   4.871   3.137 -0.1432 -0.0338 -0.5464
 1430SOL    HW1 5189   3.271   4.876   3.180  0.0914 -2.2790 -0.6326
 1430SOL    HW2 5190   3.184   4.912   3.046 -0.1285  2.9328  0.6849
 1431SOL     OW 5191   0.088   6.883   6.874  0.1258  0.2637 -0.7694
 1431SOL    HW1 5192   0.124   6.976   6.881 -0.4670  0.4803 -0.5132
 1431SOL    HW2 5193   0.123   6.840   6.791  0.8874  0.5004 -0.5779
 1432SOL     OW 5194   1.336   6.101   4.722  0.2577 -0.3559  0.2301
 1432SOL    HW1 5195   1.249   6.135   4.759 -0.7039  0.0192 -2.2274
 1432SOL    HW2 5196   1.333   6.001   4.716  0.0446 -0.3518  0.2519
 1433SOL     OW 5197   2.018   2.351   2.514 -0.5742 -0.3866  0.2451
 1433SOL    HW1 5198   1.999   2.378   2.420 -0.0072 -0.7204  0.0256
 1433SOL    HW2 5199   2.081   2.273   2.514 -1.0422 -0.7696  0.8918
 1434SOL     OW 5200   5.067   1.727   1.391 -0.6647  0.0570  0.2341
 1434SOL    HW1 5201   5.087   1.686   1.302  0.6427  1.8083 -0.3362
 1434SOL    HW2 5202   5.099   1.666   1.464  2.2594  0.4608 -0.5835
 1435SOL     OW 5203   1.951   5.353   6.517  0.2394  0.3046  0.4366
 1435SOL    HW1 5204   1.912   5.442   6.542  2.0855  0.7681  1.8704
 1435SOL    HW2 5205   2.047   5.351   6.542  1.0039 -1.0738 -2.2583
 1436SOL     OW 5206   1.690   6.148   1.085  0.2031  0.7118 -0.1064
 1436SOL    HW1 5207   1.598   6.184   1.098 -0.0252 -0.2454  1.1129
 1436SOL    HW2 5208   1.684   6.060   1.037  0.5454  0.9789 -0.6476
 1437SOL     OW 5209   1.741   1.080   6.919 -0.1686 -0.4078  0.3555
 1437SOL    HW1 5210   1.740   1.174   6.952  2.5867 -0.3063  0.3576
 1437SOL    HW2 5211   1.647   1.051   6.899 -1.4847  1.2060  3.4003
 1438SOL     OW 5212   1.152   3.296   5.108 -0.2599  0.4932  0.1113
 1438SOL    HW1 5213   1.171   3.204   5.075  1.3669  1.1053 -0.7502
 1438SOL    HW2 5214   1.174   3.363   5.037  0.5619  1.6841  1.4188
 1439SOL     OW 5215   1.409   0.257   4.963 -0.5513  0.3266 -0.5144
 1439SOL    HW1 5216   1.344   0.260   5.039  0.1295  0.9461  0.0554
 1439SOL    HW2 5217   1.397   0.338   4.906  0.0196  0.6727 -0.1492
 1440SOL     OW 5218   2.495   2.275   1.696 -0.4652  0.4872  0.0247
 1440SOL    HW1 5219   2.516   2.240   1.604  0.9555  0.8670  0.1783
 1440SOL    HW2 5220   2.442   2.359   1.688  2.0610  2.1429 -0.6120
 1441SOL     OW 5221   1.082   5.880   4.279  0.4875  0.2319  0.0332
 1441SOL    HW1 5222   1.084   5.897   4.180  0.6408  1.0674  0.1686
 1441SOL    HW2 5223   0.995   5.837   4.303  1.0742 -1.3942 -0.6650
 1442SOL     OW 5224   1.085   0.164   0.584  0.5198 -0.0729 -0.1222
 1442SOL    HW1 5225   1.063   0.248   0.535  1.7540  0.4775  0.2150
 1442SOL    HW2 5226   1.119   0.187   0.675 -0.3386 -1.0115  0.4555
 1443SOL     OW 5227   0.271   3.678   5.015 -0.2868 -0.1819  0.7954
 1443SOL    HW1 5228   0.186   3.725   5.040  1.1325  1.8462  2.1119
 1443SOL    HW2 5229   0.282   3.680   4.915 -2.6792 -2.2626  0.3838
 1444SOL     OW 5230   5.402   3.237   6.533  0.2412 -0.5694  0.2989
 1444SOL    HW1 5231   5.369   3.202   6.620 -1.8570  1.0700  0.2517
 1444SOL    HW2 5232   5.493   3.277   6.545  0.7709 -2.0020  1.2828
 1445SOL     OW 5233   0.386   3.533   2.784  0.1861  0.7980 -0.0843
 1445SOL    HW1 5234   0.309   3.518   2.721  0.6109  0.4950 -0.5406
 1445SOL    HW2 5235   0.358   3.510   2.877  0.1659 -0.8134 -0.4615
 1446SOL     OW 5236   5.829   4.327   0.671  0.3187 -0.3282  0.1337
 1446SOL    HW1 5237   5.734   4.319   0.642  0.1302  0.5745  0.4419
 1446SOL    HW2 5238   5.867   4.412   0.635  0.3983  0.2860  1.5981
 1447SOL     OW 5239   3.417   5.897   1.719  0.3217 -0.8128 -0.0595
 1447SOL    HW1 5240   3.511   5.883   1.688  0.6396 -1.3961  1.1118
 1447SOL    HW2 5241   3.397   5.995   1.723  0.7027 -0.6975 -0.8052
 1448SOL     OW 5242   3.973   5.387   0.408  0.0050 -0.0345 -0.0672
 1448SOL    HW1 5243   3.952   5.415   0.502 -3.3757  1.3641 -1.1159
 1448SOL    HW2 5244   3.950   5.290   0.397  0.9917 -0.3700  0.6550
 1449SOL     OW 5245   4.323   5.662   3.390 -0.1485 -0.0924  0.1229
 1449SOL    HW1 5246   4.237   5.671   3.440 -0.4288 -0.4377 -0.2911
 1449SOL    HW2 5247   4.392   5.720   3.433 -0.1239 -1.0650  1.4581
 1450SOL     OW 5248   5.343   4.189   3.995  0.4811  0.3212 -0.4316
 1450SOL    HW1 5249   5.396   4.254   4.049  0.6971  1.3306 -1.7811
 1450SOL    HW2 5250   5.263   4.235   3.957  0.6782 -0.1514 -1.4755
 1451SOL     OW 5251   2.672   2.141   2.946 -0.6531 -0.5367  0.3239
 1451SOL    HW1 5252   2.760   2.187   2.932 -0.5695 -0.7114  0.2735
 1451SOL    HW2 5253   2.620   2.141   2.861 -1.2972  0.7965  0.6910
 1452SOL     OW 5254   4.120   1.461   6.073  0.1938  0.8861 -0.1784
 1452SOL    HW1 5255   4.132   1.551   6.030 -1.8196  1.4180  0.2550
 1452SOL    HW2 5256   4.209   1.421   6.093  1.1387  2.6345 -0.6924
 1453SOL     OW 5257   3.917   5.970   3.177 -0.4284 -0.1744 -0.6695
 1453SOL    HW1 5258   3.848   5.920   3.229  0.8159 -0.1140  1.0965
 1453SOL    HW2 5259   3.997   5.912   3.162  0.5703  0.8760  0.4219
 1454SOL     OW 5260   0.798   5.277   6.880 -0.1942 -0.4494 -0.1398
 1454SOL    HW1 5261   0.859   5.315   6.810 -1.3115  0.7547 -0.5055
 1454SOL    HW2 5262   0.703   5.290   6.852 -0.6541 -1.6910  0.7261
 1455SOL     OW 5263   1.901   3.577   2.749 -0.1445 -0.6759 -0.3288
 1455SOL    HW1 5264   1.983   3.610   2.703  0.4580 -0.6580  0.7487
 1455SOL    HW2 5265   1.906   3.478   2.762 -0.1202 -0.6242  0.0717
 1456SOL     OW 5266   4.536   5.803   3.543  0.3349  1.0809  0.1385
 1456SOL    HW1 5267   4.581   5.845   3.622 -0.3872 -1.7409  2.1936
 1456SOL    HW2 5268   4.595   5.733   3.504 -1.1272 -0.8532  1.2447
 1457SOL     OW 5269   3.341   6.564   0.805  0.0388  0.5319  0.5218
 1457SOL    HW1 5270   3.298   6.538   0.718  0.1029 -0.6561  0.8373
 1457SOL    HW2 5271   3.405   6.639   0.788  1.3706 -0.8221 -0.8144
 1458SOL     OW 5272   6.919   1.601   2.306  0.3294 -0.0173 -0.4624
 1458SOL    HW1 5273   6.927   1.597   2.406  2.2008 -2.6336 -0.5930
 1458SOL    HW2 5274   6.834   1.646   2.281 -1.2710 -1.1691  2.3768
 1459SOL     OW 5275   4.357   0.377   1.250 -0.1674 -0.1580  0.0812
 1459SOL    HW1 5276   4.440   0.325   1.232 -0.3738 -1.2791  2.1083
 1459SOL    HW2 5277   4.291   0.362   1.176  2.1844  2.6436 -2.8505
 1460SOL     OW 5278   4.372   4.514   1.548 -0.1686 -0.2396 -0.0352
 1460SOL    HW1 5279   4.384   4.467   1.460  0.9030  0.8250 -0.4882
 1460SOL    HW2 5280   4.286   4.565   1.547  0.5672  1.0749 -1.1392
 1461SOL     OW 5281   0.285   1.264   4.012 -0.4396  0.1963  0.0922
 1461SOL    HW1 5282   0.365   1.232   4.064 -0.8643  1.8690  1.9214
 1461SOL    HW2 5283   0.238   1.186   3.971  1.2544 -0.9716  0.2581
 1462SOL     OW 5284   6.454   1.873   2.621  0.3522  0.2307 -0.2276
 1462SOL    HW1 5285   6.508   1.909   2.545  0.4567 -0.1192 -0.3242
 1462SOL    HW2 5286   6.400   1.795   2.589  0.0635  0.3536 -0.0449
 1463SOL     OW 5287   2.775   0.614   6.421  0.4921  0.6520  0.2739
 1463SOL    HW1 5288   2.819   0.692   6.377 -1.1182  1.0860 -0.6704
 1463SOL    HW2 5289   2.739   0.641   6.510  0.5495  0.7907  0.2537
 1464SOL     OW 5290   5.359   0.305   5.300 -0.1825 -0.2469  0.1387
 1464SOL    HW1 5291   5.438   0.331   5.243 -1.1826  0.5713 -0.9154
 1464SOL    HW2 5292   5.347   0.372   5.373 -1.8071  1.5217 -1.6363
 1465SOL     OW 5293   6.795   5.723   2.041  0.1162 -0.0497 -0.0898
 1465SOL    HW1 5294   6.724   5.750   2.106  1.1503 -0.5570  1.3136
 1465SOL    HW2 5295   6.859   5.799   2.029  0.0997 -0.0657 -0.2820
 1466SOL     OW 5296   6.121   4.781   1.524 -0.5516  0.6425 -0.2625
 1466SOL    HW1 5297   6.201   4.824   1.483  0.3966  0.4307  1.2930
 1466SOL    HW2 5298   6.039   4.833   1.499  0.3645  2.3906  0.1761
 1467SOL     OW 5299   5.431   6.256   0.799 -0.0165 -0.1526 -0.3653
 1467SOL    HW1 5300   5.406   6.338   0.850 -0.9782 -0.8736  0.3612
 1467SOL    HW2 5301   5.402   6.175   0.849  0.4197 -0.9344 -1.3291
 1468SOL     OW 5302   3.257   2.186   6.746 -0.3699 -0.8842 -0.0737
 1468SOL    HW1 5303   3.248   2.090   6.719 -0.5919 -0.9299  0.1627
 1468SOL    HW2 5304   3.173   2.217   6.790 -1.0911  0.0171 -1.9534
 1469SOL     OW 5305   6.146   6.038   5.495  0.7854  0.3707  0.0087
 1469SOL    HW1 5306   6.209   6.095   5.442  1.6150 -0.4088  0.1363
 1469SOL    HW2 5307   6.061   6.026   5.444  1.6889 -0.6496 -1.3232
 1470SOL     OW 5308   0.732   6.963   3.519  0.9323  0.3851  0.4270
 1470SOL    HW1 5309   0.813   7.007   3.479  0.7277  1.0726  0.7405
 1470SOL    HW2 5310   0.661   7.032   3.533 -0.5884 -0.5846 -1.9908
 1471SOL     OW 5311   3.375   5.302   3.378 -0.6929 -0.1098  0.6593
 1471SOL    HW1 5312   3.373   5.246   3.295 -0.7785 -0.2671  0.7663
 1471SOL    HW2 5313   3.439   5.378   3.366 -0.6484 -0.1759  0.4778
 1472SOL     OW 5314   5.901   4.605   1.812  0.3238 -0.1833 -0.2985
 1472SOL    HW1 5315   5.811   4.608   1.770 -0.0118 -0.1732  0.4032
 1472SOL    HW2 5316   5.966   4.562   1.750 -0.4126 -1.2574 -0.3486
 1473SOL     OW 5317   4.907   5.580   5.251 -0.1970 -0.5207  0.0145
 1473SOL    HW1 5318   4.935   5.629   5.169  2.1409 -2.5604 -0.5222
 1473SOL    HW2 5319   4.965   5.608   5.328 -1.5433  0.4580  0.7096
 1474SOL     OW 5320   3.384   5.002   5.226  0.1396 -0.2374 -0.2927
 1474SOL    HW1 5321   3.286   5.004   5.249 -0.3631  0.5220 -2.3349
 1474SOL    HW2 5322   3.415   4.907   5.226  0.1548 -0.3593  3.0627
 1475SOL     OW 5323   3.721   0.027   6.166 -0.7467  0.5379 -0.4703
 1475SOL    HW1 5324   3.789  -0.013   6.104 -1.4356  0.4233 -1.1667
 1475SOL    HW2 5325   3.725   0.127   6.160  0.7504  0.6179  1.0256
 1476SOL     OW 5326   6.391   0.605   5.127 -0.4462  0.3905  0.6507
 1476SOL    HW1 5327   6.386   0.627   5.029 -0.5287  1.4787  0.8829
 1476SOL    HW2 5328   6.309   0.556   5.155 -1.6810  2.3675  0.6988
 1477SOL     OW 5329   5.345   2.301   2.016  0.5066 -0.0040 -0.5374
 1477SOL    HW1 5330   5.333   2.206   2.047  0.0148  0.2338  0.0143
 1477SOL    HW2 5331   5.258   2.335   1.980  0.5156  0.4606 -0.1136
 1478SOL     OW 5332   4.253   4.704   2.400  0.2644 -0.0286 -0.4855
 1478SOL    HW1 5333   4.158   4.735   2.401  0.5244  1.0098 -2.3666
 1478SOL    HW2 5334   4.288   4.700   2.493 -1.7771 -1.0196  0.3135
 1479SOL     OW 5335   0.136   6.212   0.776  0.2610 -0.3823  0.1394
 1479SOL    HW1 5336   0.161   6.115   0.786 -2.6382 -1.1870  0.4008
 1479SOL    HW2 5337   0.164   6.244   0.686  0.6998 -1.6516 -0.1961
 1480SOL     OW 5338   6.067   6.119   0.069 -0.1215 -0.0428  0.2723
 1480SOL    HW1 5339   6.095   6.033   0.026 -0.8660  0.4932 -1.3442
 1480SOL    HW2 5340   6.080   6.112   0.168  1.8762 -1.2305 -0.0172
 1481SOL     OW 5341   6.553   4.932   2.635 -0.7737 -0.1706 -0.2252
 1481SOL    HW1 5342   6.541   4.873   2.555  0.0149 -1.6331  0.7003
 1481SOL    HW2 5343   6.529   4.882   2.718  0.9089  0.4335  0.6871
 1482SOL     OW 5344   1.108   4.588   3.543 -0.2470  0.2927  0.4882
 1482SOL    HW1 5345   1.188   4.550   3.590  0.1398 -0.8634 -0.9982
 1482SOL    HW2 5346   1.124   4.587   3.444 -1.1697  2.2953  0.2653
 1483SOL     OW 5347   2.630   1.781   3.698  0.3103  0.3130  0.1653
 1483SOL    HW1 5348   2.656   1.826   3.613 -0.0605  1.7885  0.7941
 1483SOL    HW2 5349   2.638   1.682   3.688  2.2714  0.5323 -0.9225
 1484SOL     OW 5350   0.537   6.607   4.025 -0.5575 -0.2749 -0.7125
 1484SOL    HW1 5351   0.633   6.632   4.036 -0.6675 -0.6806  1.9944
 1484SOL    HW2 5352   0.480   6.688   4.035 -0.5720 -0.3842  0.2049
 1485SOL     OW 5353   5.962   5.346   1.984 -0.2522  0.1028  0.5055
 1485SOL    HW1 5354   5.922   5.303   2.064  0.9832  0.3059  1.2656
 1485SOL    HW2 5355   5.932   5.441   1.979 -0.0897  0.1784  0.9154
 1486SOL     OW 5356   3.594   5.239   6.729  0.1212 -0.3593  0.4582
 1486SOL    HW1 5357   3.513   5.209   6.779  1.3627 -2.0046  1.6091
 1486SOL    HW2 5358   3.645   5.159   6.697  2.5160  0.5216  1.8323
 1487SOL     OW 5359   1.495   0.247   5.853  0.3075 -0.2343  0.1265
 1487SOL    HW1 5360   1.520   0.343   5.848 -2.7994  0.6563  0.1460
 1487SOL    HW2 5361   1.567   0.192   5.811  1.4566  2.2011 -1.2682
 1488SOL     OW 5362   2.756   1.297   3.281  0.2095  0.0375  0.2015
 1488SOL    HW1 5363   2.813   1.319   3.361  0.3113  0.5558 -0.0060
 1488SOL    HW2 5364   2.667   1.341   3.291  0.1674 -0.0278  0.1067
 1489SOL     OW 5365   4.123   3.738   2.353  0.9713  0.3521 -0.2472
 1489SOL    HW1 5366   4.085   3.760   2.442  1.4091  0.4877 -0.0873
 1489SOL    HW2 5367   4.219   3.711   2.364  1.4236  1.6364 -0.8005
 1490SOL     OW 5368   3.696   2.878   4.599 -0.0125  0.1373  0.2638
 1490SOL    HW1 5369   3.660   2.964   4.635 -0.8666 -0.3687  0.6384
 1490SOL    HW2 5370   3.746   2.830   4.672 -0.3291 -0.1168  0.3134
 1491SOL     OW 5371   3.746   2.414   6.118 -0.1265  0.2199 -0.0509
 1491SOL    HW1 5372   3.820   2.365   6.164  0.1588  1.7376  1.1948
 1491SOL    HW2 5373   3.674   2.437   6.184 -1.3860 -0.5853 -1.0956
 1492SOL     OW 5374   3.381   1.729   1.522  0.5679  0.3961 -0.3104
 1492SOL    HW1 5375   3.307   1.663   1.526  0.8039  0.0837 -0.9578
 1492SOL    HW2 5376   3.346   1.818   1.492  0.4411  0.2817 -0.4935
 1493SOL     OW 5377   5.853   4.414   3.185 -0.2228 -0.1126 -0.0235
 1493SOL    HW1 5378   5.884   4.436   3.277 -1.5190  0.0482  0.3976
 1493SOL    HW2 5379   5.844   4.498   3.131 -1.1022 -0.0207  0.2522
 1494SOL     OW 5380   2.599   5.395   3.924 -0.1815 -0.6760  0.6084
 1494SOL    HW1 5381   2.626   5.469   3.985  3.0033  0.0115 -1.3807
 1494SOL    HW2 5382   2.560   5.433   3.840  0.7528 -1.2428 -0.1063
 1495SOL     OW 5383   5.306   5.875   0.489 -0.4807 -0.1144 -0.5059
 1495SOL    HW1 5384   5.207   5.877   0.472 -0.4679  1.9387 -0.6888
 1495SOL    HW2 5385   5.336   5.967   0.513  0.7548 -1.3884  3.5239
 1496SOL     OW 5386   0.318   5.307   3.851 -0.3645  1.2652  0.2801
 1496SOL    HW1 5387   0.243   5.247   3.824  0.4390 -0.0289  0.8590
 1496SOL    HW2 5388   0.281   5.391   3.891 -1.4941  1.1331 -0.4451
 1497SOL     OW 5389   4.430   4.648   0.816 -0.4624 -0.0149  0.4579
 1497SOL    HW1 5390   4.487   4.720   0.855 -0.2658 -0.5689  1.2156
 1497SOL    HW2 5391   4.354   4.629   0.879  0.7481 -2.0325  1.3865
 1498SOL     OW 5392   5.960   3.260   0.249  0.0647 -0.0239 -0.0478
 1498SOL    HW1 5393   5.930   3.165   0.257 -0.4530  0.0998 -0.4400
 1498SOL    HW2 5394   5.939   3.310   0.333  0.7206 -0.3568  0.3195
 1499SOL     OW 5395   3.200   1.905   1.409 -0.1748  0.0758  0.4846
 1499SOL    HW1 5396   3.140   1.905   1.329  0.4491  0.5749  0.0118
 1499SOL    HW2 5397   3.221   1.999   1.435 -0.6283 -0.0748  1.4339
 1500SOL     OW 5398   2.740   1.128   3.778  0.3077  0.5586  0.5230
 1500SOL    HW1 5399   2.730   1.093   3.871  1.0121  0.7623  0.6863
 1500SOL    HW2 5400   2.747   1.228   3.781 -2.9995  0.8969 -0.0444
 1501SOL     OW 5401   1.407   6.298   5.101 -0.0298  0.6460 -0.1263
 1501SOL    HW1 5402   1.349   6.234   5.150 -0.6402  2.0952  1.1225
 1501SOL    HW2 5403   1.353   6.346   5.032  0.4509 -0.2197 -1.1376
 1502SOL     OW 5404   4.808   0.653   0.375  0.0111 -0.5873  0.0992
 1502SOL    HW1 5405   4.808   0.751   0.361 -0.1598 -0.4984  0.6895
 1502SOL    HW2 5406   4.774   0.632   0.467  0.3694 -1.1733  0.1086
 1503SOL     OW 5407   0.878   1.464   2.425  0.2876 -0.0533 -0.1332
 1503SOL    HW1 5408   0.836   1.549   2.456  1.5854  0.5782 -0.0323
 1503SOL    HW2 5409   0.943   1.432   2.494  1.3513  0.0159 -1.0784
 1504SOL     OW 5410   0.131   0.411   5.936 -0.6419  0.3849  0.0756
 1504SOL    HW1 5411   0.088   0.406   5.846 -0.0179 -1.8787 -0.1625
 1504SOL    HW2 5412   0.227   0.438   5.926 -0.4775 -0.2043 -0.0037
 1505SOL     OW 5413   4.753   2.768   4.571  0.7554  0.0355 -0.0984
 1505SOL    HW1 5414   4.795   2.857   4.587 -0.4498  0.5234  0.4972
 1505SOL    HW2 5415   4.752   2.716   4.657 -0.1437  0.1749 -0.0087
 1506SOL     OW 5416   0.743   1.313   3.005 -0.1337  0.4093  0.0024
 1506SOL    HW1 5417   0.743   1.413   3.004  1.1281  0.4228 -0.2990
 1506SOL    HW2 5418   0.770   1.281   3.095  0.3877  0.3527 -0.1729
 1507SOL     OW 5419   0.567   1.054   5.813 -0.1163  0.4028 -0.5171
 1507SOL    HW1 5420   0.581   1.143   5.769  0.4208  0.4153 -0.3192
 1507SOL    HW2 5421   0.469   1.034   5.816 -0.1233 -0.0932 -2.6952
 1508SOL     OW 5422   2.112   3.441   0.806  0.5934 -0.2434 -0.8074
 1508SOL    HW1 5423   2.123   3.431   0.905  0.5750 -1.4066 -0.9179
 1508SOL    HW2 5424   2.197   3.478   0.767  0.0587  1.7715 -0.1718
 1509SOL     OW 5425   1.013   0.381   3.724  0.1888  0.0868 -0.1566
 1509SOL    HW1 5426   1.014   0.289   3.765 -1.0166 -0.1990 -0.7279
 1509SOL    HW2 5427   0.941   0.435   3.767  1.2687  0.9800  0.5782
 1510SOL     OW 5428   2.873   1.550   6.062  0.0172 -0.4266 -0.2359
 1510SOL    HW1 5429   2.778   1.549   6.092  0.2425  0.8518  0.5857
 1510SOL    HW2 5430   2.883   1.612   5.984  0.1315 -0.8361 -0.5559
 1511SOL     OW 5431   1.931   4.882   1.247  0.2009 -0.1646 -0.3551
 1511SOL    HW1 5432   2.019   4.921   1.221  0.4599  0.4283  1.2673
 1511SOL    HW2 5433   1.931   4.783   1.229  2.1703 -0.6540  1.8539
 1512SOL     OW 5434   3.780   3.971   2.210  0.8671 -0.1227 -0.0392
 1512SOL    HW1 5435   3.873   3.937   2.229  0.5575 -1.4295 -0.7222
 1512SOL    HW2 5436   3.785   4.047   2.146  1.5603  0.9095  1.1861
 1513SOL     OW 5437   5.314   1.532   3.915  0.1485  0.6389  0.0435
 1513SOL    HW1 5438   5.263   1.601   3.863 -2.3133 -0.4594  0.8441
 1513SOL    HW2 5439   5.406   1.523   3.877 -0.8216  1.3859 -2.7289
 1514SOL     OW 5440   6.848   3.441   4.828  0.4257 -0.0302 -0.2208
 1514SOL    HW1 5441   6.936   3.444   4.781  0.3260  0.0475 -0.4001
 1514SOL    HW2 5442   6.838   3.352   4.874 -0.0388 -0.6307 -1.4333
 1515SOL     OW 5443   4.769   1.620   6.324  0.5642 -0.2966  0.0553
 1515SOL    HW1 5444   4.749   1.714   6.296 -2.4731 -0.4743  1.2539
 1515SOL    HW2 5445   4.868   1.606   6.325  1.0909  2.6831 -0.7240
 1516SOL     OW 5446   2.914   1.515   4.291  0.2640 -0.6064 -0.4932
 1516SOL    HW1 5447   2.871   1.539   4.204  0.1922  0.3219 -0.2159
 1516SOL    HW2 5448   2.975   1.589   4.320  2.3530 -2.0283 -1.0396
 1517SOL     OW 5449   3.272   6.988   6.075  0.3531  0.5096  0.2445
 1517SOL    HW1 5450   3.301   6.894   6.087 -4.5818 -1.0679  2.3589
 1517SOL    HW2 5451   3.280   7.013   5.978 -0.7383 -3.1269 -0.9362
 1518SOL     OW 5452   5.003   3.172   6.006  0.2300 -0.1628 -0.7172
 1518SOL    HW1 5453   4.998   3.263   5.964  2.8684  0.2107 -0.3534
 1518SOL    HW2 5454   5.018   3.182   6.104  0.1096 -1.0016 -0.6129
 1519SOL     OW 5455   0.354   6.246   0.369 -0.5326  0.8435  0.9427
 1519SOL    HW1 5456   0.272   6.270   0.421 -0.0355 -0.9126  2.6684
 1519SOL    HW2 5457   0.334   6.166   0.312  0.0949  0.0381  1.8205
 1520SOL     OW 5458   2.682   3.973   1.330  0.2577 -0.6096  0.1867
 1520SOL    HW1 5459   2.775   3.938   1.341  0.2539 -1.2298 -1.4687
 1520SOL    HW2 5460   2.683   4.073   1.338  0.8167 -0.6950  1.5301
 1521SOL     OW 5461   2.738   1.858   1.486 -0.2275 -0.0034  0.2353
 1521SOL    HW1 5462   2.730   1.800   1.404  0.9463 -0.1540  0.2129
 1521SOL    HW2 5463   2.678   1.937   1.476 -1.0895 -0.6816 -0.1854
 1522SOL     OW 5464   0.555   6.240   2.226 -0.2427  0.3117  0.0730
 1522SOL    HW1 5465   0.594   6.234   2.318  1.3358  1.0237 -0.5293
 1522SOL    HW2 5466   0.491   6.165   2.213 -0.2929  0.0385  1.6538
 1523SOL     OW 5467   2.739   0.858   6.210 -0.1633 -0.3420  0.3187
 1523SOL    HW1 5468   2.710   0.788   6.145 -0.1105 -0.7944  0.7799
 1523SOL    HW2 5469   2.687   0.942   6.194 -2.3706 -1.3900  1.6997
 1524SOL     OW 5470   0.539   5.295   6.810 -0.0116 -0.4794 -0.2190
 1524SOL    HW1 5471   0.507   5.356   6.738 -0.5282 -2.0035 -1.3293
 1524SOL    HW2 5472   0.509   5.329   6.899 -2.4571 -0.4471 -1.0058
 1525SOL     OW 5473   0.466   3.569   6.944 -0.2075 -0.4234 -0.2327
 1525SOL    HW1 5474   0.563   3.566   6.921  0.1246 -0.3983  1.0964
 1525SOL    HW2 5475   0.414   3.597   6.864  1.1079  1.8277 -0.3920
 1526SOL     OW 5476   3.777   5.000   5.719 -0.5861 -0.5862  0.6761
 1526SOL    HW1 5477   3.710   5.002   5.644  0.1434  0.0178  0.0253
 1526SOL    HW2 5478   3.729   5.002   5.806 -1.4191  1.7261  0.2409
 1527SOL     OW 5479   0.476   6.940   5.858 -0.3507  0.1280  0.0330
 1527SOL    HW1 5480   0.465   6.845   5.830 -1.4903 -0.0029  0.9016
 1527SOL    HW2 5481   0.513   6.944   5.951 -0.6491  0.5346  0.1361
 1528SOL     OW 5482   4.915   4.166   6.345 -0.1988  0.1731  0.3960
 1528SOL    HW1 5483   4.906   4.229   6.268 -0.5326 -0.6618 -0.2662
 1528SOL    HW2 5484   4.979   4.093   6.322 -1.5246 -0.9991  0.2458
 1529SOL     OW 5485   5.708   4.576   1.618  0.5741 -0.3459  0.3394
 1529SOL    HW1 5486   5.649   4.656   1.610  0.8140 -0.2984 -1.6364
 1529SOL    HW2 5487   5.797   4.596   1.577  1.1865 -1.1347  1.2365
 1530SOL     OW 5488   6.271   0.239   4.534  0.1286 -0.3597 -0.6197
 1530SOL    HW1 5489   6.349   0.277   4.484  0.9846 -2.8050 -1.2890
 1530SOL    HW2 5490   6.293   0.234   4.631  0.6163 -0.5308 -0.7352
 1531SOL     OW 5491   1.847   6.755   0.609 -0.7402 -0.1144 -0.2756
 1531SOL    HW1 5492   1.893   6.711   0.532  1.1859  0.9730  0.1857
 1531SOL    HW2 5493   1.777   6.818   0.575  0.3788  0.6822 -1.2063
 1532SOL     OW 5494   0.511   0.732   6.072 -0.7991 -0.4266  0.2762
 1532SOL    HW1 5495   0.416   0.755   6.050 -1.1450  0.0244  2.0218
 1532SOL    HW2 5496   0.562   0.816   6.091 -0.8216 -0.7754  2.0932
 1533SOL     OW 5497   1.435   0.300   5.313 -0.2935  0.7523 -0.0997
 1533SOL    HW1 5498   1.456   0.274   5.407 -2.6867  0.9793  0.5504
 1533SOL    HW2 5499   1.502   0.367   5.282  1.9202 -0.9922  0.5684
 1534SOL     OW 5500   3.747   2.855   6.907  0.3416 -0.0901 -0.4022
 1534SOL    HW1 5501   3.838   2.816   6.922  0.0567 -1.6351 -2.2997
 1534SOL    HW2 5502   3.678   2.794   6.945  0.0005 -0.0385 -0.9262
 1535SOL     OW 5503   5.109   3.709   0.848  0.0360  0.6669  0.1390
 1535SOL    HW1 5504   5.113   3.784   0.914 -1.9297  0.5973  0.3962
 1535SOL    HW2 5505   5.024   3.658   0.861  0.8179 -0.9279 -0.7777
 1536SOL     OW 5506   0.937   6.303   1.986 -0.2450 -0.3819 -0.3640
 1536SOL    HW1 5507   0.994   6.227   2.016 -0.5704 -0.8341 -0.8782
 1536SOL    HW2 5508   0.895   6.281   1.898 -0.6987  0.2107 -0.3046
 1537SOL     OW 5509   2.717   1.180   4.924 -0.0558 -0.9414  0.2643
 1537SOL    HW1 5510   2.734   1.279   4.928 -1.7607 -0.6624  1.2661
 1537SOL    HW2 5511   2.803   1.132   4.941  0.2890  0.3899  2.7339
 1538SOL     OW 5512   5.246   0.319   2.624 -0.1043 -0.1068  0.3829
 1538SOL    HW1 5513   5.289   0.338   2.712  0.3244  0.6553  0.0151
 1538SOL    HW2 5514   5.186   0.395   2.599 -1.3719 -0.9764  0.6990
 1539SOL     OW 5515   5.916   4.712   4.921  0.3655  0.8318  0.4494
 1539SOL    HW1 5516   5.892   4.621   4.954  1.2903  0.7408  0.9228
 1539SOL    HW2 5517   5.972   4.704   4.839 -0.0707  0.9955  0.1340
 1540SOL     OW 5518   5.401   2.342   3.132 -0.0146 -0.3036 -0.3423
 1540SOL    HW1 5519   5.406   2.327   3.033  0.0856  0.7916 -0.5096
 1540SOL    HW2 5520   5.305   2.337   3.161 -0.2999  1.5157 -0.8635
 1541SOL     OW 5521   0.800   1.491   2.059  0.5232  0.0869 -0.5079
 1541SOL    HW1 5522   0.810   1.406   2.111 -1.5705 -2.1663 -3.4420
 1541SOL    HW2 5523   0.707   1.496   2.022  1.1327  2.8143 -1.8889
 1542SOL     OW 5524   0.313   3.872   1.581  0.3608 -0.3777  0.2880
 1542SOL    HW1 5525   0.261   3.895   1.664 -0.8799  0.3026 -0.6560
 1542SOL    HW2 5526   0.266   3.799   1.532  0.3935  0.1098 -0.4813
 1543SOL     OW 5527   6.472   2.969   0.137 -0.0516  0.3787  0.2355
 1543SOL    HW1 5528   6.459   2.877   0.099  1.1447  0.0966  0.4613
 1543SOL    HW2 5529   6.383   3.015   0.144 -1.3155 -2.1301  3.5598
 1544SOL     OW 5530   0.260   0.215   0.064  0.2192  0.4746 -0.0094
 1544SOL    HW1 5531   0.238   0.214  -0.034 -0.6687 -1.7817  0.1689
 1544SOL    HW2 5532   0.182   0.182   0.116  1.2829 -0.0169  1.3254
 1545SOL     OW 5533   3.660   0.351   1.698 -0.4632 -0.5673  0.6989
 1545SOL    HW1 5534   3.697   0.317   1.612  0.8609  2.4058 -0.0434
 1545SOL    HW2 5535   3.560   0.357   1.692 -0.3310  0.4164 -0.9870
 1546SOL     OW 5536   0.273   5.889   5.981 -0.2692  0.6021  0.2764
 1546SOL    HW1 5537   0.194   5.950   5.968 -1.0897 -0.5087 -0.1091
 1546SOL    HW2 5538   0.292   5.879   6.078 -0.7456  0.7088  0.3822
 1547SOL     OW 5539   3.548   4.812   0.914 -0.9972  0.3253  0.2039
 1547SOL    HW1 5540   3.495   4.775   0.838 -1.7937  0.1723  0.8078
 1547SOL    HW2 5541   3.505   4.783   1.000  0.0624  0.2269  0.7108
 1548SOL     OW 5542   3.979   3.873   6.050  0.3277 -0.4999  0.3600
 1548SOL    HW1 5543   4.000   3.866   6.147 -3.6373 -0.0872  1.4463
 1548SOL    HW2 5544   3.914   3.801   6.025  0.3487  0.1287 -1.7076
 1549SOL     OW 5545   2.310   5.325   4.011 -0.3812 -0.1145  0.3072
 1549SOL    HW1 5546   2.312   5.414   4.058 -0.5130  0.3135 -0.4794
 1549SOL    HW2 5547   2.383   5.322   3.942  0.5051 -1.1482  1.2457
 1550SOL     OW 5548   2.353   0.404   3.554  0.5486 -0.4352  0.1125
 1550SOL    HW1 5549   2.427   0.447   3.503  0.2796 -1.0244 -0.7997
 1550SOL    HW2 5550   2.299   0.475   3.601  1.1551  0.0627  0.0710
 1551SOL     OW 5551   0.130   3.945   4.505 -0.1988  1.0040  0.0271
 1551SOL    HW1 5552   0.099   3.925   4.412  2.0070 -0.1460 -0.5147
 1551SOL    HW2 5553   0.055   3.926   4.569 -1.4752  0.9462 -1.4140
 1552SOL     OW 5554   6.186   1.615   3.099 -0.1048 -0.3733 -0.4942
 1552SOL    HW1 5555   6.282   1.629   3.076  0.3462 -1.3486  0.7119
 1552SOL    HW2 5556   6.130   1.623   3.016  0.7704  2.0859 -0.9258
 1553SOL     OW 5557   2.992   0.421   2.222  0.2444  0.1366  0.5207
 1553SOL    HW1 5558   2.976   0.334   2.268 -1.5600 -0.5666 -1.2638
 1553SOL    HW2 5559   3.083   0.422   2.181 -0.2852 -1.6191 -0.7935
 1554SOL     OW 5560   1.859   2.616   6.368 -0.2433 -0.4759 -0.0265
 1554SOL    HW1 5561   1.889   2.578   6.456 -1.6833 -0.7556  0.3699
 1554SOL    HW2 5562   1.919   2.692   6.343  1.5187 -1.7531  0.1101
 1555SOL     OW 5563   4.587   7.009   4.861  0.0076  0.0101  0.5339
 1555SOL    HW1 5564   4.649   6.969   4.793 -0.4204 -0.5441  0.4529
 1555SOL    HW2 5565   4.554   6.936   4.922  0.2580  0.4762  1.2344
 1556SOL     OW 5566   1.294   3.243   6.083  0.1606  0.4013 -0.2458
 1556SOL    HW1 5567   1.354   3.317   6.116  1.8571 -1.6244  1.5188
 1556SOL    HW2 5568   1.350   3.165   6.057 -1.6595 -0.8379 -0.5859
 1557SOL     OW 5569   1.974   5.827   4.444  0.3978 -0.8125 -0.6736
 1557SOL    HW1 5570   2.029   5.902   4.409  0.7618  0.0324  1.5151
 1557SOL    HW2 5571   1.904   5.802   4.377  0.2532  1.4872 -1.4761
 1558SOL     OW 5572   4.393   6.052   5.336 -0.0991  0.3280 -0.2298
 1558SOL    HW1 5573   4.303   6.086   5.309 -0.0023  0.7053 -0.0873
 1558SOL    HW2 5574   4.394   6.038   5.435 -0.3476 -0.7305 -0.3657
 1559SOL     OW 5575   6.505   3.732   4.751  0.1539 -0.4292 -0.1584
 1559SOL    HW1 5576   6.481   3.680   4.669 -0.1220 -0.8129  0.1589
 1559SOL    HW2 5577   6.439   3.712   4.823  1.0768 -1.0471  0.5424
 1560SOL     OW 5578   2.905   1.889   6.455 -0.1743 -0.1345 -0.6851
 1560SOL    HW1 5579   2.999   1.865   6.433 -0.5501 -0.9535 -1.4244
 1560SOL    HW2 5580   2.876   1.966   6.397 -0.3352 -0.6411 -1.2852
 1561SOL     OW 5581   2.095   1.559   6.535 -0.3522 -0.3738  0.5527
 1561SOL    HW1 5582   2.070   1.496   6.609 -0.6428  0.3944  1.1276
 1561SOL    HW2 5583   2.186   1.596   6.552  0.8236 -2.3679 -0.9949
 1562SOL     OW 5584   6.138   5.528   5.938  0.2031  0.0697 -0.1200
 1562SOL    HW1 5585   6.159   5.488   6.027  2.5890 -0.5711 -0.9057
 1562SOL    HW2 5586   6.046   5.568   5.941 -0.4138 -1.3072  2.1150
 1563SOL     OW 5587   1.097   5.473   3.207 -0.1198  0.4377  0.0257
 1563SOL    HW1 5588   1.122   5.398   3.145  0.6961  1.4758 -0.9330
 1563SOL    HW2 5589   1.152   5.554   3.185 -0.2841  1.0274  1.6890
 1564SOL     OW 5590   2.560   4.577   3.318 -0.4970  0.3314 -0.0136
 1564SOL    HW1 5591   2.564   4.523   3.234  0.6246 -0.6592  0.6454
 1564SOL    HW2 5592   2.633   4.645   3.318  1.3064 -1.4794  1.2954
 1565SOL     OW 5593   3.706   4.988   2.737 -0.3154  0.1698  0.1249
 1565SOL    HW1 5594   3.637   4.971   2.666  1.3587 -2.4580 -0.9972
 1565SOL    HW2 5595   3.793   4.948   2.710  0.8896  0.6902  2.8683
 1566SOL     OW 5596   1.001   1.395   1.036  0.3194  0.2247 -0.3006
 1566SOL    HW1 5597   1.097   1.387   1.006 -0.2187  0.0568 -2.0794
 1566SOL    HW2 5598   0.941   1.361   0.964 -1.0993  0.2717  0.8229
 1567SOL     OW 5599   2.909   1.291   0.905  0.0646  0.2750  0.0794
 1567SOL    HW1 5600   2.854   1.260   0.982  1.2127  0.5522  1.0543
 1567SOL    HW2 5601   3.005   1.295   0.933  0.4750  0.6214 -1.3048
 1568SOL     OW 5602   3.699   2.028   1.261  0.1394  0.7640  0.0331
 1568SOL    HW1 5603   3.749   1.942   1.250  0.8666  0.9677  1.4875
 1568SOL    HW2 5604   3.657   2.031   1.352 -1.9288  0.9329 -0.8743
 1569SOL     OW 5605   3.035   4.277   5.827  0.3233  0.5819 -0.5106
 1569SOL    HW1 5606   2.958   4.319   5.876  0.3171  0.3212 -0.2970
 1569SOL    HW2 5607   3.119   4.328   5.849  0.1870  0.9716 -0.8783
 1570SOL     OW 5608   0.150   3.799   0.356  0.1831  0.0115  0.8164
 1570SOL    HW1 5609   0.143   3.752   0.268  1.4282  0.7115  0.3156
 1570SOL    HW2 5610   0.080   3.870   0.362  0.6393  0.5451  0.0059
 1571SOL     OW 5611   6.692   0.817   2.562 -0.3983 -0.1932  0.4575
 1571SOL    HW1 5612   6.722   0.736   2.611 -1.2809 -1.2509 -0.6961
 1571SOL    HW2 5613   6.668   0.889   2.627  2.9876  0.1922  1.4807
 1572SOL     OW 5614   2.878   1.957   5.777  0.3611  0.5697  0.1803
 1572SOL    HW1 5615   2.810   1.913   5.719  1.4207 -1.2148  0.2222
 1572SOL    HW2 5616   2.945   2.005   5.720 -0.2897  1.3979  0.0943
 1573SOL     OW 5617   0.670   5.378   4.321  0.0515 -0.3343 -0.0591
 1573SOL    HW1 5618   0.636   5.463   4.281 -0.5123  0.3826  1.8124
 1573SOL    HW2 5619   0.702   5.317   4.249 -0.3770  1.0953 -1.5092
 1574SOL     OW 5620   6.073   1.334   4.420 -0.0730 -0.0416  0.8039
 1574SOL    HW1 5621   6.017   1.357   4.340  0.0033  2.1269  1.3185
 1574SOL    HW2 5622   6.164   1.376   4.410  0.5894 -1.3130  1.2062
 1575SOL     OW 5623   3.427   0.012   3.382 -0.3841 -0.3470  0.5463
 1575SOL    HW1 5624   3.462   0.100   3.414  0.7865 -0.8382  0.7007
 1575SOL    HW2 5625   3.334   0.023   3.349  0.0143  1.1210 -0.2002
 1576SOL     OW 5626   3.550   3.001   6.569  0.2572 -0.1454  0.0890
 1576SOL    HW1 5627   3.572   2.973   6.476 -0.7082  1.0908 -0.5303
 1576SOL    HW2 5628   3.467   3.055   6.569 -0.7311 -1.5321  1.8884
 1577SOL     OW 5629   2.578   6.223   1.032 -0.1206 -0.1764 -0.3921
 1577SOL    HW1 5630   2.628   6.303   0.999  0.6528 -0.1806  0.7242
 1577SOL    HW2 5631   2.604   6.143   0.978  0.0202  0.0915 -0.7265
 1578SOL     OW 5632   1.109   5.800   6.864  0.0908  0.1476 -0.6380
 1578SOL    HW1 5633   1.051   5.720   6.880 -1.2301  1.1191 -0.3825
 1578SOL    HW2 5634   1.108   5.823   6.767  0.7568 -0.3389 -0.7673
 1579SOL     OW 5635   5.346   5.618   0.394 -0.0242 -0.6281  0.2723
 1579SOL    HW1 5636   5.340   5.709   0.435  1.4971 -0.3481 -0.0469
 1579SOL    HW2 5637   5.414   5.564   0.443  0.8585 -0.7422 -1.0321
 1580SOL     OW 5638   6.691   2.639   2.013  0.2729  0.5105 -0.6401
 1580SOL    HW1 5639   6.757   2.596   1.952 -1.7015 -0.7689 -1.9922
 1580SOL    HW2 5640   6.686   2.587   2.098  0.4504  0.1536 -0.8441
 1581SOL     OW 5641   4.325   5.506   5.681  0.1228 -0.2403 -0.0317
 1581SOL    HW1 5642   4.259   5.508   5.756 -0.2588  1.5385 -0.3754
 1581SOL    HW2 5643   4.321   5.416   5.636  1.0872 -1.7228  2.6468
 1582SOL     OW 5644   3.354   6.821   5.321 -0.5866  0.4088  0.1346
 1582SOL    HW1 5645   3.317   6.800   5.412 -0.9557 -0.3547 -0.1818
 1582SOL    HW2 5646   3.440   6.773   5.308 -0.0653  1.2400  0.4139
 1583SOL     OW 5647   3.165   2.819   1.194  0.4002 -1.4187  0.3818
 1583SOL    HW1 5648   3.255   2.830   1.236  1.1333 -1.4151 -1.1303
 1583SOL    HW2 5649   3.138   2.904   1.148  0.3384 -1.8954 -0.4859
 1584SOL     OW 5650   3.570   0.736   5.041  0.0195 -0.5370  0.2699
 1584SOL    HW1 5651   3.630   0.715   4.964  0.8466 -1.9575  1.2525
 1584SOL    HW2 5652   3.545   0.833   5.038  0.0881 -0.5325 -1.7192
 1585SOL     OW 5653   4.748   2.067   2.470 -0.1098 -0.0944  0.0880
 1585SOL    HW1 5654   4.747   2.167   2.472  1.5207 -0.0424 -0.2181
 1585SOL    HW2 5655   4.741   2.031   2.563  1.3105  0.3671  0.3869
 1586SOL     OW 5656   3.741   0.823   6.171  0.4653  0.1860 -0.4122
 1586SOL    HW1 5657   3.821   0.878   6.192  2.0315 -1.6447 -1.2035
 1586SOL    HW2 5658   3.763   0.726   6.185 -1.7823 -0.3466 -0.1945
 1587SOL     OW 5659   5.659   2.782   3.344 -0.1194 -0.2053  0.7040
 1587SOL    HW1 5660   5.744   2.782   3.396 -0.2707  2.0367  1.0560
 1587SOL    HW2 5661   5.635   2.876   3.320 -1.8698 -0.8976 -0.4488
 1588SOL     OW 5662   0.602   4.988   1.636  0.4003  0.3097  0.0269
 1588SOL    HW1 5663   0.564   5.070   1.679 -1.7626 -0.3700 -0.4594
 1588SOL    HW2 5664   0.596   4.997   1.537 -0.2458 -0.5909 -0.0237
 1589SOL     OW 5665   3.429   4.755   6.615 -0.5107 -0.1052 -0.2087
 1589SOL    HW1 5666   3.340   4.718   6.589 -1.1854  1.0520  0.3425
 1589SOL    HW2 5667   3.497   4.730   6.546 -1.8829  1.4902 -2.2993
 1590SOL     OW 5668   5.254   6.754   4.126  0.0046 -0.3739 -0.3603
 1590SOL    HW1 5669   5.202   6.788   4.205  1.0059  0.1494  0.1009
 1590SOL    HW2 5670   5.267   6.655   4.135  0.6562 -0.2243  0.4780
 1591SOL     OW 5671   0.418   2.333   0.203  0.2846  0.4450 -1.0923
 1591SOL    HW1 5672   0.388   2.365   0.293 -1.9780  0.9523 -1.9615
 1591SOL    HW2 5673   0.468   2.247   0.214  0.2114  0.5815  0.6643
 1592SOL     OW 5674   6.597   4.430   1.913  0.8616 -0.0166 -0.1701
 1592SOL    HW1 5675   6.619   4.496   1.985  0.3142  0.0936 -0.0982
 1592SOL    HW2 5676   6.677   4.417   1.854  0.9521  0.7730 -0.2333
 1593SOL     OW 5677   1.182   2.100   0.136  0.6669  0.1964 -0.1141
 1593SOL    HW1 5678   1.234   2.127   0.218  0.8730  0.6260 -0.3814
 1593SOL    HW2 5679   1.139   2.181   0.096  0.4184 -0.0411 -0.3326
 1594SOL     OW 5680   3.778   4.853   1.423 -0.1092 -0.3717 -0.0539
 1594SOL    HW1 5681   3.706   4.897   1.477  0.1267 -0.0388 -0.0078
 1594SOL    HW2 5682   3.755   4.757   1.409 -1.1204 -0.0153 -0.9890
 1595SOL     OW 5683   0.575   3.785   3.989  0.1073 -0.8582 -0.0335
 1595SOL    HW1 5684   0.661   3.784   4.040  0.7988 -0.6455 -1.1539
 1595SOL    HW2 5685   0.582   3.849   3.912 -1.3717 -0.1632  0.3578
 1596SOL     OW 5686   1.881   4.341   5.338  0.6267 -0.0942 -0.1735
 1596SOL    HW1 5687   1.976   4.370   5.354  1.5458 -2.1261 -1.5530
 1596SOL    HW2 5688   1.827   4.420   5.310  1.8557  1.1446  0.7962
 1597SOL     OW 5689   0.801   0.067   0.524 -0.2976  0.4873 -0.2506
 1597SOL    HW1 5690   0.898   0.075   0.547 -0.5097  1.7218  0.3033
 1597SOL    HW2 5691   0.792   0.033   0.430  0.6592  0.0798 -0.2081
 1598SOL     OW 5692   4.246   6.438   4.586  0.0123  0.2587  0.3537
 1598SOL    HW1 5693   4.246   6.532   4.621 -0.8182  0.7396 -0.8646
 1598SOL    HW2 5694   4.295   6.435   4.499  1.4531 -0.7837  1.1597
 1599SOL     OW 5695   0.444   6.229   3.681  0.1069 -0.0335 -0.0621
 1599SOL    HW1 5696   0.369   6.218   3.745 -0.7277  0.8151 -0.8511
 1599SOL    HW2 5697   0.507   6.300   3.714 -0.0645  0.0733  0.0322
 1600SOL     OW 5698   0.388   1.865   1.003 -0.2498  0.7751  0.1612
 1600SOL    HW1 5699   0.372   1.880   0.905 -3.0328  0.5153  0.4946
 1600SOL    HW2 5700   0.320   1.800   1.038  1.3053  0.0861  2.0975
 1601SOL     OW 5701   1.048   6.315   6.594  0.1578 -0.0677  0.4334
 1601SOL    HW1 5702   1.049   6.216   6.583  1.0814  0.1627 -1.9894
 1601SOL    HW2 5703   0.985   6.356   6.528  0.3570  1.0172  0.8852
 1602SOL     OW 5704   3.920   5.104   1.011  0.4199 -0.3290  0.1847
 1602SOL    HW1 5705   3.958   5.167   0.944  1.7156  0.4519  1.5894
 1602SOL    HW2 5706   3.893   5.019   0.966 -1.2272  1.1330 -1.7277
 1603SOL     OW 5707   3.548   6.298   4.894 -0.0486  0.2552 -0.2926
 1603SOL    HW1 5708   3.455   6.332   4.877 -0.6625 -0.4761  1.3616
 1603SOL    HW2 5709   3.595   6.284   4.807 -1.0591  1.7773 -1.1330
 1604SOL     OW 5710   6.567   2.240   4.947 -0.2030 -0.3978  0.2418
 1604SOL    HW1 5711   6.566   2.155   5.000 -1.9246 -0.4690  0.1561
 1604SOL    HW2 5712   6.651   2.245   4.893 -1.3484 -3.6087 -2.1924
 1605SOL     OW 5713   5.186   0.317   5.698  0.1995  0.3663  0.3890
 1605SOL    HW1 5714   5.223   0.238   5.648 -0.2327 -0.2922  1.0891
 1605SOL    HW2 5715   5.219   0.316   5.792 -2.3628 -0.8696  1.3704
 1606SOL     OW 5716   4.761   4.380   0.494  0.0697 -0.2733  0.3404
 1606SOL    HW1 5717   4.700   4.332   0.557 -1.3045 -0.3139 -0.9441
 1606SOL    HW2 5718   4.708   4.448   0.442  1.3221  0.3518 -0.1616
 1607SOL     OW 5719   4.515   1.096   2.876 -0.2357  0.9893 -0.1168
 1607SOL    HW1 5720   4.467   1.021   2.829 -0.2056  0.3103  0.9122
 1607SOL    HW2 5721   4.547   1.064   2.965  0.2672  2.0757  0.1001
 1608SOL     OW 5722   1.885   1.783   0.374  0.1842  0.4624  0.3315
 1608SOL    HW1 5723   1.978   1.821   0.374  0.6087 -0.5303  0.5009
 1608SOL    HW2 5724   1.836   1.817   0.454  0.9815 -0.3071  1.1783
 1609SOL     OW 5725   3.323   1.519   6.988  0.1024 -0.3869  0.4858
 1609SOL    HW1 5726   3.402   1.553   6.936 -1.2893 -0.1522 -1.6120
 1609SOL    HW2 5727   3.281   1.594   7.038  0.1576 -0.1394  0.1633
 1610SOL     OW 5728   0.621   6.803   4.341  0.2952 -0.5981 -0.5752
 1610SOL    HW1 5729   0.534   6.853   4.338  1.0503  1.0386  1.5357
 1610SOL    HW2 5730   0.611   6.722   4.399  0.7527  1.1650  2.1861
 1611SOL     OW 5731   2.691   0.612   0.286 -0.7019 -0.0036  0.5788
 1611SOL    HW1 5732   2.735   0.690   0.241 -0.5433  0.3999  1.4178
 1611SOL    HW2 5733   2.622   0.573   0.224 -1.4803  1.4099  0.5056
 1612SOL     OW 5734   5.014   2.705   4.139  0.3800 -0.5190 -0.3568
 1612SOL    HW1 5735   4.977   2.782   4.191  0.6364 -1.1317  0.7669
 1612SOL    HW2 5736   4.952   2.628   4.145  1.8061 -1.5935  1.6389
 1613SOL     OW 5737   4.882   4.881   4.276 -0.6918  0.2690  0.0967
 1613SOL    HW1 5738   4.825   4.890   4.358 -2.3457  1.9937 -1.1559
 1613SOL    HW2 5739   4.854   4.949   4.208  1.2479 -0.4868 -1.5682
 1614SOL     OW 5740   5.381   1.850   6.417  0.1388 -0.2997  0.0408
 1614SOL    HW1 5741   5.425   1.788   6.482 -0.3046  0.9397  1.6104
 1614SOL    HW2 5742   5.282   1.842   6.427  0.0760  0.1788 -0.2180
 1615SOL     OW 5743   1.940   6.257   6.330  0.4167  0.3465  0.2434
 1615SOL    HW1 5744   1.962   6.282   6.236 -0.3074  0.3913  0.0817
 1615SOL    HW2 5745   1.949   6.337   6.389  2.3108 -0.0082  0.4801
 1616SOL     OW 5746   5.981   6.493   3.627  0.2478  0.0123  0.3060
 1616SOL    HW1 5747   6.015   6.419   3.685  1.0800  0.5971  0.5813
 1616SOL    HW2 5748   6.042   6.572   3.634  0.1778  0.2213 -1.1019
 1617SOL     OW 5749   5.035   6.338   6.070 -0.2300 -1.0951 -0.0599
 1617SOL    HW1 5750   5.062   6.349   5.974  0.2891  0.2860  0.2166
 1617SOL    HW2 5751   5.117   6.335   6.127 -0.5621  0.1433  0.5123
 1618SOL     OW 5752   5.396   1.992   1.604  0.5040 -0.4297 -0.2855
 1618SOL    HW1 5753   5.309   1.964   1.645  0.6077 -1.0519 -0.4647
 1618SOL    HW2 5754   5.466   1.923   1.624  1.1265  0.3723  0.3904
 1619SOL     OW 5755   0.387   3.822   0.499  0.0350  0.4618 -0.6970
 1619SOL    HW1 5756   0.310   3.783   0.450 -0.3213 -1.8297  1.4882
 1619SOL    HW2 5757   0.467   3.763   0.490  0.3146  0.6369  0.4326
 1620SOL     OW 5758   0.233   5.357   1.057 -0.4750 -0.2017 -0.2693
 1620SOL    HW1 5759   0.188   5.351   0.968 -1.1564 -2.5499  0.1507
 1620SOL    HW2 5760   0.310   5.421   1.052 -2.1409  1.7877 -1.7636
 1621SOL     OW 5761   1.695   0.080   3.678  0.1536 -0.2708 -0.0731
 1621SOL    HW1 5762   1.623   0.093   3.610 -0.9243 -1.3890  0.8103
 1621SOL    HW2 5763   1.768   0.146   3.662 -0.6128  0.2548 -1.5851
 1622SOL     OW 5764   1.216   0.637   0.162 -0.2635  0.5151 -0.3594
 1622SOL    HW1 5765   1.182   0.543   0.155  0.9207  0.0845 -0.5130
 1622SOL    HW2 5766   1.145   0.695   0.203 -0.3604 -0.8099  1.4653
 1623SOL     OW 5767   5.818   6.793   0.942  0.0427 -0.0868 -0.8317
 1623SOL    HW1 5768   5.792   6.816   1.036  0.7427 -1.9611 -0.1311
 1623SOL    HW2 5769   5.742   6.745   0.897  0.1856 -0.3829 -0.7599
 1624SOL     OW 5770   3.703   3.444   2.627  0.1352  0.1137 -0.1627
 1624SOL    HW1 5771   3.639   3.511   2.589 -0.9872  0.1222  1.5891
 1624SOL    HW2 5772   3.725   3.375   2.558 -1.8213  0.0929 -0.8291
 1625SOL     OW 5773   5.798   0.329   6.767 -0.6220 -0.1011  0.5006
 1625SOL    HW1 5774   5.784   0.249   6.709 -2.5829  0.2281  0.4340
 1625SOL    HW2 5775   5.805   0.411   6.710  0.8123 -0.1404  0.5963
 1626SOL     OW 5776   0.772   5.573   1.698 -0.2793  0.0963  0.2681
 1626SOL    HW1 5777   0.743   5.598   1.606 -0.1818 -0.8253 -0.0258
 1626SOL    HW2 5778   0.849   5.509   1.692  0.4694  0.8995  1.0058
 1627SOL     OW 5779   3.082   0.346   6.808 -0.1477 -0.0074 -0.1461
 1627SOL    HW1 5780   3.072   0.405   6.728 -1.5860 -2.4203 -1.9266
 1627SOL    HW2 5781   2.999   0.290   6.817 -0.2055  0.4636  3.3594
 1628SOL     OW 5782   0.626   4.488   1.866 -0.0571  0.2772  0.0342
 1628SOL    HW1 5783   0.584   4.418   1.923 -0.3871  0.6969  0.3102
 1628SOL    HW2 5784   0.591   4.480   1.772 -0.2137  0.1736  0.1015
 1629SOL     OW 5785   5.908   2.483   4.059  0.3720 -0.0743 -0.4110
 1629SOL    HW1 5786   5.935   2.492   3.963  0.2177  2.0183 -0.3176
 1629SOL    HW2 5787   5.945   2.560   4.111 -3.1292  1.2915  0.3211
 1630SOL     OW 5788   6.021   5.503   3.992  0.2928  0.1086  0.0582
 1630SOL    HW1 5789   5.963   5.462   3.921  0.4444 -0.3547  0.1957
 1630SOL    HW2 5790   6.067   5.584   3.955  0.9930 -0.5764 -0.6274
 1631SOL     OW 5791   6.027   2.766   4.592  0.3080 -0.8726  0.1721
 1631SOL    HW1 5792   5.973   2.803   4.667 -1.6266 -3.5384  0.2374
 1631SOL    HW2 5793   6.087   2.694   4.626  1.4799 -0.2166 -0.4453
 1632SOL     OW 5794   2.880   0.576   1.083  0.3734  0.0830  0.7016
 1632SOL    HW1 5795   2.920   0.655   1.037  0.0861 -0.7710 -1.1177
 1632SOL    HW2 5796   2.781   0.573   1.064  0.4394 -0.8863  0.4472
 1633SOL     OW 5797   6.539   2.031   6.033 -0.5788 -0.1380 -0.8283
 1633SOL    HW1 5798   6.567   2.095   5.962 -1.3986 -0.4166 -1.4065
 1633SOL    HW2 5799   6.539   1.938   5.997 -0.9496 -0.2907 -0.4468
 1634SOL     OW 5800   2.127   0.232   0.298 -0.1384  0.0694  0.8305
 1634SOL    HW1 5801   2.202   0.173   0.329 -0.8145 -1.0263  0.4242
 1634SOL    HW2 5802   2.057   0.238   0.369 -0.9170 -1.1152  0.1994
 1635SOL     OW 5803   6.191   0.164   5.035  0.1138  0.4142 -0.2779
 1635SOL    HW1 5804   6.094   0.145   5.047  0.2951 -0.2300  0.1842
 1635SOL    HW2 5805   6.235   0.087   4.989  0.4966  0.5229 -0.0994
 1636SOL     OW 5806   5.178   3.771   2.250  0.0496 -0.4842  0.2355
 1636SOL    HW1 5807   5.202   3.674   2.259  1.0827 -0.2382  0.2597
 1636SOL    HW2 5808   5.259   3.823   2.225 -0.3579  0.4685  0.8319
 1637SOL     OW 5809   4.430   0.235   5.768 -0.4650 -0.4142 -0.9512
 1637SOL    HW1 5810   4.369   0.156   5.760  0.8740 -1.5778 -0.0788
 1637SOL    HW2 5811   4.484   0.227   5.852  1.2823  0.2891 -1.9511
 1638SOL     OW 5812   0.552   6.058   4.591  0.3503 -0.0409 -0.1487
 1638SOL    HW1 5813   0.550   5.994   4.513 -0.8472 -0.9891  0.6259
 1638SOL    HW2 5814   0.537   6.007   4.676  0.9008  1.0854  0.6377
 1639SOL     OW 5815   6.659   4.158   2.226 -0.1319  0.2220  0.6107
 1639SOL    HW1 5816   6.597   4.104   2.283  1.4787 -0.0700  2.1741
 1639SOL    HW2 5817   6.642   4.138   2.130  1.8385 -5.0367  1.0221
 1640SOL     OW 5818   2.053   1.539   4.714 -0.3276  0.0088 -0.2995
 1640SOL    HW1 5819   2.106   1.473   4.766  0.4558  0.2796 -0.7267
 1640SOL    HW2 5820   2.112   1.581   4.644 -1.5260 -0.8778 -1.8951
 1641SOL     OW 5821   6.245   5.587   6.996 -0.3866  0.2866  0.1860
 1641SOL    HW1 5822   6.196   5.536   6.925  0.8015  0.2687 -0.6432
 1641SOL    HW2 5823   6.182   5.652   7.040 -1.3831 -0.4066 -0.1873
 1642SOL     OW 5824   4.498   6.193   2.413  0.2879 -0.0247  0.4167
 1642SOL    HW1 5825   4.476   6.153   2.502  0.6147 -1.4899 -0.1230
 1642SOL    HW2 5826   4.420   6.245   2.379  0.0178  0.2103  1.3788
 1643SOL     OW 5827   0.342   3.420   0.698  0.1734 -0.3263 -0.0507
 1643SOL    HW1 5828   0.427   3.413   0.646  0.6925  0.9006  0.6036
 1643SOL    HW2 5829   0.344   3.502   0.755 -1.9192  0.3806 -0.8898
 1644SOL     OW 5830   5.542   4.493   0.216  0.0762  0.3471 -0.9664
 1644SOL    HW1 5831   5.525   4.396   0.233  3.5873 -0.0890  0.8778
 1644SOL    HW2 5832   5.517   4.545   0.297 -1.2388  0.9864 -1.7411
 1645SOL     OW 5833   2.149   5.358   0.013  0.5412 -0.5580 -0.0778
 1645SOL    HW1 5834   2.224   5.370  -0.052 -0.4475 -1.5069 -1.4472
 1645SOL    HW2 5835   2.089   5.284  -0.018 -1.5754  0.8473  0.4151
 1646SOL     OW 5836   0.549   1.862   3.466  0.0978 -0.2210  0.1032
 1646SOL    HW1 5837   0.517   1.954   3.445  1.2461 -0.1094 -1.3985
 1646SOL    HW2 5838   0.600   1.863   3.552  0.0259  0.5420  0.1426
 1647SOL     OW 5839   5.730   2.670   6.128  0.2005 -0.0281  0.5316
 1647SOL    HW1 5840   5.791   2.667   6.049  1.5611 -0.0124  1.5501
 1647SOL    HW2 5841   5.672   2.589   6.129  1.8167 -1.2143  0.7732
 1648SOL     OW 5842   5.518   5.805   2.017 -0.5390 -0.1655  0.1427
 1648SOL    HW1 5843   5.439   5.866   2.015 -1.5035 -1.3732 -0.0228
 1648SOL    HW2 5844   5.488   5.712   1.998  0.9404 -0.6536  0.0780
 1649SOL     OW 5845   2.356   0.181   0.808  0.0049  0.2666 -0.1646
 1649SOL    HW1 5846   2.371   0.103   0.749  0.0463 -0.4175  0.7241
 1649SOL    HW2 5847   2.440   0.235   0.815 -0.4321  1.2580 -1.9597
 1650SOL     OW 5848   5.351   4.104   2.474  0.4714 -0.1139  0.3907
 1650SOL    HW1 5849   5.254   4.082   2.485  0.7401 -1.2623  0.6285
 1650SOL    HW2 5850   5.400   4.082   2.559  0.9535  0.3713  0.2441
 1651SOL     OW 5851   3.287   4.901   1.236  0.2790  0.0137 -0.1014
 1651SOL    HW1 5852   3.311   4.929   1.328 -1.1372 -1.2890  0.7135
 1651SOL    HW2 5853   3.234   4.973   1.191 -0.5873 -0.0596  0.7789
 1652SOL     OW 5854   4.188   5.183   5.905 -0.6102  0.1634 -0.3245
 1652SOL    HW1 5855   4.253   5.190   5.829 -1.5145  1.6973 -1.0059
 1652SOL    HW2 5856   4.124   5.109   5.887  0.3760 -0.7836 -0.0681
 1653SOL     OW 5857   4.380   6.918   0.470  0.0264 -0.2768 -0.3079
 1653SOL    HW1 5858   4.473   6.920   0.506 -0.2512 -2.2595  0.6158
 1653SOL    HW2 5859   4.383   6.893   0.373  0.5710  2.1148 -0.9725
 1654SOL     OW 5860   1.626   6.744   2.582  0.1029  0.1584 -0.3994
 1654SOL    HW1 5861   1.640   6.657   2.535 -1.5821 -0.3811  0.0487
 1654SOL    HW2 5862   1.591   6.811   2.518 -2.2194 -0.5850  0.0091
 1655SOL     OW 5863   4.144   0.913   1.857 -0.2773  0.0237  0.7786
 1655SOL    HW1 5864   4.045   0.904   1.850 -0.1781 -0.2003 -0.5956
 1655SOL    HW2 5865   4.188   0.842   1.801  0.6285  1.8449 -0.9288
 1656SOL     OW 5866   0.284   4.577   5.710 -0.1100  0.4947  0.1905
 1656SOL    HW1 5867   0.376   4.610   5.693  0.3279  0.1469  1.7305
 1656SOL    HW2 5868   0.288   4.484   5.747 -0.8886  1.3414  2.5960
 1657SOL     OW 5869   2.843   4.172   1.687  0.3010 -0.3290 -0.1465
 1657SOL    HW1 5870   2.756   4.191   1.642  0.3606 -0.4748 -0.3266
 1657SOL    HW2 5871   2.868   4.249   1.745  0.8710  0.4614 -1.3772
 1658SOL     OW 5872   3.407   6.196   4.052 -0.2741  0.1182  0.1481
 1658SOL    HW1 5873   3.500   6.166   4.075  0.1565  0.6866 -0.7827
 1658SOL    HW2 5874   3.367   6.134   3.985 -0.1020  0.5432 -0.3544
 1659SOL     OW 5875   0.487   1.911   5.727  0.7481  0.6126 -0.2422
 1659SOL    HW1 5876   0.451   1.874   5.813 -0.7858  0.7359 -0.7879
 1659SOL    HW2 5877   0.417   1.968   5.684  1.6794  0.9754 -1.3306
 1660SOL     OW 5878   5.701   0.226   5.411  0.3315  0.1390 -0.5916
 1660SOL    HW1 5879   5.688   0.130   5.386 -1.0575  0.3077 -0.5776
 1660SOL    HW2 5880   5.762   0.270   5.345  1.6912 -0.9525 -0.1090
 1661SOL     OW 5881   5.655   5.131   4.232  0.9359  0.0734 -0.1832
 1661SOL    HW1 5882   5.728   5.191   4.198  0.3517  0.6681 -0.4228
 1661SOL    HW2 5883   5.692   5.041   4.252  1.6471  0.2361 -0.7252
 1662SOL     OW 5884   0.413   3.342   3.633  0.6291  0.7235 -0.1176
 1662SOL    HW1 5885   0.501   3.320   3.676  0.2075  2.7953  2.0387
 1662SOL    HW2 5886   0.428   3.362   3.536  2.1906 -0.8846 -0.2568
 1663SOL     OW 5887   4.603   4.769   5.934  0.0416 -0.1038 -0.2639
 1663SOL    HW1 5888   4.625   4.750   6.030  1.0919  2.0850 -0.0122
 1663SOL    HW2 5889   4.505   4.754   5.920 -0.1531 -0.3938  1.1717
 1664SOL     OW 5890   2.300   4.702   6.021  0.2168  0.1564  0.0564
 1664SOL    HW1 5891   2.346   4.614   6.025 -0.0473 -0.0079 -0.4257
 1664SOL    HW2 5892   2.201   4.688   6.014  0.0909  0.5020  0.9239
 1665SOL     OW 5893   0.475   0.511   1.347 -0.1385  0.2375 -0.3704
 1665SOL    HW1 5894   0.429   0.593   1.313  0.5971  0.3824 -1.0348
 1665SOL    HW2 5895   0.416   0.466   1.414 -0.1828  1.8186  0.7214
 1666SOL     OW 5896   6.291   3.475   0.522  0.4808 -0.4270  0.6857
 1666SOL    HW1 5897   6.348   3.506   0.446 -0.9445 -1.6344 -0.9706
 1666SOL    HW2 5898   6.226   3.546   0.547  0.5265 -0.2627  0.3333
 1667SOL     OW 5899   6.283   3.557   1.278 -0.8740 -0.1302  0.0415
 1667SOL    HW1 5900   6.368   3.595   1.315 -1.1633  0.3967  0.1831
 1667SOL    HW2 5901   6.239   3.500   1.347 -0.9508  0.1067  0.1896
 1668SOL     OW 5902   1.264   3.326   2.504  0.1628  0.4518  0.5303
 1668SOL    HW1 5903   1.246   3.416   2.464 -0.1038  0.4398  0.6210
 1668SOL    HW2 5904   1.356   3.297   2.479 -0.7744 -0.5956 -2.0913
 1669SOL     OW 5905   5.869   2.206   4.070 -0.1094  0.4233  0.0556
 1669SOL    HW1 5906   5.953   2.181   4.020 -1.0284 -1.9963 -0.3819
 1669SOL    HW2 5907   5.859   2.306   4.068  1.2933  0.6140 -2.3176
 1670SOL     OW 5908   5.392   6.157   0.547  0.1412  0.2933  0.0605
 1670SOL    HW1 5909   5.308   6.195   0.510 -0.8325 -1.4023  0.4120
 1670SOL    HW2 5910   5.406   6.188   0.640  0.9175  2.0488 -0.6065
 1671SOL     OW 5911   1.359   5.388   4.379  0.3703  0.3952  0.5089
 1671SOL    HW1 5912   1.278   5.343   4.340  0.6582  0.3301 -0.0184
 1671SOL    HW2 5913   1.393   5.334   4.456  2.3948 -1.8914 -1.8265
 1672SOL     OW 5914   2.525   1.655   6.769 -0.5056 -0.0608 -0.2389
 1672SOL    HW1 5915   2.603   1.681   6.712 -1.0658 -0.9935 -1.5023
 1672SOL    HW2 5916   2.466   1.592   6.717 -1.8313  0.2297  0.8549
 1673SOL     OW 5917   3.938   6.749   3.584 -0.4661 -0.2990 -0.3305
 1673SOL    HW1 5918   4.034   6.727   3.571 -0.8821 -1.4481 -1.7823
 1673SOL    HW2 5919   3.910   6.819   3.518 -0.6447 -0.0411  0.0169
 1674SOL     OW 5920   6.017   4.718   6.595  0.1154  0.0068 -0.2319
 1674SOL    HW1 5921   6.009   4.619   6.600 -1.4548  0.1180  0.0554
 1674SOL    HW2 5922   6.096   4.743   6.538  1.1813 -1.3801  0.5792
 1675SOL     OW 5923   0.917   2.877   4.075  0.0643 -0.3204 -0.7518
 1675SOL    HW1 5924   0.820   2.882   4.100  0.1158 -0.9837 -0.3903
 1675SOL    HW2 5925   0.936   2.787   4.035  0.7834 -0.6445  0.2822
 1676SOL     OW 5926   1.456   0.056   1.936  0.4669  0.1286  0.7525
 1676SOL    HW1 5927   1.444  -0.040   1.909 -1.8368  0.6890 -0.4826
 1676SOL    HW2 5928   1.552   0.073   1.955  1.2278 -2.0052 -0.7179
 1677SOL     OW 5929   1.115   1.299   6.001  0.5691  0.7494  0.0518
 1677SOL    HW1 5930   1.032   1.323   5.950  0.7894  1.7468  0.1296
 1677SOL    HW2 5931   1.158   1.383   6.035  2.3177  0.3642 -1.0714
 1678SOL     OW 5932   5.577   3.328   0.960 -0.0027  0.0812  0.0465
 1678SOL    HW1 5933   5.490   3.278   0.954  0.5323 -0.8799  0.1543
 1678SOL    HW2 5934   5.639   3.280   1.021  0.7364  0.5794 -0.2992
 1679SOL     OW 5935   5.382   3.865   4.957  0.1895  0.7046 -0.0849
 1679SOL    HW1 5936   5.377   3.859   4.857 -0.9580 -1.1297  0.0233
 1679SOL    HW2 5937   5.364   3.775   4.996 -1.2931  1.7463  1.8295
 1680SOL     OW 5938   5.720   3.947   4.805 -0.7639  0.0078  0.2718
 1680SOL    HW1 5939   5.695   4.035   4.765  2.7052  0.6328 -0.8500
 1680SOL    HW2 5940   5.778   3.896   4.741  0.2657 -1.4895  2.2716
 1681SOL     OW 5941   4.566   2.000   0.003  0.2131 -0.4670 -0.9570
 1681SOL    HW1 5942   4.494   2.023  -0.063  0.1713 -1.3623 -1.2425
 1681SOL    HW2 5943   4.649   1.975  -0.046  0.2451 -0.9381 -0.6718
 1682SOL     OW 5944   4.905   6.043   6.871  0.2194 -0.4728 -0.3475
 1682SOL    HW1 5945   4.966   6.060   6.947 -0.9108 -1.1157  0.7446
 1682SOL    HW2 5946   4.934   5.961   6.821 -0.2800 -1.3699  0.7801
 1683SOL     OW 5947   4.835   3.679   5.931 -0.5329  0.1408  0.4673
 1683SOL    HW1 5948   4.744   3.650   5.960 -0.7572  0.7822  0.4063
 1683SOL    HW2 5949   4.871   3.614   5.864 -0.7044 -0.4234  0.9067
 1684SOL     OW 5950   6.290   5.458   3.197  0.1611  0.3488 -0.2286
 1684SOL    HW1 5951   6.245   5.547   3.201 -2.9214 -1.0581 -0.6930
 1684SOL    HW2 5952   6.312   5.436   3.102 -0.8538 -0.1658 -0.3542
 1685SOL     OW 5953   5.111   2.139   6.356  0.0384  0.2305 -0.3626
 1685SOL    HW1 5954   5.131   2.170   6.263  2.7305 -0.6344 -0.1670
 1685SOL    HW2 5955   5.031   2.079   6.355  0.5275 -0.4530 -2.2692
 1686SOL     OW 5956   6.278   5.346   5.755 -0.1470 -0.0361  0.1023
 1686SOL    HW1 5957   6.260   5.249   5.765 -0.8530 -0.1678 -1.9600
 1686SOL    HW2 5958   6.216   5.398   5.813 -1.3817 -0.7758 -0.5072
 1687SOL     OW 5959   5.964   0.653   1.707 -0.2084 -0.0901 -0.0931
 1687SOL    HW1 5960   5.996   0.559   1.708  0.6335  0.1928 -0.0279
 1687SOL    HW2 5961   5.995   0.701   1.789 -1.2032  0.0691  0.2079
 1688SOL     OW 5962   2.626   1.095   6.153 -0.5823  0.1082 -0.0553
 1688SOL    HW1 5963   2.593   1.167   6.214  3.1321  0.7299  1.5562
 1688SOL    HW2 5964   2.660   1.136   6.069  1.3593  0.3400  0.7839
 1689SOL     OW 5965   2.169   3.787   5.090  0.4144 -0.1289  0.7314
 1689SOL    HW1 5966   2.233   3.744   5.153  1.6861  0.1885 -0.2867
 1689SOL    HW2 5967   2.215   3.861   5.041 -0.3255 -0.7207 -0.9642
 1690SOL     OW 5968   5.525   6.646   5.063  0.1564 -0.1653  0.1158
 1690SOL    HW1 5969   5.449   6.582   5.067 -1.9841  2.1243 -1.0030
 1690SOL    HW2 5970   5.580   6.629   4.982 -0.4783 -0.4718 -0.2540
 1691SOL     OW 5971   5.183   0.721   4.025  0.1369  0.2306 -0.3942
 1691SOL    HW1 5972   5.215   0.710   3.931 -1.8914  0.2540 -1.1316
 1691SOL    HW2 5973   5.091   0.761   4.024  0.3050  0.7455  1.6287
 1692SOL     OW 5974   0.769   2.830   1.183  0.2275 -0.0574 -0.1560
 1692SOL    HW1 5975   0.755   2.920   1.142 -1.5895 -0.3492 -0.2439
 1692SOL    HW2 5976   0.681   2.793   1.213  1.1274 -1.2076  1.1541
 1693SOL     OW 5977   6.168   4.115   1.940 -0.8615  0.3918 -0.4107
 1693SOL    HW1 5978   6.164   4.094   1.842  0.5167  0.3264 -0.4709
 1693SOL    HW2 5979   6.195   4.210   1.953 -0.0798  0.1322 -0.0941
 1694SOL     OW 5980   4.778   4.517   6.443 -0.1559  0.3886  0.3572
 1694SOL    HW1 5981   4.793   4.437   6.502 -1.7651 -0.2640 -0.0641
 1694SOL    HW2 5982   4.788   4.489   6.348  0.9876  1.1158  0.2414
 1695SOL     OW 5983   0.333   3.558   6.308 -0.3898  0.2322 -0.0885
 1695SOL    HW1 5984   0.241   3.556   6.346  0.2988  0.5426  1.6960
 1695SOL    HW2 5985   0.366   3.465   6.295 -0.1630  0.0867  1.3683
 1696SOL     OW 5986   1.898   3.983   3.366  0.0559 -0.0981 -0.3570
 1696SOL    HW1 5987   1.985   3.942   3.394  0.2187  0.2695 -0.3217
 1696SOL    HW2 5988   1.904   4.013   3.271 -0.8843 -2.4276 -1.2235
 1697SOL     OW 5989   5.446   2.701   1.817  0.2039 -0.2289  0.3726
 1697SOL    HW1 5990   5.355   2.664   1.797  0.1509 -0.4039  0.9167
 1697SOL    HW2 5991   5.441   2.763   1.895  0.6078 -0.4886  0.6077
 1698SOL     OW 5992   5.290   4.274   4.936  0.3760 -0.1484 -0.1188
 1698SOL    HW1 5993   5.347   4.215   4.879 -1.4407  0.2003 -2.4977
 1698SOL    HW2 5994   5.216   4.312   4.880  0.4633  3.0497  1.7062
 1699SOL     OW 5995   3.550   4.607   5.817  0.4937  0.2157 -0.2077
 1699SOL    HW1 5996   3.616   4.588   5.744 -1.8824 -1.1422 -2.1531
 1699SOL    HW2 5997   3.549   4.706   5.835  2.7806  0.3094 -0.3267
 1700SOL     OW 5998   5.019   6.163   5.000 -0.2205  0.2190 -0.2099
 1700SOL    HW1 5999   5.022   6.095   4.926 -0.2076 -0.2219  0.1891
 1700SOL    HW2 6000   4.944   6.226   4.984 -1.4604 -1.0449  0.3919
 1701SOL     OW 6001   3.069   6.807   6.676 -0.0012  0.1294 -0.4754
 1701SOL    HW1 6002   3.130   6.885   6.682  1.3039 -0.9138  0.4929
 1701SOL    HW2 6003   3.113   6.733   6.624 -1.0060 -0.1566 -0.9534
 1702SOL     OW 6004   1.669   5.474   1.802  0.1930 -0.0423  0.0232
 1702SOL    HW1 6005   1.713   5.432   1.881  0.6676 -0.2667 -0.3552
 1702SOL    HW2 6006   1.738   5.499   1.735 -0.2591 -0.4376 -0.6013
 1703SOL     OW 6007   0.883   3.912   6.318 -0.0925  0.0307  0.0724
 1703SOL    HW1 6008   0.784   3.903   6.313  0.1564 -3.2098 -0.8091
 1703SOL    HW2 6009   0.920   3.936   6.228 -0.0493  2.0012  0.5580
 1704SOL     OW 6010   3.712   1.973   6.596  0.4450  0.0299 -0.5552
 1704SOL    HW1 6011   3.735   1.892   6.651  0.6793 -1.6089 -2.8946
 1704SOL    HW2 6012   3.642   2.026   6.643 -1.1751 -2.5909  0.2612
 1705SOL     OW 6013   0.279   4.643   0.721 -0.1136 -0.5333  0.4072
 1705SOL    HW1 6014   0.208   4.574   0.706  1.5723 -2.2365 -0.0882
 1705SOL    HW2 6015   0.305   4.645   0.818  1.1127 -1.9577  0.1360
 1706SOL     OW 6016   5.878   1.797   3.068 -0.5402  0.5010  0.2085
 1706SOL    HW1 6017   5.902   1.738   2.991  0.0855  1.3261 -0.2384
 1706SOL    HW2 6018   5.800   1.855   3.044  0.9571  2.2808 -0.6218
 1707SOL     OW 6019   0.699   6.238   3.910 -0.7512  0.1083  0.5405
 1707SOL    HW1 6020   0.628   6.307   3.925 -1.1066  0.0316 -0.6616
 1707SOL    HW2 6021   0.781   6.283   3.874 -0.2100  0.1865  1.8520
 1708SOL     OW 6022   1.326   5.657   2.383  0.2053  0.0287 -0.2529
 1708SOL    HW1 6023   1.227   5.663   2.372  0.1994  0.3504 -0.0284
 1708SOL    HW2 6024   1.359   5.573   2.340 -0.3426 -0.8076  0.9181
 1709SOL     OW 6025   4.421   6.227   3.215 -0.8218 -0.6703 -0.4806
 1709SOL    HW1 6026   4.337   6.274   3.188 -1.3990 -1.3150  0.1555
 1709SOL    HW2 6027   4.408   6.184   3.304 -0.0308 -1.3325 -0.6762
 1710SOL     OW 6028   6.446   3.140   5.908 -0.8346 -0.3011 -0.1854
 1710SOL    HW1 6029   6.543   3.164   5.902 -0.5312 -1.6104 -1.4550
 1710SOL    HW2 6030   6.413   3.154   6.001  0.6800 -0.1657  0.3598
 1711SOL     OW 6031   2.197   1.440   2.626  0.0235 -0.1807  0.9136
 1711SOL    HW1 6032   2.126   1.506   2.600 -0.2198 -1.1492 -1.0398
 1711SOL    HW2 6033   2.168   1.391   2.707 -0.4824  1.0384  1.4986
 1712SOL     OW 6034   1.772   4.939   0.846 -0.1015 -0.4817 -0.4700
 1712SOL    HW1 6035   1.828   4.858   0.826  1.8726  0.6900  0.1250
 1712SOL    HW2 6036   1.742   4.936   0.941  0.5088 -0.2226 -0.2632
 1713SOL     OW 6037   3.871   1.318   1.718 -0.1773 -0.2695  0.1242
 1713SOL    HW1 6038   3.957   1.357   1.751  1.3424 -2.1528 -1.3818
 1713SOL    HW2 6039   3.869   1.220   1.737 -1.6945 -0.3868 -0.5098
 1714SOL     OW 6040   1.424   3.036   0.092 -0.0185  0.5348 -0.3688
 1714SOL    HW1 6041   1.509   3.081   0.116 -1.5740  2.4625  1.9746
 1714SOL    HW2 6042   1.413   3.036  -0.007  2.3066  0.9601 -0.6677
 1715SOL     OW 6043   4.607   6.262   5.398 -0.0736 -0.0421  0.3961
 1715SOL    HW1 6044   4.532   6.280   5.334  0.4988  2.1044  0.2697
 1715SOL    HW2 6045   4.689   6.239   5.346 -0.0629 -0.1041  0.4406
 1716SOL     OW 6046   2.237   1.051   1.956  0.1183 -0.1973  0.4595
 1716SOL    HW1 6047   2.161   0.990   1.981 -0.3759  0.1693 -0.1345
 1716SOL    HW2 6048   2.201   1.134   1.914  0.8920 -0.4940 -0.8516
 1717SOL     OW 6049   5.078   5.331   6.023  0.1343  0.3514  0.2815
 1717SOL    HW1 6050   5.047   5.269   5.951  0.4723 -0.0100  0.4407
 1717SOL    HW2 6051   5.153   5.288   6.073  1.2696  1.4218 -0.4499
 1718SOL     OW 6052   0.256   2.404   3.717 -0.0430  0.1588 -0.1500
 1718SOL    HW1 6053   0.341   2.455   3.733 -1.2729  2.2554  0.0715
 1718SOL    HW2 6054   0.274   2.327   3.655  1.8068  1.1740 -0.9550
 1719SOL     OW 6055   2.077   6.689   5.964  0.5881 -0.0296  0.4250
 1719SOL    HW1 6056   2.108   6.599   5.935  0.5709 -0.5784  2.0545
 1719SOL    HW2 6057   2.141   6.728   6.030  1.2349  1.7006 -1.1309
 1720SOL     OW 6058   5.151   3.892   3.509 -0.2142 -0.1628  0.3766
 1720SOL    HW1 6059   5.234   3.937   3.477 -0.3525  0.4327  0.8469
 1720SOL    HW2 6060   5.127   3.926   3.600 -0.3115 -1.1912  0.7570
 1721SOL     OW 6061   0.307   2.533   4.950 -0.1112 -0.8115 -0.0979
 1721SOL    HW1 6062   0.322   2.510   4.854  0.3327 -1.1771  0.0535
 1721SOL    HW2 6063   0.236   2.473   4.988  0.8889 -1.8100  0.2366
 1722SOL     OW 6064   6.035   0.500   6.184 -0.5389 -0.2901  0.4241
 1722SOL    HW1 6065   6.055   0.466   6.092 -0.1461 -1.3648  0.8928
 1722SOL    HW2 6066   5.947   0.465   6.215 -0.2895 -0.6156  0.7766
 1723SOL     OW 6067   4.217   2.238   4.341 -0.1776 -0.0936  1.1366
 1723SOL    HW1 6068   4.264   2.321   4.370  1.0997 -0.6527  0.7435
 1723SOL    HW2 6069   4.136   2.224   4.398 -0.8361  1.7878  0.7615
 1724SOL     OW 6070   6.182   3.217   2.551 -0.6203  0.5458 -0.0287
 1724SOL    HW1 6071   6.128   3.295   2.582  0.3345  0.8985  0.8402
 1724SOL    HW2 6072   6.271   3.250   2.519  0.4185 -0.2980  1.8543
 1725SOL     OW 6073   1.522   1.022   2.861 -0.0887 -0.3901 -0.3222
 1725SOL    HW1 6074   1.490   0.970   2.782  2.6342 -2.6144 -0.1277
 1725SOL    HW2 6075   1.620   1.040   2.851 -0.3883  2.5779  0.8827
 1726SOL     OW 6076   5.316   5.550   1.888 -0.1578 -0.8404 -0.4494
 1726SOL    HW1 6077   5.272   5.469   1.926 -0.0080 -1.3778 -1.3967
 1726SOL    HW2 6078   5.412   5.531   1.870 -0.0720 -0.3835 -0.4934
 1727SOL     OW 6079   3.480   4.065   2.578  0.1652 -0.0861  0.5901
 1727SOL    HW1 6080   3.426   4.149   2.577  1.1236  0.5594 -0.7359
 1727SOL    HW2 6081   3.438   3.998   2.639 -2.9958 -0.1943 -1.4818
 1728SOL     OW 6082   4.773   0.319   5.845  0.7736  0.3728  0.8661
 1728SOL    HW1 6083   4.754   0.307   5.748  1.0466  3.3361  0.3543
 1728SOL    HW2 6084   4.708   0.265   5.899  1.0278 -1.8320 -0.9055
 1729SOL     OW 6085   6.396   6.055   1.994  0.3510 -0.2994  0.7098
 1729SOL    HW1 6086   6.302   6.059   2.029 -0.4089 -0.3634 -1.2405
 1729SOL    HW2 6087   6.412   6.131   1.931  0.7459 -1.7182 -0.9743
 1730SOL     OW 6088   5.281   1.086   4.418  0.1398 -0.6295 -0.4738
 1730SOL    HW1 6089   5.286   1.180   4.453 -0.4243 -0.0688 -1.8389
 1730SOL    HW2 6090   5.359   1.069   4.358  0.2555 -1.0529 -0.2071
 1731SOL     OW 6091   0.409   0.550   6.755 -0.1972 -0.0509  0.4305
 1731SOL    HW1 6092   0.416   0.450   6.753 -1.1738 -0.1314  0.5362
 1731SOL    HW2 6093   0.433   0.584   6.846  1.5552 -0.0512  0.0048
 1732SOL     OW 6094   4.103   1.995   5.512 -0.6454 -0.1217  0.0038
 1732SOL    HW1 6095   4.117   1.916   5.571  1.6269  0.4001  0.2608
 1732SOL    HW2 6096   4.018   2.040   5.537 -0.8057 -1.1383  1.4363
 1733SOL     OW 6097   0.521   2.395   2.895 -0.4587  0.0256  0.0331
 1733SOL    HW1 6098   0.553   2.447   2.975 -0.3559 -1.5776  1.0879
 1733SOL    HW2 6099   0.596   2.385   2.830 -0.4548  1.0990 -0.1400
 1734SOL     OW 6100   0.681   2.109   0.453  0.3405 -0.1917 -0.0255
 1734SOL    HW1 6101   0.696   2.199   0.492 -0.8601 -0.8225  2.0346
 1734SOL    HW2 6102   0.616   2.116   0.377 -0.7232  0.5407  0.9211
 1735SOL     OW 6103   0.792   1.208   4.624  0.2596 -0.1218  0.6702
 1735SOL    HW1 6104   0.802   1.143   4.699 -3.0131  2.0689  3.3029
 1735SOL    HW2 6105   0.870   1.270   4.622  1.3552 -1.4458  0.8644
 1736SOL     OW 6106   2.893   5.704   1.609 -0.0981 -0.3419  0.3185
 1736SOL    HW1 6107   2.838   5.733   1.687  0.2243  0.4613  0.2578
 1736SOL    HW2 6108   2.990   5.717   1.629  0.1677 -2.5695  0.7644
 1737SOL     OW 6109   1.027   6.633   0.813 -0.7926  0.2548  0.2630
 1737SOL    HW1 6110   0.989   6.584   0.735 -2.6232 -0.0071  1.2691
 1737SOL    HW2 6111   1.042   6.729   0.789 -2.6349  0.5039 -0.0478
 1738SOL     OW 6112   4.633   3.758   0.242  0.5285  0.4437 -0.6042
 1738SOL    HW1 6113   4.570   3.740   0.167 -0.1750 -1.5846  0.3971
 1738SOL    HW2 6114   4.657   3.672   0.288  0.8620  1.5936  1.5330
 1739SOL     OW 6115   2.379   4.329   6.350 -0.8315 -0.0338 -0.3656
 1739SOL    HW1 6116   2.294   4.373   6.319 -0.4370  1.2688  0.3360
 1739SOL    HW2 6117   2.365   4.289   6.440 -0.3395  1.4276  0.3894
 1740SOL     OW 6118   6.378   1.576   0.333 -0.3880 -0.2152  0.0186
 1740SOL    HW1 6119   6.383   1.511   0.409 -0.1477 -0.5056 -0.2442
 1740SOL    HW2 6120   6.344   1.529   0.252  0.9397 -0.3156 -0.5044
 1741SOL     OW 6121   2.398   5.805   0.356 -0.7659 -0.5249 -0.1515
 1741SOL    HW1 6122   2.313   5.853   0.336 -1.9718 -2.4575  0.0610
 1741SOL    HW2 6123   2.407   5.726   0.295 -0.8871 -2.3224  2.0072
 1742SOL     OW 6124   3.964   2.931   0.999  0.1403  0.2064  0.1282
 1742SOL    HW1 6125   4.056   2.892   1.003  0.7226  1.6227  1.8985
 1742SOL    HW2 6126   3.926   2.936   1.091 -1.8464 -0.5805 -0.5932
 1743SOL     OW 6127   2.637   5.820   6.040 -0.1165 -0.2269  0.2823
 1743SOL    HW1 6128   2.644   5.806   5.941 -0.9999  0.5617  0.0951
 1743SOL    HW2 6129   2.632   5.918   6.059 -2.0667 -0.4205  0.9462
 1744SOL     OW 6130   5.390   0.783   1.048 -0.4891  0.3537 -0.1266
 1744SOL    HW1 6131   5.411   0.837   0.967  1.9356 -0.2551 -0.0075
 1744SOL    HW2 6132   5.400   0.686   1.027 -1.1281  0.1241  0.5774
 1745SOL     OW 6133   4.759   5.132   0.892 -0.0851  0.7544 -0.4818
 1745SOL    HW1 6134   4.684   5.126   0.825 -1.1582  0.6850  0.6840
 1745SOL    HW2 6135   4.842   5.092   0.853 -1.4023 -1.8922 -0.7737
 1746SOL     OW 6136   0.907   1.513   4.426 -0.0402 -0.3011  0.0630
 1746SOL    HW1 6137   0.902   1.610   4.446 -0.0851 -0.3133  0.1104
 1746SOL    HW2 6138   0.816   1.472   4.435 -0.0762 -0.2928 -0.2343
 1747SOL     OW 6139   6.387   0.176   2.027 -0.1838  0.0053 -0.3403
 1747SOL    HW1 6140   6.374   0.112   1.951  0.1620 -0.4453 -0.0267
 1747SOL    HW2 6141   6.423   0.262   1.992 -1.8251  0.4711 -0.9224
 1748SOL     OW 6142   0.591   0.781   2.055  0.3450 -0.5303  0.4274
 1748SOL    HW1 6143   0.601   0.878   2.033  0.0683 -0.8375 -1.2505
 1748SOL    HW2 6144   0.610   0.727   1.973 -1.1133 -1.8167  0.8862
 1749SOL     OW 6145   6.657   3.944   5.465 -0.2221 -0.1701  0.0542
 1749SOL    HW1 6146   6.713   4.009   5.515 -0.3358  0.8623 -1.1033
 1749SOL    HW2 6147   6.716   3.886   5.408 -0.2354  0.1794 -0.3235
 1750SOL     OW 6148   0.165   6.241   6.937 -0.3539  0.2573  0.2031
 1750SOL    HW1 6149   0.097   6.314   6.950  0.0793  0.8207 -0.5759
 1750SOL    HW2 6150   0.167   6.215   6.840 -1.4561 -1.7584  0.6515
 1751SOL     OW 6151   1.634   2.338   2.793 -0.3533  0.5918  0.5235
 1751SOL    HW1 6152   1.722   2.383   2.776 -0.4696  0.7091  0.2241
 1751SOL    HW2 6153   1.644   2.239   2.776  0.6204  0.0194  3.7664
 1752SOL     OW 6154   0.106   1.048   3.439 -0.6516  0.0660 -0.1405
 1752SOL    HW1 6155   0.058   0.961   3.428  0.6379 -0.6334 -0.5148
 1752SOL    HW2 6156   0.117   1.092   3.350 -1.0653  0.4793  0.0126
 1753SOL     OW 6157   5.257   2.126   4.993 -0.2033 -0.2865 -0.7206
 1753SOL    HW1 6158   5.275   2.163   5.084 -0.1922  0.5188 -1.0415
 1753SOL    HW2 6159   5.344   2.104   4.948 -0.0907  1.1581 -1.2720
 1754SOL     OW 6160   6.941   4.990   6.103 -0.0993 -0.3377 -0.5032
 1754SOL    HW1 6161   6.923   5.087   6.082  1.1446  0.1628  0.6435
 1754SOL    HW2 6162   7.010   4.955   6.040 -0.8175 -0.6239 -1.1647
 1755SOL     OW 6163   5.794   6.529   4.340 -0.0277 -0.0506  0.2451
 1755SOL    HW1 6164   5.720   6.501   4.279  1.3717  1.6982 -2.4227
 1755SOL    HW2 6165   5.800   6.465   4.417 -4.8023  0.1728  1.1220
 1756SOL     OW 6166   2.502   1.384   1.948  0.3169 -0.3121 -1.0022
 1756SOL    HW1 6167   2.494   1.289   1.980 -1.2703 -0.4053 -1.5881
 1756SOL    HW2 6168   2.593   1.419   1.972  0.5568 -1.6175  0.1691
 1757SOL     OW 6169   3.747   1.265   0.049 -0.6484  0.1012  0.3669
 1757SOL    HW1 6170   3.784   1.205  -0.022 -0.6209 -0.1441  0.5897
 1757SOL    HW2 6171   3.793   1.247   0.136 -0.1985  0.8731  0.3007
 1758SOL     OW 6172   2.719   1.752   5.648  0.3791  0.5658  0.4848
 1758SOL    HW1 6173   2.657   1.819   5.607 -0.4355 -2.1168 -3.1419
 1758SOL    HW2 6174   2.673   1.664   5.656  2.7327 -0.7101  0.8833
 1759SOL     OW 6175   1.096   0.922   2.689  0.6347 -0.8684  0.0476
 1759SOL    HW1 6176   1.026   0.981   2.650 -0.3687 -1.4395  0.9163
 1759SOL    HW2 6177   1.182   0.973   2.698  0.5630 -0.3844 -1.7302
 1760SOL     OW 6178   6.847   2.319   2.916  0.1151 -0.1288 -0.4498
 1760SOL    HW1 6179   6.768   2.378   2.932 -1.0820 -1.7074 -0.2141
 1760SOL    HW2 6180   6.842   2.282   2.823  0.9425  0.2671 -0.6575
 1761SOL     OW 6181   2.181   1.380   4.367  0.0339  0.2873 -0.2271
 1761SOL    HW1 6182   2.093   1.336   4.385 -0.5753  1.3217 -0.5659
 1761SOL    HW2 6183   2.189   1.464   4.421  1.1521 -0.1938  0.3824
 1762SOL     OW 6184   1.295   3.470   6.567  0.3090 -0.4078 -0.1853
 1762SOL    HW1 6185   1.197   3.487   6.555  0.3495 -1.5389 -2.6682
 1762SOL    HW2 6186   1.326   3.515   6.650 -2.0394  1.0873 -0.0191
 1763SOL     OW 6187   1.341   4.097   2.766  0.1154 -0.8209  0.4654
 1763SOL    HW1 6188   1.389   4.029   2.711 -0.0812 -1.7585  1.4120
 1763SOL    HW2 6189   1.393   4.114   2.850 -0.1446 -0.2608  0.5114
 1764SOL     OW 6190   3.147   6.837   2.692 -0.0877 -0.3991  0.3173
 1764SOL    HW1 6191   3.183   6.898   2.763  1.2931 -0.5502 -0.2200
 1764SOL    HW2 6192   3.051   6.857   2.676  0.5566  2.3825 -0.5680
 1765SOL     OW 6193   6.192   6.257   3.631  0.6168 -0.7867  0.4083
 1765SOL    HW1 6194   6.273   6.287   3.583 -1.9679  1.9443 -2.7210
 1765SOL    HW2 6195   6.157   6.173   3.589  1.6835 -1.9388  1.7286
 1766SOL     OW 6196   4.812   5.336   3.567  0.5136  0.2451  0.1296
 1766SOL    HW1 6197   4.772   5.246   3.581  1.0105  0.2126  1.4706
 1766SOL    HW2 6198   4.753   5.406   3.606 -0.6507  0.7004 -2.2707
 1767SOL     OW 6199   6.197   1.435   1.364  0.0217  0.5406  0.2136
 1767SOL    HW1 6200   6.161   1.391   1.447  0.7131  0.7507  0.6290
 1767SOL    HW2 6201   6.144   1.404   1.285  0.0926 -0.5722  0.5787
 1768SOL     OW 6202   5.661   3.666   1.243 -0.0982 -0.5598  0.4533
 1768SOL    HW1 6203   5.580   3.638   1.191  0.0032 -0.5334  0.2789
 1768SOL    HW2 6204   5.649   3.642   1.339 -0.6268  0.1025  0.5587
 1769SOL     OW 6205   0.368   3.844   2.827 -0.3721  0.4170 -0.3271
 1769SOL    HW1 6206   0.344   3.749   2.809 -1.0862  0.6393 -0.5566
 1769SOL    HW2 6207   0.416   3.850   2.915  0.5782 -0.2790 -0.7779
 1770SOL     OW 6208   5.974   4.326   4.111  0.4358 -0.0733 -0.7293
 1770SOL    HW1 6209   5.981   4.361   4.205  0.1960 -1.3167 -0.2219
 1770SOL    HW2 6210   6.024   4.239   4.105 -0.1165 -0.3404 -1.5752
 1771SOL     OW 6211   1.488   6.491   5.774 -0.5263  0.5276  0.1562
 1771SOL    HW1 6212   1.505   6.400   5.811 -2.0296  1.0669  2.3413
 1771SOL    HW2 6213   1.432   6.484   5.691  0.4770 -0.5750 -0.4487
 1772SOL     OW 6214   1.527   6.588   5.227 -0.2161  0.1504  0.0536
 1772SOL    HW1 6215   1.450   6.636   5.268 -1.1051 -0.8268 -0.4518
 1772SOL    HW2 6216   1.521   6.490   5.247 -0.2387 -0.2455 -1.7085
 1773SOL     OW 6217   2.591   3.415   0.521  0.7010 -0.2673  0.1454
 1773SOL    HW1 6218   2.544   3.328   0.516 -0.2164  0.2515 -0.6308
 1773SOL    HW2 6219   2.689   3.401   0.505  0.2824 -0.9349 -2.3115
 1774SOL     OW 6220   2.925   2.441   1.011 -0.5034 -0.0677 -0.4823
 1774SOL    HW1 6221   2.913   2.349   1.047  0.6584  0.0638  0.2781
 1774SOL    HW2 6222   2.947   2.504   1.086  0.3708  0.5164 -1.2002
 1775SOL     OW 6223   1.092   2.514   0.293 -0.0872  0.2992 -0.6261
 1775SOL    HW1 6224   1.105   2.419   0.321 -0.5256  0.3158 -0.3667
 1775SOL    HW2 6225   1.005   2.548   0.328  1.6164  1.9206  2.4460
 1776SOL     OW 6226   3.226   1.366   2.523  0.0363  0.1131 -0.1702
 1776SOL    HW1 6227   3.324   1.379   2.533 -0.1862  0.7416  1.4654
 1776SOL    HW2 6228   3.193   1.304   2.594 -0.5096 -1.5040 -1.7474
 1777SOL     OW 6229   2.779   0.271   4.196 -0.0714  0.6306 -0.0212
 1777SOL    HW1 6230   2.841   0.304   4.125 -0.5567  1.1573 -0.2103
 1777SOL    HW2 6231   2.826   0.270   4.284  0.6868 -0.4893 -0.4215
 1778SOL     OW 6232   2.490   6.561   6.395  0.3400  0.0831 -0.0098
 1778SOL    HW1 6233   2.457   6.509   6.474  0.1072 -0.2168 -0.2988
 1778SOL    HW2 6234   2.424   6.633   6.372 -0.2700 -0.6830 -0.7499
 1779SOL     OW 6235   2.618   0.330   0.554 -0.4228 -0.6717  0.0344
 1779SOL    HW1 6236   2.566   0.333   0.468 -0.3373  0.6597  0.0084
 1779SOL    HW2 6237   2.669   0.415   0.565  0.6225 -1.3760  0.7690
 1780SOL     OW 6238   3.616   6.211   0.244 -0.2991  0.4776  0.8729
 1780SOL    HW1 6239   3.599   6.280   0.173  0.6360 -0.0479  0.1149
 1780SOL    HW2 6240   3.714   6.208   0.265 -0.0595 -1.6886 -0.2716
 1781SOL     OW 6241   2.604   5.508   2.832  0.0824  0.1595 -0.5838
 1781SOL    HW1 6242   2.546   5.578   2.791 -0.5374  0.0572  0.0873
 1781SOL    HW2 6243   2.672   5.478   2.766  2.1060  3.2659 -0.0897
 1782SOL     OW 6244   1.575   2.677   6.190 -0.3821 -0.2541 -0.2003
 1782SOL    HW1 6245   1.673   2.698   6.191 -0.7128  1.3760 -0.0951
 1782SOL    HW2 6246   1.561   2.580   6.212  1.1414 -0.2938  0.6651
 1783SOL     OW 6247   4.539   4.320   6.148 -0.8593 -0.6548 -0.5009
 1783SOL    HW1 6248   4.501   4.408   6.176  0.4292  0.0765 -0.9663
 1783SOL    HW2 6249   4.479   4.246   6.180  0.2648  0.0571  4.0803
 1784SOL     OW 6250   1.441   5.887   5.214  0.7120  0.6186  0.5733
 1784SOL    HW1 6251   1.408   5.904   5.121  1.5514 -1.1522 -0.1083
 1784SOL    HW2 6252   1.459   5.974   5.260  1.1871  1.5355 -1.2554
 1785SOL     OW 6253   3.651   3.088   5.870  0.1112 -0.3666  0.6119
 1785SOL    HW1 6254   3.676   3.101   5.774 -0.6348 -3.7667 -0.2156
 1785SOL    HW2 6255   3.552   3.100   5.880  0.3543  1.2170  1.2591
 1786SOL     OW 6256   6.235   2.454   2.346 -0.6146 -0.0133  0.3569
 1786SOL    HW1 6257   6.334   2.443   2.339 -0.7339 -0.7331 -0.4188
 1786SOL    HW2 6258   6.214   2.550   2.366  0.1988  0.4440 -0.8070
 1787SOL     OW 6259   5.590   6.250   1.079  0.4190  0.2511 -0.0973
 1787SOL    HW1 6260   5.671   6.193   1.070 -0.9550 -1.9466  0.7390
 1787SOL    HW2 6261   5.529   6.212   1.148  0.2501  3.8491  1.9770
 1788SOL     OW 6262   5.181   6.749   5.676 -0.2427 -0.6288  0.3790
 1788SOL    HW1 6263   5.082   6.737   5.680 -0.6068  1.3047 -1.1247
 1788SOL    HW2 6264   5.209   6.769   5.582  1.3637  0.3540  1.0142
 1789SOL     OW 6265   3.305   5.690   3.376 -0.4326  1.2141  0.1905
 1789SOL    HW1 6266   3.353   5.672   3.290 -0.0355 -4.0097  1.1921
 1789SOL    HW2 6267   3.209   5.663   3.366 -0.4368  0.7851  1.3133
 1790SOL     OW 6268   5.702   6.992   6.384  0.5740 -0.6212  0.5566
 1790SOL    HW1 6269   5.610   7.030   6.380  0.8756 -0.0005 -1.7240
 1790SOL    HW2 6270   5.767   7.063   6.410  0.4688 -1.0217  2.0097
 1791SOL     OW 6271   6.934   3.767   1.242 -0.3828 -0.0666 -0.1954
 1791SOL    HW1 6272   6.974   3.677   1.262 -0.6024  0.1012  1.1236
 1791SOL    HW2 6273   6.977   3.805   1.160  0.0277 -1.1790 -0.5192
 1792SOL     OW 6274   4.776   5.069   1.191  0.2972 -0.0177 -0.3576
 1792SOL    HW1 6275   4.790   5.078   1.092 -0.4930  0.5525 -0.4302
 1792SOL    HW2 6276   4.700   5.006   1.208  0.8104 -0.5725 -0.0855
 1793SOL     OW 6277   2.655   4.912   3.561  0.4924  0.1978 -0.1426
 1793SOL    HW1 6278   2.580   4.903   3.627  0.9830  1.6946  0.6856
 1793SOL    HW2 6279   2.683   4.822   3.530 -0.1478 -0.5207  1.2530
 1794SOL     OW 6280   1.067   3.365   4.661 -0.2905 -0.0123  0.4885
 1794SOL    HW1 6281   1.099   3.416   4.740 -2.6342  0.5162  1.1776
 1794SOL    HW2 6282   1.143   3.317   4.619  1.0615 -0.1521  2.9375
 1795SOL     OW 6283   5.406   1.651   5.199 -0.2743 -0.1274  0.5371
 1795SOL    HW1 6284   5.420   1.657   5.297  0.0697  0.6884  0.4510
 1795SOL    HW2 6285   5.489   1.614   5.156 -0.0662  0.3900  0.4755
 1796SOL     OW 6286   3.750   3.713   2.077  0.0745  0.2628  0.3384
 1796SOL    HW1 6287   3.809   3.691   1.999 -0.6843 -1.5190  0.2124
 1796SOL    HW2 6288   3.716   3.806   2.067  0.7162  0.3839 -0.9962
 1797SOL     OW 6289   2.194   5.334   2.713  0.2792 -0.0161  0.1748
 1797SOL    HW1 6290   2.136   5.354   2.633  0.5971  2.1059  0.3991
 1797SOL    HW2 6291   2.283   5.378   2.700  0.7161 -0.5641  1.2418
 1798SOL     OW 6292   3.526   6.421   6.530 -0.3691  0.6159  0.0857
 1798SOL    HW1 6293   3.608   6.446   6.478 -0.1500  0.0557  0.1527
 1798SOL    HW2 6294   3.466   6.365   6.473 -0.9911  1.5094 -0.1568
 1799SOL     OW 6295   4.922   3.399   2.880  0.0877  0.3573  0.4337
 1799SOL    HW1 6296   4.919   3.320   2.941  1.5215 -1.1838 -1.3641
 1799SOL    HW2 6297   4.961   3.477   2.928 -0.3838 -0.3122  1.9450
 1800SOL     OW 6298   4.171   6.957   3.713  0.2377  0.0041  0.1329
 1800SOL    HW1 6299   4.137   6.982   3.804 -1.3882 -1.3203 -0.0785
 1800SOL    HW2 6300   4.133   7.019   3.645 -0.0780 -0.1859  0.1364
 1801SOL     OW 6301   4.117   1.125   4.808 -0.3852  0.4095 -0.1556
 1801SOL    HW1 6302   4.112   1.222   4.784  0.2927  0.2903 -0.8311
 1801SOL    HW2 6303   4.164   1.115   4.896 -1.6330  0.7655  0.5737
 1802SOL     OW 6304   6.453   2.947   1.943  0.3826 -0.0706 -0.3894
 1802SOL    HW1 6305   6.450   2.969   2.041 -1.3586  0.1424 -0.4638
 1802SOL    HW2 6306   6.459   2.847   1.932 -0.0086 -0.1338 -0.0611
 1803SOL     OW 6307   6.776   2.957   5.549 -0.1494  0.2471  0.4947
 1803SOL    HW1 6308   6.864   3.002   5.563  0.5262 -1.2440  1.2853
 1803SOL    HW2 6309   6.737   2.933   5.638 -1.0531  0.3110  0.1254
 1804SOL     OW 6310   4.602   1.321   5.072 -0.5044 -0.1138 -1.0872
 1804SOL    HW1 6311   4.654   1.271   5.141 -0.7611 -0.1190 -0.8961
 1804SOL    HW2 6312   4.505   1.297   5.079 -0.4864 -0.4032 -1.6967
 1805SOL     OW 6313   6.003   2.731   5.642  0.1210  0.1795  0.2440
 1805SOL    HW1 6314   5.949   2.650   5.620  1.2666 -0.3240 -0.8155
 1805SOL    HW2 6315   5.957   2.813   5.606  0.1259 -0.2610 -0.8042
 1806SOL     OW 6316   1.176   6.733   3.519  0.5476 -0.4625  0.1442
 1806SOL    HW1 6317   1.166   6.650   3.465  1.7018 -0.9181  0.5996
 1806SOL    HW2 6318   1.228   6.801   3.466  3.7380 -1.7171  1.3875
 1807SOL     OW 6319   5.153   2.942   2.821  0.3947 -0.4385 -0.3468
 1807SOL    HW1 6320   5.235   2.944   2.764  0.6561  1.5029  0.0352
 1807SOL    HW2 6321   5.097   3.023   2.802 -1.6472 -1.8820 -0.8445
 1808SOL     OW 6322   4.201   6.156   0.758  0.2641  0.6180 -0.6725
 1808SOL    HW1 6323   4.260   6.237   0.763  0.3055  0.5469  0.1666
 1808SOL    HW2 6324   4.256   6.076   0.736  0.1150  0.9206 -2.2414
 1809SOL     OW 6325   1.487   4.395   1.373 -0.4210  0.3139 -0.5174
 1809SOL    HW1 6326   1.461   4.430   1.463  1.7207  0.6159  0.0239
 1809SOL    HW2 6327   1.465   4.297   1.368  0.7919 -0.0598  0.9043
 1810SOL     OW 6328   5.359   5.394   5.128  0.3461  0.1855  0.0409
 1810SOL    HW1 6329   5.428   5.464   5.109  0.2535 -0.3117 -2.4464
 1810SOL    HW2 6330   5.268   5.437   5.126  0.3887  0.2769  0.0497
 1811SOL     OW 6331   1.015   0.628   4.234 -0.3743  0.2863  0.5130
 1811SOL    HW1 6332   0.937   0.565   4.241  0.2218 -0.5052  0.2293
 1811SOL    HW2 6333   0.995   0.698   4.165 -0.7312 -0.0753  0.2397
 1812SOL     OW 6334   3.223   4.022   2.757 -0.3240 -0.2189  0.3655
 1812SOL    HW1 6335   3.145   4.004   2.697  0.3057 -1.3068 -0.1468
 1812SOL    HW2 6336   3.209   3.975   2.844 -0.1524 -0.5726  0.2025
 1813SOL     OW 6337   6.552   4.344   4.207  0.2837  0.3332  0.4904
 1813SOL    HW1 6338   6.595   4.375   4.122 -0.8148  0.0023 -0.2118
 1813SOL    HW2 6339   6.472   4.401   4.226  1.5562  1.6150  2.3409
 1814SOL     OW 6340   0.330   1.572   2.891  0.5755 -0.3195  0.4103
 1814SOL    HW1 6341   0.390   1.628   2.947 -0.4426  0.4005  0.8207
 1814SOL    HW2 6342   0.358   1.579   2.795  0.6224  0.7027  0.4855
 1815SOL     OW 6343   3.626   1.022   1.243  0.1271  0.3161  0.9310
 1815SOL    HW1 6344   3.596   1.077   1.321 -0.6324 -1.4711  1.9610
 1815SOL    HW2 6345   3.549   0.967   1.210  1.2992 -1.5682  1.1920
 1816SOL     OW 6346   5.213   2.738   2.045  0.4329 -0.4600  0.7592
 1816SOL    HW1 6347   5.208   2.691   1.957 -2.7968 -0.7321  0.9439
 1816SOL    HW2 6348   5.157   2.689   2.112 -0.0312  1.6215  1.9965
 1817SOL     OW 6349   3.213   3.408   5.023 -0.3174  0.4173  0.2605
 1817SOL    HW1 6350   3.307   3.385   4.997 -0.1562 -1.5045  2.2811
 1817SOL    HW2 6351   3.202   3.397   5.121 -2.6672  0.7110  0.0846
 1818SOL     OW 6352   2.628   1.173   5.723  0.0548  0.3316 -0.4694
 1818SOL    HW1 6353   2.588   1.252   5.770  0.7702  0.7547 -0.5602
 1818SOL    HW2 6354   2.724   1.192   5.701  0.2127 -0.5349 -0.5614
 1819SOL     OW 6355   1.482   5.176   4.135 -0.4885  0.2212 -0.2149
 1819SOL    HW1 6356   1.430   5.099   4.171 -1.2299  0.4248 -0.8132
 1819SOL    HW2 6357   1.574   5.145   4.109 -0.3780 -0.1912  0.6419
 1820SOL     OW 6358   4.214   5.920   4.318  0.1308  0.2217 -0.0709
 1820SOL    HW1 6359   4.189   5.947   4.225 -0.1061 -0.5985 -0.2569
 1820SOL    HW2 6360   4.310   5.940   4.335 -0.1308  1.5288 -0.0559
 1821SOL     OW 6361   6.146   5.401   6.820 -0.4285  0.6080 -0.3436
 1821SOL    HW1 6362   6.160   5.321   6.879 -0.4409  0.3233 -0.7177
 1821SOL    HW2 6363   6.049   5.409   6.798 -0.3976  0.5901 -0.4898
 1822SOL     OW 6364   5.294   6.866   5.379 -0.1303  0.0489  0.3631
 1822SOL    HW1 6365   5.351   6.900   5.304 -1.2304  0.3342 -0.3539
 1822SOL    HW2 6366   5.337   6.785   5.419  1.9774  1.5592  1.3658
 1823SOL     OW 6367   4.165   2.210   2.681  0.0772 -0.2892  0.2526
 1823SOL    HW1 6368   4.078   2.166   2.701  0.6222 -1.9190 -0.7549
 1823SOL    HW2 6369   4.222   2.210   2.763  0.2508 -1.9800  0.1706
 1824SOL     OW 6370   3.828   3.077   3.776 -0.4051  0.1399  0.2863
 1824SOL    HW1 6371   3.821   3.035   3.866 -0.8666 -1.6721 -0.5475
 1824SOL    HW2 6372   3.742   3.124   3.754 -0.2191  0.7588  0.8553
 1825SOL     OW 6373   2.868   5.087   0.932  0.2966 -0.3921 -0.2656
 1825SOL    HW1 6374   2.909   4.998   0.910 -1.3757 -1.2757 -0.0426
 1825SOL    HW2 6375   2.784   5.072   0.984  0.8370  1.4062  1.2414
 1826SOL     OW 6376   5.096   1.366   4.210 -0.2968  0.9892 -0.1314
 1826SOL    HW1 6377   5.091   1.266   4.211 -0.1690  0.9442 -1.6137
 1826SOL    HW2 6378   5.192   1.394   4.218 -0.1508  0.9215 -1.4536
 1827SOL     OW 6379   1.907   6.880   2.266 -0.5139  0.7931  0.2034
 1827SOL    HW1 6380   1.916   6.926   2.178  0.0654 -0.9252 -0.6844
 1827SOL    HW2 6381   1.974   6.917   2.331 -0.4632  1.5772 -0.2911
 1828SOL     OW 6382   1.657   2.190   5.233 -0.1611 -0.2522  0.1933
 1828SOL    HW1 6383   1.628   2.284   5.214 -2.5192 -0.9743 -0.0638
 1828SOL    HW2 6384   1.653   2.136   5.149  0.5811 -0.7490  0.4675
 1829SOL     OW 6385   6.773   4.494   4.979  0.4141 -0.0294  0.8945
 1829SOL    HW1 6386   6.853   4.527   5.029 -0.1893  0.9776  1.2269
 1829SOL    HW2 6387   6.704   4.567   4.975 -0.3870 -0.7983  0.4029
 1830SOL     OW 6388   3.018   0.884   1.420  0.1344 -0.3119 -0.2182
 1830SOL    HW1 6389   3.081   0.959   1.442 -2.0595  1.8775 -0.9872
 1830SOL    HW2 6390   3.066   0.816   1.364  2.2563  0.3575  0.6731
 1831SOL     OW 6391   6.332   4.486   4.280 -0.4431 -0.8832  0.2990
 1831SOL    HW1 6392   6.277   4.521   4.204 -0.6213  1.0309  1.2392
 1831SOL    HW2 6393   6.275   4.474   4.361  0.1334 -0.8068  0.7310
 1832SOL     OW 6394   4.063   5.345   3.203  0.1137 -0.2143  0.1238
 1832SOL    HW1 6395   4.111   5.387   3.126  0.6656  1.2840  1.2275
 1832SOL    HW2 6396   3.971   5.385   3.211 -0.0721 -0.6185  0.0476
 1833SOL     OW 6397   5.638   0.028   3.410 -0.1475  0.2588 -0.3639
 1833SOL    HW1 6398   5.695  -0.054   3.415 -0.7670 -0.2317 -1.1711
 1833SOL    HW2 6399   5.690   0.106   3.445  0.5689 -0.4042  0.0990
 1834SOL     OW 6400   3.189   5.494   1.833 -0.7628 -0.4024 -0.7428
 1834SOL    HW1 6401   3.271   5.488   1.777  0.0235 -2.1051  0.4987
 1834SOL    HW2 6402   3.212   5.473   1.928 -3.0412 -4.0238 -0.8045
 1835SOL     OW 6403   4.134   4.622   1.430 -0.0723  0.1949  1.0404
 1835SOL    HW1 6404   4.069   4.633   1.505 -0.5238 -1.6437  0.9725
 1835SOL    HW2 6405   4.092   4.567   1.358  1.2198 -0.1699  0.5414
 1836SOL     OW 6406   5.311   5.520   4.321  0.5298  0.5547 -0.4519
 1836SOL    HW1 6407   5.325   5.421   4.311 -1.2957  0.3225 -0.9476
 1836SOL    HW2 6408   5.394   5.561   4.359  1.4691 -1.0971 -0.6236
 1837SOL     OW 6409   2.689   4.539   6.085  0.3690  0.2516 -0.0956
 1837SOL    HW1 6410   2.594   4.518   6.061  0.1380  1.1278  0.0261
 1837SOL    HW2 6411   2.694   4.630   6.126  0.9694 -0.5751  1.7799
 1838SOL     OW 6412   2.949   3.524   3.460 -0.1774  0.0965 -0.0293
 1838SOL    HW1 6413   2.927   3.620   3.478  2.5705  0.5438  1.4986
 1838SOL    HW2 6414   2.933   3.470   3.544  0.0376 -0.4350 -0.3259
 1839SOL     OW 6415   1.569   6.653   3.632  0.5421 -0.3444  0.3098
 1839SOL    HW1 6416   1.620   6.614   3.708 -0.4954 -1.2359  0.5691
 1839SOL    HW2 6417   1.511   6.727   3.665 -0.4934 -1.2405  0.5514
 1840SOL     OW 6418   1.946   2.019   4.164 -0.6563  0.9839 -0.0674
 1840SOL    HW1 6419   1.854   2.017   4.205 -1.4701 -1.2628 -1.7943
 1840SOL    HW2 6420   1.966   1.929   4.124  1.1991  2.2272 -2.1319
 1841SOL     OW 6421   4.940   2.246   6.795  0.2139  0.1424 -0.5291
 1841SOL    HW1 6422   4.980   2.268   6.706 -0.7870 -1.7998 -1.5162
 1841SOL    HW2 6423   5.012   2.226   6.861  0.9372  0.0054 -1.3515
 1842SOL     OW 6424   6.385   0.225   2.796 -0.3171 -0.0291 -0.0824
 1842SOL    HW1 6425   6.456   0.204   2.728  0.1170  0.5656  0.1708
 1842SOL    HW2 6426   6.411   0.187   2.885 -1.3113 -1.5713 -0.4247
 1843SOL     OW 6427   4.525   0.209   2.367 -0.1418  0.5050 -0.0555
 1843SOL    HW1 6428   4.547   0.112   2.364 -1.6473  0.1419  0.2044
 1843SOL    HW2 6429   4.474   0.235   2.285  0.8915  1.2662 -0.4925
 1844SOL     OW 6430   6.321   0.201   5.839 -0.3365 -0.2831 -0.0971
 1844SOL    HW1 6431   6.288   0.142   5.912  0.3589 -1.1100 -0.4353
 1844SOL    HW2 6432   6.356   0.287   5.878 -0.9604 -0.2654  0.4342
 1845SOL     OW 6433   4.398   4.483   1.233 -0.5053 -0.1835 -0.8990
 1845SOL    HW1 6434   4.407   4.394   1.188  0.4259 -0.4189 -0.2701
 1845SOL    HW2 6435   4.356   4.548   1.170 -0.1108 -0.7624 -1.7792
 1846SOL     OW 6436   1.106   6.568   6.866 -0.8461 -0.7955 -0.1630
 1846SOL    HW1 6437   1.117   6.483   6.815 -0.7143 -0.1136 -1.3129
 1846SOL    HW2 6438   1.187   6.626   6.853 -2.0572  0.6589 -1.6902
 1847SOL     OW 6439   2.904   6.741   3.769  0.4266 -0.0992 -0.6007
 1847SOL    HW1 6440   2.951   6.778   3.848 -1.4991 -0.3026  0.7189
 1847SOL    HW2 6441   2.863   6.653   3.792 -1.2054  0.3985 -1.3973
 1848SOL     OW 6442   6.884   2.428   1.952  0.0383  0.3650  0.5630
 1848SOL    HW1 6443   6.972   2.453   1.911 -0.5838 -0.1743 -1.1885
 1848SOL    HW2 6444   6.874   2.329   1.951  0.1394  0.3160  2.3859
 1849SOL     OW 6445   3.106   3.675   6.383  0.6407 -0.3369 -0.3783
 1849SOL    HW1 6446   3.155   3.631   6.308  2.0558  1.0104 -0.2735
 1849SOL    HW2 6447   3.164   3.744   6.426 -1.4848  1.6484 -0.5118
 1850SOL     OW 6448   5.661   2.291   1.944 -0.2686  0.3278 -0.8412
 1850SOL    HW1 6449   5.685   2.380   1.906  1.1701  0.0210 -0.7116
 1850SOL    HW2 6450   5.592   2.302   2.015 -1.0435  1.1868 -1.6904
 1851SOL     OW 6451   6.973   5.159   5.590  0.6997 -0.0289  0.4313
 1851SOL    HW1 6452   6.893   5.124   5.638  1.6524 -1.7665  0.8324
 1851SOL    HW2 6453   6.944   5.206   5.507 -0.9144  2.2222  2.1435
 1852SOL     OW 6454   0.895   0.909   6.737 -0.5374  0.1054 -0.0309
 1852SOL    HW1 6455   0.994   0.901   6.728 -0.4353  0.7923  0.4328
 1852SOL    HW2 6456   0.859   0.825   6.779  0.2647  1.0628  2.8373
 1853SOL     OW 6457   4.777   1.902   6.156 -0.2969 -0.1118  0.2926
 1853SOL    HW1 6458   4.706   1.892   6.087  0.3559  1.2155 -0.6147
 1853SOL    HW2 6459   4.866   1.884   6.115 -0.1273 -2.7495  1.6526
 1854SOL     OW 6460   1.548   1.624   2.218  0.3080 -0.7069 -0.3933
 1854SOL    HW1 6461   1.616   1.550   2.223  1.3964 -0.0830 -3.8288
 1854SOL    HW2 6462   1.595   1.712   2.223 -0.7261 -0.2010  1.1022
 1855SOL     OW 6463   1.875   4.897   2.295 -0.4237  0.1718  0.3442
 1855SOL    HW1 6464   1.810   4.973   2.306  0.1197  0.6404  0.3859
 1855SOL    HW2 6465   1.883   4.848   2.382 -1.6006 -0.6273  0.0334
 1856SOL     OW 6466   6.605   6.763   5.778  0.1858 -0.0826 -0.1579
 1856SOL    HW1 6467   6.533   6.819   5.737  0.4969 -0.1425 -0.8032
 1856SOL    HW2 6468   6.580   6.666   5.771 -0.9944 -0.0138  2.1752
 1857SOL     OW 6469   2.103   2.752   4.793  0.3189  0.1899  0.1937
 1857SOL    HW1 6470   2.140   2.695   4.867 -1.5064  1.3751  2.1254
 1857SOL    HW2 6471   2.165   2.828   4.775  1.3832 -0.7892 -0.4158
 1858SOL     OW 6472   2.262   1.525   2.991 -0.4458 -0.0414  0.3995
 1858SOL    HW1 6473   2.174   1.567   2.968 -0.3312  0.9346  1.6943
 1858SOL    HW2 6474   2.246   1.435   3.032 -1.0050  1.1260  2.8736
 1859SOL     OW 6475   0.049   3.916   1.065 -0.6168  0.2591  0.3514
 1859SOL    HW1 6476   0.149   3.912   1.064 -0.6461 -1.2849  0.5086
 1859SOL    HW2 6477   0.019   4.011   1.056  0.8213  0.5642 -3.3190
 1860SOL     OW 6478   2.459   0.883   1.153  0.6751  0.0046  0.2764
 1860SOL    HW1 6479   2.448   0.981   1.169 -2.1230 -0.6336  3.6299
 1860SOL    HW2 6480   2.548   0.853   1.188  1.0118  1.1493  0.4263
 1861SOL     OW 6481   5.973   2.270   1.315 -0.2723  0.2429  0.5924
 1861SOL    HW1 6482   5.875   2.285   1.300 -0.0774  0.3215 -0.7486
 1861SOL    HW2 6483   6.025   2.344   1.273  0.3753  0.1208  1.1582
 1862SOL     OW 6484   1.872   5.624   0.626  0.1478 -0.3714  0.5277
 1862SOL    HW1 6485   1.948   5.578   0.580  0.4828 -0.7966  1.4765
 1862SOL    HW2 6486   1.892   5.722   0.632 -1.4129  0.3302 -3.1909
 1863SOL     OW 6487   2.301   6.074   6.083 -0.0636 -0.1735 -0.1398
 1863SOL    HW1 6488   2.274   6.089   6.178 -0.6377  0.3555 -0.3854
 1863SOL    HW2 6489   2.401   6.081   6.076  0.1252 -1.6005  0.6724
 1864SOL     OW 6490   2.463   6.800   0.398 -0.2829  0.4988 -0.2959
 1864SOL    HW1 6491   2.528   6.836   0.331  0.7833 -1.1945 -0.2394
 1864SOL    HW2 6492   2.406   6.729   0.355  0.1421 -0.3215  0.4614
 1865SOL     OW 6493   1.174   6.655   6.296  0.1018  0.4144 -0.0617
 1865SOL    HW1 6494   1.229   6.731   6.262 -0.0197  1.4714  1.9498
 1865SOL    HW2 6495   1.192   6.642   6.393 -1.3711 -0.8477  0.0784
 1866SOL     OW 6496   1.483   5.620   5.164 -0.1017 -0.0127  0.1730
 1866SOL    HW1 6497   1.448   5.712   5.181 -0.9258 -0.6337  2.0691
 1866SOL    HW2 6498   1.559   5.625   5.099 -1.5248  1.7437 -1.5075
 1867SOL     OW 6499   1.738   4.074   5.870 -0.5828 -0.2938 -0.3142
 1867SOL    HW1 6500   1.772   4.143   5.806 -1.2592 -0.5594 -0.9605
 1867SOL    HW2 6501   1.728   4.116   5.961 -2.2979  0.8703 -0.9809
 1868SOL     OW 6502   6.036   5.573   2.284  0.2819  0.0734 -0.3308
 1868SOL    HW1 6503   5.985   5.652   2.318  1.4184 -0.4677  3.0068
 1868SOL    HW2 6504   5.975   5.494   2.279  0.3462 -0.2462  2.3452
 1869SOL     OW 6505   0.414   0.507   1.832 -0.1090  0.1714 -0.3485
 1869SOL    HW1 6506   0.506   0.523   1.867  0.1867  0.1749 -1.1161
 1869SOL    HW2 6507   0.363   0.450   1.897  0.7771 -0.7110 -0.4028
 1870SOL     OW 6508   0.735   3.236   0.336 -0.4009 -0.6016 -0.4017
 1870SOL    HW1 6509   0.812   3.264   0.279 -0.3771  1.4114  0.5730
 1870SOL    HW2 6510   0.650   3.248   0.285 -0.3156  0.3865 -0.3180
 1871SOL     OW 6511   6.377   2.009   2.827 -0.4785 -0.4500 -1.2714
 1871SOL    HW1 6512   6.387   1.956   2.743  3.3091 -1.3149 -0.4351
 1871SOL    HW2 6513   6.451   2.076   2.834  0.0836 -1.2200  1.9040
 1872SOL     OW 6514   5.463   4.973   5.175 -0.1907 -0.1434  0.3832
 1872SOL    HW1 6515   5.400   4.971   5.097  2.0695  0.4420 -1.5612
 1872SOL    HW2 6516   5.528   4.898   5.168  2.1110  1.7744 -0.1946
 1873SOL     OW 6517   6.944   0.910   3.108 -0.2987  0.4144  0.1084
 1873SOL    HW1 6518   7.043   0.909   3.090 -0.0105 -5.2826  0.4120
 1873SOL    HW2 6519   6.896   0.866   3.032 -2.7246  2.7030  0.1554
 1874SOL     OW 6520   0.580   6.993   6.123 -0.2465  0.1739  0.2021
 1874SOL    HW1 6521   0.662   6.946   6.157 -0.3222  1.2834  2.0065
 1874SOL    HW2 6522   0.602   7.088   6.101 -0.7182  0.0654 -0.8271
 1875SOL     OW 6523   4.163   1.635   6.313  0.3523  0.1673  0.1110
 1875SOL    HW1 6524   4.083   1.649   6.373  0.8201  0.1679  0.7486
 1875SOL    HW2 6525   4.133   1.631   6.218 -0.3832  0.4044  0.3253
 1876SOL     OW 6526   2.173   3.746   2.282  0.4478 -0.1466 -0.8192
 1876SOL    HW1 6527   2.140   3.652   2.284 -0.0310  0.0186 -0.8527
 1876SOL    HW2 6528   2.247   3.754   2.215 -1.0064 -0.0315 -2.4818
 1877SOL     OW 6529   1.293   5.772   5.879  0.4425 -0.0552 -0.0111
 1877SOL    HW1 6530   1.356   5.841   5.844  2.4008 -1.4036  0.6996
 1877SOL    HW2 6531   1.261   5.798   5.970 -1.2843  1.3464 -0.9416
 1878SOL     OW 6532   0.146   0.539   3.926  0.3907  0.1902 -0.5968
 1878SOL    HW1 6533   0.173   0.517   4.020 -0.7026  0.3939 -0.2163
 1878SOL    HW2 6534   0.163   0.460   3.867  0.9106 -0.0030 -0.1925
 1879SOL     OW 6535   0.253   6.322   1.207 -0.1316  0.4871 -0.3732
 1879SOL    HW1 6536   0.214   6.352   1.120  0.6934  0.7149 -0.6738
 1879SOL    HW2 6537   0.351   6.307   1.196  0.0677  0.9570  0.6276
 1880SOL     OW 6538   4.181   3.601   0.867 -0.8585 -0.0117  0.2147
 1880SOL    HW1 6539   4.278   3.584   0.889 -1.3895 -1.1603  1.9082
 1880SOL    HW2 6540   4.158   3.555   0.782  0.4152  1.4940 -0.9914
 1881SOL     OW 6541   0.971   3.892   3.617  0.3908  0.0065 -0.1265
 1881SOL    HW1 6542   1.040   3.935   3.675 -0.6675  0.1370  1.0843
 1881SOL    HW2 6543   0.918   3.963   3.571 -0.1274 -0.0493  0.3847
 1882SOL     OW 6544   6.385   0.680   2.299  0.3248 -0.1586  0.4016
 1882SOL    HW1 6545   6.485   0.674   2.306  0.5142  1.1749 -0.9233
 1882SOL    HW2 6546   6.355   0.772   2.324 -0.5292 -0.3825  0.2264
 1883SOL     OW 6547   1.147   0.885   3.197 -0.3286  0.4607  0.0936
 1883SOL    HW1 6548   1.229   0.900   3.142 -0.2697 -0.1475  0.0075
 1883SOL    HW2 6549   1.165   0.911   3.292 -0.3360  1.2237 -0.1071
 1884SOL     OW 6550   6.607   5.861   1.770 -0.0683 -0.0376 -0.3076
 1884SOL    HW1 6551   6.699   5.823   1.780  0.4778  1.1701 -0.5516
 1884SOL    HW2 6552   6.605   5.922   1.691 -0.9867  0.2212 -0.0943
 1885SOL     OW 6553   6.703   4.394   0.313 -0.3224  0.4103  0.0727
 1885SOL    HW1 6554   6.675   4.437   0.399  0.3798 -0.1132  0.5749
 1885SOL    HW2 6555   6.624   4.388   0.252 -0.8822  0.5939  0.7628
 1886SOL     OW 6556   6.585   3.882   5.784  0.0709 -0.2536 -0.2132
 1886SOL    HW1 6557   6.536   3.811   5.734 -0.7585 -0.4558  0.8689
 1886SOL    HW2 6558   6.533   3.968   5.781  0.0672 -0.2376  0.1963
 1887SOL     OW 6559   3.144   3.889   6.042 -0.3788 -0.1026  0.6123
 1887SOL    HW1 6560   3.074   3.831   6.000  0.1886 -1.1893  1.1196
 1887SOL    HW2 6561   3.205   3.833   6.097  1.5711  0.6297 -0.6662
 1888SOL     OW 6562   4.334   1.935   0.461  0.2026 -0.7835 -0.1466
 1888SOL    HW1 6563   4.433   1.950   0.453 -0.0867  1.4865 -0.0704
 1888SOL    HW2 6564   4.302   1.883   0.382  0.9971  1.1999 -1.8673
 1889SOL     OW 6565   1.380   2.339   0.007  0.1879 -0.2160 -0.0512
 1889SOL    HW1 6566   1.465   2.349  -0.044  0.5919  1.8357  0.9520
 1889SOL    HW2 6567   1.302   2.358  -0.054  0.5749  0.6029 -0.2962
 1890SOL     OW 6568   5.306   0.357   6.053 -0.3622  0.2640  0.1737
 1890SOL    HW1 6569   5.210   0.334   6.033  0.6074 -2.4796 -1.9620
 1890SOL    HW2 6570   5.338   0.300   6.129 -0.0184  0.0234 -0.1485
 1891SOL     OW 6571   4.339   3.613   1.494 -0.7884 -0.5992 -0.0531
 1891SOL    HW1 6572   4.353   3.586   1.398 -1.4426 -1.0651 -0.0259
 1891SOL    HW2 6573   4.325   3.712   1.499 -2.4145 -0.7569 -0.6653
 1892SOL     OW 6574   0.043   1.706   0.916  0.5919  0.5184  0.0147
 1892SOL    HW1 6575  -0.015   1.787   0.924 -0.4093 -0.0201 -1.3384
 1892SOL    HW2 6576   0.107   1.719   0.840  1.6749  0.7447  0.9362
 1893SOL     OW 6577   3.111   5.580   0.211  0.1508 -0.7607  1.0717
 1893SOL    HW1 6578   3.179   5.649   0.185 -0.1987 -0.0877  1.8757
 1893SOL    HW2 6579   3.143   5.490   0.184  0.1614 -0.2025 -0.9339
 1894SOL     OW 6580   1.617   5.123   5.697 -0.4637  0.2374 -0.2802
 1894SOL    HW1 6581   1.564   5.158   5.774  3.2318  1.4270  1.9793
 1894SOL    HW2 6582   1.611   5.023   5.695 -2.0089  0.2844  0.4046
 1895SOL     OW 6583   6.953   0.243   2.475  0.0475 -0.2341 -0.3569
 1895SOL    HW1 6584   6.865   0.283   2.450  0.0426  0.5967  0.8456
 1895SOL    HW2 6585   6.948   0.144   2.469 -1.1036 -0.2187  0.0390
 1896SOL     OW 6586   4.443   1.156   0.006  0.7300  0.5738 -0.1004
 1896SOL    HW1 6587   4.374   1.106   0.058 -0.6129  1.9835 -0.4532
 1896SOL    HW2 6588   4.462   1.107  -0.079  0.4441 -0.0262  0.1742
 1897SOL     OW 6589   5.919   3.870   1.690  0.3664 -1.0047  0.1459
 1897SOL    HW1 6590   5.998   3.930   1.706  1.0925 -1.4424 -1.5437
 1897SOL    HW2 6591   5.948   3.791   1.636 -1.3870 -0.6970 -1.3439
 1898SOL     OW 6592   2.918   3.741   0.187 -0.3395  0.3627 -0.1635
 1898SOL    HW1 6593   2.996   3.681   0.173 -2.4851 -2.5704 -0.6162
 1898SOL    HW2 6594   2.913   3.767   0.283  1.2084  0.6983 -0.1515
 1899SOL     OW 6595   6.708   3.109   4.186  0.2170  0.1453  0.3836
 1899SOL    HW1 6596   6.777   3.065   4.243 -0.8833 -2.5377 -0.1965
 1899SOL    HW2 6597   6.696   3.205   4.214  3.1827  0.3178  1.3213
 1900SOL     OW 6598   5.789   3.331   3.924  0.0205  0.1352  0.0412
 1900SOL    HW1 6599   5.704   3.378   3.901  0.6347  0.8554 -0.8393
 1900SOL    HW2 6600   5.787   3.238   3.888 -1.6202 -0.9380  2.6587
 1901SOL     OW 6601   1.313   2.600   5.933  0.4697  0.2672  0.9607
 1901SOL    HW1 6602   1.256   2.626   5.855  1.0009 -1.4203 -0.0537
 1901SOL    HW2 6603   1.340   2.682   5.984 -0.7461  1.3122 -0.0157
 1902SOL     OW 6604   3.730   5.437   6.564 -0.3173 -0.2227  1.0596
 1902SOL    HW1 6605   3.713   5.340   6.550 -1.1351  0.1653 -1.0578
 1902SOL    HW2 6606   3.667   5.491   6.508  0.0758  1.5479  2.2235
 1903SOL     OW 6607   0.024   2.111   4.824  0.0884  0.3051  0.4464
 1903SOL    HW1 6608   0.015   2.050   4.902  1.0213  2.1152  2.0306
 1903SOL    HW2 6609   0.102   2.082   4.768 -0.9885 -1.3971 -0.2587
 1904SOL     OW 6610   6.768   0.843   1.322  0.0210  0.1466 -0.1442
 1904SOL    HW1 6611   6.829   0.804   1.253  0.3823  1.3418 -0.5267
 1904SOL    HW2 6612   6.785   0.942   1.329 -0.7622  0.2203  0.8921
 1905SOL     OW 6613   1.467   5.638   1.846 -0.5645 -0.5556  0.3534
 1905SOL    HW1 6614   1.387   5.580   1.859  0.1151 -1.1759  2.0479
 1905SOL    HW2 6615   1.546   5.582   1.825 -0.0986 -0.1863  1.0628
 1906SOL     OW 6616   0.255   3.823   5.263  0.1515 -0.2346  0.0229
 1906SOL    HW1 6617   0.299   3.841   5.175 -2.1291  2.1104 -0.7649
 1906SOL    HW2 6618   0.244   3.724   5.274  3.5620 -0.8487 -0.6295
 1907SOL     OW 6619   3.801   4.106   4.041 -0.3783  0.1447  0.5747
 1907SOL    HW1 6620   3.831   4.100   4.137 -1.1678  0.2808  0.8374
 1907SOL    HW2 6621   3.701   4.107   4.037 -0.3736 -1.0320 -0.3362
 1908SOL     OW 6622   6.957   2.770   1.202 -0.2591 -0.5793 -0.3247
 1908SOL    HW1 6623   7.037   2.774   1.142 -0.3746 -1.2985 -0.5397
 1908SOL    HW2 6624   6.959   2.846   1.267  2.1719 -2.1951  1.6495
 1909SOL     OW 6625   4.306   6.778   2.736  0.1626 -0.1816  0.0767
 1909SOL    HW1 6626   4.303   6.840   2.657 -0.5582  0.8875  0.9191
 1909SOL    HW2 6627   4.362   6.698   2.713 -1.0786 -0.5453 -1.9654
 1910SOL     OW 6628   5.628   5.796   0.451  0.0009 -0.8038 -0.2661
 1910SOL    HW1 6629   5.644   5.733   0.527  5.1118 -0.3069 -0.5726
 1910SOL    HW2 6630   5.638   5.890   0.482 -0.5295 -0.4435 -1.1232
 1911SOL     OW 6631   2.195   2.028   3.993  0.4018  0.0287  0.2349
 1911SOL    HW1 6632   2.207   2.089   3.914  0.7236 -0.3075  0.0234
 1911SOL    HW2 6633   2.151   2.079   4.067 -1.0075  0.0395 -0.5687
 1912SOL     OW 6634   2.272   4.677   3.887 -0.1115 -0.1411 -0.0861
 1912SOL    HW1 6635   2.241   4.746   3.951  1.6333  1.3106 -0.7249
 1912SOL    HW2 6636   2.360   4.639   3.918  0.1646 -0.2798 -0.9905
 1913SOL     OW 6637   3.413   3.186   5.133 -0.1515  0.5236  0.6296
 1913SOL    HW1 6638   3.503   3.228   5.123 -0.4411  0.8767 -0.6593
 1913SOL    HW2 6639   3.423   3.087   5.144  0.3579  0.3150 -1.3082
 1914SOL     OW 6640   0.418   5.048   5.035 -0.5161 -0.4872  0.8436
 1914SOL    HW1 6641   0.430   5.147   5.034 -0.1624 -0.5290 -0.3974
 1914SOL    HW2 6642   0.321   5.027   5.048 -0.5973  0.0087  1.0770
 1915SOL     OW 6643   6.553   5.554   3.391  0.1750 -0.0029  0.1621
 1915SOL    HW1 6644   6.628   5.526   3.332  1.0375 -0.2414  1.3418
 1915SOL    HW2 6645   6.469   5.508   3.362  0.3970  0.4951 -1.3538
 1916SOL     OW 6646   5.426   5.332   4.039 -0.2325 -0.4389 -0.1630
 1916SOL    HW1 6647   5.425   5.294   4.131 -0.7263 -0.9445 -0.3648
 1916SOL    HW2 6648   5.394   5.263   3.974  0.4789 -0.2210 -0.7684
 1917SOL     OW 6649   3.339   4.640   1.691  0.5770 -0.6481  0.0256
 1917SOL    HW1 6650   3.320   4.545   1.667  3.0270 -0.6692 -2.4050
 1917SOL    HW2 6651   3.422   4.645   1.746  0.0541  0.0634  0.7735
 1918SOL     OW 6652   0.534   2.307   3.908  0.1288  0.0338 -0.1205
 1918SOL    HW1 6653   0.437   2.283   3.914  0.2151 -1.1410 -2.4456
 1918SOL    HW2 6654   0.544   2.392   3.858  0.3051  0.1801  0.1613
 1919SOL     OW 6655   2.631   1.647   5.149  0.5172  0.1382 -0.8907
 1919SOL    HW1 6656   2.591   1.721   5.096  1.8923  2.2752  0.8685
 1919SOL    HW2 6657   2.587   1.643   5.239 -0.2434 -1.9327 -1.2975
 1920SOL     OW 6658   4.535   6.814   5.721  0.0676  0.1249  0.7210
 1920SOL    HW1 6659   4.605   6.879   5.749 -0.8222  1.2483  0.4101
 1920SOL    HW2 6660   4.564   6.721   5.745  1.1179  0.6746  1.6587
 1921SOL     OW 6661   2.179   3.917   6.362  0.1131  0.2065 -0.1294
 1921SOL    HW1 6662   2.275   3.898   6.382  0.0763 -1.5279 -1.3572
 1921SOL    HW2 6663   2.148   3.996   6.415  1.2363 -1.3009  2.9706
 1922SOL     OW 6664   4.536   0.962   4.803  0.1941 -0.2078  0.2569
 1922SOL    HW1 6665   4.565   0.958   4.899  2.4191 -0.2706 -0.3644
 1922SOL    HW2 6666   4.529   0.869   4.767 -0.4786 -0.1773  0.2956
 1923SOL     OW 6667   0.801   5.069   6.264 -0.4883  0.0018 -0.5421
 1923SOL    HW1 6668   0.849   4.999   6.317 -1.3061  0.6699  1.1535
 1923SOL    HW2 6669   0.757   5.134   6.326  1.3042  2.8279 -1.9964
 1924SOL     OW 6670   2.450   6.439   6.649 -0.0239 -0.4067  0.2469
 1924SOL    HW1 6671   2.368   6.432   6.706  1.1266  2.5240  2.4964
 1924SOL    HW2 6672   2.522   6.380   6.688  0.2360  0.2936  0.8392
 1925SOL     OW 6673   1.050   2.595   2.324 -0.4336  0.3071 -0.7640
 1925SOL    HW1 6674   1.015   2.666   2.385  1.9112  0.9631 -0.0709
 1925SOL    HW2 6675   1.104   2.530   2.376 -2.4332 -2.0011 -1.4217
 1926SOL     OW 6676   5.190   3.967   3.772 -0.1209  0.2083 -0.4106
 1926SOL    HW1 6677   5.126   4.035   3.808 -0.9837  0.1235 -1.6790
 1926SOL    HW2 6678   5.281   3.982   3.810 -0.7492  0.7544  0.9351
 1927SOL     OW 6679   3.630   3.474   2.154 -0.0560 -0.3133 -0.1709
 1927SOL    HW1 6680   3.658   3.566   2.126  2.5966 -0.4623  1.5947
 1927SOL    HW2 6681   3.577   3.480   2.239 -0.6326 -0.3814 -0.5216
 1928SOL     OW 6682   7.000   2.009   0.377  0.0870  0.8557  0.0067
 1928SOL    HW1 6683   6.940   1.966   0.309  0.0060  1.5958 -0.3959
 1928SOL    HW2 6684   6.973   1.979   0.469 -2.7171  3.2580  0.1061
 1929SOL     OW 6685   0.332   5.092   2.775 -0.6577  0.2038 -0.3471
 1929SOL    HW1 6686   0.266   5.152   2.820  2.1034  2.5830  0.7908
 1929SOL    HW2 6687   0.329   5.108   2.676 -2.3757 -0.4342 -0.4327
 1930SOL     OW 6688   5.831   1.976   6.523 -0.1263  0.1212 -0.6554
 1930SOL    HW1 6689   5.778   2.009   6.445 -0.9544  2.1374  0.6812
 1930SOL    HW2 6690   5.926   2.007   6.514 -0.3015  0.6530 -0.6922
 1931SOL     OW 6691   5.370   6.842   2.461  0.1082 -0.1141 -0.2535
 1931SOL    HW1 6692   5.447   6.856   2.523  0.4979  0.0532 -0.7656
 1931SOL    HW2 6693   5.396   6.871   2.369 -0.6977  0.3094 -0.3541
 1932SOL     OW 6694   3.080   0.319   3.149 -0.2588 -0.3282 -0.1495
 1932SOL    HW1 6695   3.017   0.314   3.071  1.1621 -1.5112 -1.2622
 1932SOL    HW2 6696   3.105   0.227   3.178  1.0502  0.1174  0.1947
 1933SOL     OW 6697   4.517   6.558   0.294  0.0722  0.1379  0.4441
 1933SOL    HW1 6698   4.492   6.622   0.221  1.6927  0.6990  0.3405
 1933SOL    HW2 6699   4.570   6.483   0.256 -0.0290 -0.1664  0.8935
 1934SOL     OW 6700   6.160   3.807   2.438  0.6115 -0.5246 -0.4475
 1934SOL    HW1 6701   6.178   3.871   2.363  2.5283 -0.9475 -0.3986
 1934SOL    HW2 6702   6.074   3.759   2.421 -0.9079  2.0081 -0.4907
 1935SOL     OW 6703   6.098   4.926   0.733  0.0512  0.3455 -0.8406
 1935SOL    HW1 6704   6.005   4.918   0.696 -0.3738  1.8558 -0.1680
 1935SOL    HW2 6705   6.162   4.948   0.659 -0.1493 -0.4432 -1.2639
 1936SOL     OW 6706   1.823   6.170   4.581 -0.0236 -0.0117  0.5005
 1936SOL    HW1 6707   1.786   6.161   4.489 -1.4937  0.6611  0.9912
 1936SOL    HW2 6708   1.923   6.172   4.577 -0.0570 -0.2656 -1.0367
 1937SOL     OW 6709   1.118   2.807   3.520  0.0049 -0.2960  0.7020
 1937SOL    HW1 6710   1.166   2.894   3.514  0.4788 -0.4462  1.9715
 1937SOL    HW2 6711   1.061   2.794   3.439 -0.8483  1.6395  0.9441
 1938SOL     OW 6712   2.213   4.336   1.535 -0.2469 -0.1428 -0.8112
 1938SOL    HW1 6713   2.188   4.278   1.457  0.2944 -0.9179 -0.4207
 1938SOL    HW2 6714   2.230   4.279   1.615  0.8556  0.5015 -0.5640
 1939SOL     OW 6715   5.455   1.203   0.975  0.5317  0.0097 -0.3740
 1939SOL    HW1 6716   5.416   1.197   1.066  1.1533 -1.0570 -0.1672
 1939SOL    HW2 6717   5.418   1.131   0.917 -1.8454  2.1889 -1.7875
 1940SOL     OW 6718   0.210   2.605   1.269 -0.1921  0.2537 -0.4004
 1940SOL    HW1 6719   0.116   2.608   1.304 -1.1653 -2.8613 -2.3342
 1940SOL    HW2 6720   0.222   2.678   1.202 -1.3979  0.4182 -0.4683
 1941SOL     OW 6721   1.808   1.563   1.471 -0.2971 -0.4117 -0.2469
 1941SOL    HW1 6722   1.772   1.606   1.388  1.5961  1.4501 -0.2008
 1941SOL    HW2 6723   1.779   1.468   1.475 -1.3853 -0.2358 -2.4348
 1942SOL     OW 6724   5.669   6.261   2.138 -0.0622  0.1510 -0.5729
 1942SOL    HW1 6725   5.699   6.183   2.083  0.3421 -0.2744  0.2294
 1942SOL    HW2 6726   5.648   6.229   2.231  0.4849  1.0711 -0.1257
 1943SOL     OW 6727   2.802   5.019   5.648 -0.5920 -0.3196 -0.2964
 1943SOL    HW1 6728   2.770   4.939   5.599 -0.0341 -0.8287  0.1558
 1943SOL    HW2 6729   2.867   4.992   5.719 -2.1627  0.2702  1.4481
 1944SOL     OW 6730   4.422   0.910   1.944  0.3834 -0.2715 -0.4369
 1944SOL    HW1 6731   4.396   0.843   2.014  1.8786 -0.4046  0.0162
 1944SOL    HW2 6732   4.339   0.949   1.903 -0.5381 -2.3727 -0.7083
 1945SOL     OW 6733   3.515   5.538   1.444 -0.5898  0.4342 -0.1246
 1945SOL    HW1 6734   3.507   5.626   1.397 -1.0423  1.0323  1.0210
 1945SOL    HW2 6735   3.601   5.494   1.419 -0.3645  1.2036 -0.7228
 1946SOL     OW 6736   6.104   2.204   2.452  0.1512  0.7416  0.1647
 1946SOL    HW1 6737   6.006   2.206   2.435  0.1504  1.7498  0.2484
 1946SOL    HW2 6738   6.146   2.288   2.417  0.8473  0.7253  0.9300
 1947SOL     OW 6739   5.615   5.802   0.773 -0.1220 -0.3957  0.0815
 1947SOL    HW1 6740   5.648   5.726   0.716 -0.5504 -1.2324  0.9065
 1947SOL    HW2 6741   5.682   5.876   0.772  0.7833 -1.1924  0.0458
 1948SOL     OW 6742   3.326   3.042   2.401  0.3185  0.4039  0.5168
 1948SOL    HW1 6743   3.397   2.974   2.380  1.4004  0.9009  2.3342
 1948SOL    HW2 6744   3.366   3.134   2.399 -1.2211  1.1410 -2.3560
 1949SOL     OW 6745   1.598   3.045   5.039  0.1040  0.7080  0.0129
 1949SOL    HW1 6746   1.539   3.106   5.092 -0.7229  0.7660 -0.9215
 1949SOL    HW2 6747   1.652   3.099   4.975 -1.0222  0.4638 -1.1935
 1950SOL     OW 6748   6.587   0.650   4.096 -0.0804  0.0563 -0.3729
 1950SOL    HW1 6749   6.638   0.708   4.160 -1.1457  1.0675 -0.4132
 1950SOL    HW2 6750   6.630   0.560   4.092  0.6503  0.3138  0.9369
 1951SOL     OW 6751   4.963   3.587   1.558  0.4530 -0.0107  0.0884
 1951SOL    HW1 6752   4.917   3.516   1.612  1.3186 -1.3600 -0.9013
 1951SOL    HW2 6753   4.934   3.677   1.591 -0.9816 -0.8007  1.1091
 1952SOL     OW 6754   4.178   3.350   6.455 -0.3624  0.7012  0.6084
 1952SOL    HW1 6755   4.094   3.317   6.498 -0.8931  3.1172  1.5343
 1952SOL    HW2 6756   4.256   3.302   6.495 -0.9768  1.5960  3.0250
 1953SOL     OW 6757   0.534   1.854   6.839  0.3489 -0.7245 -0.1983
 1953SOL    HW1 6758   0.614   1.909   6.860 -0.6193  0.7917 -0.3455
 1953SOL    HW2 6759   0.560   1.757   6.836  2.7354 -0.1497 -2.8168
 1954SOL     OW 6760   6.067   0.862   5.160 -0.1865  0.1714  0.5368
 1954SOL    HW1 6761   6.104   0.800   5.230  0.7650  0.9233  0.7168
 1954SOL    HW2 6762   5.968   0.853   5.157 -0.2598  0.2242  2.0992
 1955SOL     OW 6763   6.162   5.018   6.176 -0.3948  0.1240  0.2552
 1955SOL    HW1 6764   6.202   5.100   6.135  0.3650  0.4436  1.5627
 1955SOL    HW2 6765   6.080   4.992   6.126  0.3680  0.6072 -1.2995
 1956SOL     OW 6766   1.479   0.892   4.338  0.2390  0.6665  0.6030
 1956SOL    HW1 6767   1.454   0.985   4.309 -1.1067  0.2241  0.2983
 1956SOL    HW2 6768   1.411   0.858   4.403  1.4589  0.3841  1.7933
 1957SOL     OW 6769   2.069   4.057   3.073  0.0456  0.0260  0.4433
 1957SOL    HW1 6770   2.119   4.015   3.149 -0.7792 -0.2085  0.8682
 1957SOL    HW2 6771   2.133   4.085   3.003  0.7605 -0.4482  0.8928
 1958SOL     OW 6772   2.573   0.372   0.839  0.0150  0.7763 -0.5052
 1958SOL    HW1 6773   2.648   0.334   0.893 -0.3055  1.5549  0.5255
 1958SOL    HW2 6774   2.603   0.384   0.744 -0.1129 -2.7776 -1.1513
 1959SOL     OW 6775   0.655   5.278   5.982  0.2450  0.3335  0.2906
 1959SOL    HW1 6776   0.570   5.329   5.984  0.4216  0.6585  2.7130
 1959SOL    HW2 6777   0.663   5.222   6.065  1.7233 -0.8365 -0.5732
 1960SOL     OW 6778   4.837   3.936   2.565  0.2965  0.0332  0.2063
 1960SOL    HW1 6779   4.846   3.838   2.582 -0.5801 -0.2796 -0.9408
 1960SOL    HW2 6780   4.815   3.984   2.650 -0.0459 -0.8830  0.6400
 1961SOL     OW 6781   4.568   3.887   1.379  0.0316 -0.6045 -0.2248
 1961SOL    HW1 6782   4.641   3.824   1.409  1.3190  0.4405 -1.0627
 1961SOL    HW2 6783   4.609   3.969   1.339 -1.5953  1.0158  1.2451
 1962SOL     OW 6784   6.560   3.448   0.120 -0.2606  0.3146  0.0954
 1962SOL    HW1 6785   6.522   3.365   0.080 -1.5678  2.1184 -2.7537
 1962SOL    HW2 6786   6.648   3.428   0.163 -1.0082 -2.6664  0.4019
 1963SOL     OW 6787   4.538   4.508   5.483 -0.3168 -0.2622 -0.1430
 1963SOL    HW1 6788   4.521   4.410   5.482 -1.2260 -0.1452  1.3356
 1963SOL    HW2 6789   4.629   4.526   5.445 -0.7998 -1.4900 -2.0327
 1964SOL     OW 6790   1.761   1.678   6.367 -0.4422 -0.4107 -0.0946
 1964SOL    HW1 6791   1.765   1.603   6.300  1.0473 -1.6468  1.2827
 1964SOL    HW2 6792   1.766   1.640   6.459 -2.2146  1.2643  0.7674
 1965SOL     OW 6793   5.218   6.023   4.194  0.2862  0.4275  0.8653
 1965SOL    HW1 6794   5.294   6.079   4.226  0.2451  1.4849 -0.7446
 1965SOL    HW2 6795   5.170   5.984   4.272  1.5523  0.9692  1.9644
 1966SOL     OW 6796   3.992   6.031   4.481 -0.4232  0.4012 -0.8188
 1966SOL    HW1 6797   4.077   5.993   4.444  1.2316  1.3478  1.7387
 1966SOL    HW2 6798   4.002   6.129   4.493 -1.5990  0.4114  0.2455
 1967SOL     OW 6799   6.602   2.485   0.422 -0.0633  0.3911 -0.2473
 1967SOL    HW1 6800   6.695   2.455   0.404 -0.6080 -0.9581 -0.9704
 1967SOL    HW2 6801   6.588   2.493   0.521  1.0493  1.4322 -0.1607
 1968SOL     OW 6802   5.223   6.261   4.346  0.0262 -0.0614 -0.0644
 1968SOL    HW1 6803   5.140   6.223   4.306 -0.2259  0.5038 -0.0905
 1968SOL    HW2 6804   5.201   6.304   4.434  0.1503  0.7188 -0.4017
 1969SOL     OW 6805   5.821   0.095   6.629 -0.8254 -0.0624 -0.0778
 1969SOL    HW1 6806   5.850   0.134   6.542  0.3398  3.2974  1.6524
 1969SOL    HW2 6807   5.898   0.046   6.670 -0.5383  0.6579  0.2487
 1970SOL     OW 6808   3.857   5.390   2.734 -0.2034  0.3283 -0.7721
 1970SOL    HW1 6809   3.844   5.464   2.668 -2.0548 -0.1630 -1.0045
 1970SOL    HW2 6810   3.934   5.333   2.706 -0.4503  0.5993 -2.0514
 1971SOL     OW 6811   0.312   3.259   3.880  0.5283 -0.1004  0.0211
 1971SOL    HW1 6812   0.319   3.280   3.782 -0.0884  0.3084  0.0569
 1971SOL    HW2 6813   0.327   3.161   3.894 -0.8991 -0.4457 -0.6745
 1972SOL     OW 6814   0.150   1.453   1.218  0.6307  0.0167 -0.4888
 1972SOL    HW1 6815   0.052   1.457   1.194  0.6962 -1.1444 -1.0078
 1972SOL    HW2 6816   0.161   1.401   1.302  0.7210  1.1169  0.2012
 1973SOL     OW 6817   6.793   6.265   3.639 -0.3850  0.9715  0.2575
 1973SOL    HW1 6818   6.815   6.175   3.676  0.7600  0.6178 -1.1822
 1973SOL    HW2 6819   6.844   6.335   3.689  0.0706  0.6428  0.2583
 1974SOL     OW 6820   2.945   2.195   4.411 -0.2170 -0.1066 -0.1379
 1974SOL    HW1 6821   2.986   2.238   4.330  1.8293 -2.0463 -0.2128
 1974SOL    HW2 6822   2.920   2.266   4.477  2.4793  1.2943 -0.4919
 1975SOL     OW 6823   0.119   5.406   1.951  0.1146 -0.5006 -0.1836
 1975SOL    HW1 6824   0.035   5.371   1.991  1.7728 -2.0826  2.1716
 1975SOL    HW2 6825   0.182   5.330   1.933  0.9603  0.5870 -2.2585
 1976SOL     OW 6826   1.677   1.247   1.763  0.3162  0.3655 -0.0864
 1976SOL    HW1 6827   1.719   1.308   1.696 -1.6378 -0.0020 -1.7618
 1976SOL    HW2 6828   1.725   1.159   1.763  0.1762  0.2696 -1.2571
 1977SOL     OW 6829   1.003   0.834   5.806  0.5403 -0.5263 -0.1313
 1977SOL    HW1 6830   1.031   0.822   5.711  0.0147 -0.1960 -0.3315
 1977SOL    HW2 6831   0.951   0.919   5.816 -2.5355 -2.2103 -0.3038
 1978SOL     OW 6832   1.496   4.418   4.682  0.3150 -0.2522 -0.1700
 1978SOL    HW1 6833   1.549   4.391   4.602 -0.0912  2.9863 -1.7167
 1978SOL    HW2 6834   1.535   4.502   4.721 -2.1681  0.8794  0.1072
 1979SOL     OW 6835   6.086   4.837   4.237 -0.5879  0.4986 -0.1655
 1979SOL    HW1 6836   6.137   4.921   4.253  1.7116 -0.7642 -0.4195
 1979SOL    HW2 6837   6.011   4.855   4.172  0.2873  2.1868 -0.7582
 1980SOL     OW 6838   1.325   5.114   2.465  0.2800 -0.0539 -0.3079
 1980SOL    HW1 6839   1.400   5.144   2.405 -0.4719 -0.0147 -1.2408
 1980SOL    HW2 6840   1.311   5.016   2.454 -0.6062  0.1395 -1.0791
 1981SOL     OW 6841   1.871   4.758   2.562  0.1919  0.0418  0.5468
 1981SOL    HW1 6842   1.922   4.806   2.633  0.4331 -0.6844  0.8753
 1981SOL    HW2 6843   1.861   4.662   2.587  0.4635 -0.2795 -0.4854
 1982SOL     OW 6844   2.240   3.930   0.142  0.6173 -0.3131 -0.0113
 1982SOL    HW1 6845   2.332   3.969   0.141  0.2546  0.5982  0.4486
 1982SOL    HW2 6846   2.244   3.836   0.174  1.7228 -1.2556 -2.7161
 1983SOL     OW 6847   5.000   6.833   6.413  0.3201  0.0886 -0.1722
 1983SOL    HW1 6848   4.947   6.910   6.450  0.8379  0.5740 -0.4327
 1983SOL    HW2 6849   5.070   6.806   6.480 -0.1892 -0.4981  0.1365
 1984SOL     OW 6850   2.985   4.854   0.325 -0.9093  0.3854  0.2541
 1984SOL    HW1 6851   3.022   4.946   0.311 -0.6425  0.3046  0.4344
 1984SOL    HW2 6852   3.053   4.797   0.371 -1.0907  0.1097  0.1827
 1985SOL     OW 6853   1.448   6.564   3.213  0.1278  1.1316 -0.3063
 1985SOL    HW1 6854   1.500   6.648   3.203 -0.4718  1.6138  0.4795
 1985SOL    HW2 6855   1.511   6.487   3.227  0.6634  1.5024 -0.6673
 1986SOL     OW 6856   5.938   0.916   4.298  0.2424  0.1831  0.0168
 1986SOL    HW1 6857   5.939   0.962   4.209  0.7785  0.4341  0.1469
 1986SOL    HW2 6858   5.910   0.821   4.286 -1.0629  0.5847 -0.2314
 1987SOL     OW 6859   6.670   1.128   4.686  0.2533 -0.1661 -0.7418
 1987SOL    HW1 6860   6.712   1.181   4.760 -0.1307  0.1078 -0.7141
 1987SOL    HW2 6861   6.684   1.175   4.599  2.1081 -1.2899 -1.0959
 1988SOL     OW 6862   6.999   2.290   5.736  0.5866 -0.1075 -0.5593
 1988SOL    HW1 6863   7.036   2.208   5.780 -1.7744  1.0187  4.1858
 1988SOL    HW2 6864   7.037   2.372   5.780  0.5777  1.3386 -3.0642
 1989SOL     OW 6865   1.242   5.804   0.794 -0.8089  0.7446  0.1138
 1989SOL    HW1 6866   1.331   5.820   0.752 -0.5561 -0.1985  0.2568
 1989SOL    HW2 6867   1.170   5.817   0.727 -0.5963  1.9316  0.1056
 1990SOL     OW 6868   5.017   4.934   1.850 -0.3277  0.2895 -0.4827
 1990SOL    HW1 6869   4.939   4.968   1.798 -0.4512  2.8496  1.1897
 1990SOL    HW2 6870   5.100   4.947   1.796 -0.6750  0.9819 -0.8731
 1991SOL     OW 6871   4.859   3.728   3.534 -0.3510  0.0903  0.0673
 1991SOL    HW1 6872   4.866   3.804   3.471  0.7359  0.5134  0.6821
 1991SOL    HW2 6873   4.841   3.644   3.483  1.5016  0.2494 -0.9339
 1992SOL     OW 6874   5.050   2.333   3.552 -0.4999  0.5681  0.5749
 1992SOL    HW1 6875   5.097   2.289   3.628  1.2352  0.2842 -0.6142
 1992SOL    HW2 6876   5.115   2.385   3.498 -1.7338  0.9363 -0.6243
 1993SOL     OW 6877   4.662   4.766   6.823  0.0371 -0.2143  0.4672
 1993SOL    HW1 6878   4.727   4.832   6.786 -0.1798 -0.2254  0.0587
 1993SOL    HW2 6879   4.690   4.739   6.915  0.8916 -0.6003  0.1033
 1994SOL     OW 6880   5.570   5.130   4.548 -0.0449 -0.1377 -0.3806
 1994SOL    HW1 6881   5.505   5.147   4.623  0.4565 -0.0634  0.0462
 1994SOL    HW2 6882   5.549   5.043   4.504 -0.3434 -0.1847 -0.1440
 1995SOL     OW 6883   6.089   3.412   5.146 -0.2822  0.3412  0.0646
 1995SOL    HW1 6884   6.084   3.453   5.055 -0.0937  0.0899 -0.0589
 1995SOL    HW2 6885   6.010   3.353   5.160  1.4671 -2.5874 -1.3839
 1996SOL     OW 6886   2.381   3.953   1.617  0.0637 -0.4097  0.1092
 1996SOL    HW1 6887   2.464   3.993   1.657  0.3223 -1.3683  0.5512
 1996SOL    HW2 6888   2.385   3.961   1.517 -0.5011  1.8400  0.2095
 1997SOL     OW 6889   6.540   3.743   2.190 -0.2020 -0.1089 -0.0694
 1997SOL    HW1 6890   6.443   3.733   2.167 -0.1635  0.1870 -0.3601
 1997SOL    HW2 6891   6.572   3.659   2.234  0.3665 -1.7852 -3.3340
 1998SOL     OW 6892   6.552   5.706   5.624  0.1838  0.8197  0.5396
 1998SOL    HW1 6893   6.580   5.692   5.719  0.8735  1.7121  0.4839
 1998SOL    HW2 6894   6.512   5.798   5.615 -0.8732  0.3435  0.1751
 1999SOL     OW 6895   5.236   5.086   6.447  0.3419  0.1464 -0.2479
 1999SOL    HW1 6896   5.301   5.118   6.516  0.5133  0.4186 -0.5275
 1999SOL    HW2 6897   5.225   5.157   6.377 -0.1117  0.0219 -0.3051
 2000SOL     OW 6898   5.658   2.370   6.884  0.5330 -0.3155  0.0987
 2000SOL    HW1 6899   5.693   2.296   6.827 -1.0953 -0.8419 -0.2905
 2000SOL    HW2 6900   5.639   2.335   6.976  1.0885 -0.0192  0.3286
 2001SOL     OW 6901   6.148   1.343   0.489  0.2810  0.0595  0.2345
 2001SOL    HW1 6902   6.243   1.370   0.501  1.5394 -3.2417 -1.2684
 2001SOL    HW2 6903   6.126   1.340   0.391 -2.1424  2.8006  0.5329
 2002SOL     OW 6904   5.177   1.689   5.001 -0.1012 -0.5952  0.0600
 2002SOL    HW1 6905   5.255   1.686   5.064  0.7341  0.9936 -0.8232
 2002SOL    HW2 6906   5.096   1.653   5.046  0.2728  1.1989  2.3248
 2003SOL     OW 6907   3.611   3.551   4.747  0.0661 -0.5109  0.1564
 2003SOL    HW1 6908   3.641   3.629   4.693 -1.2085  0.2280  0.4495
 2003SOL    HW2 6909   3.669   3.473   4.729 -0.1048 -0.1943 -2.0241
 2004SOL     OW 6910   6.853   3.607   0.072  0.0554 -0.5880  0.5121
 2004SOL    HW1 6911   6.791   3.584  -0.004  0.0777 -0.7326  0.5380
 2004SOL    HW2 6912   6.872   3.525   0.125 -1.0181 -0.2481  1.4667
 2005SOL     OW 6913   2.438   3.770   6.364 -0.4015  0.1211  0.2931
 2005SOL    HW1 6914   2.423   3.673   6.349  0.8483  0.1111 -1.1956
 2005SOL    HW2 6915   2.445   3.817   6.276 -0.2513  1.4461  0.9766
 2006SOL     OW 6916   1.137   2.194   5.376 -0.2285 -0.6833  0.4323
 2006SOL    HW1 6917   1.042   2.194   5.407 -0.0725  0.5176  0.9474
 2006SOL    HW2 6918   1.196   2.232   5.448  0.6270 -1.2656  0.0611
 2007SOL     OW 6919   3.038   6.401   1.849 -0.3183 -0.1435  0.0716
 2007SOL    HW1 6920   3.122   6.431   1.895  0.7789 -0.0186 -1.9027
 2007SOL    HW2 6921   2.999   6.324   1.899  1.0613 -0.3204  0.9429
 2008SOL     OW 6922   4.903   0.276   4.059  0.2330 -0.3824 -0.3735
 2008SOL    HW1 6923   4.898   0.270   3.959  1.4485  0.0360 -0.4778
 2008SOL    HW2 6924   4.971   0.211   4.092  0.8891  0.4941  0.0400
 2009SOL     OW 6925   0.185   1.425   5.457  0.0144 -0.5225 -0.4566
 2009SOL    HW1 6926   0.201   1.522   5.437  1.0326 -1.0752 -2.6369
 2009SOL    HW2 6927   0.262   1.389   5.509  1.4715 -0.9201 -2.7184
 2010SOL     OW 6928   6.369   6.368   2.594  0.5743  0.6250  0.2471
 2010SOL    HW1 6929   6.399   6.292   2.536  0.9874  1.1017 -0.1732
 2010SOL    HW2 6930   6.305   6.426   2.544  0.0671  0.4293  0.6502
 2011SOL     OW 6931   4.527   2.452   5.982 -0.3851 -0.0205  0.3258
 2011SOL    HW1 6932   4.538   2.361   6.023  0.1381 -1.3979 -2.6323
 2011SOL    HW2 6933   4.466   2.446   5.904  1.7265  1.5738 -1.5727
 2012SOL     OW 6934   2.887   0.177   2.351 -1.0890 -0.0018  0.1933
 2012SOL    HW1 6935   2.916   0.179   2.446 -1.8159  1.8410  0.4269
 2012SOL    HW2 6936   2.790   0.202   2.346 -1.1380 -0.3883 -1.0028
 2013SOL     OW 6937   5.352   6.607   5.842  0.7531 -0.3673 -0.0068
 2013SOL    HW1 6938   5.432   6.566   5.798  1.2545  2.0771 -1.5580
 2013SOL    HW2 6939   5.311   6.674   5.780 -1.2707 -0.0636  1.5701
 2014SOL     OW 6940   6.595   1.160   1.874  0.5787  0.5756 -0.8288
 2014SOL    HW1 6941   6.652   1.203   1.944 -0.0649 -2.0149  1.4477
 2014SOL    HW2 6942   6.644   1.084   1.831  0.8607  1.9424 -3.1271
 2015SOL     OW 6943   2.756   1.435   0.726 -0.4806 -0.0270  0.0686
 2015SOL    HW1 6944   2.810   1.376   0.786 -0.3103 -0.1855 -0.2383
 2015SOL    HW2 6945   2.741   1.524   0.771  1.3914  0.6108 -0.4657
 2016SOL     OW 6946   2.333   2.566   2.562  0.1883 -0.4802 -0.5415
 2016SOL    HW1 6947   2.358   2.575   2.658  0.3342  0.9268 -0.6897
 2016SOL    HW2 6948   2.379   2.485   2.523  0.0408 -1.1192  0.5776
 2017SOL     OW 6949   2.880   6.871   2.601 -0.3398 -0.0890 -0.7591
 2017SOL    HW1 6950   2.843   6.850   2.511 -0.5366  0.4606 -0.8150
 2017SOL    HW2 6951   2.819   6.936   2.647  1.4114  2.2785 -1.5637
 2018SOL     OW 6952   0.159   5.338   1.548 -0.0184 -0.2314 -0.2885
 2018SOL    HW1 6953   0.245   5.308   1.507  0.4736 -0.3902  0.8115
 2018SOL    HW2 6954   0.092   5.265   1.544  0.4883 -0.7508  0.4643
 2019SOL     OW 6955   1.180   0.846   6.702  0.2321 -0.2580 -0.2088
 2019SOL    HW1 6956   1.217   0.775   6.762  1.4522 -1.1415 -1.9269
 2019SOL    HW2 6957   1.254   0.905   6.670 -0.5323  0.7684 -0.1314
 2020SOL     OW 6958   1.107   5.230   3.074  0.0797  0.0015  1.1027
 2020SOL    HW1 6959   1.138   5.136   3.060 -0.8132 -0.3202  1.1677
 2020SOL    HW2 6960   1.008   5.234   3.057  0.6473  1.7469 -3.0748
 2021SOL     OW 6961   6.223   4.653   0.424 -0.4680 -0.0141 -0.1535
 2021SOL    HW1 6962   6.179   4.743   0.415 -0.2231  0.0878 -0.3765
 2021SOL    HW2 6963   6.306   4.652   0.367  1.0710  0.5752  1.9607
 2022SOL     OW 6964   1.444   1.022   4.754 -0.2967 -0.2092  0.1447
 2022SOL    HW1 6965   1.365   1.068   4.713  0.3023  1.6098  0.9478
 2022SOL    HW2 6966   1.528   1.060   4.715  0.2334 -0.0675  1.3775
 2023SOL     OW 6967   2.347   2.730   5.088 -0.1469  0.1286 -0.0963
 2023SOL    HW1 6968   2.371   2.827   5.087  0.8939 -0.0272  2.8144
 2023SOL    HW2 6969   2.287   2.711   5.165 -0.0190 -1.6241 -0.3922
 2024SOL     OW 6970   1.304   6.560   0.749  0.4567  0.2230 -0.3672
 2024SOL    HW1 6971   1.353   6.648   0.756  1.5052 -0.3166 -0.6559
 2024SOL    HW2 6972   1.216   6.568   0.796  1.3396  0.8712  1.3112
 2025SOL     OW 6973   2.480   3.067   6.947  0.5380  0.5888 -0.2104
 2025SOL    HW1 6974   2.522   3.055   6.857  1.6765  1.7831  0.1389
 2025SOL    HW2 6975   2.413   3.141   6.943  0.4228  0.4917 -0.1165
 2026SOL     OW 6976   6.474   4.634   5.605 -0.3552  0.4568 -0.3117
 2026SOL    HW1 6977   6.514   4.570   5.539 -0.5969 -0.6314  0.5637
 2026SOL    HW2 6978   6.377   4.614   5.615  0.2594 -1.6452  2.7607
 2027SOL     OW 6979   5.950   0.609   0.876 -0.0288  0.4746  0.0708
 2027SOL    HW1 6980   5.999   0.576   0.795 -1.5127 -0.0072 -0.6840
 2027SOL    HW2 6981   5.910   0.698   0.856 -1.4626 -0.1989 -0.2237
 2028SOL     OW 6982   6.197   0.603   5.601 -0.3995 -0.2638 -0.7492
 2028SOL    HW1 6983   6.206   0.662   5.682 -0.0547  0.7828 -1.5372
 2028SOL    HW2 6984   6.270   0.535   5.601 -0.6129 -0.5019  0.0046
 2029SOL     OW 6985   1.242   6.159   3.991  0.8153  0.1621  0.3244
 2029SOL    HW1 6986   1.180   6.205   4.055  1.7890  1.7307  0.1885
 2029SOL    HW2 6987   1.192   6.134   3.909  0.2819  1.2606  0.2874
 2030SOL     OW 6988   0.607   3.243   2.413 -0.6126 -0.4541  0.2501
 2030SOL    HW1 6989   0.642   3.218   2.504  0.0713  0.6633  0.3102
 2030SOL    HW2 6990   0.669   3.208   2.343  0.8370  1.7186  0.3639
 2031SOL     OW 6991   1.166   0.516   1.354 -0.0156  0.1180 -0.6477
 2031SOL    HW1 6992   1.104   0.561   1.290  0.1824  0.3826 -0.6528
 2031SOL    HW2 6993   1.153   0.417   1.349 -0.3060  0.1627 -0.7839
 2032SOL     OW 6994   7.006   2.970   5.170  0.0679  0.2323  0.0670
 2032SOL    HW1 6995   6.911   2.990   5.192 -0.4753 -1.0656 -1.0011
 2032SOL    HW2 6996   7.029   3.011   5.081  1.1603  2.3214  1.2430
 2033SOL     OW 6997   6.504   0.276   4.367 -0.2135 -0.3002  0.2362
 2033SOL    HW1 6998   6.520   0.198   4.427 -0.6893  0.0134  0.7759
 2033SOL    HW2 6999   6.568   0.350   4.389 -2.7330  1.3077  3.0088
 2034SOL     OW 7000   1.772   5.840   3.220 -0.3554 -0.2131  0.0007
 2034SOL    HW1 7001   1.756   5.906   3.147 -0.8312  2.3876  2.2804
 2034SOL    HW2 7002   1.751   5.748   3.187 -0.9338  0.8651 -2.9536
 2035SOL     OW 7003   5.385   0.166   7.005  0.1374  0.8359 -0.2547
 2035SOL    HW1 7004   5.393   0.150   6.907  2.3495  0.4918 -0.0664
 2035SOL    HW2 7005   5.469   0.137   7.051 -1.6788 -1.2631  2.0788
 2036SOL     OW 7006   5.083   1.321   3.215 -0.1397 -0.1493  0.1449
 2036SOL    HW1 7007   5.126   1.394   3.162 -2.6225  1.3729  0.0860
 2036SOL    HW2 7008   5.136   1.305   3.299  1.1453  0.8187 -0.4432
 2037SOL     OW 7009   6.712   2.525   3.008  0.3754  0.4320 -0.1913
 2037SOL    HW1 7010   6.617   2.516   3.037 -0.3172  2.3470 -1.6712
 2037SOL    HW2 7011   6.734   2.622   2.995  3.2814  0.3138  2.3959
 2038SOL     OW 7012   5.687   6.278   6.168  0.0854 -0.1879 -0.2405
 2038SOL    HW1 7013   5.767   6.306   6.220 -1.2370  1.0443  1.2382
 2038SOL    HW2 7014   5.698   6.183   6.138  1.4829 -0.5030  1.1377
 2039SOL     OW 7015   6.498   2.112   4.115 -0.1479 -0.3284  0.4031
 2039SOL    HW1 7016   6.554   2.107   4.033  0.7398 -2.9671  1.0372
 2039SOL    HW2 7017   6.558   2.117   4.195 -0.9323  0.2494  0.9634
 2040SOL     OW 7018   1.437   0.998   5.989 -0.3115 -0.5545  0.1441
 2040SOL    HW1 7019   1.504   0.946   6.041  1.2069  1.4528  0.3235
 2040SOL    HW2 7020   1.427   0.958   5.898  1.4620 -0.6814 -0.0244
 2041SOL     OW 7021   6.648   6.278   3.170  0.1615 -0.3920 -0.1218
 2041SOL    HW1 7022   6.674   6.222   3.091  0.6815  0.5797 -0.6522
 2041SOL    HW2 7023   6.703   6.252   3.249  0.0778 -0.9385 -0.2357
 2042SOL     OW 7024   0.947   5.239   3.680  0.2751 -0.2522  0.0185
 2042SOL    HW1 7025   0.982   5.195   3.598 -1.8181 -1.5968 -0.2316
 2042SOL    HW2 7026   1.005   5.317   3.704  2.9390 -1.8853 -0.7025
 2043SOL     OW 7027   4.799   1.679   0.869  0.2830  0.6120  0.1563
 2043SOL    HW1 7028   4.856   1.606   0.907 -0.5293 -0.1858 -0.1183
 2043SOL    HW2 7029   4.704   1.664   0.897  0.1810  1.8776  0.5394
 2044SOL     OW 7030   3.725   1.599   6.130 -0.0440  0.5466  0.0338
 2044SOL    HW1 7031   3.791   1.594   6.055  0.3105 -1.0224  0.4295
 2044SOL    HW2 7032   3.654   1.530   6.118 -0.6675  1.0863  0.5122
 2045SOL     OW 7033   4.452   3.308   6.514 -0.0567 -0.2289  0.7417
 2045SOL    HW1 7034   4.507   3.253   6.577 -1.0131 -2.0614  0.0451
 2045SOL    HW2 7035   4.484   3.295   6.420 -0.0089  0.7901  0.6030
 2046SOL     OW 7036   0.249   1.921   2.689 -0.0181  0.1254  0.1506
 2046SOL    HW1 7037   0.165   1.970   2.666  0.9867  0.9550 -2.0247
 2046SOL    HW2 7038   0.310   1.982   2.738 -0.2131 -0.1113  0.6918
 2047SOL     OW 7039   1.939   0.900   6.447  0.0022  0.1399  0.0198
 2047SOL    HW1 7040   1.865   0.924   6.509  1.1320  2.2092  0.6609
 2047SOL    HW2 7041   1.905   0.898   6.353 -1.0145  0.2469  0.3737
 2048SOL     OW 7042   1.277   0.467   3.388 -0.1857 -0.1823  0.1177
 2048SOL    HW1 7043   1.304   0.509   3.475 -0.1834  1.0977 -0.4751
 2048SOL    HW2 7044   1.346   0.486   3.319 -2.1592  2.6073 -1.2700
 2049SOL     OW 7045   6.312   0.925   2.771  0.5105  0.0389  0.4820
 2049SOL    HW1 7046   6.315   0.898   2.867 -2.0875 -3.5608 -0.2338
 2049SOL    HW2 7047   6.221   0.960   2.749  0.3143 -1.3254 -1.0624
 2050SOL     OW 7048   6.893   2.839   6.394  0.0490  0.1989 -0.3419
 2050SOL    HW1 7049   6.910   2.790   6.480  1.5191 -0.7915 -1.1517
 2050SOL    HW2 7050   6.886   2.937   6.412 -1.0339 -0.1088  1.0688
 2051SOL     OW 7051   2.256   1.846   4.359  0.7607  0.5595 -0.6743
 2051SOL    HW1 7052   2.181   1.849   4.425  0.2902  0.6399 -1.1976
 2051SOL    HW2 7053   2.332   1.902   4.392  1.1913 -0.7067  0.5667
 2052SOL     OW 7054   0.146   5.620   5.069  1.0600  0.6262  0.2839
 2052SOL    HW1 7055   0.059   5.617   5.118  1.0026 -0.1580  0.1493
 2052SOL    HW2 7056   0.129   5.619   4.970  1.1873  1.8406  0.2391
 2053SOL     OW 7057   4.676   6.059   2.890 -0.0046  0.0615  0.1385
 2053SOL    HW1 7058   4.604   6.001   2.853  0.3519 -0.2025 -0.1573
 2053SOL    HW2 7059   4.762   6.008   2.891  0.4968  0.8288 -0.8812
 2054SOL     OW 7060   1.130   4.303   3.022  0.1907  0.0260  0.1209
 2054SOL    HW1 7061   1.111   4.207   3.002 -2.2630  0.7095 -1.2331
 2054SOL    HW2 7062   1.066   4.337   3.090 -0.7917  1.3143 -1.3581
 2055SOL     OW 7063   2.117   3.185   4.126  0.0332  0.5016 -0.0614
 2055SOL    HW1 7064   2.120   3.248   4.048  0.6363  0.7662  0.1681
 2055SOL    HW2 7065   2.087   3.235   4.207 -0.5054  0.2474 -0.1013
 2056SOL     OW 7066   2.474   0.162   4.569 -0.9736 -0.1071 -0.1139
 2056SOL    HW1 7067   2.427   0.141   4.484  0.9268 -3.0644 -0.5578
 2056SOL    HW2 7068   2.410   0.207   4.632 -3.5580 -1.4044 -1.6380
 2057SOL     OW 7069   5.256   3.682   6.391 -0.3236  0.2185  0.5044
 2057SOL    HW1 7070   5.241   3.585   6.411  1.5788 -0.3420 -0.5091
 2057SOL    HW2 7071   5.242   3.698   6.293  1.5120  0.4618  0.2516
 2058SOL     OW 7072   6.737   0.429   4.365  0.1604  0.1234  0.8570
 2058SOL    HW1 7073   6.820   0.448   4.418  1.1847  1.0604 -0.9884
 2058SOL    HW2 7074   6.758   0.436   4.268 -1.4424 -2.4389  0.2536
 2059SOL     OW 7075   2.096   2.593   0.272 -0.3011  0.2647 -0.2334
 2059SOL    HW1 7076   2.172   2.657   0.263  0.0049 -0.2275 -1.3196
 2059SOL    HW2 7077   2.130   2.500   0.260 -0.9257 -0.0317  0.2539
 2060SOL     OW 7078   3.014   6.280   6.835  0.0514 -0.3037 -0.2346
 2060SOL    HW1 7079   2.971   6.370   6.824  0.4510  0.1360  1.3662
 2060SOL    HW2 7080   3.111   6.293   6.857  0.7604 -1.2350 -2.5919
 2061SOL     OW 7081   3.450   0.594   2.408 -0.4234 -0.1290 -0.0788
 2061SOL    HW1 7082   3.415   0.638   2.490 -0.1989  1.7380 -0.9187
 2061SOL    HW2 7083   3.422   0.498   2.406  0.6555 -0.5879  2.7833
 2062SOL     OW 7084   3.936   3.264   5.165 -0.1635 -0.5952 -0.0220
 2062SOL    HW1 7085   3.955   3.351   5.119 -0.0415 -0.8072 -0.3751
 2062SOL    HW2 7086   3.937   3.190   5.098 -0.0051 -0.9042  0.3183
 2063SOL     OW 7087   2.681   2.037   3.208  0.3794 -0.1344 -0.5765
 2063SOL    HW1 7088   2.671   2.065   3.112  1.7560  0.9791 -0.4221
 2063SOL    HW2 7089   2.750   2.094   3.252  2.3938 -2.9402  0.1514
 2064SOL     OW 7090   3.363   5.704   2.166  0.6907 -0.1064  0.5960
 2064SOL    HW1 7091   3.368   5.675   2.071 -2.8412 -1.3445  0.6456
 2064SOL    HW2 7092   3.451   5.686   2.211  2.2262 -0.1017 -2.2000
 2065SOL     OW 7093   5.703   3.930   0.854 -0.5147 -0.2744  0.7334
 2065SOL    HW1 7094   5.741   3.843   0.823  0.4844  0.2924  0.3363
 2065SOL    HW2 7095   5.767   3.975   0.916 -0.5081  0.7165  0.0267
 2066SOL     OW 7096   5.890   6.260   6.910  0.1566  0.6974 -0.1386
 2066SOL    HW1 7097   5.958   6.196   6.946 -1.4146  0.2661  2.3234
 2066SOL    HW2 7098   5.869   6.237   6.816 -0.1336 -2.2876  0.5603
 2067SOL     OW 7099   0.129   4.966   3.734  0.0850 -0.2010  0.0076
 2067SOL    HW1 7100   0.097   5.037   3.797 -0.0629 -0.3743  0.1309
 2067SOL    HW2 7101   0.152   5.007   3.646  2.7033  0.4555  0.9191
 2068SOL     OW 7102   2.034   5.410   4.058 -0.5595 -0.1204 -0.0545
 2068SOL    HW1 7103   2.074   5.492   4.100  0.8152 -0.1391 -1.2606
 2068SOL    HW2 7104   2.070   5.329   4.104  0.5574 -0.1240 -0.8939
 2069SOL     OW 7105   6.657   1.569   2.536 -1.2271  0.2528 -0.6222
 2069SOL    HW1 7106   6.730   1.509   2.503 -0.2597  1.1938 -0.2512
 2069SOL    HW2 7107   6.573   1.516   2.547 -0.2208 -1.2045  0.3910
 2070SOL     OW 7108   3.153   1.294   0.961  0.0927 -0.0166 -0.2064
 2070SOL    HW1 7109   3.197   1.307   0.872  2.1031  1.3022  0.8992
 2070SOL    HW2 7110   3.183   1.365   1.024  1.2381 -2.6219  2.4553
 2071SOL     OW 7111   1.058   1.522   5.673 -0.2215 -0.5890  0.2349
 2071SOL    HW1 7112   1.074   1.568   5.585 -1.4888 -0.5925 -0.0204
 2071SOL    HW2 7113   1.123   1.447   5.683  0.6965  0.1396 -0.1651
 2072SOL     OW 7114   5.962   1.311   6.684  0.1220 -0.0050 -0.7844
 2072SOL    HW1 7115   5.888   1.368   6.720  0.9225  1.5381 -1.4771
 2072SOL    HW2 7116   5.999   1.352   6.600  1.9787 -0.5441 -0.2856
 2073SOL     OW 7117   3.664   6.372   1.799 -0.1970  0.0897  0.3303
 2073SOL    HW1 7118   3.763   6.364   1.815 -0.1782 -0.4020 -0.0136
 2073SOL    HW2 7119   3.632   6.291   1.750 -1.2281 -1.0129  2.6931
 2074SOL     OW 7120   0.278   1.107   6.186 -0.0628  0.1239  0.1385
 2074SOL    HW1 7121   0.225   1.159   6.118 -0.5534 -0.7053 -0.1325
 2074SOL    HW2 7122   0.370   1.092   6.152 -0.3307 -0.3569 -0.3894
 2075SOL     OW 7123   5.946   6.055   3.915  0.0953  0.0281  0.0123
 2075SOL    HW1 7124   5.911   5.993   3.844 -2.5406 -0.0025  1.2341
 2075SOL    HW2 7125   5.903   6.145   3.905  2.0535  0.9934 -0.2505
 2076SOL     OW 7126   0.241   4.124   6.373 -0.3018 -0.2940  0.3042
 2076SOL    HW1 7127   0.200   4.185   6.442  0.7479  1.1040 -0.2560
 2076SOL    HW2 7128   0.191   4.037   6.372 -0.5336 -0.2678  2.6248
 2077SOL     OW 7129   2.661   6.728   2.900 -0.1573 -0.0370  0.0007
 2077SOL    HW1 7130   2.640   6.660   2.830 -2.4993 -0.3063  0.8560
 2077SOL    HW2 7131   2.743   6.701   2.950  0.7397 -0.5725 -1.6685
 2078SOL     OW 7132   3.103   4.743   6.077 -0.0537  0.2147 -0.0919
 2078SOL    HW1 7133   3.026   4.691   6.114  0.5228  0.1134  1.0071
 2078SOL    HW2 7134   3.072   4.799   6.000 -0.6896 -1.8242 -1.4065
 2079SOL     OW 7135   1.575   1.200   0.217 -0.7080 -0.4693  0.0059
 2079SOL    HW1 7136   1.564   1.242   0.127  1.0715 -1.0261 -0.5129
 2079SOL    HW2 7137   1.570   1.100   0.209 -0.8459 -0.5140  0.5743
 2080SOL     OW 7138   4.017   5.369   2.352 -0.0437  0.2884  0.3171
 2080SOL    HW1 7139   3.943   5.307   2.375 -0.4896  1.2573  1.5844
 2080SOL    HW2 7140   3.995   5.417   2.266  1.0428 -2.3979 -1.5888
 2081SOL     OW 7141   1.622   3.936   1.994  0.0338 -0.3691 -0.4331
 2081SOL    HW1 7142   1.576   3.933   2.083  2.3072 -0.1394  0.8225
 2081SOL    HW2 7143   1.720   3.919   2.006  0.5635  0.5669 -2.7943
 2082SOL     OW 7144   4.833   1.653   6.727 -0.6133  0.1685 -0.3577
 2082SOL    HW1 7145   4.742   1.633   6.689 -1.3078 -0.2618  1.4090
 2082SOL    HW2 7146   4.825   1.726   6.795 -0.0279 -1.2249  1.2884
 2083SOL     OW 7147   6.978   0.777   1.741  0.0481 -0.1883  0.1546
 2083SOL    HW1 7148   7.065   0.760   1.787 -0.7701  1.0378  2.3244
 2083SOL    HW2 7149   6.965   0.875   1.728 -0.0453 -0.4556 -2.2895
 2084SOL     OW 7150   1.372   6.060   5.766 -0.3010  0.7858  0.1176
 2084SOL    HW1 7151   1.379   6.031   5.671  1.5162  0.2758  0.3498
 2084SOL    HW2 7152   1.300   6.128   5.776 -0.2543  1.1500 -1.6956
 2085SOL     OW 7153   6.398   6.634   0.247  0.9904  0.3281 -0.2086
 2085SOL    HW1 7154   6.344   6.579   0.184  1.0648 -1.1400  0.9610
 2085SOL    HW2 7155   6.495   6.625   0.225  0.8797  2.2569 -1.7476
 2086SOL     OW 7156   2.517   5.044   3.195 -0.2400 -0.6958 -0.2394
 2086SOL    HW1 7157   2.473   5.055   3.284  1.5823 -3.6769  1.1758
 2086SOL    HW2 7158   2.453   5.071   3.123 -1.9259  1.4044  1.8957
 2087SOL     OW 7159   0.413   3.374   4.349 -0.1537  0.3310  0.2290
 2087SOL    HW1 7160   0.450   3.465   4.370 -0.4448  0.5190 -0.0643
 2087SOL    HW2 7161   0.360   3.378   4.264 -2.2736  0.4473  1.4866
 2088SOL     OW 7162   6.730   6.396   0.300  0.6803 -0.3584 -0.1646
 2088SOL    HW1 7163   6.669   6.319   0.280 -1.1822  0.8472  0.5359
 2088SOL    HW2 7164   6.761   6.390   0.395  0.0498  0.0370  0.0750
 2089SOL     OW 7165   2.535   0.962   4.383 -0.0893  0.0798 -0.3879
 2089SOL    HW1 7166   2.552   0.872   4.422  0.5643  0.3466 -0.0276
 2089SOL    HW2 7167   2.470   0.955   4.307  0.6232 -0.8171 -0.9335
 2090SOL     OW 7168   6.525   2.889   5.441 -0.2169  0.3033  0.2238
 2090SOL    HW1 7169   6.607   2.934   5.476 -1.7172  2.1142  1.6146
 2090SOL    HW2 7170   6.445   2.945   5.462 -1.6523 -0.4216 -2.8435
 2091SOL     OW 7171   4.450   0.557   5.590 -0.7676  0.0316  0.1120
 2091SOL    HW1 7172   4.527   0.533   5.532  0.2408 -0.9997  1.7900
 2091SOL    HW2 7173   4.379   0.487   5.583  0.5994 -1.6649  2.2356
 2092SOL     OW 7174   3.273   5.407   2.078 -0.4356  0.1139 -0.1679
 2092SOL    HW1 7175   3.250   5.446   2.168 -0.6071 -0.6076  0.1047
 2092SOL    HW2 7176   3.333   5.328   2.090  0.8724  0.9697 -0.7856
 2093SOL     OW 7177   6.123   3.319   1.163 -0.1920 -0.0608 -0.1118
 2093SOL    HW1 7178   6.024   3.328   1.151  0.2139  1.8721 -2.9321
 2093SOL    HW2 7179   6.162   3.406   1.193  0.7882 -0.5690  0.1597
 2094SOL     OW 7180   1.058   2.854   4.354 -1.1572  0.6239 -0.1663
 2094SOL    HW1 7181   1.032   2.854   4.257  1.5463  2.0753 -0.9778
 2094SOL    HW2 7182   1.141   2.800   4.366 -0.2264  2.2418  0.9525
 2095SOL     OW 7183   4.340   1.215   1.744  0.0611 -0.2793 -0.3860
 2095SOL    HW1 7184   4.364   1.180   1.653  0.3599 -0.3104 -0.2981
 2095SOL    HW2 7185   4.421   1.256   1.785 -0.1130 -0.1275 -0.1957
 2096SOL     OW 7186   5.047   1.085   4.760  0.3208  0.4754  0.1689
 2096SOL    HW1 7187   5.136   1.041   4.745  0.9946  1.2486  1.6595
 2096SOL    HW2 7188   5.018   1.070   4.854 -2.0737 -1.3338 -0.7701
 2097SOL     OW 7189   2.124   5.684   5.297 -0.0958  0.7866 -0.3664
 2097SOL    HW1 7190   2.073   5.706   5.380 -1.0430 -0.0696 -0.6923
 2097SOL    HW2 7191   2.220   5.669   5.320 -0.2783  0.8965  0.5155
 2098SOL     OW 7192   6.689   1.972   2.734  0.2432  0.1706  0.2070
 2098SOL    HW1 7193   6.620   1.934   2.672  2.4342 -2.5678 -0.7450
 2098SOL    HW2 7194   6.695   1.915   2.816  1.3493  0.3371  0.2566
 2099SOL     OW 7195   3.941   1.803   2.386  0.1342 -0.0820  0.2582
 2099SOL    HW1 7196   3.930   1.777   2.290  0.6821  1.1600 -0.1679
 2099SOL    HW2 7197   3.920   1.901   2.396  0.7010 -0.0536  1.2925
 2100SOL     OW 7198   4.094   0.311   2.674  0.6595  0.3084 -0.2778
 2100SOL    HW1 7199   4.180   0.267   2.648  1.0431  0.7908  0.1789
 2100SOL    HW2 7200   4.019   0.268   2.624  1.0662 -0.6621 -0.0708
 2101SOL     OW 7201   5.394   2.090   5.709 -0.5038 -0.1125  0.3332
 2101SOL    HW1 7202   5.357   2.066   5.798 -1.6347  1.2954  0.2800
 2101SOL    HW2 7203   5.474   2.033   5.690  0.0292 -0.1494  2.4211
 2102SOL     OW 7204   1.317   2.246   1.541 -0.4334 -0.0174  0.1161
 2102SOL    HW1 7205   1.230   2.239   1.588 -0.6740 -0.2807 -0.3589
 2102SOL    HW2 7206   1.344   2.156   1.506 -0.2016  0.1459 -0.1371
 2103SOL     OW 7207   2.822   2.354   4.638  0.4488  0.3036 -0.4269
 2103SOL    HW1 7208   2.763   2.434   4.624 -1.7548 -1.3839 -1.4863
 2103SOL    HW2 7209   2.844   2.345   4.735 -0.1278  1.5931 -0.1486
 2104SOL     OW 7210   3.900   2.158   6.804 -0.1008 -0.1315  0.2488
 2104SOL    HW1 7211   3.982   2.212   6.821  0.0403 -0.1005 -0.5020
 2104SOL    HW2 7212   3.825   2.218   6.776 -0.1018 -0.2615 -0.0315
 2105SOL     OW 7213   5.885   4.891   4.517 -0.2841 -0.0899  0.8554
 2105SOL    HW1 7214   5.930   4.807   4.546 -0.4049 -0.9619 -1.2923
 2105SOL    HW2 7215   5.862   4.885   4.420 -0.9160  2.1653  0.8015
 2106SOL     OW 7216   3.661   0.720   1.054  0.0804 -0.4295  0.4306
 2106SOL    HW1 7217   3.688   0.765   0.969  0.1316 -0.0612  0.6381
 2106SOL    HW2 7218   3.690   0.776   1.132  0.6511 -1.0981  0.7093
 2107SOL     OW 7219   5.410   4.138   5.418 -0.2584  0.2090  0.2556
 2107SOL    HW1 7220   5.404   4.095   5.329  0.4459  0.5402  0.0359
 2107SOL    HW2 7221   5.361   4.083   5.486 -0.9663  0.0612 -0.3650
 2108SOL     OW 7222   0.095   6.715   0.853 -0.2761 -0.1810  0.3503
 2108SOL    HW1 7223  -0.001   6.735   0.872 -0.2983 -0.3684  0.4339
 2108SOL    HW2 7224   0.151   6.739   0.933 -0.5588 -2.4878  1.3059
 2109SOL     OW 7225   0.207   0.143   6.546 -0.5733  0.1078  0.0207
 2109SOL    HW1 7226   0.227   0.055   6.503 -0.1994 -0.0213  0.4438
 2109SOL    HW2 7227   0.135   0.190   6.495  0.1805  0.1718 -1.0160
 2110SOL     OW 7228   5.344   2.193   0.670  0.4770 -0.1290 -0.2805
 2110SOL    HW1 7229   5.437   2.210   0.636  0.6587 -0.7740 -0.1173
 2110SOL    HW2 7230   5.344   2.194   0.770  0.3420 -0.3197 -0.2782
 2111SOL     OW 7231   0.633   6.833   2.002  0.3577  0.5573 -0.0805
 2111SOL    HW1 7232   0.726   6.869   2.010  0.3125  0.3726  1.8597
 2111SOL    HW2 7233   0.634   6.733   2.009 -0.0463  0.6094  0.8779
 2112SOL     OW 7234   5.091   4.532   2.969  0.1548 -0.4667  0.0814
 2112SOL    HW1 7235   5.080   4.544   2.871 -0.9738  1.1122  0.3554
 2112SOL    HW2 7236   5.182   4.560   2.997  0.3116 -0.4492 -0.4473
 2113SOL     OW 7237   6.321   1.378   2.912 -0.9522 -0.4324  0.3626
 2113SOL    HW1 7238   6.224   1.360   2.932 -0.7710 -1.5008  0.2998
 2113SOL    HW2 7239   6.362   1.297   2.871  0.2987 -0.4268  1.5500
 2114SOL     OW 7240   6.276   3.374   6.593  0.1354  0.2032 -0.0018
 2114SOL    HW1 7241   6.356   3.431   6.575 -0.1319  0.3819 -0.6518
 2114SOL    HW2 7242   6.245   3.332   6.507 -0.9286  0.7349  0.1014
 2115SOL     OW 7243   5.821   0.495   5.307 -0.4142  0.0134  0.1561
 2115SOL    HW1 7244   5.803   0.591   5.329 -0.6803 -0.0751  0.3322
 2115SOL    HW2 7245   5.911   0.469   5.342  1.1507  1.0931 -2.7165
 2116SOL     OW 7246   5.109   3.149   1.312 -0.5925  0.5288  0.0688
 2116SOL    HW1 7247   5.023   3.129   1.359  0.1234  1.0516  1.6622
 2116SOL    HW2 7248   5.155   3.225   1.357  1.2705 -0.5074  0.0080
 2117SOL     OW 7249   5.738   5.842   1.540  0.4486  0.3437 -0.3349
 2117SOL    HW1 7250   5.673   5.913   1.567  0.8394  1.3866 -2.0073
 2117SOL    HW2 7251   5.693   5.752   1.543 -1.0527  1.0177 -1.3410
 2118SOL     OW 7252   0.606   3.670   0.420  0.4129  0.1174  0.0646
 2118SOL    HW1 7253   0.620   3.727   0.340  1.1611  0.7672  0.6465
 2118SOL    HW2 7254   0.681   3.684   0.486  0.8492 -1.8143  0.0639
 2119SOL     OW 7255   7.009   1.958   5.787  0.1526  0.5268 -0.0727
 2119SOL    HW1 7256   6.928   2.016   5.801  0.0774  0.2655  0.6024
 2119SOL    HW2 7257   7.049   1.935   5.876  0.3940 -0.1612 -0.3573
 2120SOL     OW 7258   3.944   6.577   2.063  0.4871 -0.1103 -0.2301
 2120SOL    HW1 7259   3.904   6.505   2.120  2.3741 -0.5686  0.5829
 2120SOL    HW2 7260   4.007   6.632   2.118  1.0054  0.5503 -1.4549
 2121SOL     OW 7261   4.898   4.601   3.193  1.3110  0.1962  0.2066
 2121SOL    HW1 7262   4.960   4.588   3.116  1.0331 -0.7935  0.1400
 2121SOL    HW2 7263   4.804   4.580   3.165  0.6298  3.2414 -0.1625
 2122SOL     OW 7264   5.296   1.961   5.230  0.3055 -0.0453  0.3029
 2122SOL    HW1 7265   5.337   1.871   5.243  0.5686  0.2313  1.4798
 2122SOL    HW2 7266   5.196   1.951   5.225  0.3682 -0.4621 -0.1286
 2123SOL     OW 7267   4.702   3.349   5.276 -0.2059 -0.2083 -0.4966
 2123SOL    HW1 7268   4.745   3.395   5.198  0.6148  0.0679  0.1022
 2123SOL    HW2 7269   4.639   3.413   5.321 -2.2792 -1.0129 -2.1331
 2124SOL     OW 7270   0.554   3.703   2.567  0.1082 -0.9323 -0.1083
 2124SOL    HW1 7271   0.467   3.750   2.549  0.5926 -0.2083 -0.5887
 2124SOL    HW2 7272   0.551   3.661   2.657 -0.4278 -0.1870  0.2311
 2125SOL     OW 7273   4.069   1.131   5.632 -0.6617 -0.7213  0.5123
 2125SOL    HW1 7274   4.091   1.139   5.729 -0.0617  0.5775  0.2799
 2125SOL    HW2 7275   4.017   1.046   5.617  0.2986 -1.5643  1.7567
 2126SOL     OW 7276   2.150   3.293   3.567  0.1558 -0.3799  0.1556
 2126SOL    HW1 7277   2.153   3.316   3.469  1.7763  0.7666  0.4278
 2126SOL    HW2 7278   2.058   3.310   3.602 -0.0199  0.8888 -0.8113
 2127SOL     OW 7279   6.160   2.929   4.430  0.2265  0.1400  0.3643
 2127SOL    HW1 7280   6.102   2.858   4.470  0.5896 -0.1419  0.3960
 2127SOL    HW2 7281   6.253   2.919   4.464 -0.0466  1.6561  1.6708
 2128SOL     OW 7282   2.272   0.974   5.644 -0.4397  0.2100 -0.2089
 2128SOL    HW1 7283   2.308   1.015   5.560  2.4981 -1.8463 -0.1130
 2128SOL    HW2 7284   2.208   0.901   5.622  0.6930 -0.6493 -0.7383
 2129SOL     OW 7285   2.749   1.507   2.025 -0.1225 -0.0608 -0.5734
 2129SOL    HW1 7286   2.844   1.511   1.996  0.1807 -0.6149  0.3013
 2129SOL    HW2 7287   2.743   1.520   2.124 -1.1158  1.6742 -0.8143
 2130SOL     OW 7288   2.022   3.703   5.384  0.3682 -0.1786 -0.0783
 2130SOL    HW1 7289   1.997   3.678   5.477  0.9331  0.7735  0.3394
 2130SOL    HW2 7290   2.122   3.709   5.377  0.3527 -0.7227 -0.8712
 2131SOL     OW 7291   0.609   1.217   3.726  0.2036 -0.5081 -0.1535
 2131SOL    HW1 7292   0.569   1.308   3.716  2.0541  0.5277  1.1875
 2131SOL    HW2 7293   0.620   1.175   3.636 -0.4737  0.6932 -0.8219
 2132SOL     OW 7294   5.506   5.990   3.807 -0.2780 -0.2258  0.5286
 2132SOL    HW1 7295   5.587   6.038   3.775 -0.8140 -0.6051 -1.5537
 2132SOL    HW2 7296   5.427   6.017   3.751 -1.2916 -1.0037  1.5264
 2133SOL     OW 7297   4.688   0.729   5.032 -0.0406  0.7788 -0.0753
 2133SOL    HW1 7298   4.637   0.811   5.057 -0.1748  0.8743 -0.6500
 2133SOL    HW2 7299   4.686   0.717   4.933 -0.8987 -0.4744  0.0657
 2134SOL     OW 7300   2.710   4.786   5.523  0.3444  0.4892 -0.2397
 2134SOL    HW1 7301   2.712   4.715   5.452  2.1321  0.4249 -0.1673
 2134SOL    HW2 7302   2.695   4.744   5.612 -1.7482  0.5551 -0.4932
 2135SOL     OW 7303   6.600   6.514   2.028  0.1186  0.0436 -0.8495
 2135SOL    HW1 7304   6.557   6.490   1.941  0.1540 -0.1378 -0.8175
 2135SOL    HW2 7305   6.625   6.430   2.077 -1.7827  0.0759  0.2957
 2136SOL     OW 7306   1.066   1.111   5.606  0.5189  0.3690  0.5221
 2136SOL    HW1 7307   1.140   1.177   5.613  0.0812  1.3078 -2.3954
 2136SOL    HW2 7308   1.097   1.022   5.642  1.8142  1.5530  2.5381
 2137SOL     OW 7309   4.321   6.418   1.110 -0.1080  0.0379 -0.6641
 2137SOL    HW1 7310   4.385   6.365   1.055  0.2005 -0.0418 -0.2273
 2137SOL    HW2 7311   4.255   6.357   1.154  0.0148  0.0509 -0.4633
 2138SOL     OW 7312   5.531   4.784   2.724  0.0345  0.7135  0.5779
 2138SOL    HW1 7313   5.588   4.702   2.711  0.7497  1.3909 -0.7698
 2138SOL    HW2 7314   5.590   4.863   2.741 -0.6470  0.9988  1.7478
 2139SOL     OW 7315   3.047   6.943   1.082 -0.4697 -0.1470 -0.3129
 2139SOL    HW1 7316   3.136   6.919   1.122  0.1787  2.1595 -0.2161
 2139SOL    HW2 7317   2.976   6.933   1.151 -0.4364 -2.5599 -0.5441
 2140SOL     OW 7318   3.925   1.158   3.854  0.4521 -0.1650  0.0900
 2140SOL    HW1 7319   3.842   1.214   3.850 -0.3281 -1.2694 -4.2891
 2140SOL    HW2 7320   3.911   1.085   3.921 -1.6844  0.3112  0.2575
 2141SOL     OW 7321   0.831   0.197   4.411 -0.7493 -0.1055  0.4992
 2141SOL    HW1 7322   0.900   0.127   4.425 -1.0391 -0.4579  0.1872
 2141SOL    HW2 7323   0.847   0.273   4.473 -0.8109 -0.7311  1.2927
 2142SOL     OW 7324   0.007   1.754   2.865  0.6766  0.3911  0.2488
 2142SOL    HW1 7325   0.056   1.818   2.924 -0.6742  0.3799  1.4415
 2142SOL    HW2 7326   0.049   1.664   2.873  1.8158  0.8281 -0.4813
 2143SOL     OW 7327   3.180   2.607   0.962 -0.4753  0.2078  0.2515
 2143SOL    HW1 7328   3.094   2.558   0.977 -0.7152  0.2390 -0.9177
 2143SOL    HW2 7329   3.215   2.641   1.049 -1.1571 -0.6215  0.8640
 2144SOL     OW 7330   0.707   1.439   1.149 -0.0855 -0.3081  0.0829
 2144SOL    HW1 7331   0.644   1.501   1.103  0.8743 -0.0462 -0.9470
 2144SOL    HW2 7332   0.799   1.479   1.148 -0.0832 -0.1182  2.6152
 2145SOL     OW 7333   5.510   0.172   1.982  0.4127  0.6788 -0.3579
 2145SOL    HW1 7334   5.577   0.125   2.038 -0.2338  0.8719  0.6094
 2145SOL    HW2 7335   5.435   0.205   2.041 -0.2544  0.9317 -1.3282
 2146SOL     OW 7336   4.285   1.052   0.426  0.5972 -0.0087  0.3623
 2146SOL    HW1 7337   4.334   1.105   0.495  0.7783  1.1341 -0.5917
 2146SOL    HW2 7338   4.347   0.987   0.383  0.4980 -0.6774  1.2116
 2147SOL     OW 7339   5.815   2.382   4.301 -0.7689 -0.2042  0.0908
 2147SOL    HW1 7340   5.753   2.437   4.357 -0.0238  0.0993  0.6246
 2147SOL    HW2 7341   5.820   2.422   4.209 -0.3483  0.5556  0.4300
 2148SOL     OW 7342   4.327   1.483   2.959  0.5411  0.4160  0.3431
 2148SOL    HW1 7343   4.313   1.391   2.996 -0.9767  0.3448 -0.3417
 2148SOL    HW2 7344   4.416   1.488   2.914 -0.0206 -1.2190 -1.0240
 2149SOL     OW 7345   5.949   2.668   1.671 -0.0255  0.1473 -0.3174
 2149SOL    HW1 7346   6.014   2.602   1.632 -0.5849 -1.0838  0.7347
 2149SOL    HW2 7347   5.860   2.624   1.683 -0.0410  0.6134  1.7297
 2150SOL     OW 7348   0.010   2.725   4.937  0.0979 -0.3029  0.0380
 2150SOL    HW1 7349   0.076   2.651   4.927  0.2917 -0.2344  0.7930
 2150SOL    HW2 7350  -0.058   2.700   5.005 -0.3434 -0.1409 -0.3369
 2151SOL     OW 7351   1.523   6.126   0.315 -0.1936 -0.3478 -0.0402
 2151SOL    HW1 7352   1.511   6.154   0.410 -1.3692 -0.4321 -0.1569
 2151SOL    HW2 7353   1.531   6.207   0.256 -1.7942 -0.2331 -0.1479
 2152SOL     OW 7354   6.924   3.773   3.958 -1.2417 -0.0354 -0.1491
 2152SOL    HW1 7355   6.831   3.790   3.923 -1.0569 -1.4565 -1.4130
 2152SOL    HW2 7356   6.987   3.763   3.881  0.0601  1.2432  0.7007
 2153SOL     OW 7357   1.794   5.411   0.809  0.0254  0.1681  0.2089
 2153SOL    HW1 7358   1.796   5.334   0.745  0.3425  0.0709  0.3362
 2153SOL    HW2 7359   1.821   5.494   0.761  0.0070  0.1413  0.1518
 2154SOL     OW 7360   6.178   6.448   2.957 -0.2936  0.3902  0.1036
 2154SOL    HW1 7361   6.184   6.509   3.035 -1.9113  0.1252  0.4763
 2154SOL    HW2 7362   6.263   6.452   2.904 -0.0467  2.3097  0.5784
 2155SOL     OW 7363   2.125   4.436   5.855 -0.1943 -0.0224 -0.2969
 2155SOL    HW1 7364   2.200   4.446   5.790 -0.0611 -1.4131 -0.4017
 2155SOL    HW2 7365   2.042   4.474   5.816  0.3173  0.9825 -0.4316
 2156SOL     OW 7366   3.154   2.451   5.446 -0.0379  0.0619 -0.1266
 2156SOL    HW1 7367   3.077   2.396   5.479  0.7427  0.1707  2.0669
 2156SOL    HW2 7368   3.196   2.406   5.367 -1.3280 -0.8267 -0.3471
 2157SOL     OW 7369   4.559   0.460   1.586  0.1359  0.8139 -0.4736
 2157SOL    HW1 7370   4.624   0.414   1.526  1.2700  0.3462  1.0240
 2157SOL    HW2 7371   4.468   0.421   1.573  0.6552 -0.3435 -0.7964
 2158SOL     OW 7372   4.681   4.419   6.782  0.0104  0.6434  0.4475
 2158SOL    HW1 7373   4.589   4.382   6.794  0.9862 -1.8026  0.8928
 2158SOL    HW2 7374   4.720   4.443   6.870 -0.1263  1.5003  0.2780
 2159SOL     OW 7375   2.680   2.911   1.181  0.4121  0.3566  0.2922
 2159SOL    HW1 7376   2.758   2.915   1.244 -0.7001  1.3803  1.6551
 2159SOL    HW2 7377   2.596   2.926   1.232 -0.5557  0.9344 -1.4275
 2160SOL     OW 7378   2.029   0.808   1.220 -0.2425 -0.0630  0.3122
 2160SOL    HW1 7379   2.009   0.901   1.191 -1.7281 -0.2176  0.7780
 2160SOL    HW2 7380   1.987   0.743   1.156 -0.1825 -0.4079  0.6170
 2161SOL     OW 7381   1.276   3.700   3.746  0.6990  0.2603 -0.3095
 2161SOL    HW1 7382   1.231   3.635   3.685  1.3190 -2.0356  1.5596
 2161SOL    HW2 7383   1.210   3.768   3.777 -1.0453 -1.7799  0.6992
 2162SOL     OW 7384   6.719   2.734   1.450 -0.0573 -0.0187 -0.0409
 2162SOL    HW1 7385   6.690   2.711   1.357  0.5429 -1.0354  0.0081
 2162SOL    HW2 7386   6.819   2.737   1.454 -0.0862  0.2882  0.5090
 2163SOL     OW 7387   2.803   6.055   4.571 -0.5823 -0.6441  0.6167
 2163SOL    HW1 7388   2.882   6.010   4.530 -2.1342 -1.6376 -1.4958
 2163SOL    HW2 7389   2.773   6.004   4.651 -1.4196 -2.6701 -0.8854
 2164SOL     OW 7390   5.977   5.298   5.752 -0.3555  0.5952  0.2275
 2164SOL    HW1 7391   5.981   5.243   5.835  0.3908 -0.0255 -0.2045
 2164SOL    HW2 7392   5.886   5.290   5.711 -0.2364 -0.3759  0.1337
 2165SOL     OW 7393   4.088   6.766   2.177  0.7344 -0.0469 -0.3681
 2165SOL    HW1 7394   4.019   6.757   2.250  1.0555 -2.1382 -0.2770
 2165SOL    HW2 7395   4.126   6.859   2.180 -1.0653  0.7285  0.4675
 2166SOL     OW 7396   0.818   5.611   0.498  0.2703  0.8937 -0.0582
 2166SOL    HW1 7397   0.780   5.677   0.433 -1.8547 -0.0179  0.1560
 2166SOL    HW2 7398   0.847   5.529   0.448 -0.1752  0.7033 -0.0160
 2167SOL     OW 7399   6.103   6.882   1.258 -0.9174 -0.8703 -0.1227
 2167SOL    HW1 7400   6.163   6.899   1.179 -0.0053 -0.3728  0.6598
 2167SOL    HW2 7401   6.063   6.968   1.288 -1.8120 -1.1578 -0.4510
 2168SOL     OW 7402   3.520   6.526   2.207 -0.4218  0.0069  0.2202
 2168SOL    HW1 7403   3.574   6.590   2.262 -0.5637  0.1843  0.1546
 2168SOL    HW2 7404   3.508   6.441   2.257 -1.1898  0.4332  0.7788
 2169SOL     OW 7405   2.311   4.084   0.577  0.2378  0.0081  0.0300
 2169SOL    HW1 7406   2.351   4.008   0.524  1.1155  0.6755 -0.2980
 2169SOL    HW2 7407   2.237   4.050   0.634  0.1350 -0.9691 -0.6616
 2170SOL     OW 7408   6.172   2.679   5.862  0.1009 -0.3415 -0.2633
 2170SOL    HW1 7409   6.267   2.652   5.848  0.4651  1.7687 -2.5655
 2170SOL    HW2 7410   6.125   2.687   5.774 -2.5279 -2.1005  0.8368
 2171SOL     OW 7411   4.950   3.803   4.693  0.3569 -0.0468 -0.0453
 2171SOL    HW1 7412   4.899   3.757   4.765 -1.8673  1.4168 -0.5757
 2171SOL    HW2 7413   4.959   3.742   4.614  0.5931 -0.7782  0.5396
 2172SOL     OW 7414   1.731   4.259   2.135 -0.1780  0.3073  0.4511
 2172SOL    HW1 7415   1.708   4.282   2.040  1.4664 -0.2139 -0.0994
 2172SOL    HW2 7416   1.681   4.320   2.197 -0.4296  1.3954 -0.7758
 2173SOL     OW 7417   5.747   3.382   2.925  0.2679 -0.6110 -0.7483
 2173SOL    HW1 7418   5.756   3.465   2.870 -0.4376 -0.1204 -0.1369
 2173SOL    HW2 7419   5.679   3.396   2.996 -1.8495 -2.5817 -2.2343
 2174SOL     OW 7420   5.987   0.977   5.749  0.5050  0.1408  0.1012
 2174SOL    HW1 7421   5.896   0.971   5.791  0.0319 -1.3105 -1.0206
 2174SOL    HW2 7422   6.022   1.070   5.758 -0.2129  0.2547  2.3126
 2175SOL     OW 7423   1.603   3.059   2.360 -0.1029  0.8165 -0.0506
 2175SOL    HW1 7424   1.647   3.054   2.271 -1.3897  0.5339 -0.7071
 2175SOL    HW2 7425   1.668   3.032   2.431  0.6178 -0.1034 -1.0193
 2176SOL     OW 7426   6.904   0.958   5.314 -0.4245 -0.4560 -0.2429
 2176SOL    HW1 7427   6.839   0.999   5.250  1.2177  1.8436 -0.5675
 2176SOL    HW2 7428   6.952   0.883   5.269 -0.4362  0.0724 -1.1604
 2177SOL     OW 7429   1.994   6.852   4.622 -0.0569 -0.0602  0.1179
 2177SOL    HW1 7430   1.910   6.876   4.670  0.5435  1.4454  0.4590
 2177SOL    HW2 7431   1.974   6.841   4.524 -0.8451 -0.8609  0.3532
 2178SOL     OW 7432   6.818   4.830   4.713 -0.8461  0.2064  0.1556
 2178SOL    HW1 7433   6.909   4.804   4.746 -0.4224 -0.2547 -1.2912
 2178SOL    HW2 7434   6.758   4.750   4.717 -1.4832  0.7476  2.0043
 2179SOL     OW 7435   4.304   6.000   2.118  0.1661  0.3624  0.2040
 2179SOL    HW1 7436   4.262   6.089   2.098 -0.1755  0.1307 -0.1165
 2179SOL    HW2 7437   4.233   5.934   2.142  0.3723  0.0467 -0.0443
 2180SOL     OW 7438   1.659   4.746   3.139  0.5169  0.5934 -0.9104
 2180SOL    HW1 7439   1.689   4.831   3.182 -0.1383  0.6941 -0.6540
 2180SOL    HW2 7440   1.685   4.669   3.197  0.4414  0.6668 -0.7797
 2181SOL     OW 7441   4.805   1.387   0.320  0.3032  0.2690  0.1650
 2181SOL    HW1 7442   4.858   1.337   0.388 -0.0207  1.8824  1.6611
 2181SOL    HW2 7443   4.833   1.358   0.228  0.5802 -2.1159  0.9514
 2182SOL     OW 7444   2.977   1.792   2.975  0.0942  1.0639  0.1425
 2182SOL    HW1 7445   3.027   1.759   2.896  0.8135  4.4609 -0.9899
 2182SOL    HW2 7446   2.884   1.818   2.948 -1.0455 -1.3830  1.3643
 2183SOL     OW 7447   5.940   5.711   2.574  0.3973 -0.2921  0.0459
 2183SOL    HW1 7448   5.950   5.724   2.673  1.9695  1.3558 -0.2635
 2183SOL    HW2 7449   5.847   5.683   2.553 -0.2858  0.4098  1.9128
 2184SOL     OW 7450   3.301   1.301   3.729 -0.0999 -0.2145 -0.2951
 2184SOL    HW1 7451   3.392   1.266   3.708 -0.3413 -0.4725 -0.9288
 2184SOL    HW2 7452   3.270   1.263   3.816  0.2922 -0.3255 -0.2014
 2185SOL     OW 7453   2.773   0.185   5.943 -0.3508 -0.1801  0.1747
 2185SOL    HW1 7454   2.869   0.178   5.914 -0.3237 -4.2337  0.6496
 2185SOL    HW2 7455   2.713   0.168   5.865 -0.4957 -2.2510  0.6885
 2186SOL     OW 7456   5.274   1.194   3.964 -0.0254  0.3584  0.3381
 2186SOL    HW1 7457   5.310   1.283   3.993 -0.8674  0.9890 -0.4826
 2186SOL    HW2 7458   5.212   1.158   4.034  0.0412  0.5875  0.5163
 2187SOL     OW 7459   5.661   5.245   2.349 -0.4152 -0.5076 -0.1708
 2187SOL    HW1 7460   5.661   5.214   2.444  0.3567  0.9672  0.3449
 2187SOL    HW2 7461   5.573   5.288   2.328  0.2705  1.4670  0.7260
 2188SOL     OW 7462   1.447   5.274   3.242  0.6027  0.1292  0.2086
 2188SOL    HW1 7463   1.419   5.348   3.304 -1.2681 -1.0499  0.8544
 2188SOL    HW2 7464   1.406   5.288   3.152  2.7330  1.4461 -0.6547
 2189SOL     OW 7465   3.471   0.861   5.640 -0.2599 -0.1820  0.3115
 2189SOL    HW1 7466   3.447   0.861   5.737 -0.3283 -0.8706  0.3002
 2189SOL    HW2 7467   3.560   0.905   5.627  1.6789 -3.5097  1.2010
 2190SOL     OW 7468   3.348   6.723   2.515  0.5759  0.0178 -0.0950
 2190SOL    HW1 7469   3.318   6.634   2.480  1.4883 -0.5676  0.5752
 2190SOL    HW2 7470   3.268   6.776   2.542 -0.1493  0.2976 -2.5008
 2191SOL     OW 7471   0.882   2.043   6.714  0.0536  0.2515  0.5224
 2191SOL    HW1 7472   0.868   1.945   6.699  0.9392  0.4137 -1.8833
 2191SOL    HW2 7473   0.974   2.059   6.748 -0.0961  0.2479  0.9295
 2192SOL     OW 7474   1.674   4.917   1.103  0.4576  0.7381 -0.1097
 2192SOL    HW1 7475   1.593   4.911   1.160  1.9547  2.3225  2.3702
 2192SOL    HW2 7476   1.753   4.880   1.152  1.6745  1.3788 -1.5005
 2193SOL     OW 7477   4.872   5.434   0.888  0.3046  0.3514  0.2044
 2193SOL    HW1 7478   4.825   5.510   0.843 -0.0534  0.6806  1.1082
 2193SOL    HW2 7479   4.818   5.350   0.877 -0.0006  0.5211  0.3917
 2194SOL     OW 7480   5.761   0.114   5.993 -0.5573 -0.9464 -0.7341
 2194SOL    HW1 7481   5.716   0.028   6.019 -1.2444 -0.0880  1.1675
 2194SOL    HW2 7482   5.694   0.189   5.999  0.2959 -0.1198 -1.3082
 2195SOL     OW 7483   0.012   4.898   2.157 -0.2736 -0.2288 -0.4956
 2195SOL    HW1 7484   0.041   4.884   2.252 -1.2987 -1.3832 -0.3336
 2195SOL    HW2 7485   0.091   4.927   2.102  0.7912 -1.5053  0.2973
 2196SOL     OW 7486   5.888   0.079   2.376 -0.7733  0.4497  0.2887
 2196SOL    HW1 7487   5.960   0.146   2.357 -1.3612  0.9425 -0.2615
 2196SOL    HW2 7488   5.908  -0.006   2.327 -0.1072  0.2710  0.8585
 2197SOL     OW 7489   5.888   3.172   3.608  0.0813  0.0651  0.2213
 2197SOL    HW1 7490   5.982   3.141   3.591  0.7339  1.9497  0.2190
 2197SOL    HW2 7491   5.837   3.098   3.653  1.4317 -1.1362 -0.1335
 2198SOL     OW 7492   4.056   4.404   0.828  0.1482 -0.2132 -0.3238
 2198SOL    HW1 7493   4.023   4.357   0.910  1.5570 -0.0359  0.3764
 2198SOL    HW2 7494   4.068   4.338   0.754 -1.1516 -0.3714 -0.4211
 2199SOL     OW 7495   6.915   6.459   3.773 -1.1042 -0.0646 -0.3671
 2199SOL    HW1 7496   6.999   6.481   3.824  0.0654  1.5748 -2.8247
 2199SOL    HW2 7497   6.836   6.498   3.821 -0.3356 -0.4435  1.2765
 2200SOL     OW 7498   2.269   4.768   2.056  0.4130  0.0844 -0.3870
 2200SOL    HW1 7499   2.313   4.854   2.031  1.1400  0.0644  0.7220
 2200SOL    HW2 7500   2.283   4.700   1.984  1.7421  0.2517 -0.3025
 2201SOL     OW 7501   0.671   2.658   0.399 -0.1715  0.0224  0.1651
 2201SOL    HW1 7502   0.723   2.588   0.351 -0.0606  0.4704 -0.3818
 2201SOL    HW2 7503   0.585   2.619   0.433 -0.0943 -0.3851 -0.0985
 2202SOL     OW 7504   0.623   6.564   6.582 -0.5165 -0.1269  0.6485
 2202SOL    HW1 7505   0.647   6.467   6.593  0.1794  0.1372  1.5378
 2202SOL    HW2 7506   0.700   6.612   6.539  0.0234  0.4353  2.1741
 2203SOL     OW 7507   6.420   5.996   3.802 -0.4719  0.0738  0.0846
 2203SOL    HW1 7508   6.441   6.027   3.709  0.5450 -1.4636 -0.2321
 2203SOL    HW2 7509   6.362   6.064   3.847  0.3104  1.6037 -1.1158
 2204SOL     OW 7510   2.861   6.808   1.588 -0.2599 -0.7175 -0.3379
 2204SOL    HW1 7511   2.797   6.734   1.608  0.8489 -1.9148 -1.0313
 2204SOL    HW2 7512   2.955   6.774   1.595  0.2804  0.6105 -0.7424
 2205SOL     OW 7513   0.099   5.192   4.164  0.2036  0.0504  0.4876
 2205SOL    HW1 7514   0.193   5.216   4.189  0.1451 -0.0940  0.8511
 2205SOL    HW2 7515   0.064   5.124   4.228  0.7176 -1.7885 -1.0953
 2206SOL     OW 7516   6.672   1.688   0.705 -0.1220 -0.2973  0.4253
 2206SOL    HW1 7517   6.721   1.632   0.772 -0.4400 -1.1666 -0.0485
 2206SOL    HW2 7518   6.591   1.727   0.748  0.6392  0.6561  1.0438
 2207SOL     OW 7519   0.483   2.351   5.196 -0.0476 -0.3317  0.2108
 2207SOL    HW1 7520   0.538   2.432   5.216  0.6358 -1.0312  1.2672
 2207SOL    HW2 7521   0.426   2.329   5.275  0.0189 -1.0759  0.0626
 2208SOL     OW 7522   5.814   6.199   6.646  0.3897  0.1956 -0.1478
 2208SOL    HW1 7523   5.759   6.115   6.652  2.9614 -1.6402 -0.4111
 2208SOL    HW2 7524   5.883   6.188   6.575  1.0605  2.4303  0.0981
 2209SOL     OW 7525   6.600   5.903   2.595 -0.5317 -0.2534  0.1650
 2209SOL    HW1 7526   6.512   5.938   2.629 -1.2504  0.0034 -1.8065
 2209SOL    HW2 7527   6.587   5.867   2.503  0.5736 -4.1242  1.3552
 2210SOL     OW 7528   5.734   2.144   4.624  0.4838 -0.1963  0.1876
 2210SOL    HW1 7529   5.701   2.238   4.617 -1.6314 -0.8831  0.2734
 2210SOL    HW2 7530   5.781   2.131   4.711 -0.4236  0.4465  0.7811
 2211SOL     OW 7531   4.417   4.576   0.080 -0.4160  0.2293  0.3030
 2211SOL    HW1 7532   4.351   4.636   0.124  0.1676  0.6201  0.6695
 2211SOL    HW2 7533   4.404   4.482   0.112 -0.1827  0.4639  1.1089
 2212SOL     OW 7534   5.308   4.657   6.288 -0.4413  0.4488  0.2304
 2212SOL    HW1 7535   5.350   4.720   6.354 -0.1625  0.5401 -0.0297
 2212SOL    HW2 7536   5.376   4.631   6.220 -0.8033  0.5876 -0.1921
 2213SOL     OW 7537   5.027   5.410   3.100  1.0226 -0.1080  0.1012
 2213SOL    HW1 7538   4.967   5.404   3.181  0.8848  0.6489  0.0636
 2213SOL    HW2 7539   5.082   5.328   3.094  1.2053 -0.0770  1.1101
 2214SOL     OW 7540   2.752   1.284   4.555  0.1318  0.3771  0.4375
 2214SOL    HW1 7541   2.688   1.239   4.493 -0.6475  0.2606  1.2932
 2214SOL    HW2 7542   2.835   1.308   4.506  0.1524 -1.0807 -0.2799
 2215SOL     OW 7543   6.259   6.169   6.827 -0.1352  0.0039 -0.0889
 2215SOL    HW1 7544   6.276   6.164   6.925 -0.3811 -0.7952 -0.0853
 2215SOL    HW2 7545   6.190   6.101   6.801 -0.4783  0.5807 -0.7249
 2216SOL     OW 7546   0.562   3.408   0.551 -0.0159  0.3148  1.0454
 2216SOL    HW1 7547   0.592   3.488   0.500  1.7660 -0.6132  0.5437
 2216SOL    HW2 7548   0.548   3.332   0.487  0.4272 -0.3613  1.7417
 2217SOL     OW 7549   6.041   6.515   4.743 -0.1575 -0.2899 -0.4504
 2217SOL    HW1 7550   6.139   6.536   4.748 -0.5895  2.2566 -1.1020
 2217SOL    HW2 7551   5.995   6.552   4.824 -1.0516  2.0294 -1.9183
 2218SOL     OW 7552   0.509   0.468   2.107 -0.1407 -0.7023  0.0062
 2218SOL    HW1 7553   0.418   0.505   2.127 -0.0445  0.0312 -0.8679
 2218SOL    HW2 7554   0.577   0.512   2.167  0.1047  1.2816 -1.6026
 2219SOL     OW 7555   7.008   3.035   5.702 -0.7272  0.6079  0.7059
 2219SOL    HW1 7556   6.981   3.014   5.796  0.1580 -1.0243  0.6401
 2219SOL    HW2 7557   7.081   3.103   5.702  0.0380 -0.1937  1.2812
 2220SOL     OW 7558   4.584   1.587   6.935 -0.2604 -0.1224  0.3378
 2220SOL    HW1 7559   4.575   1.523   7.012 -0.8016 -0.3367  0.1011
 2220SOL    HW2 7560   4.664   1.563   6.881 -0.1626 -0.2795  0.5511
 2221SOL     OW 7561   2.138   4.936   2.423 -0.7732 -0.1287 -0.3214
 2221SOL    HW1 7562   2.192   4.855   2.402 -1.3421 -0.5059 -0.3462
 2221SOL    HW2 7563   2.088   4.965   2.342 -0.2669  0.4913 -0.4251
 2222SOL     OW 7564   4.320   5.105   1.054 -0.1402  0.1785 -0.3317
 2222SOL    HW1 7565   4.389   5.150   1.111 -0.2772 -0.4231  0.3261
 2222SOL    HW2 7566   4.241   5.082   1.111 -1.6001  2.2927 -1.3664
 2223SOL     OW 7567   5.234   2.192   3.753  0.1731  0.5361  0.5306
 2223SOL    HW1 7568   5.235   2.227   3.847  1.6830  2.2862 -0.0696
 2223SOL    HW2 7569   5.323   2.209   3.711  0.0040 -1.5258 -0.7891
 2224SOL     OW 7570   4.355   7.002   6.747  0.4407 -0.3808  0.1749
 2224SOL    HW1 7571   4.346   7.100   6.765  1.4007 -0.0892 -0.8720
 2224SOL    HW2 7572   4.325   6.951   6.828  1.3972  0.8122  1.3323
 2225SOL     OW 7573   3.113   6.954   5.025  0.2393 -0.5225  0.2661
 2225SOL    HW1 7574   3.019   6.929   5.001  0.4826  0.4450 -1.8278
 2225SOL    HW2 7575   3.161   6.872   5.059 -0.9672 -1.3168  0.1197
 2226SOL     OW 7576   6.570   1.129   1.204 -0.6267 -0.8213  0.3793
 2226SOL    HW1 7577   6.668   1.136   1.226 -0.2326 -0.7198 -1.3129
 2226SOL    HW2 7578   6.517   1.176   1.275  0.6809  0.8867  0.3060
 2227SOL     OW 7579   3.015   4.043   1.414  0.8772  0.3693 -0.0114
 2227SOL    HW1 7580   3.068   4.122   1.383  1.5177 -0.3107 -0.6743
 2227SOL    HW2 7581   3.030   4.029   1.512  2.0904  0.0636 -0.2271
 2228SOL     OW 7582   0.386   3.773   4.502  0.3478  0.2195 -0.1874
 2228SOL    HW1 7583   0.317   3.845   4.501  0.3618  0.2716  1.1280
 2228SOL    HW2 7584   0.432   3.770   4.413 -0.4063  1.0840 -0.6268
 2229SOL     OW 7585   3.446   3.071   5.414  0.2677  0.2489 -0.5137
 2229SOL    HW1 7586   3.450   3.001   5.343  1.2036 -0.4142  0.1694
 2229SOL    HW2 7587   3.526   3.131   5.406 -0.7451  1.5287 -1.3618
 2230SOL     OW 7588   5.492   1.727   5.860  0.2475  0.0049 -0.5231
 2230SOL    HW1 7589   5.512   1.824   5.846  0.4988 -0.1672 -1.4893
 2230SOL    HW2 7590   5.436   1.693   5.784 -0.5051 -0.4290  0.2047
 2231SOL     OW 7591   3.042   1.174   6.563  0.2810  0.3296 -0.1169
 2231SOL    HW1 7592   3.136   1.143   6.554 -0.1484 -0.6564 -1.5198
 2231SOL    HW2 7593   3.029   1.258   6.509 -0.3943 -1.3456 -2.7462
 2232SOL     OW 7594   1.899   2.732   1.189 -0.3155  0.5189 -0.6586
 2232SOL    HW1 7595   1.995   2.761   1.185 -0.0840  0.1563  1.3418
 2232SOL    HW2 7596   1.840   2.809   1.166  0.4353  0.7911 -1.7422
 2233SOL     OW 7597   5.158   2.714   6.402  0.0919  0.3911  0.2827
 2233SOL    HW1 7598   5.157   2.812   6.420  1.7588  0.6245 -0.7220
 2233SOL    HW2 7599   5.174   2.664   6.487 -0.4273  0.9913  0.7397
 2234SOL     OW 7600   4.985   6.324   0.759  0.1031 -0.2462 -0.3887
 2234SOL    HW1 7601   4.893   6.354   0.733 -0.0897 -0.5252 -0.0344
 2234SOL    HW2 7602   5.053   6.381   0.712 -0.2562  1.3561  0.9319
 2235SOL     OW 7603   6.712   5.995   5.980 -0.1832 -0.5745  0.1835
 2235SOL    HW1 7604   6.681   5.917   6.035  0.4893  0.1027  1.5724
 2235SOL    HW2 7605   6.634   6.053   5.959 -0.1432  0.5431  2.7234
 2236SOL     OW 7606   5.945   1.013   1.920  0.2668 -0.4210 -0.3520
 2236SOL    HW1 7607   6.010   1.089   1.925 -0.5233  0.1914  1.2232
 2236SOL    HW2 7608   5.994   0.927   1.929  0.9907 -0.0241 -0.3768
 2237SOL     OW 7609   6.157   5.941   6.690 -0.1274 -0.1635  0.0640
 2237SOL    HW1 7610   6.190   5.875   6.757 -0.6010  0.7178  1.2029
 2237SOL    HW2 7611   6.225   5.951   6.617  0.2511 -1.3850  0.2158
 2238SOL     OW 7612   0.389   3.086   1.545 -0.7119  0.2095  0.2645
 2238SOL    HW1 7613   0.460   3.154   1.563  1.3423 -1.3683 -1.4742
 2238SOL    HW2 7614   0.368   3.037   1.630 -0.9731  1.8013  1.1555
 2239SOL     OW 7615   3.105   3.191   0.206 -0.0363 -0.4337 -0.3764
 2239SOL    HW1 7616   3.174   3.261   0.185 -0.4420  0.0296 -0.1768
 2239SOL    HW2 7617   3.014   3.231   0.197 -0.2530 -0.3387  1.8106
 2240SOL     OW 7618   0.316   5.668   3.513  0.2942  0.2634  0.3342
 2240SOL    HW1 7619   0.350   5.752   3.470  1.4426 -0.3439  0.0502
 2240SOL    HW2 7620   0.390   5.622   3.561 -0.2333 -0.8198  0.1343
 2241SOL     OW 7621   3.373   3.726   3.334  0.4360  1.0300  0.2101
 2241SOL    HW1 7622   3.288   3.684   3.368  1.7009 -1.5398  0.4150
 2241SOL    HW2 7623   3.357   3.764   3.243 -0.6538 -0.5684 -0.3097
 2242SOL     OW 7624   5.650   1.807   1.979  0.7438 -0.1081  0.3029
 2242SOL    HW1 7625   5.695   1.888   1.941 -1.1385  0.5161 -0.7286
 2242SOL    HW2 7626   5.659   1.808   2.078 -1.5618  2.9415  0.6397
 2243SOL     OW 7627   5.436   3.887   1.027  0.3681 -0.1377  0.5193
 2243SOL    HW1 7628   5.503   3.931   0.968 -0.6881  0.4295 -0.3024
 2243SOL    HW2 7629   5.457   3.789   1.035  1.7228  0.1732  0.9291
 2244SOL     OW 7630   4.563   5.402   1.508 -0.0603  0.5367  0.4395
 2244SOL    HW1 7631   4.505   5.335   1.462 -1.4081  1.5502  0.5914
 2244SOL    HW2 7632   4.606   5.360   1.588  1.2505 -0.8630 -0.9483
 2245SOL     OW 7633   3.545   0.576   4.733 -0.4990  0.1001 -0.6593
 2245SOL    HW1 7634   3.589   0.512   4.670  0.9800 -1.2751  1.6719
 2245SOL    HW2 7635   3.575   0.669   4.712  0.7195 -0.4268 -1.3566
 2246SOL     OW 7636   0.291   4.308   2.650 -0.1579 -0.0840  0.1720
 2246SOL    HW1 7637   0.218   4.255   2.693  1.2371 -2.2140  0.0328
 2246SOL    HW2 7638   0.350   4.346   2.721 -1.2634  1.5280  0.2793
 2247SOL     OW 7639   4.938   4.842   1.113  0.1230 -0.1865 -1.0170
 2247SOL    HW1 7640   4.940   4.929   1.162 -2.7676 -0.6725  0.1675
 2247SOL    HW2 7641   5.008   4.781   1.150  1.3024  1.1336 -0.9774
 2248SOL     OW 7642   1.942   4.726   5.322  0.2932 -0.4790  0.4689
 2248SOL    HW1 7643   2.031   4.719   5.366  1.4303  1.7677 -1.2295
 2248SOL    HW2 7644   1.937   4.660   5.247  1.5436  0.9018 -0.8990
 2249SOL     OW 7645   3.141   1.261   1.412 -0.1174  0.3562 -0.4895
 2249SOL    HW1 7646   3.046   1.231   1.406 -0.1800 -0.1149  1.8692
 2249SOL    HW2 7647   3.144   1.358   1.435 -0.1635 -0.1773  2.0892
 2250SOL     OW 7648   2.446   3.768   0.726  0.3366 -0.2254 -0.0971
 2250SOL    HW1 7649   2.398   3.855   0.718 -0.3203 -0.4417  1.2625
 2250SOL    HW2 7650   2.519   3.776   0.794  1.0940 -0.3993 -0.8742
 2251SOL     OW 7651   6.370   4.096   6.392 -0.4297  0.3979 -0.2815
 2251SOL    HW1 7652   6.344   4.132   6.482 -0.2879  1.3372 -0.6022
 2251SOL    HW2 7653   6.392   4.172   6.331  0.6223 -0.2741 -0.7642
 2252SOL     OW 7654   3.654   2.443   1.668  0.4433 -0.3079 -0.4430
 2252SOL    HW1 7655   3.741   2.450   1.619  2.0932  0.3382  2.3527
 2252SOL    HW2 7656   3.671   2.416   1.763 -2.2933  1.1746  0.5802
 2253SOL     OW 7657   5.885   3.245   5.179 -0.3890  0.1548 -1.1620
 2253SOL    HW1 7658   5.945   3.177   5.137  2.0044  0.1208  1.9690
 2253SOL    HW2 7659   5.833   3.203   5.253 -1.3108  1.0802 -1.2530
 2254SOL     OW 7660   6.004   5.423   0.115  0.3630  0.0644  0.1174
 2254SOL    HW1 7661   6.005   5.393   0.020 -1.1114  0.3109  0.0065
 2254SOL    HW2 7662   6.044   5.515   0.122  0.5265  0.0215 -0.2486
 2255SOL     OW 7663   6.022   5.917   1.947  0.0231  0.8136  0.0183
 2255SOL    HW1 7664   6.092   5.845   1.950 -1.5815 -0.7756  2.2389
 2255SOL    HW2 7665   6.044   5.988   2.015 -0.5817  0.2075  0.8656
 2256SOL     OW 7666   5.104   2.515   6.991  0.2682 -0.4109  0.2939
 2256SOL    HW1 7667   5.151   2.433   7.022 -1.1842 -2.0228 -1.5172
 2256SOL    HW2 7668   5.006   2.497   6.981 -0.1997  1.7321  0.4267
 2257SOL     OW 7669   0.488   5.246   2.991  0.2156  0.3348  0.0809
 2257SOL    HW1 7670   0.585   5.269   2.987 -0.1762  2.0529 -0.9200
 2257SOL    HW2 7671   0.453   5.234   2.898 -0.8667  1.5281  0.2970
 2258SOL     OW 7672   0.668   4.558   6.200 -0.0986 -0.0569  0.7642
 2258SOL    HW1 7673   0.685   4.482   6.263 -1.4067 -1.0722 -0.0645
 2258SOL    HW2 7674   0.571   4.582   6.202 -0.4401 -0.9265 -1.7006
 2259SOL     OW 7675   2.688   5.350   3.303 -0.3322  0.3215  0.2707
 2259SOL    HW1 7676   2.627   5.289   3.353 -1.2072  2.5252  2.0478
 2259SOL    HW2 7677   2.658   5.355   3.207 -0.8063 -1.2445  0.3004
 2260SOL     OW 7678   0.171   6.884   2.623  0.5058 -0.3275 -0.0586
 2260SOL    HW1 7679   0.189   6.808   2.561 -0.4705 -0.9080  0.3391
 2260SOL    HW2 7680   0.188   6.855   2.717  0.8578  0.1863  0.0370
 2261SOL     OW 7681   1.860   0.714   1.880  0.2169 -0.1949  0.1095
 2261SOL    HW1 7682   1.863   0.663   1.794  0.3806 -1.0312  0.6018
 2261SOL    HW2 7683   1.783   0.682   1.935  0.7959 -0.4848  0.7690
 2262SOL     OW 7684   1.554   2.054   3.652  0.1196  0.1905 -0.3097
 2262SOL    HW1 7685   1.621   2.122   3.683 -0.1021  1.0582 -1.6259
 2262SOL    HW2 7686   1.601   1.972   3.621  0.4747  0.2077  0.1746
 2263SOL     OW 7687   3.019   4.570   1.600  0.0204 -0.0025 -0.1201
 2263SOL    HW1 7688   2.944   4.575   1.535  0.0051 -0.3692 -0.1337
 2263SOL    HW2 7689   2.989   4.522   1.683  0.2727 -0.2684 -0.1800
 2264SOL     OW 7690   1.561   3.252   3.103 -0.0862 -0.1042 -0.4586
 2264SOL    HW1 7691   1.580   3.159   3.070  1.9143  0.6304 -1.5144
 2264SOL    HW2 7692   1.514   3.304   3.032  0.5249  0.2552 -0.6046
 2265SOL     OW 7693   1.241   1.310   5.673 -0.3643 -0.3081 -0.2133
 2265SOL    HW1 7694   1.307   1.268   5.612  0.8539 -0.9053  1.4399
 2265SOL    HW2 7695   1.284   1.328   5.762 -2.0327  0.5922  0.4587
 2266SOL     OW 7696   4.640   4.814   4.699  0.0336 -0.1887 -0.1953
 2266SOL    HW1 7697   4.590   4.729   4.683  1.5806 -0.6441 -3.3964
 2266SOL    HW2 7698   4.717   4.796   4.759  1.3171 -1.5360 -2.1324
 2267SOL     OW 7699   2.706   1.121   1.040  0.1430  0.4794 -0.9256
 2267SOL    HW1 7700   2.794   1.086   1.072 -0.7753 -3.2746 -2.0251
 2267SOL    HW2 7701   2.645   1.134   1.118  0.2991 -1.2839 -0.4635
 2268SOL     OW 7702   2.412   1.080   4.628  0.0975 -0.0232  0.0157
 2268SOL    HW1 7703   2.424   1.008   4.559  2.0166 -1.7324  1.9963
 2268SOL    HW2 7704   2.426   1.169   4.585 -0.1458 -0.9390 -2.0850
 2269SOL     OW 7705   5.868   6.403   3.399 -0.1476  0.3639  0.2382
 2269SOL    HW1 7706   5.923   6.437   3.475 -1.2900 -1.5139  2.0162
 2269SOL    HW2 7707   5.777   6.444   3.402  0.0053  0.7839 -0.5484
 2270SOL     OW 7708   6.687   4.401   2.979 -0.1683 -0.5202  0.1055
 2270SOL    HW1 7709   6.710   4.449   3.063 -0.7709 -0.8520  0.4672
 2270SOL    HW2 7710   6.627   4.458   2.923  0.8222  0.0023 -0.4508
 2271SOL     OW 7711   4.497   6.206   0.597 -0.1945 -0.2906  0.2437
 2271SOL    HW1 7712   4.438   6.264   0.653  0.0637  0.2726 -0.0629
 2271SOL    HW2 7713   4.440   6.143   0.543 -0.5150  0.2402 -0.0379
 2272SOL     OW 7714   1.245   0.618   2.256 -0.2471  0.0531 -0.5358
 2272SOL    HW1 7715   1.223   0.675   2.335  0.8130 -0.1677 -0.0538
 2272SOL    HW2 7716   1.327   0.563   2.277 -2.4452 -3.3531 -0.0853
 2273SOL     OW 7717   6.182   4.459   6.768 -0.0811  0.0065  0.1166
 2273SOL    HW1 7718   6.207   4.491   6.860 -0.3421 -0.5224  0.3760
 2273SOL    HW2 7719   6.264   4.459   6.710 -0.5580  4.3122 -0.9154
 2274SOL     OW 7720   4.833   2.683   2.111  0.4550 -0.0870  0.2520
 2274SOL    HW1 7721   4.897   2.718   2.178  0.9907 -0.6886  0.0599
 2274SOL    HW2 7722   4.849   2.728   2.023 -0.6445  1.1492  0.6435
 2275SOL     OW 7723   0.211   0.683   1.768  0.7392  0.1449 -0.0869
 2275SOL    HW1 7724   0.290   0.651   1.820  0.0229  1.1884  1.7406
 2275SOL    HW2 7725   0.225   0.664   1.671  3.1257  0.1034  0.2075
 2276SOL     OW 7726   4.210   6.890   6.983 -0.6768 -0.3546 -0.0960
 2276SOL    HW1 7727   4.177   6.802   7.016 -0.8553 -0.7174 -1.1912
 2276SOL    HW2 7728   4.138   6.959   6.991 -0.9386 -0.5978 -0.3463
 2277SOL     OW 7729   4.257   5.641   2.767 -0.1905 -0.2345 -0.0415
 2277SOL    HW1 7730   4.253   5.563   2.829 -0.2853  0.2537  0.5681
 2277SOL    HW2 7731   4.199   5.715   2.801 -0.0446  0.1335 -0.5756
 2278SOL     OW 7732   6.040   1.435   6.453 -0.2389 -0.1086 -0.0189
 2278SOL    HW1 7733   5.965   1.462   6.393 -0.5062 -0.6569  0.0551
 2278SOL    HW2 7734   6.122   1.485   6.429 -1.0330  1.7810  0.9982
 2279SOL     OW 7735   5.562   1.704   2.436 -0.2213 -0.0691 -0.2729
 2279SOL    HW1 7736   5.564   1.613   2.395  3.4022  0.7515 -2.3299
 2279SOL    HW2 7737   5.614   1.703   2.522  0.0190  0.0870 -0.4146
 2280SOL     OW 7738   4.946   5.211   1.371  0.0884  0.1771 -0.7196
 2280SOL    HW1 7739   4.920   5.188   1.464  2.8278 -2.5219 -0.4810
 2280SOL    HW2 7740   4.877   5.174   1.307 -2.1491  2.6019  0.0911
 2281SOL     OW 7741   4.200   0.617   2.742  0.3504 -0.2000 -0.2366
 2281SOL    HW1 7742   4.133   0.623   2.668 -1.2096 -0.8792  1.0530
 2281SOL    HW2 7743   4.267   0.546   2.721 -0.8170 -1.2757 -0.4586
 2282SOL     OW 7744   1.784   1.951   3.489  0.9926 -0.0466 -0.6705
 2282SOL    HW1 7745   1.820   2.000   3.409  2.0206 -1.6093 -1.2094
 2282SOL    HW2 7746   1.826   1.860   3.494 -0.0646 -0.4837  0.9002
 2283SOL     OW 7747   6.121   6.317   4.905 -0.0190  0.3831  0.3681
 2283SOL    HW1 7748   6.065   6.374   4.845  2.1826  1.7527 -0.5194
 2283SOL    HW2 7749   6.170   6.375   4.969 -0.5231 -0.8855  1.9867
 2284SOL     OW 7750   3.243   1.190   3.977 -0.5822  0.5842  0.1864
 2284SOL    HW1 7751   3.174   1.176   4.048 -1.7381  1.0610 -0.8088
 2284SOL    HW2 7752   3.299   1.108   3.968 -1.6823 -0.2054  0.3209
 2285SOL     OW 7753   5.732   6.627   5.508  0.3896  0.5825  0.6948
 2285SOL    HW1 7754   5.711   6.537   5.546 -1.2050  1.0085  0.8845
 2285SOL    HW2 7755   5.713   6.697   5.577 -1.4547  1.2841 -0.4650
 2286SOL     OW 7756   5.486   6.088   4.149 -0.0033  0.2011 -0.1189
 2286SOL    HW1 7757   5.551   6.029   4.197 -0.2747 -1.1233 -1.3318
 2286SOL    HW2 7758   5.485   6.065   4.052 -1.9418  0.5058 -0.2177
 2287SOL     OW 7759   5.450   2.450   0.897  0.0434  0.0799  0.2807
 2287SOL    HW1 7760   5.495   2.483   0.980  1.3377 -1.1040  0.0941
 2287SOL    HW2 7761   5.410   2.360   0.914  0.3338 -0.1776 -0.3696
 2288SOL     OW 7762   1.344   5.333   2.987  0.5777  0.3291  0.0219
 2288SOL    HW1 7763   1.364   5.310   2.892  1.0056  0.9930 -0.0564
 2288SOL    HW2 7764   1.245   5.326   3.002  0.6703 -1.5916  0.0364
 2289SOL     OW 7765   6.490   6.244   0.243  0.2655  0.1897  0.1505
 2289SOL    HW1 7766   6.405   6.284   0.209 -0.0168 -1.1575 -0.8037
 2289SOL    HW2 7767   6.541   6.203   0.167  0.8859 -0.6113  0.9698
 2290SOL     OW 7768   0.412   2.794   5.992 -0.4757 -0.2257  0.4308
 2290SOL    HW1 7769   0.322   2.836   5.988 -0.4749 -0.3024 -0.9970
 2290SOL    HW2 7770   0.479   2.852   5.945 -0.5777 -1.9438 -2.0589
 2291SOL     OW 7771   4.592   4.964   2.760 -0.7580 -0.3392 -0.1612
 2291SOL    HW1 7772   4.546   4.995   2.677  0.7350  0.6299 -0.6747
 2291SOL    HW2 7773   4.539   4.991   2.840 -1.0309  0.8523 -0.7304
 2292SOL     OW 7774   5.062   2.175   2.223 -0.4529 -0.6698 -0.0052
 2292SOL    HW1 7775   5.045   2.268   2.189 -3.8462 -0.7970  0.9723
 2292SOL    HW2 7776   5.089   2.180   2.319 -2.8099 -0.6559  0.7246
 2293SOL     OW 7777   5.758   2.628   4.746 -1.0783 -0.1846  0.1714
 2293SOL    HW1 7778   5.687   2.657   4.810 -2.2925  0.9882 -1.6171
 2293SOL    HW2 7779   5.750   2.680   4.661  1.5246 -0.4891 -0.3523
 2294SOL     OW 7780   6.796   1.588   6.640  0.1707 -0.5569  0.0295
 2294SOL    HW1 7781   6.843   1.509   6.602 -0.5733 -0.4961 -1.0662
 2294SOL    HW2 7782   6.703   1.563   6.666  0.3233 -0.3289  0.8404
 2295SOL     OW 7783   1.028   6.236   4.161  0.0750  0.2227  0.2394
 2295SOL    HW1 7784   1.024   6.260   4.258 -1.4338 -0.3159  0.3406
 2295SOL    HW2 7785   0.960   6.166   4.141  2.5089 -2.0533 -0.5862
 2296SOL     OW 7786   4.110   5.787   1.260 -0.0332  0.8270 -0.1664
 2296SOL    HW1 7787   4.077   5.880   1.243 -1.4289  0.3495 -0.2400
 2296SOL    HW2 7788   4.032   5.728   1.282  0.7314 -0.5063 -0.9271
 2297SOL     OW 7789   0.888   6.294   6.375 -0.1097 -0.6720 -0.1012
 2297SOL    HW1 7790   0.813   6.238   6.338  0.5194 -0.6119 -1.5523
 2297SOL    HW2 7791   0.975   6.265   6.334  0.0719  2.3736 -2.2736
 2298SOL     OW 7792   4.014   4.984   5.855 -0.1131  0.1350  0.1383
 2298SOL    HW1 7793   4.000   4.895   5.899 -1.3338  0.5128  0.5816
 2298SOL    HW2 7794   3.931   5.010   5.806  0.8201  0.2745 -1.4329
 2299SOL     OW 7795   1.705   2.697   5.867  0.0095  0.0431 -0.2238
 2299SOL    HW1 7796   1.630   2.631   5.867  0.4850 -0.5060 -0.0481
 2299SOL    HW2 7797   1.736   2.712   5.961  0.4581 -0.1281 -0.3408
 2300SOL     OW 7798   5.863   1.937   1.629 -0.7420 -0.2606 -0.2833
 2300SOL    HW1 7799   5.935   2.001   1.656 -0.9926 -0.2756  0.4425
 2300SOL    HW2 7800   5.844   1.947   1.532  1.1185 -1.1145 -0.7780
 2301SOL     OW 7801   1.481   2.201   4.794  0.4589 -0.6139 -0.4379
 2301SOL    HW1 7802   1.410   2.151   4.844 -2.0069  1.1192 -1.9297
 2301SOL    HW2 7803   1.551   2.233   4.857 -0.7143 -1.3846  1.3283
 2302SOL     OW 7804   0.286   5.326   4.320 -0.3818 -0.4243 -0.0370
 2302SOL    HW1 7805   0.245   5.332   4.411 -0.3903 -0.2184 -0.0531
 2302SOL    HW2 7806   0.376   5.283   4.327  0.8214  2.0188  0.4697
 2303SOL     OW 7807   5.761   3.833   4.148 -0.2519  0.7048 -0.3369
 2303SOL    HW1 7808   5.724   3.898   4.215 -0.7058  2.0275 -1.7958
 2303SOL    HW2 7809   5.798   3.884   4.070  1.3187 -0.7437 -0.5940
 2304SOL     OW 7810   2.511   5.859   2.409  0.4959  0.9209  0.4947
 2304SOL    HW1 7811   2.445   5.839   2.481 -1.9876  1.0043 -1.5921
 2304SOL    HW2 7812   2.539   5.955   2.415 -1.7974  1.6951 -0.1537
 2305SOL     OW 7813   3.022   5.821   1.973 -0.4708 -0.3656 -0.0359
 2305SOL    HW1 7814   2.934   5.834   2.020 -0.4196 -0.7505  0.1710
 2305SOL    HW2 7815   3.077   5.754   2.023 -0.7884 -1.4813 -1.1449
 2306SOL     OW 7816   5.432   6.338   6.101  0.4296  0.4859  1.1696
 2306SOL    HW1 7817   5.527   6.325   6.130 -0.4748 -2.2190  3.2937
 2306SOL    HW2 7818   5.391   6.250   6.080 -1.2389  1.7413 -1.2763
 2307SOL     OW 7819   5.246   1.960   1.369 -0.5066  0.5385  0.4403
 2307SOL    HW1 7820   5.293   1.988   1.452 -0.7779  0.6021  0.5736
 2307SOL    HW2 7821   5.205   1.870   1.382 -1.9004  1.2139  0.9282
 2308SOL     OW 7822   5.147   2.977   6.476  0.5406 -0.6510 -0.1835
 2308SOL    HW1 7823   5.081   2.962   6.550  2.0625  1.3916  1.7341
 2308SOL    HW2 7824   5.126   3.064   6.431  1.4665 -0.3332 -0.0205
 2309SOL     OW 7825   5.602   0.403   5.147 -0.1603 -0.4415  0.0484
 2309SOL    HW1 7826   5.538   0.474   5.115 -0.5996  0.3052  2.3701
 2309SOL    HW2 7827   5.669   0.445   5.209  0.4407 -1.8282  0.3597
 2310SOL     OW 7828   0.814   1.307   3.279  0.1293 -0.2960  0.7996
 2310SOL    HW1 7829   0.893   1.312   3.340 -0.5301  0.8312  1.6015
 2310SOL    HW2 7830   0.790   1.211   3.264 -0.7399 -0.6695  3.7608
 2311SOL     OW 7831   6.336   3.691   4.968 -0.3164  0.5426 -0.4372
 2311SOL    HW1 7832   6.307   3.598   4.942 -0.9936  0.8247 -0.7293
 2311SOL    HW2 7833   6.401   3.686   5.043 -0.7692 -0.1473 -0.0814
 2312SOL     OW 7834   2.516   6.658   4.202  0.6401  0.1371  0.1330
 2312SOL    HW1 7835   2.523   6.570   4.249  3.3580 -0.5147 -1.2429
 2312SOL    HW2 7836   2.442   6.653   4.134 -0.0993 -0.6157  0.9686
 2313SOL     OW 7837   6.144   1.815   2.876 -0.1030  0.7248  0.3417
 2313SOL    HW1 7838   6.069   1.848   2.933 -0.8633  0.6958 -0.6053
 2313SOL    HW2 7839   6.121   1.829   2.779 -0.6962 -2.8347 -0.1969
 2314SOL     OW 7840   2.564   0.701   0.667  0.1310  0.1343 -0.3919
 2314SOL    HW1 7841   2.538   0.688   0.763 -1.5513 -2.7123 -1.1145
 2314SOL    HW2 7842   2.504   0.770   0.626 -0.3670  0.0276  0.1372
 2315SOL     OW 7843   0.962   6.382   3.546 -0.2022  0.1329  0.6663
 2315SOL    HW1 7844   0.919   6.335   3.469 -2.0769  1.8176  0.5784
 2315SOL    HW2 7845   1.061   6.370   3.542 -0.3699 -1.0101 -1.1899
 2316SOL     OW 7846   0.211   1.321   1.696 -0.6810  0.2868  1.2845
 2316SOL    HW1 7847   0.181   1.226   1.708  1.6373 -0.5889  0.6141
 2316SOL    HW2 7848   0.220   1.364   1.786  0.8989 -1.0382  1.8013
 2317SOL     OW 7849   2.636   0.834   6.996  0.1770  0.1635  0.6335
 2317SOL    HW1 7850   2.560   0.892   7.028  0.7491  0.6062  1.2152
 2317SOL    HW2 7851   2.601   0.743   6.976 -0.4787  0.2996  1.0989
 2318SOL     OW 7852   4.695   1.022   3.705  0.1538 -0.2450 -0.1165
 2318SOL    HW1 7853   4.711   1.079   3.785 -0.3626  1.2947 -1.0686
 2318SOL    HW2 7854   4.774   0.962   3.691  1.4162  1.2989  0.0810
 2319SOL     OW 7855   1.984   6.072   2.601 -0.1808 -0.3041  0.5249
 2319SOL    HW1 7856   1.965   5.975   2.614  1.6981 -0.6146  1.2199
 2319SOL    HW2 7857   1.917   6.126   2.653 -1.6420 -1.1726 -0.3961
 2320SOL     OW 7858   2.452   4.571   6.617  0.1315  0.2377 -0.5214
 2320SOL    HW1 7859   2.424   4.664   6.593  1.8639  1.0283  0.3270
 2320SOL    HW2 7860   2.412   4.547   6.706 -0.1887  0.2316 -0.6665
 2321SOL     OW 7861   6.888   1.843   3.203 -0.3611  0.0147 -0.1570
 2321SOL    HW1 7862   6.877   1.745   3.221 -2.8357 -0.1067 -1.8716
 2321SOL    HW2 7863   6.827   1.895   3.263  0.8498  0.5633  0.6534
 2322SOL     OW 7864   3.675   1.564   0.329  0.3822 -1.3397  0.2226
 2322SOL    HW1 7865   3.619   1.481   0.339  0.4394 -1.5652 -1.1659
 2322SOL    HW2 7866   3.752   1.560   0.392 -0.6782 -1.4082  1.5842
 2323SOL     OW 7867   5.553   5.776   6.286  0.1319  0.1692  0.2789
 2323SOL    HW1 7868   5.638   5.824   6.308  0.1516  1.0901 -1.5756
 2323SOL    HW2 7869   5.572   5.702   6.222 -0.2077 -0.9918  1.4761
 2324SOL     OW 7870   3.232   5.163   0.930 -0.1818  0.2764 -0.1342
 2324SOL    HW1 7871   3.189   5.156   1.020  0.0207 -0.5658 -0.0886
 2324SOL    HW2 7872   3.330   5.144   0.939 -0.1795  0.0920 -0.5464
 2325SOL     OW 7873   6.243   3.929   4.794 -1.0042 -0.7531 -0.2712
 2325SOL    HW1 7874   6.243   4.017   4.842 -1.2930 -0.7885 -0.2052
 2325SOL    HW2 7875   6.262   3.856   4.860  0.5951 -0.6256 -0.5508
 2326SOL     OW 7876   3.721   0.920   0.209 -0.0208  0.4601 -0.1049
 2326SOL    HW1 7877   3.643   0.980   0.226  0.2745  0.7422  0.2535
 2326SOL    HW2 7878   3.804   0.976   0.195  0.0923  0.1719 -0.6386
 2327SOL     OW 7879   6.826   3.365   6.927 -0.0948  0.6704  0.1500
 2327SOL    HW1 7880   6.739   3.317   6.919  1.3499 -1.9488 -1.0432
 2327SOL    HW2 7881   6.849   3.408   6.840  0.1643  0.6577  0.2096
 2328SOL     OW 7882   1.798   0.757   3.963 -0.2740  0.3665  0.7289
 2328SOL    HW1 7883   1.719   0.802   4.006 -2.5799 -1.7530 -0.9814
 2328SOL    HW2 7884   1.878   0.767   4.022 -2.2063  1.1957  3.4263
 2329SOL     OW 7885   3.463   2.357   6.248  0.2482 -0.2742  0.0809
 2329SOL    HW1 7886   3.402   2.394   6.318  0.6027 -0.1223  0.3150
 2329SOL    HW2 7887   3.434   2.389   6.158 -0.0961 -0.3121  0.1787
 2330SOL     OW 7888   5.995   6.643   4.162 -0.6336  0.3730 -0.5492
 2330SOL    HW1 7889   5.970   6.572   4.228  0.3315  0.5962  0.0831
 2330SOL    HW2 7890   5.983   6.733   4.203 -1.3897  0.5736 -1.1832
 2331SOL     OW 7891   3.363   2.344   0.863 -0.1051 -0.5989  0.2720
 2331SOL    HW1 7892   3.379   2.268   0.800  1.2573  0.0940 -0.2580
 2331SOL    HW2 7893   3.410   2.326   0.950  3.2917  1.0851 -1.0189
 2332SOL     OW 7894   1.868   3.156   1.214  0.0455  0.7828  0.0734
 2332SOL    HW1 7895   1.824   3.238   1.176 -0.4122  0.8919  0.8216
 2332SOL    HW2 7896   1.821   3.075   1.180  1.4860  0.7146 -1.9649
 2333SOL     OW 7897   4.231   3.219   5.505 -0.1390 -0.7935  0.0503
 2333SOL    HW1 7898   4.215   3.122   5.526  0.8476 -0.8308  0.6791
 2333SOL    HW2 7899   4.324   3.230   5.469 -0.1996 -0.0582  0.1073
 2334SOL     OW 7900   2.646   5.181   0.663  0.0170  0.6985 -0.4087
 2334SOL    HW1 7901   2.727   5.126   0.644 -0.6044 -0.3594 -0.0675
 2334SOL    HW2 7902   2.663   5.276   0.636  1.2224  0.4143 -0.6985
 2335SOL     OW 7903   0.854   1.808   4.516  0.2222  0.5442  0.2207
 2335SOL    HW1 7904   0.761   1.843   4.505  0.0463 -0.2623 -0.9574
 2335SOL    HW2 7905   0.877   1.805   4.614 -1.8033 -1.3342  0.7022
 2336SOL     OW 7906   1.610   4.540   3.909  0.4969  0.6242 -0.1147
 2336SOL    HW1 7907   1.678   4.614   3.902  0.4650  0.5150 -3.0799
 2336SOL    HW2 7908   1.576   4.519   3.817  0.3424 -2.9603  0.6406
 2337SOL     OW 7909   4.224   1.812   0.225 -0.2299  0.4488  0.3954
 2337SOL    HW1 7910   4.300   1.758   0.191 -0.3482  0.4800  0.0755
 2337SOL    HW2 7911   4.199   1.882   0.157  0.5965  1.5934  1.2357
 2338SOL     OW 7912   2.417   0.476   1.020 -0.0001 -0.4830  0.0683
 2338SOL    HW1 7913   2.399   0.403   1.086 -1.2433  1.1547  1.6741
 2338SOL    HW2 7914   2.469   0.440   0.943  1.4867 -2.5357  1.8990
 2339SOL     OW 7915   6.458   0.118   0.122 -0.2586 -0.3476  0.1867
 2339SOL    HW1 7916   6.501   0.149   0.038 -0.2634 -1.7522 -0.3650
 2339SOL    HW2 7917   6.411   0.031   0.106  0.2805 -0.9772  1.7712
 2340SOL     OW 7918   6.599   5.480   4.932  0.1804  0.3889  0.2430
 2340SOL    HW1 7919   6.654   5.443   4.858 -0.0253 -1.0965  0.7868
 2340SOL    HW2 7920   6.513   5.517   4.896  1.0240  1.7001 -0.4780
 2341SOL     OW 7921   1.195   5.164   0.532 -0.4379 -0.1589  0.1941
 2341SOL    HW1 7922   1.198   5.258   0.568 -0.6442  0.0322 -0.2848
 2341SOL    HW2 7923   1.180   5.100   0.608 -2.5183  0.3637  0.2780
 2342SOL     OW 7924   3.078   3.365   1.476 -0.2561 -0.1199 -0.0267
 2342SOL    HW1 7925   3.133   3.449   1.471 -1.2603  0.5761  0.2653
 2342SOL    HW2 7926   3.017   3.370   1.556 -0.3160 -1.1387 -0.0017
 2343SOL     OW 7927   5.745   2.926   0.399 -0.3356 -0.6668  0.4043
 2343SOL    HW1 7928   5.807   2.967   0.332  1.3419 -2.0078  1.0665
 2343SOL    HW2 7929   5.687   2.997   0.439  1.7426  0.9082  0.7811
 2344SOL     OW 7930   1.894   5.886   4.917 -0.2901  0.4825 -0.1087
 2344SOL    HW1 7931   1.957   5.908   4.842  0.5755  1.5155  0.8871
 2344SOL    HW2 7932   1.945   5.880   5.003 -1.5444  1.3502  0.7265
 2345SOL     OW 7933   1.991   6.576   0.469 -0.2236 -0.2468 -0.5426
 2345SOL    HW1 7934   2.064   6.613   0.412  0.6869  2.4818  2.1406
 2345SOL    HW2 7935   2.027   6.503   0.527  0.3370  0.8573  0.5280
 2346SOL     OW 7936   6.770   6.161   3.384 -0.4252 -0.4315  0.2328
 2346SOL    HW1 7937   6.760   6.215   3.468  0.0219 -2.6143  1.7890
 2346SOL    HW2 7938   6.848   6.099   3.394 -1.6958 -2.2926 -0.8761
 2347SOL     OW 7939   1.025   3.051   1.377  0.2243  0.3646 -0.1998
 2347SOL    HW1 7940   1.013   2.984   1.304  2.5012 -0.0927 -0.2354
 2347SOL    HW2 7941   1.098   3.114   1.352 -1.1872  2.2808  0.2924
 2348SOL     OW 7942   5.105   4.938   0.409  0.2369 -0.2756  0.4821
 2348SOL    HW1 7943   5.198   4.969   0.429 -0.1663  1.6856 -0.4242
 2348SOL    HW2 7944   5.109   4.856   0.351  1.3726 -0.8059  1.2685
 2349SOL     OW 7945   4.951   6.147   3.025 -0.7125  0.0951 -0.2561
 2349SOL    HW1 7946   4.880   6.135   3.095  1.0150 -1.2799  1.3434
 2349SOL    HW2 7947   4.999   6.233   3.041 -0.1715 -0.3237  0.4170
 2350SOL     OW 7948   0.045   3.466   6.049  0.0681 -0.1316 -0.6164
 2350SOL    HW1 7949   0.137   3.499   6.027 -0.5996  0.5809 -2.4495
 2350SOL    HW2 7950  -0.019   3.543   6.052 -0.4875 -0.6113  0.7275
 2351SOL     OW 7951   6.690   6.180   0.722  0.8946  0.2233  0.7016
 2351SOL    HW1 7952   6.622   6.135   0.781  0.0678  1.8256  1.0202
 2351SOL    HW2 7953   6.763   6.216   0.779  1.7835 -1.0276  0.4049
 2352SOL     OW 7954   2.250   1.335   3.173 -0.6166 -0.0363  0.2289
 2352SOL    HW1 7955   2.327   1.346   3.237  0.6049  0.0447 -1.1969
 2352SOL    HW2 7956   2.227   1.239   3.165  1.6633 -0.5044 -1.8706
 2353SOL     OW 7957   3.760   2.087   4.658  0.6692  0.0360 -0.2893
 2353SOL    HW1 7958   3.818   2.101   4.738  2.0549  1.5682 -1.5028
 2353SOL    HW2 7959   3.664   2.098   4.684  1.1453  1.5508  0.9814
 2354SOL     OW 7960   1.780   2.633   0.963  0.1254  0.4965 -0.0193
 2354SOL    HW1 7961   1.789   2.694   0.884  0.2833  1.7921  0.9603
 2354SOL    HW2 7962   1.849   2.657   1.031 -0.5389 -0.0466  0.8672
 2355SOL     OW 7963   6.935   1.999   4.150  0.1604  0.1373 -0.0837
 2355SOL    HW1 7964   6.944   2.098   4.157  0.4712  0.0443  1.1668
 2355SOL    HW2 7965   6.869   1.966   4.218  1.2726 -0.6543  0.6664
 2356SOL     OW 7966   1.422   3.325   4.789  0.3762  0.2215  0.5559
 2356SOL    HW1 7967   1.402   3.423   4.779 -3.7258 -0.2616  2.2451
 2356SOL    HW2 7968   1.435   3.303   4.885  2.7731 -0.7631  0.0714
 2357SOL     OW 7969   6.068   3.360   1.790 -0.2561 -0.6052  0.1220
 2357SOL    HW1 7970   6.093   3.339   1.884  0.9206  0.3533  0.0592
 2357SOL    HW2 7971   6.146   3.405   1.745 -1.7678  1.6383 -0.4238
 2358SOL     OW 7972   3.349   0.987   2.493 -0.7469 -0.1603 -0.5465
 2358SOL    HW1 7973   3.413   1.028   2.429 -0.2488 -0.1596 -0.0555
 2358SOL    HW2 7974   3.274   0.944   2.443 -1.4629  1.6220 -1.0817
 2359SOL     OW 7975   0.624   2.184   4.753 -0.6908 -0.4901  0.1571
 2359SOL    HW1 7976   0.524   2.180   4.745 -0.7196  1.0452 -0.7033
 2359SOL    HW2 7977   0.666   2.162   4.665 -0.2930 -0.5391  0.3546
 2360SOL     OW 7978   2.795   5.312   2.063 -0.3489  0.1744 -0.2877
 2360SOL    HW1 7979   2.858   5.338   1.990 -0.1038 -1.3000 -0.6430
 2360SOL    HW2 7980   2.803   5.214   2.080 -0.3278  0.5073  1.8155
 2361SOL     OW 7981   1.991   1.192   1.849 -0.6628  0.2852  0.1334
 2361SOL    HW1 7982   1.964   1.114   1.905 -0.3209  0.0488 -0.0298
 2361SOL    HW2 7983   1.956   1.180   1.756  1.0854 -0.6808 -0.4534
 2362SOL     OW 7984   4.766   1.398   3.894 -0.0999 -0.6920  0.4562
 2362SOL    HW1 7985   4.814   1.428   3.811 -1.6736  1.3277  0.1938
 2362SOL    HW2 7986   4.800   1.451   3.972 -0.0521 -1.1514  0.7473
 2363SOL     OW 7987   6.782   4.124   0.229 -0.4252  0.2586  0.3572
 2363SOL    HW1 7988   6.786   4.114   0.130 -0.5093 -0.1617  0.3940
 2363SOL    HW2 7989   6.770   4.221   0.252 -1.5261  0.2397 -0.0771
 2364SOL     OW 7990   3.588   6.244   2.967  0.4374  0.0346 -0.7763
 2364SOL    HW1 7991   3.685   6.269   2.969  0.1416  1.2185 -0.2053
 2364SOL    HW2 7992   3.541   6.289   3.042 -0.3372 -1.5625 -0.2750
 2365SOL     OW 7993   4.208   6.285   2.060 -0.2840 -0.1483  0.1954
 2365SOL    HW1 7994   4.283   6.304   1.996  0.3856  0.4606  1.1413
 2365SOL    HW2 7995   4.233   6.316   2.151 -0.9781 -1.5855  0.9044
 2366SOL     OW 7996   2.333   5.106   0.217  0.1689  0.0874  0.3444
 2366SOL    HW1 7997   2.322   5.201   0.248  0.8645 -0.1255  1.3034
 2366SOL    HW2 7998   2.398   5.103   0.141  0.1087  0.3823  0.2785
 2367SOL     OW 7999   5.847   1.478   5.431  0.3937  0.5863 -0.1415
 2367SOL    HW1 8000   5.866   1.390   5.386 -1.8920  0.5134 -1.1036
 2367SOL    HW2 8001   5.797   1.462   5.516  2.7300  0.8567  1.3711
 2368SOL     OW 8002   1.130   0.377   0.104  0.5478 -0.0547 -0.5301
 2368SOL    HW1 8003   1.078   0.358   0.187  1.3166 -1.3095 -0.3069
 2368SOL    HW2 8004   1.219   0.331   0.109  0.4645 -0.4702 -2.2140
 2369SOL     OW 8005   1.709   3.436   3.209 -0.3454  0.5024  0.2437
 2369SOL    HW1 8006   1.640   3.371   3.179  0.5219 -0.6784  0.7366
 2369SOL    HW2 8007   1.749   3.482   3.130  0.4753 -1.0689 -0.2798
 2370SOL     OW 8008   6.507   0.851   6.208 -0.0909  0.5404 -0.1531
 2370SOL    HW1 8009   6.583   0.799   6.246  0.9871  0.8995 -1.7307
 2370SOL    HW2 8010   6.479   0.923   6.271  1.1083  0.6174  0.2988
 2371SOL     OW 8011   1.717   2.055   0.377  0.0146  0.2871  0.0616
 2371SOL    HW1 8012   1.815   2.050   0.357 -0.0824 -0.0139 -0.3707
 2371SOL    HW2 8013   1.695   2.145   0.414  0.0803  1.2503 -2.0810
 2372SOL     OW 8014   3.615   2.816   1.611 -0.1599  0.2461 -0.2821
 2372SOL    HW1 8015   3.597   2.906   1.572  1.5067  0.1089 -1.4762
 2372SOL    HW2 8016   3.530   2.778   1.648 -1.3796  1.2938 -1.8791
 2373SOL     OW 8017   6.598   0.716   2.851  0.2614 -0.5790  0.3590
 2373SOL    HW1 8018   6.547   0.631   2.868 -0.0669 -0.0099  2.3979
 2373SOL    HW2 8019   6.538   0.782   2.806 -0.0246 -0.7873  0.4285
 2374SOL     OW 8020   5.148   3.584   0.561 -0.3364  0.0030  0.1828
 2374SOL    HW1 8021   5.098   3.594   0.475 -0.4551 -1.2010  0.0967
 2374SOL    HW2 8022   5.110   3.646   0.629 -0.9523  0.1925 -0.3259
 2375SOL     OW 8023   6.588   2.690   1.707 -0.1115  0.4462 -0.1950
 2375SOL    HW1 8024   6.489   2.674   1.709  0.2241 -2.1528 -0.5923
 2375SOL    HW2 8025   6.616   2.716   1.615 -0.3746  0.7388 -0.1910
 2376SOL     OW 8026   5.593   2.724   4.551 -0.6862 -0.1049 -0.1959
 2376SOL    HW1 8027   5.589   2.806   4.493 -0.5089  1.1653  1.5209
 2376SOL    HW2 8028   5.590   2.642   4.493 -0.4324  1.0997 -1.9854
 2377SOL     OW 8029   2.463   0.954   3.870 -0.1106  0.1744 -0.7631
 2377SOL    HW1 8030   2.558   0.966   3.899  0.2563  1.1225 -2.2608
 2377SOL    HW2 8031   2.459   0.884   3.799 -0.8575 -1.3640  0.6981
 2378SOL     OW 8032   3.067   5.084   1.149  0.0157  0.2202 -0.5192
 2378SOL    HW1 8033   3.013   5.080   1.232 -0.5600 -2.9983 -0.9229
 2378SOL    HW2 8034   3.009   5.107   1.071  0.2526  1.6552 -0.2982
 2379SOL     OW 8035   6.267   3.752   3.766 -0.0789 -0.0721  0.1086
 2379SOL    HW1 8036   6.318   3.698   3.833 -1.1456 -1.1966  0.0606
 2379SOL    HW2 8037   6.302   3.733   3.674  0.5465  0.4984  0.2221
 2380SOL     OW 8038   2.160   1.308   4.973 -0.1317 -0.5589  0.0434
 2380SOL    HW1 8039   2.118   1.234   5.026 -0.0382  0.4769  1.6261
 2380SOL    HW2 8040   2.155   1.393   5.025  2.2646 -0.0170 -0.5183
 2381SOL     OW 8041   0.456   0.339   5.685  0.6577  0.4340 -0.5419
 2381SOL    HW1 8042   0.549   0.355   5.653  1.4763  0.2068  1.5651
 2381SOL    HW2 8043   0.422   0.422   5.729  0.1389  0.2723 -0.6321
 2382SOL     OW 8044   3.619   6.276   2.049 -0.4957  0.0291 -0.3540
 2382SOL    HW1 8045   3.668   6.290   1.962 -1.8273 -0.7917 -1.2679
 2382SOL    HW2 8046   3.593   6.365   2.087  0.8950  0.4378 -0.3027
 2383SOL     OW 8047   5.431   1.838   3.710 -0.0154  0.5000 -0.0958
 2383SOL    HW1 8048   5.472   1.845   3.619  0.3882  0.6287  0.0959
 2383SOL    HW2 8049   5.495   1.872   3.779 -0.5782  1.0477  0.1706
 2384SOL     OW 8050   1.561   2.883   3.483 -0.0161 -0.0904  0.0398
 2384SOL    HW1 8051   1.464   2.908   3.478  0.2521  0.7725 -1.4309
 2384SOL    HW2 8052   1.616   2.964   3.502  0.4486 -0.5329  0.6331
 2385SOL     OW 8053   6.704   6.054   2.288  0.1741  0.0565  0.3996
 2385SOL    HW1 8054   6.686   6.002   2.204 -3.3258 -0.1267  1.1350
 2385SOL    HW2 8055   6.675   6.001   2.367 -0.1596  1.7356  1.4437
 2386SOL     OW 8056   3.359   5.980   4.504  0.3089 -0.5172  0.0823
 2386SOL    HW1 8057   3.369   5.978   4.404 -0.3005  0.3666 -0.0075
 2386SOL    HW2 8058   3.419   5.912   4.545  3.4486  1.5875 -0.6601
 2387SOL     OW 8059   5.789   4.681   2.754  0.2759 -0.0807 -0.0749
 2387SOL    HW1 8060   5.796   4.780   2.760 -1.7371  0.0426  1.5701
 2387SOL    HW2 8061   5.817   4.650   2.663  3.1472  1.7130  0.0899
 2388SOL     OW 8062   5.256   5.272   6.248  0.1080  0.1441 -0.0761
 2388SOL    HW1 8063   5.339   5.218   6.231 -0.2506 -0.4420  0.0047
 2388SOL    HW2 8064   5.282   5.364   6.278  0.7294  0.0075 -0.1753
 2389SOL     OW 8065   1.023   2.109   3.799 -0.3144  0.0951 -0.0654
 2389SOL    HW1 8066   1.121   2.104   3.779 -0.8017  0.1966 -2.8593
 2389SOL    HW2 8067   1.009   2.101   3.898  2.2769 -3.7442  0.2396
 2390SOL     OW 8068   0.122   5.668   3.704  0.1206  0.3818  0.4797
 2390SOL    HW1 8069   0.172   5.630   3.627  0.5848 -0.9050  1.3771
 2390SOL    HW2 8070   0.147   5.764   3.716  1.4898  0.0810  0.1928
 2391SOL     OW 8071   5.552   6.135   2.347 -0.5778 -0.0425  0.3383
 2391SOL    HW1 8072   5.487   6.106   2.417  0.4968 -1.0496  0.9639
 2391SOL    HW2 8073   5.613   6.059   2.324 -0.5746  0.4146 -1.3398
 2392SOL     OW 8074   0.807   5.147   3.198 -0.6008  0.1022 -0.0185
 2392SOL    HW1 8075   0.840   5.056   3.226  1.0182 -0.4498 -3.1939
 2392SOL    HW2 8076   0.856   5.217   3.251 -0.5363 -0.8224  1.2145
 2393SOL     OW 8077   0.057   4.792   4.124 -0.2890  0.4300  0.1261
 2393SOL    HW1 8078   0.130   4.764   4.062 -0.3341  0.5244  0.0286
 2393SOL    HW2 8079   0.074   4.886   4.155  1.2795 -0.5663  2.5421
 2394SOL     OW 8080   3.663   0.786   6.789 -0.7108 -0.4541 -0.2383
 2394SOL    HW1 8081   3.583   0.745   6.832 -1.1450 -1.7956 -2.1704
 2394SOL    HW2 8082   3.726   0.713   6.762  0.0869  0.4241 -0.7831
 2395SOL     OW 8083   4.871   2.726   0.187  0.4196  0.5018 -0.3960
 2395SOL    HW1 8084   4.830   2.781   0.115 -0.0614  1.1136  0.3285
 2395SOL    HW2 8085   4.907   2.786   0.259 -1.1573 -0.1145  0.9738
 2396SOL     OW 8086   4.601   2.163   2.987  0.7272 -0.4853  0.4648
 2396SOL    HW1 8087   4.637   2.102   3.058  1.0048  0.6178  1.2841
 2396SOL    HW2 8088   4.572   2.249   3.028  0.9954  0.2173 -0.7749
 2397SOL     OW 8089   3.821   0.269   3.152  0.4125  0.3022  0.3214
 2397SOL    HW1 8090   3.894   0.335   3.171  0.0709  0.5158  0.9536
 2397SOL    HW2 8091   3.752   0.275   3.224  1.4751 -2.3501  1.7130
 2398SOL     OW 8092   3.212   6.130   3.045 -0.6119  0.1341  0.1144
 2398SOL    HW1 8093   3.170   6.141   3.135 -1.9136 -0.3110 -0.4150
 2398SOL    HW2 8094   3.282   6.201   3.032 -1.6506  1.3314  0.7840
 2399SOL     OW 8095   5.229   1.421   6.986  0.2658 -0.2287  0.2064
 2399SOL    HW1 8096   5.329   1.424   6.989  0.2570 -0.3691  0.7286
 2399SOL    HW2 8097   5.199   1.387   6.897  0.7271 -2.2320  0.7732
 2400SOL     OW 8098   3.273   2.059   0.328 -0.0345  0.4100  0.1769
 2400SOL    HW1 8099   3.250   1.963   0.312  1.2345 -0.1118  1.2561
 2400SOL    HW2 8100   3.274   2.077   0.427  1.5473  1.0215  0.0831
 2401SOL     OW 8101   1.081   3.303   3.453 -0.1336  0.5224  0.2355
 2401SOL    HW1 8102   1.003   3.318   3.513 -0.8601  0.1234 -0.5853
 2401SOL    HW2 8103   1.166   3.321   3.503 -0.4369 -3.4737  2.6600
 2402SOL     OW 8104   5.748   3.426   6.049 -0.0529 -0.0662  0.2647
 2402SOL    HW1 8105   5.817   3.370   6.003 -1.4431 -1.1810 -0.5520
 2402SOL    HW2 8106   5.679   3.367   6.090 -1.5650  1.0232 -0.6279
 2403SOL     OW 8107   6.432   3.864   2.872 -0.0126 -0.3979 -0.6954
 2403SOL    HW1 8108   6.431   3.854   2.773 -1.3756  0.0349 -0.7553
 2403SOL    HW2 8109   6.383   3.788   2.913 -1.1802  0.4350 -0.4970
 2404SOL     OW 8110   0.168   5.004   5.644  0.7080 -0.4834 -0.4630
 2404SOL    HW1 8111   0.254   5.042   5.609  1.3460 -2.4779 -1.2258
 2404SOL    HW2 8112   0.091   5.055   5.605  1.5008  1.3393  0.2383
 2405SOL     OW 8113   3.261   5.422   3.069  0.1109 -0.0056  0.4979
 2405SOL    HW1 8114   3.294   5.365   2.994 -2.1861 -1.4139  0.4469
 2405SOL    HW2 8115   3.162   5.409   3.080  0.1228  1.2679  2.8540
 2406SOL     OW 8116   2.987   4.638   0.023 -0.3074  0.5391  0.1250
 2406SOL    HW1 8117   3.068   4.674  -0.022 -0.7421  1.7409  0.2776
 2406SOL    HW2 8118   2.963   4.696   0.101  0.4082 -1.4631  1.9530
 2407SOL     OW 8119   3.256   3.130   4.869  0.1968  0.2821 -0.6159
 2407SOL    HW1 8120   3.264   3.170   4.777 -1.8917  0.7858 -0.6093
 2407SOL    HW2 8121   3.273   3.201   4.937 -1.6526  0.7825 -0.6231
 2408SOL     OW 8122   1.439   1.583   1.900 -0.2432 -0.5966 -0.3825
 2408SOL    HW1 8123   1.536   1.607   1.890 -0.7270  2.1479  0.4606
 2408SOL    HW2 8124   1.419   1.565   1.996 -1.1328  2.3482  0.0959
 2409SOL     OW 8125   3.746   0.629   0.112 -0.5033  0.1798 -0.0572
 2409SOL    HW1 8126   3.736   0.720   0.152 -0.7858 -0.0759  0.4655
 2409SOL    HW2 8127   3.655   0.588   0.101 -0.4309  0.2605 -1.0039
 2410SOL     OW 8128   3.138   0.169   0.741 -0.0258 -0.4398  0.2120
 2410SOL    HW1 8129   3.164   0.210   0.828  3.6291  0.1319 -0.9989
 2410SOL    HW2 8130   3.105   0.076   0.756 -1.1701  0.2375  2.2942
 2411SOL     OW 8131   0.357   4.506   3.885 -0.2535 -0.4167  0.2599
 2411SOL    HW1 8132   0.338   4.537   3.978  0.3830  2.1975 -0.4020
 2411SOL    HW2 8133   0.305   4.562   3.820  1.1730 -0.5603 -1.0498
 2412SOL     OW 8134   0.725   6.832   0.687  0.1430 -0.1956  0.2924
 2412SOL    HW1 8135   0.761   6.871   0.771  2.9391  0.3830 -1.0479
 2412SOL    HW2 8136   0.739   6.897   0.612  1.4698 -2.1989 -1.3211
 2413SOL     OW 8137   3.611   4.645   6.783  0.3164  0.0321  0.2847
 2413SOL    HW1 8138   3.644   4.562   6.739  0.9171  0.5423 -0.2447
 2413SOL    HW2 8139   3.547   4.692   6.723  1.3734  0.8897 -0.2184
 2414SOL     OW 8140   5.675   1.524   3.205  1.1271  0.4199  0.7148
 2414SOL    HW1 8141   5.763   1.573   3.205  2.5726 -1.9964 -0.1626
 2414SOL    HW2 8142   5.689   1.431   3.239 -0.8767 -0.3840 -0.4957
 2415SOL     OW 8143   6.977   0.752   0.119  0.5090  0.0276  0.1292
 2415SOL    HW1 8144   6.986   0.783   0.214  1.4287 -0.3529  0.1836
 2415SOL    HW2 8145   6.881   0.756   0.091  0.2266  0.1493  1.0757
 2416SOL     OW 8146   4.384   3.021   6.680 -0.4227 -0.2451 -0.0415
 2416SOL    HW1 8147   4.292   3.030   6.719  0.3383  1.1706  1.4972
 2416SOL    HW2 8148   4.430   2.944   6.723 -0.6599 -0.5958 -0.4005
 2417SOL     OW 8149   4.789   3.865   1.032 -0.0413  0.0765 -0.1306
 2417SOL    HW1 8150   4.718   3.823   1.089 -0.2638  0.7705  0.1166
 2417SOL    HW2 8151   4.828   3.943   1.080 -0.3913  0.8149 -1.0113
 2418SOL     OW 8152   4.987   0.926   3.753  0.2112 -0.6375  0.0352
 2418SOL    HW1 8153   4.996   1.025   3.742 -3.1027 -0.3033 -0.9641
 2418SOL    HW2 8154   4.944   0.906   3.841 -0.4905 -1.0369 -0.3834
 2419SOL     OW 8155   3.287   0.672   0.500 -0.0262 -0.0073 -0.7715
 2419SOL    HW1 8156   3.345   0.747   0.467  1.7476 -1.1164 -0.2892
 2419SOL    HW2 8157   3.215   0.710   0.558  1.1995  1.2919 -0.0251
 2420SOL     OW 8158   0.300   5.101   1.524  0.4893  0.2012  0.6300
 2420SOL    HW1 8159   0.249   5.031   1.573  0.1443 -0.3031 -0.4242
 2420SOL    HW2 8160   0.354   5.059   1.451  0.9681  0.9393  0.5431
 2421SOL     OW 8161   5.488   6.723   6.361  0.4948 -0.3059 -0.5699
 2421SOL    HW1 8162   5.587   6.730   6.347  0.6654 -1.6103 -0.1431
 2421SOL    HW2 8163   5.444   6.695   6.275  0.6546 -1.0085 -0.4247
 2422SOL     OW 8164   1.645   2.372   6.919 -0.4810 -0.0221  0.5870
 2422SOL    HW1 8165   1.658   2.404   7.013  0.3830  0.2012  0.3952
 2422SOL    HW2 8166   1.707   2.296   6.900  0.0496  0.5661 -0.1048
 2423SOL     OW 8167   5.186   1.817   1.685  0.1033 -0.1298  0.0001
 2423SOL    HW1 8168   5.177   1.718   1.678  0.8898 -0.2153  0.1253
 2423SOL    HW2 8169   5.157   1.846   1.776 -2.8796  0.1141 -0.9218
 2424SOL     OW 8170   1.854   3.290   2.702  0.0850 -0.5296 -0.0460
 2424SOL    HW1 8171   1.904   3.240   2.631  0.6516  0.7483 -0.5806
 2424SOL    HW2 8172   1.875   3.251   2.792  0.1477 -1.5285 -0.4869
 2425SOL     OW 8173   0.166   4.267   4.402 -0.0457  0.3605  0.0501
 2425SOL    HW1 8174   0.110   4.348   4.417  1.8193  1.6464  0.4076
 2425SOL    HW2 8175   0.108   4.185   4.408 -2.4710  1.6742 -2.7790
 2426SOL     OW 8176   6.596   3.000   6.556 -0.1171 -0.2266 -0.3358
 2426SOL    HW1 8177   6.606   2.902   6.538 -0.7190  0.0435 -2.4052
 2426SOL    HW2 8178   6.684   3.039   6.583  0.2004 -1.2518  0.1515
 2427SOL     OW 8179   2.391   5.831   2.170  0.2144  0.0240 -0.1462
 2427SOL    HW1 8180   2.414   5.823   2.267  1.0015 -0.5073 -0.3745
 2427SOL    HW2 8181   2.387   5.928   2.145 -2.8757  0.3387  1.0795
 2428SOL     OW 8182   1.652   2.458   5.174  0.6475  0.1326 -0.0262
 2428SOL    HW1 8183   1.594   2.538   5.188  0.2917  0.1401 -1.3618
 2428SOL    HW2 8184   1.738   2.486   5.131  0.4085 -0.2137 -0.7539
 2429SOL     OW 8185   5.826   0.291   0.013 -0.2301 -0.3332 -0.2221
 2429SOL    HW1 8186   5.760   0.235   0.063  0.0192 -0.2379  0.2085
 2429SOL    HW2 8187   5.791   0.308  -0.080 -0.3758 -1.0671 -0.3038
 2430SOL     OW 8188   3.197   5.463   6.671 -0.7478  0.3333  0.4207
 2430SOL    HW1 8189   3.222   5.558   6.654  1.4345 -0.1287  0.7939
 2430SOL    HW2 8190   3.234   5.405   6.599 -3.1172 -0.1694 -0.5016
 2431SOL     OW 8191   1.409   4.310   4.275  0.5022  0.2554  0.1470
 2431SOL    HW1 8192   1.365   4.220   4.268 -0.5926  0.7380  0.6298
 2431SOL    HW2 8193   1.477   4.319   4.202 -0.0267 -0.6166 -0.4796
 2432SOL     OW 8194   1.558   1.011   3.280  0.2070 -0.0876 -0.5245
 2432SOL    HW1 8195   1.643   1.023   3.229  0.3184 -0.9505 -0.5627
 2432SOL    HW2 8196   1.574   1.032   3.377  1.0070 -2.1280 -0.1560
 2433SOL     OW 8197   2.209   0.046   1.833 -0.3073  0.2927  0.2464
 2433SOL    HW1 8198   2.203   0.132   1.782 -0.0315  1.4012  2.0051
 2433SOL    HW2 8199   2.232   0.065   1.928 -2.7282 -1.5196  1.3166
 2434SOL     OW 8200   6.681   4.285   0.648  0.2222  0.0183  0.4633
 2434SOL    HW1 8201   6.778   4.296   0.673  0.5186  2.5627 -1.4105
 2434SOL    HW2 8202   6.654   4.360   0.588 -3.1142 -0.3208  1.3778
 2435SOL     OW 8203   2.225   3.121   6.683 -0.7777  0.0022 -0.1421
 2435SOL    HW1 8204   2.216   3.218   6.659 -0.9789  0.5139  1.8355
 2435SOL    HW2 8205   2.268   3.072   6.607  1.3273  2.0391 -0.3615
 2436SOL     OW 8206   1.445   5.327   1.710  1.0229 -0.3892 -0.3971
 2436SOL    HW1 8207   1.524   5.375   1.748 -0.2649  1.3439  0.2245
 2436SOL    HW2 8208   1.408   5.264   1.778  0.8529  0.0770 -0.0535
 2437SOL     OW 8209   6.931   2.515   3.194 -0.1532  0.2804 -0.2395
 2437SOL    HW1 8210   6.870   2.498   3.116  0.6449  0.6106 -0.9508
 2437SOL    HW2 8211   6.950   2.428   3.241  0.0076 -0.0431 -0.8976
 2438SOL     OW 8212   2.136   1.694   1.878  0.2706 -0.0110  0.2040
 2438SOL    HW1 8213   2.078   1.696   1.796 -0.9009  0.3359  1.0318
 2438SOL    HW2 8214   2.230   1.674   1.850 -0.3404 -1.3112 -1.1025
 2439SOL     OW 8215   4.996   1.570   6.039  0.0202 -0.5228 -0.1171
 2439SOL    HW1 8216   5.012   1.534   6.131 -0.9189 -0.5479  0.0478
 2439SOL    HW2 8217   5.035   1.661   6.032 -1.3905  0.2049  0.8879
 2440SOL     OW 8218   1.371   2.952   4.175 -0.3310 -0.0119  0.2557
 2440SOL    HW1 8219   1.320   2.894   4.112 -0.4949 -0.7755  1.0636
 2440SOL    HW2 8220   1.464   2.916   4.185 -0.2405  0.2310  0.2820
 2441SOL     OW 8221   4.981   3.398   5.065 -0.2324 -0.1081 -0.1493
 2441SOL    HW1 8222   4.918   3.475   5.071 -0.1746  0.0143 -0.9452
 2441SOL    HW2 8223   5.060   3.425   5.009  0.8301 -0.0595  1.3117
 2442SOL     OW 8224   1.638   1.943   5.061 -0.2910  0.1746  0.4397
 2442SOL    HW1 8225   1.596   1.916   4.974  1.5422  1.4605 -0.9539
 2442SOL    HW2 8226   1.582   1.911   5.137 -2.4840 -0.1843 -1.2134
 2443SOL     OW 8227   6.242   4.166   6.605  0.1555 -0.5801  0.3404
 2443SOL    HW1 8228   6.197   4.244   6.561 -0.1542 -1.3765 -0.7901
 2443SOL    HW2 8229   6.269   4.191   6.698 -1.4737  0.3217  0.5949
 2444SOL     OW 8230   1.668   4.807   5.213  0.0870 -0.1820 -0.3627
 2444SOL    HW1 8231   1.625   4.880   5.267  0.2950 -0.3391  0.0172
 2444SOL    HW2 8232   1.719   4.746   5.274 -0.8087 -1.1633 -0.5543
 2445SOL     OW 8233   5.134   1.548   5.461 -0.7039  0.2288  0.0176
 2445SOL    HW1 8234   5.079   1.593   5.532  0.4781  1.6812  0.0605
 2445SOL    HW2 8235   5.111   1.587   5.372  0.7327  1.4089  0.1225
 2446SOL     OW 8236   4.317   4.187   6.254  0.1954 -0.2848 -0.2023
 2446SOL    HW1 8237   4.341   4.090   6.244  0.6101 -0.4028  1.6081
 2446SOL    HW2 8238   4.306   4.209   6.351  1.0807  1.7096 -0.4927
 2447SOL     OW 8239   1.598   2.274   3.897  0.0121 -0.2107  0.2826
 2447SOL    HW1 8240   1.639   2.308   3.813 -0.1794 -1.4951 -0.3483
 2447SOL    HW2 8241   1.669   2.256   3.964  0.3315 -0.7530 -0.1935
 2448SOL     OW 8242   3.813   5.612   5.807  0.4570 -0.1032  0.0392
 2448SOL    HW1 8243   3.802   5.620   5.907  2.7739 -0.0298  0.3275
 2448SOL    HW2 8244   3.899   5.654   5.779 -0.0210 -0.3717 -1.9928
 2449SOL     OW 8245   1.656   6.159   6.779  0.3743  0.9378 -0.0579
 2449SOL    HW1 8246   1.672   6.215   6.860  1.3345 -0.1621  0.5493
 2449SOL    HW2 8247   1.743   6.134   6.738  0.1110 -1.5572  0.7340
 2450SOL     OW 8248   2.825   2.274   5.911  0.3108 -0.1529  0.0562
 2450SOL    HW1 8249   2.788   2.323   5.989 -0.4703 -0.6870  0.0267
 2450SOL    HW2 8250   2.918   2.242   5.932  0.7131  1.0632  0.1793
 2451SOL     OW 8251   6.667   4.042   6.558  0.3536  0.3767 -0.3841
 2451SOL    HW1 8252   6.754   4.018   6.515  0.8314  0.9835  0.2290
 2451SOL    HW2 8253   6.622   3.958   6.590  1.6185  0.1772  1.0004
 2452SOL     OW 8254   2.150   6.376   3.974 -0.0422 -0.2873  0.0202
 2452SOL    HW1 8255   2.072   6.411   4.025 -1.3603  0.1308 -2.1469
 2452SOL    HW2 8256   2.137   6.278   3.956  1.6340 -1.0557  2.5185
 2453SOL     OW 8257   1.675   6.840   0.925 -0.6013  0.3756  0.1976
 2453SOL    HW1 8258   1.750   6.774   0.919 -0.6941  0.1982  0.9199
 2453SOL    HW2 8259   1.651   6.855   1.021 -1.8420  0.0233 -0.0375
 2454SOL     OW 8260   5.335   4.309   3.132  0.0818 -0.2272 -0.2803
 2454SOL    HW1 8261   5.277   4.228   3.120  1.3727 -1.1339 -0.6038
 2454SOL    HW2 8262   5.311   4.354   3.218 -2.2812  0.4518 -1.2180
 2455SOL     OW 8263   0.569   0.315   1.090 -0.2202 -0.8469  0.0218
 2455SOL    HW1 8264   0.519   0.281   1.011 -1.0990  1.1187 -0.3184
 2455SOL    HW2 8265   0.512   0.305   1.172 -1.5381  1.8930 -0.4460
 2456SOL     OW 8266   2.743   6.556   1.335 -0.5325 -0.0792 -0.6067
 2456SOL    HW1 8267   2.687   6.519   1.261 -2.1088  2.6448 -0.9287
 2456SOL    HW2 8268   2.716   6.515   1.422 -0.3118 -1.5641 -1.2006
 2457SOL     OW 8269   2.717   5.697   2.314 -0.1770  0.3335 -0.3104
 2457SOL    HW1 8270   2.695   5.624   2.249  0.6832 -0.6265  0.4448
 2457SOL    HW2 8271   2.633   5.741   2.344 -1.0793 -2.4295  1.5991
 2458SOL     OW 8272   3.056   0.077   1.830  0.8905 -1.0540  0.1317
 2458SOL    HW1 8273   3.110   0.001   1.865  0.7798 -0.3917  1.8636
 2458SOL    HW2 8274   2.963   0.045   1.810  1.5377 -1.9165 -1.6706
 2459SOL     OW 8275   2.134   3.629   3.054  0.3973  0.3242 -0.2343
 2459SOL    HW1 8276   2.047   3.628   3.103  0.3594  0.0771 -0.3041
 2459SOL    HW2 8277   2.161   3.723   3.035 -0.0088  0.3886 -0.4902
 2460SOL     OW 8278   2.284   1.344   0.609  0.6030 -0.6915 -0.2996
 2460SOL    HW1 8279   2.252   1.418   0.550  0.9051  1.6148  2.2203
 2460SOL    HW2 8280   2.208   1.283   0.630 -0.3415  0.4325 -0.3415
 2461SOL     OW 8281   3.959   1.563   3.798  0.3105  0.0183 -0.0147
 2461SOL    HW1 8282   4.043   1.600   3.838 -1.1204  0.9604  2.2908
 2461SOL    HW2 8283   3.881   1.618   3.828 -1.1231 -0.5294 -2.4942
 2462SOL     OW 8284   6.291   5.203   4.808  0.1291  0.3651  0.5041
 2462SOL    HW1 8285   6.304   5.117   4.857  0.9371 -2.1799 -3.6476
 2462SOL    HW2 8286   6.326   5.193   4.715  1.7583  5.8166  0.2161
 2463SOL     OW 8287   2.540   2.436   1.221  0.7882 -0.1436  0.1386
 2463SOL    HW1 8288   2.539   2.490   1.305  0.1801 -0.5165  0.3710
 2463SOL    HW2 8289   2.516   2.495   1.144  1.4119  0.2132  0.2071
 2464SOL     OW 8290   2.616   4.382   0.400 -0.0390  0.1111  0.0171
 2464SOL    HW1 8291   2.619   4.286   0.430  0.3304 -0.0126 -0.4053
 2464SOL    HW2 8292   2.709   4.418   0.394 -0.1868  0.5505  0.3384
 2465SOL     OW 8293   5.368   5.965   0.126  0.0796  0.4709 -0.0253
 2465SOL    HW1 8294   5.388   6.010   0.213 -0.7351 -0.5522  0.7094
 2465SOL    HW2 8295   5.273   5.983   0.100 -0.2207 -0.7051  0.2164
 2466SOL     OW 8296   0.411   5.061   5.457  0.0070 -0.3830  0.1853
 2466SOL    HW1 8297   0.441   5.037   5.365  0.7237  1.7781 -0.2047
 2466SOL    HW2 8298   0.446   4.993   5.522  2.2048 -0.2821 -0.7894
 2467SOL     OW 8299   0.386   0.879   4.034  0.1282 -0.8380 -0.4575
 2467SOL    HW1 8300   0.306   0.858   4.091  0.7537  0.1231  0.8235
 2467SOL    HW2 8301   0.469   0.867   4.088  0.6559  2.3957 -0.3581
 2468SOL     OW 8302   3.422   6.429   4.440 -0.3735 -0.0044 -0.1001
 2468SOL    HW1 8303   3.408   6.437   4.342  0.7914  1.8265 -0.1584
 2468SOL    HW2 8304   3.424   6.520   4.482  1.5259 -0.5869  1.2424
 2469SOL     OW 8305   1.384   0.218   4.220 -0.1647  0.0913  0.2394
 2469SOL    HW1 8306   1.425   0.133   4.187  1.5426  0.9718 -0.0608
 2469SOL    HW2 8307   1.284   0.209   4.221 -0.0189 -2.2081  1.1084
 2470SOL     OW 8308   3.431   5.883   2.712 -0.2593  0.3468 -0.1669
 2470SOL    HW1 8309   3.437   5.943   2.792 -1.8670 -0.4650  0.6134
 2470SOL    HW2 8310   3.485   5.921   2.638  0.0017  1.9502  0.8005
 2471SOL     OW 8311   6.872   5.789   2.918 -0.3496  0.0615 -0.2382
 2471SOL    HW1 8312   6.922   5.842   2.849 -2.6436  0.1404 -1.9514
 2471SOL    HW2 8313   6.847   5.849   2.994 -1.2234  1.0399 -1.2442
 2472SOL     OW 8314   4.137   6.075   6.817  0.6312 -0.1002 -0.4423
 2472SOL    HW1 8315   4.065   6.115   6.875  1.6136  0.4470  0.4536
 2472SOL    HW2 8316   4.169   6.144   6.753  0.1489 -0.4402 -1.0546
 2473SOL     OW 8317   2.975   1.560   3.877  0.6310  0.6228  0.2124
 2473SOL    HW1 8318   2.927   1.490   3.823 -0.7366  1.2068  0.6240
 2473SOL    HW2 8319   3.065   1.526   3.902 -0.1109 -1.1429  0.6744
 2474SOL     OW 8320   3.709   5.250   3.458  0.4351  0.4641  0.1572
 2474SOL    HW1 8321   3.799   5.225   3.422 -0.6043  0.5024 -2.7729
 2474SOL    HW2 8322   3.660   5.168   3.486  0.5153  0.1540 -0.5682
 2475SOL     OW 8323   1.367   1.456   4.925 -0.6571  0.7507 -0.1546
 2475SOL    HW1 8324   1.311   1.537   4.907  0.2965  1.8243  1.3678
 2475SOL    HW2 8325   1.337   1.414   5.011  1.1127  1.6804  0.9947
 2476SOL     OW 8326   5.145   0.858   4.414 -0.4472  0.0121 -0.2484
 2476SOL    HW1 8327   5.170   0.801   4.335 -2.6541 -0.3123 -0.7771
 2476SOL    HW2 8328   5.197   0.944   4.410  2.8177 -1.7489  0.4564
 2477SOL     OW 8329   1.511   5.575   0.324  0.6684  0.3130 -0.0699
 2477SOL    HW1 8330   1.486   5.523   0.406 -2.1706  0.9404 -0.4337
 2477SOL    HW2 8331   1.532   5.669   0.350  0.5050  0.3272  0.0086
 2478SOL     OW 8332   2.918   5.643   1.331  0.4913  0.0868 -0.3179
 2478SOL    HW1 8333   2.888   5.689   1.414 -0.5059 -1.1621  0.0394
 2478SOL    HW2 8334   2.880   5.691   1.251 -0.1042  0.1880  0.0213
 2479SOL     OW 8335   5.094   5.614   5.966  0.2504  0.5406 -0.3269
 2479SOL    HW1 8336   5.101   5.516   5.984  1.0602  0.4607 -1.0168
 2479SOL    HW2 8337   5.011   5.633   5.913 -1.3784  0.5984  2.1039
 2480SOL     OW 8338   1.179   3.847   4.121 -0.0756 -0.6389  0.0060
 2480SOL    HW1 8339   1.145   3.891   4.038 -2.5243 -1.5970  0.3989
 2480SOL    HW2 8340   1.265   3.800   4.102 -1.0703 -1.6655 -2.3072
 2481SOL     OW 8341   5.223   3.095   5.873 -0.1106  0.4696  0.5082
 2481SOL    HW1 8342   5.130   3.102   5.909 -0.0119  0.0929  0.8463
 2481SOL    HW2 8343   5.232   3.152   5.791 -0.7031  0.3140  0.3341
 2482SOL     OW 8344   4.464   2.857   0.904  0.2609  0.3928 -0.1198
 2482SOL    HW1 8345   4.530   2.783   0.910  0.3469  0.5039  0.3572
 2482SOL    HW2 8346   4.441   2.889   0.996 -0.1524  0.6224 -0.2990
 2483SOL     OW 8347   5.024   0.108   6.715 -0.3949 -0.4085 -0.2595
 2483SOL    HW1 8348   5.073   0.032   6.758  3.8977  0.3656 -3.1868
 2483SOL    HW2 8349   4.976   0.075   6.634 -0.5724 -0.4013 -0.1566
 2484SOL     OW 8350   1.663   1.555   4.898 -0.0423  0.0097  0.1913
 2484SOL    HW1 8351   1.572   1.575   4.933  0.4332  1.5944  0.6008
 2484SOL    HW2 8352   1.664   1.565   4.799 -0.3929 -0.3990  0.1420
 2485SOL     OW 8353   1.126   3.339   3.179  0.1333 -0.0353  0.1061
 2485SOL    HW1 8354   1.099   3.365   3.272  1.0947  1.3211  0.0424
 2485SOL    HW2 8355   1.216   3.295   3.181  0.6496  0.9519 -0.2492
 2486SOL     OW 8356   6.473   0.207   4.109  0.6530 -0.5805 -0.4503
 2486SOL    HW1 8357   6.443   0.112   4.118 -0.3962 -0.2435 -0.2629
 2486SOL    HW2 8358   6.506   0.240   4.197 -1.1551 -0.0789  0.0874
 2487SOL     OW 8359   5.499   3.355   1.386  0.0737  0.2767  0.5370
 2487SOL    HW1 8360   5.541   3.441   1.415  0.0162  0.1575  0.9937
 2487SOL    HW2 8361   5.411   3.374   1.341  1.3953  0.6544 -2.0534
 2488SOL     OW 8362   4.084   6.855   5.555 -0.2626 -0.0869  0.6095
 2488SOL    HW1 8363   4.094   6.846   5.456 -1.6760  1.4853  0.2796
 2488SOL    HW2 8364   4.052   6.768   5.593 -0.1531 -0.5720 -0.3654
 2489SOL     OW 8365   0.748   5.767   1.909  0.1770  0.2754 -0.1599
 2489SOL    HW1 8366   0.766   5.720   1.822 -0.4932 -1.3880  0.5485
 2489SOL    HW2 8367   0.805   5.727   1.981  0.0967  1.0459  0.3391
 2490SOL     OW 8368   0.595   2.545   0.882  0.2405  0.5224 -0.2207
 2490SOL    HW1 8369   0.681   2.494   0.877 -0.8409 -1.3069 -1.5157
 2490SOL    HW2 8370   0.562   2.546   0.976  0.1044 -1.5838 -0.2019
 2491SOL     OW 8371   4.343   5.773   1.909  0.0770 -0.3630 -0.1619
 2491SOL    HW1 8372   4.251   5.784   1.872  0.6165  2.1074 -1.0003
 2491SOL    HW2 8373   4.349   5.817   1.998  0.9123  1.4544 -1.0542
 2492SOL     OW 8374   1.188   0.314   2.598 -0.4973  0.1809  0.4998
 2492SOL    HW1 8375   1.167   0.221   2.629  0.0264  0.4297  1.6149
 2492SOL    HW2 8376   1.223   0.368   2.674 -1.0656  1.3856 -0.0750
 2493SOL     OW 8377   1.923   2.580   0.035 -0.3151  0.1537  0.0110
 2493SOL    HW1 8378   1.966   2.600   0.123 -2.0534 -0.3501  1.0147
 2493SOL    HW2 8379   1.984   2.521  -0.019  0.0743 -0.9368  1.5763
 2494SOL     OW 8380   5.880   5.022   1.539  0.5015 -0.0397  0.1801
 2494SOL    HW1 8381   5.809   5.027   1.609  0.2380  0.0498 -0.0916
 2494SOL    HW2 8382   5.965   5.062   1.574  0.5213 -0.4777  0.6339
 2495SOL     OW 8383   2.605   3.590   5.834  0.0608 -0.1485  0.0483
 2495SOL    HW1 8384   2.627   3.553   5.743 -0.5738 -0.7280  0.1246
 2495SOL    HW2 8385   2.514   3.560   5.861  1.0290 -1.6866  1.7609
 2496SOL     OW 8386   2.452   1.334   4.529 -0.1230  0.5686  0.2575
 2496SOL    HW1 8387   2.402   1.372   4.606 -1.5788 -0.8278  0.0383
 2496SOL    HW2 8388   2.415   1.369   4.443 -1.7653 -1.5201  0.0298
 2497SOL     OW 8389   5.361   5.027   2.900 -0.5508 -0.1173 -0.8201
 2497SOL    HW1 8390   5.419   5.018   2.981 -0.8563  0.4834 -0.5315
 2497SOL    HW2 8391   5.277   5.075   2.924 -0.6995 -0.0457 -1.4659
 2498SOL     OW 8392   4.259   1.468   0.854  0.4783 -0.1490 -0.2448
 2498SOL    HW1 8393   4.235   1.536   0.785 -0.0477 -0.2343 -0.1487
 2498SOL    HW2 8394   4.356   1.444   0.845  0.3320 -0.4257 -1.1895
 2499SOL     OW 8395   4.632   0.754   6.407 -0.3592 -0.1513  0.2862
 2499SOL    HW1 8396   4.558   0.800   6.457  0.9161 -0.7485  2.9110
 2499SOL    HW2 8397   4.597   0.719   6.321 -3.5860 -1.7468  2.0672
 2500SOL     OW 8398   0.499   0.601   6.502 -0.0706  0.4821  0.8193
 2500SOL    HW1 8399   0.422   0.621   6.441 -0.1565  0.2893  0.8622
 2500SOL    HW2 8400   0.468   0.604   6.597 -0.8313 -2.6605  0.7989
 2501SOL     OW 8401   1.216   5.235   5.329 -0.4166 -0.0296  0.1771
 2501SOL    HW1 8402   1.291   5.223   5.394 -0.1603 -0.0441 -0.1169
 2501SOL    HW2 8403   1.130   5.205   5.371 -0.1778 -0.5082  0.3360
 2502SOL     OW 8404   0.701   1.015   2.834 -0.1295 -0.2368  0.3615
 2502SOL    HW1 8405   0.697   1.103   2.786  0.1225 -0.4902 -0.1209
 2502SOL    HW2 8406   0.789   1.006   2.881  0.7131 -1.1131 -1.2934
 2503SOL     OW 8407   0.246   5.277   0.731 -0.3549  0.0309 -0.1900
 2503SOL    HW1 8408   0.344   5.262   0.747 -0.1873  1.0632 -0.1631
 2503SOL    HW2 8409   0.223   5.249   0.638 -0.1549 -0.7265 -0.0204
 2504SOL     OW 8410   5.002   0.553   4.491  0.0751 -0.5441  0.2214
 2504SOL    HW1 8411   5.078   0.607   4.453  1.5406 -2.0900  0.7948
 2504SOL    HW2 8412   4.944   0.521   4.416 -1.3432  2.4389 -0.0808
 2505SOL     OW 8413   5.695   2.452   2.241 -0.1807  0.4639  0.6309
 2505SOL    HW1 8414   5.702   2.549   2.219  0.6103 -0.3166 -3.1571
 2505SOL    HW2 8415   5.599   2.424   2.235 -0.1593  0.5917 -0.5649
 2506SOL     OW 8416   3.291   6.561   3.187 -0.2857  0.2620  0.7941
 2506SOL    HW1 8417   3.243   6.593   3.269 -1.1648 -0.3741  0.5429
 2506SOL    HW2 8418   3.339   6.476   3.207 -0.6603  0.0022  0.6117
 2507SOL     OW 8419   6.935   5.415   3.727 -0.1211  0.4724  0.3413
 2507SOL    HW1 8420   6.972   5.505   3.749  1.1588  0.7524 -2.5360
 2507SOL    HW2 8421   6.835   5.420   3.721 -0.0952  1.5739  0.6755
 2508SOL     OW 8422   3.135   4.407   0.377  0.3170 -0.0909 -0.1455
 2508SOL    HW1 8423   3.061   4.340   0.382 -0.3996  0.7583  1.4788
 2508SOL    HW2 8424   3.151   4.432   0.282  0.5148 -2.4267 -0.7908
 2509SOL     OW 8425   5.447   6.693   0.289 -0.0386  0.2840 -0.1830
 2509SOL    HW1 8426   5.429   6.775   0.234  0.2616  1.4098  1.3430
 2509SOL    HW2 8427   5.415   6.707   0.382 -0.2568 -1.4798  0.0450
 2510SOL     OW 8428   5.605   5.742   2.267 -0.2173  0.6014 -0.2203
 2510SOL    HW1 8429   5.576   5.754   2.172  0.7388  0.1590 -0.5805
 2510SOL    HW2 8430   5.681   5.803   2.287 -0.8913  1.2358  0.4996
 2511SOL     OW 8431   2.914   1.535   6.707 -0.4741  0.4559 -0.2525
 2511SOL    HW1 8432   2.978   1.480   6.762 -0.1734 -0.0577 -1.0947
 2511SOL    HW2 8433   2.845   1.475   6.668 -2.2572  1.1604  1.6338
 2512SOL     OW 8434   1.062   5.275   4.971  0.4113  0.3607 -0.1196
 2512SOL    HW1 8435   1.106   5.358   5.004  2.2681 -0.2391 -0.9023
 2512SOL    HW2 8436   1.132   5.213   4.934 -0.8345 -1.7820  0.9096
 2513SOL     OW 8437   0.389   6.217   2.756 -0.2614  1.0695  0.1509
 2513SOL    HW1 8438   0.424   6.149   2.691  1.5041  1.8107  0.2440
 2513SOL    HW2 8439   0.428   6.199   2.847  1.4704  3.0093 -0.1330
 2514SOL     OW 8440   5.244   4.843   4.604  0.1816 -0.2687 -0.1122
 2514SOL    HW1 8441   5.309   4.840   4.681  2.4382 -2.1306 -1.9267
 2514SOL    HW2 8442   5.290   4.880   4.523 -1.3983 -0.5398 -1.1735
 2515SOL     OW 8443   2.910   0.125   6.861 -0.2364 -0.3119 -0.0297
 2515SOL    HW1 8444   2.858   0.141   6.945 -0.9881  0.2885 -0.6000
 2515SOL    HW2 8445   2.885   0.036   6.823 -0.9322  0.0223 -0.3595
 2516SOL     OW 8446   2.060   3.266   2.008 -0.6590 -0.1508  0.4367
 2516SOL    HW1 8447   2.105   3.355   2.003 -2.7040  0.9240 -0.1474
 2516SOL    HW2 8448   2.099   3.204   1.939  0.7903  0.2719  0.8618
 2517SOL     OW 8449   2.122   0.778   0.488 -0.2409 -0.4611 -0.2171
 2517SOL    HW1 8450   2.189   0.795   0.560  0.9093 -0.6910 -1.1973
 2517SOL    HW2 8451   2.130   0.684   0.455 -1.1802 -0.5514 -0.2242
 2518SOL     OW 8452   0.284   4.809   5.230 -0.0867 -0.0311 -0.1016
 2518SOL    HW1 8453   0.288   4.719   5.274 -0.0457  1.7986  4.1280
 2518SOL    HW2 8454   0.372   4.827   5.185  0.5726 -1.4043  0.5610
 2519SOL     OW 8455   2.285   0.903   6.096 -0.7467  0.2980 -0.1663
 2519SOL    HW1 8456   2.363   0.924   6.037 -1.2459  0.7675 -0.6626
 2519SOL    HW2 8457   2.231   0.985   6.111 -2.3683 -0.4640 -1.5924
 2520SOL     OW 8458   0.899   1.679   0.968 -0.0805  0.0053  0.4392
 2520SOL    HW1 8459   0.941   1.749   1.025 -1.1806  1.6219 -0.6326
 2520SOL    HW2 8460   0.970   1.628   0.920  0.7361  1.2715  0.2465
 2521SOL     OW 8461   3.152   1.846   2.014  0.4667  0.4364 -0.1784
 2521SOL    HW1 8462   3.077   1.842   1.949  0.4760  0.9451 -0.2242
 2521SOL    HW2 8463   3.236   1.874   1.968  0.7296 -0.2828 -0.1592
 2522SOL     OW 8464   4.984   0.460   4.767 -0.2857 -0.1302  0.2980
 2522SOL    HW1 8465   5.009   0.489   4.675  2.7815 -1.4677  0.5980
 2522SOL    HW2 8466   5.041   0.507   4.834  0.9810 -2.6609  1.1289
 2523SOL     OW 8467   5.868   6.949   5.246  0.1264 -0.2991  0.0593
 2523SOL    HW1 8468   5.956   6.920   5.283  0.2269  0.3730  0.3705
 2523SOL    HW2 8469   5.797   6.942   5.316 -0.1863 -1.3339 -0.3387
 2524SOL     OW 8470   5.449   0.165   4.518 -0.4186 -0.1759  0.3435
 2524SOL    HW1 8471   5.413   0.225   4.589  0.0586 -0.0766  0.5044
 2524SOL    HW2 8472   5.547   0.154   4.531 -0.6099 -1.6324  0.8073
 2525SOL     OW 8473   1.443   5.903   2.514 -0.0507  0.0931  0.5136
 2525SOL    HW1 8474   1.398   5.814   2.523  0.2395 -0.3793 -2.0182
 2525SOL    HW2 8475   1.392   5.960   2.450  1.4077  0.5767 -0.2764
 2526SOL     OW 8476   6.633   0.869   6.980  0.1667 -0.6460 -0.0640
 2526SOL    HW1 8477   6.625   0.931   6.902 -0.3159 -0.4265  0.1567
 2526SOL    HW2 8478   6.680   0.916   7.055  0.1614 -0.6838 -0.0372
 2527SOL     OW 8479   6.518   6.041   6.257  0.0433 -0.3531 -0.0830
 2527SOL    HW1 8480   6.601   6.092   6.235 -0.3119 -0.2545 -1.2345
 2527SOL    HW2 8481   6.542   5.946   6.280  0.5780 -0.0194  0.7909
 2528SOL     OW 8482   3.047   6.558   0.253 -0.1647  0.0354 -0.2908
 2528SOL    HW1 8483   3.000   6.475   0.224  0.1561  0.2191 -1.3739
 2528SOL    HW2 8484   3.001   6.596   0.333 -1.4492 -0.1740 -0.8972
 2529SOL     OW 8485   0.219   6.275   3.292 -0.4186  0.9527  0.0710
 2529SOL    HW1 8486   0.225   6.213   3.214 -1.7893 -1.7527  1.9403
 2529SOL    HW2 8487   0.289   6.251   3.360 -0.2654  2.2051  0.3776
 2530SOL     OW 8488   6.275   0.187   6.880  0.0589 -0.9046  0.1685
 2530SOL    HW1 8489   6.369   0.212   6.901 -0.3376  0.5745  0.2997
 2530SOL    HW2 8490   6.216   0.210   6.957 -0.7243  0.3053 -0.7501
 2531SOL     OW 8491   4.061   3.348   3.188  0.3766 -0.6242  0.1351
 2531SOL    HW1 8492   4.075   3.263   3.239  0.4069  0.1699  1.4812
 2531SOL    HW2 8493   4.090   3.426   3.243 -0.9638  0.3818 -0.5323
 2532SOL     OW 8494   2.164   0.821   6.568 -0.5891  0.1520  0.2546
 2532SOL    HW1 8495   2.073   0.841   6.532 -0.3698  0.7092 -0.0080
 2532SOL    HW2 8496   2.233   0.850   6.501 -0.2184 -0.1781  0.4924
 2533SOL     OW 8497   6.574   1.044   4.967 -0.3099 -0.2778  0.2286
 2533SOL    HW1 8498   6.523   1.127   4.946  0.5274  0.2146  0.0783
 2533SOL    HW2 8499   6.617   1.010   4.884 -0.4042 -0.6955  0.3494
 2534SOL     OW 8500   0.258   2.568   6.108 -0.2873 -0.5662  0.5199
 2534SOL    HW1 8501   0.226   2.559   6.202  1.9453 -1.0438  1.2974
 2534SOL    HW2 8502   0.305   2.656   6.097 -0.2504 -0.6551 -0.0732
 2535SOL     OW 8503   3.334   2.358   1.230 -0.0185  0.3450  0.2916
 2535SOL    HW1 8504   3.400   2.316   1.167 -0.8385 -0.2225 -0.2082
 2535SOL    HW2 8505   3.379   2.430   1.283  0.6944  0.8734 -0.9885
 2536SOL     OW 8506   6.179   4.554   5.705  0.9130 -0.6092  0.5583
 2536SOL    HW1 8507   6.194   4.529   5.801 -1.5068 -1.5328  0.7557
 2536SOL    HW2 8508   6.157   4.651   5.699  2.1616 -0.2946  0.7749
 2537SOL     OW 8509   4.881   3.843   1.677 -0.7535  0.6593  0.1768
 2537SOL    HW1 8510   4.951   3.816   1.743  1.3262  1.1850 -1.7041
 2537SOL    HW2 8511   4.861   3.941   1.688 -0.8306  0.6197  0.3957
 2538SOL     OW 8512   6.736   3.259   3.956  0.5008  0.0756  0.2154
 2538SOL    HW1 8513   6.648   3.243   3.912  0.4076 -0.2262  0.5036
 2538SOL    HW2 8514   6.735   3.218   4.048  1.8439 -2.3568 -0.7635
 2539SOL     OW 8515   2.359   0.830   6.352 -0.6914 -0.0368 -0.4732
 2539SOL    HW1 8516   2.431   0.898   6.359 -0.6400 -0.0911 -0.4704
 2539SOL    HW2 8517   2.314   0.837   6.263 -1.1388  0.4518 -0.2124
 2540SOL     OW 8518   1.936   0.141   4.010  0.5096  0.0394 -0.0219
 2540SOL    HW1 8519   1.929   0.206   4.086 -1.5335 -0.1188 -0.0295
 2540SOL    HW2 8520   2.009   0.170   3.948  1.1682  1.0359  1.1782
 2541SOL     OW 8521   4.513   0.712   2.357  0.3835  0.1025 -0.2663
 2541SOL    HW1 8522   4.534   0.633   2.416  2.2887  0.2138 -0.7474
 2541SOL    HW2 8523   4.580   0.717   2.283  0.3846  2.2735 -0.1672
 2542SOL     OW 8524   4.815   2.267   4.990 -0.4648  0.0383  0.6845
 2542SOL    HW1 8525   4.878   2.206   5.037  0.1148  0.6081  0.6635
 2542SOL    HW2 8526   4.723   2.259   5.031  0.2136  1.2313  2.6104
 2543SOL     OW 8527   0.499   1.212   4.187  0.8391  0.1779 -0.0584
 2543SOL    HW1 8528   0.450   1.285   4.235  2.3031  0.8269  0.4951
 2543SOL    HW2 8529   0.597   1.229   4.192  1.4830 -3.2131  2.4675
 2544SOL     OW 8530   6.497   5.043   6.612  0.3269  0.6106 -0.8793
 2544SOL    HW1 8531   6.423   5.038   6.544  1.1719 -2.8695 -1.7654
 2544SOL    HW2 8532   6.460   5.072   6.700 -2.1712 -1.0033 -1.2982
 2545SOL     OW 8533   3.745   6.696   0.994  0.6238 -0.0171  0.4955
 2545SOL    HW1 8534   3.729   6.653   1.083 -0.1941  0.1642  0.4446
 2545SOL    HW2 8535   3.781   6.788   1.008 -1.1401  0.6836  0.7064
 2546SOL     OW 8536   0.421   2.184   3.347  0.1095 -0.6508  0.4045
 2546SOL    HW1 8537   0.481   2.260   3.324  1.1597 -1.5995 -0.0586
 2546SOL    HW2 8538   0.419   2.118   3.272 -3.5426  0.5163 -0.7498
 2547SOL     OW 8539   2.193   5.654   5.838  0.0871 -0.3624 -0.2185
 2547SOL    HW1 8540   2.106   5.622   5.802  0.0529 -1.8061  1.0303
 2547SOL    HW2 8541   2.265   5.639   5.770 -0.2081 -1.6908 -0.2628
 2548SOL     OW 8542   3.251   2.808   6.661 -0.1457 -0.6725  0.9861
 2548SOL    HW1 8543   3.198   2.824   6.743 -0.0455  0.9051  0.7733
 2548SOL    HW2 8544   3.301   2.891   6.636 -0.8566 -0.8126 -1.1532
 2549SOL     OW 8545   3.410   4.313   6.360  0.5881 -0.2848  0.7627
 2549SOL    HW1 8546   3.354   4.336   6.280  0.4591  2.8366  1.6417
 2549SOL    HW2 8547   3.506   4.327   6.338  0.6374 -0.4389  0.8765
 2550SOL     OW 8548   4.711   5.905   2.298  0.3414 -0.5301 -0.1626
 2550SOL    HW1 8549   4.664   5.953   2.224  0.8990  0.6150  0.1964
 2550SOL    HW2 8550   4.758   5.825   2.261 -1.7715 -1.6558 -0.5396
 2551SOL     OW 8551   5.506   3.499   6.277  0.2501  0.3533 -0.2433
 2551SOL    HW1 8552   5.488   3.577   6.337 -4.5386 -1.9293  1.8350
 2551SOL    HW2 8553   5.564   3.433   6.324 -0.2041  0.3195  0.2795
 2552SOL     OW 8554   0.931   0.070   6.789 -0.3117  0.5574 -0.4748
 2552SOL    HW1 8555   0.890   0.140   6.847 -1.3591  1.3763 -2.1309
 2552SOL    HW2 8556   0.895  -0.020   6.814  0.3803  0.6835  1.0893
 2553SOL     OW 8557   1.655   5.919   0.960  0.3347  0.4681 -0.2496
 2553SOL    HW1 8558   1.720   5.851   0.994 -0.1052  0.4208  0.5148
 2553SOL    HW2 8559   1.613   5.885   0.876  1.3177  0.5194 -0.7813
 2554SOL     OW 8560   3.982   3.876   6.327  0.7277  0.0165 -0.1488
 2554SOL    HW1 8561   3.903   3.820   6.349 -0.4927  0.9370 -1.9349
 2554SOL    HW2 8562   4.063   3.839   6.372 -0.6821 -0.9641  1.7093
 2555SOL     OW 8563   5.152   3.916   0.278  0.4416  0.0509 -0.2017
 2555SOL    HW1 8564   5.230   3.926   0.216  1.0225  1.8077  0.7553
 2555SOL    HW2 8565   5.082   3.983   0.255 -1.2940 -2.1094 -1.6521
 2556SOL     OW 8566   3.664   4.825   6.994 -0.2966  0.0792 -0.0586
 2556SOL    HW1 8567   3.646   4.748   6.933  0.5360 -0.0129 -0.1991
 2556SOL    HW2 8568   3.578   4.857   7.034 -0.6903 -0.6995 -0.2687
 2557SOL     OW 8569   4.788   4.263   4.978 -0.3797 -0.4374  0.0449
 2557SOL    HW1 8570   4.728   4.301   5.048 -0.6196  2.5951 -1.6056
 2557SOL    HW2 8571   4.741   4.266   4.889  1.5021  0.2713 -0.9871
 2558SOL     OW 8572   3.372   3.170   6.384 -0.1335 -0.3297 -0.4835
 2558SOL    HW1 8573   3.458   3.214   6.409 -0.4557  0.1503 -0.2010
 2558SOL    HW2 8574   3.375   3.141   6.289  1.3829 -2.8058  0.2190
 2559SOL     OW 8575   1.225   4.206   0.420 -0.0979 -0.3643 -0.0277
 2559SOL    HW1 8576   1.149   4.251   0.374  1.6250  0.4637 -2.2618
 2559SOL    HW2 8577   1.275   4.273   0.475  1.1247  0.0002 -1.5219
 2560SOL     OW 8578   5.783   0.766   5.412 -0.2798  0.4926 -0.1374
 2560SOL    HW1 8579   5.760   0.786   5.507 -0.3269 -1.8052  0.3830
 2560SOL    HW2 8580   5.860   0.823   5.383 -0.2741  1.2202  1.2598
 2561SOL     OW 8581   0.521   6.043   6.237 -0.8625 -0.0540  0.3067
 2561SOL    HW1 8582   0.492   6.044   6.333 -0.2804 -0.3285  0.4889
 2561SOL    HW2 8583   0.482   6.122   6.190 -3.5934 -1.4641  0.0216
 2562SOL     OW 8584   2.845   2.381   5.670  0.5944 -0.3996 -0.3709
 2562SOL    HW1 8585   2.755   2.405   5.632  1.1670  0.0400 -1.4895
 2562SOL    HW2 8586   2.833   2.343   5.761 -0.6291  1.0375  0.1165
 2563SOL     OW 8587   1.034   6.021   3.820  0.0882 -0.8146  0.3905
 2563SOL    HW1 8588   0.994   6.112   3.808 -2.8758 -2.1266 -0.6332
 2563SOL    HW2 8589   1.071   5.989   3.733 -0.6853 -1.3551  0.2541
 2564SOL     OW 8590   2.451   4.681   0.503 -0.9877 -0.5554  0.0296
 2564SOL    HW1 8591   2.468   4.778   0.516 -1.1255 -0.5403  0.1036
 2564SOL    HW2 8592   2.520   4.628   0.552 -0.6996 -0.4945 -0.3081
 2565SOL     OW 8593   5.769   5.963   6.320 -0.4551  0.0418  0.2447
 2565SOL    HW1 8594   5.812   6.007   6.399  1.8682 -1.1839 -0.2603
 2565SOL    HW2 8595   5.817   5.878   6.299 -1.6849 -0.1932 -1.8537
 2566SOL     OW 8596   4.259   1.355   5.742  0.0029 -0.2727  0.3858
 2566SOL    HW1 8597   4.275   1.431   5.805  2.6026 -0.2174 -0.2278
 2566SOL    HW2 8598   4.190   1.381   5.675 -0.3977  0.8895  1.2161
 2567SOL     OW 8599   2.757   2.040   3.862 -0.3202 -0.1532 -0.2777
 2567SOL    HW1 8600   2.741   2.062   3.958 -0.3206  0.5474 -0.4348
 2567SOL    HW2 8601   2.724   1.948   3.843 -0.5555 -0.1977  0.3304
 2568SOL     OW 8602   3.191   1.340   0.692 -0.1710 -0.1223  0.9990
 2568SOL    HW1 8603   3.226   1.247   0.680  0.7515  0.3130  0.1848
 2568SOL    HW2 8604   3.097   1.345   0.658  0.2609 -0.4192 -0.2786
 2569SOL     OW 8605   2.948   4.159   1.104 -0.0906 -0.0150  0.0098
 2569SOL    HW1 8606   2.909   4.070   1.082  0.2618 -0.2396  0.2839
 2569SOL    HW2 8607   2.881   4.231   1.085 -1.0168 -0.4737  1.4264
 2570SOL     OW 8608   4.851   3.282   3.691 -0.3028 -0.4506 -0.2473
 2570SOL    HW1 8609   4.802   3.198   3.714 -0.1253 -0.3607  0.4912
 2570SOL    HW2 8610   4.945   3.261   3.667 -0.5377 -0.5641 -1.0989
 2571SOL     OW 8611   6.321   1.216   5.132 -0.3378  0.4066  0.3940
 2571SOL    HW1 8612   6.387   1.157   5.180 -1.3453 -2.0883 -1.0876
 2571SOL    HW2 8613   6.232   1.172   5.131 -1.2209  2.1165 -0.5874
 2572SOL     OW 8614   6.018   6.204   6.486 -0.5669 -0.0075 -0.6149
 2572SOL    HW1 8615   6.076   6.277   6.523 -0.8033 -0.6009  0.9963
 2572SOL    HW2 8616   6.073   6.121   6.474 -0.4812  0.1932 -1.6777
 2573SOL     OW 8617   3.128   5.388   2.702  0.3262  0.1158  0.1935
 2573SOL    HW1 8618   3.197   5.455   2.728  1.3976 -0.8828 -0.0275
 2573SOL    HW2 8619   3.166   5.325   2.635 -0.8365 -0.3885 -0.0143
 2574SOL     OW 8620   3.533   5.378   4.886 -0.0815  0.3183  0.3166
 2574SOL    HW1 8621   3.494   5.299   4.933  2.7926  0.3320  3.0465
 2574SOL    HW2 8622   3.597   5.347   4.815  2.0905 -0.0182  2.2824
 2575SOL     OW 8623   3.465   4.195   0.356 -0.2373  0.1390  1.2659
 2575SOL    HW1 8624   3.534   4.153   0.297  1.9734  0.1637  3.6421
 2575SOL    HW2 8625   3.374   4.165   0.328  0.9338 -2.5577  0.0106
 2576SOL     OW 8626   6.418   6.848   5.097 -0.4699  0.4565 -0.3814
 2576SOL    HW1 8627   6.424   6.902   5.181 -0.6029  0.7717 -0.5734
 2576SOL    HW2 8628   6.395   6.753   5.120  0.3257  0.3455  0.0002
 2577SOL     OW 8629   3.103   3.525   0.693 -0.4898  0.4741 -0.0546
 2577SOL    HW1 8630   3.129   3.606   0.641  2.1042  0.1333  0.5927
 2577SOL    HW2 8631   3.064   3.553   0.781  0.1494  1.0527  0.0524
 2578SOL     OW 8632   3.713   6.551   6.308  0.2674  0.2421  0.4813
 2578SOL    HW1 8633   3.689   6.648   6.307  0.3426  0.2560 -1.0471
 2578SOL    HW2 8634   3.795   6.537   6.364  0.0097  0.9937  1.0541
 2579SOL     OW 8635   2.474   0.093   0.023  0.3197 -0.2544 -0.3229
 2579SOL    HW1 8636   2.560   0.141   0.007  0.6635  0.0028  1.9896
 2579SOL    HW2 8637   2.493   0.003   0.063 -0.4823 -0.1038  0.4228
 2580SOL     OW 8638   5.224   0.803   1.918  0.1042  0.2477 -1.0656
 2580SOL    HW1 8639   5.135   0.814   1.874  0.4826 -1.3143 -2.3565
 2580SOL    HW2 8640   5.286   0.876   1.888  0.2891 -0.6550 -3.0876
 2581SOL     OW 8641   5.978   4.605   4.330  0.3596  0.0609  0.4103
 2581SOL    HW1 8642   5.906   4.561   4.277  0.4415  0.9265 -0.4407
 2581SOL    HW2 8643   6.002   4.692   4.288  1.8358 -0.1654  0.7384
 2582SOL     OW 8644   2.855   2.824   0.380 -0.2302  0.2494 -0.0767
 2582SOL    HW1 8645   2.791   2.747   0.378  1.6850 -1.4015 -0.8252
 2582SOL    HW2 8646   2.946   2.792   0.356  0.9053  2.5453  0.9079
 2583SOL     OW 8647   5.996   1.058   6.810  0.1661  0.5902  0.4379
 2583SOL    HW1 8648   6.088   1.025   6.788  0.0893 -0.6247  1.7605
 2583SOL    HW2 8649   5.980   1.146   6.765  0.6070 -0.8544 -2.8905
 2584SOL     OW 8650   0.220   6.908   0.690 -0.0864  0.5873  0.2197
 2584SOL    HW1 8651   0.315   6.875   0.690 -0.2465 -0.0290 -1.6011
 2584SOL    HW2 8652   0.160   6.837   0.724  0.1881  1.5304  2.9368
 2585SOL     OW 8653   4.296   0.951   5.109  0.5427 -0.5123 -0.2157
 2585SOL    HW1 8654   4.218   0.908   5.063  0.7014 -0.6708 -0.3384
 2585SOL    HW2 8655   4.305   0.913   5.201  2.9769 -3.6326 -1.5632
 2586SOL     OW 8656   0.812   1.692   1.494 -0.6810 -0.1581 -0.1459
 2586SOL    HW1 8657   0.900   1.670   1.452 -0.7464  1.2108 -1.0467
 2586SOL    HW2 8658   0.789   1.622   1.561  2.2554  0.6341  1.8963
 2587SOL     OW 8659   1.644   5.272   0.518  0.2326  0.1839 -0.0788
 2587SOL    HW1 8660   1.612   5.255   0.425  0.3537  0.2388 -0.1306
 2587SOL    HW2 8661   1.644   5.186   0.569  0.4952  0.0901 -0.2327
 2588SOL     OW 8662   1.772   5.179   2.371  0.0872 -0.6796  0.3312
 2588SOL    HW1 8663   1.770   5.256   2.307 -0.6531 -0.8018  0.1979
 2588SOL    HW2 8664   1.782   5.214   2.465  2.4870 -0.5514  0.0948
 2589SOL     OW 8665   0.164   6.793   0.343 -0.0202 -0.3149 -0.2478
 2589SOL    HW1 8666   0.119   6.754   0.423 -0.1875  1.4054  0.5334
 2589SOL    HW2 8667   0.134   6.888   0.330 -0.1631 -0.6071 -2.4779
 2590SOL     OW 8668   0.139   1.049   1.740 -0.1159  0.5563 -0.3813
 2590SOL    HW1 8669   0.232   1.021   1.716 -0.7727 -0.2789 -2.0826
 2590SOL    HW2 8670   0.076   1.019   1.670 -1.6826  1.2383  0.6791
 2591SOL     OW 8671   4.301   1.516   4.325 -0.5876 -0.2343 -0.3978
 2591SOL    HW1 8672   4.204   1.495   4.335 -0.7128 -0.6350 -2.0329
 2591SOL    HW2 8673   4.328   1.501   4.230  1.0153  0.1586 -0.0357
 2592SOL     OW 8674   3.216   5.268   2.452 -0.7057 -0.0960  0.2862
 2592SOL    HW1 8675   3.123   5.233   2.451 -0.9875  0.6366 -0.5759
 2592SOL    HW2 8676   3.220   5.355   2.402  0.3054  0.2266  0.8922
 2593SOL     OW 8677   2.290   0.905   0.763  0.0325 -0.0973 -0.1751
 2593SOL    HW1 8678   2.191   0.894   0.776 -0.1555 -0.8315 -1.9923
 2593SOL    HW2 8679   2.338   0.840   0.822 -0.6144 -0.6643 -0.2558
 2594SOL     OW 8680   4.688   2.604   1.794 -0.2815  0.0283  0.0077
 2594SOL    HW1 8681   4.638   2.563   1.871 -0.8882 -1.8472 -1.3125
 2594SOL    HW2 8682   4.757   2.539   1.761 -1.3842 -0.0917 -2.2722
 2595SOL     OW 8683   0.399   0.629   2.709 -0.2491 -0.3172  0.4129
 2595SOL    HW1 8684   0.408   0.706   2.772  1.4531 -0.0046 -0.1619
 2595SOL    HW2 8685   0.401   0.661   2.615  0.5417 -1.0423  0.1623
 2596SOL     OW 8686   2.658   2.016   6.785 -0.2726 -0.1198 -0.4841
 2596SOL    HW1 8687   2.707   1.931   6.765 -1.8813 -1.6177  1.4715
 2596SOL    HW2 8688   2.665   2.078   6.707  1.4971 -1.7693 -1.7284
 2597SOL     OW 8689   3.305   3.286   3.161  0.6567  0.5231 -0.1671
 2597SOL    HW1 8690   3.401   3.283   3.189  0.6371 -1.0172 -0.1985
 2597SOL    HW2 8691   3.281   3.200   3.116 -1.0616  0.3726  0.9566
 2598SOL     OW 8692   6.308   3.267   6.849 -0.2999  0.0212 -0.0532
 2598SOL    HW1 8693   6.273   3.309   6.766  0.1488 -0.9651 -0.7595
 2598SOL    HW2 8694   6.337   3.173   6.830 -2.7865 -1.2449  1.8074
 2599SOL     OW 8695   3.027   5.704   4.013  0.2158 -0.1485  0.8945
 2599SOL    HW1 8696   2.955   5.773   4.022  0.1248 -0.0094 -0.6506
 2599SOL    HW2 8697   3.071   5.690   4.102 -1.1076  0.4145  1.6734
 2600SOL     OW 8698   6.758   6.921   0.585 -0.4893 -0.0845 -0.1608
 2600SOL    HW1 8699   6.732   6.989   0.653  0.1993 -0.6071  0.6429
 2600SOL    HW2 8700   6.696   6.927   0.507 -1.2570  0.5581  0.4781
 2601SOL     OW 8701   2.008   0.165   2.572 -0.2980 -0.1681  0.1128
 2601SOL    HW1 8702   1.989   0.217   2.488 -0.9773  0.5560  0.7038
 2601SOL    HW2 8703   2.088   0.202   2.618  0.0282 -0.5172 -0.1594
 2602SOL     OW 8704   0.255   3.547   5.313  0.3248  0.4919 -0.2468
 2602SOL    HW1 8705   0.354   3.539   5.315  0.1763 -1.8545  0.5104
 2602SOL    HW2 8706   0.218   3.491   5.238 -0.5520 -1.5206  1.5678
 2603SOL     OW 8707   5.595   5.687   0.195  0.4537  0.1400 -0.2174
 2603SOL    HW1 8708   5.499   5.709   0.180  0.0337 -0.1850  1.6747
 2603SOL    HW2 8709   5.624   5.726   0.283  2.2373  0.7479 -1.0250
 2604SOL     OW 8710   5.493   6.625   1.623  0.6828  0.3049  0.4119
 2604SOL    HW1 8711   5.504   6.657   1.717 -0.3668  0.2355  0.5757
 2604SOL    HW2 8712   5.534   6.691   1.560 -0.8357  1.6699  0.7806
 2605SOL     OW 8713   6.639   5.592   0.495  0.6393  0.1111 -0.6494
 2605SOL    HW1 8714   6.624   5.688   0.469 -0.8406  0.3264  0.8618
 2605SOL    HW2 8715   6.587   5.532   0.434 -0.0980  0.3991 -0.3086
 2606SOL     OW 8716   0.414   1.022   3.424  0.7258  0.0159 -0.1810
 2606SOL    HW1 8717   0.426   1.093   3.356 -0.2267  2.6997  2.2684
 2606SOL    HW2 8718   0.319   1.018   3.453  1.1675 -0.7745  1.2836
 2607SOL     OW 8719   0.129   1.329   0.235 -0.6682  0.3184  0.5396
 2607SOL    HW1 8720   0.048   1.345   0.291 -0.3529 -3.2491  2.3085
 2607SOL    HW2 8721   0.101   1.294   0.145 -1.0960  1.5681  0.1730
 2608SOL     OW 8722   0.643   3.436   2.739  0.0113 -0.0898  0.3107
 2608SOL    HW1 8723   0.629   3.346   2.780  0.9125  0.2078  1.3191
 2608SOL    HW2 8724   0.560   3.491   2.748 -0.4434 -0.7157 -0.0434
 2609SOL     OW 8725   1.487   3.608   4.789  0.3742 -0.0269  0.7171
 2609SOL    HW1 8726   1.586   3.598   4.779  0.0514 -1.8038 -1.6964
 2609SOL    HW2 8727   1.464   3.705   4.799  2.2804  0.5097  0.4055
 2610SOL     OW 8728   4.041   0.639   1.186  0.1796 -0.0444  0.1231
 2610SOL    HW1 8729   3.992   0.625   1.099  1.3169 -0.5463 -0.4478
 2610SOL    HW2 8730   4.133   0.674   1.167  0.5201 -0.3833  1.1196
 2611SOL     OW 8731   1.192   6.726   3.151  0.2233 -0.0984  0.6564
 2611SOL    HW1 8732   1.161   6.647   3.203 -1.4015 -0.1051 -0.2704
 2611SOL    HW2 8733   1.282   6.707   3.112  0.3161 -1.0694  1.3169
 2612SOL     OW 8734   6.941   6.730   0.492  0.5311  0.4629  0.7401
 2612SOL    HW1 8735   6.873   6.765   0.557 -0.9612  0.2969 -0.6755
 2612SOL    HW2 8736   6.991   6.655   0.534  0.9630  1.6029  2.3752
 2613SOL     OW 8737   4.569   1.042   3.139  0.0527 -0.4455 -0.0516
 2613SOL    HW1 8738   4.528   1.003   3.221  1.1932 -1.3997  0.0994
 2613SOL    HW2 8739   4.638   1.109   3.165  1.2538 -1.5976 -0.1561
 2614SOL     OW 8740   0.933   6.215   4.442  0.7132  0.4121  0.3315
 2614SOL    HW1 8741   0.839   6.182   4.435  0.9981 -0.1035 -1.6715
 2614SOL    HW2 8742   0.988   6.148   4.491 -0.1232  1.1962  2.4736
 2615SOL     OW 8743   1.057   5.301   4.301 -0.1763 -0.3709 -0.0629
 2615SOL    HW1 8744   1.046   5.240   4.222  0.3611 -1.5566  0.7524
 2615SOL    HW2 8745   1.053   5.396   4.270 -2.5715 -0.7480 -1.1717
 2616SOL     OW 8746   2.037   4.240   0.825  0.3652  0.2069  0.4792
 2616SOL    HW1 8747   2.098   4.269   0.899 -0.6406  1.4513  0.8761
 2616SOL    HW2 8748   1.950   4.289   0.834  0.4359  0.8936 -1.9146
 2617SOL     OW 8749   2.714   4.324   1.086  0.6700 -0.6689  0.2327
 2617SOL    HW1 8750   2.691   4.347   0.992  0.5221 -2.4957 -0.2240
 2617SOL    HW2 8751   2.771   4.396   1.126 -1.0121  1.1470 -0.5188
 2618SOL     OW 8752   4.074   1.184   6.827 -0.6235  0.1597 -0.2317
 2618SOL    HW1 8753   4.068   1.172   6.728 -1.8495 -0.2392 -0.1258
 2618SOL    HW2 8754   4.006   1.127   6.872 -0.8359  1.1727  0.7871
 2619SOL     OW 8755   0.698   1.648   6.147  0.3213 -0.2063  0.3380
 2619SOL    HW1 8756   0.648   1.563   6.159 -2.6744  1.4533  0.7530
 2619SOL    HW2 8757   0.633   1.725   6.144  2.6350  1.8863 -2.4469
 2620SOL     OW 8758   3.827   2.396   5.478  0.0507 -0.4303 -0.0616
 2620SOL    HW1 8759   3.909   2.450   5.459 -0.5301  0.1368 -1.0655
 2620SOL    HW2 8760   3.782   2.430   5.560  0.7740 -0.7059  0.4628
 2621SOL     OW 8761   6.244   5.958   4.996  0.2226  0.3540  0.0303
 2621SOL    HW1 8762   6.304   5.879   4.983 -0.5635 -0.3653  0.6266
 2621SOL    HW2 8763   6.170   5.954   4.928 -1.0135 -0.6262  1.3398
 2622SOL     OW 8764   0.101   6.519   3.978  0.6151  0.3102  0.1861
 2622SOL    HW1 8765   0.081   6.616   3.984  0.7383  0.3003  0.8328
 2622SOL    HW2 8766   0.181   6.497   4.034  0.6839 -0.1374 -0.0753
 2623SOL     OW 8767   0.252   1.468   6.981  0.1820 -0.1582 -0.0788
 2623SOL    HW1 8768   0.231   1.508   7.070  1.2517  1.8067 -0.6615
 2623SOL    HW2 8769   0.330   1.515   6.941 -1.4164  0.3285 -2.8731
 2624SOL     OW 8770   3.444   0.503   3.941 -0.4860  0.3569 -0.0732
 2624SOL    HW1 8771   3.524   0.488   3.883 -1.2921  0.5792 -1.2893
 2624SOL    HW2 8772   3.409   0.595   3.925 -2.7521 -0.7223 -1.8829
 2625SOL     OW 8773   6.258   0.239   3.946 -0.3015  0.0429  0.7457
 2625SOL    HW1 8774   6.186   0.171   3.964  1.8216 -2.1607  1.5092
 2625SOL    HW2 8775   6.333   0.225   4.011  1.7517  0.8220 -1.3277
 2626SOL     OW 8776   0.883   2.185   4.162 -0.4278  0.4460 -0.5078
 2626SOL    HW1 8777   0.960   2.130   4.130 -1.3642 -0.6962 -0.8381
 2626SOL    HW2 8778   0.915   2.250   4.231  0.5568 -1.1371  0.5779
 2627SOL     OW 8779   5.133   1.064   6.007  0.7147 -0.1318  0.5957
 2627SOL    HW1 8780   5.147   0.979   6.057 -1.2994  0.1462  1.7367
 2627SOL    HW2 8781   5.035   1.077   5.988  0.9988  1.7617  0.1474
 2628SOL     OW 8782   5.816   5.947   6.811  0.1299  0.0594 -0.2997
 2628SOL    HW1 8783   5.789   6.016   6.877 -0.6058 -0.2030 -0.3063
 2628SOL    HW2 8784   5.809   5.856   6.853  0.5032 -0.0506 -0.4715
 2629SOL     OW 8785   4.504   0.924   0.302 -0.2350  0.0670 -0.1151
 2629SOL    HW1 8786   4.574   0.982   0.344  0.9266 -1.3715  0.0309
 2629SOL    HW2 8787   4.527   0.828   0.319 -3.3453 -0.4655  1.7390
 2630SOL     OW 8788   1.012   4.833   6.142 -0.5143 -0.3103  0.2954
 2630SOL    HW1 8789   0.985   4.802   6.233 -0.2476 -1.3861  0.0136
 2630SOL    HW2 8790   1.102   4.878   6.147 -0.3077 -0.7426  0.4970
 2631SOL     OW 8791   1.547   5.009   3.842 -0.1713  0.4757  0.0636
 2631SOL    HW1 8792   1.522   5.009   3.939 -0.4503 -0.6968  0.0048
 2631SOL    HW2 8793   1.646   5.004   3.834 -0.1754 -0.2069  0.3048
 2632SOL     OW 8794   3.537   1.052   2.293  0.2671  0.0440  0.1747
 2632SOL    HW1 8795   3.486   1.106   2.226  1.1826 -0.4895 -0.9983
 2632SOL    HW2 8796   3.632   1.084   2.297  0.3673 -0.3074  0.7997
 2633SOL     OW 8797   2.762   1.986   4.376  0.3750  0.8226 -0.1319
 2633SOL    HW1 8798   2.758   1.939   4.288  1.1379 -2.1750  1.3124
 2633SOL    HW2 8799   2.844   2.043   4.380  0.5826  0.6114 -1.2031
 2634SOL     OW 8800   5.412   3.780   5.783  0.0016  0.2107  0.4418
 2634SOL    HW1 8801   5.462   3.820   5.859 -1.4924 -0.6114  1.9227
 2634SOL    HW2 8802   5.403   3.681   5.797  0.4366 -0.1086 -1.2611
 2635SOL     OW 8803   6.798   1.934   4.804  0.3969 -0.5707  0.0218
 2635SOL    HW1 8804   6.837   1.842   4.814  0.9555 -0.7306 -2.7591
 2635SOL    HW2 8805   6.871   2.000   4.794 -0.0251 -0.0845  0.1067
 2636SOL     OW 8806   3.965   4.930   4.865 -0.1353  0.9294  0.0500
 2636SOL    HW1 8807   4.054   4.895   4.836 -0.9971 -0.6821 -0.8352
 2636SOL    HW2 8808   3.938   4.886   4.951 -0.6117  0.4015 -0.3518
 2637SOL     OW 8809   5.941   1.141   4.866  0.5108 -0.0505  0.0762
 2637SOL    HW1 8810   6.006   1.159   4.793 -0.7921  1.8838 -0.6705
 2637SOL    HW2 8811   5.922   1.042   4.870  1.6106 -0.3492 -1.2813
 2638SOL     OW 8812   3.663   6.972   1.416  0.3489 -0.1358 -0.0490
 2638SOL    HW1 8813   3.688   7.020   1.332 -2.3893 -0.1968 -0.9903
 2638SOL    HW2 8814   3.585   7.017   1.458  0.4717 -1.2492  1.4409
 2639SOL     OW 8815   4.740   0.162   6.958 -0.2665  0.4131  0.3371
 2639SOL    HW1 8816   4.788   0.225   6.898  0.9456 -0.5115  0.2934
 2639SOL    HW2 8817   4.751   0.068   6.925 -0.3743 -0.0216  1.4653
 2640SOL     OW 8818   0.930   6.504   0.592  0.1248  0.3133  0.0656
 2640SOL    HW1 8819   0.856   6.441   0.568  0.8346  0.1371 -1.8267
 2640SOL    HW2 8820   1.018   6.460   0.576  0.6324  1.7196 -1.2471
 2641SOL     OW 8821   6.223   4.916   5.459 -0.0472  0.1184  0.0454
 2641SOL    HW1 8822   6.151   4.979   5.486  0.3535  0.2494  0.8350
 2641SOL    HW2 8823   6.312   4.956   5.483  0.1587 -1.5280  2.3116
 2642SOL     OW 8824   1.305   0.805   4.527  0.6318  0.5403 -0.0108
 2642SOL    HW1 8825   1.231   0.742   4.503  0.9241  0.4228 -0.6116
 2642SOL    HW2 8826   1.359   0.764   4.601  0.4743  0.3475  0.0018
 2643SOL     OW 8827   1.151   4.290   3.973 -0.5217 -0.7206 -0.2410
 2643SOL    HW1 8828   1.131   4.277   4.070 -0.2640  1.3366  0.1295
 2643SOL    HW2 8829   1.074   4.337   3.929 -0.2990 -0.9150 -0.8451
 2644SOL     OW 8830   6.658   3.917   1.455  0.1284 -0.1048 -0.0066
 2644SOL    HW1 8831   6.676   4.015   1.451  1.5759 -0.3299  0.3300
 2644SOL    HW2 8832   6.735   3.867   1.414 -1.4076 -1.0592 -1.9040
 2645SOL     OW 8833   1.256   0.521   4.229 -0.2182  0.4054 -0.4452
 2645SOL    HW1 8834   1.255   0.473   4.141  0.0763  0.6822 -0.6010
 2645SOL    HW2 8835   1.162   0.549   4.252 -0.4960 -0.7747 -0.0486
 2646SOL     OW 8836   0.628   3.194   5.849 -0.2537  0.1514  0.0878
 2646SOL    HW1 8837   0.713   3.142   5.855  0.1356  0.8639  1.0081
 2646SOL    HW2 8838   0.587   3.202   5.939 -1.9103 -1.1295 -0.5025
 2647SOL     OW 8839   5.919   4.986   4.002  0.3741  0.5351  0.3146
 2647SOL    HW1 8840   5.844   5.042   3.968  1.0604  1.5774  0.4604
 2647SOL    HW2 8841   5.947   4.920   3.931 -0.8932 -0.1208  0.3972
 2648SOL     OW 8842   2.675   0.641   1.493 -0.0898  0.0267  0.0362
 2648SOL    HW1 8843   2.737   0.579   1.446  1.7512  0.2996  1.9331
 2648SOL    HW2 8844   2.682   0.732   1.451  1.4609  0.2513  0.6925
 2649SOL     OW 8845   0.919   1.995   3.161 -0.1491  0.2945 -0.6570
 2649SOL    HW1 8846   0.838   1.939   3.179  0.4910 -0.8076 -1.1372
 2649SOL    HW2 8847   0.974   2.001   3.244  0.8291 -1.5458 -1.1264
 2650SOL     OW 8848   5.887   2.001   3.335 -0.5527 -0.3023 -0.2394
 2650SOL    HW1 8849   5.903   1.942   3.413  1.5710 -0.2063 -0.5291
 2650SOL    HW2 8850   5.811   2.063   3.354  0.0397 -0.1406  1.8442
 2651SOL     OW 8851   5.360   0.365   1.294  0.2191 -0.4432  0.3259
 2651SOL    HW1 8852   5.376   0.398   1.201 -0.1532 -0.7090  0.1663
 2651SOL    HW2 8853   5.287   0.419   1.337  1.2351  0.5029  0.9110
 2652SOL     OW 8854   3.820   3.273   6.015 -0.0308  0.5437  0.4336
 2652SOL    HW1 8855   3.907   3.284   5.967 -0.3152  3.8957  0.4540
 2652SOL    HW2 8856   3.773   3.192   5.981  2.5140 -0.6726 -0.4501
 2653SOL     OW 8857   1.980   3.583   1.153  0.5116  0.0116  1.0976
 2653SOL    HW1 8858   1.910   3.596   1.082  2.1197 -0.7399 -0.6997
 2653SOL    HW2 8859   2.005   3.672   1.191 -1.0493  0.3404  1.4497
 2654SOL     OW 8860   1.006   6.420   3.037  0.0525 -0.1383  0.0013
 2654SOL    HW1 8861   0.987   6.333   2.992  4.2558 -0.9999 -0.5468
 2654SOL    HW2 8862   1.095   6.455   3.005  0.0855  2.6522  2.7032
 2655SOL     OW 8863   0.569   3.727   1.186 -0.0063  0.4527 -0.4019
 2655SOL    HW1 8864   0.507   3.802   1.208 -0.3091  0.3949 -1.0331
 2655SOL    HW2 8865   0.587   3.673   1.268 -1.1187  0.2343 -0.2921
 2656SOL     OW 8866   3.836   4.661   6.309 -0.5481 -0.1791 -0.4911
 2656SOL    HW1 8867   3.849   4.573   6.264  0.6539  0.4135 -1.3638
 2656SOL    HW2 8868   3.925   4.697   6.338 -0.8820  1.2565 -1.1717
 2657SOL     OW 8869   6.289   1.447   6.118 -0.1690 -0.2522  0.0722
 2657SOL    HW1 8870   6.279   1.527   6.060 -0.8288  0.3621  1.0029
 2657SOL    HW2 8871   6.286   1.474   6.214 -2.4134 -1.5580  0.4529
 2658SOL     OW 8872   4.477   2.045   5.901 -0.2194  0.2247 -0.3076
 2658SOL    HW1 8873   4.568   2.066   5.864 -0.6267  0.3532 -1.2767
 2658SOL    HW2 8874   4.414   2.119   5.877 -1.0702 -0.8609 -1.5240
 2659SOL     OW 8875   1.188   1.166   6.628 -0.3670 -0.0686 -0.1088
 2659SOL    HW1 8876   1.089   1.171   6.641 -0.3072  1.8439 -0.1350
 2659SOL    HW2 8877   1.233   1.180   6.716 -0.0984 -0.9225 -0.1009
 2660SOL     OW 8878   0.995   2.036   4.423  0.4250  0.4163  1.0257
 2660SOL    HW1 8879   0.955   1.944   4.428 -0.9981  0.9697  0.2472
 2660SOL    HW2 8880   0.925   2.104   4.442  0.6043  1.4777 -1.7220
 2661SOL     OW 8881   6.959   1.430   2.032 -0.0044  0.4514 -0.5097
 2661SOL    HW1 8882   6.967   1.490   2.112  1.7311 -1.3959  0.8105
 2661SOL    HW2 8883   7.042   1.438   1.977 -0.1134 -0.1282 -0.7628
 2662SOL     OW 8884   0.569   5.452   1.828 -0.3583  0.4193 -0.5581
 2662SOL    HW1 8885   0.637   5.503   1.775 -1.0181  0.5011 -1.3397
 2662SOL    HW2 8886   0.531   5.379   1.772 -1.9477  1.2609 -0.6305
 2663SOL     OW 8887   1.086   1.202   1.490  0.0991 -0.1185  0.2367
 2663SOL    HW1 8888   1.040   1.227   1.404 -0.4599  0.9357  0.8253
 2663SOL    HW2 8889   1.078   1.277   1.555  1.3150 -0.5454  0.9091
 2664SOL     OW 8890   1.496   3.210   2.008  0.7015 -0.2991  0.2912
 2664SOL    HW1 8891   1.514   3.133   1.947  0.4650 -0.3191  0.2464
 2664SOL    HW2 8892   1.577   3.228   2.064  2.1113  1.7185 -2.1984
 2665SOL     OW 8893   6.492   2.999   1.631 -0.1926 -0.5055 -0.3650
 2665SOL    HW1 8894   6.428   2.946   1.575  0.0536  0.3385 -1.4781
 2665SOL    HW2 8895   6.465   2.992   1.727 -0.1383 -2.6533 -0.4671
 2666SOL     OW 8896   6.783   4.771   1.695  0.1061  0.6992 -0.1937
 2666SOL    HW1 8897   6.707   4.710   1.670 -0.1689  0.3532  1.3977
 2666SOL    HW2 8898   6.747   4.857   1.729  0.4237  0.5155  0.6146
 2667SOL     OW 8899   1.486   2.730   1.565 -0.0960 -0.6189 -0.0162
 2667SOL    HW1 8900   1.397   2.767   1.537  0.6660  0.2029 -1.4829
 2667SOL    HW2 8901   1.481   2.630   1.565 -1.0989 -0.5806  0.2290
 2668SOL     OW 8902   1.539   6.173   0.593  0.6976  0.4455  0.0443
 2668SOL    HW1 8903   1.529   6.238   0.668  0.9954  1.1076 -0.4787
 2668SOL    HW2 8904   1.636   6.159   0.574  0.6182  1.4619 -1.2125
 2669SOL     OW 8905   1.980   4.160   2.054 -0.0489  0.4121 -0.3716
 2669SOL    HW1 8906   1.907   4.200   2.109 -0.1629 -0.1735 -0.0874
 2669SOL    HW2 8907   1.953   4.069   2.024  0.5364  0.2234 -0.3293
 2670SOL     OW 8908   5.721   6.422   6.548  0.0376  0.4971 -0.1398
 2670SOL    HW1 8909   5.768   6.348   6.595 -0.4407  0.5206  0.3796
 2670SOL    HW2 8910   5.655   6.465   6.610  1.0276  2.0381 -0.0860
 2671SOL     OW 8911   6.734   0.202   5.664  0.0428 -0.0325 -0.2253
 2671SOL    HW1 8912   6.770   0.172   5.752  1.0997  0.3046 -0.5336
 2671SOL    HW2 8913   6.743   0.301   5.656 -0.0785 -0.0564 -0.7038
 2672SOL     OW 8914   1.120   5.535   2.649  0.4421 -0.5048 -0.0770
 2672SOL    HW1 8915   1.058   5.478   2.703 -1.0440 -0.5937 -1.7664
 2672SOL    HW2 8916   1.156   5.482   2.572 -0.6059  0.6200 -1.4152
 2673SOL     OW 8917   2.573   0.138   5.761 -0.6114 -0.1070  0.0419
 2673SOL    HW1 8918   2.520   0.167   5.681  0.6232 -0.6931 -1.0188
 2673SOL    HW2 8919   2.539   0.049   5.792  0.4927 -1.0682 -1.3946
 2674SOL     OW 8920   4.031   6.118   6.517 -0.4372  0.2937 -0.0899
 2674SOL    HW1 8921   3.937   6.098   6.487 -0.2940 -0.8040  0.1473
 2674SOL    HW2 8922   4.034   6.118   6.617  0.0373 -0.8169 -0.0944
 2675SOL     OW 8923   0.739   4.267   6.354  0.0277 -0.1382 -0.3374
 2675SOL    HW1 8924   0.747   4.281   6.453 -0.1299 -0.3801 -0.2901
 2675SOL    HW2 8925   0.655   4.218   6.334  0.9714 -1.7880 -0.4267
 2676SOL     OW 8926   2.996   5.721   0.555 -0.1542 -0.1691  0.3996
 2676SOL    HW1 8927   3.042   5.760   0.475  0.4098 -1.2205  0.1908
 2676SOL    HW2 8928   3.026   5.626   0.567 -1.1092 -0.3812  1.1829
 2677SOL     OW 8929   3.593   2.021   6.191 -0.4031 -0.0240  0.4659
 2677SOL    HW1 8930   3.541   2.079   6.254 -0.1942 -0.8680  1.4450
 2677SOL    HW2 8931   3.651   1.959   6.243 -1.6762 -2.1157 -0.4623
 2678SOL     OW 8932   3.048   5.234   0.747  0.5040  0.7624 -0.6003
 2678SOL    HW1 8933   2.962   5.244   0.798  0.0461 -0.1276 -1.1739
 2678SOL    HW2 8934   3.120   5.205   0.809  0.2370  0.8583 -0.2378
 2679SOL     OW 8935   1.271   6.403   4.884  0.0378  0.1849 -0.3639
 2679SOL    HW1 8936   1.259   6.487   4.830  0.1385 -1.1670 -2.6381
 2679SOL    HW2 8937   1.184   6.356   4.893  0.2906 -0.3631 -0.7058
 2680SOL     OW 8938   6.540   0.014   4.471 -0.0837 -0.2778 -0.4119
 2680SOL    HW1 8939   6.575  -0.053   4.537  1.8063  0.8661 -0.1652
 2680SOL    HW2 8940   6.441   0.003   4.461  0.0358 -2.4784  0.2931
 2681SOL     OW 8941   2.971   3.667   4.557 -0.0751 -0.1111  0.0599
 2681SOL    HW1 8942   2.952   3.576   4.595 -2.4876  0.5998  0.7450
 2681SOL    HW2 8943   2.945   3.669   4.460  0.9271 -0.3998 -0.2273
 2682SOL     OW 8944   3.141   2.828   1.484  0.4903  0.0086 -0.3525
 2682SOL    HW1 8945   3.172   2.815   1.390  0.1571 -0.5127 -0.3894
 2682SOL    HW2 8946   3.119   2.740   1.525  1.3717  0.1564  0.4730
 2683SOL     OW 8947   0.614   5.695   4.775  1.2099  0.1860 -0.4656
 2683SOL    HW1 8948   0.623   5.627   4.847  0.9103  2.7604  2.1950
 2683SOL    HW2 8949   0.705   5.724   4.745  1.4056  0.9209  0.7796
 2684SOL     OW 8950   2.145   3.800   4.353 -0.4783 -0.1462  0.0380
 2684SOL    HW1 8951   2.192   3.736   4.292 -1.8287  0.2432 -1.4912
 2684SOL    HW2 8952   2.085   3.750   4.415 -1.0787 -0.4034 -0.7477
 2685SOL     OW 8953   4.945   4.085   5.091  0.1913 -0.4959 -0.1336
 2685SOL    HW1 8954   4.985   4.027   5.020 -0.6168 -1.4013  0.1251
 2685SOL    HW2 8955   4.869   4.138   5.052 -0.1563 -0.8815  0.0127
 2686SOL     OW 8956   1.424   1.952   2.107 -0.2074 -0.0497 -0.7852
 2686SOL    HW1 8957   1.367   1.908   2.037 -3.4713 -0.2348  1.7449
 2686SOL    HW2 8958   1.398   2.048   2.115 -0.1607 -0.1172  0.3760
 2687SOL     OW 8959   4.006   5.803   4.889  0.7249  0.3385 -0.6017
 2687SOL    HW1 8960   4.040   5.890   4.853 -0.4890  0.5595 -1.2588
 2687SOL    HW2 8961   4.026   5.730   4.824  0.0049  0.4620 -0.9699
 2688SOL     OW 8962   5.618   6.846   6.015  0.4042  0.3573  0.0103
 2688SOL    HW1 8963   5.660   6.779   5.954 -0.5200 -1.1684  0.9959
 2688SOL    HW2 8964   5.616   6.810   6.108 -1.1441  1.2932  0.3745
 2689SOL     OW 8965   0.286   3.251   1.168 -0.3941  0.5137 -0.3727
 2689SOL    HW1 8966   0.249   3.317   1.102  0.1778  2.1224  0.8299
 2689SOL    HW2 8967   0.235   3.258   1.254 -0.5382 -0.8713 -0.3372
 2690SOL     OW 8968   6.143   1.167   6.372 -0.6157 -0.6745  0.1320
 2690SOL    HW1 8969   6.068   1.200   6.315 -2.0939 -1.4604  1.5360
 2690SOL    HW2 8970   6.144   1.216   6.459  1.3219  0.2010 -0.3349
 2691SOL     OW 8971   1.297   6.833   6.124 -0.3242  0.3828 -0.1301
 2691SOL    HW1 8972   1.247   6.919   6.111 -1.9064 -0.1287  2.0459
 2691SOL    HW2 8973   1.267   6.766   6.056 -0.2234  1.0452 -0.8446
 2692SOL     OW 8974   0.077   6.200   5.706  0.4860 -0.0821 -0.1204
 2692SOL    HW1 8975   0.078   6.297   5.732 -0.0553  0.1204 -0.8231
 2692SOL    HW2 8976   0.078   6.144   5.788 -0.8946  0.5365  0.3619
 2693SOL     OW 8977   0.893   2.659   1.690  0.1203  0.2615  0.2450
 2693SOL    HW1 8978   0.906   2.749   1.649  0.4596 -0.2172 -0.7389
 2693SOL    HW2 8979   0.929   2.589   1.628 -3.6272 -0.8979 -0.8478
 2694SOL     OW 8980   1.771   6.204   2.717 -0.3617  0.1721  0.0124
 2694SOL    HW1 8981   1.717   6.160   2.789 -1.5065  1.4117 -0.0453
 2694SOL    HW2 8982   1.772   6.303   2.732  1.6612  0.2376 -0.1849
 2695SOL     OW 8983   1.689   1.001   1.471 -0.3676  0.0256 -0.0038
 2695SOL    HW1 8984   1.691   0.904   1.499  0.1417 -0.1247 -0.5336
 2695SOL    HW2 8985   1.601   1.022   1.430 -0.4097 -0.2743 -0.0742
 2696SOL     OW 8986   3.978   3.688   3.739  0.3196 -0.9603  0.3876
 2696SOL    HW1 8987   4.041   3.630   3.791 -0.6878 -2.6796 -0.2131
 2696SOL    HW2 8988   3.911   3.630   3.692 -0.1322  0.6555 -1.0718
 2697SOL     OW 8989   6.242   6.508   2.102 -0.9446 -0.0289  0.5168
 2697SOL    HW1 8990   6.291   6.490   2.016 -1.2174 -2.2075  0.7749
 2697SOL    HW2 8991   6.298   6.567   2.160 -0.2645  0.5549 -0.6908
 2698SOL     OW 8992   3.557   6.045   0.448  0.4201 -0.0719 -0.4678
 2698SOL    HW1 8993   3.528   5.952   0.424  2.5438 -0.8653 -0.1680
 2698SOL    HW2 8994   3.573   6.098   0.365  3.4039 -1.4100 -0.8925
 2699SOL     OW 8995   6.668   3.432   3.499 -0.1955  0.4733  0.4926
 2699SOL    HW1 8996   6.714   3.345   3.482  0.2398  0.4005  1.9689
 2699SOL    HW2 8997   6.647   3.476   3.411 -0.3318 -1.0602 -0.2681
 2700SOL     OW 8998   0.461   6.565   3.518  0.6059 -0.1211  0.3606
 2700SOL    HW1 8999   0.545   6.570   3.463  0.4680  0.0954  0.1679
 2700SOL    HW2 9000   0.485   6.541   3.612  1.1757  2.3536  0.9242
 2701SOL     OW 9001   5.088   4.419   5.409 -0.0413 -0.6611 -0.0914
 2701SOL    HW1 9002   5.133   4.395   5.324  0.8483 -0.3726  0.2844
 2701SOL    HW2 9003   5.078   4.519   5.415  1.6921 -0.5122  0.9976
 2702SOL     OW 9004   3.427   1.121   2.725  0.2126 -0.1402  0.2386
 2702SOL    HW1 9005   3.405   1.069   2.643  1.6821 -1.8063  0.8522
 2702SOL    HW2 9006   3.474   1.062   2.791  0.7726  1.6418  1.5102
 2703SOL     OW 9007   1.776   6.086   5.414  0.6969  0.1665 -0.3087
 2703SOL    HW1 9008   1.783   6.170   5.360  0.2783 -1.0768 -2.3970
 2703SOL    HW2 9009   1.814   6.009   5.362  2.1292 -0.8098  2.0029
 2704SOL     OW 9010   0.027   1.139   0.976  1.1024  0.0206  0.1441
 2704SOL    HW1 9011   0.063   1.065   1.033  1.3169  1.8561  2.5695
 2704SOL    HW2 9012   0.101   1.202   0.953  0.3076  1.5891  1.6114
 2705SOL     OW 9013   1.931   4.654   4.298  0.1312 -0.7591 -0.4121
 2705SOL    HW1 9014   1.883   4.578   4.254  0.9404 -0.9624 -0.9713
 2705SOL    HW2 9015   1.999   4.618   4.362 -1.2426 -0.4663  1.2781
 2706SOL     OW 9016   0.873   2.107   4.852 -0.4103 -0.4233  0.8238
 2706SOL    HW1 9017   0.943   2.133   4.786  1.5527 -2.1900  2.0940
 2706SOL    HW2 9018   0.788   2.157   4.832  0.6392  0.4730 -1.8430
 2707SOL     OW 9019   3.633   3.726   1.796  0.9657 -0.9823 -0.4124
 2707SOL    HW1 9020   3.658   3.790   1.868  0.1876 -0.5291 -0.5349
 2707SOL    HW2 9021   3.660   3.764   1.707  0.0089 -0.5570 -0.5323
 2708SOL     OW 9022   3.727   5.829   2.321  0.2068  0.3692 -0.3095
 2708SOL    HW1 9023   3.706   5.742   2.275 -1.4053  0.6382 -0.1252
 2708SOL    HW2 9024   3.810   5.818   2.375 -0.5111 -1.3807  0.5104
 2709SOL     OW 9025   6.731   0.737   5.447  0.3269  0.2064  0.4481
 2709SOL    HW1 9026   6.774   0.793   5.376  0.7474 -0.0956  0.4596
 2709SOL    HW2 9027   6.681   0.796   5.510  0.7768  0.5754  0.4688
 2710SOL     OW 9028   4.833   1.724   4.598  0.2745 -0.3244 -0.1141
 2710SOL    HW1 9029   4.772   1.669   4.541 -1.0412 -0.6135  1.5095
 2710SOL    HW2 9030   4.927   1.689   4.591 -0.0599 -1.0304 -1.2164
 2711SOL     OW 9031   1.977   4.548   0.141 -0.0456 -0.3488  0.0339
 2711SOL    HW1 9032   2.035   4.537   0.223 -1.1922 -2.1921  0.6518
 2711SOL    HW2 9033   1.887   4.580   0.169  0.1517  0.9447 -0.7580
 2712SOL     OW 9034   5.299   2.517   4.069 -0.0630  0.5551  0.1966
 2712SOL    HW1 9035   5.238   2.459   4.123 -0.8435 -0.5746 -1.7626
 2712SOL    HW2 9036   5.246   2.590   4.027 -0.0126 -0.1214 -1.0946
 2713SOL     OW 9037   4.699   3.511   0.348 -0.3327  0.9085 -0.5842
 2713SOL    HW1 9038   4.773   3.473   0.293 -0.4733 -1.9880  1.0514
 2713SOL    HW2 9039   4.737   3.557   0.428 -0.2363 -0.5073  0.2127
 2714SOL     OW 9040   1.990   4.734   2.924 -0.2980 -0.0739  0.1515
 2714SOL    HW1 9041   1.890   4.729   2.918 -0.2735  0.6848 -1.0386
 2714SOL    HW2 9042   2.029   4.749   2.834  0.8928 -0.0904  0.6408
 2715SOL     OW 9043   6.473   6.675   5.542 -0.2501 -0.1827 -0.5002
 2715SOL    HW1 9044   6.471   6.575   5.540  0.2693 -0.2196 -3.3058
 2715SOL    HW2 9045   6.544   6.708   5.480 -1.4457  1.9406 -0.8257
 2716SOL     OW 9046   5.485   6.367   5.298  0.8203 -0.3629  0.4591
 2716SOL    HW1 9047   5.478   6.435   5.225  0.4344 -1.2818 -0.3820
 2716SOL    HW2 9048   5.406   6.373   5.358  0.9217  0.1048  0.5465
 2717SOL     OW 9049   4.922   3.375   0.207  0.2959  0.0232  0.2170
 2717SOL    HW1 9050   4.894   3.362   0.112 -2.0157  1.5773  0.5978
 2717SOL    HW2 9051   4.997   3.441   0.212  0.0435  0.3671 -0.4915
 2718SOL     OW 9052   6.126   3.588   6.365  0.2456  0.2223 -0.2506
 2718SOL    HW1 9053   6.176   3.673   6.379  2.1368 -0.5738 -1.5687
 2718SOL    HW2 9054   6.145   3.525   6.441  1.6295 -0.1903 -0.8887
 2719SOL     OW 9055   5.422   0.122   4.090 -0.2330  0.9176 -0.0759
 2719SOL    HW1 9056   5.452   0.183   4.017  1.7980  0.6314  0.4529
 2719SOL    HW2 9057   5.469   0.146   4.175  0.5911 -1.2972  0.1618
 2720SOL     OW 9058   2.873   6.490   5.187  0.0875 -0.5207  0.4435
 2720SOL    HW1 9059   2.778   6.503   5.216 -0.1714 -2.7338  0.8130
 2720SOL    HW2 9060   2.933   6.550   5.240 -1.0109  0.1370  0.9743
 2721SOL     OW 9061   0.202   4.854   3.188  0.0146 -0.4619  0.1819
 2721SOL    HW1 9062   0.218   4.948   3.219 -1.2869  0.1167 -0.8104
 2721SOL    HW2 9063   0.270   4.830   3.119  0.8657 -0.5641  1.0390
 2722SOL     OW 9064   0.110   1.883   6.051  0.5097  0.7407  0.4329
 2722SOL    HW1 9065   0.031   1.926   6.096  0.3424  0.7999  0.0837
 2722SOL    HW2 9066   0.143   1.807   6.107 -0.0311  0.4738  0.3941
 2723SOL     OW 9067   1.155   4.543   3.272 -0.1430  0.0857 -0.9128
 2723SOL    HW1 9068   1.118   4.610   3.208  0.1418  0.6770 -0.4617
 2723SOL    HW2 9069   1.241   4.507   3.236  0.2282  0.7239 -0.6678
 2724SOL     OW 9070   5.316   3.573   4.480  0.5231 -0.6961  0.0320
 2724SOL    HW1 9071   5.352   3.521   4.403 -0.0943  1.9842 -2.2370
 2724SOL    HW2 9072   5.225   3.540   4.503 -0.1457 -0.2633 -1.8118
 2725SOL     OW 9073   0.379   4.604   1.019  0.1929 -0.2042 -0.1016
 2725SOL    HW1 9074   0.417   4.619   1.110 -0.7244  0.2557  0.2212
 2725SOL    HW2 9075   0.327   4.519   1.018 -1.6928  0.8864  0.4727
 2726SOL     OW 9076   4.711   3.322   5.939 -0.1454  0.2753  0.7972
 2726SOL    HW1 9077   4.644   3.381   5.983  0.1725  1.2944 -0.0388
 2726SOL    HW2 9078   4.711   3.339   5.840  0.0357 -1.0510  0.5504
 2727SOL     OW 9079   3.399   1.526   6.596  0.4021  0.2849 -0.0879
 2727SOL    HW1 9080   3.433   1.590   6.665  0.5890  1.1765 -0.9882
 2727SOL    HW2 9081   3.440   1.546   6.508 -2.1512  1.2277 -1.1712
 2728SOL     OW 9082   4.375   2.316   6.773  0.3295 -0.3464  0.1248
 2728SOL    HW1 9083   4.362   2.380   6.848 -0.3949  1.1958 -1.2552
 2728SOL    HW2 9084   4.407   2.365   6.692  1.5588 -2.0314 -0.4757
 2729SOL     OW 9085   3.076   4.009   5.194  0.1790  0.9283 -0.0664
 2729SOL    HW1 9086   3.158   4.066   5.188  0.3525  0.7208  0.2823
 2729SOL    HW2 9087   3.035   3.999   5.104 -0.1617  2.0601 -0.0466
 2730SOL     OW 9088   6.178   4.835   5.729  0.4576  0.7204 -0.5026
 2730SOL    HW1 9089   6.205   4.850   5.634 -1.4965  0.7452 -1.0936
 2730SOL    HW2 9090   6.147   4.921   5.769 -0.0098  0.4537 -0.2788
 2731SOL     OW 9091   6.059   1.876   6.927  0.9295 -0.2109  0.0031
 2731SOL    HW1 9092   6.054   1.975   6.926 -0.3368 -0.2626 -0.3472
 2731SOL    HW2 9093   6.052   1.841   6.833 -0.9064 -0.6931  0.2750
 2732SOL     OW 9094   6.282   3.108   5.054  0.1573 -0.1903  0.5978
 2732SOL    HW1 9095   6.324   3.116   4.964  0.6744 -0.1277  0.8431
 2732SOL    HW2 9096   6.321   3.176   5.116 -0.8406  0.3840  0.6310
 2733SOL     OW 9097   6.542   5.406   2.658  0.0421  0.1081 -0.1663
 2733SOL    HW1 9098   6.576   5.496   2.687  0.7214 -0.5021  1.0371
 2733SOL    HW2 9099   6.456   5.418   2.610 -0.6298  1.3248  1.2246
 2734SOL     OW 9100   4.441   4.310   0.226 -0.1381  0.0416  0.2948
 2734SOL    HW1 9101   4.537   4.339   0.225 -0.0407  0.1727  3.4918
 2734SOL    HW2 9102   4.417   4.273   0.136  2.3875  1.4867 -1.1151
 2735SOL     OW 9103   5.565   6.153   5.139 -0.5201  0.6847  0.3303
 2735SOL    HW1 9104   5.523   6.231   5.185 -2.0830 -0.7580  1.5065
 2735SOL    HW2 9105   5.656   6.177   5.108  0.3327  2.0225  3.4745
 2736SOL     OW 9106   2.310   0.740   5.384  0.4835  0.3053 -0.1569
 2736SOL    HW1 9107   2.353   0.819   5.340 -0.1367  1.3419  1.0289
 2736SOL    HW2 9108   2.374   0.697   5.447  1.0303 -0.5494 -1.2672
 2737SOL     OW 9109   2.691   6.659   0.582  0.3112 -0.0352 -0.2695
 2737SOL    HW1 9110   2.652   6.690   0.495 -0.4402 -0.1278  0.0236
 2737SOL    HW2 9111   2.624   6.602   0.629  1.1464 -0.9329 -0.1500
 2738SOL     OW 9112   2.044   5.387   2.484 -0.1653  0.4273 -0.0364
 2738SOL    HW1 9113   2.048   5.454   2.411 -0.6533  0.1775 -0.3009
 2738SOL    HW2 9114   1.953   5.388   2.526 -0.3985 -0.5158 -0.4831
 2739SOL     OW 9115   5.963   5.980   6.039 -0.7690 -0.1410  0.1824
 2739SOL    HW1 9116   5.866   6.001   6.051 -0.6371  0.2433  0.6499
 2739SOL    HW2 9117   5.978   5.937   5.950 -1.3737 -0.2475  0.1304
 2740SOL     OW 9118   5.119   3.080   1.013 -0.1627 -0.3010  0.5390
 2740SOL    HW1 9119   5.096   2.990   0.976  0.9254  0.3254 -1.8256
 2740SOL    HW2 9120   5.077   3.090   1.103 -1.9463 -2.3994  0.0311
 2741SOL     OW 9121   0.561   2.704   2.375 -1.0100 -0.5506  0.0867
 2741SOL    HW1 9122   0.506   2.771   2.425 -1.2290 -0.1940 -0.6146
 2741SOL    HW2 9123   0.572   2.622   2.430 -0.9157 -0.0205  0.8777
 2742SOL     OW 9124   5.411   4.337   4.663  0.2130 -0.2182  0.1893
 2742SOL    HW1 9125   5.331   4.301   4.615  0.1652 -0.4429  0.4380
 2742SOL    HW2 9126   5.386   4.423   4.708 -0.0789 -0.6349  0.8371
 2743SOL     OW 9127   6.367   0.110   0.793 -0.1294  0.2477  0.0155
 2743SOL    HW1 9128   6.335   0.199   0.762 -0.6285 -0.7016 -2.4442
 2743SOL    HW2 9129   6.297   0.067   0.850 -2.8628 -1.1216 -3.9712
 2744SOL     OW 9130   1.175   5.711   6.550  0.0548 -0.3268  0.1804
 2744SOL    HW1 9131   1.237   5.651   6.599  1.6189  0.0272 -1.2957
 2744SOL    HW2 9132   1.225   5.763   6.481 -1.9085 -0.1824 -1.2390
 2745SOL     OW 9133   3.184   4.816   1.912 -0.3786  0.0385 -0.2480
 2745SOL    HW1 9134   3.231   4.756   1.846  0.3954  1.9178 -1.4845
 2745SOL    HW2 9135   3.228   4.906   1.912  0.3521 -0.1742  3.7128
 2746SOL     OW 9136   5.341   1.700   5.644  0.1792 -0.5332 -0.2675
 2746SOL    HW1 9137   5.287   1.618   5.625  3.6104 -3.1477  0.0986
 2746SOL    HW2 9138   5.397   1.722   5.563 -1.0551  1.8847 -0.5458
 2747SOL     OW 9139   0.052   3.311   2.987 -0.4314 -0.0798 -0.4549
 2747SOL    HW1 9140   0.043   3.350   2.896  1.9242  2.4050  0.2456
 2747SOL    HW2 9141   0.132   3.250   2.989  0.7746  1.4602  0.3541
 2748SOL     OW 9142   6.435   4.054   3.849  0.5445  0.2120  0.3045
 2748SOL    HW1 9143   6.451   4.150   3.874 -0.5359  0.9610 -1.7315
 2748SOL    HW2 9144   6.337   4.038   3.838  0.6900 -1.2362  0.9121
 2749SOL     OW 9145   0.635   1.839   1.277  0.2596 -0.1601 -0.6361
 2749SOL    HW1 9146   0.632   1.798   1.369 -0.7218  1.4483  0.0902
 2749SOL    HW2 9147   0.581   1.783   1.214  1.6433 -1.7537 -0.4623
 2750SOL     OW 9148   6.504   0.800   3.901 -0.7613  0.3529  0.1282
 2750SOL    HW1 9149   6.567   0.788   3.824 -1.7865 -0.3036 -0.6273
 2750SOL    HW2 9150   6.533   0.741   3.977 -0.2502  0.3512 -0.0622
 2751SOL     OW 9151   3.798   2.649   6.383 -0.6554 -0.7740 -0.3242
 2751SOL    HW1 9152   3.776   2.697   6.468 -2.5840  0.8413 -1.6387
 2751SOL    HW2 9153   3.747   2.563   6.378 -1.3518 -0.3759 -0.2588
 2752SOL     OW 9154   6.961   3.242   5.252  0.7629  0.0593 -0.0240
 2752SOL    HW1 9155   6.931   3.274   5.341 -1.3598 -2.8062  0.4456
 2752SOL    HW2 9156   7.013   3.158   5.262 -0.7406 -1.1257 -1.4557
 2753SOL     OW 9157   0.335   4.315   5.821 -0.1403  0.0711 -0.4127
 2753SOL    HW1 9158   0.272   4.241   5.846 -0.6894  1.0629  1.2751
 2753SOL    HW2 9159   0.427   4.277   5.808 -0.9721 -1.3989 -2.8612
 2754SOL     OW 9160   0.200   2.789   3.442 -0.1794  0.4481 -0.1287
 2754SOL    HW1 9161   0.294   2.819   3.454 -0.9630  2.6192  1.0430
 2754SOL    HW2 9162   0.175   2.725   3.515  0.8808 -1.6347 -1.4916
 2755SOL     OW 9163   6.612   4.935   1.265 -0.0514  0.3125 -0.4930
 2755SOL    HW1 9164   6.520   4.940   1.303  0.0651  0.9864 -0.2757
 2755SOL    HW2 9165   6.610   4.968   1.170 -0.1181 -0.1310 -0.6454
 2756SOL     OW 9166   0.456   3.479   4.971  0.0035  0.4655  0.5421
 2756SOL    HW1 9167   0.384   3.542   4.998 -0.4376 -0.3225  1.2702
 2756SOL    HW2 9168   0.546   3.521   4.986 -0.2650  1.9655 -1.6189
 2757SOL     OW 9169   3.230   4.928   2.479  0.5542  0.2628 -0.8585
 2757SOL    HW1 9170   3.191   5.019   2.489  0.9703  0.6075 -2.1523
 2757SOL    HW2 9171   3.263   4.916   2.385 -0.0222 -1.4296 -0.8781
 2758SOL     OW 9172   6.741   6.607   3.380  0.0573  0.2443  0.1918
 2758SOL    HW1 9173   6.734   6.591   3.281 -0.2822  2.5187 -0.1982
 2758SOL    HW2 9174   6.836   6.592   3.409 -0.3249 -3.0573  0.0972
 2759SOL     OW 9175   3.338   3.744   5.640 -0.5416  0.5618  0.2253
 2759SOL    HW1 9176   3.297   3.831   5.614 -0.1491  0.5150 -0.6202
 2759SOL    HW2 9177   3.309   3.718   5.732 -1.1046  1.3066  0.2624
 2760SOL     OW 9178   2.430   2.371   5.381  0.8690  0.0607 -0.1874
 2760SOL    HW1 9179   2.499   2.416   5.438 -0.8317  0.3836  1.7469
 2760SOL    HW2 9180   2.402   2.433   5.307  0.6618  1.0476  0.6929
 2761SOL     OW 9181   6.788   6.532   1.159 -0.2011 -0.4842  0.9514
 2761SOL    HW1 9182   6.815   6.452   1.212  1.8458 -0.1280  0.5319
 2761SOL    HW2 9183   6.804   6.515   1.062  2.0212  0.9967  0.9816
 2762SOL     OW 9184   6.417   3.372   2.429 -0.1024 -0.0539 -0.0118
 2762SOL    HW1 9185   6.346   3.435   2.396  1.0951  0.6624 -1.3357
 2762SOL    HW2 9186   6.447   3.314   2.354  1.4488  0.3836  0.2475
 2763SOL     OW 9187   1.091   5.573   5.947 -0.0716  0.0769  0.0489
 2763SOL    HW1 9188   1.030   5.642   5.907  1.1228  1.3892  0.4208
 2763SOL    HW2 9189   1.166   5.619   5.995 -0.8907 -1.4558  2.9648
 2764SOL     OW 9190   2.661   4.600   2.402  0.0061 -0.7955 -0.4699
 2764SOL    HW1 9191   2.759   4.587   2.411 -0.2323 -2.0878  0.5375
 2764SOL    HW2 9192   2.636   4.606   2.305  1.0973 -0.1031 -0.7265
 2765SOL     OW 9193   3.602   6.482   5.400 -0.1372  0.4742 -0.3539
 2765SOL    HW1 9194   3.648   6.393   5.404 -1.4583 -0.4595 -3.0489
 2765SOL    HW2 9195   3.629   6.537   5.479  1.1523 -2.0812  1.1395
 2766SOL     OW 9196   1.296   2.247   3.023 -0.1462  0.2749 -0.2972
 2766SOL    HW1 9197   1.210   2.290   3.051 -0.2985 -0.0956 -0.1904
 2766SOL    HW2 9198   1.296   2.151   3.051 -0.5116 -0.2541 -1.9787
 2767SOL     OW 9199   2.059   3.535   5.012  0.3757 -0.4006  0.0094
 2767SOL    HW1 9200   2.076   3.633   5.025 -0.5895 -0.0988 -0.8321
 2767SOL    HW2 9201   2.006   3.500   5.089  0.8113 -0.2917  0.3637
 2768SOL     OW 9202   3.560   0.849   1.851 -0.0367 -0.0711 -0.8047
 2768SOL    HW1 9203   3.567   0.797   1.766  0.4315  2.1707 -2.2077
 2768SOL    HW2 9204   3.649   0.849   1.897 -0.2965 -1.3064 -0.2361
 2769SOL     OW 9205   3.115   6.433   3.978  0.2901 -0.1147  0.1288
 2769SOL    HW1 9206   3.180   6.421   4.053  0.6930  1.3442  0.0541
 2769SOL    HW2 9207   3.085   6.529   3.975 -0.4336 -0.3568 -0.9960
 2770SOL     OW 9208   3.901   0.537   2.077  0.0721 -0.8831 -0.1058
 2770SOL    HW1 9209   3.928   0.475   2.003  0.9774  0.7042 -1.1853
 2770SOL    HW2 9210   3.803   0.527   2.094 -0.0527 -1.6852 -1.1490
 2771SOL     OW 9211   5.390   1.146   5.858  0.3979  0.4791 -0.6126
 2771SOL    HW1 9212   5.432   1.090   5.787  0.6412 -0.9933  0.6238
 2771SOL    HW2 9213   5.330   1.089   5.914 -1.9145  2.1536 -1.2193
 2772SOL     OW 9214   4.831   3.228   0.420  0.1821  0.1512 -0.0597
 2772SOL    HW1 9215   4.734   3.254   0.419 -0.3402 -1.6945 -0.0692
 2772SOL    HW2 9216   4.877   3.270   0.341 -0.7128  0.6301 -0.3444
 2773SOL     OW 9217   4.663   3.440   0.819 -0.4919  0.2861  0.6468
 2773SOL    HW1 9218   4.667   3.340   0.827 -0.0241  0.2478  0.0099
 2773SOL    HW2 9219   4.569   3.468   0.800 -0.6214 -0.0340  0.8039
 2774SOL     OW 9220   1.572   2.383   2.429 -0.1837  0.1533 -0.0221
 2774SOL    HW1 9221   1.490   2.421   2.384 -0.0389  0.1794 -0.2657
 2774SOL    HW2 9222   1.639   2.357   2.359  0.0826  0.2823  0.1857
 2775SOL     OW 9223   0.857   5.803   0.078  0.4362 -0.0570  0.6466
 2775SOL    HW1 9224   0.880   5.714   0.117  0.9689 -0.8303 -1.3113
 2775SOL    HW2 9225   0.935   5.865   0.086  0.8983 -0.5317 -0.0166
 2776SOL     OW 9226   6.918   5.983   6.909 -0.5881  0.0318 -0.7342
 2776SOL    HW1 9227   6.913   6.077   6.942  1.3433 -0.2194  0.4314
 2776SOL    HW2 9228   6.910   5.920   6.986 -0.5637 -0.7323 -1.3389
 2777SOL     OW 9229   1.469   0.418   3.672  0.2478  0.4550 -0.7490
 2777SOL    HW1 9230   1.443   0.348   3.606  2.8233  0.9792 -2.4722
 2777SOL    HW2 9231   1.510   0.374   3.752 -1.3977 -0.1157 -0.1885
 2778SOL     OW 9232   2.618   5.071   5.306 -0.6627  0.1580 -0.4105
 2778SOL    HW1 9233   2.675   4.999   5.266 -1.2943 -0.9028  0.5133
 2778SOL    HW2 9234   2.522   5.055   5.283 -0.8513  0.4741  0.1276
 2779SOL     OW 9235   5.515   0.200   2.617  0.1861 -0.0421 -0.5807
 2779SOL    HW1 9236   5.429   0.246   2.595 -0.1391 -1.0340 -1.4731
 2779SOL    HW2 9237   5.551   0.236   2.703 -0.1692  1.6786 -1.1147
 2780SOL     OW 9238   3.099   4.948   6.789  0.0236  0.3910 -0.6354
 2780SOL    HW1 9239   3.181   4.965   6.734  0.2176  0.2319 -0.4014
 2780SOL    HW2 9240   3.026   4.913   6.732 -0.0053  0.9046 -0.9189
 2781SOL     OW 9241   4.180   0.146   3.091 -0.6462  0.4036  0.0259
 2781SOL    HW1 9242   4.164   0.113   3.184 -1.0587 -0.3331 -0.3006
 2781SOL    HW2 9243   4.197   0.068   3.030 -2.2283  0.7254 -0.8799
 2782SOL     OW 9244   1.102   5.998   4.543 -0.6350 -0.7233 -0.0915
 2782SOL    HW1 9245   1.196   5.998   4.579 -1.1085  1.2669  1.3091
 2782SOL    HW2 9246   1.099   5.944   4.458  1.7702 -0.7849 -0.2156
 2783SOL     OW 9247   6.349   2.068   3.105  0.4847  0.5033 -0.0610
 2783SOL    HW1 9248   6.357   2.126   3.025  1.0180  0.4579 -0.0452
 2783SOL    HW2 9249   6.263   2.016   3.101 -1.3250  3.1517  1.1731
 2784SOL     OW 9250   5.514   0.325   4.320  0.4693  0.5604 -0.2355
 2784SOL    HW1 9251   5.482   0.416   4.346  0.4445  0.7958 -1.0766
 2784SOL    HW2 9252   5.488   0.259   4.392 -0.5311  1.0114 -0.1596
 2785SOL     OW 9253   5.625   2.302   5.483 -0.0842  0.2366 -0.2717
 2785SOL    HW1 9254   5.616   2.224   5.545  1.8622 -0.4638 -0.8128
 2785SOL    HW2 9255   5.591   2.384   5.529 -0.6780 -0.6349  0.9097
 2786SOL     OW 9256   5.870   6.638   1.695  0.1442 -0.0501  0.4328
 2786SOL    HW1 9257   5.815   6.720   1.678  0.1183  0.3390  2.1425
 2786SOL    HW2 9258   5.860   6.574   1.619  0.2352  1.5540 -0.9893
 2787SOL     OW 9259   1.966   3.186   5.216 -0.1638 -0.2664 -0.1343
 2787SOL    HW1 9260   1.952   3.283   5.233 -0.1304  0.0006 -1.4985
 2787SOL    HW2 9261   1.894   3.133   5.262 -0.2817  0.4074  0.4721
 2788SOL     OW 9262   0.331   5.619   5.485 -0.3947 -0.0804 -0.0859
 2788SOL    HW1 9263   0.347   5.601   5.388 -1.5048  0.7719 -0.4517
 2788SOL    HW2 9264   0.352   5.536   5.538  2.2835  0.0836 -0.7668
 2789SOL     OW 9265   6.555   0.205   6.901  0.4126 -0.6424  0.3803
 2789SOL    HW1 9266   6.626   0.272   6.877  2.2541 -1.7367  2.4484
 2789SOL    HW2 9267   6.559   0.129   6.836 -0.6956  0.4574 -1.0718
 2790SOL     OW 9268   3.995   3.725   0.292 -0.5380 -0.3752  0.2387
 2790SOL    HW1 9269   3.958   3.632   0.289  2.0654 -1.5072  0.7625
 2790SOL    HW2 9270   4.094   3.721   0.301 -0.1066  2.4564 -1.8328
 2791SOL     OW 9271   6.780   6.542   3.082 -0.0466  0.0853 -0.1545
 2791SOL    HW1 9272   6.859   6.554   3.021 -0.4771 -0.0133 -0.7432
 2791SOL    HW2 9273   6.760   6.445   3.093 -0.8051  0.1399 -0.9626
 2792SOL     OW 9274   1.915   1.788   4.479  0.1577 -0.0167 -0.1477
 2792SOL    HW1 9275   1.952   1.879   4.498 -1.3675  0.4281  0.8362
 2792SOL    HW2 9276   1.870   1.752   4.561 -1.7775 -0.4214 -1.3236
 2793SOL     OW 9277   2.145   5.885   6.812 -0.2127  0.0332 -0.1578
 2793SOL    HW1 9278   2.153   5.811   6.880 -1.3151 -0.3152 -0.3904
 2793SOL    HW2 9279   2.231   5.893   6.762  0.4553 -0.0371  0.9400
 2794SOL     OW 9280   6.236   0.517   2.157  0.4971 -0.6144 -0.0888
 2794SOL    HW1 9281   6.211   0.453   2.229  1.0731 -0.8928 -0.1285
 2794SOL    HW2 9282   6.293   0.590   2.195  0.9830 -0.8796 -0.2927
 2795SOL     OW 9283   1.782   3.600   0.910  0.4360  0.0562 -0.1600
 2795SOL    HW1 9284   1.724   3.552   0.845  0.5974 -1.0439  0.4726
 2795SOL    HW2 9285   1.739   3.687   0.935 -1.4415 -1.1020  0.9640
 2796SOL     OW 9286   5.407   2.415   2.523 -0.0351 -0.4329  0.0259
 2796SOL    HW1 9287   5.506   2.418   2.508 -0.1703 -0.1529 -0.9087
 2796SOL    HW2 9288   5.381   2.484   2.590  0.6965 -2.2002  2.2807
 2797SOL     OW 9289   5.103   2.357   1.903 -0.1533 -0.0774  0.0429
 2797SOL    HW1 9290   5.068   2.270   1.870 -0.0950 -0.3973  0.8148
 2797SOL    HW2 9291   5.047   2.389   1.979 -0.1281  0.5218 -0.1836
 2798SOL     OW 9292   6.252   3.250   6.086 -0.3601  0.2851 -0.2009
 2798SOL    HW1 9293   6.273   3.348   6.094  0.5099  0.1546 -0.7196
 2798SOL    HW2 9294   6.156   3.234   6.111 -0.8053  1.4182 -1.0962
 2799SOL     OW 9295   4.213   3.653   1.135  0.1415  0.5899 -0.0133
 2799SOL    HW1 9296   4.189   3.638   1.039 -0.6507  1.0646  0.1055
 2799SOL    HW2 9297   4.293   3.597   1.158  1.1666  1.4680 -1.2976
 2800SOL     OW 9298   3.442   3.230   0.734  0.2049  0.0833  0.4444
 2800SOL    HW1 9299   3.369   3.251   0.669 -0.5070 -0.0670  1.1838
 2800SOL    HW2 9300   3.411   3.161   0.798  1.8930 -2.0350 -0.8464
 2801SOL     OW 9301   0.791   0.503   1.231  0.0192 -0.3243 -0.3763
 2801SOL    HW1 9302   0.714   0.444   1.207  0.8117 -1.2559 -0.7214
 2801SOL    HW2 9303   0.864   0.492   1.163  0.0037  1.4494 -0.7256
 2802SOL     OW 9304   5.153   4.559   5.959 -0.1025  0.7373 -0.3658
 2802SOL    HW1 9305   5.155   4.655   5.985  1.1916  0.4081  0.8916
 2802SOL    HW2 9306   5.234   4.538   5.904 -1.3469  0.7637 -2.2857
 2803SOL     OW 9307   2.926   2.952   0.594 -0.0808  0.0433  0.6174
 2803SOL    HW1 9308   2.901   2.905   0.510  0.3753  1.1952 -0.1955
 2803SOL    HW2 9309   2.953   2.885   0.663  1.3774 -0.8745 -0.7652
 2804SOL     OW 9310   4.047   6.297   4.516 -0.0833 -0.7994  0.0192
 2804SOL    HW1 9311   3.980   6.370   4.504  0.0286 -0.3821  1.7232
 2804SOL    HW2 9312   4.128   6.334   4.562 -0.2236 -2.0823  1.3664
 2805SOL     OW 9313   2.523   1.389   1.070 -0.1620  0.4004 -0.3403
 2805SOL    HW1 9314   2.452   1.445   1.112  0.6204  1.1796 -0.0524
 2805SOL    HW2 9315   2.493   1.361   0.978  0.7969  4.2183 -2.0096
 2806SOL     OW 9316   4.857   3.167   1.452 -0.1037 -0.1553  0.5691
 2806SOL    HW1 9317   4.829   3.200   1.362 -0.5966  1.8052  1.3788
 2806SOL    HW2 9318   4.787   3.192   1.520  0.9558 -0.2552  1.7314
 2807SOL     OW 9319   7.004   2.705   1.473  0.6351 -0.2499 -0.5146
 2807SOL    HW1 9320   7.043   2.648   1.546  2.0827 -0.7100 -1.6082
 2807SOL    HW2 9321   7.045   2.796   1.478 -1.1915  0.5550  0.8202
 2808SOL     OW 9322   1.641   4.032   4.619 -0.3044  0.2955  0.0820
 2808SOL    HW1 9323   1.553   4.000   4.656 -0.2379  0.8577  0.7441
 2808SOL    HW2 9324   1.677   4.105   4.677  0.5531  0.1430 -0.2447
 2809SOL     OW 9325   0.208   4.982   6.011 -0.8316 -0.0722 -0.4213
 2809SOL    HW1 9326   0.187   4.930   5.929  2.3949  0.3102 -1.6651
 2809SOL    HW2 9327   0.285   4.938   6.059 -1.2669  0.8801  1.2250
 2810SOL     OW 9328   2.261   2.485   3.914 -0.8681 -0.2048  0.4438
 2810SOL    HW1 9329   2.314   2.468   3.998  0.0880  1.2978  0.1743
 2810SOL    HW2 9330   2.317   2.537   3.850 -0.7607 -3.1027 -2.0527
 2811SOL     OW 9331   5.685   3.207   0.579 -0.3153 -0.0581 -0.1856
 2811SOL    HW1 9332   5.676   3.261   0.495 -0.8855  1.1696  0.6412
 2811SOL    HW2 9333   5.715   3.266   0.653  0.0575 -1.1105  0.5161
 2812SOL     OW 9334   1.974   0.197   3.062  0.0175 -0.0707 -0.2517
 2812SOL    HW1 9335   1.930   0.272   3.112 -1.3472 -0.8860 -0.1604
 2812SOL    HW2 9336   1.956   0.207   2.964  2.2275  1.2264 -0.5831
 2813SOL     OW 9337   0.828   2.931   5.696  0.1680  0.4591 -0.5324
 2813SOL    HW1 9338   0.928   2.930   5.694  0.1972  0.2315  0.4344
 2813SOL    HW2 9339   0.795   2.857   5.755 -0.6301 -0.6025 -2.2239
 2814SOL     OW 9340   4.328   0.862   1.506 -0.2604  0.1826 -0.3096
 2814SOL    HW1 9341   4.410   0.833   1.456  0.5244  1.4565  0.1994
 2814SOL    HW2 9342   4.338   0.957   1.534 -1.0152 -0.2543  1.5909
 2815SOL     OW 9343   5.062   5.250   4.158  0.4991  0.0245 -0.3589
 2815SOL    HW1 9344   5.067   5.152   4.140 -1.6690 -0.2974  0.5079
 2815SOL    HW2 9345   5.078   5.267   4.256  2.0363  0.6977 -0.6894
 2816SOL     OW 9346   4.872   2.287   4.291 -0.8021 -0.9781  0.4761
 2816SOL    HW1 9347   4.920   2.208   4.329 -1.2339 -0.3965  2.2880
 2816SOL    HW2 9348   4.774   2.268   4.285 -0.5435 -1.9463 -2.6828
 2817SOL     OW 9349   3.996   0.620   5.573  0.2140 -0.3371  1.0606
 2817SOL    HW1 9350   4.022   0.523   5.572  1.2227 -0.0796  1.0258
 2817SOL    HW2 9351   3.920   0.633   5.637 -1.5296 -1.5173 -0.6232
 2818SOL     OW 9352   3.516   4.974   2.516 -1.0529  0.1818 -0.5324
 2818SOL    HW1 9353   3.562   4.950   2.431  0.0032 -0.5066  0.2018
 2818SOL    HW2 9354   3.439   4.913   2.532 -2.0110  1.0855 -1.5759
 2819SOL     OW 9355   5.444   5.519   2.836 -0.2399  0.1268 -0.0969
 2819SOL    HW1 9356   5.347   5.497   2.829  0.0475 -0.6697 -2.0375
 2819SOL    HW2 9357   5.455   5.611   2.874 -1.6909 -0.1546  1.0940
 2820SOL     OW 9358   5.787   0.689   6.155  0.6012  0.0326 -0.1966
 2820SOL    HW1 9359   5.770   0.597   6.190  1.1063  0.3139  0.8456
 2820SOL    HW2 9360   5.775   0.755   6.229  1.3512  0.6907 -0.6432
 2821SOL     OW 9361   6.718   4.414   3.983 -0.9026  0.3602 -0.3538
 2821SOL    HW1 9362   6.766   4.433   3.897 -0.3090  0.4683 -0.0033
 2821SOL    HW2 9363   6.783   4.383   4.052 -1.7473 -2.9829 -0.8501
 2822SOL     OW 9364   6.160   0.234   3.081  0.0574 -0.1028 -0.0864
 2822SOL    HW1 9365   6.251   0.209   3.048 -0.3086  1.1446 -2.2419
 2822SOL    HW2 9366   6.166   0.316   3.138  0.1005  1.5783 -2.3661
 2823SOL     OW 9367   1.277   4.077   4.324  0.3198  0.0207  0.0660
 2823SOL    HW1 9368   1.311   4.020   4.400 -0.8309  0.0129  0.5925
 2823SOL    HW2 9369   1.195   4.036   4.286  0.3837  0.5047 -0.6108
 2824SOL     OW 9370   3.804   5.100   4.241 -0.1308  0.4552  0.1337
 2824SOL    HW1 9371   3.813   5.081   4.338 -0.3727 -0.1169  0.0471
 2824SOL    HW2 9372   3.769   5.193   4.229 -0.4165  0.4140  0.6050
 2825SOL     OW 9373   1.777   6.468   2.205 -0.6712  0.1318 -0.1617
 2825SOL    HW1 9374   1.828   6.405   2.263  0.8642  1.0520 -0.4673
 2825SOL    HW2 9375   1.727   6.533   2.263  0.0723  0.4379  0.1519
 2826SOL     OW 9376   6.560   1.419   6.715 -0.2112  0.1162  0.2735
 2826SOL    HW1 9377   6.517   1.438   6.627  1.6771 -0.3636 -0.8078
 2826SOL    HW2 9378   6.563   1.320   6.730 -0.6038  0.1986  0.9253
 2827SOL     OW 9379   1.701   6.477   3.446  0.0871  0.3209  0.2193
 2827SOL    HW1 9380   1.741   6.405   3.503 -0.0844  0.8309  0.9972
 2827SOL    HW2 9381   1.658   6.546   3.505 -1.4933  0.0421 -0.5636
 2828SOL     OW 9382   4.493   6.180   1.113  0.2308  0.6919 -0.1362
 2828SOL    HW1 9383   4.524   6.143   1.200 -0.5387 -1.8112 -0.8186
 2828SOL    HW2 9384   4.537   6.131   1.038 -1.6526  0.3956 -1.1147
 2829SOL     OW 9385   5.145   5.433   0.966 -0.0260  0.2617 -0.3190
 2829SOL    HW1 9386   5.045   5.440   0.964 -0.0485  0.0741 -0.0416
 2829SOL    HW2 9387   5.183   5.508   1.021  0.0299  0.6980 -0.9481
 2830SOL     OW 9388   0.753   3.976   1.200  0.4550 -0.2475  0.0342
 2830SOL    HW1 9389   0.722   4.025   1.119 -0.7120 -0.3077  0.4273
 2830SOL    HW2 9390   0.718   3.883   1.199 -2.1815  0.5898  2.0235
 2831SOL     OW 9391   0.259   6.556   3.358  0.1876 -0.0261 -1.1076
 2831SOL    HW1 9392   0.326   6.554   3.432 -0.9855  0.0789 -0.0158
 2831SOL    HW2 9393   0.231   6.463   3.336 -1.9165  0.0519  0.9136
 2832SOL     OW 9394   4.433   2.961   6.401  0.2270  0.6348 -0.0190
 2832SOL    HW1 9395   4.424   2.964   6.500  2.3704  0.2391  0.2388
 2832SOL    HW2 9396   4.355   2.911   6.362 -0.8547  1.1457  1.3848
 2833SOL     OW 9397   5.146   4.204   2.833 -0.2576 -0.2760  0.1728
 2833SOL    HW1 9398   5.183   4.112   2.820 -0.7353 -0.7193  1.7478
 2833SOL    HW2 9399   5.211   4.259   2.886  0.5360  0.6876 -1.7099
 2834SOL     OW 9400   3.867   4.811   5.538 -0.3383  0.0282  0.0057
 2834SOL    HW1 9401   3.882   4.853   5.448  1.5120  0.3240  0.4063
 2834SOL    HW2 9402   3.866   4.882   5.608 -1.3385 -0.2431  0.2725
 2835SOL     OW 9403   0.154   5.522   3.979  0.3347  0.2823 -0.0431
 2835SOL    HW1 9404   0.199   5.536   4.067  1.3600 -0.5110 -0.4145
 2835SOL    HW2 9405   0.172   5.600   3.920  2.6426 -0.6685 -0.7283
 2836SOL     OW 9406   5.907   0.130   5.078 -0.4956 -0.9100  0.0429
 2836SOL    HW1 9407   5.820   0.169   5.050 -0.0428  1.2603  1.3859
 2836SOL    HW2 9408   5.891   0.062   5.149 -1.0831  0.4386  1.2620
 2837SOL     OW 9409   5.363   2.900   6.235  0.0120 -0.2855  0.5354
 2837SOL    HW1 9410   5.297   2.866   6.302  2.2427 -0.1907  2.9087
 2837SOL    HW2 9411   5.340   2.994   6.210 -0.8981 -0.3526  1.0654
 2838SOL     OW 9412   3.761   4.083   0.528  0.0549  0.2742  0.1762
 2838SOL    HW1 9413   3.664   4.078   0.554 -0.5727 -0.5733 -2.0525
 2838SOL    HW2 9414   3.784   4.005   0.469  1.0846  2.2981 -2.3060
 2839SOL     OW 9415   5.483   5.276   3.759  0.3595  0.3678  0.0838
 2839SOL    HW1 9416   5.487   5.331   3.843 -0.8688 -0.2549  0.5765
 2839SOL    HW2 9417   5.400   5.299   3.708  0.5520 -0.0267 -0.4144
 2840SOL     OW 9418   5.584   4.293   5.046  0.0643  0.5348 -0.8142
 2840SOL    HW1 9419   5.571   4.348   5.128  0.6899  1.1672 -1.1241
 2840SOL    HW2 9420   5.603   4.198   5.071  0.6198  0.7991 -0.2154
 2841SOL     OW 9421   4.629   3.673   5.314  0.1348 -0.1877 -0.8181
 2841SOL    HW1 9422   4.700   3.645   5.379  0.5658 -0.6621 -1.4786
 2841SOL    HW2 9423   4.655   3.644   5.222 -0.9395 -0.4043 -1.0665
 2842SOL     OW 9424   1.175   1.844   3.632  0.7015 -0.2608  0.0045
 2842SOL    HW1 9425   1.196   1.921   3.691 -2.1509 -0.4946  1.5196
 2842SOL    HW2 9426   1.209   1.759   3.673 -0.0020 -0.2602  0.6077
 2843SOL     OW 9427   1.039   0.835   6.088 -0.6127  0.2686  0.4166
 2843SOL    HW1 9428   1.079   0.925   6.105 -1.7247  0.9037 -0.2113
 2843SOL    HW2 9429   1.024   0.823   5.990  2.4934 -1.9307  0.0573
 2844SOL     OW 9430   0.744   2.063   1.232  0.1787  0.3266 -0.2123
 2844SOL    HW1 9431   0.812   2.039   1.163 -0.1272 -0.5981 -0.2069
 2844SOL    HW2 9432   0.687   1.984   1.252 -0.8821  1.0666 -0.1834
 2845SOL     OW 9433   6.164   3.658   0.161  0.4525  0.4352  0.4103
 2845SOL    HW1 9434   6.146   3.742   0.110  2.5892  1.2441  0.8810
 2845SOL    HW2 9435   6.174   3.581   0.098  0.5896  0.9551 -0.2048
 2846SOL     OW 9436   2.668   2.195   6.589  0.0928  0.1873 -0.0699
 2846SOL    HW1 9437   2.619   2.278   6.563 -1.9959 -1.1165 -0.6172
 2846SOL    HW2 9438   2.654   2.125   6.519  2.0409 -0.5684  0.2294
 2847SOL     OW 9439   0.391   2.546   6.436 -0.1254 -0.1849  0.9291
 2847SOL    HW1 9440   0.462   2.490   6.478 -0.0678 -0.9848 -0.1915
 2847SOL    HW2 9441   0.430   2.633   6.407  0.4409 -0.6493  0.2511
 2848SOL     OW 9442   3.577   3.323   5.349 -0.1573  0.2313  0.6679
 2848SOL    HW1 9443   3.499   3.381   5.373  0.5407  1.3809  0.2308
 2848SOL    HW2 9444   3.598   3.334   5.252 -0.3172 -1.1542  0.4626
 2849SOL     OW 9445   0.795   3.069   3.879 -0.3982 -0.6792  0.0955
 2849SOL    HW1 9446   0.785   2.978   3.839 -1.1728 -1.3888  1.7954
 2849SOL    HW2 9447   0.856   3.064   3.958 -3.7779 -0.7655  2.9828
 2850SOL     OW 9448   3.737   4.255   1.398  0.1154 -0.3391 -0.1558
 2850SOL    HW1 9449   3.646   4.292   1.379  0.9779  0.8963 -2.1227
 2850SOL    HW2 9450   3.731   4.155   1.404 -1.2761 -0.3196 -0.7990
 2851SOL     OW 9451   5.053   6.917   5.229  0.6437  0.7448 -0.0904
 2851SOL    HW1 9452   5.113   6.985   5.270  0.5065  0.7276  0.1383
 2851SOL    HW2 9453   5.089   6.825   5.245 -0.6437  0.5602  2.1063
 2852SOL     OW 9454   0.655   3.002   4.914 -0.1476 -0.4547  0.0140
 2852SOL    HW1 9455   0.722   2.935   4.946  1.5610  0.5220 -1.3711
 2852SOL    HW2 9456   0.585   3.015   4.985  0.8454 -1.8383  1.3244
 2853SOL     OW 9457   3.186   3.766   6.948  0.5656 -0.0428 -0.7054
 2853SOL    HW1 9458   3.097   3.721   6.945  0.1930  0.6150  0.3407
 2853SOL    HW2 9459   3.238   3.731   7.027  0.8471  0.3000 -0.7388
 2854SOL     OW 9460   1.764   0.176   0.370 -0.3594 -0.1843  0.5160
 2854SOL    HW1 9461   1.757   0.076   0.366  2.6529 -0.4895  0.7587
 2854SOL    HW2 9462   1.815   0.203   0.452  0.3303  1.4550 -0.4057
 2855SOL     OW 9463   3.425   5.470   1.692  0.2357  0.0468 -0.0308
 2855SOL    HW1 9464   3.458   5.375   1.690  0.5584  0.1653 -1.4621
 2855SOL    HW2 9465   3.439   5.512   1.602 -1.3796  0.9529  0.1084
 2856SOL     OW 9466   4.680   2.986   0.158  0.0115  0.0874  0.6537
 2856SOL    HW1 9467   4.607   3.053   0.143  0.1656  0.0055 -0.4788
 2856SOL    HW2 9468   4.730   2.970   0.073  3.3857  2.4658  1.9881
 2857SOL     OW 9469   1.111   5.111   4.549 -0.2679 -0.2161 -0.1902
 2857SOL    HW1 9470   1.050   5.190   4.553  0.7138  0.5880 -0.7301
 2857SOL    HW2 9471   1.103   5.067   4.459  0.4007  0.2792 -0.5022
 2858SOL     OW 9472   5.790   5.266   4.813  0.2065 -0.4392  0.3229
 2858SOL    HW1 9473   5.776   5.167   4.803 -2.2719 -0.1451  0.2914
 2858SOL    HW2 9474   5.726   5.302   4.880  0.9679  1.1974  0.2223
 2859SOL     OW 9475   2.320   4.759   3.351  0.4709 -0.3931 -0.5010
 2859SOL    HW1 9476   2.398   4.697   3.340  0.9122 -0.3822  1.9466
 2859SOL    HW2 9477   2.353   4.854   3.353  0.3866 -0.3748  0.2836
 2860SOL     OW 9478   0.261   1.693   4.908 -0.3297  0.0797  1.0818
 2860SOL    HW1 9479   0.278   1.671   4.812 -0.5993  3.1476  0.2264
 2860SOL    HW2 9480   0.328   1.761   4.939 -1.3317  0.4587  2.5199
 2861SOL     OW 9481   0.019   5.860   4.175 -0.0291  0.1200  0.1461
 2861SOL    HW1 9482   0.078   5.910   4.238  0.2645  0.1733 -0.1691
 2861SOL    HW2 9483   0.040   5.885   4.081 -1.1242  0.7695  0.0543
 2862SOL     OW 9484   3.842   4.853   0.881  0.5478  0.2693  0.1609
 2862SOL    HW1 9485   3.745   4.832   0.894  0.3041  1.4802  0.4096
 2862SOL    HW2 9486   3.883   4.786   0.820 -0.7773  0.5454 -1.0653
 2863SOL     OW 9487   0.694   1.215   6.271 -0.3729  0.0913  0.1830
 2863SOL    HW1 9488   0.664   1.120   6.266  2.2103 -0.7487 -1.9822
 2863SOL    HW2 9489   0.776   1.220   6.328  1.0508  0.4620 -1.8017
 2864SOL     OW 9490   2.145   6.251   1.724 -0.4000 -0.0716  0.0776
 2864SOL    HW1 9491   2.106   6.200   1.647 -2.8912  1.0675  0.4837
 2864SOL    HW2 9492   2.160   6.188   1.801  2.1705 -1.2329 -1.2318
 2865SOL     OW 9493   4.786   4.725   2.874 -0.3198 -0.4256  0.9483
 2865SOL    HW1 9494   4.749   4.654   2.934 -0.7296 -0.0822  1.1065
 2865SOL    HW2 9495   4.711   4.776   2.833 -0.0623 -0.9443 -0.2210
 2866SOL     OW 9496   6.136   4.098   4.112 -0.6627  0.0286 -0.6782
 2866SOL    HW1 9497   6.225   4.089   4.156 -0.5410 -0.8065 -1.0747
 2866SOL    HW2 9498   6.138   4.053   4.022 -1.8111 -1.0099 -0.2205
 2867SOL     OW 9499   2.059   0.429   0.101 -0.3335  0.6251  0.0516
 2867SOL    HW1 9500   2.140   0.391   0.055 -1.7208  0.1210 -2.0883
 2867SOL    HW2 9501   2.070   0.418   0.200  3.2258  2.6614  0.0523
 2868SOL     OW 9502   4.220   2.723   6.819 -0.2471  0.2356 -0.1175
 2868SOL    HW1 9503   4.267   2.667   6.887  0.8933 -0.2665 -1.2707
 2868SOL    HW2 9504   4.227   2.679   6.730 -2.7997  0.2389 -0.3762
 2869SOL     OW 9505   1.320   2.258   2.182  0.5006  0.3331  0.0031
 2869SOL    HW1 9506   1.233   2.223   2.218  0.2556  0.0349 -0.8582
 2869SOL    HW2 9507   1.334   2.351   2.214 -0.6753  0.7846 -0.7346
 2870SOL     OW 9508   0.601   3.037   0.000 -0.1091  0.4899 -0.0025
 2870SOL    HW1 9509   0.622   2.985   0.083  1.5441 -1.7144 -1.6910
 2870SOL    HW2 9510   0.577   2.974  -0.074  0.2868  2.2515 -1.7112
 2871SOL     OW 9511   2.484   6.505   2.755 -0.1190  0.2163  0.4882
 2871SOL    HW1 9512   2.466   6.471   2.663  0.8062  0.8232  0.0570
 2871SOL    HW2 9513   2.521   6.432   2.811  1.0706  0.2618 -0.1847
 2872SOL     OW 9514   4.281   2.331   3.886 -0.3044 -0.7422  0.6991
 2872SOL    HW1 9515   4.191   2.341   3.844 -0.4151 -0.4344  1.0117
 2872SOL    HW2 9516   4.275   2.266   3.962  0.0696 -1.9776 -0.2779
 2873SOL     OW 9517   3.556   0.294   4.154  0.0695 -0.7425 -0.0455
 2873SOL    HW1 9518   3.519   0.362   4.091  0.3588  0.5447  1.1308
 2873SOL    HW2 9519   3.512   0.206   4.137 -0.8050 -0.1208 -1.1595
 2874SOL     OW 9520   5.149   4.011   6.356 -0.1127 -0.3622 -0.6900
 2874SOL    HW1 9521   5.141   3.911   6.352  0.3337 -0.4427  0.0487
 2874SOL    HW2 9522   5.246   4.036   6.358 -0.1750 -0.0688  1.6061
 2875SOL     OW 9523   6.152   0.353   3.369 -0.1387  0.0598  0.5939
 2875SOL    HW1 9524   6.154   0.255   3.389  0.6107  0.1061  0.7653
 2875SOL    HW2 9525   6.243   0.382   3.340 -0.1067  0.9193  1.5354
 2876SOL     OW 9526   5.106   6.576   1.131  0.8492  0.0575  0.1287
 2876SOL    HW1 9527   5.037   6.520   1.085 -0.0507  0.7576  0.6158
 2876SOL    HW2 9528   5.119   6.542   1.224  1.6506 -0.4817 -0.1701
 2877SOL     OW 9529   4.406   4.725   3.330 -0.1029  0.5314  0.1591
 2877SOL    HW1 9530   4.502   4.748   3.314  0.4651 -2.1060 -0.7008
 2877SOL    HW2 9531   4.394   4.700   3.426 -0.4353  2.8273  0.7676
 2878SOL     OW 9532   3.980   0.722   3.270  0.1145 -0.1212 -0.6689
 2878SOL    HW1 9533   3.956   0.765   3.184  0.9745  0.9330 -0.4020
 2878SOL    HW2 9534   3.997   0.624   3.256 -2.9992 -0.7149 -1.0889
 2879SOL     OW 9535   6.673   2.338   1.124 -0.4813 -0.1125  0.1308
 2879SOL    HW1 9536   6.747   2.404   1.128  0.5991 -1.2923  0.0345
 2879SOL    HW2 9537   6.685   2.269   1.195 -1.3389 -0.4762 -0.0640
 2880SOL     OW 9538   0.252   2.277   5.837 -0.2613 -0.4755 -0.2492
 2880SOL    HW1 9539   0.333   2.331   5.810 -1.5379  1.3965 -0.5236
 2880SOL    HW2 9540   0.279   2.211   5.906  1.5031  0.1586 -0.2550
 2881SOL     OW 9541   6.689   6.095   0.451 -0.3234  1.3395 -0.0786
 2881SOL    HW1 9542   6.719   6.089   0.546 -1.6772 -0.6073  0.2934
 2881SOL    HW2 9543   6.605   6.150   0.447 -0.0646  1.7316 -0.2272
 2882SOL     OW 9544   6.570   6.537   3.636 -0.3312 -0.0520  0.2853
 2882SOL    HW1 9545   6.632   6.553   3.558 -0.6246  1.2075  0.2916
 2882SOL    HW2 9546   6.616   6.563   3.721 -1.6567  3.4909  0.0942
 2883SOL     OW 9547   0.302   6.644   2.484 -0.0166 -0.5549  0.6992
 2883SOL    HW1 9548   0.383   6.686   2.444 -0.6197  1.0458  1.1002
 2883SOL    HW2 9549   0.330   6.571   2.547  1.0051 -1.6288 -0.9241
 2884SOL     OW 9550   3.206   6.921   3.716 -0.2893 -0.1965 -0.2192
 2884SOL    HW1 9551   3.191   7.019   3.700  0.5430  0.1611  1.0980
 2884SOL    HW2 9552   3.148   6.869   3.653 -0.9941  1.1307 -0.7230
 2885SOL     OW 9553   1.944   2.277   5.234  0.4998  0.0334  0.5947
 2885SOL    HW1 9554   1.851   2.248   5.212  0.0519  0.6513  1.5742
 2885SOL    HW2 9555   2.008   2.205   5.209 -0.4821 -1.4815  2.1714
 2886SOL     OW 9556   1.197   0.770   1.688  0.1680  0.5500 -0.3854
 2886SOL    HW1 9557   1.216   0.778   1.590 -1.1560  0.3578 -0.6869
 2886SOL    HW2 9558   1.129   0.697   1.702 -1.2394  1.9680  0.4427
 2887SOL     OW 9559   4.217   4.314   0.360 -0.4399 -0.1539 -0.0335
 2887SOL    HW1 9560   4.298   4.347   0.313 -1.3935  0.4558 -1.2838
 2887SOL    HW2 9561   4.219   4.214   0.362  0.7569 -0.1428  0.7491
 2888SOL     OW 9562   3.104   0.759   4.989 -0.0798 -0.1861  0.6502
 2888SOL    HW1 9563   3.161   0.837   4.961 -0.3304  0.2109  1.2238
 2888SOL    HW2 9564   3.157   0.697   5.045  0.1441 -0.4741  0.1237
 2889SOL     OW 9565   6.185   2.596   0.415  0.0756 -0.2455 -0.2093
 2889SOL    HW1 9566   6.173   2.691   0.387 -1.7320 -0.1493  0.7258
 2889SOL    HW2 9567   6.262   2.555   0.366 -0.3738  1.1001 -2.1113
 2890SOL     OW 9568   3.814   5.799   2.805  0.1539  0.4142  0.3666
 2890SOL    HW1 9569   3.891   5.772   2.862  0.3703  1.1277  0.4138
 2890SOL    HW2 9570   3.841   5.873   2.744  0.4482 -1.4838 -1.9593
 2891SOL     OW 9571   2.762   2.401   1.524 -0.4647  0.0549 -0.3245
 2891SOL    HW1 9572   2.847   2.352   1.543  0.6119  1.8025 -0.4114
 2891SOL    HW2 9573   2.687   2.335   1.513  0.3404 -1.4111  2.2583
 2892SOL     OW 9574   4.512   5.547   5.495  0.6082 -0.0628  0.5054
 2892SOL    HW1 9575   4.481   5.620   5.435 -1.0624 -1.3530 -0.3169
 2892SOL    HW2 9576   4.459   5.549   5.580 -0.1343 -0.8721  0.0759
 2893SOL     OW 9577   1.262   2.621   1.952  0.0441 -0.7360 -0.3956
 2893SOL    HW1 9578   1.258   2.665   1.862  2.1183 -1.6061 -0.9670
 2893SOL    HW2 9579   1.288   2.690   2.021 -0.4352 -0.2945 -0.6524
 2894SOL     OW 9580   6.904   5.963   0.927  0.9129  0.3610 -0.4569
 2894SOL    HW1 9581   6.976   5.931   0.865  0.3368  1.0526 -1.5296
 2894SOL    HW2 9582   6.871   6.053   0.896 -0.6655 -0.0983 -0.2213
 2895SOL     OW 9583   2.251   0.630   3.668  0.3048 -0.7746  0.4644
 2895SOL    HW1 9584   2.180   0.641   3.599  1.3960  1.1739 -0.4123
 2895SOL    HW2 9585   2.231   0.690   3.746  0.1854 -1.3922  0.9183
 2896SOL     OW 9586   1.047   5.738   2.360 -0.1766 -0.4830  0.0790
 2896SOL    HW1 9587   1.038   5.837   2.350 -0.6992 -0.7278 -2.8006
 2896SOL    HW2 9588   1.006   5.709   2.447 -0.8276  1.6974  0.5632
 2897SOL     OW 9589   3.431   6.260   1.193 -0.5473 -0.1282  0.3333
 2897SOL    HW1 9590   3.442   6.339   1.254  0.8456 -0.5482  0.6561
 2897SOL    HW2 9591   3.334   6.251   1.168 -0.6134  2.2988 -0.5606
 2898SOL     OW 9592   1.074   6.815   2.507  0.4517 -0.2403 -0.3806
 2898SOL    HW1 9593   1.167   6.779   2.516 -0.1670 -1.6238  0.9790
 2898SOL    HW2 9594   1.067   6.902   2.556 -0.0144 -2.2907  3.5422
 2899SOL     OW 9595   0.275   3.469   1.674 -0.6348  0.3899 -0.4905
 2899SOL    HW1 9596   0.252   3.507   1.763  0.1080 -1.3590  0.5073
 2899SOL    HW2 9597   0.200   3.412   1.641 -0.5115  0.2427 -0.5173
 2900SOL     OW 9598   6.138   5.539   6.210  0.4614  0.7516 -0.1655
 2900SOL    HW1 9599   6.137   5.519   6.308  0.2049 -1.2561 -0.5338
 2900SOL    HW2 9600   6.053   5.587   6.186  0.4507  1.1152  0.5685
 2901SOL     OW 9601   1.821   5.812   6.192 -0.3035  0.2851  0.1579
 2901SOL    HW1 9602   1.909   5.857   6.182  0.7294 -1.6793 -0.0623
 2901SOL    HW2 9603   1.797   5.764   6.107  0.1031 -1.9871  1.2294
 2902SOL     OW 9604   0.142   2.793   0.314 -0.6889 -0.2851  0.6515
 2902SOL    HW1 9605   0.210   2.806   0.387  1.3987  1.2154 -1.4224
 2902SOL    HW2 9606   0.165   2.712   0.261 -1.4665 -0.6432  0.8429
 2903SOL     OW 9607   2.638   5.013   1.854  0.5091  0.1714  0.5056
 2903SOL    HW1 9608   2.701   5.019   1.775 -0.2630 -0.4455 -0.1689
 2903SOL    HW2 9609   2.617   4.918   1.873  0.0172  0.3608  0.9298
 2904SOL     OW 9610   3.971   6.714   1.231  0.7309 -0.4716 -0.2481
 2904SOL    HW1 9611   3.942   6.703   1.326  1.5305 -2.7905 -0.1936
 2904SOL    HW2 9612   3.923   6.791   1.190 -0.2358  0.0819  1.7954
 2905SOL     OW 9613   2.763   5.419   3.576  0.3028  0.0742 -0.6335
 2905SOL    HW1 9614   2.845   5.404   3.630 -0.3601  1.5009  0.8635
 2905SOL    HW2 9615   2.788   5.446   3.483  1.5251  0.0259 -0.3276
 2906SOL     OW 9616   4.554   2.557   3.868 -0.0234  0.1016 -0.5813
 2906SOL    HW1 9617   4.619   2.543   3.793 -0.0418  0.8156 -0.7395
 2906SOL    HW2 9618   4.505   2.472   3.886  1.0499 -0.4799 -0.3684
 2907SOL     OW 9619   0.722   6.017   3.183  0.3067  0.1683  0.0676
 2907SOL    HW1 9620   0.732   6.115   3.167  1.0979  1.0680  4.7492
 2907SOL    HW2 9621   0.624   5.994   3.184 -0.0407  1.4933  1.2334
 2908SOL     OW 9622   3.531   1.562   6.359 -0.1748  0.3238 -0.6155
 2908SOL    HW1 9623   3.628   1.547   6.338  0.2670  0.9669  0.8165
 2908SOL    HW2 9624   3.482   1.584   6.275  1.0171  0.4649 -1.3059
 2909SOL     OW 9625   0.164   2.216   3.046 -0.5255 -0.3450  0.1046
 2909SOL    HW1 9626   0.171   2.181   3.139  1.0858  0.4351  0.3152
 2909SOL    HW2 9627   0.089   2.283   3.041  0.5525  1.0311  1.3592
 2910SOL     OW 9628   6.466   0.800   3.468  0.1482  0.3922 -0.4454
 2910SOL    HW1 9629   6.405   0.753   3.405  0.2444 -0.5550  0.1576
 2910SOL    HW2 9630   6.456   0.899   3.457  0.0050  0.2414 -1.7835
 2911SOL     OW 9631   0.368   6.518   6.700  0.0516  0.4111  0.0718
 2911SOL    HW1 9632   0.456   6.540   6.659  1.4591 -1.6168  1.7813
 2911SOL    HW2 9633   0.382   6.466   6.784 -2.8097 -0.4487  0.1462
 2912SOL     OW 9634   2.914   4.782   2.379  0.4245 -0.0067  0.5947
 2912SOL    HW1 9635   2.948   4.735   2.298 -2.1870 -1.4378  0.2263
 2912SOL    HW2 9636   2.833   4.835   2.355 -0.9163 -1.1559  2.3949
 2913SOL     OW 9637   0.803   0.415   3.922 -0.5410  0.0915 -0.2070
 2913SOL    HW1 9638   0.811   0.514   3.916 -1.4347  0.2101  0.3644
 2913SOL    HW2 9639   0.735   0.383   3.855  0.9870 -0.3516 -1.6281
 2914SOL     OW 9640   6.077   0.048   3.999 -0.2880 -0.5433 -0.1378
 2914SOL    HW1 9641   6.043  -0.030   3.945 -1.3891 -0.5434  0.5076
 2914SOL    HW2 9642   6.095   0.018   4.092  0.0767 -0.1990 -0.0965
 2915SOL     OW 9643   1.502   2.601   3.493 -0.0128 -0.2381  0.4681
 2915SOL    HW1 9644   1.512   2.688   3.446 -0.2786 -0.9115 -0.9203
 2915SOL    HW2 9645   1.417   2.601   3.546 -0.2530  0.1972  0.0910
 2916SOL     OW 9646   4.228   4.601   2.139 -0.1477  0.5315 -0.0074
 2916SOL    HW1 9647   4.191   4.680   2.089  0.7565  0.8506 -0.1996
 2916SOL    HW2 9648   4.241   4.626   2.235  0.4100  0.7275 -0.1261
 2917SOL     OW 9649   2.533   1.144   1.318 -0.2857  0.3588  0.0113
 2917SOL    HW1 9650   2.499   1.145   1.412  0.8465  0.3191  0.4363
 2917SOL    HW2 9651   2.571   1.233   1.295  0.5899  0.0011  0.0359
 2918SOL     OW 9652   6.999   5.383   6.161 -0.2341 -0.1740  0.4162
 2918SOL    HW1 9653   6.958   5.332   6.237  0.1866 -1.6666 -0.3098
 2918SOL    HW2 9654   6.965   5.346   6.075  2.4517 -1.3869 -0.2200
 2919SOL     OW 9655   5.404   5.842   6.871  0.1344 -0.7488  0.5320
 2919SOL    HW1 9656   5.328   5.891   6.828 -0.8480 -1.2183  1.6682
 2919SOL    HW2 9657   5.415   5.874   6.965 -0.2902 -2.4047  1.1776
 2920SOL     OW 9658   5.322   1.902   4.517 -0.2802  0.1190 -0.0557
 2920SOL    HW1 9659   5.243   1.957   4.489  0.4601  0.9312 -0.6247
 2920SOL    HW2 9660   5.338   1.830   4.450 -0.1537  0.3622 -0.2902
 2921SOL     OW 9661   0.824   6.649   6.413 -0.4585  0.5581 -0.4257
 2921SOL    HW1 9662   0.920   6.675   6.425 -0.9139  2.1532 -0.0119
 2921SOL    HW2 9663   0.807   6.628   6.317  0.3340  0.0612 -0.4716
 2922SOL     OW 9664   3.257   4.981   6.354  0.2021 -0.0965 -0.0611
 2922SOL    HW1 9665   3.222   4.890   6.377  0.0043 -0.1427 -0.5285
 2922SOL    HW2 9666   3.264   4.989   6.254  3.9904 -1.0709 -0.0481
 2923SOL     OW 9667   6.022   2.026   2.652 -0.5634 -0.2589 -0.0195
 2923SOL    HW1 9668   6.047   2.072   2.567 -1.4079 -0.1410 -0.2193
 2923SOL    HW2 9669   6.059   2.077   2.730 -0.8575  0.3442 -0.2713
 2924SOL     OW 9670   5.777   2.991   6.172 -0.0876 -0.5920 -0.2976
 2924SOL    HW1 9671   5.739   2.928   6.240  0.4322 -1.0729 -0.4442
 2924SOL    HW2 9672   5.802   2.939   6.090  0.3040 -0.1863 -0.4385
 2925SOL     OW 9673   6.139   3.286   0.850 -0.1064  0.4597  0.6474
 2925SOL    HW1 9674   6.129   3.381   0.877 -0.4406  0.3153  1.0428
 2925SOL    HW2 9675   6.071   3.230   0.899 -0.2603  0.0974  0.0279
 2926SOL     OW 9676   3.071   2.602   6.621 -0.6491 -0.2296 -0.1654
 2926SOL    HW1 9677   3.114   2.517   6.648 -1.5227 -0.4096  0.6991
 2926SOL    HW2 9678   3.134   2.678   6.637 -0.0706 -0.6423 -0.4371
 2927SOL     OW 9679   6.281   4.863   0.200 -0.7930 -0.8601 -0.7269
 2927SOL    HW1 9680   6.340   4.943   0.188 -0.5298 -1.0967 -1.0114
 2927SOL    HW2 9681   6.330   4.781   0.173 -0.4380 -1.3382  1.2317
 2928SOL     OW 9682   0.697   1.611   3.918 -0.1226 -0.2237 -0.3936
 2928SOL    HW1 9683   0.609   1.617   3.965 -1.6872 -2.8922 -2.6669
 2928SOL    HW2 9684   0.726   1.515   3.914  1.5551  0.3004 -2.0064
 2929SOL     OW 9685   1.079   3.982   1.688  0.3603  0.0540 -0.6752
 2929SOL    HW1 9686   1.021   4.054   1.648  0.6930  1.7194  1.6646
 2929SOL    HW2 9687   1.167   4.021   1.713  0.7593 -1.3146  0.1293
 2930SOL     OW 9688   3.344   6.129   3.476  0.0225 -0.2104  0.4320
 2930SOL    HW1 9689   3.346   6.036   3.511  1.3058 -0.7352 -0.9737
 2930SOL    HW2 9690   3.385   6.191   3.543  3.3370 -1.3301 -0.4049
 2931SOL     OW 9691   5.401   5.210   5.313  0.5504 -0.9359 -0.3109
 2931SOL    HW1 9692   5.420   5.121   5.272 -1.0235 -0.1600 -2.9191
 2931SOL    HW2 9693   5.397   5.280   5.242 -0.9145  0.7767  1.3311
 2932SOL     OW 9694   3.507   6.990   2.314 -0.1816 -0.2218  0.2551
 2932SOL    HW1 9695   3.558   6.905   2.319  1.7764  0.8980  0.1207
 2932SOL    HW2 9696   3.458   7.004   2.401  0.8460 -0.6568  0.9195
 2933SOL     OW 9697   5.911   2.902   4.838 -0.4016 -0.1294 -0.1191
 2933SOL    HW1 9698   5.839   2.839   4.866 -2.2964  1.5981 -0.8172
 2933SOL    HW2 9699   5.870   2.983   4.797  2.0200  0.2697 -2.0000
 2934SOL     OW 9700   5.156   1.542   0.602  0.4369  0.4888  0.1427
 2934SOL    HW1 9701   5.119   1.618   0.656 -1.9791 -1.4329  1.3626
 2934SOL    HW2 9702   5.168   1.572   0.507 -0.2520  2.4370  0.6174
 2935SOL     OW 9703   6.162   5.386   2.920 -0.5339 -0.3420  0.1593
 2935SOL    HW1 9704   6.151   5.354   3.014  1.6447  1.2708  1.0615
 2935SOL    HW2 9705   6.227   5.327   2.873  1.4026  1.0555  0.9694
 2936SOL     OW 9706   5.723   3.347   4.728 -0.5421 -0.3801 -0.2323
 2936SOL    HW1 9707   5.646   3.292   4.697 -0.0082 -1.0388 -0.3990
 2936SOL    HW2 9708   5.699   3.444   4.719 -1.3716 -0.5711 -0.2194
 2937SOL     OW 9709   6.901   1.123   3.253  0.0584 -0.1698  0.0226
 2937SOL    HW1 9710   6.918   1.040   3.199  1.2550 -0.4877  0.8367
 2937SOL    HW2 9711   6.978   1.186   3.241 -0.7272  0.7335 -0.3920
 2938SOL     OW 9712   0.746   1.556   3.312  0.1759 -0.3881  0.3273
 2938SOL    HW1 9713   0.775   1.467   3.277 -0.6831 -0.0385 -1.3632
 2938SOL    HW2 9714   0.648   1.552   3.334  0.0493  0.2184 -0.0918
 2939SOL     OW 9715   3.258   1.047   1.508 -0.7058  0.5440 -0.0551
 2939SOL    HW1 9716   3.275   1.030   1.605 -1.6135 -1.9315 -0.2496
 2939SOL    HW2 9717   3.219   1.138   1.496 -1.3814  0.5780  2.0112
 2940SOL     OW 9718   1.930   3.548   6.723 -0.8478 -0.2183 -0.6555
 2940SOL    HW1 9719   1.833   3.570   6.713 -0.5740  2.3919  1.2818
 2940SOL    HW2 9720   1.985   3.619   6.680  0.1529  0.1801  1.1465
 2941SOL     OW 9721   5.657   0.772   4.863 -0.2869  0.5579  0.1574
 2941SOL    HW1 9722   5.594   0.819   4.801 -1.3244 -1.3804 -0.3706
 2941SOL    HW2 9723   5.606   0.707   4.919  1.2796 -1.7332 -0.9014
 2942SOL     OW 9724   0.800   0.472   5.643  0.1017 -0.3506 -0.2423
 2942SOL    HW1 9725   0.787   0.376   5.619  0.0189 -0.2530 -0.5941
 2942SOL    HW2 9726   0.882   0.507   5.598 -0.5791  0.0928 -1.1676
 2943SOL     OW 9727   6.832   6.854   6.224 -0.1092 -0.3013 -0.0155
 2943SOL    HW1 9728   6.877   6.829   6.309  0.7664  1.0565 -0.0369
 2943SOL    HW2 9729   6.826   6.775   6.164  1.7597 -0.6754  0.2305
 2944SOL     OW 9730   3.474   0.030   4.065  0.3968  0.4266  0.0419
 2944SOL    HW1 9731   3.394  -0.024   4.039  1.0714  0.0960 -1.4336
 2944SOL    HW2 9732   3.542  -0.029   4.108 -0.3542  0.8176  1.8860
 2945SOL     OW 9733   4.395   4.167   1.240  0.3685 -0.1168 -0.5353
 2945SOL    HW1 9734   4.385   4.068   1.234  1.4046 -0.2358 -0.4593
 2945SOL    HW2 9735   4.307   4.211   1.222  0.0212 -1.0326 -1.1206
 2946SOL     OW 9736   2.631   3.862   0.929 -0.2452  0.8519 -0.8284
 2946SOL    HW1 9737   2.731   3.864   0.930  0.1245 -3.3484 -3.4865
 2946SOL    HW2 9738   2.597   3.830   1.018  0.8545  1.1571 -0.2853
 2947SOL     OW 9739   5.153   6.649   2.517 -0.9611 -0.5217 -0.3945
 2947SOL    HW1 9740   5.174   6.563   2.471 -0.0197 -0.9029  0.7162
 2947SOL    HW2 9741   5.219   6.718   2.490 -1.1140 -0.4133 -0.4985
 2948SOL     OW 9742   4.389   1.347   3.725 -0.1379 -0.7635 -0.0220
 2948SOL    HW1 9743   4.367   1.268   3.669 -1.9043 -0.5645  0.3486
 2948SOL    HW2 9744   4.389   1.429   3.668 -0.8095 -0.7095  0.0504
 2949SOL     OW 9745   0.096   3.442   3.350  0.9824 -0.2794  0.0884
 2949SOL    HW1 9746   0.047   3.496   3.281 -0.6759 -1.9736 -0.1404
 2949SOL    HW2 9747   0.030   3.391   3.406  2.4284 -1.2172  1.0074
 2950SOL     OW 9748   3.303   5.235   4.610 -0.2336  0.0946  0.2803
 2950SOL    HW1 9749   3.353   5.163   4.659 -0.1706  0.4478  0.7435
 2950SOL    HW2 9750   3.214   5.248   4.652  0.4654  1.5515  1.3781
 2951SOL     OW 9751   4.897   2.250   3.333 -0.6670 -0.1665  0.2509
 2951SOL    HW1 9752   4.802   2.271   3.355 -0.5658 -1.2655  1.9294
 2951SOL    HW2 9753   4.955   2.274   3.411  0.4181  0.3499 -0.7014
 2952SOL     OW 9754   3.081   0.233   0.471 -0.2076 -0.0501 -0.0223
 2952SOL    HW1 9755   3.019   0.311   0.477  2.4388  2.1646  0.8431
 2952SOL    HW2 9756   3.101   0.199   0.562  0.3835 -0.2784 -0.2311
 2953SOL     OW 9757   3.412   5.885   1.086 -0.0072  0.5513 -0.1354
 2953SOL    HW1 9758   3.439   5.964   1.032  1.2439  0.6297  0.5872
 2953SOL    HW2 9759   3.401   5.911   1.182  3.1993 -0.6270  0.6734
 2954SOL     OW 9760   1.757   5.128   4.081  0.2020 -0.3981  0.2122
 2954SOL    HW1 9761   1.769   5.126   3.981  0.8238 -2.0618  0.2940
 2954SOL    HW2 9762   1.739   5.222   4.110  0.6946  0.2271 -1.3844
 2955SOL     OW 9763   5.541   2.019   2.842  0.2648  0.3170  0.4526
 2955SOL    HW1 9764   5.609   2.022   2.769 -1.0989 -0.2008 -0.8898
 2955SOL    HW2 9765   5.465   1.959   2.815 -0.1592 -0.1205  2.4152
 2956SOL     OW 9766   1.475   2.769   0.532  0.0544 -0.6812 -0.6904
 2956SOL    HW1 9767   1.526   2.844   0.490 -0.3666 -0.3970 -0.6971
 2956SOL    HW2 9768   1.391   2.752   0.480  0.3110 -1.3811 -0.8831
 2957SOL     OW 9769   4.806   2.472   3.538  0.0600 -0.7239 -0.2550
 2957SOL    HW1 9770   4.748   2.423   3.472 -0.2410  0.1490 -0.6567
 2957SOL    HW2 9771   4.883   2.414   3.564 -0.2535 -1.3847 -0.7683
 2958SOL     OW 9772   6.428   0.145   3.047 -0.0657  0.3826 -0.1024
 2958SOL    HW1 9773   6.428   0.056   3.093  1.8844 -0.3314 -1.3618
 2958SOL    HW2 9774   6.504   0.200   3.081 -1.3364  1.6944  0.7698
 2959SOL     OW 9775   4.006   0.857   3.042  0.2985  0.0501  0.3275
 2959SOL    HW1 9776   3.973   0.783   2.984 -1.9538  0.1631  1.3502
 2959SOL    HW2 9777   4.025   0.937   2.986  2.6367 -1.1919 -0.7798
 2960SOL     OW 9778   6.509   0.291   1.360 -0.1849 -0.4916 -0.0816
 2960SOL    HW1 9779   6.521   0.253   1.451 -1.1629 -0.2760  0.1551
 2960SOL    HW2 9780   6.594   0.333   1.329  0.0806 -0.3339  0.8406
 2961SOL     OW 9781   2.776   5.063   3.068 -0.2901  0.1565 -0.0106
 2961SOL    HW1 9782   2.691   5.085   3.117  0.1638  1.7893  0.0985
 2961SOL    HW2 9783   2.758   5.063   2.970 -0.6687 -0.7466  0.0431
 2962SOL     OW 9784   4.655   2.701   6.613  0.4906 -0.2654  0.1914
 2962SOL    HW1 9785   4.630   2.606   6.633  0.9960 -0.1947  1.2674
 2962SOL    HW2 9786   4.755   2.708   6.605  0.4215  0.0882 -0.4106
 2963SOL     OW 9787   4.842   4.003   6.726 -0.1631 -0.2209  0.3756
 2963SOL    HW1 9788   4.875   3.931   6.664  0.6460  0.4340  0.0196
 2963SOL    HW2 9789   4.742   4.002   6.728 -0.3589  1.1110 -2.6787
 2964SOL     OW 9790   3.216   3.391   6.343  0.3481 -0.1171  0.3921
 2964SOL    HW1 9791   3.133   3.352   6.383 -1.5954  2.4644 -0.8713
 2964SOL    HW2 9792   3.274   3.428   6.416  0.2933 -1.6584  1.2590
 2965SOL     OW 9793   6.764   2.979   6.167  0.3318 -0.1589  0.1812
 2965SOL    HW1 9794   6.734   3.073   6.182  1.0421 -0.0027  0.6615
 2965SOL    HW2 9795   6.782   2.934   6.254  0.7851 -0.4814 -0.0703
 2966SOL     OW 9796   1.392   2.831   6.050 -0.2352 -0.1670  0.3587
 2966SOL    HW1 9797   1.441   2.910   6.013 -0.1364  0.2876  1.3956
 2966SOL    HW2 9798   1.444   2.793   6.127 -0.8911 -0.4659  0.6616
 2967SOL     OW 9799   1.324   0.491   4.846 -0.0639  0.4598 -0.6274
 2967SOL    HW1 9800   1.266   0.565   4.881 -0.0896 -0.0136  0.3544
 2967SOL    HW2 9801   1.386   0.528   4.777 -0.4405  1.2913 -0.5381
 2968SOL     OW 9802   5.713   0.490   5.863  0.3037 -0.2211  0.1473
 2968SOL    HW1 9803   5.778   0.560   5.892  0.1645 -0.2020  0.4143
 2968SOL    HW2 9804   5.750   0.441   5.784  0.6516 -0.2201  0.3082
 2969SOL     OW 9805   2.818   6.893   5.036 -0.2534 -0.0733  0.0033
 2969SOL    HW1 9806   2.815   6.937   4.946 -1.0090 -0.7543 -0.3199
 2969SOL    HW2 9807   2.724   6.873   5.066  0.0513 -1.2972  0.2061
 2970SOL     OW 9808   6.743   0.875   4.573  0.0059 -0.2855 -0.3275
 2970SOL    HW1 9809   6.723   0.969   4.600 -0.0497 -0.5846  0.7134
 2970SOL    HW2 9810   6.700   0.856   4.485  0.6778  0.8973 -0.9377
 2971SOL     OW 9811   3.995   5.437   6.696  0.1755 -0.2308 -0.8945
 2971SOL    HW1 9812   4.017   5.530   6.726 -1.6213 -0.7540  2.5680
 2971SOL    HW2 9813   3.905   5.437   6.652 -0.0478 -0.3628 -0.4485
 2972SOL     OW 9814   4.364   6.939   2.989 -0.5445 -0.4548  0.5885
 2972SOL    HW1 9815   4.414   6.875   3.048 -1.1031  0.9554  2.6864
 2972SOL    HW2 9816   4.338   6.892   2.905  1.7526 -2.0694  0.6679
 2973SOL     OW 9817   1.967   0.604   2.295  0.2272  0.7023  0.3948
 2973SOL    HW1 9818   1.960   0.702   2.314  0.3573  0.6754  0.5866
 2973SOL    HW2 9819   1.998   0.590   2.201  2.2353  0.8686  0.9832
 2974SOL     OW 9820   0.103   5.614   6.208  0.2381 -0.5907  0.4297
 2974SOL    HW1 9821   0.197   5.583   6.190  0.5405 -0.2910  1.4168
 2974SOL    HW2 9822   0.041   5.536   6.203  0.7084 -1.0009  0.9218
 2975SOL     OW 9823   6.768   1.208   6.546 -0.3929  0.7055  0.5084
 2975SOL    HW1 9824   6.810   1.288   6.504  1.0278 -0.5868 -0.6726
 2975SOL    HW2 9825   6.783   1.210   6.645  3.4013 -0.1098  0.0836
 2976SOL     OW 9826   4.139   1.024   4.403  0.5543 -0.0027 -0.0003
 2976SOL    HW1 9827   4.090   1.111   4.409 -1.6849 -1.2054 -0.0333
 2976SOL    HW2 9828   4.198   1.014   4.484  0.3897  1.2654  0.3019
 2977SOL     OW 9829   3.364   0.872   1.339  0.7660  0.4265  0.3234
 2977SOL    HW1 9830   3.295   0.813   1.298  1.4662 -0.5276  0.4733
 2977SOL    HW2 9831   3.320   0.944   1.393 -0.1145  0.4427 -0.4135
 2978SOL     OW 9832   2.400   6.792   2.021 -0.1958  0.3446 -0.1707
 2978SOL    HW1 9833   2.403   6.702   1.977 -0.8236 -0.2005  0.8392
 2978SOL    HW2 9834   2.492   6.829   2.029  0.1011 -0.3353 -0.3616
 2979SOL     OW 9835   1.902   1.740   6.721  0.2736 -0.1660  0.5744
 2979SOL    HW1 9836   1.994   1.705   6.702  1.2751  1.9475  1.1564
 2979SOL    HW2 9837   1.905   1.840   6.725 -1.7274 -0.1035  2.2570
 2980SOL     OW 9838   0.018   5.889   1.181 -0.5433 -0.3504 -0.2425
 2980SOL    HW1 9839  -0.011   5.940   1.100 -0.7826 -0.9783 -0.5587
 2980SOL    HW2 9840  -0.044   5.909   1.257 -0.6638 -0.2078 -0.3794
 2981SOL     OW 9841   4.384   1.263   3.433  0.3930 -0.2315 -0.0750
 2981SOL    HW1 9842   4.464   1.320   3.414 -0.4573  1.4214  1.0559
 2981SOL    HW2 9843   4.413   1.172   3.461  1.8854  0.3317  0.2842
 2982SOL     OW 9844   6.131   2.920   0.892 -0.2981 -0.1022 -0.9939
 2982SOL    HW1 9845   6.129   2.873   0.804  0.7762 -1.0170 -0.5477
 2982SOL    HW2 9846   6.218   2.969   0.902 -0.2183 -0.3774 -0.2551
 2983SOL     OW 9847   1.617   2.993   0.439  0.1588  0.1686 -0.2115
 2983SOL    HW1 9848   1.648   3.087   0.421 -0.9384  0.5269 -0.3190
 2983SOL    HW2 9849   1.656   2.932   0.370  0.3832  0.6485 -0.5242
 2984SOL     OW 9850   3.654   5.714   2.038  0.3145  0.1667  0.1072
 2984SOL    HW1 9851   3.573   5.697   1.983 -0.8589  0.2680  1.7425
 2984SOL    HW2 9852   3.675   5.632   2.093  0.6787  0.5033  0.4828
 2985SOL     OW 9853   1.455   0.802   5.781  0.5072 -0.1713 -0.0255
 2985SOL    HW1 9854   1.399   0.770   5.705 -0.4085  0.8736  0.1907
 2985SOL    HW2 9855   1.493   0.723   5.830 -0.2938 -0.8810 -0.5228
 2986SOL     OW 9856   3.420   3.301   3.506  0.3350  0.3672 -0.4772
 2986SOL    HW1 9857   3.464   3.290   3.417 -1.8739  1.8238 -1.8462
 2986SOL    HW2 9858   3.436   3.394   3.540 -0.6702  0.5441 -0.4554
 2987SOL     OW 9859   6.298   3.473   5.481  0.4153 -0.5208  0.3859
 2987SOL    HW1 9860   6.255   3.472   5.572 -0.0099 -3.3332  0.2525
 2987SOL    HW2 9861   6.250   3.538   5.423 -1.6304 -1.1918  1.2053
 2988SOL     OW 9862   5.611   1.386   2.569  0.1975  0.0536 -0.3288
 2988SOL    HW1 9863   5.679   1.398   2.642  0.3712 -2.0592 -0.0669
 2988SOL    HW2 9864   5.651   1.334   2.494 -0.1552  1.7257 -1.7432
 2989SOL     OW 9865   1.645   0.692   2.053 -0.9079  0.0322 -0.1414
 2989SOL    HW1 9866   1.564   0.636   2.070 -1.4740  1.5559  2.8347
 2989SOL    HW2 9867   1.616   0.783   2.023 -0.1929  0.0380 -0.8447
 2990SOL     OW 9868   3.217   4.432   1.434 -0.0981  0.7882  0.1795
 2990SOL    HW1 9869   3.154   4.470   1.502 -1.5004  0.8460 -1.1022
 2990SOL    HW2 9870   3.172   4.358   1.384  0.9313  0.6812 -0.6261
 2991SOL     OW 9871   0.127   6.326   0.497 -0.6042  0.2209 -0.2107
 2991SOL    HW1 9872   0.047   6.284   0.453 -0.7592 -1.4368  1.4838
 2991SOL    HW2 9873   0.103   6.418   0.529 -1.4484  0.2134 -0.7909
 2992SOL     OW 9874   6.735   0.839   3.275 -0.3406 -0.3150  0.0195
 2992SOL    HW1 9875   6.655   0.880   3.231  0.8577  0.1947 -1.7875
 2992SOL    HW2 9876   6.818   0.868   3.227  0.8141 -2.2136  0.7632
 2993SOL     OW 9877   6.463   0.111   1.559  0.6254  0.2082 -0.3320
 2993SOL    HW1 9878   6.408   0.048   1.503 -0.0055 -0.3173  0.8385
 2993SOL    HW2 9879   6.422   0.119   1.650  3.1749 -1.2634  1.0769
 2994SOL     OW 9880   3.483   0.264   2.769 -0.0964 -0.4370 -0.1610
 2994SOL    HW1 9881   3.458   0.185   2.714  2.4938 -2.2286  1.0114
 2994SOL    HW2 9882   3.439   0.346   2.733 -0.1277 -1.8223 -3.6028
 2995SOL     OW 9883   5.314   5.094   2.621  0.5280  0.4981  0.0754
 2995SOL    HW1 9884   5.329   5.052   2.710  1.9042 -0.1735 -0.4441
 2995SOL    HW2 9885   5.291   5.024   2.553  0.4540  0.8844 -0.3103
 2996SOL     OW 9886   3.250   1.354   5.829 -0.1393 -0.1286  0.1505
 2996SOL    HW1 9887   3.275   1.316   5.740  0.0641 -1.1621  0.6239
 2996SOL    HW2 9888   3.316   1.322   5.898 -0.5822  0.2434  0.7575
 2997SOL     OW 9889   6.029   0.635   2.364  0.6104  0.1780 -0.0369
 2997SOL    HW1 9890   6.120   0.640   2.405  0.6380 -0.6497  0.0123
 2997SOL    HW2 9891   5.991   0.544   2.377 -0.9176  0.9591  1.4043
 2998SOL     OW 9892   6.226   2.852   3.600  0.5303  0.0835 -0.1506
 2998SOL    HW1 9893   6.191   2.880   3.511  0.7079  0.4138 -0.1151
 2998SOL    HW2 9894   6.319   2.816   3.590  0.2724 -0.5945 -0.2114
 2999SOL     OW 9895   1.330   1.479   0.627  0.2781  0.4608 -0.2801
 2999SOL    HW1 9896   1.392   1.557   0.628  0.2048  0.5197 -0.2954
 2999SOL    HW2 9897   1.382   1.394   0.613  0.4269  0.4418  0.3774
 3000SOL     OW 9898   5.972   3.551   1.998  0.1539 -0.2057  0.0735
 3000SOL    HW1 9899   5.942   3.464   2.037 -0.4316 -1.2469 -2.4910
 3000SOL    HW2 9900   6.057   3.537   1.947  0.2448  0.8153 -0.0882
 3001SOL     OW 9901   0.247   3.876   1.842  0.0033  0.8384  0.2014
 3001SOL    HW1 9902   0.257   3.959   1.897  0.6829  1.1052 -0.3041
 3001SOL    HW2 9903   0.278   3.797   1.894  1.3013  1.1760 -0.0294
 3002SOL     OW 9904   2.214   5.144   5.931 -0.6833  0.3794 -0.2003
 3002SOL    HW1 9905   2.305   5.184   5.942  0.3953 -1.4235 -1.7885
 3002SOL    HW2 9906   2.188   5.097   6.015  0.8058 -0.8036 -0.3487
 3003SOL     OW 9907   2.364   0.076   1.584  0.6998 -0.3137 -0.1518
 3003SOL    HW1 9908   2.371   0.032   1.494  0.1822 -0.1516 -0.2774
 3003SOL    HW2 9909   2.379   0.009   1.656  3.0899 -0.0851 -0.3610
 3004SOL     OW 9910   5.178   0.228   2.376  0.0642 -0.3643  0.0516
 3004SOL    HW1 9911   5.079   0.227   2.385  0.1307  0.3080  0.9459
 3004SOL    HW2 9912   5.220   0.252   2.464  1.0402 -1.1939 -0.1666
 3005SOL     OW 9913   3.283   6.536   1.921  0.0197  0.3486 -0.0818
 3005SOL    HW1 9914   3.304   6.596   1.843  0.1986  0.0541 -0.2655
 3005SOL    HW2 9915   3.330   6.449   1.908  0.3225  0.4185  0.5253
 3006SOL     OW 9916   1.521   6.683   6.936  0.2123  0.8916 -0.2339
 3006SOL    HW1 9917   1.442   6.710   6.882  1.6285 -0.0932 -2.9900
 3006SOL    HW2 9918   1.513   6.721   7.029 -3.5970  0.4830 -0.2471
 3007SOL     OW 9919   4.193   6.000   5.826  0.7906 -0.3250 -0.7962
 3007SOL    HW1 9920   4.256   5.969   5.898  0.1020 -1.2546 -0.5726
 3007SOL    HW2 9921   4.153   6.087   5.853 -0.2694 -1.1674  0.4859
 3008SOL     OW 9922   4.682   1.097   6.249  0.4553  0.4161 -0.1454
 3008SOL    HW1 9923   4.650   1.047   6.168  0.3676  1.1929 -0.5929
 3008SOL    HW2 9924   4.613   1.090   6.321 -0.0332  0.7854 -0.5733
 3009SOL     OW 9925   3.794   2.290   1.330 -0.2786 -0.4172  0.1353
 3009SOL    HW1 9926   3.769   2.200   1.294 -3.3780  0.4037  0.0180
 3009SOL    HW2 9927   3.801   2.355   1.254 -1.6538  0.1860  0.4985
 3010SOL     OW 9928   6.758   3.992   6.076 -0.4238 -0.1608 -0.3222
 3010SOL    HW1 9929   6.782   4.002   6.172 -1.0711 -0.8726 -0.0772
 3010SOL    HW2 9930   6.661   3.970   6.067 -0.3219 -0.3359 -1.1200
 3011SOL     OW 9931   0.734   3.503   0.821  0.6033 -0.2532 -0.4809
 3011SOL    HW1 9932   0.695   3.429   0.766  4.2720 -2.1967 -0.8034
 3011SOL    HW2 9933   0.786   3.464   0.897 -2.4342  2.2796  3.2905
 3012SOL     OW 9934   0.662   5.443   3.983  0.3914  0.1472  0.6960
 3012SOL    HW1 9935   0.744   5.491   4.016  0.1465  0.0195  1.5050
 3012SOL    HW2 9936   0.660   5.350   4.022 -0.2755  0.2422  0.8977
 3013SOL     OW 9937   5.755   2.311   5.883 -0.3365 -0.3679 -0.3116
 3013SOL    HW1 9938   5.666   2.334   5.923 -0.0569 -1.8890  1.3163
 3013SOL    HW2 9939   5.806   2.394   5.864 -1.0609  0.4565  1.2098
 3014SOL     OW 9940   1.502   0.308   2.897 -0.0345 -0.9045 -0.0627
 3014SOL    HW1 9941   1.516   0.226   2.841 -0.9066 -0.9382 -0.2454
 3014SOL    HW2 9942   1.516   0.389   2.841  2.7349 -0.8577  0.5626
 3015SOL     OW 9943   3.830   1.529   2.413 -0.1172 -0.6367 -0.1280
 3015SOL    HW1 9944   3.760   1.517   2.342  1.0758 -0.6131 -1.3434
 3015SOL    HW2 9945   3.832   1.625   2.441 -0.9047 -0.7314  0.3051
 3016SOL     OW 9946   0.206   5.081   6.811 -0.5762 -1.0582  0.3487
 3016SOL    HW1 9947   0.242   4.995   6.774  2.2186  0.1366  0.0467
 3016SOL    HW2 9948   0.213   5.079   6.911  0.9932 -0.6324  0.2752
 3017SOL     OW 9949   5.694   6.661   0.650  0.2615 -0.5594  0.4283
 3017SOL    HW1 9950   5.626   6.708   0.707  0.3560  1.3305 -0.9187
 3017SOL    HW2 9951   5.742   6.593   0.705 -3.2072 -2.6006  1.2705
 3018SOL     OW 9952   6.385   2.121   1.052  0.2952 -0.4034  0.1074
 3018SOL    HW1 9953   6.318   2.182   1.011  0.9752 -1.4140 -2.7931
 3018SOL    HW2 9954   6.345   2.072   1.129 -1.5620  0.6245 -0.1706
 3019SOL     OW 9955   1.350   1.017   5.325  0.1170 -0.3828  0.7512
 3019SOL    HW1 9956   1.386   1.045   5.236 -0.0426 -2.4194  0.0103
 3019SOL    HW2 9957   1.250   1.015   5.322  0.1198 -0.7882  0.8726
 3020SOL     OW 9958   5.296   5.428   5.483  0.2285  0.2700  0.5972
 3020SOL    HW1 9959   5.314   5.376   5.399  1.2882 -0.9693  1.5443
 3020SOL    HW2 9960   5.212   5.393   5.525 -0.2843  0.8678  0.0842
 3021SOL     OW 9961   2.084   0.574   2.703  0.6449  0.3383 -0.7861
 3021SOL    HW1 9962   2.139   0.615   2.776 -2.3703  0.1445  1.8365
 3021SOL    HW2 9963   2.095   0.627   2.619  1.6131  2.7699  0.7558
 3022SOL     OW 9964   6.298   1.171   4.077  0.2772 -0.2643  0.4182
 3022SOL    HW1 9965   6.239   1.111   4.024  1.5815  0.1287 -1.5770
 3022SOL    HW2 9966   6.250   1.257   4.096 -0.5432 -0.7823  0.7592
 3023SOL     OW 9967   2.491   3.341   0.203 -0.8129  0.0564 -0.3192
 3023SOL    HW1 9968   2.395   3.369   0.202 -0.3066  2.7072  3.4736
 3023SOL    HW2 9969   2.497   3.243   0.219 -2.8643 -0.1776 -0.6848
 3024SOL     OW 9970   2.759   5.296   0.160 -0.3403 -0.1852  0.4491
 3024SOL    HW1 9971   2.857   5.279   0.162  0.0222  0.9614 -2.6034
 3024SOL    HW2 9972   2.711   5.213   0.129 -0.2660 -0.4714  1.0873
 3025SOL     OW 9973   2.972   0.529   4.369 -0.5303  0.7635  0.8154
 3025SOL    HW1 9974   2.980   0.597   4.442 -0.3495  0.5100  1.0330
 3025SOL    HW2 9975   2.990   0.573   4.281  2.5444  0.4518  1.1604
 3026SOL     OW 9976   0.740   4.193   5.423 -0.5253 -0.0834 -0.2643
 3026SOL    HW1 9977   0.732   4.109   5.370  2.6579  0.8246 -2.4711
 3026SOL    HW2 9978   0.782   4.173   5.511  0.0584 -0.8450 -0.7027
 3027SOL     OW 9979   3.418   5.183   3.909  0.2347 -0.5248  0.3510
 3027SOL    HW1 9980   3.382   5.229   3.827  0.5536 -0.5175  0.2142
 3027SOL    HW2 9981   3.364   5.101   3.927 -0.7185  0.2039  0.9341
 3028SOL     OW 9982   1.818   6.048   1.631 -0.3955  0.2362  0.0966
 3028SOL    HW1 9983   1.762   6.111   1.684 -1.1720 -1.0688  0.8912
 3028SOL    HW2 9984   1.780   5.956   1.638  2.5969 -1.0068  1.8720
 3029SOL     OW 9985   5.839   4.450   4.993  0.4969  0.6442  0.5100
 3029SOL    HW1 9986   5.739   4.442   4.992  0.4132  1.6059 -0.5896
 3029SOL    HW2 9987   5.879   4.380   4.934  0.4320  0.8291  0.2498
 3030SOL     OW 9988   5.328   5.666   5.801  0.2718 -0.4272  0.0550
 3030SOL    HW1 9989   5.395   5.592   5.807 -0.6868 -1.2540  0.8381
 3030SOL    HW2 9990   5.248   5.644   5.856 -0.4848  0.7322 -0.5264
 3031SOL     OW 9991   2.076   5.336   3.801 -0.2957  0.3425 -0.1020
 3031SOL    HW1 9992   2.021   5.379   3.872 -0.2342  1.0358 -0.4650
 3031SOL    HW2 9993   2.159   5.298   3.842  0.8188  2.6453 -0.0705
 3032SOL     OW 9994   2.407   5.534   1.555 -0.9080  0.0240  0.0582
 3032SOL    HW1 9995   2.493   5.519   1.604  1.1588 -0.4731 -3.4042
 3032SOL    HW2 9996   2.334   5.480   1.599 -0.0560  1.7606  4.1222
 3033SOL     OW 9997   1.541   5.992   3.326 -0.5339 -0.1143  0.9892
 3033SOL    HW1 9998   1.498   5.980   3.237 -1.0064  1.5484  0.9650
 3033SOL    HW2 9999   1.621   5.933   3.332 -0.8575 -0.7210 -0.2889
 3034SOL     OW10000   3.711   5.868   6.272 -0.3603  0.6966 -0.4795
 3034SOL    HW110001   3.785   5.801   6.275 -1.9456 -1.1739  2.9742
 3034SOL    HW210002   3.735   5.946   6.329  0.2502  1.7191 -2.0817
 3035SOL     OW10003   6.455   4.144   5.829  0.2503  0.2254 -0.5508
 3035SOL    HW110004   6.515   4.217   5.797  0.6583 -0.6719 -1.8818
 3035SOL    HW210005   6.360   4.175   5.825  0.0779 -0.3355 -4.3000
 3036SOL     OW10006   5.794   4.077   2.359 -0.1029  0.2395  0.0529
 3036SOL    HW110007   5.794   4.143   2.285  0.2690  0.9499  0.6810
 3036SOL    HW210008   5.828   4.119   2.443  0.0612 -0.7192  0.4885
 3037SOL     OW10009   0.203   6.632   2.821  0.5987  0.5295 -0.0457
 3037SOL    HW110010   0.244   6.649   2.911 -1.8287 -2.3965  1.7875
 3037SOL    HW210011   0.248   6.554   2.778  0.7485  0.9687 -0.6925
 3038SOL     OW10012   5.221   2.906   5.133 -0.6051 -0.0913 -0.1813
 3038SOL    HW110013   5.162   2.859   5.199 -0.2863 -0.8685 -0.4387
 3038SOL    HW210014   5.276   2.839   5.084  0.6213  0.6190  0.1668
 3039SOL     OW10015   0.045   3.845   0.787 -0.0437  0.0509  0.0791
 3039SOL    HW110016   0.029   3.829   0.885 -0.2036  0.8918  0.1955
 3039SOL    HW210017  -0.026   3.799   0.734 -0.9326  0.9610  0.4462
 3040SOL     OW10018   4.578   0.733   3.190 -0.3745 -0.3321  0.0156
 3040SOL    HW110019   4.628   0.773   3.267 -0.5899  0.6822 -0.3622
 3040SOL    HW210020   4.482   0.760   3.194 -1.0333 -2.5611  0.9377
 3041SOL     OW10021   3.480   0.827   0.402 -0.5527 -0.5131  0.0207
 3041SOL    HW110022   3.487   0.833   0.303 -0.7866  0.4560  0.0552
 3041SOL    HW210023   3.563   0.787   0.440 -0.1721 -0.2316 -0.5119
 3042SOL     OW10024   6.124   6.233   3.159 -0.4295  0.3023  0.0002
 3042SOL    HW110025   6.167   6.285   3.085 -0.6146 -0.9768 -1.0414
 3042SOL    HW210026   6.153   6.271   3.247  2.3372 -0.0966 -0.6590
 3043SOL     OW10027   3.482   3.514   4.991  0.0711  0.1731  0.7513
 3043SOL    HW110028   3.523   3.555   4.909  1.6890  0.1738  1.5191
 3043SOL    HW210029   3.434   3.585   5.043 -0.2742  0.3322  0.2235
 3044SOL     OW10030   3.938   2.091   2.747  0.5143  0.5005  0.0533
 3044SOL    HW110031   3.877   2.141   2.808  0.8155  1.7851 -0.6746
 3044SOL    HW210032   3.891   2.073   2.660 -0.0514 -1.6612  0.7330
 3045SOL     OW10033   2.399   0.254   1.167  0.0171 -0.2987  0.2541
 3045SOL    HW110034   2.480   0.196   1.162 -0.4707 -0.9347 -0.3916
 3045SOL    HW210035   2.325   0.204   1.212 -1.0017 -0.8952 -1.9965
 3046SOL     OW10036   6.713   4.991   4.507  0.3621 -0.2602 -0.3694
 3046SOL    HW110037   6.789   4.953   4.560 -0.1089  0.7011  1.0419
 3046SOL    HW210038   6.632   4.998   4.565 -1.5106 -3.2131 -2.3546
 3047SOL     OW10039   0.905   0.353   5.939  0.2644  0.0618  0.9878
 3047SOL    HW110040   0.982   0.416   5.933  0.7369 -0.5165  0.9080
 3047SOL    HW210041   0.820   0.405   5.950  0.3567  0.8312 -1.4396
 3048SOL     OW10042   5.471   4.551   4.984  0.4564 -0.1460 -0.0152
 3048SOL    HW110043   5.537   4.595   5.045 -0.4307 -0.8887  1.5333
 3048SOL    HW210044   5.476   4.452   4.996 -1.8040 -0.1915  1.1481
 3049SOL     OW10045   0.386   6.242   6.092 -0.4282  0.5174 -0.5805
 3049SOL    HW110046   0.375   6.177   6.017 -0.2582 -0.4525  0.2101
 3049SOL    HW210047   0.295   6.270   6.125 -0.5751 -1.3435  0.7496
 3050SOL     OW10048   4.020   3.258   4.000 -0.1560 -0.2627 -0.4972
 3050SOL    HW110049   4.022   3.205   4.085 -1.2884 -0.0148 -0.2925
 3050SOL    HW210050   3.994   3.198   3.924 -2.8471  0.1954 -0.0412
 3051SOL     OW10051   5.226   3.259   2.878 -0.5239 -0.0545  0.1473
 3051SOL    HW110052   5.195   3.206   2.799  1.0674 -0.1626 -0.4436
 3051SOL    HW210053   5.154   3.261   2.947 -3.0367  2.2369 -2.2995
 3052SOL     OW10054   6.466   4.176   1.591 -0.4220  0.1950  0.1766
 3052SOL    HW110055   6.561   4.171   1.558 -0.9185  1.6955 -1.6767
 3052SOL    HW210056   6.457   4.121   1.674  1.9268 -0.4449  0.0962
 3053SOL     OW10057   1.004   1.671   2.630  0.2259 -0.2702 -0.5007
 3053SOL    HW110058   1.051   1.587   2.600 -0.0676 -0.4072 -0.5829
 3053SOL    HW210059   1.041   1.699   2.718  1.5049  0.4654 -1.2468
 3054SOL     OW10060   0.389   0.992   5.482  0.2755  0.8986  0.4299
 3054SOL    HW110061   0.301   1.007   5.528  0.0779  2.3828 -0.3659
 3054SOL    HW210062   0.378   0.923   5.411 -0.2109  0.9466  0.4567
 3055SOL     OW10063   3.716   3.960   1.959  0.2564 -0.1144  0.6586
 3055SOL    HW110064   3.784   3.991   1.892  1.4013 -1.7287  1.0208
 3055SOL    HW210065   3.644   4.030   1.968  1.1053  1.0089 -0.7739
 3056SOL     OW10066   2.425   5.702   5.672  0.8243  0.4296 -0.3442
 3056SOL    HW110067   2.418   5.631   5.601  0.7658 -0.6489  0.7138
 3056SOL    HW210068   2.500   5.680   5.735  1.3012  1.7233 -0.4285
 3057SOL     OW10069   0.235   2.934   3.166  0.7848  0.9090 -0.5360
 3057SOL    HW110070   0.289   2.851   3.180 -0.7005 -0.2303 -1.2867
 3057SOL    HW210071   0.180   2.953   3.247  0.3470  0.5463 -0.7422
 3058SOL     OW10072   6.370   4.484   3.626 -0.0855 -0.1868  0.5190
 3058SOL    HW110073   6.444   4.443   3.681 -0.4906 -1.0294  0.4567
 3058SOL    HW210074   6.292   4.422   3.624 -0.2496  0.0292 -0.6464
 3059SOL     OW10075   6.688   2.156   6.215  0.1273  0.0132  0.3163
 3059SOL    HW110076   6.629   2.110   6.148 -0.0689 -0.2854  0.6923
 3059SOL    HW210077   6.710   2.093   6.289  1.2672 -0.0053 -0.0245
 3060SOL     OW10078   4.108   1.939   2.914  0.7328  0.4771 -0.1281
 3060SOL    HW110079   4.032   1.975   2.860  1.7503  1.5188 -0.8977
 3060SOL    HW210080   4.179   2.009   2.924  1.2886 -0.2279  1.1996
 3061SOL     OW10081   6.952   6.472   2.622 -0.0087  0.5660 -0.0917
 3061SOL    HW110082   6.949   6.516   2.712  0.4283  2.3362 -0.8883
 3061SOL    HW210083   6.862   6.431   2.603 -0.0958  0.1326  1.1468
 3062SOL     OW10084   4.346   0.047   4.408  0.1710 -0.6155  0.1438
 3062SOL    HW110085   4.429  -0.004   4.432  0.5712 -0.0542 -0.0294
 3062SOL    HW210086   4.282  -0.014   4.362 -0.0814 -1.3987  1.4573
 3063SOL     OW10087   6.809   0.355   1.473 -0.0291  0.2715 -0.9146
 3063SOL    HW110088   6.868   0.435   1.486  0.4168 -0.2530  0.4637
 3063SOL    HW210089   6.797   0.339   1.375  1.2550  1.0215 -1.2250
 3064SOL     OW10090   3.124   6.070   0.142  0.7576  0.6145 -0.5444
 3064SOL    HW110091   3.142   6.060   0.240 -0.1461 -1.7432 -0.5503
 3064SOL    HW210092   3.028   6.093   0.128  0.3678 -1.0813 -0.8872
 3065SOL     OW10093   3.535   5.702   6.440  0.0827 -0.0380  0.4056
 3065SOL    HW110094   3.591   5.752   6.373  0.5117  2.7912  2.6631
 3065SOL    HW210095   3.546   5.745   6.530 -3.1813 -1.4818  1.6227
 3066SOL     OW10096   1.180   5.484   2.016 -0.1178  0.0712  0.0599
 3066SOL    HW110097   1.171   5.405   2.078  0.7846 -0.5598 -0.5872
 3066SOL    HW210098   1.187   5.568   2.069 -3.3691  0.0267  0.7667
 3067SOL     OW10099   5.687   3.414   4.389 -0.0165 -0.2098 -0.5481
 3067SOL    HW110100   5.649   3.496   4.433  1.3856  0.7013 -0.9695
 3067SOL    HW210101   5.737   3.360   4.458 -2.8242 -1.9848  0.2610
 3068SOL     OW10102   3.131   2.189   3.151 -0.2064 -0.2418  0.4139
 3068SOL    HW110103   3.045   2.216   3.195 -0.3520  0.3972 -0.2537
 3068SOL    HW210104   3.181   2.127   3.212 -0.1088  1.1036  1.7527
 3069SOL     OW10105   5.127   6.948   5.932  0.2605  0.5116  0.3082
 3069SOL    HW110106   5.103   6.970   5.838  2.4263 -1.3753 -0.7870
 3069SOL    HW210107   5.212   6.994   5.957  1.6578 -1.7176 -0.0122
 3070SOL     OW10108   0.272   6.379   6.447 -0.1858 -0.8310  0.2723
 3070SOL    HW110109   0.266   6.428   6.535 -1.3537 -0.3267 -0.0639
 3070SOL    HW210110   0.364   6.388   6.410 -0.3223  1.0391  0.2914
 3071SOL     OW10111   3.754   6.908   3.743  0.3421  0.6453 -0.0486
 3071SOL    HW110112   3.703   6.826   3.767  0.3624  0.9873  1.2758
 3071SOL    HW210113   3.842   6.883   3.703  1.2019 -0.0483  2.1419
 3072SOL     OW10114   6.266   0.049   2.525  0.5967  0.8447 -0.1857
 3072SOL    HW110115   6.180   0.086   2.561  0.6234 -2.0050  3.4209
 3072SOL    HW210116   6.342   0.108   2.554  0.1162  2.4061 -1.8772
 3073SOL     OW10117   0.777   6.121   6.179 -0.2143 -0.3516  0.1833
 3073SOL    HW110118   0.686   6.082   6.193  0.0778 -0.7845  0.9044
 3073SOL    HW210119   0.790   6.139   6.081 -0.5652 -1.5664 -0.1125
 3074SOL     OW10120   3.399   6.130   0.684 -0.3825 -0.2263  1.0770
 3074SOL    HW110121   3.312   6.083   0.668 -0.3828 -0.3093  1.3112
 3074SOL    HW210122   3.460   6.114   0.607 -1.9229  3.0628 -1.0471
 3075SOL     OW10123   6.218   1.002   0.448 -0.6876  0.2040  0.0552
 3075SOL    HW110124   6.273   0.961   0.376 -0.1490  3.1058 -1.3200
 3075SOL    HW210125   6.265   1.082   0.485 -2.2938  0.5102  1.5861
 3076SOL     OW10126   1.980   6.204   1.506  0.8832 -0.4109 -0.2192
 3076SOL    HW110127   1.962   6.210   1.407 -2.5488 -0.6657  0.2631
 3076SOL    HW210128   1.919   6.136   1.547  1.9445 -0.0236  2.1761
 3077SOL     OW10129   3.255   5.687   5.306 -0.0505  0.1273 -0.1520
 3077SOL    HW110130   3.188   5.752   5.272 -1.6881 -1.6989 -0.6013
 3077SOL    HW210131   3.252   5.604   5.250 -0.0804 -1.4697  2.0788
 3078SOL     OW10132   5.733   3.307   1.764  0.0812 -0.1169  0.8824
 3078SOL    HW110133   5.794   3.375   1.725  0.2393  0.7096  2.4818
 3078SOL    HW210134   5.763   3.284   1.857 -0.6371 -1.5314  0.8016
 3079SOL     OW10135   1.911   2.459   3.039 -0.3288  0.6671  0.2223
 3079SOL    HW110136   1.891   2.550   3.002 -0.8012  0.7484  0.6676
 3079SOL    HW210137   1.873   2.451   3.131 -0.9171 -0.2321 -0.0847
 3080SOL     OW10138   0.811   0.250   6.970  0.0441  0.0342 -0.2760
 3080SOL    HW110139   0.779   0.221   7.061 -1.0387  0.3368 -0.5380
 3080SOL    HW210140   0.814   0.350   6.966  2.0218  0.0285  0.0421
 3081SOL     OW10141   2.128   5.392   3.154  0.2755 -0.0957  0.3024
 3081SOL    HW110142   2.180   5.445   3.087  0.4007 -0.8226 -0.1933
 3081SOL    HW210143   2.151   5.421   3.246  4.0062 -2.4652  0.3027
 3082SOL     OW10144   1.772   3.544   4.713  0.1329  0.2583 -0.3136
 3082SOL    HW110145   1.759   3.564   4.615  1.6709 -1.0147 -0.8182
 3082SOL    HW210146   1.865   3.510   4.728  0.0745  0.8424  1.6895
 3083SOL     OW10147   0.513   3.449   4.043  0.3914  0.0132  0.2044
 3083SOL    HW110148   0.451   3.373   4.024  1.3731 -0.4015 -1.5983
 3083SOL    HW210149   0.601   3.413   4.073  1.6933  0.1790 -3.0066
 3084SOL     OW10150   6.842   3.264   0.879 -0.2128 -0.5801  0.2996
 3084SOL    HW110151   6.869   3.173   0.912  2.8629 -0.4184 -1.3676
 3084SOL    HW210152   6.853   3.267   0.779 -1.1438  1.3766  0.2153
 3085SOL     OW10153   2.359   6.833   6.456  0.2120  0.2157 -0.0006
 3085SOL    HW110154   2.351   6.846   6.357 -1.6661  1.5343  0.2879
 3085SOL    HW210155   2.334   6.917   6.503 -0.5602 -0.8900  1.6514
 3086SOL     OW10156   4.733   5.847   4.242 -0.1029  0.1822  0.0202
 3086SOL    HW110157   4.664   5.774   4.250 -0.2611  0.3899  0.6847
 3086SOL    HW210158   4.780   5.857   4.330  1.4646 -0.6209 -0.7013
 3087SOL     OW10159   6.642   5.523   0.802  0.0185 -0.3079 -0.2474
 3087SOL    HW110160   6.659   5.597   0.867  1.7652  0.6639 -1.7110
 3087SOL    HW210161   6.626   5.561   0.711 -0.5017 -1.6890 -0.7633
 3088SOL     OW10162   2.996   2.291   0.047 -0.3796  0.4296  0.4689
 3088SOL    HW110163   2.953   2.210   0.085 -0.3199  0.8204  1.4098
 3088SOL    HW210164   3.076   2.315   0.103  0.0602  0.6817 -0.2596
 3089SOL     OW10165   2.392   5.298   3.733 -0.0491  0.6732  0.4589
 3089SOL    HW110166   2.351   5.386   3.711 -0.7287 -0.0257 -1.2377
 3089SOL    HW210167   2.439   5.262   3.653 -2.0830 -1.7301  0.2156
 3090SOL     OW10168   5.473   4.083   2.907 -0.3850 -0.1743 -0.3699
 3090SOL    HW110169   5.558   4.115   2.948  0.0646 -0.7816 -0.8187
 3090SOL    HW210170   5.456   3.988   2.936  0.1231 -0.7391 -1.8545
 3091SOL     OW10171   5.599   3.919   1.343 -0.2199 -0.3744  0.1709
 3091SOL    HW110172   5.639   3.841   1.293 -0.9424  0.2956 -1.5479
 3091SOL    HW210173   5.589   3.996   1.280 -1.3383  0.4710  1.3437
 3092SOL     OW10174   5.646   6.905   6.854  0.5978  0.5142 -0.3572
 3092SOL    HW110175   5.742   6.921   6.878  0.8651  1.1402 -1.7272
 3092SOL    HW210176   5.638   6.893   6.755 -0.3239 -2.7940  0.0155
 3093SOL     OW10177   1.513   6.097   1.503  0.1758  0.1667  0.4489
 3093SOL    HW110178   1.461   6.013   1.486 -0.8193  0.6274  1.1214
 3093SOL    HW210179   1.557   6.091   1.593  0.8895 -0.0138  0.0947
 3094SOL     OW10180   3.021   2.413   6.823 -0.8288  0.0605 -0.2202
 3094SOL    HW110181   3.020   2.368   6.912 -0.2247 -1.7350 -1.0690
 3094SOL    HW210182   3.030   2.511   6.836 -0.6971 -0.1563  1.6889
 3095SOL     OW10183   4.878   1.959   6.423  0.0730 -0.2247 -0.6974
 3095SOL    HW110184   4.856   1.952   6.325  1.1332 -0.1773 -0.9480
 3095SOL    HW210185   4.793   1.965   6.475 -0.5209 -0.6193 -1.5852
 3096SOL     OW10186   6.182   0.006   1.604 -0.6224 -0.3010 -0.3755
 3096SOL    HW110187   6.190  -0.016   1.507 -2.9824 -2.5550 -0.1581
 3096SOL    HW210188   6.125   0.087   1.615 -0.3468 -0.0380 -0.8552
 3097SOL     OW10189   5.687   5.234   3.534 -0.9162 -0.0329  0.2602
 3097SOL    HW110190   5.637   5.270   3.612 -0.4851  0.3213  0.3795
 3097SOL    HW210191   5.667   5.289   3.453 -0.5377  0.2644  0.3628
 3098SOL     OW10192   6.502   3.929   1.855  0.4608 -0.0311  0.2600
 3098SOL    HW110193   6.483   4.016   1.901 -0.5541  0.1984 -0.5407
 3098SOL    HW210194   6.583   3.940   1.797 -0.4988  0.8866 -0.9933
 3099SOL     OW10195   3.745   3.849   5.747  0.2786 -0.1435  0.4395
 3099SOL    HW110196   3.666   3.907   5.729 -0.3718 -0.5274  1.9793
 3099SOL    HW210197   3.736   3.763   5.697  0.4162  0.3612 -0.4807
 3100SOL     OW10198   3.587   5.709   2.958 -0.3249 -0.5636  0.4376
 3100SOL    HW110199   3.651   5.711   2.881 -2.2428  0.3295 -1.2396
 3100SOL    HW210200   3.539   5.797   2.963 -2.3225 -1.6181  0.7615
 3101SOL     OW10201   5.694   5.397   3.163 -0.0240 -0.0138  0.2865
 3101SOL    HW110202   5.596   5.381   3.150 -0.0325  1.3366 -1.7493
 3101SOL    HW210203   5.739   5.311   3.189 -1.4755 -1.0641 -0.5383
 3102SOL     OW10204   3.680   2.874   2.938 -0.3024  0.4534  0.0148
 3102SOL    HW110205   3.755   2.928   2.976 -1.1819  1.0496  0.9367
 3102SOL    HW210206   3.631   2.829   3.012 -1.6402  1.1012 -0.4535
 3103SOL     OW10207   3.932   5.223   3.856  0.0377  0.1597  0.1011
 3103SOL    HW110208   3.856   5.161   3.876  1.1322 -1.1881  0.2640
 3103SOL    HW210209   3.928   5.249   3.759 -0.5639  0.0139  0.0787
 3104SOL     OW10210   6.869   0.947   3.928 -0.1806 -0.4528  0.1891
 3104SOL    HW110211   6.801   1.010   3.890 -1.2493 -0.3024  2.2140
 3104SOL    HW210212   6.956   0.994   3.938 -0.8587  0.6375  1.2818
 3105SOL     OW10213   4.631   0.475   5.414 -0.2537 -0.7771 -0.1854
 3105SOL    HW110214   4.675   0.472   5.324  0.7164  0.9104  0.1949
 3105SOL    HW210215   4.700   0.494   5.484 -1.3075  0.0882  0.6514
 3106SOL     OW10216   3.037   5.429   4.286  0.3700  0.1274  0.2648
 3106SOL    HW110217   3.111   5.492   4.264  0.5271  0.3813  1.4414
 3106SOL    HW210218   3.073   5.336   4.295  0.7714  0.4033  1.8597
 3107SOL     OW10219   3.022   3.691   4.812 -1.1634  0.1304  0.3621
 3107SOL    HW110220   3.018   3.692   4.712  1.4231  1.2117  0.1782
 3107SOL    HW210221   2.981   3.606   4.846 -2.2704 -0.1784 -1.5756
 3108SOL     OW10222   2.955   5.643   0.917  0.3513 -0.1220 -0.0938
 3108SOL    HW110223   2.986   5.566   0.973  1.8567  1.1998  0.9852
 3108SOL    HW210224   2.961   5.727   0.970 -2.7314  0.5988 -0.7273
 3109SOL     OW10225   2.094   6.135   6.894 -0.2484  0.4554  0.7345
 3109SOL    HW110226   2.110   6.050   6.845 -2.5132 -0.6314  1.7170
 3109SOL    HW210227   2.058   6.204   6.831  2.2235  0.9802 -0.2059
 3110SOL     OW10228   0.212   0.676   1.508 -0.0445  0.4908 -0.4577
 3110SOL    HW110229   0.129   0.622   1.496 -0.7216  1.8600 -2.4356
 3110SOL    HW210230   0.237   0.719   1.421  2.8861 -0.0553  0.0271
 3111SOL     OW10231   3.975   0.340   5.550  0.6995  0.0253  0.4705
 3111SOL    HW110232   3.940   0.286   5.473  0.7465  1.0533 -0.2921
 3111SOL    HW210233   3.927   0.314   5.634  0.0241 -0.4946 -0.0697
 3112SOL     OW10234   4.919   0.983   2.462 -0.6319 -0.2251 -0.1630
 3112SOL    HW110235   4.876   0.904   2.416 -0.5807  0.0154 -0.6299
 3112SOL    HW210236   4.984   0.950   2.531 -0.7726 -0.5917 -0.2007
 3113SOL     OW10237   5.703   1.682   6.018 -0.1277 -0.1890 -0.2747
 3113SOL    HW110238   5.727   1.770   6.060  1.5155 -0.1650 -1.1694
 3113SOL    HW210239   5.631   1.697   5.950 -0.4839  0.3130  0.2032
 3114SOL     OW10240   1.647   6.703   5.904  0.0534  0.0875 -0.5710
 3114SOL    HW110241   1.571   6.651   5.866  0.2287  0.2039 -1.0923
 3114SOL    HW210242   1.727   6.694   5.845  0.8389 -1.0545  0.6185
 3115SOL     OW10243   3.900   3.486   6.168  0.4569  0.3626  0.5668
 3115SOL    HW110244   3.831   3.550   6.203  1.0985  0.5136  1.5976
 3115SOL    HW210245   3.855   3.419   6.109 -0.3658  1.2308  0.1784
 3116SOL     OW10246   3.973   0.041   0.065 -0.4363 -0.1922  0.1490
 3116SOL    HW110247   3.937  -0.052   0.054  0.8546 -0.8934  1.5379
 3116SOL    HW210248   3.981   0.063   0.162  0.2467  0.9878 -0.1478
 3117SOL     OW10249   6.769   6.516   0.890  0.0687  0.1916  0.1127
 3117SOL    HW110250   6.672   6.491   0.894  0.3940 -1.1968 -0.1103
 3117SOL    HW210251   6.823   6.436   0.861  1.2940  0.9102  0.3384
 3118SOL     OW10252   5.367   1.125   2.946  0.5313  0.3734 -0.0584
 3118SOL    HW110253   5.326   1.136   2.855  1.3811  0.7808 -0.3971
 3118SOL    HW210254   5.439   1.056   2.941  1.0601  0.9101  0.1486
 3119SOL     OW10255   0.129   0.815   5.450  0.0841  0.0461  0.3509
 3119SOL    HW110256   0.085   0.773   5.529  1.0104 -1.1284  0.2744
 3119SOL    HW210257   0.090   0.778   5.366 -0.8044  1.1919  0.2386
 3120SOL     OW10258   4.864   6.418   4.740  0.5514 -0.8006 -0.0183
 3120SOL    HW110259   4.895   6.404   4.647 -2.5155 -0.4589 -1.2174
 3120SOL    HW210260   4.827   6.332   4.776 -1.0938 -0.2831 -0.3557
 3121SOL     OW10261   2.057   1.095   5.770 -0.3984  0.3352  0.2685
 3121SOL    HW110262   2.151   1.071   5.749 -1.0988 -2.2101 -0.3166
 3121SOL    HW210263   2.041   1.086   5.869 -0.1321  0.4190  0.3193
 3122SOL     OW10264   0.783   5.258   5.123  0.5636 -0.0483 -0.0884
 3122SOL    HW110265   0.779   5.194   5.199 -2.0316 -2.4914 -2.0435
 3122SOL    HW210266   0.823   5.213   5.043  1.5670  1.8475 -0.7388
 3123SOL     OW10267   3.118   4.221   5.542 -0.5953  0.4761 -0.5326
 3123SOL    HW110268   3.180   4.295   5.568 -0.5419 -0.1121  1.1303
 3123SOL    HW210269   3.045   4.213   5.610 -1.2139 -0.3035 -1.2652
 3124SOL     OW10270   6.029   2.121   1.713 -0.5410 -0.7511 -0.3460
 3124SOL    HW110271   6.052   2.138   1.809 -0.3998 -0.7675 -0.3759
 3124SOL    HW210272   6.000   2.206   1.670  2.6676  0.0676 -1.1889
 3125SOL     OW10273   0.561   2.129   0.837  0.1225 -0.7771  0.3784
 3125SOL    HW110274   0.584   2.168   0.926 -0.8243 -0.0026  0.3038
 3125SOL    HW210275   0.623   2.054   0.817  1.1659 -0.1421  1.1117
 3126SOL     OW10276   6.272   4.502   1.017  0.0771  0.8270 -0.3449
 3126SOL    HW110277   6.264   4.588   0.965  1.1154  1.2946  0.2480
 3126SOL    HW210278   6.183   4.479   1.056 -0.3960  1.2089 -1.1753
 3127SOL     OW10279   4.408   1.487   4.932  0.2904  0.2639  0.6054
 3127SOL    HW110280   4.426   1.439   4.846 -2.0657  1.2824 -0.5429
 3127SOL    HW210281   4.355   1.428   4.992  0.6458  0.0990  0.7633
 3128SOL     OW10282   0.016   5.391   0.891  0.3337 -0.4476  0.1281
 3128SOL    HW110283  -0.049   5.433   0.955  1.1045 -0.5169  0.9937
 3128SOL    HW210284  -0.030   5.320   0.839  0.0203 -1.4986  1.7535
 3129SOL     OW10285   1.663   4.904   6.319  0.5524  0.2697  0.0001
 3129SOL    HW110286   1.704   4.814   6.328  1.0465  0.4428 -0.4445
 3129SOL    HW210287   1.642   4.921   6.222  0.9944  0.8620  0.0058
 3130SOL     OW10288   5.543   0.893   2.026  0.2845 -0.2859 -0.2882
 3130SOL    HW110289   5.503   0.879   2.116 -0.8283  1.0074 -0.5484
 3130SOL    HW210290   5.619   0.830   2.013  1.4173  0.4596  2.1372
 3131SOL     OW10291   0.164   0.542   0.199 -0.0767 -0.2529 -0.4733
 3131SOL    HW110292   0.158   0.523   0.297  1.8519  2.0164  0.1874
 3131SOL    HW210293   0.096   0.612   0.175  0.1633 -0.0351 -0.5191
 3132SOL     OW10294   2.645   5.609   4.067 -0.1819  0.3231  0.2136
 3132SOL    HW110295   2.695   5.696   4.069  0.0207  0.2167  2.0740
 3132SOL    HW210296   2.681   5.549   4.139 -1.2362 -0.7781 -0.1532
 3133SOL     OW10297   1.225   6.707   0.449 -0.7161 -0.7160  0.2279
 3133SOL    HW110298   1.317   6.682   0.477  0.2587  0.6740 -1.5580
 3133SOL    HW210299   1.209   6.676   0.355 -1.2268  0.9952 -0.2918
 3134SOL     OW10300   4.093   1.613   3.310  0.0432 -0.0376 -0.2982
 3134SOL    HW110301   4.113   1.575   3.401  0.6768  0.2313 -0.3211
 3134SOL    HW210302   4.003   1.656   3.311 -0.6165 -1.3944 -0.2266
 3135SOL     OW10303   2.178   1.063   0.112 -0.4644 -0.4095  0.4734
 3135SOL    HW110304   2.090   1.022   0.085 -0.8955  0.2506  0.8435
 3135SOL    HW210305   2.201   1.034   0.205 -1.4968  1.2820  1.3108
 3136SOL     OW10306   4.626   3.927   5.924  0.3222  0.1763 -0.0249
 3136SOL    HW110307   4.706   3.968   5.967  0.9528 -0.5033 -0.5135
 3136SOL    HW210308   4.654   3.878   5.841 -0.3627 -1.3099  0.5835
 3137SOL     OW10309   6.738   4.974   3.299  0.7609  0.3918 -0.0965
 3137SOL    HW110310   6.835   4.950   3.293  1.1076  0.7625  2.5684
 3137SOL    HW210311   6.685   4.892   3.321  0.7161  0.4772  0.1177
 3138SOL     OW10312   6.908   3.105   2.368 -0.0443 -0.4023  0.4044
 3138SOL    HW110313   6.947   3.021   2.329  0.7104 -0.3138  0.9422
 3138SOL    HW210314   6.866   3.159   2.295  1.3528 -0.2256 -0.3078
 3139SOL     OW10315   6.938   1.322   1.518  0.6749  0.6246 -0.0725
 3139SOL    HW110316   6.922   1.327   1.617  1.2210 -1.1618  0.1363
 3139SOL    HW210317   7.030   1.356   1.498  0.6981  0.6524  0.0775
 3140SOL     OW10318   5.505   5.913   3.325 -0.3090 -0.3768 -0.2663
 3140SOL    HW110319   5.470   5.984   3.265 -2.7218  0.0491  1.4889
 3140SOL    HW210320   5.455   5.828   3.309  1.3805 -1.2644 -1.1515
 3141SOL     OW10321   2.847   5.577   5.480  0.2414  0.0224  0.2825
 3141SOL    HW110322   2.888   5.530   5.403  0.9834  2.0926 -0.6677
 3141SOL    HW210323   2.827   5.511   5.553  0.9403 -1.7426 -1.0521
 3142SOL     OW10324   3.985   2.741   6.972  0.8315 -0.4637 -0.8865
 3142SOL    HW110325   4.037   2.713   6.891  0.2494 -1.9130 -0.7885
 3142SOL    HW210326   3.996   2.673   7.044  0.3763  0.2110 -0.1564
 3143SOL     OW10327   2.459   5.294   6.003  0.8259  0.2327 -0.1024
 3143SOL    HW110328   2.552   5.265   5.979  0.6381  0.1015 -0.6802
 3143SOL    HW210329   2.449   5.392   5.985  0.3810 -0.0603 -1.5460
 3144SOL     OW10330   4.257   0.692   5.738  0.5367  0.3015  0.5592
 3144SOL    HW110331   4.328   0.689   5.669  0.8416 -1.0336  0.9096
 3144SOL    HW210332   4.168   0.710   5.694  0.4659 -2.0855 -0.4336
 3145SOL     OW10333   6.602   1.427   5.804 -0.2571 -0.8173  0.1130
 3145SOL    HW110334   6.594   1.376   5.718  0.4898  1.1858 -1.2058
 3145SOL    HW210335   6.601   1.362   5.881 -1.0137 -2.6566 -1.3678
 3146SOL     OW10336   3.802   1.264   4.186  0.3681  0.4797 -0.0114
 3146SOL    HW110337   3.737   1.300   4.120 -2.0596  0.3829  2.1377
 3146SOL    HW210338   3.861   1.338   4.219  0.1165  0.9859 -0.6878
 3147SOL     OW10339   3.296   1.084   5.573 -0.3680  0.0948 -0.5194
 3147SOL    HW110340   3.352   1.005   5.599  0.4399 -0.1089 -2.7111
 3147SOL    HW210341   3.354   1.166   5.570 -0.8548  0.4748  0.1062
 3148SOL     OW10342   4.446   0.617   5.273 -0.1574  0.0052 -0.2363
 3148SOL    HW110343   4.447   0.562   5.189  0.8973 -1.4268  0.6670
 3148SOL    HW210344   4.458   0.557   5.352  0.3991  1.4898  0.8499
 3149SOL     OW10345   5.424   1.380   2.967  0.1594  0.5359 -0.1295
 3149SOL    HW110346   5.418   1.394   2.868  1.3307 -0.7266 -0.4236
 3149SOL    HW210347   5.389   1.289   2.990  1.6993  0.0253  0.3262
 3150SOL     OW10348   0.908   3.770   4.102  0.0151 -0.6004  0.3266
 3150SOL    HW110349   0.996   3.809   4.129  1.4811 -4.0985  1.2046
 3150SOL    HW210350   0.886   3.799   4.009 -0.3644  4.0506  1.6176
 3151SOL     OW10351   5.191   1.816   6.924 -0.0994 -0.5421  0.1743
 3151SOL    HW110352   5.275   1.813   6.979 -0.1014 -0.4174  0.1826
 3151SOL    HW210353   5.208   1.863   6.838 -0.1374 -0.5989  0.1352
 3152SOL     OW10354   1.792   6.939   4.798  0.2718 -0.5754 -0.5273
 3152SOL    HW110355   1.842   6.971   4.879 -0.3909  0.3105 -0.4530
 3152SOL    HW210356   1.712   6.997   4.783 -0.7713 -1.9975 -0.6244
 3153SOL     OW10357   4.404   6.050   3.487 -0.0238 -0.0852 -0.3348
 3153SOL    HW110358   4.440   5.957   3.493  0.6674  0.0893 -1.3884
 3153SOL    HW210359   4.338   6.065   3.560  0.6592 -1.0404  0.5067
 3154SOL     OW10360   4.777   3.987   0.310  0.7588 -0.3810 -0.4047
 3154SOL    HW110361   4.724   3.990   0.395 -1.2050 -1.1904 -1.5443
 3154SOL    HW210362   4.750   3.907   0.256  1.1589  0.7090 -2.3149
 3155SOL     OW10363   1.896   3.911   1.954  0.7512  0.3171 -0.2077
 3155SOL    HW110364   1.961   3.836   1.965  1.1727  0.4168 -1.8327
 3155SOL    HW210365   1.867   3.917   1.859 -3.2828 -1.0384  0.7190
 3156SOL     OW10366   4.164   6.937   4.706 -0.2028 -0.2098 -0.5463
 3156SOL    HW110367   4.216   6.973   4.628  0.6896  2.2390  1.0509
 3156SOL    HW210368   4.094   7.004   4.732 -0.9029 -1.2755  0.3747
 3157SOL     OW10369   0.669   5.192   3.714 -0.3079 -0.2941 -0.0740
 3157SOL    HW110370   0.762   5.229   3.706  0.2733 -1.5521  0.6119
 3157SOL    HW210371   0.648   5.176   3.810 -1.1577 -0.2271 -0.2446
 3158SOL     OW10372   0.816   2.678   3.091  0.1558  0.2470  0.9375
 3158SOL    HW110373   0.839   2.755   3.150  0.9507 -0.3960  1.4836
 3158SOL    HW210374   0.900   2.633   3.061 -0.1604  1.2443 -1.6538
 3159SOL     OW10375   1.016   2.380   2.975 -0.0166 -0.8714 -0.1447
 3159SOL    HW110376   0.916   2.376   2.979 -0.1075 -2.3153 -2.5002
 3159SOL    HW210377   1.045   2.476   2.968 -1.2159 -0.4380  0.5538
 3160SOL     OW10378   3.315   5.873   3.579  0.4434  0.1181  0.5023
 3160SOL    HW110379   3.324   5.817   3.496 -0.7823  2.1166 -1.0945
 3160SOL    HW210380   3.230   5.850   3.625 -1.9903  2.8638 -2.1438
 3161SOL     OW10381   0.958   2.899   1.584 -0.1613 -0.7158  0.1107
 3161SOL    HW110382   0.990   2.956   1.508 -0.3963  1.5999  1.6446
 3161SOL    HW210383   0.976   2.946   1.671  0.0398 -3.2236  1.5327
 3162SOL     OW10384   2.338   6.662   3.971  0.0592 -0.1653 -0.2507
 3162SOL    HW110385   2.304   6.568   3.977  0.7365 -0.3505  1.0423
 3162SOL    HW210386   2.265   6.725   3.996  0.3231 -0.5057  1.4831
 3163SOL     OW10387   0.196   3.149   6.539  0.2505  0.4249  0.2485
 3163SOL    HW110388   0.293   3.136   6.523  0.4876  0.6926  1.3582
 3163SOL    HW210389   0.181   3.233   6.591 -0.6749  0.9721 -0.8577
 3164SOL     OW10390   3.291   3.608   1.629 -0.7320 -0.7713  0.1644
 3164SOL    HW110391   3.225   3.621   1.703 -0.8596 -0.6057  0.0233
 3164SOL    HW210392   3.343   3.524   1.645 -0.3522 -0.4366  0.7433
 3165SOL     OW10393   1.305   6.239   3.186 -0.9479 -0.4652 -0.3481
 3165SOL    HW110394   1.399   6.238   3.220 -0.3706 -2.5233 -1.7808
 3165SOL    HW210395   1.294   6.313   3.120 -0.4912  0.1020  0.2030
 3166SOL     OW10396   3.122   5.468   1.082 -0.5281  0.6531  0.0976
 3166SOL    HW110397   3.059   5.409   1.031  0.5285 -0.9078  0.5313
 3166SOL    HW210398   3.075   5.503   1.164 -0.7343 -0.7848  0.6101
 3167SOL     OW10399   5.304   2.035   5.952 -0.0029 -0.1826  0.0330
 3167SOL    HW110400   5.244   2.092   6.007  1.4527  0.5898  0.8639
 3167SOL    HW210401   5.361   1.978   6.011  1.4213  0.4792 -0.6396
 3168SOL     OW10402   5.956   0.770   3.081  0.0029 -0.6228  0.1180
 3168SOL    HW110403   5.884   0.703   3.102  0.1169 -0.6013  0.5804
 3168SOL    HW210404   5.946   0.800   2.986 -0.1661 -1.1551 -0.0383
 3169SOL     OW10405   1.359   2.371   6.313 -0.6378  0.0578 -0.2505
 3169SOL    HW110406   1.447   2.418   6.318  0.2446 -1.5243 -0.4006
 3169SOL    HW210407   1.318   2.367   6.404  0.1136 -0.4038  0.0766
 3170SOL     OW10408   1.664   4.311   3.060 -0.0867  0.6770  0.4645
 3170SOL    HW110409   1.676   4.337   3.156  0.3844  0.2242  0.5330
 3170SOL    HW210410   1.752   4.282   3.022 -0.6143 -1.1647  0.5153
 3171SOL     OW10411   1.950   0.323   6.889 -0.0788 -0.2625  0.3031
 3171SOL    HW110412   1.882   0.378   6.840  0.0648 -0.8401 -0.5534
 3171SOL    HW210413   1.966   0.364   6.979 -1.7291 -0.2432  0.6255
 3172SOL     OW10414   3.003   1.273   4.406  0.1492  0.4806 -0.0153
 3172SOL    HW110415   2.956   1.344   4.353 -1.6435  1.5660  2.7697
 3172SOL    HW210416   3.073   1.316   4.464 -0.0537 -0.1920  0.7428
 3173SOL     OW10417   0.875   4.621   4.716 -0.9008  0.0162  0.0308
 3173SOL    HW110418   0.777   4.601   4.713 -0.5475 -1.8958 -0.6994
 3173SOL    HW210419   0.912   4.620   4.622 -0.0427 -0.2073  0.3570
 3174SOL     OW10420   0.630   2.196   5.988 -0.5286  0.3218 -0.6965
 3174SOL    HW110421   0.693   2.261   5.946  0.2768 -0.6178 -0.9783
 3174SOL    HW210422   0.556   2.246   6.034  0.1814  1.4332 -0.7256
 3175SOL     OW10423   4.607   6.084   0.875 -0.0669  0.5040 -0.0653
 3175SOL    HW110424   4.699   6.094   0.838  0.0429 -1.1692 -0.3413
 3175SOL    HW210425   4.541   6.085   0.800 -0.2386  1.2461  0.0907
 3176SOL     OW10426   1.258   0.729   4.980  0.1693 -0.5056 -0.1284
 3176SOL    HW110427   1.209   0.781   4.911  0.5395 -1.1467 -0.8956
 3176SOL    HW210428   1.352   0.762   4.986  0.1249 -0.4224  0.0943
 3177SOL     OW10429   4.967   0.854   1.840  0.0335  0.2184 -0.0602
 3177SOL    HW110430   4.956   0.953   1.851  1.7527  0.2707  1.7608
 3177SOL    HW210431   4.890   0.807   1.882 -0.5130  0.7619 -0.4290
 3178SOL     OW10432   2.378   4.835   6.648 -0.2353  0.4789 -0.5398
 3178SOL    HW110433   2.315   4.834   6.726  0.8796  0.9654  0.4011
 3178SOL    HW210434   2.439   4.914   6.655 -1.7344  2.0505 -3.2874
 3179SOL     OW10435   4.340   5.802   0.514  0.4644  0.0253  0.0350
 3179SOL    HW110436   4.355   5.708   0.482 -0.2437 -0.7184  1.7948
 3179SOL    HW210437   4.365   5.865   0.441  0.9364 -1.5153 -1.2100
 3180SOL     OW10438   6.615   3.179   1.427 -0.1116 -0.2312 -0.3180
 3180SOL    HW110439   6.593   3.116   1.501 -1.2395  1.3506  0.7671
 3180SOL    HW210440   6.533   3.196   1.372 -0.4604  1.8818  0.7243
 3181SOL     OW10441   5.590   5.970   4.882  0.5289  0.2542  0.0444
 3181SOL    HW110442   5.677   5.994   4.925  0.3630  0.3602  0.3312
 3181SOL    HW210443   5.537   5.913   4.945 -0.2068  1.3704  0.4714
 3182SOL     OW10444   2.503   0.422   5.797 -0.1268  0.5510  0.5681
 3182SOL    HW110445   2.584   0.451   5.848  0.3418 -0.5044  0.4580
 3182SOL    HW210446   2.516   0.328   5.765 -0.6824  0.9529 -0.9263
 3183SOL     OW10447   4.346   1.109   5.478  0.4118  0.7747  0.6811
 3183SOL    HW110448   4.315   1.026   5.431  0.1341  1.3194 -0.1155
 3183SOL    HW210449   4.271   1.174   5.485  0.9221  1.4216  0.2573
 3184SOL     OW10450   3.894   4.866   3.765  0.0767 -0.0790 -0.2582
 3184SOL    HW110451   3.794   4.863   3.761  0.1289 -2.8993 -1.6482
 3184SOL    HW210452   3.923   4.868   3.861 -1.3077 -0.7026  0.1986
 3185SOL     OW10453   4.363   1.282   6.591  0.1832  0.0028 -0.2452
 3185SOL    HW110454   4.378   1.357   6.527  1.2371  0.6814  0.7612
 3185SOL    HW210455   4.341   1.320   6.681 -1.4924 -0.9347 -0.2309
 3186SOL     OW10456   2.025   2.170   0.063  0.2516  0.4657  0.0244
 3186SOL    HW110457   2.103   2.142   0.118 -1.1604  0.3923  2.1008
 3186SOL    HW210458   2.048   2.253   0.011  1.7342  0.3409  0.4559
 3187SOL     OW10459   0.015   6.644   2.414  0.2380 -0.0943 -0.4066
 3187SOL    HW110460   0.112   6.617   2.412  0.1643 -0.3811 -0.1786
 3187SOL    HW210461  -0.028   6.605   2.495 -0.0128  0.2325 -0.3828
 3188SOL     OW10462   7.000   4.288   5.732 -0.2434  0.4338  0.6250
 3188SOL    HW110463   7.055   4.210   5.701 -0.0858 -0.0860  2.1485
 3188SOL    HW210464   6.958   4.267   5.820 -0.8666  1.7741  0.6722
 3189SOL     OW10465   6.671   4.919   4.253  0.1644 -0.2114  0.0734
 3189SOL    HW110466   6.722   4.834   4.243 -1.9686 -1.4075 -1.5695
 3189SOL    HW210467   6.682   4.953   4.346 -0.2484 -3.2556  1.3844
 3190SOL     OW10468   5.925   3.700   2.367 -0.3841  0.7289  0.2287
 3190SOL    HW110469   5.833   3.684   2.402 -0.5983  1.0889 -0.1479
 3190SOL    HW210470   5.919   3.746   2.278  0.1134 -0.7781 -0.6263
 3191SOL     OW10471   3.845   1.580   1.502 -0.4384 -0.2034 -0.2644
 3191SOL    HW110472   3.842   1.481   1.520  1.5020  0.0572  2.0045
 3191SOL    HW210473   3.933   1.616   1.532 -1.2239  2.2828 -0.7810
 3192SOL     OW10474   5.512   6.934   1.510  0.0370 -0.3846  0.3977
 3192SOL    HW110475   5.530   7.031   1.489  1.0732 -0.5496  0.4741
 3192SOL    HW210476   5.426   6.907   1.468 -1.1843  1.0406  1.8632
 3193SOL     OW10477   1.605   4.912   4.488  0.2219 -0.2471 -0.1101
 3193SOL    HW110478   1.576   4.828   4.443 -1.7427  0.2369  0.1347
 3193SOL    HW210479   1.554   4.989   4.449  1.2034  0.6839  0.4050
 3194SOL     OW10480   4.120   3.705   3.309  0.1595 -0.7348  0.4862
 3194SOL    HW110481   4.076   3.769   3.372  0.3402 -1.0278  0.9135
 3194SOL    HW210482   4.144   3.621   3.358 -2.4177 -2.2278 -0.6139
 3195SOL     OW10483   5.403   0.520   0.994  0.0740 -0.3321 -0.3587
 3195SOL    HW110484   5.351   0.454   0.940 -0.4745 -1.3954  1.4174
 3195SOL    HW210485   5.500   0.511   0.973 -0.1417 -0.5376 -1.3323
 3196SOL     OW10486   1.260   2.048   4.880  0.1657 -0.3457  0.1257
 3196SOL    HW110487   1.236   2.028   4.976 -0.3537  0.6643  0.2139
 3196SOL    HW210488   1.193   2.112   4.842 -0.7557 -2.1647 -1.5080
 3197SOL     OW10489   6.077   5.246   5.334 -0.1813 -0.4426 -0.0908
 3197SOL    HW110490   6.023   5.183   5.279 -0.1648  0.2518 -0.9226
 3197SOL    HW210491   6.052   5.340   5.311  1.9222 -0.0736 -1.1071
 3198SOL     OW10492   4.202   4.455   6.415  0.7180 -0.4349 -0.2340
 3198SOL    HW110493   4.300   4.437   6.424  0.8857  0.5655  0.0521
 3198SOL    HW210494   4.169   4.502   6.497 -0.0154 -0.8004 -0.3074
 3199SOL     OW10495   5.113   6.820   3.853 -0.0374  0.2849 -0.2797
 3199SOL    HW110496   5.169   6.828   3.935 -2.6164 -2.3134  1.9498
 3199SOL    HW210497   5.027   6.869   3.865 -1.8934 -2.7967  0.1473
 3200SOL     OW10498   1.344   0.151   1.692 -0.9474 -0.1915  0.1656
 3200SOL    HW110499   1.366   0.122   1.785 -0.9709 -1.0013 -0.0787
 3200SOL    HW210500   1.401   0.102   1.627 -0.0737  1.2493 -0.1970
 3201SOL     OW10501   1.974   4.244   4.373 -0.4043 -0.1812 -0.9696
 3201SOL    HW110502   1.987   4.218   4.469 -2.5716  0.7266 -0.3639
 3201SOL    HW210503   1.951   4.163   4.320 -0.0729 -0.5624 -0.5385
 3202SOL     OW10504   3.158   1.528   1.485  0.3257 -0.2854 -0.4872
 3202SOL    HW110505   3.096   1.568   1.552  0.1330 -0.2096 -0.7118
 3202SOL    HW210506   3.141   1.568   1.395  1.8894  1.0699 -0.2464
 3203SOL     OW10507   4.546   0.713   4.564  0.5982 -1.0332  0.2795
 3203SOL    HW110508   4.619   0.770   4.526  1.8213 -2.2409  0.7119
 3203SOL    HW210509   4.469   0.712   4.501  1.1259 -0.0743 -0.4137
 3204SOL     OW10510   1.563   0.163   1.098  0.6676  0.6161 -0.1687
 3204SOL    HW110511   1.613   0.240   1.138  2.0850  0.0122 -0.7134
 3204SOL    HW210512   1.624   0.111   1.039 -0.4429 -0.5576 -0.3251
 3205SOL     OW10513   2.615   0.064   1.143 -0.3557 -0.0820  0.2651
 3205SOL    HW110514   2.623   0.009   1.060 -0.4804 -1.3444  1.0580
 3205SOL    HW210515   2.705   0.071   1.187 -0.7222 -1.6022  1.3417
 3206SOL     OW10516   3.125   0.808   5.831 -0.2883  0.0878  0.2028
 3206SOL    HW110517   3.093   0.792   5.925  0.1221  1.7830  0.6750
 3206SOL    HW210518   3.060   0.868   5.784 -0.4415 -0.6742 -0.5823
 3207SOL     OW10519   6.862   1.443   0.011  0.1251  0.4494  0.0134
 3207SOL    HW110520   6.950   1.476   0.044 -0.2087 -1.6052  3.4666
 3207SOL    HW210521   6.788   1.482   0.066 -0.7100 -1.2200  0.1430
 3208SOL     OW10522   6.857   0.213   3.383 -0.5095  0.6523 -0.3714
 3208SOL    HW110523   6.855   0.287   3.315 -2.8194 -0.0380 -1.1407
 3208SOL    HW210524   6.858   0.252   3.475 -0.1921  1.6126 -0.7693
 3209SOL     OW10525   5.735   2.528   5.276 -0.0978 -0.5437  0.4498
 3209SOL    HW110526   5.819   2.566   5.238  0.2447 -1.5698  0.1395
 3209SOL    HW210527   5.756   2.481   5.362 -0.3017 -1.0231  0.2402
 3210SOL     OW10528   2.211   1.672   5.383 -0.1185 -0.3756  0.7652
 3210SOL    HW110529   2.117   1.700   5.400 -0.6667 -1.3757 -0.3951
 3210SOL    HW210530   2.213   1.573   5.365  0.9614 -0.1532 -0.4583
 3211SOL     OW10531   6.051   5.327   4.866 -0.8573 -0.5561 -0.5976
 3211SOL    HW110532   5.971   5.280   4.829  0.5038 -2.6159 -1.1219
 3211SOL    HW210533   6.134   5.276   4.840  0.4834  0.3609  1.6187
 3212SOL     OW10534   2.060   4.034   5.497  0.3910  0.1516 -0.3828
 3212SOL    HW110535   2.134   4.077   5.445 -0.3275  1.3940 -0.4284
 3212SOL    HW210536   1.981   4.020   5.438  1.0794 -2.6787 -0.7617
 3213SOL     OW10537   4.647   4.670   2.603 -0.5808 -0.2704 -0.1882
 3213SOL    HW110538   4.709   4.654   2.680 -1.5996 -0.0202  0.7126
 3213SOL    HW210539   4.642   4.588   2.547 -0.3016 -0.6671  0.3610
 3214SOL     OW10540   3.023   3.787   2.688  0.1454 -0.0080  0.2065
 3214SOL    HW110541   3.070   3.758   2.605 -0.0232 -1.1351  0.4919
 3214SOL    HW210542   3.002   3.707   2.744  1.5187  0.8355  2.0194
 3215SOL     OW10543   0.309   6.964   6.128  0.7436  0.0639  0.3449
 3215SOL    HW110544   0.402   7.001   6.131  0.7982  0.1185 -1.1658
 3215SOL    HW210545   0.256   7.014   6.060 -0.0603 -0.7102  0.3862
 3216SOL     OW10546   5.870   6.675   3.273  0.3646 -0.2488  0.2395
 3216SOL    HW110547   5.829   6.585   3.288 -0.3432  0.1066  0.4668
 3216SOL    HW210548   5.876   6.724   3.360  0.6232 -0.0182  0.0948
 3217SOL     OW10549   2.584   1.996   5.577  0.4904 -0.2225 -0.5695
 3217SOL    HW110550   2.485   1.989   5.568  0.2758  2.2096 -0.8179
 3217SOL    HW210551   2.622   2.039   5.494  1.5389  0.3527  0.1816
 3218SOL     OW10552   0.466   1.790   6.246 -0.8421  0.3438 -0.1825
 3218SOL    HW110553   0.472   1.739   6.332 -1.5240  2.0247  0.9316
 3218SOL    HW210554   0.408   1.871   6.260 -0.3546  1.0576 -2.0398
 3219SOL     OW10555   1.420   3.463   5.683 -0.5402  0.2394 -0.7559
 3219SOL    HW110556   1.406   3.491   5.778  1.9186  0.3760 -0.3715
 3219SOL    HW210557   1.402   3.365   5.674 -1.6001  0.3847 -0.3680
 3220SOL     OW10558   2.773   0.638   3.128  0.1033  0.5237  0.0344
 3220SOL    HW110559   2.728   0.688   3.055 -0.4624  0.1736  0.1389
 3220SOL    HW210560   2.744   0.673   3.217 -2.1880 -1.5001  0.1903
 3221SOL     OW10561   5.084   4.159   4.735  0.1723  0.3921  0.1514
 3221SOL    HW110562   5.141   4.133   4.657 -0.3827  0.3446 -0.2363
 3221SOL    HW210563   5.079   4.081   4.799 -1.9394 -0.7314 -1.2730
 3222SOL     OW10564   1.468   4.209   4.856  0.3604  0.6793 -0.2153
 3222SOL    HW110565   1.497   4.262   4.777  0.3496  0.9771 -0.0190
 3222SOL    HW210566   1.369   4.219   4.868  0.4795  1.2918  0.3173
 3223SOL     OW10567   4.319   5.594   1.110  0.4306  0.6965 -0.1650
 3223SOL    HW110568   4.264   5.649   1.174  0.4918  0.2274  0.2940
 3223SOL    HW210569   4.269   5.511   1.086  0.0101  1.2882 -1.4546
 3224SOL     OW10570   4.881   3.568   2.015 -0.5593 -0.1013  0.0937
 3224SOL    HW110571   4.813   3.556   1.942 -1.3322  0.9830  0.6192
 3224SOL    HW210572   4.970   3.537   1.982 -0.8857  0.3943 -1.3174
 3225SOL     OW10573   5.108   2.537   4.708 -0.2455 -0.0000 -0.5613
 3225SOL    HW110574   5.204   2.509   4.697 -0.6355 -1.8148  0.2173
 3225SOL    HW210575   5.095   2.627   4.667  2.1189  0.9525  0.5577
 3226SOL     OW10576   3.742   5.362   6.911 -0.5326 -0.2540 -0.1142
 3226SOL    HW110577   3.687   5.320   6.839 -2.4062  1.2466  0.3306
 3226SOL    HW210578   3.733   5.310   6.996 -0.8391 -0.3275 -0.1919
 3227SOL     OW10579   4.285   2.187   3.216  0.1813 -0.6104  0.0924
 3227SOL    HW110580   4.286   2.240   3.301  2.0314  1.1512 -0.9390
 3227SOL    HW210581   4.249   2.095   3.235 -2.2198  0.6248  2.1405
 3228SOL     OW10582   5.953   4.637   2.300  0.1505  0.1854  0.3874
 3228SOL    HW110583   6.037   4.594   2.334  0.3596  0.5523  0.3390
 3228SOL    HW210584   5.904   4.679   2.376 -0.8794 -1.5007  0.7085
 3229SOL     OW10585   5.772   3.073   2.064 -0.1259 -0.2042  0.0615
 3229SOL    HW110586   5.792   2.980   2.094 -0.4617 -0.7800 -1.4186
 3229SOL    HW210587   5.839   3.101   1.996 -0.4861  0.3382 -0.0770
 3230SOL     OW10588   3.280   0.920   6.310  0.0505 -0.2049 -0.0690
 3230SOL    HW110589   3.356   0.903   6.247 -0.4066  0.7244 -0.9113
 3230SOL    HW210590   3.230   0.835   6.326 -0.2546 -0.3408 -1.5646
 3231SOL     OW10591   2.544   5.829   3.436  0.3560  0.2155 -0.0103
 3231SOL    HW110592   2.527   5.884   3.518 -0.2415  0.8962 -0.5658
 3231SOL    HW210593   2.523   5.885   3.355  2.8303  0.2319 -0.6956
 3232SOL     OW10594   6.511   5.773   3.013 -0.3427  0.3074 -0.6993
 3232SOL    HW110595   6.499   5.687   2.963  0.0680  0.0723 -0.4027
 3232SOL    HW210596   6.426   5.825   3.010 -0.6562 -0.1931 -0.7352
 3233SOL     OW10597   0.309   5.054   2.449  0.0756 -0.0979  0.2179
 3233SOL    HW110598   0.243   4.979   2.439 -0.1439  0.0654  0.4084
 3233SOL    HW210599   0.392   5.033   2.397 -0.0694 -0.3725  0.0925
 3234SOL     OW10600   6.690   1.715   5.741  0.1498  0.4347 -0.3524
 3234SOL    HW110601   6.625   1.752   5.675 -1.4576 -1.3517  0.1330
 3234SOL    HW210602   6.650   1.636   5.786  2.5729 -0.5685  0.2104
 3235SOL     OW10603   6.216   4.391   3.019 -0.2141  0.0232  0.1042
 3235SOL    HW110604   6.257   4.425   2.935  0.4469 -1.0299 -0.0218
 3235SOL    HW210605   6.156   4.314   2.997 -1.5504  0.9563  0.3939
 3236SOL     OW10606   3.378   3.505   5.450 -0.1395 -0.4213  0.6289
 3236SOL    HW110607   3.303   3.514   5.384 -0.3452  0.7014  0.9934
 3236SOL    HW210608   3.364   3.569   5.525  1.2217 -0.1566  0.6850
 3237SOL     OW10609   1.489   5.513   5.919  0.4506  0.0919  0.1618
 3237SOL    HW110610   1.576   5.562   5.925  0.0491  0.7294  1.0976
 3237SOL    HW210611   1.417   5.576   5.890 -0.2718  0.3918  2.3735
 3238SOL     OW10612   6.000   3.102   2.372 -0.2268  0.2497  0.0882
 3238SOL    HW110613   6.040   3.074   2.284 -0.5494  0.7751 -0.2323
 3238SOL    HW210614   6.073   3.117   2.438  0.0696  0.6045 -0.3131
 3239SOL     OW10615   1.870   4.194   5.658 -0.1057 -0.5665 -0.0348
 3239SOL    HW110616   1.873   4.282   5.611  0.4968  0.3421  1.6483
 3239SOL    HW210617   1.940   4.134   5.619  0.5601  0.2562 -0.1394
 3240SOL     OW10618   0.769   0.921   6.199 -0.2603  0.0007  0.5750
 3240SOL    HW110619   0.734   0.844   6.253 -0.3886 -0.8118 -0.6299
 3240SOL    HW210620   0.864   0.904   6.175 -0.1903  0.3781  0.5854
 3241SOL     OW10621   3.491   6.802   0.759 -1.0267  0.0247  0.9439
 3241SOL    HW110622   3.591   6.799   0.762 -0.9852  0.3148  0.0479
 3241SOL    HW210623   3.456   6.828   0.849 -0.2515  0.8514  1.0191
 3242SOL     OW10624   1.795   1.395   5.169  0.1045 -0.4333 -0.7258
 3242SOL    HW110625   1.862   1.431   5.105  0.4566 -0.5352 -0.4206
 3242SOL    HW210626   1.769   1.303   5.141  1.1356 -0.9388 -0.0874
 3243SOL     OW10627   3.963   6.282   0.087 -0.4595 -0.2959 -1.0705
 3243SOL    HW110628   4.044   6.341   0.081 -1.2796  0.8599 -1.1128
 3243SOL    HW210629   3.885   6.329   0.046 -1.6597 -0.4917  0.8890
 3244SOL     OW10630   2.467   3.253   6.287  0.0548 -0.4586 -0.3968
 3244SOL    HW110631   2.511   3.256   6.197  0.1481  1.7861 -0.3264
 3244SOL    HW210632   2.497   3.332   6.341  0.0176 -1.7751  1.6369
 3245SOL     OW10633   1.304   3.238   4.562 -0.0686 -0.5148 -0.6211
 3245SOL    HW110634   1.295   3.145   4.529 -0.8180 -1.0329  0.9266
 3245SOL    HW210635   1.349   3.237   4.652 -0.2314  0.5949 -0.5116
 3246SOL     OW10636   2.088   5.913   4.052  0.7069  0.2419 -0.0496
 3246SOL    HW110637   2.051   5.957   4.134  3.6857 -1.8525  2.7009
 3246SOL    HW210638   2.017   5.859   4.008 -0.6927  0.2129  2.1100
 3247SOL     OW10639   7.009   1.225   5.106 -0.2932 -0.2405 -0.3352
 3247SOL    HW110640   7.001   1.269   5.195  2.2817 -1.1545  0.4284
 3247SOL    HW210641   7.021   1.294   5.035  1.2590  0.4322  0.5299
 3248SOL     OW10642   4.276   6.364   2.386  0.0038  0.1815 -0.5331
 3248SOL    HW110643   4.218   6.283   2.379  1.2378 -0.7960  0.3323
 3248SOL    HW210644   4.237   6.437   2.330 -2.7503 -0.0178  0.9584
 3249SOL     OW10645   2.362   6.974   0.633 -0.0636 -0.0300  0.1838
 3249SOL    HW110646   2.399   6.894   0.586  0.9239 -0.3773  1.4894
 3249SOL    HW210647   2.266   6.960   0.653 -0.1464 -0.4585 -0.4778
 3250SOL     OW10648   0.923   5.195   5.418 -0.4824  0.4314 -0.3769
 3250SOL    HW110649   0.979   5.198   5.501 -0.4904  0.8925 -0.3837
 3250SOL    HW210650   0.829   5.221   5.440 -0.1234  2.2545 -0.8097
 3251SOL     OW10651   4.838   0.137   2.084  0.4980  0.6977 -0.4899
 3251SOL    HW110652   4.927   0.178   2.062  1.4925 -1.0560  0.0631
 3251SOL    HW210653   4.850   0.039   2.100 -1.7106  0.2433 -1.3049
 3252SOL     OW10654   4.623   1.287   4.251  0.2358 -0.3946 -0.9190
 3252SOL    HW110655   4.586   1.268   4.160 -0.4000 -0.3505 -0.6768
 3252SOL    HW210656   4.556   1.261   4.321  0.5180  0.0276 -0.4782
 3253SOL     OW10657   0.547   2.556   0.129 -0.0037 -0.0008 -0.1732
 3253SOL    HW110658   0.497   2.638   0.099  1.4963 -0.0207 -3.1436
 3253SOL    HW210659   0.482   2.480   0.140 -0.8761  0.1637 -3.1498
 3254SOL     OW10660   5.798   6.271   3.884  0.3475  0.1267 -0.5776
 3254SOL    HW110661   5.784   6.353   3.940 -0.4264 -0.9828  0.9083
 3254SOL    HW210662   5.721   6.259   3.821  0.7013  0.7849 -1.1528
 3255SOL     OW10663   5.684   4.270   4.452  0.2538 -0.4120 -0.0371
 3255SOL    HW110664   5.784   4.274   4.457  0.3136 -1.9679  0.3331
 3255SOL    HW210665   5.645   4.299   4.540  0.3832 -0.1375 -0.0695
 3256SOL     OW10666   2.734   0.243   0.043  0.5598  0.1987  0.6334
 3256SOL    HW110667   2.805   0.220   0.110 -0.3362  1.3656  2.0394
 3256SOL    HW210668   2.685   0.325   0.073 -0.5997  0.1192 -0.9163
 3257SOL     OW10669   1.639   4.540   2.498 -0.0729 -0.1797  0.3333
 3257SOL    HW110670   1.694   4.519   2.579  0.0963  1.2037  0.6031
 3257SOL    HW210671   1.588   4.625   2.514 -1.7639 -1.0638 -0.1731
 3258SOL     OW10672   5.693   0.632   1.650  0.4345  0.1420  0.1468
 3258SOL    HW110673   5.685   0.534   1.627 -0.3849  0.3844 -0.6508
 3258SOL    HW210674   5.783   0.649   1.691  0.6753 -0.9031  0.0887
 3259SOL     OW10675   1.981   3.649   5.651  0.1170  0.2640  0.2758
 3259SOL    HW110676   1.917   3.639   5.728 -3.3529  1.7486 -2.1720
 3259SOL    HW210677   2.039   3.730   5.666  0.8876 -0.5597  2.0997
 3260SOL     OW10678   0.859   2.688   0.139  0.0593 -0.3352  0.5691
 3260SOL    HW110679   0.760   2.677   0.155  0.1416 -1.6002  0.3485
 3260SOL    HW210680   0.891   2.770   0.187 -0.8807 -0.5418  1.6208
 3261SOL     OW10681   3.821   0.842   1.952  0.1597  0.1323 -0.5047
 3261SOL    HW110682   3.860   0.752   1.968 -2.1013 -1.1782 -1.7843
 3261SOL    HW210683   3.809   0.889   2.040  0.0996 -1.4038  0.3507
 3262SOL     OW10684   1.468   3.898   1.155  0.3440 -0.1748  0.3318
 3262SOL    HW110685   1.420   3.817   1.189  0.3150 -1.3209 -2.2364
 3262SOL    HW210686   1.559   3.871   1.123 -0.0497  0.5612 -1.5301
 3263SOL     OW10687   6.292   4.737   3.732 -0.1004  0.2520  0.0816
 3263SOL    HW110688   6.325   4.776   3.818  0.3149  0.3740 -0.1285
 3263SOL    HW210689   6.331   4.646   3.720  1.9804  1.2309 -1.2100
 3264SOL     OW10690   4.365   0.987   1.257 -0.5296 -0.5336  0.4816
 3264SOL    HW110691   4.314   1.006   1.340  0.2607  0.0417  0.8527
 3264SOL    HW210692   4.355   1.064   1.194  1.1343  0.3319  1.2079
 3265SOL     OW10693   2.233   0.797   6.848 -0.1213 -0.0733  0.6289
 3265SOL    HW110694   2.162   0.738   6.887  1.3173 -1.5077  1.1588
 3265SOL    HW210695   2.211   0.817   6.752 -1.5947  0.1180  0.9830
 3266SOL     OW10696   4.726   4.315   0.160  0.2815 -0.1599 -0.0852
 3266SOL    HW110697   4.789   4.367   0.103  1.6768 -1.9529 -0.2710
 3266SOL    HW210698   4.773   4.285   0.243 -0.4747 -1.1050  0.0237
 3267SOL     OW10699   1.386   0.381   1.572 -0.5516 -0.3249  0.4186
 3267SOL    HW110700   1.324   0.460   1.574  0.3307  0.4553 -1.0659
 3267SOL    HW210701   1.336   0.300   1.601 -1.7025  0.6265  1.2387
 3268SOL     OW10702   5.081   4.612   4.527  0.0916  0.2614  0.0968
 3268SOL    HW110703   5.131   4.695   4.551  0.4947 -0.2276  0.9749
 3268SOL    HW210704   5.024   4.583   4.604 -1.9644  1.0714 -1.0354
 3269SOL     OW10705   6.582   5.401   2.329  0.3095 -0.5750  0.1038
 3269SOL    HW110706   6.594   5.352   2.415  3.3140  1.5269  1.0508
 3269SOL    HW210707   6.491   5.443   2.327 -0.1584 -1.3972  1.8267
 3270SOL     OW10708   4.243   0.860   4.223 -0.4060  0.5341  0.1481
 3270SOL    HW110709   4.218   0.921   4.298 -0.7209  0.4790  0.0902
 3270SOL    HW210710   4.322   0.897   4.174 -1.3665  1.5543 -0.6736
 3271SOL     OW10711   1.869   6.705   0.159 -0.4109 -0.1466 -0.0422
 3271SOL    HW110712   1.864   6.612   0.122  0.1356 -1.1300  2.2167
 3271SOL    HW210713   1.959   6.744   0.138  0.0940 -0.8966  0.6655
 3272SOL     OW10714   1.705   1.764   5.563 -0.0945 -0.1937  0.0999
 3272SOL    HW110715   1.746   1.790   5.651 -1.6136  3.3978 -0.0921
 3272SOL    HW210716   1.605   1.759   5.573 -0.2563 -0.1506 -1.3191
 3273SOL     OW10717   1.182   1.120   4.339 -0.1483  0.5594 -0.4217
 3273SOL    HW110718   1.109   1.059   4.310 -0.1041  0.2471  0.1243
 3273SOL    HW210719   1.181   1.130   4.438 -0.0337  1.2923 -0.4870
 3274SOL     OW10720   2.181   4.185   5.716 -0.0195  0.2918 -0.2935
 3274SOL    HW110721   2.128   4.194   5.632 -0.0876  0.7790 -0.2000
 3274SOL    HW210722   2.167   4.266   5.773 -1.3480 -0.7945  0.9853
 3275SOL     OW10723   3.034   2.101   1.883  0.1171  0.2842  0.1809
 3275SOL    HW110724   3.040   2.115   1.982 -0.4569  0.0664  0.2560
 3275SOL    HW210725   2.938   2.105   1.855  0.0664 -1.6292 -0.0515
 3276SOL     OW10726   2.875   5.364   1.000 -0.4048  0.1989  0.3939
 3276SOL    HW110727   2.861   5.274   0.957  1.2371  1.5068 -3.2614
 3276SOL    HW210728   2.786   5.408   1.013 -1.0906 -1.0891  0.2792
 3277SOL     OW10729   0.616   2.194   1.803  0.0216  0.4331  0.5523
 3277SOL    HW110730   0.703   2.234   1.831  0.2214  1.2701 -1.1706
 3277SOL    HW210731   0.618   2.172   1.705 -1.8558  0.9094  0.3600
 3278SOL     OW10732   6.305   6.682   1.610  0.1277 -0.0133 -0.5935
 3278SOL    HW110733   6.394   6.639   1.620  1.1969  2.1392 -0.3126
 3278SOL    HW210734   6.256   6.678   1.698 -0.3897 -1.7817 -0.9192
 3279SOL     OW10735   1.888   0.058   1.159  0.0102  0.3134 -0.3732
 3279SOL    HW110736   1.978   0.050   1.118  0.7328  2.0154  0.7493
 3279SOL    HW210737   1.895   0.046   1.258 -0.7589  1.6105 -0.1311
 3280SOL     OW10738   5.118   5.935   2.883  0.0920 -0.0694 -0.6517
 3280SOL    HW110739   5.063   5.982   2.951 -0.0219 -0.2893 -0.5913
 3280SOL    HW210740   5.071   5.938   2.794 -0.2893 -0.7359 -0.4829
 3281SOL     OW10741   6.589   3.541   4.168 -0.0904 -0.0181 -0.1359
 3281SOL    HW110742   6.622   3.603   4.238  2.1963  1.4657 -2.3725
 3281SOL    HW210743   6.578   3.449   4.207 -3.4853  1.5397  3.2309
 3282SOL     OW10744   3.006   0.831   2.950 -0.4450 -0.2468  0.8559
 3282SOL    HW110745   2.920   0.876   2.976  0.2106  1.1134  0.7722
 3282SOL    HW210746   3.039   0.775   3.026 -0.6588  0.4051  1.4388
 3283SOL     OW10747   1.970   3.483   0.000  0.0996 -0.2929  0.2753
 3283SOL    HW110748   2.015   3.545   0.064  1.0356 -1.8274  1.1725
 3283SOL    HW210749   1.986   3.514  -0.093  1.1366  0.4220  0.6735
 3284SOL     OW10750   1.352   6.382   2.700  0.0207 -0.0538  0.1831
 3284SOL    HW110751   1.312   6.418   2.615  1.8110  0.1173 -0.6546
 3284SOL    HW210752   1.405   6.300   2.679 -0.8700 -0.9978  1.4558
 3285SOL     OW10753   4.177   6.802   1.495  0.2572 -0.0402  0.3780
 3285SOL    HW110754   4.123   6.730   1.538  1.8132 -1.9048 -0.6517
 3285SOL    HW210755   4.154   6.808   1.398  0.6030  0.4027  0.3182
 3286SOL     OW10756   2.527   4.103   0.828 -0.0902 -0.2016  0.6376
 3286SOL    HW110757   2.548   4.009   0.857  0.1546 -0.4790 -0.3868
 3286SOL    HW210758   2.533   4.109   0.728  0.7793  1.1155  0.7464
 3287SOL     OW10759   6.048   6.377   2.248  0.4171  0.4444 -0.1732
 3287SOL    HW110760   5.974   6.440   2.271 -1.2490 -2.0349  1.8817
 3287SOL    HW210761   6.120   6.426   2.200 -1.1766  3.6249  0.4081
 3288SOL     OW10762   4.128   6.953   0.525 -0.2095  0.0591 -0.0792
 3288SOL    HW110763   4.223   6.924   0.512 -0.3480 -0.1881 -0.5869
 3288SOL    HW210764   4.102   6.941   0.620 -0.1670 -1.2208 -0.2152
 3289SOL     OW10765   5.712   6.020   0.270 -0.5143  0.3468  0.1103
 3289SOL    HW110766   5.774   5.941   0.270  1.1037  1.4811 -2.4700
 3289SOL    HW210767   5.672   6.031   0.361  3.0723 -0.5236  1.9962
 3290SOL     OW10768   2.231   3.002   0.170  0.3894  0.1556  0.2482
 3290SOL    HW110769   2.253   2.997   0.073 -0.8439 -0.4628 -0.0117
 3290SOL    HW210770   2.313   3.027   0.221  0.7985  1.5833 -1.0516
 3291SOL     OW10771   2.016   1.768   6.392  0.0528  0.4608  1.0285
 3291SOL    HW110772   2.052   1.686   6.436  0.2212 -0.3613 -0.5728
 3291SOL    HW210773   1.918   1.755   6.373 -0.1292  0.9965  1.5793
 3292SOL     OW10774   1.565   1.799   1.086 -0.6909  0.2262 -0.5461
 3292SOL    HW110775   1.642   1.760   1.035 -0.2952  1.5164 -0.9734
 3292SOL    HW210776   1.596   1.880   1.136 -1.3409 -0.3616  0.8637
 3293SOL     OW10777   3.958   6.607   6.408  0.2916 -0.4509  0.1853
 3293SOL    HW110778   4.038   6.571   6.457  0.6850 -3.2836 -2.2839
 3293SOL    HW210779   3.984   6.691   6.360  2.4034 -2.1437 -1.8748
 3294SOL     OW10780   5.398   0.819   1.617  0.4796 -0.2191 -0.0039
 3294SOL    HW110781   5.344   0.736   1.629  1.3055 -0.7793 -0.1399
 3294SOL    HW210782   5.495   0.797   1.614  0.6344  0.4730 -2.1414
 3295SOL     OW10783   6.413   0.106   1.133  0.4825  0.0482  0.1987
 3295SOL    HW110784   6.446   0.198   1.152  1.3281  0.1417 -1.5141
 3295SOL    HW210785   6.489   0.041   1.143 -0.3712 -0.6705  2.5502
 3296SOL     OW10786   4.161   1.271   5.350  0.8019 -0.2342 -0.0030
 3296SOL    HW110787   4.114   1.333   5.413  3.0357 -1.1496  2.7622
 3296SOL    HW210788   4.099   1.247   5.275 -1.7944  1.4429  1.4362
 3297SOL     OW10789   1.778   2.940   2.820  0.6106 -0.4926 -0.0635
 3297SOL    HW110790   1.680   2.947   2.837  0.4591 -1.6927 -0.3261
 3297SOL    HW210791   1.823   3.025   2.845 -0.6642  0.5053 -1.0485
 3298SOL     OW10792   4.206   4.057   0.330 -0.0860  0.3548 -0.0891
 3298SOL    HW110793   4.295   4.019   0.308  0.1179  0.5817  0.3365
 3298SOL    HW210794   4.151   4.066   0.246  0.5970  1.0273 -0.4739
 3299SOL     OW10795   2.234   6.155   0.415  0.0179  0.2858 -0.1942
 3299SOL    HW110796   2.295   6.121   0.487  1.2434  0.5977 -1.0540
 3299SOL    HW210797   2.205   6.079   0.358  2.0892  0.4775 -1.6133
 3300SOL     OW10798   6.729   2.407   2.424  0.4327 -0.2442 -0.2855
 3300SOL    HW110799   6.714   2.389   2.522  1.3056 -1.5140 -0.3588
 3300SOL    HW210800   6.649   2.453   2.386 -1.3185 -2.5964  0.3215
 3301SOL     OW10801   6.359   6.307   4.170  0.0315 -0.2801  0.2936
 3301SOL    HW110802   6.406   6.245   4.232  1.9669 -0.3645 -1.1534
 3301SOL    HW210803   6.364   6.271   4.077  0.7610  1.7444 -0.5201
 3302SOL     OW10804   1.269   4.006   2.359 -0.1288 -0.0915 -0.0221
 3302SOL    HW110805   1.320   3.937   2.307 -3.2616 -1.9775 -0.9247
 3302SOL    HW210806   1.174   4.006   2.329 -0.3837  4.7237 -0.0008
 3303SOL     OW10807   5.071   1.603   4.636  0.1170 -0.2272  0.0018
 3303SOL    HW110808   5.039   1.525   4.689  0.7528 -0.4076  0.1246
 3303SOL    HW210809   5.163   1.628   4.665  0.8232 -0.8554 -1.5888
 3304SOL     OW10810   6.065   2.330   3.573 -0.1788 -0.1067  0.0376
 3304SOL    HW110811   6.151   2.377   3.588  1.0155 -2.0269 -0.4372
 3304SOL    HW210812   6.077   2.259   3.504 -2.7795  1.2195 -1.9443
 3305SOL     OW10813   0.142   1.091   4.323 -0.0882  0.0168  0.7797
 3305SOL    HW110814   0.140   0.992   4.328 -0.5905  0.0737  2.2620
 3305SOL    HW210815   0.119   1.121   4.231  1.7012 -1.2656 -0.1287
 3306SOL     OW10816   1.523   4.036   5.682  0.1263  1.4076 -0.2269
 3306SOL    HW110817   1.618   4.005   5.683 -0.6535 -1.3220  1.2916
 3306SOL    HW210818   1.474   3.989   5.609 -0.7430  0.1124  1.1254
 3307SOL     OW10819   2.006   1.617   2.937 -0.1237 -0.4443  0.4045
 3307SOL    HW110820   1.975   1.525   2.961 -1.1142 -0.3047 -0.3006
 3307SOL    HW210821   1.971   1.682   3.005 -0.3129 -0.4482  0.3102
 3308SOL     OW10822   0.739   3.878   4.619 -0.3253  0.0529 -0.2392
 3308SOL    HW110823   0.701   3.798   4.666  1.6060 -0.4615  0.5732
 3308SOL    HW210824   0.756   3.951   4.685  1.1560 -0.1830 -0.3158
 3309SOL     OW10825   3.568   2.968   4.171 -0.0737  0.0020 -0.3068
 3309SOL    HW110826   3.521   2.933   4.252  0.0508 -0.8067 -0.5772
 3309SOL    HW210827   3.545   3.065   4.158 -1.4015 -0.2926 -0.2600
 3310SOL     OW10828   2.474   4.510   4.488 -0.0274 -0.1545 -0.0760
 3310SOL    HW110829   2.556   4.534   4.542  0.9734  0.1603 -1.6665
 3310SOL    HW210830   2.422   4.440   4.537 -0.1209  1.3335  2.1244
 3311SOL     OW10831   6.115   6.258   5.712  0.0538 -0.4619  0.0733
 3311SOL    HW110832   6.064   6.227   5.793 -1.4082  1.5880  0.0345
 3311SOL    HW210833   6.059   6.243   5.631  0.0098  0.7262 -0.1232
 3312SOL     OW10834   6.877   6.369   4.873 -0.1793 -0.6032 -0.9314
 3312SOL    HW110835   6.891   6.305   4.797  1.8193 -1.2322 -0.1105
 3312SOL    HW210836   6.961   6.374   4.928 -0.4229  2.3702 -0.6666
 3313SOL     OW10837   4.873   5.376   0.242  0.6137 -0.0299 -0.0128
 3313SOL    HW110838   4.945   5.381   0.311  0.8924  0.8851 -0.3637
 3313SOL    HW210839   4.810   5.302   0.266  1.2909 -0.4030  0.6536
 3314SOL     OW10840   0.939   2.609   3.442  0.1047  0.7045  0.6432
 3314SOL    HW110841   0.943   2.545   3.365 -0.3314  1.9958 -0.4813
 3314SOL    HW210842   1.011   2.587   3.507  0.2217 -0.6721  0.0822
 3315SOL     OW10843   3.506   6.527   1.392  0.0532 -0.4557  0.8810
 3315SOL    HW110844   3.508   6.590   1.470 -1.1766  0.5309  0.1609
 3315SOL    HW210845   3.414   6.488   1.383 -0.2462  0.5404 -0.8729
 3316SOL     OW10846   0.189   5.930   1.591  0.6238 -0.4553 -0.1856
 3316SOL    HW110847   0.174   5.927   1.492  0.6031  1.4328 -0.2724
 3316SOL    HW210848   0.111   5.975   1.635  1.7649  1.0258  0.3876
 3317SOL     OW10849   1.294   1.433   1.104 -0.0705  0.0938  0.5216
 3317SOL    HW110850   1.288   1.425   1.203  1.2652 -1.6502  0.5084
 3317SOL    HW210851   1.339   1.519   1.080 -1.5948  1.1603  1.3459
 3318SOL     OW10852   2.301   4.444   4.839  0.0137  0.3989 -0.0337
 3318SOL    HW110853   2.256   4.370   4.888  2.3818 -0.1390  1.5253
 3318SOL    HW210854   2.312   4.419   4.743  3.0365 -2.6095  0.8975
 3319SOL     OW10855   6.602   6.713   1.208 -0.1189  0.0810 -0.2561
 3319SOL    HW110856   6.660   6.632   1.217 -1.5925 -1.0591 -0.7618
 3319SOL    HW210857   6.593   6.757   1.297  1.6470  0.4106 -0.1940
 3320SOL     OW10858   4.958   1.019   2.191  0.7111 -0.5095  0.5472
 3320SOL    HW110859   5.040   1.048   2.140  1.1503 -0.1431  1.4450
 3320SOL    HW210860   4.986   0.977   2.277 -0.0731  1.0518  1.6035
 3321SOL     OW10861   2.263   2.328   3.532 -0.1789  0.0699  0.2216
 3321SOL    HW110862   2.354   2.371   3.531  0.3138 -0.8770  1.1863
 3321SOL    HW210863   2.230   2.316   3.439  0.4366  0.9475 -0.1181
 3322SOL     OW10864   6.418   0.613   0.866  0.5389  0.5532 -0.1819
 3322SOL    HW110865   6.360   0.626   0.946  0.0548 -0.5614 -0.3232
 3322SOL    HW210866   6.513   0.630   0.890  0.3838  0.3311  0.6114
 3323SOL     OW10867   6.649   6.033   1.543 -0.0144 -0.0513 -0.3483
 3323SOL    HW110868   6.568   5.992   1.501 -0.5519  0.8538 -0.2226
 3323SOL    HW210869   6.725   6.029   1.479 -0.0479 -1.2398 -0.3328
 3324SOL     OW10870   5.051   5.955   5.935  0.0498  0.4743  0.2037
 3324SOL    HW110871   5.056   5.900   5.852  2.2229 -1.3659  1.4422
 3324SOL    HW210872   5.109   6.035   5.926  0.6987 -0.0010  0.1299
 3325SOL     OW10873   1.484   0.874   2.642  0.3138  0.5648 -0.1304
 3325SOL    HW110874   1.571   0.830   2.665  0.0599  0.1633  0.0679
 3325SOL    HW210875   1.431   0.814   2.582  0.0695  0.7006 -0.0514
 3326SOL     OW10876   0.330   4.908   3.471 -0.6338 -0.5263 -0.2042
 3326SOL    HW110877   0.383   4.850   3.409 -0.1852  0.6898 -0.9749
 3326SOL    HW210878   0.245   4.936   3.427 -0.5944 -0.1449 -0.0399
 3327SOL     OW10879   0.823   1.469   0.413  0.1621 -0.0591  0.2009
 3327SOL    HW110880   0.916   1.460   0.377  0.4433  0.2059  0.8478
 3327SOL    HW210881   0.822   1.536   0.487 -0.4455 -0.4483  0.5564
 3328SOL     OW10882   1.927   5.685   1.750 -0.4039 -0.2272 -0.0905
 3328SOL    HW110883   1.969   5.760   1.801 -0.0500 -0.5845  0.1541
 3328SOL    HW210884   1.854   5.721   1.692 -0.1170  0.3272 -0.1158
 3329SOL     OW10885   6.992   6.817   5.110 -0.8946 -0.4100  0.1284
 3329SOL    HW110886   7.034   6.782   5.194  1.6040  0.4326 -0.6567
 3329SOL    HW210887   6.916   6.758   5.083  1.6127 -3.9531  0.1271
 3330SOL     OW10888   0.641   2.012   6.402  0.1547 -0.0068 -0.6959
 3330SOL    HW110889   0.627   2.052   6.493  0.5566  0.0398 -0.6525
 3330SOL    HW210890   0.552   1.996   6.359 -0.0453  2.2828 -1.2997
 3331SOL     OW10891   5.517   3.796   2.633 -0.2520 -0.3363 -0.2971
 3331SOL    HW110892   5.420   3.771   2.634 -0.5092  0.6336  0.1629
 3331SOL    HW210893   5.542   3.829   2.542 -0.1515 -1.3078 -0.6333
 3332SOL     OW10894   4.569   6.097   6.495  0.0213  0.4203 -0.5405
 3332SOL    HW110895   4.639   6.118   6.426  0.3465  0.6833 -0.1320
 3332SOL    HW210896   4.540   6.002   6.485 -1.7240  1.0926 -2.6571
 3333SOL     OW10897   1.882   5.094   6.323  0.5379 -0.4356 -0.3809
 3333SOL    HW110898   1.822   5.174   6.321 -0.2049 -0.6538  4.0341
 3333SOL    HW210899   1.827   5.011   6.331  1.3876 -1.2110 -2.0175
 3334SOL     OW10900   5.268   0.061   5.569  0.0332  0.0775 -0.5075
 3334SOL    HW110901   5.267  -0.000   5.490  0.0271 -0.1567 -0.3282
 3334SOL    HW210902   5.344   0.125   5.561  2.2665 -2.1818  0.9815
 3335SOL     OW10903   0.295   4.314   6.167 -0.2519 -0.5973 -0.3609
 3335SOL    HW110904   0.363   4.298   6.095  0.1135  0.2188 -0.2122
 3335SOL    HW210905   0.306   4.247   6.240  0.3157 -0.5516 -0.4012
 3336SOL     OW10906   4.461   4.046   6.527 -0.8409 -0.5716 -0.2246
 3336SOL    HW110907   4.541   4.094   6.491 -0.1969 -0.6231  1.0878
 3336SOL    HW210908   4.450   3.959   6.478  1.1697 -1.5465  0.8954
 3337SOL     OW10909   1.181   6.993   6.709  0.1196 -0.3956  0.1892
 3337SOL    HW110910   1.232   7.053   6.648 -0.2059  0.5870  0.8732
 3337SOL    HW210911   1.096   7.037   6.737 -0.6639 -1.6219 -0.1647
 3338SOL     OW10912   0.541   4.726   3.406  0.4445  0.2517  0.4910
 3338SOL    HW110913   0.559   4.786   3.328 -1.8760 -0.1673 -0.4411
 3338SOL    HW210914   0.625   4.715   3.460  1.8347  1.3981 -1.3340
 3339SOL     OW10915   6.905   4.801   5.403 -0.2731  0.5052 -0.4250
 3339SOL    HW110916   6.974   4.731   5.420 -0.7436  0.2601  0.5280
 3339SOL    HW210917   6.948   4.891   5.403  0.0570  0.3501  0.1427
 3340SOL     OW10918   5.130   2.528   6.203  0.1031 -0.2507  0.1220
 3340SOL    HW110919   5.152   2.573   6.116  2.3209  0.4624  0.9813
 3340SOL    HW210920   5.117   2.597   6.274 -4.4994 -0.6207 -0.0380
 3341SOL     OW10921   5.771   3.863   6.097 -0.4469 -0.0258 -0.9016
 3341SOL    HW110922   5.719   3.937   6.138  0.3165  0.1529 -0.2254
 3341SOL    HW210923   5.864   3.894   6.076 -0.4021 -0.5213 -1.4936
 3342SOL     OW10924   4.916   1.653   0.281  0.1115  0.1771 -0.3388
 3342SOL    HW110925   4.874   1.573   0.323  0.8989  0.6084  1.3584
 3342SOL    HW210926   4.980   1.623   0.210  0.1559 -0.6732  0.0466
 3343SOL     OW10927   5.186   1.785   2.311  0.1820  0.2297  0.3436
 3343SOL    HW110928   5.277   1.782   2.270 -0.1552 -0.6057 -0.4131
 3343SOL    HW210929   5.136   1.864   2.276 -0.7114 -1.3611 -2.3861
 3344SOL     OW10930   1.703   3.749   1.331 -0.2068 -0.3828 -0.4964
 3344SOL    HW110931   1.772   3.704   1.387  0.3630 -0.2946 -1.1077
 3344SOL    HW210932   1.644   3.806   1.389  0.9022  0.3860 -0.0854
 3345SOL     OW10933   4.851   2.404   4.557 -0.2615 -0.0489  0.5199
 3345SOL    HW110934   4.860   2.355   4.470  0.1084  0.1078  0.4703
 3345SOL    HW210935   4.941   2.434   4.589 -0.1234 -1.7513  1.9091
 3346SOL     OW10936   2.638   4.781   1.988  0.3444 -0.2549 -0.3288
 3346SOL    HW110937   2.702   4.708   1.967 -0.3796 -1.1343  0.4286
 3346SOL    HW210938   2.564   4.745   2.045  0.3176  1.2165  0.6150
 3347SOL     OW10939   1.187   0.196   4.534  0.0233  0.4405 -0.3302
 3347SOL    HW110940   1.266   0.143   4.565  0.3190  0.4821 -1.0049
 3347SOL    HW210941   1.118   0.134   4.496  0.1788  0.4963 -0.7068
 3348SOL     OW10942   5.455   1.983   0.348  0.2359  0.2777  0.5622
 3348SOL    HW110943   5.459   1.966   0.250  0.0146  1.1655  0.3906
 3348SOL    HW210944   5.376   1.935   0.387 -0.5227  1.0947  0.0524
 3349SOL     OW10945   6.352   1.079   1.971 -0.0480  0.1139  0.0929
 3349SOL    HW110946   6.324   0.995   1.926  0.6408  0.4862 -1.0514
 3349SOL    HW210947   6.442   1.107   1.939 -0.9663  2.2169 -0.8823
 3350SOL     OW10948   6.820   1.018   2.032  0.8221 -0.2313 -0.4583
 3350SOL    HW110949   6.877   0.937   2.042  0.7247 -0.5988 -2.4315
 3350SOL    HW210950   6.726   0.996   2.059  0.6945 -0.9615 -1.4140
 3351SOL     OW10951   6.443   5.669   4.200 -0.6430 -0.1567  0.6645
 3351SOL    HW110952   6.364   5.729   4.188 -0.4932 -0.1914 -0.6873
 3351SOL    HW210953   6.526   5.719   4.179 -0.4551 -0.6230  0.2897
 3352SOL     OW10954   0.272   4.548   1.417 -0.0041 -0.6837 -0.2206
 3352SOL    HW110955   0.345   4.482   1.438 -0.1951 -0.6149  0.6987
 3352SOL    HW210956   0.264   4.558   1.318  3.0403  1.2929 -0.3922
 3353SOL     OW10957   4.784   3.991   2.309  0.6205 -0.4620 -0.3681
 3353SOL    HW110958   4.801   3.988   2.408  0.4344 -0.8425 -0.3448
 3353SOL    HW210959   4.805   3.902   2.269 -3.3071 -1.7681  0.0131
 3354SOL     OW10960   5.127   5.758   6.457  0.1600  0.2594 -0.6089
 3354SOL    HW110961   5.146   5.736   6.362 -0.7013 -1.1453 -0.4785
 3354SOL    HW210962   5.191   5.709   6.517  1.6914  2.2833 -0.4611
 3355SOL     OW10963   4.860   1.420   5.804 -0.1950  0.1476  0.3628
 3355SOL    HW110964   4.886   1.452   5.895 -2.0834  0.0785  0.9619
 3355SOL    HW210965   4.912   1.338   5.781 -0.6462 -0.6250  1.9626
 3356SOL     OW10966   1.737   1.555   3.285  0.5997 -0.1134  0.0947
 3356SOL    HW110967   1.660   1.494   3.266  0.9826 -0.5785  0.0109
 3356SOL    HW210968   1.822   1.507   3.267  0.9169  0.3206  0.4175
 3357SOL     OW10969   6.879   2.492   1.157 -0.5866 -0.3138  0.4055
 3357SOL    HW110970   6.950   2.450   1.100 -1.1756  0.7458 -1.1616
 3357SOL    HW210971   6.904   2.586   1.177 -0.6087 -0.5399  1.5513
 3358SOL     OW10972   4.575   1.582   5.213 -0.3167 -0.1345  0.2881
 3358SOL    HW110973   4.480   1.552   5.207 -0.2392 -0.3363  0.0746
 3358SOL    HW210974   4.636   1.505   5.194 -0.0798 -0.4130  2.0764
 3359SOL     OW10975   6.675   6.673   4.200 -0.4806 -0.2048  0.5583
 3359SOL    HW110976   6.744   6.601   4.196 -0.4619 -0.1515 -0.1600
 3359SOL    HW210977   6.689   6.737   4.125 -2.3520 -1.1640 -0.7068
 3360SOL     OW10978   3.711   0.599   5.469 -0.2575  0.4178 -0.4773
 3360SOL    HW110979   3.790   0.564   5.417 -0.4883  1.9047 -1.9129
 3360SOL    HW210980   3.658   0.661   5.411 -1.3006  1.1040  1.1422
 3361SOL     OW10981   2.320   0.711   1.331  0.0383  0.8040  0.1349
 3361SOL    HW110982   2.380   0.773   1.281 -0.0664  0.5502 -0.3136
 3361SOL    HW210983   2.225   0.730   1.307  0.1093 -2.3326 -3.4616
 3362SOL     OW10984   6.495   1.501   3.410 -0.8975 -0.1439 -0.5166
 3362SOL    HW110985   6.560   1.435   3.373  0.8532  0.3476  1.4796
 3362SOL    HW210986   6.501   1.586   3.357  0.9819  0.2778  0.2864
 3363SOL     OW10987   2.761   1.791   1.226  0.2295 -0.2309 -0.1790
 3363SOL    HW110988   2.749   1.722   1.154 -0.3890  0.6818 -0.9649
 3363SOL    HW210989   2.850   1.836   1.214  0.5524 -0.7479  0.2231
 3364SOL     OW10990   5.652   5.361   4.440 -0.5315  0.0954  0.3133
 3364SOL    HW110991   5.639   5.272   4.483  2.5676 -0.8406 -0.3882
 3364SOL    HW210992   5.681   5.348   4.345 -0.3035  1.8539  0.1044
 3365SOL     OW10993   5.086   5.163   5.663  0.0498 -0.0321  0.0230
 3365SOL    HW110994   5.045   5.118   5.742  2.5238  0.4566  1.7116
 3365SOL    HW210995   5.056   5.259   5.659  2.6169  1.0198  2.6696
 3366SOL     OW10996   1.652   5.654   2.266 -0.0891  0.6487 -0.4733
 3366SOL    HW110997   1.621   5.720   2.197 -0.9812  1.5886  0.7680
 3366SOL    HW210998   1.696   5.703   2.341  0.3061 -0.2919 -0.0745
 3367SOL     OW10999   1.951   2.219   3.511  0.7438 -0.4060 -0.0133
 3367SOL    HW111000   2.024   2.151   3.514  1.3410  0.2003 -0.6285
 3367SOL    HW211001   1.937   2.249   3.417  1.3878  1.2871  0.3951
 3368SOL     OW11002   1.618   0.940   4.068  0.4070 -0.8079 -0.5105
 3368SOL    HW111003   1.545   0.917   4.133 -0.6086 -0.4495 -1.4804
 3368SOL    HW211004   1.603   1.032   4.032 -0.5475 -1.8416 -3.0864
 3369SOL     OW11005   3.102   2.266   5.958  0.5251  0.2996  0.0957
 3369SOL    HW111006   3.129   2.360   5.977 -1.2562  0.7523  0.5989
 3369SOL    HW211007   3.166   2.202   6.001 -1.1685  1.2769  4.5957
 3370SOL     OW11008   5.132   1.274   6.770  0.3892 -0.4690 -0.1808
 3370SOL    HW111009   5.186   1.278   6.685 -1.0642  0.3605 -1.1006
 3370SOL    HW211010   5.069   1.196   6.765 -0.5462  0.2877 -0.4107
 3371SOL     OW11011   4.214   6.045   1.613  0.1622 -0.3040  0.0733
 3371SOL    HW111012   4.191   6.128   1.562  1.7158 -0.0087 -0.2193
 3371SOL    HW211013   4.193   5.965   1.558  1.5727  0.0073 -0.9973
 3372SOL     OW11014   6.599   5.834   0.402 -0.5719 -0.3123 -0.0494
 3372SOL    HW111015   6.637   5.922   0.432  0.5682 -0.7628 -0.1284
 3372SOL    HW211016   6.565   5.842   0.308 -1.0276  0.1937  0.1528
 3373SOL     OW11017   4.579   5.515   2.633 -0.2371 -0.0248 -0.4283
 3373SOL    HW111018   4.571   5.570   2.716 -0.8495  1.8745 -1.6652
 3373SOL    HW211019   4.493   5.468   2.615 -0.1323 -0.3652 -0.0453
 3374SOL     OW11020   6.313   6.186   4.749 -0.2139  0.6999  0.4089
 3374SOL    HW111021   6.349   6.219   4.662 -0.8743  0.8716  0.1948
 3374SOL    HW211022   6.260   6.259   4.793 -0.3624  0.4297  0.6839
 3375SOL     OW11023   2.147   4.475   4.346  0.0770 -0.5713 -0.2916
 3375SOL    HW111024   2.077   4.404   4.348  0.6970 -1.2328 -1.3072
 3375SOL    HW211025   2.223   4.446   4.288 -1.4040  2.5608 -4.2910
 3376SOL     OW11026   1.668   2.998   3.952  0.2229 -0.6964  0.1799
 3376SOL    HW111027   1.672   2.915   3.896  0.3630 -1.6940  1.5959
 3376SOL    HW211028   1.713   2.980   4.040  2.4198  1.6274 -0.3719
 3377SOL     OW11029   3.359   5.715   0.087  0.3116 -0.0731 -0.2724
 3377SOL    HW111030   3.396   5.799   0.047 -0.0665 -0.0532 -0.5899
 3377SOL    HW211031   3.352   5.645   0.015 -1.5593  0.3495 -0.5395
 3378SOL     OW11032   4.606   4.741   1.966  0.4499  0.0580 -0.7643
 3378SOL    HW111033   4.688   4.790   1.996 -1.0160  2.8513 -0.8852
 3378SOL    HW211034   4.576   4.679   2.038  0.6215  1.8001  0.8825
 3379SOL     OW11035   3.385   3.528   5.863  0.4096  0.1434 -0.0856
 3379SOL    HW111036   3.391   3.512   5.961  1.8896  1.1900  0.0329
 3379SOL    HW211037   3.476   3.520   5.822 -0.2423 -0.6786 -1.4519
 3380SOL     OW11038   3.245   4.079   0.207  0.1517  0.0986  0.0955
 3380SOL    HW111039   3.249   4.079   0.107  0.9983  0.4403  0.1238
 3380SOL    HW211040   3.176   4.145   0.237 -1.1086 -1.0109 -0.2835
 3381SOL     OW11041   5.315   6.512   6.461 -0.0480 -0.5522  0.8168
 3381SOL    HW111042   5.381   6.575   6.422  0.1102 -0.5991  1.0032
 3381SOL    HW211043   5.357   6.421   6.471  0.0018 -0.4748  1.3355
 3382SOL     OW11044   0.892   1.917   5.062 -0.7554 -0.1698  0.3574
 3382SOL    HW111045   0.901   1.980   4.984  0.7476  0.4401  1.0050
 3382SOL    HW211046   0.800   1.927   5.101 -0.2554  2.3705  1.0582
 3383SOL     OW11047   0.938   1.332   5.247 -0.1618 -0.5835  0.0241
 3383SOL    HW111048   0.901   1.310   5.157 -0.4915 -1.4356  0.3548
 3383SOL    HW211049   0.915   1.426   5.271  2.8791  0.9074 -2.2375
 3384SOL     OW11050   2.362   5.525   6.481  0.6871  0.4184 -0.1436
 3384SOL    HW111051   2.391   5.601   6.540  2.5393 -0.1949 -0.2080
 3384SOL    HW211052   2.355   5.557   6.387 -0.9126  1.0590  0.1569
 3385SOL     OW11053   2.115   2.575   1.528  0.0484 -0.5679 -0.1399
 3385SOL    HW111054   2.089   2.523   1.610  1.8215  1.8367  2.1211
 3385SOL    HW211055   2.153   2.513   1.460 -0.6163 -2.5600  1.2096
 3386SOL     OW11056   2.964   0.554   4.838  0.1437 -0.0312  0.2002
 3386SOL    HW111057   3.006   0.625   4.895  0.4301 -0.2681  0.2899
 3386SOL    HW211058   3.036   0.499   4.795 -0.0656  0.4566 -0.7931
 3387SOL     OW11059   4.271   0.435   1.508 -0.4448 -0.0832 -0.2076
 3387SOL    HW111060   4.321   0.413   1.424 -0.1916  2.5053 -0.7945
 3387SOL    HW211061   4.210   0.513   1.492  1.2606  1.9873  2.5112
 3388SOL     OW11062   2.302   3.254   6.936 -0.1253 -0.5102 -0.4846
 3388SOL    HW111063   2.293   3.309   7.019  1.9226 -0.0315 -0.5183
 3388SOL    HW211064   2.294   3.314   6.856  2.6596 -0.0324 -0.5168
 3389SOL     OW11065   6.302   4.417   3.299  0.2194 -0.4660  0.3796
 3389SOL    HW111066   6.284   4.420   3.200  1.2724  1.5694  0.1854
 3389SOL    HW211067   6.243   4.482   3.346 -1.6263 -2.7336  1.4378
 3390SOL     OW11068   3.111   2.627   0.036  0.1502  0.0307 -0.2834
 3390SOL    HW111069   3.074   2.628   0.129 -2.1079 -0.2140 -1.1250
 3390SOL    HW211070   3.193   2.569   0.034  1.4859  1.6755  1.9341
 3391SOL     OW11071   4.306   1.216   2.985 -0.5474  0.0356 -0.2983
 3391SOL    HW111072   4.223   1.172   2.949 -0.9449  0.6682 -0.1733
 3391SOL    HW211073   4.387   1.170   2.948 -0.9515 -0.0631 -1.0863
 3392SOL     OW11074   5.886   0.348   4.493  0.0528  0.3652 -0.0840
 3392SOL    HW111075   5.860   0.274   4.432  1.6645 -0.1565 -0.1928
 3392SOL    HW211076   5.804   0.391   4.531 -0.9330 -1.4645 -0.0226
 3393SOL     OW11077   4.129   1.800   6.674 -0.2214 -0.0812 -0.0385
 3393SOL    HW111078   4.196   1.745   6.723  0.5226  1.1892  0.4280
 3393SOL    HW211079   4.063   1.838   6.739 -0.1785  0.3231 -0.2291
 3394SOL     OW11080   2.471   4.039   5.599 -0.5667  0.6376 -0.0064
 3394SOL    HW111081   2.415   4.073   5.676 -1.1097 -0.7847  0.2549
 3394SOL    HW211082   2.524   3.960   5.629  1.0566  1.5237 -0.4678
 3395SOL     OW11083   5.361   0.804   0.583  0.9242  0.2112 -0.5640
 3395SOL    HW111084   5.268   0.777   0.610  0.7760 -0.5668 -1.7402
 3395SOL    HW211085   5.359   0.897   0.546  0.0865 -0.6612 -2.9075
 3396SOL     OW11086   3.204   1.075   0.492 -0.3818 -0.5610  1.0215
 3396SOL    HW111087   3.128   1.114   0.441 -0.3062  0.5361  1.7197
 3396SOL    HW211088   3.288   1.081   0.438 -0.5133 -0.4210  0.8334
 3397SOL     OW11089   4.685   3.910   6.350  0.1398 -0.3613 -0.1129
 3397SOL    HW111090   4.753   3.840   6.332 -1.4286 -1.8940 -0.3794
 3397SOL    HW211091   4.720   3.999   6.322  2.0727 -1.0590 -0.0458
 3398SOL     OW11092   6.382   3.759   2.608  0.0249 -0.2882 -0.0821
 3398SOL    HW111093   6.475   3.752   2.573  0.5699 -2.3969  1.5947
 3398SOL    HW211094   6.320   3.783   2.533  1.8071  0.7493 -1.3149
 3399SOL     OW11095   6.881   0.049   5.885 -0.0149 -0.3637  0.3809
 3399SOL    HW111096   6.881  -0.022   5.815 -1.3366  1.4728 -1.6085
 3399SOL    HW211097   6.975   0.078   5.903  0.3103 -0.2299 -1.3513
 3400SOL     OW11098   1.661   3.393   0.749  0.0229  0.1721 -0.1372
 3400SOL    HW111099   1.629   3.300   0.727  0.2546 -0.9532  3.5562
 3400SOL    HW211100   1.737   3.417   0.688  0.3569 -2.3134 -0.8463
 3401SOL     OW11101   5.495   1.101   4.283  0.8199 -0.5557  0.5723
 3401SOL    HW111102   5.579   1.117   4.335  1.5993 -0.7999 -0.5874
 3401SOL    HW211103   5.518   1.064   4.193 -0.4085  1.0268 -0.4453
 3402SOL     OW11104   1.807   1.812   5.814 -0.1351  0.4234 -0.6975
 3402SOL    HW111105   1.886   1.868   5.836  0.8029 -1.1238  0.0707
 3402SOL    HW211106   1.741   1.816   5.889  0.0441  0.3031 -0.5339
 3403SOL     OW11107   0.282   1.036   2.553 -0.2964  0.5226 -0.6258
 3403SOL    HW111108   0.232   0.954   2.581 -0.6696  0.1694 -2.2158
 3403SOL    HW211109   0.271   1.107   2.622 -1.5258 -0.1383 -0.1010
 3404SOL     OW11110   2.268   1.623   4.525  0.3293  0.3209  0.1959
 3404SOL    HW111111   2.334   1.618   4.600  1.8933 -1.1719 -1.1988
 3404SOL    HW211112   2.294   1.697   4.463  1.2342 -0.7951 -0.7962
 3405SOL     OW11113   0.577   3.536   1.411 -0.6073  0.1941 -0.1568
 3405SOL    HW111114   0.572   3.517   1.509 -1.9828  1.5715  0.0829
 3405SOL    HW211115   0.538   3.460   1.360 -1.3059  0.1368  0.4562
 3406SOL     OW11116   2.222   2.961   6.898 -0.4149  0.0666 -0.4023
 3406SOL    HW111117   2.210   3.041   6.839  0.2992  0.0848 -0.5273
 3406SOL    HW211118   2.306   2.913   6.873 -2.1759 -2.3382 -2.1808
 3407SOL     OW11119   1.852   4.633   0.439 -0.2148  0.2011  0.3231
 3407SOL    HW111120   1.946   4.606   0.422 -0.0863  1.0041 -0.2820
 3407SOL    HW211121   1.850   4.701   0.512 -0.5351 -1.3405  1.8253
 3408SOL     OW11122   3.783   2.838   5.703 -0.0579  0.2218  0.0474
 3408SOL    HW111123   3.712   2.887   5.651 -1.5410  0.4444  2.1572
 3408SOL    HW211124   3.868   2.890   5.701 -1.0846  2.0046  0.7368
 3409SOL     OW11125   6.065   3.137   6.637  0.0958  0.0591  0.3651
 3409SOL    HW111126   5.971   3.125   6.607  0.3744  0.6004 -0.8001
 3409SOL    HW211127   6.125   3.076   6.584  0.5295  0.5504  0.2833
 3410SOL     OW11128   6.273   1.214   2.219 -0.4912 -0.0745 -0.4939
 3410SOL    HW111129   6.270   1.153   2.139  1.0548 -0.7073 -0.1226
 3410SOL    HW211130   6.252   1.307   2.191 -1.1135 -0.4815 -1.4246
 3411SOL     OW11131   3.005   2.695   5.386  0.2070 -0.5307  0.3042
 3411SOL    HW111132   3.092   2.645   5.384  0.3580 -0.2986  0.8953
 3411SOL    HW211133   3.017   2.782   5.433 -0.3722 -0.5463  0.4896
 3412SOL     OW11134   0.914   5.299   4.523 -0.0204  0.2717  0.3074
 3412SOL    HW111135   0.831   5.355   4.515  0.9330  1.5960 -0.6782
 3412SOL    HW211136   0.975   5.318   4.447  0.7596 -1.4675  0.4435
 3413SOL     OW11137   1.891   0.905   6.179  0.0107  0.8792 -0.2606
 3413SOL    HW111138   1.969   0.948   6.133  1.0566 -1.8074 -1.2233
 3413SOL    HW211139   1.866   0.821   6.130 -1.6218  0.1370  1.7094
 3414SOL     OW11140   6.238   5.331   3.872  0.5185 -0.0555  0.3307
 3414SOL    HW111141   6.184   5.369   3.796  0.5679  1.1498  0.8784
 3414SOL    HW211142   6.204   5.240   3.895 -1.2634  0.6437  0.6198
 3415SOL     OW11143   3.942   4.826   0.071 -0.1139  0.0840 -0.1583
 3415SOL    HW111144   3.961   4.728   0.070  0.2359  0.0285  2.6329
 3415SOL    HW211145   3.868   4.846   0.006 -0.9418 -2.2086 -0.0329
 3416SOL     OW11146   2.098   0.498   0.474 -0.1017 -0.2410 -0.1548
 3416SOL    HW111147   2.123   0.506   0.571  1.0861  1.7167 -0.5698
 3416SOL    HW211148   2.176   0.466   0.422  0.1744  1.4554 -0.8330
 3417SOL     OW11149   1.163   0.399   2.884  0.1675 -0.5740  0.0198
 3417SOL    HW111150   1.104   0.405   2.964  0.7960  3.0059  0.3560
 3417SOL    HW211151   1.240   0.337   2.904  0.0116 -0.1953  1.9733
 3418SOL     OW11152   0.121   0.942   6.868 -0.7341 -0.7650  0.5761
 3418SOL    HW111153   0.038   0.916   6.918  0.0276 -3.3667  0.6586
 3418SOL    HW211154   0.100   0.950   6.771 -0.8170 -3.4832  0.2749
 3419SOL     OW11155   0.152   6.345   2.483  0.0485  0.2066  0.3338
 3419SOL    HW111156   0.232   6.341   2.543 -0.5645 -0.9901  1.1089
 3419SOL    HW211157   0.074   6.385   2.533 -0.3453 -0.3846  0.2021
 3420SOL     OW11158   4.091   4.216   1.651 -0.3110  0.1739 -0.5849
 3420SOL    HW111159   4.035   4.297   1.667  0.3586  0.4175  0.6613
 3420SOL    HW211160   4.169   4.216   1.715 -0.0348 -1.2027 -0.8899
 3421SOL     OW11161   0.041   2.422   0.063  0.2710 -0.4122  0.1137
 3421SOL    HW111162   0.136   2.447   0.048  0.5870 -1.4016  0.4295
 3421SOL    HW211163   0.031   2.380   0.153 -0.3728 -0.7622 -0.1149
 3422SOL     OW11164   5.326   6.003   2.035 -0.3172 -0.7730 -0.2534
 3422SOL    HW111165   5.257   5.944   2.076  1.0745 -0.9887  1.9503
 3422SOL    HW211166   5.344   6.081   2.096  2.0244 -1.2267 -0.2541
 3423SOL     OW11167   0.047   6.493   6.281  0.2088 -1.2018 -0.1413
 3423SOL    HW111168   0.137   6.479   6.321  0.5169  1.7129  0.4092
 3423SOL    HW211169   0.005   6.575   6.321 -1.9325 -1.4459 -1.6934
 3424SOL     OW11170   3.889   0.327   5.795  0.7568  0.1844 -0.1042
 3424SOL    HW111171   3.952   0.314   5.872  2.5048  1.9260 -1.1405
 3424SOL    HW211172   3.811   0.382   5.824  1.1773  0.4496  0.5395
 3425SOL     OW11173   5.232   0.340   5.042  0.2782  0.0396 -0.1001
 3425SOL    HW111174   5.280   0.309   5.124  0.9338 -0.2501 -0.5766
 3425SOL    HW211175   5.134   0.332   5.055  0.3634  0.4603  0.8299
 3426SOL     OW11176   1.195   4.290   6.019  0.2371 -0.1216 -0.0555
 3426SOL    HW111177   1.233   4.383   6.015 -0.7455  0.4305  1.9504
 3426SOL    HW211178   1.118   4.283   5.957  0.2780  0.4208 -0.1738
 3427SOL     OW11179   0.318   3.632   6.709  0.0898  0.6532  0.3833
 3427SOL    HW111180   0.293   3.729   6.714 -1.8501  0.3696 -1.8889
 3427SOL    HW211181   0.394   3.620   6.645 -1.0611  0.5420 -1.0240
 3428SOL     OW11182   6.680   4.782   0.322 -0.0445 -0.4843 -0.2254
 3428SOL    HW111183   6.713   4.869   0.284 -1.3410 -0.5889 -1.6933
 3428SOL    HW211184   6.754   4.715   0.319  1.3459  0.8279  2.0176
 3429SOL     OW11185   6.868   2.192   4.436 -0.0906  0.4705  0.1270
 3429SOL    HW111186   6.904   2.101   4.459  0.1291  0.6200  0.3723
 3429SOL    HW211187   6.926   2.233   4.366 -0.4312  0.2520 -0.2948
 3430SOL     OW11188   6.768   2.951   4.636 -0.0706  0.3002  0.8091
 3430SOL    HW111189   6.828   2.872   4.628  0.0837  0.4548  0.4174
 3430SOL    HW211190   6.713   2.960   4.552 -0.9097 -0.0572  1.3101
 3431SOL     OW11191   4.817   6.519   1.543  0.1981 -0.4320  0.1240
 3431SOL    HW111192   4.770   6.466   1.472  2.1079 -0.2877 -1.3282
 3431SOL    HW211193   4.890   6.463   1.582  1.6311  0.7463 -0.7755
 3432SOL     OW11194   4.607   0.431   4.806  0.4604 -0.3973  0.1921
 3432SOL    HW111195   4.595   0.395   4.713  1.2266  0.0525 -0.0904
 3432SOL    HW211196   4.689   0.488   4.809 -0.2624  0.6432  0.8292
 3433SOL     OW11197   6.168   4.440   2.225 -0.0917 -0.4081  0.0185
 3433SOL    HW111198   6.096   4.405   2.166 -0.5249 -0.4733  0.5784
 3433SOL    HW211199   6.214   4.365   2.271 -0.3205 -0.3103  0.4120
 3434SOL     OW11200   3.118   6.641   3.393  0.1818 -0.1001 -0.4271
 3434SOL    HW111201   3.098   6.573   3.464 -1.3354  0.5859 -0.1547
 3434SOL    HW211202   3.099   6.732   3.429 -2.0158  0.1915 -2.1186
 3435SOL     OW11203   2.580   6.087   6.045  0.0571  0.0099  0.3245
 3435SOL    HW111204   2.590   6.163   6.109 -0.7368 -0.6685  1.2824
 3435SOL    HW211205   2.584   6.122   5.951  1.1925  1.0236  0.7156
 3436SOL     OW11206   0.861   4.259   1.877 -0.0770 -0.4767  0.2596
 3436SOL    HW111207   0.825   4.225   1.789 -0.9809 -0.0441  0.4439
 3436SOL    HW211208   0.853   4.186   1.945  0.0187 -0.6030  0.1381
 3437SOL     OW11209   4.736   0.090   1.269  0.8956 -0.2155  1.1237
 3437SOL    HW111210   4.811   0.036   1.232  1.9593  0.8226  1.7021
 3437SOL    HW211211   4.747   0.098   1.369 -0.3784 -0.6381  1.3178
 3438SOL     OW11212   4.900   5.426   4.475  0.3387  0.1225 -0.0991
 3438SOL    HW111213   4.818   5.474   4.507  0.8631  0.0971  1.3645
 3438SOL    HW211214   4.952   5.486   4.413  0.8279  1.3797  1.4636
 3439SOL     OW11215   6.697   1.034   5.990  0.0672  0.0505 -0.5598
 3439SOL    HW111216   6.632   1.103   5.959 -0.1205 -0.9881 -2.6638
 3439SOL    HW211217   6.671   1.003   6.082 -0.9023  1.4620 -0.3320
 3440SOL     OW11218   4.397   2.013   5.572  0.0054  0.3223  0.4523
 3440SOL    HW111219   4.459   1.963   5.633  0.8697 -2.6896 -2.5601
 3440SOL    HW211220   4.316   2.042   5.623  1.5509 -0.1777  3.4086
 3441SOL     OW11221   5.069   0.201   4.682 -0.3094 -0.0683  0.0941
 3441SOL    HW111222   5.034   0.289   4.713  0.7136  0.4040 -0.0324
 3441SOL    HW211223   5.166   0.194   4.704 -0.5646 -1.5480  0.9169
 3442SOL     OW11224   0.514   1.507   2.040  0.4721  0.0401  0.0392
 3442SOL    HW111225   0.519   1.514   2.140 -1.3016 -0.8362  0.2402
 3442SOL    HW211226   0.461   1.583   2.004 -0.5617 -0.6748 -0.0003
 3443SOL     OW11227   1.367   4.844   6.422 -0.1333  0.1260  0.2567
 3443SOL    HW111228   1.327   4.932   6.397 -0.3523 -0.1317 -0.3078
 3443SOL    HW211229   1.434   4.816   6.353 -0.9114 -0.6998 -0.1919
 3444SOL     OW11230   1.932   4.492   4.824  0.3053  0.2978  0.5770
 3444SOL    HW111231   1.995   4.554   4.778  0.1727 -0.4190 -0.6386
 3444SOL    HW211232   1.948   4.398   4.791 -1.8594  0.1810 -0.3733
 3445SOL     OW11233   6.114   1.463   5.498  0.0044 -0.2683  0.2858
 3445SOL    HW111234   6.159   1.435   5.413 -1.4356 -0.8824 -0.3088
 3445SOL    HW211235   6.019   1.488   5.478 -0.7456 -1.6722  1.8936
 3446SOL     OW11236   1.049   2.835   6.301 -0.0621 -0.0544 -0.3637
 3446SOL    HW111237   1.069   2.923   6.259 -1.6880 -0.1262 -1.3848
 3446SOL    HW211238   1.109   2.765   6.264  0.9293  0.5086  0.1179
 3447SOL     OW11239   3.019   6.569   5.747  0.0270 -0.4286 -0.2672
 3447SOL    HW111240   3.118   6.572   5.754  0.0842 -2.9193  1.3490
 3447SOL    HW211241   2.979   6.570   5.838 -1.3527 -0.7923 -0.8364
 3448SOL     OW11242   4.420   0.625   3.982 -0.1574  0.0661 -0.3520
 3448SOL    HW111243   4.345   0.628   4.048 -1.0388  0.5547 -1.3407
 3448SOL    HW211244   4.405   0.695   3.912 -0.1181 -1.5147 -2.0014
 3449SOL     OW11245   4.685   1.486   1.398 -0.6675 -0.4905 -0.0990
 3449SOL    HW111246   4.690   1.561   1.332 -1.9470  0.2558  0.6121
 3449SOL    HW211247   4.614   1.421   1.370 -0.4456 -0.7602 -0.0388
 3450SOL     OW11248   3.467   2.694   6.419  0.2484  0.3009  0.4638
 3450SOL    HW111249   3.455   2.767   6.352  0.8847  0.6266  0.7045
 3450SOL    HW211250   3.394   2.626   6.407 -0.2657  0.8985  0.1498
 3451SOL     OW11251   3.331   0.355   0.663  0.1436  0.1689 -0.1847
 3451SOL    HW111252   3.401   0.362   0.735  0.4561 -0.6952 -0.3934
 3451SOL    HW211253   3.267   0.282   0.687  0.5728 -0.5032 -1.0500
 3452SOL     OW11254   0.192   6.793   1.567 -0.4121  0.0406 -0.0010
 3452SOL    HW111255   0.250   6.714   1.586 -0.8028 -0.1917  0.2466
 3452SOL    HW211256   0.248   6.869   1.533  0.2111  0.2007  1.3079
 3453SOL     OW11257   3.140   6.667   6.261  0.4532  0.3588 -0.4456
 3453SOL    HW111258   3.197   6.738   6.303  0.8223 -0.5880  0.7102
 3453SOL    HW211259   3.199   6.596   6.221  0.0902  0.3974 -1.0587
 3454SOL     OW11260   0.355   5.651   1.338 -0.1644  0.1556 -0.2669
 3454SOL    HW111261   0.284   5.606   1.283  0.9407 -1.2631 -0.5896
 3454SOL    HW211262   0.434   5.672   1.280 -0.1749  1.4168  0.1558
 3455SOL     OW11263   4.125   5.140   2.220 -0.5171  0.2488 -0.3793
 3455SOL    HW111264   4.207   5.081   2.223  1.0268  2.2432 -1.1927
 3455SOL    HW211265   4.134   5.213   2.288 -1.2279  0.9969 -1.0772
 3456SOL     OW11266   4.997   2.039   1.586  0.2791  0.4237 -0.7367
 3456SOL    HW111267   5.065   2.112   1.589  1.0125 -0.1978  2.6551
 3456SOL    HW211268   5.042   1.952   1.571 -0.5908  0.4981 -4.7473
 3457SOL     OW11269   4.177   1.422   1.763 -0.7330  0.4436 -0.9161
 3457SOL    HW111270   4.228   1.336   1.763  0.0808  0.9104  0.0694
 3457SOL    HW211271   4.146   1.443   1.856  0.2141  1.8548 -0.8863
 3458SOL     OW11272   0.847   6.651   4.201 -0.4633  0.3683 -0.3632
 3458SOL    HW111273   0.846   6.634   4.300  1.6780  0.5879 -0.2729
 3458SOL    HW211274   0.784   6.726   4.180 -0.1263  1.0726  0.9976
 3459SOL     OW11275   3.941   3.618   6.552  0.4235  0.5484 -0.3735
 3459SOL    HW111276   3.909   3.526   6.574  1.4016  0.5029  0.9987
 3459SOL    HW211277   3.992   3.617   6.467  0.4118 -0.1788 -0.3748
 3460SOL     OW11278   1.927   4.129   1.419  0.4518 -0.0058  0.0254
 3460SOL    HW111279   1.970   4.216   1.393 -0.1796  0.4756  0.5814
 3460SOL    HW211280   1.971   4.094   1.502 -0.2624  0.5191  0.6310
 3461SOL     OW11281   5.107   5.769   1.370 -0.6551 -0.7462  0.4071
 3461SOL    HW111282   5.069   5.861   1.360  0.1196 -0.5701 -1.3325
 3461SOL    HW211283   5.194   5.774   1.419 -0.3771 -0.4743 -0.1052
 3462SOL     OW11284   3.436   2.783   1.869 -0.1860 -0.2051 -0.3618
 3462SOL    HW111285   3.486   2.845   1.931 -1.6992 -0.6304  1.3808
 3462SOL    HW211286   3.401   2.836   1.791  0.2751  0.7220  0.0362
 3463SOL     OW11287   2.241   6.640   0.375 -0.0073 -0.6571  0.2059
 3463SOL    HW111288   2.266   6.550   0.340 -0.6102 -0.5966 -0.4154
 3463SOL    HW211289   2.269   6.648   0.470  1.8299 -0.7694 -0.2933
 3464SOL     OW11290   2.656   6.939   6.185 -0.3256 -0.0099  1.1281
 3464SOL    HW111291   2.667   7.012   6.118  0.0581 -1.0733  0.0063
 3464SOL    HW211292   2.744   6.919   6.228 -0.2802 -0.3397  0.8802
 3465SOL     OW11293   2.129   3.517   6.149  0.1378 -0.6835 -0.0561
 3465SOL    HW111294   2.065   3.447   6.118 -0.4876 -0.8478  1.5436
 3465SOL    HW211295   2.097   3.607   6.118 -0.6490 -0.8074  0.3806
 3466SOL     OW11296   2.106   2.405   6.935  0.3967  0.3364  0.5551
 3466SOL    HW111297   2.203   2.381   6.930  0.4996  0.8644 -0.0406
 3466SOL    HW211298   2.064   2.393   6.846  0.2243  1.4036  0.4792
 3467SOL     OW11299   2.309   4.983   4.733  0.0465  0.3483  0.6236
 3467SOL    HW111300   2.294   4.885   4.736 -1.6285  0.5966  0.9998
 3467SOL    HW211301   2.347   5.013   4.821  0.5270  0.0572  0.5202
 3468SOL     OW11302   0.725   0.571   0.753 -0.0837  0.3336  0.5227
 3468SOL    HW111303   0.816   0.543   0.781 -0.3733  2.2007  3.8221
 3468SOL    HW211304   0.731   0.652   0.694  0.3984  1.3269  1.9037
 3469SOL     OW11305   4.840   2.488   0.052  0.3910 -0.1641  0.2846
 3469SOL    HW111306   4.867   2.573   0.096 -0.8265  0.3078  0.1786
 3469SOL    HW211307   4.884   2.410   0.097  2.9781  0.5972 -0.7612
 3470SOL     OW11308   6.430   1.301   1.367 -0.2079  0.0066  0.2286
 3470SOL    HW111309   6.463   1.310   1.461  1.6583  0.6129 -0.4600
 3470SOL    HW211310   6.353   1.363   1.353  0.4808  1.0406  0.9168
 3471SOL     OW11311   4.988   2.069   5.078 -0.4139 -0.2500  0.4119
 3471SOL    HW111312   5.012   1.994   5.141  0.2527  0.1236  0.6156
 3471SOL    HW211313   5.071   2.101   5.033 -0.5262  1.0692  1.1130
 3472SOL     OW11314   2.301   2.188   6.894  0.3838 -0.9175  0.2922
 3472SOL    HW111315   2.301   2.104   6.840  0.1583  0.9454 -2.8414
 3472SOL    HW211316   2.394   2.206   6.928  0.6354 -1.9086  0.1436
 3473SOL     OW11317   4.751   2.019   5.725 -0.3360  0.2208 -0.2176
 3473SOL    HW111318   4.707   1.929   5.726 -0.0156  0.0621  0.4460
 3473SOL    HW211319   4.829   2.017   5.662  1.0239 -0.6541  1.4174
 3474SOL     OW11320   5.218   1.020   1.214 -0.8208  0.4133  0.1542
 3474SOL    HW111321   5.154   1.063   1.277 -2.3120  0.1306 -1.1032
 3474SOL    HW211322   5.308   1.013   1.257 -1.7027  0.4859  2.1100
 3475SOL     OW11323   0.477   5.152   3.242 -0.3157  0.2715  0.0246
 3475SOL    HW111324   0.575   5.141   3.260 -0.0447  2.0945 -0.0845
 3475SOL    HW211325   0.462   5.165   3.144 -0.4330  1.7171  0.2087
 3476SOL     OW11326   5.979   2.610   2.008  0.4551 -0.1430  0.3562
 3476SOL    HW111327   5.931   2.626   2.093  2.5929  0.1914  1.5740
 3476SOL    HW211328   5.913   2.596   1.934 -1.4760 -1.7609  2.2620
 3477SOL     OW11329   2.216   6.202   2.506 -0.4285 -0.1202  0.1263
 3477SOL    HW111330   2.137   6.160   2.552 -0.3416 -1.2091 -0.6798
 3477SOL    HW211331   2.240   6.287   2.552 -1.1988 -0.4905  1.2516
 3478SOL     OW11332   1.840   2.195   3.010 -0.1374  0.0470 -0.2232
 3478SOL    HW111333   1.844   2.134   2.931  2.6484 -0.7228  0.4095
 3478SOL    HW211334   1.839   2.290   2.979  0.2927 -0.2637 -1.2171
 3479SOL     OW11335   6.627   2.940   3.986  0.5067 -0.4484 -0.0756
 3479SOL    HW111336   6.659   3.007   4.053  2.8628 -2.5849  1.1529
 3479SOL    HW211337   6.534   2.962   3.958  0.9379  2.9166  0.6700
 3480SOL     OW11338   5.722   6.958   2.879 -0.5320 -0.0410  0.2327
 3480SOL    HW111339   5.674   6.898   2.943 -0.7684  0.4101  0.4895
 3480SOL    HW211340   5.813   6.978   2.915 -0.9877  0.9436  0.9080
 3481SOL     OW11341   4.456   1.992   3.430  0.3926  0.1535  0.4889
 3481SOL    HW111342   4.479   1.998   3.527  1.2832 -0.9788  0.3585
 3481SOL    HW211343   4.461   1.897   3.400 -0.8686  0.3569 -0.4378
 3482SOL     OW11344   6.576   3.240   6.281 -0.6371  0.4352 -0.2876
 3482SOL    HW111345   6.585   3.217   6.378 -0.9793  1.0650 -0.1034
 3482SOL    HW211346   6.588   3.339   6.269  0.0734  0.2771 -0.9725
 3483SOL     OW11347   6.919   3.098   1.610  0.7305 -0.2653  0.1936
 3483SOL    HW111348   6.884   3.016   1.656  1.6893 -1.3830 -0.9984
 3483SOL    HW211349   6.843   3.144   1.564  0.2761 -0.8277  0.3571
 3484SOL     OW11350   1.461   5.298   1.081  0.7261  0.2531  0.9000
 3484SOL    HW111351   1.414   5.268   1.164  1.5057  1.5914  1.8637
 3484SOL    HW211352   1.402   5.361   1.030  0.6816  0.3138  1.0271
 3485SOL     OW11353   6.030   4.965   1.102  0.5135  0.2959 -0.5826
 3485SOL    HW111354   5.975   4.971   1.185  0.0583 -1.1887 -0.7514
 3485SOL    HW211355   6.006   4.882   1.052  2.1531  0.1716 -1.2196
 3486SOL     OW11356   3.719   2.212   5.273  0.2905 -0.6119  0.0032
 3486SOL    HW111357   3.625   2.245   5.280 -0.0744 -1.3479 -1.1298
 3486SOL    HW211358   3.779   2.269   5.329 -0.9625 -0.7058  1.4886
 3487SOL     OW11359   0.485   5.380   4.771  0.1715  0.1910  0.1494
 3487SOL    HW111360   0.496   5.335   4.682  1.6529 -0.7592  0.7623
 3487SOL    HW211361   0.390   5.375   4.799  0.2000 -2.2930  0.0065
 3488SOL     OW11362   3.703   6.141   1.397 -0.5779  0.0578 -0.4111
 3488SOL    HW111363   3.709   6.224   1.342  1.7609 -1.6868 -3.0496
 3488SOL    HW211364   3.795   6.111   1.424 -1.2533 -2.1351 -0.3263
 3489SOL     OW11365   4.201   5.650   0.741  0.5978  0.4664  0.4392
 3489SOL    HW111366   4.186   5.688   0.650  2.8759 -0.2700 -0.2996
 3489SOL    HW211367   4.245   5.561   0.734  1.0298  0.4904  2.2660
 3490SOL     OW11368   6.482   0.467   4.730  0.3411 -0.7213  0.2447
 3490SOL    HW111369   6.432   0.509   4.806 -0.0026 -0.8507  0.0883
 3490SOL    HW211370   6.495   0.370   4.749  1.1718 -0.5492  0.6264
 3491SOL     OW11371   1.308   1.763   1.549 -0.4301 -0.1758 -0.3052
 3491SOL    HW111372   1.211   1.781   1.557 -0.9062 -2.4535 -0.2438
 3491SOL    HW211373   1.355   1.796   1.631 -1.2503  0.2800 -0.0063
 3492SOL     OW11374   6.034   4.567   0.170  0.4997  0.3343  0.7555
 3492SOL    HW111375   5.992   4.477   0.159  3.9423 -1.3783  0.4349
 3492SOL    HW211376   6.022   4.598   0.264  0.6314 -1.2494  1.3208
 3493SOL     OW11377   1.897   0.347   6.133 -0.1783  0.1073 -0.1995
 3493SOL    HW111378   1.964   0.411   6.172  1.5298 -1.8665  0.3144
 3493SOL    HW211379   1.884   0.270   6.196  0.4896 -1.7663 -2.2133
 3494SOL     OW11380   0.371   3.134   2.313  0.1633 -0.5610  0.0181
 3494SOL    HW111381   0.289   3.159   2.365  0.5327  0.2255  0.2432
 3494SOL    HW211382   0.450   3.184   2.349  1.4080 -3.5870  1.8858
 3495SOL     OW11383   6.054   6.525   5.692  0.1907  0.1853  0.3022
 3495SOL    HW111384   6.099   6.594   5.749  0.1753  2.5278 -2.3417
 3495SOL    HW211385   6.103   6.438   5.701  0.5493  0.5915  3.3132
 3496SOL     OW11386   6.958   1.972   2.701  0.6225  0.5252  0.5525
 3496SOL    HW111387   6.997   1.896   2.753  1.9422  0.8845  0.1425
 3496SOL    HW211388   6.859   1.970   2.708  0.5813 -1.5776  0.0820
 3497SOL     OW11389   0.254   1.689   5.327  0.5946  0.9024  0.2068
 3497SOL    HW111390   0.298   1.613   5.279 -0.2869  0.8588 -0.5671
 3497SOL    HW211391   0.316   1.725   5.396  2.2376  1.4424 -1.4480
 3498SOL     OW11392   3.385   0.690   1.616  0.4706 -0.3927  0.0049
 3498SOL    HW111393   3.352   0.601   1.585 -1.4633  0.1649  0.2789
 3498SOL    HW211394   3.398   0.750   1.538  0.4923 -0.5113 -0.0837
 3499SOL     OW11395   4.754   4.374   1.065  0.4527  0.1779 -0.3876
 3499SOL    HW111396   4.762   4.472   1.046  0.6459 -0.0937 -1.7699
 3499SOL    HW211397   4.667   4.340   1.031  0.6903 -0.2735 -0.5497
 3500SOL     OW11398   0.259   6.049   5.172  0.0702 -0.2434 -0.3210
 3500SOL    HW111399   0.339   6.001   5.209  1.0470 -2.5143 -4.7597
 3500SOL    HW211400   0.178   5.991   5.183  0.6039 -1.5286 -2.5972
 3501SOL     OW11401   3.741   5.903   1.724  0.1434 -0.4058 -0.4543
 3501SOL    HW111402   3.748   5.931   1.820 -0.5640 -2.8078  0.3634
 3501SOL    HW211403   3.771   5.808   1.715 -1.5212 -0.8144 -2.3010
 3502SOL     OW11404   6.647   1.937   6.821 -0.6952  0.0574  0.3631
 3502SOL    HW111405   6.593   2.018   6.800 -1.4004 -0.5268 -0.1319
 3502SOL    HW211406   6.735   1.964   6.860  0.1960  1.1818 -2.2377
 3503SOL     OW11407   4.286   2.082   6.920  0.5650 -0.1758 -0.1886
 3503SOL    HW111408   4.294   2.179   6.895 -0.8953 -0.1469 -0.6076
 3503SOL    HW211409   4.245   2.031   6.844 -0.3461 -0.8016  0.6988
 3504SOL     OW11410   1.423   3.136   3.855  0.0580 -0.5164  0.0118
 3504SOL    HW111411   1.364   3.168   3.928  0.0191 -0.5311 -0.0130
 3504SOL    HW211412   1.506   3.096   3.894  0.1748 -0.2488  0.0357
 3505SOL     OW11413   4.887   2.946   4.997 -0.2721  0.0087  0.5085
 3505SOL    HW111414   4.925   2.896   5.074  1.8479  0.6490 -0.0520
 3505SOL    HW211415   4.831   2.885   4.941  0.3431 -1.1237  1.1164
 3506SOL     OW11416   1.305   2.852   0.812 -0.3824 -0.9191 -0.0084
 3506SOL    HW111417   1.339   2.847   0.718  1.1898 -1.8850  0.5779
 3506SOL    HW211418   1.256   2.938   0.825  3.3157  1.4793 -0.4600
 3507SOL     OW11419   1.805   0.118   6.305 -0.6358  0.2802 -0.1164
 3507SOL    HW111420   1.708   0.093   6.311 -0.7671  1.1628  2.5171
 3507SOL    HW211421   1.839   0.143   6.395  1.6502  1.5481 -1.2419
 3508SOL     OW11422   3.921   5.986   2.227  0.1270 -0.2823 -0.0461
 3508SOL    HW111423   3.938   6.007   2.131  0.1908 -0.8408 -0.1557
 3508SOL    HW211424   3.832   5.941   2.236 -0.3430  0.6811  0.2770
 3509SOL     OW11425   2.556   6.946   6.788  0.0003  0.3976 -0.3707
 3509SOL    HW111426   2.502   6.862   6.803  0.6137  0.1481  0.5555
 3509SOL    HW211427   2.651   6.921   6.771 -0.1495  0.8381 -1.9852
 3510SOL     OW11428   6.452   4.626   0.265  0.3815 -0.0879 -0.8682
 3510SOL    HW111429   6.472   4.544   0.212 -1.9606  0.0467 -2.1096
 3510SOL    HW211430   6.530   4.689   0.260  1.3096 -1.2565 -1.8270
 3511SOL     OW11431   0.711   4.018   5.002  0.1500 -0.2096  0.5256
 3511SOL    HW111432   0.679   4.112   5.011 -1.4400 -0.3932 -2.1142
 3511SOL    HW211433   0.638   3.954   5.027 -0.5361 -0.6458 -2.2575
 3512SOL     OW11434   2.163   5.226   4.244 -0.2018 -0.3588  0.1172
 3512SOL    HW111435   2.207   5.216   4.333 -0.9779 -2.6224  0.3087
 3512SOL    HW211436   2.209   5.168   4.177  0.3693  1.2994 -1.0147
 3513SOL     OW11437   1.708   1.506   5.415  0.3110  0.5693  0.3372
 3513SOL    HW111438   1.695   1.603   5.437 -0.5976  0.3343  0.9271
 3513SOL    HW211439   1.756   1.498   5.328 -0.6854  1.5628 -0.3429
 3514SOL     OW11440   1.512   3.540   1.057 -0.0050 -0.0911 -0.2706
 3514SOL    HW111441   1.601   3.495   1.051  1.3039  2.2731  0.2758
 3514SOL    HW211442   1.483   3.543   1.153 -0.6136 -0.7100 -0.4291
 3515SOL     OW11443   6.072   0.912   4.589  0.0272  0.2218 -0.2145
 3515SOL    HW111444   6.022   0.907   4.502 -0.8186  1.2481  0.1938
 3515SOL    HW211445   6.161   0.867   4.578 -0.9956 -1.7459 -0.9271
 3516SOL     OW11446   3.797   5.939   5.438 -0.0313 -0.1780 -0.0901
 3516SOL    HW111447   3.888   5.900   5.424  0.7290  1.3236  0.4454
 3516SOL    HW211448   3.728   5.877   5.399  1.1484 -1.6350  0.0259
 3517SOL     OW11449   3.565   1.711   5.648  0.1235  0.1174 -0.0810
 3517SOL    HW111450   3.491   1.742   5.589  0.2561 -1.4267 -1.1115
 3517SOL    HW211451   3.527   1.680   5.735 -0.7812 -2.6458 -1.3602
 3518SOL     OW11452   5.093   3.972   2.489 -0.1478  0.2457 -0.0863
 3518SOL    HW111453   5.003   3.960   2.531 -0.9858  1.9853 -1.2629
 3518SOL    HW211454   5.090   3.939   2.395  0.5400  0.0395 -0.0371
 3519SOL     OW11455   4.087   1.623   1.612 -0.2711  0.3872  0.1235
 3519SOL    HW111456   4.100   1.547   1.675 -2.4900  0.4276  0.7257
 3519SOL    HW211457   4.133   1.704   1.648  1.4032 -0.4153 -0.1030
 3520SOL     OW11458   2.103   4.168   0.000  0.5757 -0.6349  0.3837
 3520SOL    HW111459   2.053   4.253  -0.013 -0.2551 -1.5018 -3.1055
 3520SOL    HW211460   2.070   4.121   0.082 -2.2243  0.2264 -0.1691
 3521SOL     OW11461   2.890   6.772   1.297  1.0613  0.3045 -0.5995
 3521SOL    HW111462   2.834   6.693   1.321  1.1352  0.2583 -0.5798
 3521SOL    HW211463   2.861   6.851   1.351  1.0361  0.2725 -0.5656
 3522SOL     OW11464   2.554   2.579   6.885 -0.5625  0.6992  0.0507
 3522SOL    HW111465   2.497   2.540   6.957  0.1490 -3.9760 -1.5346
 3522SOL    HW211466   2.650   2.577   6.914 -0.5380  1.9393  0.1157
 3523SOL     OW11467   0.110   2.579   4.112 -0.4647  0.1590  0.4984
 3523SOL    HW111468   0.081   2.575   4.207 -1.4254 -0.6728  0.1926
 3523SOL    HW211469   0.143   2.671   4.091 -0.6515  0.4698  1.5185
 3524SOL     OW11470   3.223   1.160   6.237 -0.1706  0.3685 -0.0987
 3524SOL    HW111471   3.229   1.063   6.263 -0.6181  0.8283  1.8785
 3524SOL    HW211472   3.128   1.188   6.234 -0.0041  1.0827  0.7851
 3525SOL     OW11473   0.240   2.372   4.343  0.1750 -0.3870  0.4579
 3525SOL    HW111474   0.178   2.441   4.380 -0.6910  0.1775 -1.8732
 3525SOL    HW211475   0.335   2.402   4.355  0.1883 -1.4901  4.5146
 3526SOL     OW11476   5.283   2.911   0.534 -0.5970 -0.2836  1.3700
 3526SOL    HW111477   5.222   2.949   0.464 -0.3070 -2.9427 -0.4521
 3526SOL    HW211478   5.336   2.986   0.576  0.5806  1.3684 -2.5744
 3527SOL     OW11479   3.925   0.767   6.464 -0.8450  0.0689 -0.5468
 3527SOL    HW111480   3.904   0.839   6.398  1.9441  0.2782 -1.3199
 3527SOL    HW211481   3.978   0.805   6.539 -3.0210 -0.4051  1.3313
 3528SOL     OW11482   0.487   5.225   1.680  0.1355  0.0215 -0.2972
 3528SOL    HW111483   0.525   5.264   1.595  0.8750 -0.3484 -0.1502
 3528SOL    HW211484   0.415   5.159   1.657 -0.5985  0.9012 -0.5755
 3529SOL     OW11485   2.934   6.688   0.715  0.5799  0.3702  0.3159
 3529SOL    HW111486   2.844   6.668   0.677  0.4377  0.3448  0.6632
 3529SOL    HW211487   3.004   6.648   0.656  0.3019 -1.1650  0.9835
 3530SOL     OW11488   3.544   6.839   3.561  0.0114 -0.1624 -0.0320
 3530SOL    HW111489   3.473   6.892   3.515  0.0336  1.6810  1.8529
 3530SOL    HW211490   3.602   6.902   3.615  1.0412 -1.9633  1.0602
 3531SOL     OW11491   6.939   3.358   3.606 -0.3481  0.2475  0.0226
 3531SOL    HW111492   6.865   3.325   3.663 -1.7252  1.0440 -1.2357
 3531SOL    HW211493   7.013   3.290   3.604 -1.7433 -1.3132  0.0057
 3532SOL     OW11494   0.577   2.934   3.166  0.9027 -0.0883  0.4158
 3532SOL    HW111495   0.526   2.858   3.206  0.7974  0.1366  0.7159
 3532SOL    HW211496   0.594   2.916   3.070  0.7569 -0.4280  0.4526
 3533SOL     OW11497   2.165   2.869   1.149 -0.4921  0.3553 -0.4103
 3533SOL    HW111498   2.215   2.929   1.086  0.6789 -0.1542  0.0170
 3533SOL    HW211499   2.166   2.909   1.240  0.7430 -0.5333 -0.0111
 3534SOL     OW11500   2.470   1.676   2.939  0.6843  0.7912 -0.4209
 3534SOL    HW111501   2.394   1.613   2.950  1.3708  0.0488  0.1784
 3534SOL    HW211502   2.553   1.637   2.980  1.1940  1.9495 -0.3000
 3535SOL     OW11503   1.799   4.829   4.972 -0.8028  0.2406  0.0918
 3535SOL    HW111504   1.739   4.806   4.895 -0.5937 -0.8726  0.2530
 3535SOL    HW211505   1.749   4.818   5.058 -0.1882 -1.4085  0.2723
 3536SOL     OW11506   2.245   3.065   5.317 -0.4650 -0.2661  0.2058
 3536SOL    HW111507   2.245   3.153   5.364 -0.0003 -0.7315  1.1106
 3536SOL    HW211508   2.339   3.037   5.299 -0.6398  0.5199 -2.2434
 3537SOL     OW11509   5.938   0.929   0.903 -0.3355 -0.3006  0.6415
 3537SOL    HW111510   5.931   0.924   1.002 -0.0246  0.1171  0.6889
 3537SOL    HW211511   6.007   0.998   0.878 -1.5543  0.7811  0.1241
 3538SOL     OW11512   4.733   0.751   0.940  0.7812 -0.0750 -0.2413
 3538SOL    HW111513   4.708   0.820   1.008 -1.7893  0.9051 -2.0236
 3538SOL    HW211514   4.678   0.669   0.953  0.7784 -0.1505 -0.6947
 3539SOL     OW11515   3.093   2.606   1.640 -0.3216  0.4350 -0.4216
 3539SOL    HW111516   3.140   2.519   1.656 -1.1517  0.2553  1.2672
 3539SOL    HW211517   2.999   2.600   1.673  0.1972  2.6025  1.8248
 3540SOL     OW11518   5.202   1.980   4.123 -0.5857 -0.6268  0.0509
 3540SOL    HW111519   5.282   2.039   4.124 -1.4958  0.7127 -1.7229
 3540SOL    HW211520   5.230   1.885   4.107  0.8507 -0.6894  2.4457
 3541SOL     OW11521   5.401   5.236   0.336  0.0250  0.4167 -0.5430
 3541SOL    HW111522   5.472   5.232   0.266  0.2134 -1.0239 -0.2954
 3541SOL    HW211523   5.311   5.226   0.292  0.1256 -0.1877 -0.6247
 3542SOL     OW11524   3.744   2.277   0.605  0.0954 -0.1941 -0.7966
 3542SOL    HW111525   3.742   2.183   0.641 -0.0216 -0.8477 -2.4160
 3542SOL    HW211526   3.789   2.277   0.515 -0.8092  1.1460 -1.2805
 3543SOL     OW11527   2.215   6.854   3.017 -0.2616  0.4700 -0.0490
 3543SOL    HW111528   2.181   6.922   2.952 -2.8570 -0.8754 -0.2248
 3543SOL    HW211529   2.186   6.879   3.109  0.7570  0.7553  0.2077
 3544SOL     OW11530   0.321   3.892   0.743  0.0868 -0.6064  0.3902
 3544SOL    HW111531   0.348   3.867   0.650  1.2086 -1.6209  0.9435
 3544SOL    HW211532   0.229   3.859   0.761  0.1551 -1.0905 -0.1092
 3545SOL     OW11533   0.649   2.611   6.752  0.7459  0.0576 -0.0238
 3545SOL    HW111534   0.729   2.590   6.808  1.0584 -1.3004 -0.9181
 3545SOL    HW211535   0.651   2.555   6.669 -2.4260 -1.9800  1.0784
 3546SOL     OW11536   6.025   3.869   6.205 -0.0229  0.1519  0.1759
 3546SOL    HW111537   5.972   3.795   6.248  0.8874 -0.6511 -0.0550
 3546SOL    HW211538   6.085   3.911   6.273 -0.3239  0.4897  0.2365
 3547SOL     OW11539   0.350   0.933   1.602 -0.1265  0.2795 -0.6572
 3547SOL    HW111540   0.427   0.909   1.660 -1.1304 -0.5488  0.3783
 3547SOL    HW211541   0.302   0.850   1.573 -0.7099  0.7830 -1.1858
 3548SOL     OW11542   1.493   5.612   1.293 -0.1594  0.8122  0.4666
 3548SOL    HW111543   1.458   5.652   1.208  0.1944 -1.5370 -0.8738
 3548SOL    HW211544   1.581   5.567   1.275 -1.2107 -1.8563  1.4297
 3549SOL     OW11545   5.841   1.437   6.997 -0.4267 -0.2781 -0.1016
 3549SOL    HW111546   5.795   1.448   6.908  1.3988  0.3174 -1.0245
 3549SOL    HW211547   5.772   1.421   7.068 -1.8975 -1.6421 -1.7299
 3550SOL     OW11548   1.557   3.292   6.547  0.0894 -0.0730  0.1557
 3550SOL    HW111549   1.592   3.259   6.634 -1.1218  0.3299  0.8110
 3550SOL    HW211550   1.504   3.375   6.561 -2.0033 -1.1935 -0.6170
 3551SOL     OW11551   6.015   0.169   6.160  0.2269 -0.0844  0.6063
 3551SOL    HW111552   5.947   0.162   6.087  0.4019  1.1970  0.2971
 3551SOL    HW211553   6.093   0.111   6.139  1.0605  1.5505 -1.1544
 3552SOL     OW11554   4.414   1.613   2.477 -0.3018 -0.5191  0.0236
 3552SOL    HW111555   4.370   1.699   2.501 -0.7193 -0.6767 -0.1739
 3552SOL    HW211556   4.353   1.559   2.419 -0.6822 -1.6038  1.3792
 3553SOL     OW11557   2.317   5.231   6.213 -0.0248 -0.2886 -0.3074
 3553SOL    HW111558   2.255   5.153   6.205 -0.4955  0.0676 -0.1756
 3553SOL    HW211559   2.359   5.250   6.124  2.0077 -2.2281  0.1582
 3554SOL     OW11560   1.839   0.898   0.593  0.2763 -0.3476  0.4124
 3554SOL    HW111561   1.751   0.867   0.558 -0.3802 -0.1535  1.7921
 3554SOL    HW211562   1.899   0.922   0.517 -0.5408 -1.3184 -0.5821
 3555SOL     OW11563   5.457   4.832   5.565 -0.6127  0.1741  0.6078
 3555SOL    HW111564   5.442   4.931   5.569  0.4726  0.3357  3.7042
 3555SOL    HW211565   5.393   4.786   5.627  1.3086 -0.6040  2.1385
 3556SOL     OW11566   5.300   5.545   2.345  0.7301  0.2701  0.0528
 3556SOL    HW111567   5.236   5.568   2.272  0.3804 -0.3255  0.1594
 3556SOL    HW211568   5.337   5.628   2.386  0.8276  0.6085 -0.7134
 3557SOL     OW11569   2.688   0.379   4.639  0.5271 -0.2051  0.3620
 3557SOL    HW111570   2.623   0.304   4.632  0.9144 -0.4237 -1.8629
 3557SOL    HW211571   2.781   0.344   4.626  0.5515  0.8519 -3.5596
 3558SOL     OW11572   1.781   0.711   3.538  0.4052  0.8649  0.1597
 3558SOL    HW111573   1.739   0.758   3.616  2.1194  1.1967  0.9279
 3558SOL    HW211574   1.737   0.622   3.525  1.0396  0.1423  2.4749
 3559SOL     OW11575   5.482   5.716   3.914  0.2116  0.1918  0.1168
 3559SOL    HW111576   5.467   5.814   3.902 -0.0107  0.0231 -1.1644
 3559SOL    HW211577   5.413   5.679   3.975 -1.8851  0.2400 -2.1057
 3560SOL     OW11578   6.227   4.575   4.026  0.3555  0.2465 -0.5623
 3560SOL    HW111579   6.133   4.579   3.992  0.3858 -0.1029 -0.6875
 3560SOL    HW211580   6.263   4.668   4.036 -0.2381  0.4135  0.1354
 3561SOL     OW11581   5.716   6.562   6.023  0.1930 -0.3672  0.5972
 3561SOL    HW111582   5.718   6.469   6.060 -1.2247 -0.0682  1.4970
 3561SOL    HW211583   5.742   6.626   6.095 -2.0376  0.1813  0.9762
 3562SOL     OW11584   2.946   3.172   2.822 -0.3507  0.5244 -0.3684
 3562SOL    HW111585   2.986   3.253   2.778  1.0259  1.1590  1.8888
 3562SOL    HW211586   2.847   3.179   2.820 -0.2881  3.0818  1.0476
 3563SOL     OW11587   1.134   5.228   0.274  0.1385  0.3664  0.4335
 3563SOL    HW111588   1.172   5.217   0.366 -0.0281 -3.2700  0.2111
 3563SOL    HW211589   1.205   5.211   0.206 -0.1358  1.3144 -0.0964
 3564SOL     OW11590   5.872   6.392   1.072 -0.0109  0.5573 -0.0716
 3564SOL    HW111591   5.773   6.385   1.073 -0.0356  0.8896 -0.1055
 3564SOL    HW211592   5.905   6.419   1.163  0.0971 -0.1375  0.1058
 3565SOL     OW11593   3.584   5.455   0.191  0.7588  0.3978  0.2402
 3565SOL    HW111594   3.634   5.369   0.205 -1.1192 -0.8625 -0.3554
 3565SOL    HW211595   3.646   5.524   0.154  1.8367 -1.4605 -1.6634
 3566SOL     OW11596   1.663   5.895   6.385 -0.5406 -0.3242 -0.3792
 3566SOL    HW111597   1.719   5.878   6.304  1.7193 -0.9741  1.2348
 3566SOL    HW211598   1.655   5.993   6.400  0.5971 -0.2208 -0.3815
 3567SOL     OW11599   3.342   2.246   5.598  0.3431  0.1942 -0.0292
 3567SOL    HW111600   3.404   2.175   5.632 -0.2757 -1.4294 -2.0963
 3567SOL    HW211601   3.247   2.217   5.612  0.0373  1.5338  0.8430
 3568SOL     OW11602   2.421   5.567   6.016 -0.2106  0.6716 -0.3467
 3568SOL    HW111603   2.357   5.637   5.983 -1.4245 -0.0884  0.3224
 3568SOL    HW211604   2.453   5.592   6.107 -0.4326  0.4883 -0.2191
 3569SOL     OW11605   0.511   2.555   3.743  0.1624 -0.6020 -0.4998
 3569SOL    HW111606   0.582   2.555   3.673  1.2250 -1.0848  0.5409
 3569SOL    HW211607   0.509   2.644   3.789  0.8421 -0.9327  0.1873
 3570SOL     OW11608   3.045   1.583   0.865  0.8031  0.3298 -0.0299
 3570SOL    HW111609   3.136   1.577   0.906  0.5870  0.1887  0.4313
 3570SOL    HW211610   2.988   1.508   0.897  0.1828  1.0272  0.5528
 3571SOL     OW11611   0.736   3.503   5.974 -0.5361 -0.0048 -0.0720
 3571SOL    HW111612   0.827   3.520   5.938 -1.7371  1.2562 -2.8748
 3571SOL    HW211613   0.727   3.406   5.997  1.3519 -0.2344 -0.1413
 3572SOL     OW11614   3.645   4.123   3.397  0.2525  0.4882 -0.4299
 3572SOL    HW111615   3.546   4.140   3.394  0.0333 -0.4423  0.7423
 3572SOL    HW211616   3.670   4.060   3.324 -0.0599  0.5406 -0.5857
 3573SOL     OW11617   4.222   3.858   6.773 -0.0024  0.4375 -0.3659
 3573SOL    HW111618   4.128   3.872   6.741 -0.6434  0.9461  1.5908
 3573SOL    HW211619   4.220   3.824   6.867  1.7510 -2.1608 -1.1633
 3574SOL     OW11620   3.651   3.087   6.800  1.2815  0.5989  0.0220
 3574SOL    HW111621   3.686   3.005   6.844 -0.1995 -0.1355 -0.1008
 3574SOL    HW211622   3.655   3.076   6.701  3.0620  1.5752 -0.0556
 3575SOL     OW11623   0.204   1.314   1.431  0.5189 -0.1173 -0.2618
 3575SOL    HW111624   0.237   1.336   1.523  0.8253 -0.2476 -0.3396
 3575SOL    HW211625   0.247   1.229   1.400 -3.4942 -3.1351  1.6091
 3576SOL     OW11626   6.799   4.662   0.050  0.0112 -0.3125 -0.1779
 3576SOL    HW111627   6.857   4.615   0.116  1.0367  0.6524 -0.3602
 3576SOL    HW211628   6.784   4.603  -0.029  0.0609 -0.8809  0.2300
 3577SOL     OW11629   6.186   0.311   4.797 -0.1529  0.1743 -0.2426
 3577SOL    HW111630   6.153   0.397   4.835  3.4027  0.8382  1.7831
 3577SOL    HW211631   6.200   0.245   4.870  0.2931 -0.9938 -1.3462
 3578SOL     OW11632   1.968   3.753   3.863 -0.3374  0.0553  0.3498
 3578SOL    HW111633   2.019   3.716   3.785 -0.7614 -1.6606  0.8356
 3578SOL    HW211634   2.002   3.845   3.884  0.1685  0.3297 -1.4785
 3579SOL     OW11635   6.142   5.034   3.604 -0.0927 -0.3161 -0.4571
 3579SOL    HW111636   6.076   5.106   3.626  1.1731  1.1760 -1.3490
 3579SOL    HW211637   6.229   5.075   3.577  1.7636 -2.2106  2.1452
 3580SOL     OW11638   4.775   4.135   3.137  0.4827  0.3364  0.3127
 3580SOL    HW111639   4.792   4.141   3.039  0.8168  1.5945  0.4340
 3580SOL    HW211640   4.780   4.039   3.166 -0.2145 -0.1151 -0.9897
 3581SOL     OW11641   1.711   6.457   6.710 -0.7933  0.6474  0.3972
 3581SOL    HW111642   1.733   6.555   6.711 -0.8081  0.8839 -3.9410
 3581SOL    HW211643   1.614   6.445   6.686 -0.5853 -0.4211  0.0463
 3582SOL     OW11644   1.080   1.041   1.065 -0.1105 -0.5771  0.7670
 3582SOL    HW111645   1.034   1.120   1.106 -1.6864 -1.5702  1.0047
 3582SOL    HW211646   1.023   1.004   0.992  0.0486 -2.1432  1.4016
 3583SOL     OW11647   5.572   3.540   5.116 -0.4466 -0.2485  0.0702
 3583SOL    HW111648   5.484   3.576   5.146 -0.5623 -0.6184  0.1761
 3583SOL    HW211649   5.630   3.522   5.195 -0.0196  0.6222 -0.0263
 3584SOL     OW11650   4.989   5.957   5.174 -0.1489 -0.1763 -0.1042
 3584SOL    HW111651   4.969   5.879   5.115  1.1197 -1.3663  0.9594
 3584SOL    HW211652   5.000   6.039   5.119  1.1186 -1.2684 -1.5784
 3585SOL     OW11653   1.177   6.850   4.949 -0.2178  0.0655  0.0109
 3585SOL    HW111654   1.161   6.762   4.993 -0.2826  0.6317  1.1565
 3585SOL    HW211655   1.276   6.861   4.932 -0.2380 -0.3330 -0.3934
 3586SOL     OW11656   2.121   6.504   0.769 -0.1687 -1.0620  0.2730
 3586SOL    HW111657   2.029   6.473   0.745 -0.3812 -0.4918  0.3385
 3586SOL    HW211658   2.115   6.576   0.837  0.3339 -1.0761  0.3358
 3587SOL     OW11659   4.724   0.950   1.585  0.2954  0.0099  0.9306
 3587SOL    HW111660   4.772   0.992   1.662  3.4808  0.2612 -1.0090
 3587SOL    HW211661   4.668   0.874   1.618  2.0562 -0.3252  3.4577
 3588SOL     OW11662   0.452   6.939   1.098 -0.5175  0.5326 -0.1905
 3588SOL    HW111663   0.424   7.011   1.033  0.6949  1.5036  0.3240
 3588SOL    HW211664   0.470   6.980   1.187 -0.0164 -0.4599  0.1748
 3589SOL     OW11665   0.094   6.653   4.842 -0.1942  0.3029  0.7942
 3589SOL    HW111666   0.107   6.709   4.924 -3.0152 -0.2875  1.7761
 3589SOL    HW211667   0.060   6.563   4.868  2.5832 -1.3764 -0.8699
 3590SOL     OW11668   5.654   0.470   0.937  0.0998 -0.1431 -0.4744
 3590SOL    HW111669   5.657   0.371   0.925  1.2698 -0.0823 -0.8020
 3590SOL    HW211670   5.747   0.507   0.937 -0.2220  0.7804  1.1740
 3591SOL     OW11671   5.226   0.753   3.757 -0.0055 -0.5809  0.0900
 3591SOL    HW111672   5.323   0.751   3.733 -0.2434 -0.0187 -0.9887
 3591SOL    HW211673   5.188   0.843   3.735 -0.6296 -0.5793  1.1118
 3592SOL     OW11674   1.885   0.478   2.026  0.0232  0.4272 -0.1903
 3592SOL    HW111675   1.901   0.571   1.995 -1.4120  0.1216 -2.0465
 3592SOL    HW211676   1.919   0.413   1.957 -2.8750 -0.2906 -1.0839
 3593SOL     OW11677   3.622   0.007   6.532 -0.4316  0.5741  0.2681
 3593SOL    HW111678   3.643  -0.090   6.523 -1.0650  0.4800 -0.2103
 3593SOL    HW211679   3.668   0.043   6.613 -0.0712 -0.0865  0.3656
 3594SOL     OW11680   2.076   5.611   0.415  0.5217 -0.4280  0.0163
 3594SOL    HW111681   2.146   5.544   0.442 -0.5337 -1.5570  0.0218
 3594SOL    HW211682   2.041   5.587   0.324  0.7050  0.6054 -0.3352
 3595SOL     OW11683   5.743   0.918   6.320  0.5374 -0.1077  0.3477
 3595SOL    HW111684   5.779   0.944   6.409 -0.4743 -1.0902  1.0720
 3595SOL    HW211685   5.678   0.988   6.288  0.2179 -0.1914  0.8069
 3596SOL     OW11686   1.187   1.097   4.622  1.2788  0.4043 -0.5606
 3596SOL    HW111687   1.153   1.064   4.711 -1.0406  2.4336 -0.5847
 3596SOL    HW211688   1.205   1.019   4.563  1.3118 -0.9465  1.1427
 3597SOL     OW11689   3.727   3.119   3.193  0.6575 -0.2603 -0.3770
 3597SOL    HW111690   3.685   3.032   3.220  1.7181 -0.4207  0.8304
 3597SOL    HW211691   3.781   3.105   3.109 -0.5477 -0.3523 -1.1653
 3598SOL     OW11692   2.143   0.503   3.291  0.0304  0.1247  0.1373
 3598SOL    HW111693   2.175   0.412   3.266 -0.6475 -0.0156 -0.2548
 3598SOL    HW211694   2.211   0.571   3.264 -0.1907 -0.1190 -1.1210
 3599SOL     OW11695   3.708   1.371   6.752 -0.5397  0.0503  0.6079
 3599SOL    HW111696   3.731   1.423   6.835 -1.0800  1.4613 -0.1010
 3599SOL    HW211697   3.610   1.378   6.734 -0.5079 -0.6692  0.1207
 3600SOL     OW11698   5.140   2.981   1.961 -0.1978 -0.4041 -0.8840
 3600SOL    HW111699   5.159   2.886   1.986 -0.8379 -0.7742 -1.7363
 3600SOL    HW211700   5.222   3.022   1.921 -0.0113 -0.7050 -0.8132
 3601SOL     OW11701   3.187   4.893   1.635 -0.1774 -0.5579 -0.4582
 3601SOL    HW111702   3.100   4.881   1.683 -0.4618 -2.9161 -1.4185
 3601SOL    HW211703   3.244   4.812   1.648  1.0375  0.0862 -1.5240
 3602SOL     OW11704   0.084   2.373   4.703 -0.4412  0.1942  0.7423
 3602SOL    HW111705   0.178   2.405   4.693 -0.4808  0.4173  1.0621
 3602SOL    HW211706   0.078   2.279   4.670 -0.9951  1.4310 -3.1964
 3603SOL     OW11707   1.147   1.480   0.413  0.0267  0.0119 -0.2745
 3603SOL    HW111708   1.180   1.472   0.507 -2.1602  0.9052  0.6581
 3603SOL    HW211709   1.135   1.576   0.390 -1.7649 -0.2344 -0.5395
 3604SOL     OW11710   2.139   0.237   3.564 -0.4126 -0.3544  0.0608
 3604SOL    HW111711   2.175   0.182   3.488  2.4899 -0.6942  1.5574
 3604SOL    HW211712   2.191   0.322   3.571 -2.4678  0.9881  0.0448
 3605SOL     OW11713   1.275   2.687   0.152  0.1836 -0.7324  0.2199
 3605SOL    HW111714   1.194   2.635   0.178  0.2768 -0.0637  2.0280
 3605SOL    HW211715   1.247   2.773   0.109 -0.2435  0.5466  2.8323
 3606SOL     OW11716   3.464   3.522   2.354 -0.1553  0.1956  0.1283
 3606SOL    HW111717   3.396   3.526   2.281 -1.1058 -2.6242  0.7236
 3606SOL    HW211718   3.439   3.587   2.426 -2.0622 -0.5198  0.1654
 3607SOL     OW11719   4.981   4.124   0.216  0.1166  0.0087  0.5255
 3607SOL    HW111720   4.940   4.101   0.128 -2.7736  0.5417  1.5968
 3607SOL    HW211721   4.927   4.082   0.290  0.7597  1.8398  2.1284
 3608SOL     OW11722   4.428   0.475   2.696 -0.2550 -0.0945 -0.0885
 3608SOL    HW111723   4.479   0.476   2.610  1.0188  0.7682  0.6506
 3608SOL    HW211724   4.398   0.381   2.715 -0.3797 -0.3300 -1.3581
 3609SOL     OW11725   1.611   0.066   6.907  0.0449 -0.1097  0.5012
 3609SOL    HW111726   1.623   0.120   6.823  1.3569  0.2429  0.8927
 3609SOL    HW211727   1.681   0.093   6.974 -2.0470  0.8854  2.4048
 3610SOL     OW11728   2.521   4.577   3.993  0.6234  0.4391  0.1640
 3610SOL    HW111729   2.606   4.630   3.997  1.0357 -0.1911 -0.1425
 3610SOL    HW211730   2.512   4.523   4.076  1.2226 -0.5357 -0.3805
 3611SOL     OW11731   1.872   0.106   5.482  0.4435  0.0736  0.0897
 3611SOL    HW111732   1.832   0.198   5.478  0.1805 -0.0741 -1.1017
 3611SOL    HW211733   1.823   0.046   5.419  2.7533 -0.0155 -1.7707
 3612SOL     OW11734   5.110   4.964   4.159  0.2273 -0.3542  0.2702
 3612SOL    HW111735   5.031   4.923   4.205  0.3690 -0.4374  0.4384
 3612SOL    HW211736   5.133   4.911   4.078 -0.9646  0.6328 -0.7712
 3613SOL     OW11737   5.948   0.105   3.640 -0.9017 -0.1095 -0.4171
 3613SOL    HW111738   6.028   0.114   3.581 -0.0951 -0.0252  0.6565
 3613SOL    HW211739   5.969   0.042   3.715 -0.1958  3.2334  2.4607
 3614SOL     OW11740   4.200   5.445   2.974  0.4750  0.0068 -0.1455
 3614SOL    HW111741   4.106   5.471   2.952 -0.3894 -0.5760  2.5582
 3614SOL    HW211742   4.248   5.521   3.017  0.1314 -0.7009  1.5411
 3615SOL     OW11743   5.251   3.781   2.610  0.4884  0.2900  0.1007
 3615SOL    HW111744   5.200   3.854   2.565  0.6441  0.8068  0.7634
 3615SOL    HW211745   5.216   3.692   2.579  0.7394  0.6317 -1.2111
 3616SOL     OW11746   4.644   0.101   3.824  0.0706  0.0920 -0.0146
 3616SOL    HW111747   4.677   0.180   3.774  2.9810  0.0948  1.6860
 3616SOL    HW211748   4.711   0.026   3.817 -0.8300 -0.9076  1.4337
 3617SOL     OW11749   5.099   3.398   6.590  0.1652  0.4879  0.1488
 3617SOL    HW111750   5.155   3.318   6.611 -1.5289 -0.2338  2.1912
 3617SOL    HW211751   5.003   3.372   6.583 -0.3992  2.2921  0.5546
 3618SOL     OW11752   3.897   6.336   1.894  0.0361 -0.0169  0.3755
 3618SOL    HW111753   3.929   6.260   1.950  0.1065  0.8916  1.6369
 3618SOL    HW211754   3.948   6.419   1.919  1.9294 -0.0287 -2.8564
 3619SOL     OW11755   6.083   0.202   2.048 -0.4406  0.2270  0.1075
 3619SOL    HW111756   6.163   0.207   1.989  1.1865  0.0924  2.1731
 3619SOL    HW211757   6.086   0.276   2.115 -2.0247  0.1744  0.2751
 3620SOL     OW11758   0.735   6.287   6.623 -0.2040  0.4064 -0.4614
 3620SOL    HW111759   0.815   6.283   6.683 -1.2172  2.1914  1.1147
 3620SOL    HW211760   0.765   6.304   6.529  1.3315 -0.7038 -0.2033
 3621SOL     OW11761   2.983   3.866   3.489  0.2606  0.0665  0.0814
 3621SOL    HW111762   3.083   3.868   3.491  0.2918 -0.8561  1.7934
 3621SOL    HW211763   2.948   3.958   3.503  0.9113  0.1001  1.7242
 3622SOL     OW11764   4.292   2.275   6.179 -0.0913 -0.5328 -0.4588
 3622SOL    HW111765   4.268   2.245   6.087  1.0012  0.1023 -0.9711
 3622SOL    HW211766   4.337   2.365   6.174 -0.6163 -0.1864  0.7547
 3623SOL     OW11767   2.471   5.830   4.483  0.4633 -0.3078  0.4007
 3623SOL    HW111768   2.475   5.924   4.450 -0.8852  0.2703  1.7716
 3623SOL    HW211769   2.555   5.782   4.458  1.1712  1.2518 -0.3210
 3624SOL     OW11770   1.030   6.020   6.584 -0.4005 -0.3718  0.1903
 3624SOL    HW111771   0.972   5.938   6.576 -1.0419  0.2290 -2.2174
 3624SOL    HW211772   1.110   6.009   6.525  0.5636 -0.0532  1.4055
 3625SOL     OW11773   6.597   4.639   1.199  0.2265 -0.0754 -0.2776
 3625SOL    HW111774   6.645   4.723   1.175 -1.2095  0.1450 -2.6814
 3625SOL    HW211775   6.501   4.660   1.219  0.2493 -0.9615  0.9079
 3626SOL     OW11776   2.482   4.899   2.544  0.3744  0.1000  0.4767
 3626SOL    HW111777   2.538   4.831   2.592 -0.4357 -0.1662  1.0541
 3626SOL    HW211778   2.445   4.857   2.461  0.9782  0.2626  0.1173
 3627SOL     OW11779   1.764   6.272   4.829 -0.8252 -0.9768  0.5120
 3627SOL    HW111780   1.784   6.224   4.743 -1.6885  0.2558 -0.4006
 3627SOL    HW211781   1.678   6.322   4.820 -0.3812  0.0423  1.7261
 3628SOL     OW11782   1.701   1.608   1.805  0.0227  0.1506  0.0154
 3628SOL    HW111783   1.767   1.606   1.729 -1.2868  0.3729 -1.1781
 3628SOL    HW211784   1.749   1.624   1.891  1.4353  1.0638 -0.9041
 3629SOL     OW11785   5.020   4.249   1.541  0.1937  0.2702 -0.1054
 3629SOL    HW111786   5.048   4.292   1.627  0.2937 -0.0925  0.0446
 3629SOL    HW211787   5.004   4.320   1.473  1.1231  0.5159 -0.0884
 3630SOL     OW11788   3.962   0.219   3.870  0.4507 -0.3568 -0.4735
 3630SOL    HW111789   3.964   0.121   3.850 -1.3491 -0.5900  0.2101
 3630SOL    HW211790   3.996   0.235   3.962  1.2952 -0.2536 -0.7963
 3631SOL     OW11791   6.081   1.399   3.250 -0.4728  0.4690 -0.2113
 3631SOL    HW111792   6.152   1.331   3.265 -0.2135  0.7038 -0.3560
 3631SOL    HW211793   6.120   1.477   3.201 -0.2025  1.7252  1.8696
 3632SOL     OW11794   1.122   6.950   1.161 -0.2742  0.6765 -0.4038
 3632SOL    HW111795   1.207   7.002   1.171 -0.2795  0.5813  0.1780
 3632SOL    HW211796   1.044   7.010   1.180 -0.2797  0.4637  0.2798
 3633SOL     OW11797   0.047   2.107   2.439  0.2044 -0.2577 -0.2845
 3633SOL    HW111798   0.116   2.145   2.500  0.3471 -2.0495  0.7433
 3633SOL    HW211799  -0.017   2.051   2.491 -0.0295 -1.3739 -1.7021
 3634SOL     OW11800   2.893   0.291   4.448  1.1572 -0.2175 -0.0465
 3634SOL    HW111801   2.913   0.386   4.424  1.9423 -1.4540 -5.6977
 3634SOL    HW211802   2.978   0.247   4.480  1.5547  0.2620 -0.4197
 3635SOL     OW11803   0.209   2.576   0.846  0.4117  0.5640  0.2474
 3635SOL    HW111804   0.308   2.563   0.850  0.3244  0.1953  1.8843
 3635SOL    HW211805   0.167   2.537   0.928 -1.0521  1.0597 -0.2382
 3636SOL     OW11806   5.641   2.383   4.654  0.1836 -0.5348 -0.2467
 3636SOL    HW111807   5.690   2.468   4.670 -2.0593  1.0206 -1.1901
 3636SOL    HW211808   5.579   2.365   4.731  0.2217 -1.0189 -0.3208
 3637SOL     OW11809   3.760   1.979   5.084  0.3865 -0.2338 -0.3321
 3637SOL    HW111810   3.740   2.064   5.133  2.4946  0.4670 -0.5977
 3637SOL    HW211811   3.821   1.998   5.007 -1.0181 -1.6639 -1.8960
 3638SOL     OW11812   0.102   4.447   1.821  0.6680 -0.2137  0.3556
 3638SOL    HW111813   0.018   4.499   1.839  0.2235 -0.6690 -0.3433
 3638SOL    HW211814   0.181   4.505   1.839  0.2023  0.3353  0.6947
 3639SOL     OW11815   2.294   0.805   1.809 -0.5310 -0.4488 -0.0480
 3639SOL    HW111816   2.371   0.786   1.749 -0.9521 -1.7369 -0.2104
 3639SOL    HW211817   2.310   0.890   1.859  0.8042 -0.5058 -0.3640
 3640SOL     OW11818   5.449   0.943   6.460 -0.4374  0.2145  0.5042
 3640SOL    HW111819   5.486   1.008   6.394  0.6872 -1.8956 -1.0516
 3640SOL    HW211820   5.453   0.982   6.552  0.5284  2.1687 -0.3257
 3641SOL     OW11821   4.570   2.254   0.109 -0.8669  0.7719 -0.2750
 3641SOL    HW111822   4.542   2.165   0.071 -0.9377  0.8972 -0.5225
 3641SOL    HW211823   4.628   2.301   0.042 -1.3696  1.1964 -0.4153
 3642SOL     OW11824   1.817   0.389   2.431 -0.0704  0.4815  0.5118
 3642SOL    HW111825   1.843   0.471   2.380 -3.4175  1.7117  0.5482
 3642SOL    HW211826   1.803   0.412   2.528 -0.5396 -0.2654  0.6329
 3643SOL     OW11827   2.367   4.860   3.651  0.4423 -0.2778  0.1545
 3643SOL    HW111828   2.340   4.774   3.695 -1.4934  0.1581 -0.0738
 3643SOL    HW211829   2.325   4.866   3.561 -0.0614  1.1873  0.4462
 3644SOL     OW11830   1.048   6.497   5.669 -0.3712  0.0996 -0.2802
 3644SOL    HW111831   0.986   6.556   5.719 -0.6261 -0.2912 -0.1289
 3644SOL    HW211832   0.997   6.421   5.629 -0.5889  1.5552 -3.0338
 3645SOL     OW11833   1.465   4.781   3.356 -0.5452 -0.1827  0.1472
 3645SOL    HW111834   1.453   4.761   3.453 -0.0824 -2.7730 -0.2533
 3645SOL    HW211835   1.550   4.831   3.343 -2.3493  3.5832  1.3441
 3646SOL     OW11836   2.678   5.536   0.320  0.2741 -0.1869  0.6139
 3646SOL    HW111837   2.638   5.541   0.412 -1.0682 -1.5236  0.1501
 3646SOL    HW211838   2.679   5.440   0.289 -0.6868  0.3780 -1.3320
 3647SOL     OW11839   0.768   6.519   5.392 -0.2083  0.4989  0.4634
 3647SOL    HW111840   0.741   6.550   5.300 -0.3373  0.9907  0.6634
 3647SOL    HW211841   0.860   6.480   5.388  0.8131  2.7424  0.5460
 3648SOL     OW11842   4.574   5.939   5.689  0.1599  0.0922  0.2202
 3648SOL    HW111843   4.478   5.948   5.666 -0.1034 -0.9620  0.8109
 3648SOL    HW211844   4.623   6.023   5.667 -0.8177  0.4947 -0.4453
 3649SOL     OW11845   5.886   0.691   5.918  0.3348  0.0782 -0.5401
 3649SOL    HW111846   5.986   0.690   5.916  0.3616  1.4697 -1.5262
 3649SOL    HW211847   5.854   0.673   6.011  1.5600  1.2927  0.1482
 3650SOL     OW11848   4.389   3.473   1.211  0.6022 -0.1107 -0.0359
 3650SOL    HW111849   4.368   3.383   1.250  2.1713 -0.5072 -0.0694
 3650SOL    HW211850   4.481   3.472   1.173  0.5548  1.4598 -0.2274
 3651SOL     OW11851   5.482   3.051   3.723  0.1897 -0.0533  0.1868
 3651SOL    HW111852   5.423   2.991   3.775 -0.0785 -1.2562 -1.4215
 3651SOL    HW211853   5.433   3.135   3.699 -1.0008 -1.1111 -1.2831
 3652SOL     OW11854   6.613   6.820   0.003 -0.5580 -0.1845 -0.3988
 3652SOL    HW111855   6.699   6.871  -0.001 -0.1461 -0.8954 -0.8742
 3652SOL    HW211856   6.570   6.835   0.092  0.4065 -0.3498  0.1112
 3653SOL     OW11857   4.405   1.474   6.403  0.0198  0.3594  0.0469
 3653SOL    HW111858   4.322   1.514   6.364 -0.1064  0.4469  0.4099
 3653SOL    HW211859   4.462   1.438   6.328 -0.4529  0.0862 -0.1904
 3654SOL     OW11860   0.171   4.361   2.153  0.0599 -0.1645  0.5684
 3654SOL    HW111861   0.213   4.347   2.063 -2.1981 -0.9722 -0.4339
 3654SOL    HW211862   0.095   4.425   2.144 -1.8181 -2.1827  1.3619
 3655SOL     OW11863   5.368   1.012   1.847  0.1924 -0.0360  0.4473
 3655SOL    HW111864   5.434   0.989   1.919  0.8997 -0.5529 -0.3538
 3655SOL    HW211865   5.395   0.969   1.761 -0.7779  0.3733 -0.0852
 3656SOL     OW11866   6.278   0.258   2.277  0.5183 -0.2234 -0.2786
 3656SOL    HW111867   6.279   0.167   2.317  0.5023 -0.0209  0.1942
 3656SOL    HW211868   6.335   0.260   2.196  1.0517 -0.4869  0.0822
 3657SOL     OW11869   4.925   4.176   6.915 -0.0812  0.4423  0.1321
 3657SOL    HW111870   4.883   4.124   6.841 -0.6408 -0.5920  1.1435
 3657SOL    HW211871   4.890   4.269   6.915 -2.6641 -0.4308  1.0872
 3658SOL     OW11872   5.795   0.871   5.123 -1.1120  0.7902 -0.1002
 3658SOL    HW111873   5.741   0.833   5.048 -0.5136  1.0516 -0.6718
 3658SOL    HW211874   5.763   0.963   5.144 -1.4614  0.6132  0.1583
 3659SOL     OW11875   4.550   0.719   1.691  0.2942  0.1759 -0.1227
 3659SOL    HW111876   4.546   0.630   1.647  1.6784  0.2815 -0.5237
 3659SOL    HW211877   4.462   0.765   1.682 -0.2220 -0.8575 -0.5148
 3660SOL     OW11878   1.822   0.263   5.883 -0.3048  0.2334  0.2673
 3660SOL    HW111879   1.873   0.285   5.966  1.7724  0.3438 -0.9887
 3660SOL    HW211880   1.773   0.344   5.852 -0.4235  0.4170  0.9157
 3661SOL     OW11881   3.777   4.926   0.266  0.8384  0.2572  0.2707
 3661SOL    HW111882   3.819   4.891   0.183  2.3145  0.4865  0.9002
 3661SOL    HW211883   3.769   4.851   0.333  1.6728  0.5486  0.7054
 3662SOL     OW11884   1.526   5.237   5.006 -0.2000 -0.4170 -0.5962
 3662SOL    HW111885   1.619   5.218   4.973 -0.5442  0.2226 -1.9865
 3662SOL    HW211886   1.530   5.256   5.105  0.9588 -1.6088 -0.3770
 3663SOL     OW11887   0.266   6.690   4.629  0.1567  0.0229  0.1616
 3663SOL    HW111888   0.291   6.786   4.644 -0.5503  0.2304  0.0511
 3663SOL    HW211889   0.238   6.649   4.715  1.6818 -0.4665  0.4569
 3664SOL     OW11890   5.607   4.197   1.271 -0.5759  0.1730 -0.3036
 3664SOL    HW111891   5.581   4.255   1.193 -0.8774 -0.5844 -0.7779
 3664SOL    HW211892   5.595   4.249   1.356  0.2662  1.1875 -0.7797
 3665SOL     OW11893   5.071   5.684   4.592 -0.1060 -0.1869  0.2267
 3665SOL    HW111894   5.103   5.664   4.499  1.7560  2.1040  0.3006
 3665SOL    HW211895   5.117   5.624   4.657  0.0490 -0.4882 -0.1551
 3666SOL     OW11896   5.208   3.895   6.931  0.4991 -0.0219 -0.5081
 3666SOL    HW111897   5.201   3.827   6.859 -0.9024  1.1260 -1.5251
 3666SOL    HW211898   5.121   3.900   6.981  1.1540 -0.1693  0.6848
 3667SOL     OW11899   5.843   6.065   5.724  0.8149  0.1672 -0.8143
 3667SOL    HW111900   5.840   6.072   5.624  1.8115 -1.7379 -1.0280
 3667SOL    HW211901   5.899   5.986   5.750  1.3770  1.1828  1.2765
 3668SOL     OW11902   2.938   3.078   5.868 -0.1611 -0.4599 -0.1303
 3668SOL    HW111903   2.974   3.138   5.940 -1.5603  1.9100 -1.2723
 3668SOL    HW211904   3.007   3.068   5.796 -0.7058  1.8838 -1.0717
 3669SOL     OW11905   2.289   4.791   6.992  0.3599 -0.2182 -0.2989
 3669SOL    HW111906   2.342   4.749   7.065 -0.9235 -1.1450  0.1185
 3669SOL    HW211907   2.317   4.887   6.982  1.7360 -0.5412  0.2386
 3670SOL     OW11908   0.190   5.712   2.579 -0.1469  0.5633  0.3762
 3670SOL    HW111909   0.131   5.667   2.512  1.3583 -0.2544 -0.4513
 3670SOL    HW211910   0.145   5.713   2.668 -1.1160 -0.6515 -0.0759
 3671SOL     OW11911   2.115   6.441   2.729  0.3314 -0.2792 -0.0880
 3671SOL    HW111912   2.189   6.509   2.732  1.2853 -1.2955 -0.2289
 3671SOL    HW211913   2.119   6.384   2.811 -2.6806  2.0435  1.9146
 3672SOL     OW11914   1.977   5.427   4.392 -0.3583 -0.1945  0.1791
 3672SOL    HW111915   1.881   5.401   4.385 -0.2979 -0.6770  1.0676
 3672SOL    HW211916   2.035   5.348   4.371 -0.1617 -0.2299  0.8393
 3673SOL     OW11917   3.542   5.814   5.814  0.0430 -0.1441  0.4100
 3673SOL    HW111918   3.597   5.895   5.830  1.7488 -1.0453 -0.5824
 3673SOL    HW211919   3.535   5.797   5.716 -2.5542  0.2482  0.4524
 3674SOL     OW11920   6.216   2.593   4.972 -0.2276  1.1869  0.1655
 3674SOL    HW111921   6.292   2.532   4.993  1.4878  2.8767 -0.7985
 3674SOL    HW211922   6.154   2.549   4.907  1.4962  0.7711 -1.2881
 3675SOL     OW11923   5.898   5.254   6.359  0.0796 -0.8026 -0.2837
 3675SOL    HW111924   5.854   5.321   6.418  0.5915  0.6458 -1.4826
 3675SOL    HW211925   5.872   5.270   6.264  1.6549 -1.1100 -0.8021
 3676SOL     OW11926   4.633   0.240   5.576  0.1387  0.4266  0.6552
 3676SOL    HW111927   4.635   0.313   5.506 -2.9619 -0.1598 -0.1838
 3676SOL    HW211928   4.547   0.245   5.627  1.2944 -0.6847  2.8396
 3677SOL     OW11929   2.183   6.134   6.463 -0.6221  0.4655 -0.5261
 3677SOL    HW111930   2.174   6.036   6.477  2.7124 -0.0274 -1.0947
 3677SOL    HW211931   2.108   6.166   6.405 -1.4893 -1.8192 -0.7805
 3678SOL     OW11932   4.411   1.578   3.978  0.2651 -0.7398 -0.1249
 3678SOL    HW111933   4.504   1.591   4.012 -0.3670 -0.0997  1.4691
 3678SOL    HW211934   4.409   1.502   3.914  2.2635  0.6020 -1.8984
 3679SOL     OW11935   0.634   1.196   1.053 -0.3726 -0.0298  0.7697
 3679SOL    HW111936   0.535   1.199   1.040 -0.7028 -1.2975  2.5049
 3679SOL    HW211937   0.663   1.272   1.111 -0.3521  0.2507  0.3921
 3680SOL     OW11938   6.165   2.146   3.363 -0.0392 -0.0200 -0.2963
 3680SOL    HW111939   6.113   2.089   3.299  0.7416 -1.1890  0.0883
 3680SOL    HW211940   6.234   2.091   3.409 -1.1390  0.5571  2.2218
 3681SOL     OW11941   3.198   2.969   6.993  0.2812 -0.3549  0.7518
 3681SOL    HW111942   3.146   3.008   7.069  0.9069  0.4553  0.7741
 3681SOL    HW211943   3.243   2.885   7.022 -1.0476 -1.1055  0.7186
 3682SOL     OW11944   5.934   5.780   5.450 -0.4168 -0.2211 -0.2422
 3682SOL    HW111945   5.932   5.831   5.363 -0.8736  0.3058  0.0735
 3682SOL    HW211946   6.029   5.758   5.472 -0.3964 -1.7422 -1.6621
 3683SOL     OW11947   2.835   4.839   2.625  0.1114 -0.5115  0.2260
 3683SOL    HW111948   2.754   4.789   2.654  0.3385 -0.8006  0.3693
 3683SOL    HW211949   2.877   4.793   2.546  0.1649 -0.3931  0.1845
 3684SOL     OW11950   2.387   5.561   3.662  0.1893  0.5294  0.5491
 3684SOL    HW111951   2.314   5.628   3.649 -0.6949 -0.5269  0.0273
 3684SOL    HW211952   2.450   5.565   3.584 -0.2122  0.3157  0.2134
 3685SOL     OW11953   2.142   2.198   1.833 -0.4704 -0.0789 -0.6374
 3685SOL    HW111954   2.226   2.211   1.885 -0.7205 -2.1689  0.4173
 3685SOL    HW211955   2.161   2.144   1.751 -0.7693 -0.6632 -0.3322
 3686SOL     OW11956   5.286   3.495   0.886 -0.3990 -0.2367 -0.3920
 3686SOL    HW111957   5.254   3.585   0.856  0.5472  0.3141  0.1732
 3686SOL    HW211958   5.208   3.433   0.896 -1.0132  0.3663 -1.2648
 3687SOL     OW11959   6.137   4.821   2.822  0.1955 -0.1831 -0.6802
 3687SOL    HW111960   6.131   4.760   2.901 -0.0135  0.7647  0.0602
 3687SOL    HW211961   6.146   4.916   2.854  0.8965  0.1487 -1.7965
 3688SOL     OW11962   4.635   5.171   6.672  0.2203 -0.1562  0.1399
 3688SOL    HW111963   4.668   5.265   6.674 -1.7139  0.6269 -1.1399
 3688SOL    HW211964   4.702   5.113   6.624  1.4224  0.5382  0.9287
 3689SOL     OW11965   2.470   2.540   1.467 -0.6984 -0.7428  0.1771
 3689SOL    HW111966   2.428   2.511   1.554 -0.3045  1.6950  1.2573
 3689SOL    HW211967   2.465   2.639   1.460  1.4803 -0.6944 -1.4770
 3690SOL     OW11968   0.102   1.420   4.934 -0.2197 -0.6262 -0.4448
 3690SOL    HW111969   0.184   1.382   4.891 -0.2353  0.2475 -1.2938
 3690SOL    HW211970   0.098   1.519   4.917 -0.7905 -0.4366  0.6841
 3691SOL     OW11971   6.428   2.455   6.224  0.1397 -0.2559  0.2557
 3691SOL    HW111972   6.382   2.417   6.304  1.2774 -1.9419  0.1771
 3691SOL    HW211973   6.380   2.537   6.193 -0.5725  0.1910  2.3787
 3692SOL     OW11974   1.816   4.488   3.256  0.3910 -0.6580  0.0818
 3692SOL    HW111975   1.882   4.424   3.218  1.7804  0.2334  0.8908
 3692SOL    HW211976   1.774   4.449   3.338  0.7775 -0.7764  0.2251
 3693SOL     OW11977   2.990   0.954   0.854  0.3724  0.7644 -0.2333
 3693SOL    HW111978   3.043   1.038   0.868  0.3238  1.0828 -1.8137
 3693SOL    HW211979   2.900   0.977   0.817 -0.8936  0.2136  2.2947
 3694SOL     OW11980   6.103   5.783   0.937 -0.2816  0.0345 -0.3035
 3694SOL    HW111981   6.145   5.869   0.965  1.4829 -0.2914 -1.8228
 3694SOL    HW211982   6.071   5.790   0.843  1.2058 -1.3937 -0.9635
 3695SOL     OW11983   6.918   6.445   6.715  0.7618 -0.7040 -0.2929
 3695SOL    HW111984   6.886   6.530   6.674 -2.2604 -1.9494 -0.7678
 3695SOL    HW211985   6.910   6.451   6.814 -0.4108 -0.7411 -0.3701
 3696SOL     OW11986   3.528   3.986   4.766 -0.4029 -0.5248  0.1638
 3696SOL    HW111987   3.604   4.050   4.753 -1.1857  0.2986 -0.5587
 3696SOL    HW211988   3.563   3.893   4.771  0.6242 -0.1975 -0.5483
 3697SOL     OW11989   2.761   5.284   6.122 -0.1756 -0.3264  0.1017
 3697SOL    HW111990   2.724   5.321   6.207  0.6238  0.0703  0.2831
 3697SOL    HW211991   2.731   5.342   6.045 -0.0242 -0.0733  0.2327
 3698SOL     OW11992   3.072   0.829   0.633  0.4579 -0.1341 -0.1404
 3698SOL    HW111993   3.040   0.875   0.716  0.7206 -1.4141  0.6973
 3698SOL    HW211994   3.082   0.896   0.560 -0.8216  0.8502  0.5434
 3699SOL     OW11995   5.433   6.085   3.516 -0.5600 -0.4229  0.2426
 3699SOL    HW111996   5.387   6.150   3.456  0.8735  0.7829  0.4064
 3699SOL    HW211997   5.454   6.002   3.464 -1.5900 -0.4098 -0.2170
 3700SOL     OW11998   3.077   2.690   0.324  1.1768 -0.0038 -0.4512
 3700SOL    HW111999   3.147   2.740   0.374 -0.0422 -0.4114  1.8221
 3700SOL    HW212000   3.082   2.593   0.349 -1.0312  0.1569  0.9510
 3701SOL     OW12001   2.840   4.078   6.167 -0.2509 -0.1451  0.2569
 3701SOL    HW112002   2.762   4.089   6.229  0.5091 -2.2001  1.7128
 3701SOL    HW212003   2.893   3.998   6.196  1.4238  0.1801 -1.7457
 3702SOL     OW12004   1.483   0.265   0.384 -0.1170  0.0906  0.3208
 3702SOL    HW112005   1.573   0.224   0.401  0.3797  1.8409  2.5064
 3702SOL    HW212006   1.416   0.224   0.446 -0.4185  0.0051 -0.0658
 3703SOL     OW12007   0.504   4.696   1.999  0.2013 -0.5442  0.0977
 3703SOL    HW112008   0.580   4.630   2.000  0.6010 -0.0830  0.6104
 3703SOL    HW212009   0.531   4.779   2.048 -0.7810 -0.5390  0.6613
 3704SOL     OW12010   5.351   0.273   4.795 -0.3007 -0.5638 -0.2230
 3704SOL    HW112011   5.319   0.289   4.888  0.7390  1.1437 -0.1169
 3704SOL    HW212012   5.406   0.351   4.765  0.8634 -1.8613 -1.6189
 3705SOL     OW12013   0.984   2.044   1.100 -0.1192  0.6644  0.3056
 3705SOL    HW112014   1.061   2.039   1.163  0.1101 -2.0308 -0.0596
 3705SOL    HW212015   0.995   1.975   1.028 -2.5960  0.5548 -0.0694
 3706SOL     OW12016   4.652   5.594   5.188 -0.0366  0.3542 -0.6081
 3706SOL    HW112017   4.612   5.666   5.244  0.6698 -0.1774  0.6000
 3706SOL    HW212018   4.740   5.566   5.226 -0.2337 -1.0536 -1.1392
 3707SOL     OW12019   4.890   6.691   4.632 -0.0675 -0.5830  0.4873
 3707SOL    HW112020   4.965   6.715   4.694  0.9058 -1.6437 -0.2417
 3707SOL    HW212021   4.854   6.601   4.656 -0.7428 -0.3175  0.4845
 3708SOL     OW12022   0.042   0.864   2.346  0.2304  0.6836  0.2783
 3708SOL    HW112023  -0.048   0.891   2.314  0.0462 -2.5098 -2.4573
 3708SOL    HW212024   0.112   0.907   2.288  0.5172  2.3886  1.7918
 3709SOL     OW12025   6.911   4.616   1.889 -0.4606  0.3510 -0.4364
 3709SOL    HW112026   6.860   4.664   1.817 -1.9241 -1.9122 -1.0117
 3709SOL    HW212027   6.848   4.587   1.960  0.2705 -1.1628 -0.3789
 3710SOL     OW12028   4.484   5.775   0.939 -0.9433  0.0776 -0.0724
 3710SOL    HW112029   4.487   5.798   1.036 -0.2782  0.9006 -0.2801
 3710SOL    HW212030   4.441   5.685   0.927  2.5188 -1.9159  1.3082
 3711SOL     OW12031   4.267   0.794   6.169  0.4869  0.2023  0.2546
 3711SOL    HW112032   4.323   0.875   6.150  0.3751  0.5343  1.2991
 3711SOL    HW212033   4.192   0.790   6.103  1.6305 -0.1675 -1.0741
 3712SOL     OW12034   4.782   5.883   1.199  0.3404 -0.2497 -0.2617
 3712SOL    HW112035   4.804   5.788   1.175  0.1524 -0.2375 -0.4874
 3712SOL    HW212036   4.866   5.934   1.216  0.5858  0.0808 -2.1748
 3713SOL     OW12037   1.657   4.617   6.884 -0.0336 -0.4368 -0.1143
 3713SOL    HW112038   1.631   4.589   6.976 -1.6720  1.5203  0.0815
 3713SOL    HW212039   1.706   4.704   6.887 -1.7844  0.6462 -1.1623
 3714SOL     OW12040   6.536   1.640   2.022 -0.1376  0.0796 -0.5152
 3714SOL    HW112041   6.543   1.657   1.923  2.0105 -0.8715 -0.5872
 3714SOL    HW212042   6.602   1.697   2.071 -0.2410 -0.4255  0.2312
 3715SOL     OW12043   1.479   6.355   2.228  0.4456  0.2858  0.0534
 3715SOL    HW112044   1.381   6.367   2.211  0.4288 -0.0679 -0.1088
 3715SOL    HW212045   1.519   6.300   2.155  0.8802  0.8972 -0.1811
 3716SOL     OW12046   0.060   3.822   3.707 -0.3794 -0.1552 -0.3623
 3716SOL    HW112047   0.038   3.776   3.621  1.3319 -1.9054  0.0581
 3716SOL    HW212048   0.038   3.919   3.700  1.6533  0.2233 -3.5465
 3717SOL     OW12049   4.791   6.948   5.270  0.3218 -0.4176  0.1330
 3717SOL    HW112050   4.890   6.933   5.275 -0.0013 -3.1251  0.0423
 3717SOL    HW212051   4.760   6.932   5.177 -0.1830  0.6833  0.1043
 3718SOL     OW12052   3.794   4.116   6.350  0.3273  0.3698  0.7170
 3718SOL    HW112053   3.749   4.038   6.308  1.3012  0.9801 -1.6112
 3718SOL    HW212054   3.890   4.094   6.369 -0.1074  0.0672  2.8718
 3719SOL     OW12055   4.350   1.909   3.825  0.0034 -0.9493  0.2548
 3719SOL    HW112056   4.345   1.994   3.774 -1.0049 -0.8879  0.4397
 3719SOL    HW212057   4.380   1.928   3.918  0.7841 -0.9337  0.0120
 3720SOL     OW12058   4.546   5.661   4.225  0.8027  0.6928  0.4923
 3720SOL    HW112059   4.518   5.604   4.147  0.7504  0.3520  0.7591
 3720SOL    HW212060   4.497   5.631   4.307  2.6701 -0.5683  1.2027
 3721SOL     OW12061   3.844   3.512   1.786  0.4961  1.0017 -0.0339
 3721SOL    HW112062   3.856   3.472   1.695  3.1735  2.0694 -0.2507
 3721SOL    HW212063   3.760   3.566   1.788 -0.7542 -0.7997 -1.1416
 3722SOL     OW12064   6.341   7.004   4.872 -0.4523 -0.1334 -0.5157
 3722SOL    HW112065   6.300   6.929   4.821  0.1661 -2.0587  1.6402
 3722SOL    HW212066   6.379   6.969   4.958  1.6394  2.3098 -0.3117
 3723SOL     OW12067   3.076   3.485   5.342 -0.6982  0.4020  0.4000
 3723SOL    HW112068   3.076   3.584   5.327 -0.5472  0.3962  0.3654
 3723SOL    HW212069   2.982   3.452   5.341 -0.8975  0.8205  2.1990
 3724SOL     OW12070   4.410   2.925   0.655 -0.1648 -0.3318 -0.2661
 3724SOL    HW112071   4.317   2.925   0.617  0.0248  0.8785 -0.7641
 3724SOL    HW212072   4.405   2.901   0.752 -1.2069  1.2801  0.1233
 3725SOL     OW12073   4.445   6.280   7.009  0.0007 -0.2764 -0.5716
 3725SOL    HW112074   4.372   6.234   7.060 -0.3362 -1.4644 -2.0501
 3725SOL    HW212075   4.475   6.221   6.934 -0.5535  1.9629 -2.6699
 3726SOL     OW12076   1.307   6.433   4.505 -0.3656 -0.0080 -0.4693
 3726SOL    HW112077   1.296   6.460   4.409 -1.4255  0.1509 -0.3159
 3726SOL    HW212078   1.390   6.380   4.516 -0.6615 -0.7363 -1.6335
 3727SOL     OW12079   6.628   6.037   1.179  0.5802  0.5978  0.4390
 3727SOL    HW112080   6.579   6.123   1.166 -2.4387 -0.6835  2.1364
 3727SOL    HW212081   6.604   5.998   1.268  1.8833 -1.9625 -0.2251
 3728SOL     OW12082   3.668   3.490   3.436 -0.3575 -0.1995 -0.6907
 3728SOL    HW112083   3.750   3.488   3.492  0.0265 -0.2490 -1.2478
 3728SOL    HW212084   3.592   3.529   3.489  0.1946  0.4909 -0.3984
 3729SOL     OW12085   6.548   3.485   0.629  0.7108  0.2466  0.4593
 3729SOL    HW112086   6.463   3.504   0.579  0.3591 -1.1083  0.5121
 3729SOL    HW212087   6.529   3.484   0.727  1.3225  2.5004  0.6459
 3730SOL     OW12088   1.686   1.964   1.513 -0.2903 -0.2817  0.0266
 3730SOL    HW112089   1.726   2.034   1.572 -1.3656 -0.6821  1.2829
 3730SOL    HW212090   1.632   1.900   1.569 -0.4252 -1.3392 -1.2555
 3731SOL     OW12091   5.895   2.347   1.625 -0.3352 -0.4552 -0.6752
 3731SOL    HW112092   5.907   2.358   1.527 -0.2762  0.2277 -0.5964
 3731SOL    HW212093   5.801   2.369   1.651 -0.1897 -0.0315 -0.4989
 3732SOL     OW12094   6.533   2.473   2.180 -0.3340  0.1852  0.1262
 3732SOL    HW112095   6.502   2.382   2.150 -1.7974  0.4477  0.7393
 3732SOL    HW212096   6.474   2.543   2.141 -0.4964  0.7260  1.2881
 3733SOL     OW12097   0.519   0.503   5.084 -0.3080 -0.6074 -0.3548
 3733SOL    HW112098   0.583   0.481   5.158 -0.5897  0.7577  0.3238
 3733SOL    HW212099   0.501   0.421   5.031  1.4328 -1.1943 -0.1134
 3734SOL     OW12100   2.795   4.833   1.263 -0.4166  0.0857  0.1271
 3734SOL    HW112101   2.815   4.915   1.317 -1.0789  0.5037 -0.2564
 3734SOL    HW212102   2.878   4.777   1.255  0.0519  0.7459  0.3379
 3735SOL     OW12103   0.051   3.488   2.774  0.0719 -0.6046 -0.3591
 3735SOL    HW112104   0.034   3.584   2.751 -2.2281 -1.1751 -1.3388
 3735SOL    HW212105   0.071   3.436   2.691 -0.0588 -1.2125 -0.0189
 3736SOL     OW12106   4.007   3.678   2.868  0.4759 -0.0181 -0.5436
 3736SOL    HW112107   4.053   3.747   2.924  0.3619 -1.8701  2.0351
 3736SOL    HW212108   3.908   3.684   2.883  0.4980 -0.9930  0.0905
 3737SOL     OW12109   1.618   4.474   0.436 -0.1562  0.7278 -0.2673
 3737SOL    HW112110   1.698   4.532   0.455  0.0317 -0.1546  1.9482
 3737SOL    HW212111   1.537   4.532   0.430  0.4491  1.5113 -1.2718
 3738SOL     OW12112   5.484   4.298   2.353 -0.1802  0.3809 -0.3238
 3738SOL    HW112113   5.420   4.240   2.402  0.5725  0.6779  1.0769
 3738SOL    HW212114   5.561   4.320   2.413  1.0431  0.3506 -1.8248
 3739SOL     OW12115   6.266   6.004   0.982  0.3412 -0.4831  0.0868
 3739SOL    HW112116   6.349   6.009   0.927 -0.3686  1.1603 -0.9515
 3739SOL    HW212117   6.213   6.089   0.969 -0.4550 -0.5721  2.3958
 3740SOL     OW12118   0.109   2.680   3.683  0.4662 -0.1365 -0.5188
 3740SOL    HW112119   0.192   2.662   3.736  1.3133  3.0413 -0.5273
 3740SOL    HW212120   0.035   2.705   3.745  0.2800 -0.3770 -0.6441
 3741SOL     OW12121   2.192   5.640   6.902 -0.6606 -0.1957  0.2893
 3741SOL    HW112122   2.189   5.616   7.000 -3.3103 -0.6056  0.1901
 3741SOL    HW212123   2.241   5.568   6.853  1.8532  0.6515  1.4165
 3742SOL     OW12124   5.335   6.515   0.743  0.1149 -0.8480  0.1528
 3742SOL    HW112125   5.357   6.427   0.702 -0.1411 -0.8218 -0.0410
 3742SOL    HW212126   5.377   6.521   0.833 -0.2035 -1.3300  0.3363
 3743SOL     OW12127   4.016   4.029   5.137 -0.2774 -0.0960 -0.1919
 3743SOL    HW112128   4.064   3.982   5.063  1.8200  0.8718  0.4922
 3743SOL    HW212129   4.034   3.982   5.223 -1.6645 -0.4686 -0.0771
 3744SOL     OW12130   1.128   6.676   1.192 -0.0176 -0.0251 -0.4203
 3744SOL    HW112131   1.121   6.775   1.204 -0.9914 -0.2688  1.3387
 3744SOL    HW212132   1.047   6.643   1.143  0.6352  0.1064 -1.6262
 3745SOL     OW12133   4.904   2.070   0.783 -0.4241 -0.0899  0.0843
 3745SOL    HW112134   4.976   2.086   0.715  0.5274  2.6283  1.6018
 3745SOL    HW212135   4.944   2.069   0.875 -2.0008 -1.3748  0.8121
 3746SOL     OW12136   1.334   4.270   2.364 -0.2549 -0.2016 -0.0364
 3746SOL    HW112137   1.307   4.174   2.352 -1.6039  0.1840 -0.2039
 3746SOL    HW212138   1.432   4.275   2.382 -0.4598 -1.7707  1.9012
 3747SOL     OW12139   4.530   1.717   3.307 -0.4199  0.3278 -0.6127
 3747SOL    HW112140   4.530   1.624   3.343 -2.9599  0.4386 -0.1002
 3747SOL    HW212141   4.617   1.762   3.329 -0.0624 -1.1461  1.2516
 3748SOL     OW12142   5.310   2.581   2.728  0.4644  0.0298 -0.4547
 3748SOL    HW112143   5.347   2.657   2.781 -1.3355  0.0418  0.8432
 3748SOL    HW212144   5.338   2.494   2.770  1.2360 -0.0324 -1.0583
 3749SOL     OW12145   5.235   2.301   5.592 -0.2919  0.1713  0.6926
 3749SOL    HW112146   5.283   2.342   5.515 -1.6280  2.7258  1.1093
 3749SOL    HW212147   5.270   2.208   5.607  1.4701  0.3556 -1.6089
 3750SOL     OW12148   3.461   0.684   2.866 -0.2599  0.4527 -0.3690
 3750SOL    HW112149   3.396   0.714   2.796 -0.1412 -1.5306 -1.4016
 3750SOL    HW212150   3.411   0.652   2.947 -0.4153  2.2028  0.2597
 3751SOL     OW12151   2.348   0.601   4.953  0.3470 -0.8152  0.1983
 3751SOL    HW112152   2.271   0.632   5.009  1.2110  0.9137  0.5001
 3751SOL    HW212153   2.422   0.668   4.960  1.2485 -1.6144 -1.3998
 3752SOL     OW12154   3.240   5.107   6.094  0.4361  0.5210 -0.0628
 3752SOL    HW112155   3.161   5.167   6.102 -0.5549 -0.7052 -0.3200
 3752SOL    HW212156   3.227   5.044   6.018  2.0907  0.8856 -0.6954
 3753SOL     OW12157   0.722   2.961   2.642 -0.2220 -0.2974 -0.0747
 3753SOL    HW112158   0.651   2.944   2.575 -0.6340  1.1263 -0.0218
 3753SOL    HW212159   0.772   3.044   2.618 -0.3051  0.1788  1.2955
 3754SOL     OW12160   4.126   6.681   1.840 -0.3045  0.2852 -0.3328
 3754SOL    HW112161   4.147   6.779   1.850 -0.1015  0.3735 -1.4644
 3754SOL    HW212162   4.059   6.655   1.908 -0.6188  1.3051 -0.2282
 3755SOL     OW12163   3.451   5.582   3.159  0.2843 -0.1909 -0.9852
 3755SOL    HW112164   3.521   5.612   3.094  0.8749 -0.1107 -0.3210
 3755SOL    HW212165   3.377   5.536   3.109  0.6298  0.0441 -1.7324
 3756SOL     OW12166   3.817   1.729   2.665  0.2949  0.6387  0.7071
 3756SOL    HW112167   3.903   1.765   2.701  1.9228 -0.7087 -1.5181
 3756SOL    HW212168   3.759   1.805   2.634  1.0211  1.5491  1.5302
 3757SOL     OW12169   1.774   5.442   4.088 -0.2192  0.5342  0.2668
 3757SOL    HW112170   1.746   5.414   4.179  0.6388  1.8511  0.9637
 3757SOL    HW212171   1.874   5.437   4.080 -0.2977  0.1159 -0.7267
 3758SOL     OW12172   4.268   1.847   1.709 -0.1384  0.3121  0.1021
 3758SOL    HW112173   4.220   1.888   1.631  1.5186 -0.1494 -1.2080
 3758SOL    HW212174   4.346   1.794   1.676  0.0499 -0.6873  2.0322
 3759SOL     OW12175   0.701   4.621   3.909  0.3178 -0.0605 -0.4205
 3759SOL    HW112176   0.735   4.653   3.821  1.7072  1.7986  0.7239
 3759SOL    HW212177   0.619   4.673   3.934 -3.0124 -3.6983 -2.5994
 3760SOL     OW12178   5.212   5.110   5.075  0.4133 -0.4111  0.4905
 3760SOL    HW112179   5.152   5.106   4.995 -0.8307 -0.2890  1.3889
 3760SOL    HW212180   5.219   5.205   5.106  0.7387 -0.4800  0.6244
 3761SOL     OW12181   2.634   4.369   6.719 -0.5954  0.0571 -0.3778
 3761SOL    HW112182   2.700   4.443   6.730  1.0298 -1.2881 -0.6846
 3761SOL    HW212183   2.595   4.374   6.627  0.0964  0.0748 -0.6767
 3762SOL     OW12184   2.881   3.689   5.127  0.0399 -0.0512  0.6384
 3762SOL    HW112185   2.916   3.621   5.062  0.9956 -0.5388  1.6291
 3762SOL    HW212186   2.869   3.777   5.080  1.1557 -0.2666 -0.1039
 3763SOL     OW12187   6.140   1.526   2.716 -0.5646  0.3157  0.5839
 3763SOL    HW112188   6.225   1.524   2.768 -1.1708  1.7913  1.7074
 3763SOL    HW212189   6.127   1.438   2.670  1.5011  0.0274  0.4436
 3764SOL     OW12190   6.094   4.245   1.422  0.3512 -0.0807  0.2495
 3764SOL    HW112191   6.188   4.268   1.400  0.4175  0.1767  0.7913
 3764SOL    HW212192   6.045   4.327   1.452  0.8537 -0.7416  3.1312
 3765SOL     OW12193   3.251   2.538   6.380  0.2240 -0.4449  0.2949
 3765SOL    HW112194   3.190   2.616   6.398 -0.1817 -0.7256  0.1578
 3765SOL    HW212195   3.220   2.459   6.433  1.0094 -0.3419  0.9263
 3766SOL     OW12196   6.226   5.627   0.328  0.4910 -0.1295  0.1970
 3766SOL    HW112197   6.306   5.568   0.336  1.1550  0.6074 -0.7449
 3766SOL    HW212198   6.151   5.589   0.381  0.8695 -1.8730 -0.4514
 3767SOL     OW12199   0.264   2.156   1.042 -0.4077 -0.6040  0.7881
 3767SOL    HW112200   0.286   2.222   0.969 -2.4739 -1.6529 -0.9011
 3767SOL    HW212201   0.343   2.096   1.057  0.0954 -0.3140 -0.5362
 3768SOL     OW12202   6.901   3.610   3.690 -0.0468  0.0607 -0.6948
 3768SOL    HW112203   6.920   3.512   3.679  1.1350  0.2950 -0.7982
 3768SOL    HW212204   6.896   3.653   3.600  0.0487  0.2093 -0.6286
 3769SOL     OW12205   1.174   3.020   1.829 -0.1653 -0.0713  0.7098
 3769SOL    HW112206   1.186   3.051   1.924 -2.0331  0.7175  0.7231
 3769SOL    HW212207   1.256   3.043   1.777  0.9051 -0.5201  2.1203
 3770SOL     OW12208   0.894   0.102   1.202 -0.2448 -0.2667 -0.2244
 3770SOL    HW112209   0.827   0.164   1.243 -1.4862 -0.9809 -1.1133
 3770SOL    HW212210   0.897   0.016   1.254 -0.9305 -0.7036 -0.8872
 3771SOL     OW12211   5.949   2.389   0.787  0.0201  0.3770  0.4328
 3771SOL    HW112212   5.971   2.402   0.690  0.6655 -0.3191  0.4804
 3771SOL    HW212213   5.857   2.425   0.805 -1.0046 -1.3669 -0.9229
 3772SOL     OW12214   6.172   0.618   2.882 -0.0737  0.0238  0.1415
 3772SOL    HW112215   6.104   0.591   2.951  1.3752  1.0348  2.0853
 3772SOL    HW212216   6.158   0.713   2.856 -0.0618 -0.0862 -0.2668
 3773SOL     OW12217   0.779   4.521   4.272 -0.0392 -0.3021 -0.0082
 3773SOL    HW112218   0.703   4.461   4.299  0.2782 -1.1593 -0.9588
 3773SOL    HW212219   0.743   4.605   4.231 -0.4845 -0.6671 -0.3734
 3774SOL     OW12220   3.517   5.213   1.139 -0.0842 -0.5010  0.2096
 3774SOL    HW112221   3.509   5.145   1.066  0.5777 -1.2962  0.8528
 3774SOL    HW212222   3.540   5.302   1.100  0.8704 -1.0471 -0.5247
 3775SOL     OW12223   0.946   4.353   0.535  0.4237  0.0273  0.0164
 3775SOL    HW112224   0.952   4.311   0.445  0.7039 -0.1985  0.1415
 3775SOL    HW212225   0.863   4.408   0.540 -0.0160 -0.6156 -0.0986
 3776SOL     OW12226   1.786   5.590   4.748 -0.0696  0.2092  0.0213
 3776SOL    HW112227   1.708   5.575   4.687  0.0998 -1.9797  0.2774
 3776SOL    HW212228   1.864   5.623   4.695 -0.2872 -0.4913 -0.7541
 3777SOL     OW12229   2.685   2.869   0.880  0.1401 -0.1992  0.7602
 3777SOL    HW112230   2.738   2.922   0.946  1.6983 -0.8708  0.1092
 3777SOL    HW212231   2.738   2.788   0.852 -0.8300 -0.3912 -0.6505
 3778SOL     OW12232   5.548   3.785   5.550 -0.4528 -0.2784 -0.2816
 3778SOL    HW112233   5.459   3.786   5.595  0.2366  1.8702  1.2243
 3778SOL    HW212234   5.581   3.879   5.540  1.3868 -0.9816 -1.3595
 3779SOL     OW12235   4.081   3.473   7.007  0.1538 -0.3795  0.9318
 3779SOL    HW112236   4.016   3.439   6.938  0.9957 -2.0992  0.9492
 3779SOL    HW212237   4.031   3.494   7.091 -0.8082  1.2378  0.0148
 3780SOL     OW12238   4.903   0.587   6.877  0.2564  0.1753 -0.2806
 3780SOL    HW112239   4.981   0.581   6.814 -0.0194  2.1839 -0.8936
 3780SOL    HW212240   4.934   0.569   6.970  0.8325 -2.0338 -0.8540
 3781SOL     OW12241   1.156   1.582   6.063 -0.0988  0.0799  0.6038
 3781SOL    HW112242   1.089   1.655   6.048 -0.4506 -0.5877 -1.3594
 3781SOL    HW212243   1.227   1.587   5.993  0.5017 -0.7724  1.1306
 3782SOL     OW12244   6.602   1.977   4.573 -0.6442  0.0537  0.0718
 3782SOL    HW112245   6.660   1.982   4.654 -1.0373  1.7557  0.2957
 3782SOL    HW212246   6.506   1.967   4.601 -0.7069 -0.0870 -0.1949
 3783SOL     OW12247   5.834   2.067   3.701 -0.2955  0.2804  0.8622
 3783SOL    HW112248   5.862   2.009   3.625 -1.2174 -0.0723  0.7841
 3783SOL    HW212249   5.777   2.015   3.764 -1.2479  1.1368  0.7245
 3784SOL     OW12250   5.836   6.280   2.444 -0.0657  0.0084  0.7525
 3784SOL    HW112251   5.884   6.296   2.530  0.5264  0.1222  0.4014
 3784SOL    HW212252   5.889   6.218   2.387 -0.2798  0.2262  0.3135
 3785SOL     OW12253   0.945   2.063   1.837 -0.5871  0.1343 -0.5586
 3785SOL    HW112254   0.870   2.015   1.792  0.3220 -0.8293 -1.0726
 3785SOL    HW212255   0.915   2.094   1.928 -1.7053  0.0808 -0.8957
 3786SOL     OW12256   0.476   4.247   3.866 -0.0762  0.5968 -0.1616
 3786SOL    HW112257   0.476   4.336   3.821  1.4383  0.2368 -0.9321
 3786SOL    HW212258   0.455   4.259   3.963  0.7615  1.8761 -0.1112
 3787SOL     OW12259   0.007   4.120   3.414  0.7997  0.6238 -0.3211
 3787SOL    HW112260  -0.018   4.100   3.509  0.2252 -3.6939 -1.1733
 3787SOL    HW212261   0.105   4.141   3.410  1.5267 -1.9979  1.0493
 3788SOL     OW12262   6.277   1.340   0.911 -0.2191 -0.0332 -0.1421
 3788SOL    HW112263   6.276   1.240   0.908  0.7035 -0.0355 -0.6976
 3788SOL    HW212264   6.360   1.371   0.957  0.3019  0.4912 -1.4026
 3789SOL     OW12265   5.173   3.158   2.633  0.1159  0.3594 -0.2800
 3789SOL    HW112266   5.234   3.218   2.581  2.1977 -1.2815  0.1308
 3789SOL    HW212267   5.092   3.137   2.579 -0.3868  2.9979 -0.6673
 3790SOL     OW12268   1.518   1.826   6.299 -0.3996  0.2823 -0.4344
 3790SOL    HW112269   1.586   1.777   6.353 -1.3913  0.2717  0.8448
 3790SOL    HW212270   1.529   1.925   6.313  0.0752  0.3415 -1.1460
 3791SOL     OW12271   2.127   2.550   4.998 -0.6408  0.2492  0.4676
 3791SOL    HW112272   2.166   2.459   4.988  1.9142  1.0752  1.7962
 3791SOL    HW212273   2.189   2.606   5.053 -2.3979  2.6361  0.1711
 3792SOL     OW12274   2.312   6.438   1.686 -0.2096 -0.5365 -0.4749
 3792SOL    HW112275   2.283   6.499   1.613 -0.1360 -1.0889 -0.9701
 3792SOL    HW212276   2.246   6.363   1.694  0.8024 -1.5464 -1.2920
 3793SOL     OW12277   3.002   6.677   6.992 -0.8444  0.4988  0.3537
 3793SOL    HW112278   3.009   6.667   7.091 -2.2578  0.3834  0.4700
 3793SOL    HW212279   3.089   6.707   6.954  0.2584 -1.2180  1.4158
 3794SOL     OW12280   0.439   3.573   3.422 -0.0484  0.4543 -0.4342
 3794SOL    HW112281   0.515   3.624   3.462  0.3324  0.1089 -0.7034
 3794SOL    HW212282   0.353   3.620   3.441  0.1557  0.4644  0.5138
 3795SOL     OW12283   1.678   4.321   0.198 -0.8967  0.7294 -0.0119
 3795SOL    HW112284   1.703   4.354   0.289  2.2516  0.9146 -0.8326
 3795SOL    HW212285   1.603   4.377   0.162 -1.3525  1.4520  1.9231
 3796SOL     OW12286   6.437   0.291   5.218 -0.1275  0.5655  0.1553
 3796SOL    HW112287   6.528   0.333   5.211  0.2043 -0.2336 -0.3476
 3796SOL    HW212288   6.379   0.323   5.143  0.5822 -0.9666 -1.0874
 3797SOL     OW12289   6.435   5.105   6.909 -0.1369 -0.6304  0.1537
 3797SOL    HW112290   6.378   5.145   6.981 -3.2288 -2.5473 -1.0495
 3797SOL    HW212291   6.479   5.022   6.943 -0.7435 -0.9591  0.1343
 3798SOL     OW12292   0.616   1.896   2.630 -0.3336 -0.3995 -0.1120
 3798SOL    HW112293   0.617   1.796   2.632  1.7965 -0.6846 -4.2722
 3798SOL    HW212294   0.558   1.928   2.555  0.4600  1.3880 -0.0289
 3799SOL     OW12295   6.365   4.969   4.917  0.3187  0.1582 -0.1282
 3799SOL    HW112296   6.441   4.936   4.973  0.2851  1.7692  0.9603
 3799SOL    HW212297   6.279   4.948   4.963  0.1521 -0.6501 -0.7933
 3800SOL     OW12298   5.024   0.618   6.547 -0.1640 -0.3657 -0.4631
 3800SOL    HW112299   5.091   0.600   6.618  0.4096  2.1477 -0.2582
 3800SOL    HW212300   4.932   0.623   6.587  0.0755  0.3490  0.0281
 3801SOL     OW12301   3.565   5.973   2.470 -0.3360  0.0594 -0.4259
 3801SOL    HW112302   3.635   6.028   2.515 -1.3363 -0.4978  1.9972
 3801SOL    HW212303   3.606   5.919   2.397  1.5367  0.5729  0.1989
 3802SOL     OW12304   1.426   3.571   5.926 -0.1999 -0.3083 -0.3264
 3802SOL    HW112305   1.404   3.514   6.005  0.9468  0.2924  0.4355
 3802SOL    HW212306   1.422   3.667   5.952  1.7255 -0.1311 -0.5548
 3803SOL     OW12307   4.189   6.511   6.512  0.2267 -0.1899  0.2079
 3803SOL    HW112308   4.223   6.450   6.441  0.2399 -2.0351  1.7109
 3803SOL    HW212309   4.255   6.585   6.526  0.8580 -0.5427 -0.7837
 3804SOL     OW12310   2.113   2.126   1.514 -0.7926  0.1251  0.2573
 3804SOL    HW112311   2.042   2.195   1.531 -0.4623  0.6556 -0.4664
 3804SOL    HW212312   2.076   2.053   1.457 -0.7612  0.3951 -0.1095
 3805SOL     OW12313   6.049   6.456   5.449  0.7831 -0.7970 -0.5936
 3805SOL    HW112314   5.968   6.406   5.418 -0.1116  0.4890 -0.4058
 3805SOL    HW212315   6.030   6.498   5.538  0.4238  2.2628 -1.9940
 3806SOL     OW12316   6.278   6.674   0.498 -0.2287 -0.0933  0.0432
 3806SOL    HW112317   6.333   6.642   0.421  1.6310  1.2613  0.7136
 3806SOL    HW212318   6.320   6.757   0.536 -1.7024 -0.0991  1.8225
 3807SOL     OW12319   1.583   2.793   4.697  0.0901 -0.7373 -0.6496
 3807SOL    HW112320   1.524   2.787   4.776 -0.7207  0.6643 -1.1120
 3807SOL    HW212321   1.669   2.837   4.723  1.6227 -3.9976  0.3375
 3808SOL     OW12322   3.960   3.471   4.977 -0.0200 -0.2819 -0.3176
 3808SOL    HW112323   4.050   3.447   4.941  0.3465  1.9771 -1.0576
 3808SOL    HW212324   3.904   3.511   4.904 -0.6895  0.7595  0.7312
 3809SOL     OW12325   5.789   0.541   6.604  0.3029 -0.5078  0.4572
 3809SOL    HW112326   5.796   0.619   6.666 -0.1260  1.7086 -2.1217
 3809SOL    HW212327   5.708   0.551   6.546  1.2864 -1.8601 -1.2487
 3810SOL     OW12328   1.214   1.798   4.042 -0.3411  0.7411 -1.1918
 3810SOL    HW112329   1.282   1.752   3.985 -0.0244 -0.7051  0.2542
 3810SOL    HW212330   1.123   1.767   4.016 -0.3514  1.4808 -2.0884
 3811SOL     OW12331   3.626   3.674   5.564  1.0096  0.4037 -0.5006
 3811SOL    HW112332   3.533   3.710   5.564  0.4283 -0.9956 -1.7800
 3811SOL    HW212333   3.624   3.578   5.536  2.5795 -0.4112  1.8673
 3812SOL     OW12334   1.498   6.238   6.122  0.0723  0.1249 -0.4882
 3812SOL    HW112335   1.503   6.248   6.023 -2.6206 -0.5974 -0.7613
 3812SOL    HW212336   1.479   6.326   6.164  0.3427  0.2776 -0.6836
 3813SOL     OW12337   3.434   2.635   6.972  0.0028  0.4795  0.4615
 3813SOL    HW112338   3.528   2.605   6.988 -0.8822 -2.8810  0.1254
 3813SOL    HW212339   3.393   2.668   7.057 -0.2680 -3.7464  2.1893
 3814SOL     OW12340   0.420   4.308   1.424 -0.2612 -0.3105  0.1874
 3814SOL    HW112341   0.355   4.233   1.409 -0.5153 -0.3206  1.2135
 3814SOL    HW212342   0.484   4.314   1.347 -2.2868  0.5728 -1.5152
 3815SOL     OW12343   1.840   4.789   3.523  0.1693  0.2313 -0.5667
 3815SOL    HW112344   1.867   4.695   3.546  0.0155 -0.1243 -1.7402
 3815SOL    HW212345   1.921   4.844   3.507  0.2537  0.0538 -0.7624
 3816SOL     OW12346   2.261   5.172   4.496 -0.4464  0.6029 -0.4850
 3816SOL    HW112347   2.239   5.159   4.592  1.2813 -2.2461 -0.3411
 3816SOL    HW212348   2.332   5.242   4.488  1.6808 -1.2420  0.7901
 3817SOL     OW12349   0.874   4.904   1.610  0.0315  0.4068 -0.1267
 3817SOL    HW112350   0.776   4.921   1.616 -0.0592 -0.5577  1.5955
 3817SOL    HW212351   0.890   4.823   1.554 -0.2102  0.1087  0.2324
 3818SOL     OW12352   1.455   2.456   1.438  0.4682 -0.5453  0.4147
 3818SOL    HW112353   1.451   2.485   1.343 -0.1268  0.5214  0.7506
 3818SOL    HW212354   1.398   2.374   1.449 -0.3511 -0.0416  0.0562
 3819SOL     OW12355   1.280   3.681   5.606  0.6620  0.1646  0.4879
 3819SOL    HW112356   1.320   3.591   5.624 -0.5506 -0.5698 -0.3020
 3819SOL    HW212357   1.233   3.713   5.688  0.7626 -0.1150  0.6576
 3820SOL     OW12358   4.442   0.964   4.042  0.0033 -0.3795 -0.4059
 3820SOL    HW112359   4.411   0.925   3.956 -1.7829  0.7984 -0.3405
 3820SOL    HW212360   4.491   1.050   4.024  1.5089 -1.1877 -0.3544
 3821SOL     OW12361   1.047   5.290   2.218 -0.7543 -0.2007 -0.5139
 3821SOL    HW112362   1.044   5.202   2.169 -0.6868  0.5048 -1.8158
 3821SOL    HW212363   0.963   5.341   2.199 -1.2730 -0.4017  1.0857
 3822SOL     OW12364   6.798   2.190   1.364 -0.6387 -0.8835 -0.0879
 3822SOL    HW112365   6.788   2.286   1.391 -4.1637 -0.7706 -1.2422
 3822SOL    HW212366   6.874   2.148   1.415  0.3438  2.1905  1.2096
 3823SOL     OW12367   1.812   6.131   0.510 -0.1396 -0.4774  0.0235
 3823SOL    HW112368   1.866   6.131   0.594 -0.0586  0.0452 -0.0240
 3823SOL    HW212369   1.834   6.049   0.457  0.4176 -0.4056  0.1323
 3824SOL     OW12370   4.886   4.487   0.003 -0.1207  0.3432 -0.5161
 3824SOL    HW112371   4.941   4.475   0.085 -1.2556  1.7353  0.4983
 3824SOL    HW212372   4.945   4.490  -0.077  1.2121  1.1411  0.4665
 3825SOL     OW12373   4.244   5.803   0.138  0.0311  0.1319 -0.6992
 3825SOL    HW112374   4.337   5.781   0.109  0.8490 -1.5635  2.5982
 3825SOL    HW212375   4.204   5.722   0.182 -1.8270  1.7090  0.6717
 3826SOL     OW12376   6.141   6.707   3.639 -0.6023 -0.1208 -0.0894
 3826SOL    HW112377   6.215   6.685   3.702 -0.1621  0.5200 -0.3782
 3826SOL    HW212378   6.179   6.740   3.553 -1.1974 -0.9647 -0.6965
 3827SOL     OW12379   1.644   2.576   4.044 -0.0921  0.1082  0.3218
 3827SOL    HW112380   1.566   2.565   3.982 -1.3307  0.2259  1.7861
 3827SOL    HW212381   1.642   2.504   4.113 -0.0366  1.2237  1.5257
 3828SOL     OW12382   3.114   3.910   3.787  0.2964  0.8478  0.1012
 3828SOL    HW112383   3.124   3.905   3.688  0.8186 -1.7586  0.2203
 3828SOL    HW212384   3.030   3.863   3.814  1.7715 -1.3810  1.0676
 3829SOL     OW12385   6.838   0.074   5.427 -0.1725  0.4589 -0.0101
 3829SOL    HW112386   6.780   0.098   5.505 -0.5477 -0.4937  0.0303
 3829SOL    HW212387   6.934   0.085   5.452 -0.2691 -0.2863  0.7635
 3830SOL     OW12388   2.975   0.826   6.599 -0.4869  0.5190  0.0582
 3830SOL    HW112389   2.887   0.803   6.640 -0.0644 -0.4570  0.4655
 3830SOL    HW212390   3.043   0.841   6.671  0.0737 -0.4170 -0.2507
 3831SOL     OW12391   3.854   1.481   0.707  0.0688 -0.2907 -0.1615
 3831SOL    HW112392   3.884   1.528   0.624 -0.2573 -1.3307 -0.8881
 3831SOL    HW212393   3.839   1.548   0.780  0.1876  0.6572 -0.9896
 3832SOL     OW12394   6.664   4.773   5.270 -0.5965 -0.0629  0.6654
 3832SOL    HW112395   6.751   4.807   5.305 -1.2836  1.0862  1.3329
 3832SOL    HW212396   6.596   4.847   5.272 -1.6011 -0.9441  0.2071
 3833SOL     OW12397   4.987   2.654   3.662 -0.3810 -0.2874  0.4651
 3833SOL    HW112398   5.024   2.617   3.577 -0.9175 -0.3940  0.2742
 3833SOL    HW212399   4.897   2.615   3.679  0.2109 -1.1656  1.6953
 3834SOL     OW12400   1.703   0.125   2.013  0.0458 -0.6710 -0.0004
 3834SOL    HW112401   1.748   0.085   2.093  1.2885 -0.4089 -0.5310
 3834SOL    HW212402   1.773   0.161   1.951 -0.9519  0.3484 -0.5636
 3835SOL     OW12403   0.583   5.144   5.728  0.3150  0.3757 -0.1405
 3835SOL    HW112404   0.610   5.192   5.811  1.2789  2.5020 -1.5862
 3835SOL    HW212405   0.549   5.053   5.751  0.1688  1.0386  2.5837
 3836SOL     OW12406   5.393   6.891   2.193 -0.0713  0.5983  0.4470
 3836SOL    HW112407   5.341   6.863   2.112  0.7484  1.0460 -0.2434
 3836SOL    HW212408   5.465   6.955   2.167  2.0130 -1.3620  1.0715
 3837SOL     OW12409   1.425   4.850   3.075  0.7406 -0.8966  0.6298
 3837SOL    HW112410   1.430   4.825   2.979 -0.1329  1.2173 -0.0221
 3837SOL    HW212411   1.516   4.840   3.117  1.6401  0.1086 -0.9733
 3838SOL     OW12412   6.332   1.557   4.608 -0.0443  0.0393 -0.5112
 3838SOL    HW112413   6.284   1.611   4.539  0.2616 -0.3802 -1.0559
 3838SOL    HW212414   6.363   1.471   4.568 -3.1892 -2.0015  1.0661
 3839SOL     OW12415   5.378   3.682   4.743 -0.1840  0.2587  0.1808
 3839SOL    HW112416   5.440   3.616   4.783  0.7714 -0.6288 -2.5328
 3839SOL    HW212417   5.351   3.652   4.651  1.3660  4.1487 -1.8024
 3840SOL     OW12418   2.790   2.565   0.250 -0.1261 -0.1665  0.4942
 3840SOL    HW112419   2.729   2.580   0.327  0.7210  1.1923  0.9371
 3840SOL    HW212420   2.846   2.484   0.267 -0.2307 -0.1102  1.1350
 3841SOL     OW12421   6.052   2.984   1.382  0.3256 -0.9313  0.8765
 3841SOL    HW112422   6.010   3.074   1.366  1.3226 -0.2972  1.7088
 3841SOL    HW212423   6.042   2.928   1.300 -0.3993 -0.0995  0.3762
 3842SOL     OW12424   4.572   6.807   1.911  0.7427  0.7241 -0.3823
 3842SOL    HW112425   4.541   6.893   1.870  2.3588  0.2752 -2.7781
 3842SOL    HW212426   4.598   6.744   1.838  1.0774 -1.2324  1.3683
 3843SOL     OW12427   5.960   4.728   6.941  0.8616 -0.1918 -0.4876
 3843SOL    HW112428   5.971   4.677   7.026  0.6817 -1.1631 -1.0263
 3843SOL    HW212429   5.973   4.666   6.863 -0.0800  0.4250 -1.1634
 3844SOL     OW12430   5.314   0.515   2.288  0.8079 -0.7422  0.1884
 3844SOL    HW112431   5.285   0.582   2.219 -1.3474  1.0010  2.5829
 3844SOL    HW212432   5.297   0.423   2.254 -0.2104  0.0470 -1.5902
 3845SOL     OW12433   3.409   6.013   1.322  0.0032 -0.6265  0.0412
 3845SOL    HW112434   3.321   6.008   1.369  0.0835  0.3772  0.3282
 3845SOL    HW212435   3.417   6.102   1.276  0.5967 -0.9647 -0.5253
 3846SOL     OW12436   6.080   4.061   5.214  0.6541 -0.0324 -0.1854
 3846SOL    HW112437   6.152   3.999   5.247  1.2055  0.6008 -0.1691
 3846SOL    HW212438   6.088   4.071   5.114 -0.5777 -1.4039 -0.4466
 3847SOL     OW12439   0.492   1.780   1.697 -0.5059 -0.0081 -0.2729
 3847SOL    HW112440   0.498   1.848   1.624  1.9372  0.3663  0.1891
 3847SOL    HW212441   0.561   1.799   1.766 -0.5596 -2.2593  0.4927
 3848SOL     OW12442   0.232   5.796   0.167  0.6588 -0.1085 -0.0870
 3848SOL    HW112443   0.270   5.780   0.258 -0.6639  0.9644  0.6914
 3848SOL    HW212444   0.282   5.870   0.122  1.5961 -0.9339 -0.4302
 3849SOL     OW12445   2.166   6.738   0.890  0.0975 -0.1197  0.3893
 3849SOL    HW112446   2.115   6.736   0.976  1.0052 -0.5237  0.9245
 3849SOL    HW212447   2.262   6.759   0.908 -0.0016  1.4507 -0.6807
 3850SOL     OW12448   1.790   4.307   0.592 -0.1544 -0.4024  0.2801
 3850SOL    HW112449   1.715   4.366   0.562 -0.0417 -1.0749 -1.4452
 3850SOL    HW212450   1.868   4.363   0.620 -0.6132  0.2744  0.2189
 3851SOL     OW12451   5.924   0.086   1.229  0.4211 -0.2679 -0.3286
 3851SOL    HW112452   5.935   0.135   1.143 -1.6298 -0.4609 -0.7483
 3851SOL    HW212453   5.874   0.144   1.294  1.7067 -0.2268  0.6601
 3852SOL     OW12454   6.618   1.329   0.683  0.5023 -0.4272  0.0573
 3852SOL    HW112455   6.717   1.320   0.669  0.2100 -3.2830 -0.6142
 3852SOL    HW212456   6.601   1.370   0.772  2.3210 -2.3281  1.3685
 3853SOL     OW12457   5.838   2.743   3.025  0.3478 -0.3454  0.2893
 3853SOL    HW112458   5.830   2.797   3.108 -0.0857 -2.5726  1.7810
 3853SOL    HW212459   5.752   2.696   3.007  1.1279 -1.6859 -0.1085
 3854SOL     OW12460   1.585   5.894   4.507 -0.2340  0.2464  0.3104
 3854SOL    HW112461   1.644   5.892   4.587 -0.0424  2.3803  0.2758
 3854SOL    HW212462   1.491   5.875   4.535 -0.1774  1.0358  1.0762
 3855SOL     OW12463   1.113   5.715   1.635  0.4105  0.3184  0.0228
 3855SOL    HW112464   1.144   5.622   1.658 -2.0367 -0.8357 -0.9704
 3855SOL    HW212465   1.057   5.712   1.553 -0.7064  2.5249  0.6328
 3856SOL     OW12466   6.523   1.079   3.900 -0.2649  0.7741  0.3758
 3856SOL    HW112467   6.527   0.979   3.898  1.4079  0.8182 -0.8933
 3856SOL    HW212468   6.436   1.109   3.940 -0.5709 -1.1699  1.2559
 3857SOL     OW12469   6.794   5.239   0.712  0.1798  0.5381 -0.4554
 3857SOL    HW112470   6.790   5.176   0.790  0.2571  1.0229 -0.0561
 3857SOL    HW212471   6.755   5.327   0.739 -0.0506  0.6218 -1.0512
 3858SOL     OW12472   1.521   1.148   5.106 -0.1181  0.3282  0.7745
 3858SOL    HW112473   1.560   1.172   5.017 -1.0950 -0.1983  0.1793
 3858SOL    HW212474   1.592   1.108   5.164  0.6997  1.3630  0.5163
 3859SOL     OW12475   0.651   0.916   5.583 -0.5038 -0.5575 -0.0532
 3859SOL    HW112476   0.638   0.950   5.676  0.6541  1.0432 -0.4296
 3859SOL    HW212477   0.584   0.957   5.522 -0.3841 -0.5366 -0.1708
 3860SOL     OW12478   3.103   2.125   5.715 -0.2657  0.3137  0.3198
 3860SOL    HW112479   3.060   2.192   5.776 -0.0740  0.5836  0.1577
 3860SOL    HW212480   3.148   2.054   5.770 -0.0581  0.5804  0.4942
 3861SOL     OW12481   3.177   5.501   2.346 -0.0504  0.5192  0.2772
 3861SOL    HW112482   3.089   5.546   2.333 -0.7684 -0.7373  0.5596
 3861SOL    HW212483   3.241   5.565   2.388 -1.7750  0.6194  3.0548
 3862SOL     OW12484   3.244   1.512   0.433 -0.1180 -0.4005  0.7587
 3862SOL    HW112485   3.312   1.482   0.366 -0.5415 -0.6350  0.4289
 3862SOL    HW212486   3.244   1.449   0.511 -1.7963 -1.9610 -0.4444
 3863SOL     OW12487   3.511   3.483   6.493 -0.0646  0.1907  0.4231
 3863SOL    HW112488   3.440   3.529   6.547 -0.7227  1.1785 -1.1711
 3863SOL    HW212489   3.513   3.524   6.401 -0.1036 -2.4474 -0.8382
 3864SOL     OW12490   4.167   2.488   1.554 -0.0305  0.2446  0.4646
 3864SOL    HW112491   4.216   2.409   1.515  1.0920  0.5972  1.1085
 3864SOL    HW212492   4.223   2.530   1.625  0.0165  2.4637 -0.7993
 3865SOL     OW12493   6.524   2.316   0.135  0.3450  0.0349  0.4787
 3865SOL    HW112494   6.608   2.286   0.179  0.7747  0.6065  0.0740
 3865SOL    HW212495   6.450   2.319   0.202 -0.2168 -3.6380  0.2177
 3866SOL     OW12496   1.790   1.358   1.183 -0.1449  0.8405  0.2979
 3866SOL    HW112497   1.724   1.433   1.184 -0.4036  0.6501 -0.8024
 3866SOL    HW212498   1.748   1.278   1.140  1.1739  1.0680 -1.4924
 3867SOL     OW12499   4.810   5.227   5.242  0.2565  0.4607 -0.5206
 3867SOL    HW112500   4.736   5.261   5.300  0.8730  2.3698 -0.7975
 3867SOL    HW212501   4.869   5.167   5.296  0.1471  1.2559  0.5206
 3868SOL     OW12502   0.141   2.218   1.982  0.4248 -0.0949  0.0362
 3868SOL    HW112503   0.111   2.265   2.064  0.4855  0.5333 -0.2974
 3868SOL    HW212504   0.241   2.219   1.977  0.4025  1.3771 -0.8881
 3869SOL     OW12505   2.517   1.379   5.875  0.4511 -0.0326  0.5265
 3869SOL    HW112506   2.444   1.429   5.829 -0.2611 -2.6520 -1.4713
 3869SOL    HW212507   2.547   1.429   5.956 -1.2858  2.6965 -0.3926
 3870SOL     OW12508   4.870   2.494   4.107 -0.3580  0.0587 -0.3714
 3870SOL    HW112509   4.895   2.469   4.013 -0.8271  1.4071 -0.8844
 3870SOL    HW212510   4.896   2.420   4.169  1.8298 -0.0184 -1.2857
 3871SOL     OW12511   3.576   5.500   2.579 -0.0063 -0.0128  0.0344
 3871SOL    HW112512   3.656   5.557   2.561 -1.4421  1.6686 -1.2785
 3871SOL    HW212513   3.592   5.408   2.541  1.4732  0.1402  0.2268
 3872SOL     OW12514   6.120   0.416   5.909  0.2473 -0.3483 -0.0714
 3872SOL    HW112515   6.084   0.353   5.841 -0.4290 -0.5481  0.4584
 3872SOL    HW212516   6.217   0.433   5.891 -0.2739  0.8575 -2.0214
 3873SOL     OW12517   6.459   6.819   6.802 -0.3600  0.1987 -0.3346
 3873SOL    HW112518   6.505   6.790   6.886 -0.7799 -0.8770 -0.4518
 3873SOL    HW212519   6.506   6.898   6.763  0.6987 -0.1771  0.1474
 3874SOL     OW12520   2.675   1.363   1.287 -0.5211  0.1484  0.1854
 3874SOL    HW112521   2.616   1.386   1.210  0.2688  1.7228  0.0202
 3874SOL    HW212522   2.642   1.409   1.369 -0.9355 -0.9438  0.6491
 3875SOL     OW12523   2.682   5.760   5.234 -0.3601 -0.4591  0.4472
 3875SOL    HW112524   2.768   5.727   5.272  0.2356  0.3403 -0.1647
 3875SOL    HW212525   2.685   5.755   5.134 -1.7253 -2.0991  0.4512
 3876SOL     OW12526   3.962   3.888   6.973 -0.7181 -0.1813  0.2979
 3876SOL    HW112527   3.944   3.868   6.876 -2.4034 -0.5813  0.6611
 3876SOL    HW212528   4.035   3.828   7.006 -0.6270 -0.5517 -0.5436
 3877SOL     OW12529   3.990   6.855   2.680 -0.2397 -0.2396 -0.2115
 3877SOL    HW112530   4.071   6.797   2.692  1.4329  2.1335  0.5960
 3877SOL    HW212531   3.947   6.870   2.769 -1.7157 -1.5848 -0.6522
 3878SOL     OW12532   6.446   3.168   3.323 -0.0326 -0.3465 -0.0873
 3878SOL    HW112533   6.511   3.232   3.281 -1.2498  0.0621 -1.3918
 3878SOL    HW212534   6.484   3.076   3.321  0.2832 -0.2037 -1.3602
 3879SOL     OW12535   3.355   0.937   5.894 -0.0073 -0.8808 -0.9348
 3879SOL    HW112536   3.269   0.890   5.877 -0.9137 -0.0474  1.0199
 3879SOL    HW212537   3.398   0.899   5.976  0.5499 -0.0517 -0.8296
 3880SOL     OW12538   6.442   6.569   1.047  0.9356  0.0110 -0.7949
 3880SOL    HW112539   6.353   6.614   1.038 -0.1828 -1.4357  1.8017
 3880SOL    HW212540   6.501   6.623   1.106  1.3734  0.4025 -1.5824
 3881SOL     OW12541   5.441   4.339   2.763 -0.2691 -0.1034 -0.0287
 3881SOL    HW112542   5.489   4.346   2.676 -2.0380 -0.3922 -1.0821
 3881SOL    HW212543   5.462   4.252   2.807 -0.4698 -0.5887 -0.8802
 3882SOL     OW12544   6.112   0.081   6.681  0.2895  0.0443  0.0691
 3882SOL    HW112545   6.143  -0.013   6.665  0.8658  0.2654 -0.1715
 3882SOL    HW212546   6.163   0.120   6.758 -0.6049 -0.1379  0.7717
 3883SOL     OW12547   5.750   4.113   6.455 -0.8926 -0.1300  0.3433
 3883SOL    HW112548   5.747   4.194   6.513 -0.5393 -0.6539  1.1128
 3883SOL    HW212549   5.770   4.032   6.511  0.0716 -0.5669 -0.5993
 3884SOL     OW12550   5.741   4.995   4.770  0.2034  0.1099 -0.2639
 3884SOL    HW112551   5.824   4.940   4.759 -0.2436 -0.7389  0.5072
 3884SOL    HW212552   5.707   5.022   4.680  1.4764  0.7407 -0.5896
 3885SOL     OW12553   5.892   2.976   3.195 -0.2302 -0.3023 -0.2366
 3885SOL    HW112554   5.953   2.964   3.273  1.8817 -0.9704 -1.8731
 3885SOL    HW212555   5.813   3.029   3.222  1.2962  1.0432  1.9089
 3886SOL     OW12556   1.524   1.916   6.761 -0.2770 -0.7786  0.0366
 3886SOL    HW112557   1.476   1.831   6.781  0.1268 -0.4214  2.8595
 3886SOL    HW212558   1.583   1.941   6.838  1.1986  1.0085 -1.5577
 3887SOL     OW12559   4.836   6.303   0.374 -0.1264 -0.4014 -0.0028
 3887SOL    HW112560   4.869   6.394   0.401 -2.7850 -0.3517  3.7243
 3887SOL    HW212561   4.767   6.313   0.301 -0.1388  0.5352  0.1272
 3888SOL     OW12562   3.416   2.870   1.292  0.3881  0.0380  0.2951
 3888SOL    HW112563   3.460   2.919   1.367 -0.0552  0.6307  0.1695
 3888SOL    HW212564   3.483   2.855   1.219  0.4092  0.8733  0.1361
 3889SOL     OW12565   2.211   0.324   1.769  0.1999  0.7517  0.0270
 3889SOL    HW112566   2.165   0.368   1.846 -1.1259  2.4883 -1.6689
 3889SOL    HW212567   2.273   0.390   1.725  0.0848  0.1516 -1.0678
 3890SOL     OW12568   0.973   2.031   6.411  0.1062 -0.3237  0.8433
 3890SOL    HW112569   1.022   2.095   6.470  0.8907  0.1943 -0.3230
 3890SOL    HW212570   0.875   2.050   6.415  0.3890  1.5254 -0.0992
 3891SOL     OW12571   3.995   3.532   2.025 -0.0752 -0.4953 -0.6600
 3891SOL    HW112572   4.088   3.498   2.019 -0.1044 -0.4858 -1.2822
 3891SOL    HW212573   3.948   3.516   1.938 -0.7323 -0.7302 -0.2685
 3892SOL     OW12574   1.904   6.776   5.128  0.3506  0.5465  0.2380
 3892SOL    HW112575   1.931   6.734   5.215 -1.5415 -1.1685  0.0675
 3892SOL    HW212576   1.936   6.871   5.125  2.2407  0.0317  1.8994
 3893SOL     OW12577   2.194   1.490   3.697 -0.4445  0.1792 -0.7906
 3893SOL    HW112578   2.198   1.545   3.780  2.2819 -1.1577  0.0696
 3893SOL    HW212579   2.098   1.467   3.677 -1.2669  1.5063  1.2778
 3894SOL     OW12580   5.999   5.879   0.689  0.4822 -0.3958 -0.3232
 3894SOL    HW112581   5.934   5.918   0.754 -0.1311 -1.1378 -0.4769
 3894SOL    HW212582   6.035   5.952   0.630 -0.3870 -0.0182 -0.3955
 3895SOL     OW12583   3.878   6.533   5.227 -0.3753  0.8968  0.3265
 3895SOL    HW112584   3.804   6.518   5.292 -0.8439  1.1764 -0.1316
 3895SOL    HW212585   3.843   6.523   5.133  0.9375 -2.7263  0.0584
 3896SOL     OW12586   0.512   1.505   6.586 -0.2055  0.4654 -0.1677
 3896SOL    HW112587   0.597   1.532   6.541  1.3393 -0.2104  2.1729
 3896SOL    HW212588   0.527   1.422   6.639 -2.1906  0.6443  0.7687
 3897SOL     OW12589   3.468   6.704   3.003  0.4126  0.1510  0.0121
 3897SOL    HW112590   3.476   6.791   3.052 -0.2480  0.4014 -0.3098
 3897SOL    HW212591   3.405   6.644   3.053  0.8267 -0.1236  0.2057
 3898SOL     OW12592   3.429   5.695   1.910 -0.2056 -0.7538  0.2356
 3898SOL    HW112593   3.415   5.606   1.867  1.1860 -1.3662  0.9955
 3898SOL    HW212594   3.418   5.767   1.842  1.8638 -1.6835 -1.1951
 3899SOL     OW12595   2.198   1.071   3.154  0.1258  0.3757 -0.1871
 3899SOL    HW112596   2.198   1.067   3.253  0.6236  1.9157 -0.0878
 3899SOL    HW212597   2.163   0.986   3.116  2.3856 -1.2982  1.2418
 3900SOL     OW12598   3.066   0.697   3.489 -0.1982  0.2223  0.1094
 3900SOL    HW112599   3.069   0.679   3.587 -1.8524 -1.5252 -0.1025
 3900SOL    HW212600   3.042   0.613   3.440 -1.9278  1.6169 -1.5705
 3901SOL     OW12601   6.474   1.246   0.319  0.0366 -0.2727  0.7286
 3901SOL    HW112602   6.545   1.232   0.251 -0.0104 -0.2041  0.6647
 3901SOL    HW212603   6.505   1.312   0.388  0.0453 -0.2640  0.7163
 3902SOL     OW12604   6.077   1.984   5.948 -0.2374 -0.3484  0.2040
 3902SOL    HW112605   6.114   2.034   5.870 -0.3580  3.1100  2.1739
 3902SOL    HW212606   5.977   1.992   5.948 -0.4143 -2.1433 -0.3525
 3903SOL     OW12607   1.324   6.121   6.444  0.0130 -0.5312  0.2461
 3903SOL    HW112608   1.401   6.168   6.488  0.0431  0.0465 -0.4099
 3903SOL    HW212609   1.343   6.023   6.441  0.9659 -0.3448 -0.3458
 3904SOL     OW12610   5.442   4.842   6.735 -0.2057 -0.2480  0.3625
 3904SOL    HW112611   5.524   4.786   6.746  1.4896  1.6050 -1.8557
 3904SOL    HW212612   5.449   4.922   6.794  0.0818  0.4041 -0.5385
 3905SOL     OW12613   2.323   2.157   3.778 -0.3818  0.1816 -0.2943
 3905SOL    HW112614   2.383   2.237   3.784 -0.9475  0.5089  2.1348
 3905SOL    HW212615   2.264   2.166   3.698  1.5798  0.6822 -1.7587
 3906SOL     OW12616   2.340   6.294   6.302  0.2984 -0.7250  0.4233
 3906SOL    HW112617   2.295   6.374   6.262  0.6660 -0.7439 -0.0370
 3906SOL    HW212618   2.295   6.270   6.388  1.1339  0.9028  1.3704
 3907SOL     OW12619   2.270   3.346   5.364  0.1631 -0.2215 -0.3675
 3907SOL    HW112620   2.185   3.349   5.418 -0.3876  2.0017 -1.2470
 3907SOL    HW212621   2.346   3.379   5.420 -0.2654  1.3239 -0.6473
 3908SOL     OW12622   5.792   4.571   6.162  0.1206  0.0624  0.6870
 3908SOL    HW112623   5.790   4.556   6.261  0.9260  0.1755  0.7338
 3908SOL    HW212624   5.865   4.515   6.122 -0.9300 -0.8349 -0.0066
 3909SOL     OW12625   3.882   5.683   6.349  0.2734  0.0310 -0.6210
 3909SOL    HW112626   3.957   5.731   6.395 -0.9857  1.3667  0.1211
 3909SOL    HW212627   3.869   5.593   6.391 -0.2478  0.8575  1.0772
 3910SOL     OW12628   6.239   2.365   1.588  0.2916 -0.1332  0.5238
 3910SOL    HW112629   6.195   2.453   1.567 -1.1624 -0.8250  0.5169
 3910SOL    HW212630   6.330   2.362   1.547 -0.0743  0.9417 -0.4027
 3911SOL     OW12631   5.414   3.957   3.352 -0.3764 -0.4316 -0.5174
 3911SOL    HW112632   5.472   4.037   3.339  0.8150 -1.3502 -1.0269
 3911SOL    HW212633   5.447   3.903   3.430 -1.4358 -0.2190  0.1037
 3912SOL     OW12634   1.411   1.287   2.952 -0.5626 -0.3615 -0.1960
 3912SOL    HW112635   1.344   1.324   2.888  0.4923  0.4476 -0.8855
 3912SOL    HW212636   1.451   1.203   2.914  0.8731  0.7083 -1.2191
 3913SOL     OW12637   5.905   4.010   6.894 -0.4452  0.8135  0.0401
 3913SOL    HW112638   5.821   3.996   6.947 -0.6888 -0.9807 -0.7657
 3913SOL    HW212639   5.982   3.971   6.945 -0.2094  1.7461  0.4117
 3914SOL     OW12640   3.190   1.296   4.844 -0.3215 -0.1393  0.8606
 3914SOL    HW112641   3.127   1.218   4.847 -2.4291  1.2949 -1.6693
 3914SOL    HW212642   3.148   1.374   4.889  0.3480  0.4092  0.5462
 3915SOL     OW12643   1.092   6.824   0.646  0.5795 -0.7177  0.2093
 3915SOL    HW112644   1.133   6.794   0.559  0.1796 -1.0950  0.1477
 3915SOL    HW212645   1.104   6.923   0.656 -1.0490 -0.3127 -1.2110
 3916SOL     OW12646   0.014   4.168   1.076 -0.5909 -0.6263 -0.3107
 3916SOL    HW112647   0.084   4.195   1.010 -0.3872  0.4939  0.3503
 3916SOL    HW212648  -0.070   4.220   1.059 -0.6306 -0.5411  0.1266
 3917SOL     OW12649   3.071   5.624   6.905  0.2260  0.4446 -0.0435
 3917SOL    HW112650   3.096   5.716   6.934  1.1456  0.7029 -1.5538
 3917SOL    HW212651   3.145   5.584   6.852 -1.0716 -0.2681 -1.3974
 3918SOL     OW12652   4.238   6.127   0.146 -0.5033 -0.2357 -0.0767
 3918SOL    HW112653   4.207   6.034   0.130 -2.1502  0.5239 -1.7686
 3918SOL    HW212654   4.180   6.171   0.215 -0.5563 -0.0808 -0.2180
 3919SOL     OW12655   3.213   3.543   2.598 -0.0331  0.3666 -0.4942
 3919SOL    HW112656   3.306   3.581   2.599  0.3784 -0.4714 -2.2906
 3919SOL    HW212657   3.217   3.445   2.619 -0.5932  0.4527  0.0319
 3920SOL     OW12658   2.137   6.070   5.823 -0.2929 -0.7337  0.2982
 3920SOL    HW112659   2.062   6.135   5.809 -0.4038 -0.6373  1.2862
 3920SOL    HW212660   2.189   6.097   5.904 -0.2445 -1.7963  0.6304
 3921SOL     OW12661   5.580   6.048   4.530  0.0801 -0.2601 -0.1154
 3921SOL    HW112662   5.680   6.051   4.535  0.0635 -1.0986  1.6085
 3921SOL    HW212663   5.542   6.080   4.617 -1.0505 -2.6880  0.3712
 3922SOL     OW12664   3.537   0.611   5.688  0.0733  0.1160  0.1983
 3922SOL    HW112665   3.611   0.597   5.622 -0.9008  0.5389 -1.0335
 3922SOL    HW212666   3.492   0.699   5.669 -1.5452 -0.7042  0.1004
 3923SOL     OW12667   2.122   5.245   0.621 -0.0332 -0.4506  0.2797
 3923SOL    HW112668   2.082   5.172   0.565  0.2301  0.9936 -1.9263
 3923SOL    HW212669   2.058   5.270   0.693 -1.3052 -1.0342 -0.5974
 3924SOL     OW12670   1.700   0.614   3.177  0.1531 -0.7415 -0.6707
 3924SOL    HW112671   1.606   0.581   3.171 -0.0871 -0.0953 -0.5361
 3924SOL    HW212672   1.709   0.674   3.256  0.1352  0.9532 -1.9138
 3925SOL     OW12673   6.999   0.012   0.304  0.0957 -0.5151  0.4898
 3925SOL    HW112674   6.926  -0.054   0.287 -1.4182  1.0505  0.5662
 3925SOL    HW212675   6.980   0.096   0.253  1.6882  0.0614  0.7913
 3926SOL     OW12676   5.929   3.125   1.854  0.2343 -0.8544  0.1481
 3926SOL    HW112677   5.987   3.202   1.827 -1.7470  0.9612  0.7649
 3926SOL    HW212678   5.928   3.057   1.781  0.7252  0.4898 -1.1700
 3927SOL     OW12679   3.957   5.153   6.836  0.0098 -0.4425  0.1874
 3927SOL    HW112680   4.024   5.080   6.829  0.6146  0.0754  0.4546
 3927SOL    HW212681   3.875   5.129   6.784  0.3287 -1.1609  0.0119
 3928SOL     OW12682   6.515   2.044   1.945 -0.0578 -0.0577 -0.1941
 3928SOL    HW112683   6.459   2.090   1.877  1.4992  1.0295 -0.7944
 3928SOL    HW212684   6.612   2.063   1.928  0.4918 -1.4205  1.1285
 3929SOL     OW12685   2.998   3.637   2.388 -0.9815 -0.5742  0.4500
 3929SOL    HW112686   2.940   3.558   2.410 -1.0162 -0.9998 -1.0414
 3929SOL    HW212687   3.093   3.614   2.406 -0.9424 -1.1477 -0.4223
 3930SOL     OW12688   3.402   5.517   6.851  0.3343  0.0054 -0.0149
 3930SOL    HW112689   3.498   5.494   6.832 -0.2189 -2.3306 -0.2785
 3930SOL    HW212690   3.343   5.467   6.788 -1.1123  0.9560  0.5371
 3931SOL     OW12691   1.117   3.434   1.818 -0.2221 -0.1007  0.8173
 3931SOL    HW112692   1.209   3.421   1.782 -0.5436 -0.0122 -0.0494
 3931SOL    HW212693   1.112   3.521   1.867 -0.2264  0.6350 -0.4441
 3932SOL     OW12694   0.162   1.156   6.610  0.1596  0.3452 -0.4007
 3932SOL    HW112695   0.156   1.236   6.669  0.6767 -0.7922  1.2694
 3932SOL    HW212696   0.258   1.126   6.606  0.0356  0.0674 -1.3675
 3933SOL     OW12697   3.726   0.075   1.849  0.5544 -0.3221  0.1423
 3933SOL    HW112698   3.789   0.056   1.924 -0.5486  0.8579  1.4276
 3933SOL    HW212699   3.745   0.167   1.813  0.1473 -0.3068 -0.0403
 3934SOL     OW12700   2.640   0.698   2.161  1.1227  0.2401  0.2145
 3934SOL    HW112701   2.654   0.795   2.180 -1.7993  1.6484 -3.4146
 3934SOL    HW212702   2.664   0.679   2.066 -3.3746 -1.0894 -0.9051
 3935SOL     OW12703   6.278   3.890   4.325  0.6539  0.3559 -0.2622
 3935SOL    HW112704   6.339   3.969   4.322  0.5301  0.4165 -1.7961
 3935SOL    HW212705   6.333   3.807   4.335  1.5307  0.0053 -5.3039
 3936SOL     OW12706   1.160   6.865   0.101 -0.2478 -0.2522 -0.1753
 3936SOL    HW112707   1.220   6.918   0.041 -0.5610 -0.5210 -0.7326
 3936SOL    HW212708   1.145   6.916   0.186  1.1495 -0.3927  0.1843
 3937SOL     OW12709   1.399   3.756   0.310 -0.1149  0.8581  0.4130
 3937SOL    HW112710   1.356   3.704   0.236  1.7138  1.2239 -0.9837
 3937SOL    HW212711   1.342   3.835   0.332 -1.4372 -0.0811  0.4808
 3938SOL     OW12712   6.069   6.814   3.171 -0.3736 -0.3421  0.1616
 3938SOL    HW112713   5.981   6.775   3.199 -0.6907 -2.3231 -3.0712
 3938SOL    HW212714   6.053   6.890   3.109  0.1678 -0.8513 -0.6101
 3939SOL     OW12715   0.889   5.684   2.606  0.5283  0.4955  0.2135
 3939SOL    HW112716   0.973   5.644   2.642  1.0304  1.3390  0.0084
 3939SOL    HW212717   0.818   5.613   2.599  1.2639 -0.2574  0.2463
 3940SOL     OW12718   3.757   4.258   6.956 -0.3483 -0.0501 -0.0216
 3940SOL    HW112719   3.675   4.225   7.001 -0.9584 -1.2660 -1.9080
 3940SOL    HW212720   3.830   4.191   6.966  0.4101  0.9447  1.4936
 3941SOL     OW12721   1.899   4.980   1.520  0.2447 -0.2351 -0.3479
 3941SOL    HW112722   1.882   4.951   1.426  0.1683 -1.2162 -0.0418
 3941SOL    HW212723   1.892   5.080   1.526 -0.5565 -0.2282 -1.2103
 3942SOL     OW12724   6.897   4.166   3.170  0.1025  0.2402 -0.2072
 3942SOL    HW112725   6.816   4.224   3.175  0.1759  0.4331 -1.1591
 3942SOL    HW212726   6.952   4.178   3.253  0.1941  1.6280 -0.4581
 3943SOL     OW12727   4.880   0.718   2.333  0.1630  0.0883  0.1757
 3943SOL    HW112728   4.977   0.710   2.309 -0.0332  0.9244 -1.0034
 3943SOL    HW212729   4.849   0.634   2.378  1.6835  0.2265  1.5589
 3944SOL     OW12730   1.602   6.097   2.933 -0.1832  0.0909  0.5077
 3944SOL    HW112731   1.625   6.192   2.952 -0.3219  0.0155  1.0672
 3944SOL    HW212732   1.544   6.061   3.006 -0.5840 -0.2594  0.0260
 3945SOL     OW12733   1.719   2.196   1.674  0.2712  0.0393 -0.0421
 3945SOL    HW112734   1.799   2.253   1.654 -0.6519  0.5627 -2.7542
 3945SOL    HW212735   1.640   2.255   1.693  0.0394 -0.4249  0.4753
 3946SOL     OW12736   3.541   3.237   3.989 -0.4263 -0.0828  0.2784
 3946SOL    HW112737   3.559   3.187   3.905  2.0417  0.1943  0.5777
 3946SOL    HW212738   3.443   3.256   3.996 -0.8117 -0.8897 -2.0580
 3947SOL     OW12739   4.178   3.518   5.292 -0.5247  0.0503  0.2308
 3947SOL    HW112740   4.233   3.439   5.316 -1.4463 -0.9124 -0.6859
 3947SOL    HW212741   4.135   3.556   5.374 -2.5601 -2.3298  0.3778
 3948SOL     OW12742   0.365   2.404   1.362 -0.5684 -0.3291 -0.1568
 3948SOL    HW112743   0.465   2.404   1.355 -0.3755 -2.3486  1.5543
 3948SOL    HW212744   0.329   2.487   1.320  1.8562  0.7337 -0.3310
 3949SOL     OW12745   1.420   0.084   3.812  0.1253 -0.1507  0.4028
 3949SOL    HW112746   1.496   0.135   3.852 -1.0491  1.6373  0.4787
 3949SOL    HW212747   1.402   0.119   3.720 -0.2351 -0.9660  0.1549
 3950SOL     OW12748   1.420   0.580   6.045  0.1397  0.5050 -0.6925
 3950SOL    HW112749   1.390   0.651   6.109  1.4686  0.9146 -0.4937
 3950SOL    HW212750   1.374   0.495   6.067 -2.1525  1.4719 -1.4823
 3951SOL     OW12751   6.975   1.705   5.267  0.2199  0.7392  0.0105
 3951SOL    HW112752   6.921   1.645   5.327 -0.0621 -0.0387 -0.9856
 3951SOL    HW212753   7.070   1.707   5.298  0.5840 -1.4549 -0.7907
 3952SOL     OW12754   5.339   2.899   4.630 -0.0312  0.2996 -0.3678
 3952SOL    HW112755   5.326   2.833   4.704 -3.8883  1.9565  0.6860
 3952SOL    HW212756   5.417   2.958   4.652  2.4860 -2.7331 -0.5676
 3953SOL     OW12757   1.626   1.439   4.569 -0.3494 -0.6108  0.5448
 3953SOL    HW112758   1.667   1.396   4.489 -1.1726  0.2030 -0.3460
 3953SOL    HW212759   1.566   1.374   4.615 -3.0583 -0.0353 -1.8469
 3954SOL     OW12760   4.752   5.673   0.830  0.3484 -0.1419  0.5670
 3954SOL    HW112761   4.793   5.721   0.751 -0.3718 -1.8668 -0.9231
 3954SOL    HW212762   4.662   5.710   0.848 -0.2019 -0.8634 -0.5746
 3955SOL     OW12763   6.745   4.576   2.108  0.8240 -0.4927  0.2370
 3955SOL    HW112764   6.741   4.522   2.192 -1.9977 -0.5161  0.1862
 3955SOL    HW212765   6.751   4.673   2.130  0.3141 -0.5126  0.4552
 3956SOL     OW12766   5.434   1.672   1.215  0.2231 -0.0715  0.1342
 3956SOL    HW112767   5.523   1.634   1.192  0.6976  1.7174 -1.2531
 3956SOL    HW212768   5.404   1.636   1.303  3.0054  0.3921  1.3857
 3957SOL     OW12769   0.446   5.484   2.717  0.1942  0.0231  0.9580
 3957SOL    HW112770   0.378   5.431   2.668  1.6536 -0.4811 -0.5831
 3957SOL    HW212771   0.403   5.526   2.798 -1.4624 -1.7832  1.0767
 3958SOL     OW12772   6.322   0.338   0.228 -0.6126 -0.4942 -0.0610
 3958SOL    HW112773   6.309   0.405   0.154  3.6989 -0.2582 -0.8621
 3958SOL    HW212774   6.370   0.258   0.192 -0.0296 -1.2008  2.1419
 3959SOL     OW12775   0.274   5.595   4.229 -0.2899  0.3026 -0.0347
 3959SOL    HW112776   0.269   5.514   4.287 -1.5812 -0.2679 -0.9001
 3959SOL    HW212777   0.205   5.662   4.258 -0.4864  0.2973 -0.4761
 3960SOL     OW12778   2.517   6.915   3.047 -0.6104 -0.1792 -0.1610
 3960SOL    HW112779   2.419   6.901   3.038 -0.4454 -1.0954 -0.6192
 3960SOL    HW212780   2.566   6.853   2.986  0.2780 -0.2691  0.6160
 3961SOL     OW12781   3.353   3.181   5.866  0.0813  0.6206 -0.6960
 3961SOL    HW112782   3.303   3.152   5.784 -1.3205  2.2923 -0.4892
 3961SOL    HW212783   3.423   3.247   5.840  0.8169 -0.1589 -0.7323
 3962SOL     OW12784   5.115   0.888   1.594 -0.5323 -0.2672  0.4379
 3962SOL    HW112785   5.081   0.881   1.687 -0.1501 -1.4065  0.5071
 3962SOL    HW212786   5.212   0.865   1.592 -0.6264 -0.6326 -0.2873
 3963SOL     OW12787   6.177   4.002   0.206 -0.0671  0.4716 -0.6212
 3963SOL    HW112788   6.164   4.093   0.167 -1.8396  0.1123 -0.9819
 3963SOL    HW212789   6.158   3.933   0.136  3.4202 -0.2591 -1.0202
 3964SOL     OW12790   5.533   1.435   6.483  0.4999 -0.0104 -0.0114
 3964SOL    HW112791   5.535   1.443   6.384  1.1517 -1.5002 -0.1386
 3964SOL    HW212792   5.483   1.513   6.522  1.1269  1.1405 -1.4283
 3965SOL     OW12793   6.030   2.394   4.509  0.0060  0.3603  0.0623
 3965SOL    HW112794   5.958   2.353   4.454  0.0576 -1.8713  1.5352
 3965SOL    HW212795   6.098   2.437   4.449 -2.1266  1.9205 -1.3799
 3966SOL     OW12796   0.829   3.853   3.851  0.1539 -0.0608  0.2816
 3966SOL    HW112797   0.851   3.796   3.771 -3.3406  0.0073 -0.9085
 3966SOL    HW212798   0.782   3.935   3.820 -0.2480  0.5457  2.3851
 3967SOL     OW12799   3.702   6.151   2.703 -0.4417 -0.4052 -0.0054
 3967SOL    HW112800   3.779   6.090   2.683 -1.1860 -0.5062 -2.9022
 3967SOL    HW212801   3.688   6.155   2.802  1.0748 -3.1153  0.4088
 3968SOL     OW12802   5.712   1.869   5.143 -0.4953 -0.1725  0.2783
 3968SOL    HW112803   5.736   1.821   5.227 -0.5992 -0.2806  0.2469
 3968SOL    HW212804   5.654   1.810   5.087 -0.1580 -0.2197 -0.0175
 3969SOL     OW12805   6.336   6.443   5.444 -0.0750 -0.8955  0.2208
 3969SOL    HW112806   6.240   6.466   5.432 -0.0661 -0.7403  0.4477
 3969SOL    HW212807   6.345   6.347   5.470 -0.1730 -0.8808  0.3061
 3970SOL     OW12808   5.243   3.592   6.749 -0.1629  0.1912 -0.5145
 3970SOL    HW112809   5.251   3.675   6.695  0.2808  0.9537  0.6986
 3970SOL    HW212810   5.200   3.520   6.693  2.2102  0.2648 -2.5815
 3971SOL     OW12811   5.199   0.245   6.322 -0.6514  0.1326 -0.4761
 3971SOL    HW112812   5.166   0.155   6.292  0.8374 -0.4387 -0.4871
 3971SOL    HW212813   5.121   0.305   6.339 -1.8462 -1.8698  1.8554
 3972SOL     OW12814   4.324   3.226   0.900  0.2814  0.3090  0.4600
 3972SOL    HW112815   4.234   3.263   0.924 -0.1964 -1.1376  1.0257
 3972SOL    HW212816   4.313   3.150   0.835  1.2918  1.6361 -1.3416
 3973SOL     OW12817   0.607   2.164   4.134 -0.5068  0.5297 -0.4289
 3973SOL    HW112818   0.705   2.165   4.152 -0.1070 -0.1092 -2.3573
 3973SOL    HW212819   0.583   2.237   4.070 -1.1192  0.0207 -0.7929
 3974SOL     OW12820   4.783   1.063   1.018  0.3910  0.5934 -0.1098
 3974SOL    HW112821   4.794   1.156   1.054 -0.3928  1.4928 -2.0266
 3974SOL    HW212822   4.872   1.018   1.013  0.7742  1.2100  0.9260
 3975SOL     OW12823   6.414   6.680   4.513 -0.1823  0.3217  0.1501
 3975SOL    HW112824   6.509   6.705   4.528  0.2494 -0.9616 -0.3100
 3975SOL    HW212825   6.398   6.665   4.416 -1.3011  2.1467 -0.0080
 3976SOL     OW12826   3.642   0.764   2.306 -0.2068 -0.8331 -0.1254
 3976SOL    HW112827   3.601   0.853   2.288 -0.2830 -1.3263 -2.7540
 3976SOL    HW212828   3.572   0.701   2.340 -0.7389 -0.5738 -0.7149
 3977SOL     OW12829   4.430   5.013   3.242  0.3592 -0.3503 -0.0383
 3977SOL    HW112830   4.337   5.030   3.277  0.7565  0.3937  0.6812
 3977SOL    HW212831   4.441   4.915   3.224  0.1524 -0.7885  1.9968
 3978SOL     OW12832   5.623   4.333   6.053 -0.1647 -0.4079 -0.3606
 3978SOL    HW112833   5.680   4.306   5.976  2.2999  1.6443  0.5885
 3978SOL    HW212834   5.667   4.408   6.103 -2.5015 -0.4467  2.0198
 3979SOL     OW12835   5.105   3.972   4.202  0.0297  0.1135  0.0978
 3979SOL    HW112836   5.092   3.938   4.108 -1.3810 -0.5121  0.4902
 3979SOL    HW212837   5.149   3.901   4.257 -0.9640 -0.3165  0.3785
 3980SOL     OW12838   1.856   3.719   0.522  0.2259  0.4138 -0.6271
 3980SOL    HW112839   1.894   3.748   0.610  1.4909  1.7953 -1.5680
 3980SOL    HW212840   1.756   3.718   0.527  0.2750 -0.0235  0.9398
 3981SOL     OW12841   3.127   6.175   3.292  0.2189 -0.2326  0.6692
 3981SOL    HW112842   3.055   6.227   3.337  1.4272  1.1413  1.1009
 3981SOL    HW212843   3.214   6.190   3.339  1.1105 -0.5293 -0.8104
 3982SOL     OW12844   6.869   5.835   4.989 -0.0152 -0.7544 -0.5615
 3982SOL    HW112845   6.842   5.826   5.085  1.5163  0.7551  0.0529
 3982SOL    HW212846   6.951   5.892   4.982 -0.8581  0.3185 -2.8832
 3983SOL     OW12847   3.439   1.274   6.649 -0.6046  0.3510  0.1169
 3983SOL    HW112848   3.374   1.206   6.615 -0.7832  1.4991 -1.9890
 3983SOL    HW212849   3.401   1.365   6.637 -0.1241  0.9220  2.3746
 3984SOL     OW12850   5.510   2.773   0.458 -0.2978 -0.1324 -0.5186
 3984SOL    HW112851   5.570   2.828   0.401  2.0305  0.8855  2.6476
 3984SOL    HW212852   5.425   2.823   0.476  0.2725  0.8734 -0.5655
 3985SOL     OW12853   1.570   6.996   6.369 -0.4057  0.0371  0.0552
 3985SOL    HW112854   1.545   6.914   6.420  0.9953 -0.7585 -0.4972
 3985SOL    HW212855   1.571   6.976   6.271 -0.4979  0.8456 -0.1173
 3986SOL     OW12856   4.382   2.185   3.664 -0.1497  0.0424 -0.2731
 3986SOL    HW112857   4.343   2.233   3.743 -1.3107 -1.2116 -0.0595
 3986SOL    HW212858   4.482   2.188   3.670 -0.1738  1.8927  0.0343
 3987SOL     OW12859   6.887   4.748   3.564 -0.0384 -0.3846  0.6270
 3987SOL    HW112860   6.923   4.828   3.517 -0.3723 -0.4677  0.2210
 3987SOL    HW212861   6.791   4.764   3.590  0.3377 -0.0786  1.8976
 3988SOL     OW12862   3.761   1.145   3.050  0.7904  0.2620 -0.5121
 3988SOL    HW112863   3.817   1.159   3.132  0.2290  0.2051 -0.1065
 3988SOL    HW212864   3.749   1.232   3.002 -0.2147  0.6414  0.3644
 3989SOL     OW12865   1.594   2.784   4.199  0.4352  0.0705  0.4186
 3989SOL    HW112866   1.683   2.827   4.213  1.0658 -0.9053 -0.3965
 3989SOL    HW212867   1.605   2.704   4.139 -1.2305  0.8216 -0.9876
 3990SOL     OW12868   3.607   5.066   0.450 -0.5638  0.4545  0.2177
 3990SOL    HW112869   3.645   5.105   0.534  0.1236  1.4906 -0.5413
 3990SOL    HW212870   3.682   5.029   0.394 -0.7713  1.4831 -0.7784
 3991SOL     OW12871   2.922   2.445   6.433  0.6168  0.2807 -0.2311
 3991SOL    HW112872   2.949   2.527   6.485  1.6270  0.6431 -1.2949
 3991SOL    HW212873   2.885   2.377   6.496  0.2204  1.3617  0.7413
 3992SOL     OW12874   1.607   0.293   3.882 -0.3478 -0.4715  0.0148
 3992SOL    HW112875   1.705   0.275   3.892  0.1620  1.4541 -0.8783
 3992SOL    HW212876   1.578   0.356   3.954 -0.6077 -0.0151 -0.4827
 3993SOL     OW12877   1.400   1.224   0.432 -0.3322 -0.1046 -0.1041
 3993SOL    HW112878   1.463   1.213   0.356 -0.3314  0.4366 -0.1876
 3993SOL    HW212879   1.445   1.197   0.518 -0.0315  0.1576 -0.1782
 3994SOL     OW12880   6.364   2.961   4.633 -0.3349  0.3117 -0.4562
 3994SOL    HW112881   6.350   2.888   4.700  0.0659  0.8799  0.2698
 3994SOL    HW212882   6.364   3.050   4.680 -0.2699  0.7386 -1.2435
 3995SOL     OW12883   3.529   4.123   5.066 -0.7802 -0.1831  0.0251
 3995SOL    HW112884   3.607   4.180   5.091 -1.3685  0.1943  1.0314
 3995SOL    HW212885   3.540   4.092   4.972  0.4439  0.0961  0.0604
 3996SOL     OW12886   5.458   0.862   3.543  0.0843  0.3810  0.1810
 3996SOL    HW112887   5.417   0.930   3.603  1.6585 -0.0480  1.8204
 3996SOL    HW212888   5.473   0.777   3.594  0.1084 -0.5136 -1.2434
 3997SOL     OW12889   1.578   1.063   3.547  0.2089  0.2305 -0.1411
 3997SOL    HW112890   1.518   1.134   3.583  1.4555  1.0047  0.4701
 3997SOL    HW212891   1.589   0.990   3.615  0.2606  0.2700 -0.1074
 3998SOL     OW12892   6.288   5.811   1.806  0.3351 -0.0315  0.1712
 3998SOL    HW112893   6.271   5.773   1.897  1.5311  1.9805  1.2981
 3998SOL    HW212894   6.386   5.827   1.794  0.0772  0.7749 -1.0453
 3999SOL     OW12895   0.842   1.854   2.834  0.5830  0.5812  0.0275
 3999SOL    HW112896   0.926   1.873   2.884  0.8014  1.6218 -0.7025
 3999SOL    HW212897   0.836   1.914   2.755  0.5327 -1.4029 -1.5528
 4000SOL     OW12898   2.577   5.377   6.308 -0.8274 -1.0260 -0.3302
 4000SOL    HW112899   2.496   5.319   6.306 -0.8588 -0.9942 -0.0631
 4000SOL    HW212900   2.557   5.465   6.265 -0.8953 -1.0692 -0.3857
 4001SOL     OW12901   0.447   1.713   5.524 -0.6299 -0.5279  0.4012
 4001SOL    HW112902   0.478   1.767   5.602  2.6245  2.5090 -2.6055
 4001SOL    HW212903   0.492   1.624   5.524  0.6526  0.0966  1.1442
 4002SOL     OW12904   5.647   0.193   4.973 -0.2331 -0.1229 -0.0616
 4002SOL    HW112905   5.575   0.127   4.994  1.3215 -0.8212  3.8148
 4002SOL    HW212906   5.631   0.277   5.025  0.9491  0.3159 -0.3794
 4003SOL     OW12907   2.655   6.404   1.937 -0.4083 -0.2460 -0.0195
 4003SOL    HW112908   2.713   6.479   1.969 -1.1217  0.2397  0.1557
 4003SOL    HW212909   2.708   6.345   1.876  0.5226 -0.2943  0.7968
 4004SOL     OW12910   6.373   2.649   3.839 -0.2956  0.7127 -0.1995
 4004SOL    HW112911   6.429   2.625   3.918  0.7184  1.8122 -0.5537
 4004SOL    HW212912   6.359   2.568   3.782  2.3530  0.7016 -0.9619
 4005SOL     OW12913   1.512   5.760   4.093 -0.4547  0.1956 -0.0381
 4005SOL    HW112914   1.420   5.800   4.091 -0.6100  0.0044  1.8088
 4005SOL    HW212915   1.506   5.664   4.121  0.3507  0.3419  0.6676
 4006SOL     OW12916   6.308   4.462   4.737  0.0469  0.1710 -0.1855
 4006SOL    HW112917   6.398   4.423   4.720 -0.8238 -1.9094 -0.3549
 4006SOL    HW212918   6.240   4.414   4.681 -1.1505  1.9344 -0.3473
 4007SOL     OW12919   4.640   1.173   5.338  0.4562  0.6017  0.9427
 4007SOL    HW112920   4.555   1.155   5.388 -0.3406  0.3036 -0.4548
 4007SOL    HW212921   4.717   1.175   5.402 -0.3424 -0.9935  2.0193
 4008SOL     OW12922   4.541   5.434   4.044 -0.1135 -0.1267  0.3746
 4008SOL    HW112923   4.479   5.438   3.966  0.6599 -1.5427 -0.3625
 4008SOL    HW212924   4.544   5.340   4.079  2.2698 -0.3365 -0.2024
 4009SOL     OW12925   1.400   2.882   4.923  0.2146 -0.5105  0.5193
 4009SOL    HW112926   1.471   2.947   4.949  0.1562 -0.8247  1.5200
 4009SOL    HW212927   1.343   2.862   5.003 -0.7921 -0.5161 -0.1872
 4010SOL     OW12928   2.403   0.530   1.506 -0.1136  0.7171  0.5788
 4010SOL    HW112929   2.496   0.557   1.529  0.5232 -0.6130 -0.3100
 4010SOL    HW212930   2.365   0.594   1.439  0.5079  0.7323  0.2403
 4011SOL     OW12931   0.907   0.166   6.489  0.3822 -0.3330 -0.1010
 4011SOL    HW112932   0.837   0.236   6.478  1.5088  0.7618 -0.4947
 4011SOL    HW212933   0.890   0.115   6.573 -0.8547 -0.0693 -0.1727
 4012SOL     OW12934   2.769   1.826   2.175  0.0583 -0.0813  0.2900
 4012SOL    HW112935   2.718   1.867   2.099  1.3977 -1.3604 -1.3859
 4012SOL    HW212936   2.770   1.889   2.252 -2.4909  0.7138 -0.2421
 4013SOL     OW12937   0.470   6.303   4.561 -0.9246  0.3148 -0.0775
 4013SOL    HW112938   0.509   6.211   4.551 -0.3059  0.7542 -2.1688
 4013SOL    HW212939   0.523   6.354   4.629 -0.1570 -0.2804 -0.2174
 4014SOL     OW12940   2.402   5.087   0.571  0.5939  0.2627 -0.1711
 4014SOL    HW112941   2.460   5.014   0.536  1.0109 -0.8419  2.6230
 4014SOL    HW212942   2.458   5.157   0.615 -0.0540 -0.2025  1.4638
 4015SOL     OW12943   0.498   0.220   1.380  0.3833  0.0084  0.4141
 4015SOL    HW112944   0.484   0.256   1.472  1.5981  0.0078  0.6282
 4015SOL    HW212945   0.594   0.235   1.354 -0.6659  3.2643 -2.2618
 4016SOL     OW12946   3.830   0.588   6.724  0.1029 -0.1378 -0.2163
 4016SOL    HW112947   3.839   0.548   6.815 -0.4273 -0.0814 -0.1371
 4016SOL    HW212948   3.848   0.518   6.655 -0.7827 -0.5122 -0.0775
 4017SOL     OW12949   4.554   1.822   4.660  0.1760  0.7473 -0.9551
 4017SOL    HW112950   4.468   1.775   4.638  1.0214 -1.5409  0.1868
 4017SOL    HW212951   4.578   1.885   4.587 -1.0068 -0.7257 -2.7125
 4018SOL     OW12952   3.342   5.884   5.575 -0.1965 -0.2626 -0.0989
 4018SOL    HW112953   3.283   5.842   5.644 -2.8304 -2.2994 -3.2688
 4018SOL    HW212954   3.285   5.926   5.504  2.2307 -0.6020 -2.4166
 4019SOL     OW12955   1.232   0.260   3.951 -0.6367 -0.2511 -0.3990
 4019SOL    HW112956   1.147   0.213   3.930 -1.3574 -0.8302  3.2635
 4019SOL    HW212957   1.309   0.200   3.931 -1.3767 -1.6714  0.8283
 4020SOL     OW12958   0.932   4.281   6.992 -0.5087 -0.1359  0.7358
 4020SOL    HW112959   0.864   4.225   6.945  0.8981 -2.1038  0.9305
 4020SOL    HW212960   1.006   4.304   6.927 -0.1735 -0.0729  1.1368
 4021SOL     OW12961   3.515   0.430   4.401  0.8106  0.2053  0.5873
 4021SOL    HW112962   3.500   0.525   4.375 -0.6095  0.0070  0.5858
 4021SOL    HW212963   3.523   0.373   4.319 -0.7817 -0.0048  0.5479
 4022SOL     OW12964   0.687   1.859   0.927  0.4232  0.3254 -0.1107
 4022SOL    HW112965   0.594   1.887   0.949  1.2043  3.0515  0.0516
 4022SOL    HW212966   0.695   1.760   0.937 -2.0699  0.1798  1.2263
 4023SOL     OW12967   4.310   1.853   2.557 -0.5961  0.2759 -0.2177
 4023SOL    HW112968   4.384   1.876   2.621  1.3734  1.4995 -2.7433
 4023SOL    HW212969   4.272   1.937   2.518  1.6251 -0.2905 -4.1200
 4024SOL     OW12970   4.459   5.861   1.456 -0.4712  0.2636  0.1052
 4024SOL    HW112971   4.369   5.831   1.489 -1.5037 -0.0132 -2.6794
 4024SOL    HW212972   4.472   5.830   1.361  2.6298  0.2472  0.4293
 4025SOL     OW12973   0.046   0.364   6.452 -0.4510 -0.6052  0.1054
 4025SOL    HW112974  -0.042   0.340   6.492  0.0598 -0.6922  1.2030
 4025SOL    HW212975   0.032   0.396   6.358 -1.6185 -0.8344  0.1852
 4026SOL     OW12976   3.988   3.454   5.875 -0.1163  0.3351  0.2820
 4026SOL    HW112977   4.082   3.418   5.879 -0.2793 -0.9864 -3.6204
 4026SOL    HW212978   3.988   3.545   5.835 -0.4525  0.5956  0.8696
 4027SOL     OW12979   1.904   3.053   3.227  0.2275  0.2252  0.3352
 4027SOL    HW112980   1.922   2.993   3.305 -0.6143 -1.7485 -0.8913
 4027SOL    HW212981   1.805   3.054   3.208  0.4210  0.5747 -0.7429
 4028SOL     OW12982   4.685   4.775   3.312 -0.4766 -0.3938  0.0003
 4028SOL    HW112983   4.725   4.765   3.403 -0.8746 -2.2070  0.0249
 4028SOL    HW212984   4.756   4.800   3.247 -0.4702  2.5543  1.0279
 4029SOL     OW12985   5.953   4.328   3.544  0.2428 -0.4420  0.5344
 4029SOL    HW112986   5.958   4.418   3.587 -1.0345  0.9269 -1.9773
 4029SOL    HW212987   6.036   4.277   3.565  2.0975  2.2184  0.1444
 4030SOL     OW12988   4.877   5.399   2.865  0.2707 -0.5249  0.5061
 4030SOL    HW112989   4.894   5.304   2.838  1.5734  0.0276 -0.8017
 4030SOL    HW212990   4.904   5.412   2.961 -1.4189 -1.8125  1.1946
 4031SOL     OW12991   4.732   6.912   4.658 -0.0930  0.3403 -0.7819
 4031SOL    HW112992   4.768   6.995   4.614  0.1099  0.6879  0.0156
 4031SOL    HW212993   4.796   6.837   4.645  0.1377  0.5334 -0.7829
 4032SOL     OW12994   4.992   0.426   6.337  0.1933 -0.1921  0.0962
 4032SOL    HW112995   4.970   0.479   6.255  2.0512 -0.5508 -0.6718
 4032SOL    HW212996   4.994   0.486   6.416  0.0932  0.4743 -0.4000
 4033SOL     OW12997   2.138   6.058   5.334  0.1023 -0.1086  0.5457
 4033SOL    HW112998   2.215   6.028   5.390  0.8066  0.6608  0.0068
 4033SOL    HW212999   2.112   6.151   5.358  1.7604  1.0515 -1.7148
 4034SOL     OW13000   2.871   1.384   3.519  0.4205 -0.1957  0.1930
 4034SOL    HW113001   2.787   1.417   3.561  0.8174  1.0639  0.0262
 4034SOL    HW213002   2.950   1.429   3.561  0.8479  1.0071 -1.7386
 4035SOL     OW13003   0.555   1.417   0.190 -0.0954 -0.0104  0.3980
 4035SOL    HW113004   0.612   1.377   0.262 -0.2538 -3.1916 -1.0439
 4035SOL    HW213005   0.608   1.487   0.141  1.4288 -0.5775  1.1506
 4036SOL     OW13006   4.913   3.866   4.005  0.4127 -0.2041 -0.5699
 4036SOL    HW113007   4.878   3.881   3.913 -0.7444 -0.7675 -0.2383
 4036SOL    HW213008   4.860   3.922   4.070 -1.5290 -2.7655  0.2285
 4037SOL     OW13009   3.854   5.952   5.706  0.0846  0.9782  0.3406
 4037SOL    HW113010   3.915   5.874   5.718 -2.3352 -1.0648  0.1450
 4037SOL    HW213011   3.827   5.958   5.611 -0.7733  1.2370  0.5970
 4038SOL     OW13012   0.832   6.813   6.786  0.2285  0.1017  0.3496
 4038SOL    HW113013   0.841   6.730   6.841  1.6622  0.7431  1.1309
 4038SOL    HW213014   0.736   6.840   6.781  0.0353 -0.1496  2.2691
 4039SOL     OW13015   6.702   3.383   6.549  0.0292 -0.0080  0.1860
 4039SOL    HW113016   6.719   3.296   6.594 -1.5230 -0.6388 -0.4020
 4039SOL    HW213017   6.769   3.451   6.582 -0.5805 -0.5962  2.9274
 4040SOL     OW13018   2.219   0.674   2.907  0.1957  0.0920 -0.2216
 4040SOL    HW113019   2.158   0.727   2.965 -0.3222 -1.3895  0.6448
 4040SOL    HW213020   2.291   0.733   2.871 -1.5918  1.8485 -1.1108
 4041SOL     OW13021   1.013   4.849   6.766 -0.1175 -0.0695 -0.1047
 4041SOL    HW113022   1.092   4.909   6.780 -0.3961  0.2387  0.1780
 4041SOL    HW213023   0.929   4.903   6.773 -0.4672 -0.8242  2.0266
 4042SOL     OW13024   3.814   0.805   2.726 -0.3737 -0.2206 -0.0162
 4042SOL    HW113025   3.736   0.856   2.762 -0.9020  0.3943 -1.9552
 4042SOL    HW213026   3.801   0.707   2.745 -0.6056  0.0573  1.4199
 4043SOL     OW13027   7.009   5.716   6.489  0.4181 -0.0535 -0.3664
 4043SOL    HW113028   6.925   5.770   6.487  0.7892  0.5806  0.7101
 4043SOL    HW213029   7.022   5.672   6.400  0.2193  1.7755 -1.3374
 4044SOL     OW13030   4.688   5.031   5.859  0.1347 -0.2359 -0.1069
 4044SOL    HW113031   4.624   5.079   5.919  0.7213 -1.7549  1.8747
 4044SOL    HW213032   4.664   4.933   5.858  1.9821 -0.7164  0.1393
 4045SOL     OW13033   3.416   2.080   4.236 -0.0639  0.2558 -0.2247
 4045SOL    HW113034   3.357   2.073   4.316  1.0662  2.0123  0.8416
 4045SOL    HW213035   3.363   2.114   4.158 -0.8273  0.1366  0.2368
 4046SOL     OW13036   0.858   6.173   5.928 -0.2368  0.2212 -1.1825
 4046SOL    HW113037   0.810   6.234   5.865  0.2401  1.6461 -0.2260
 4046SOL    HW213038   0.938   6.220   5.965 -2.1205  0.6789  2.8415
 4047SOL     OW13039   5.308   6.798   4.595 -0.2361  0.1922  0.3129
 4047SOL    HW113040   5.404   6.806   4.623  0.1790 -0.1515 -0.9417
 4047SOL    HW213041   5.293   6.852   4.512 -1.4105  1.1544  1.1372
 4048SOL     OW13042   0.610   0.337   3.730  0.4548 -0.1840 -0.3782
 4048SOL    HW113043   0.619   0.281   3.648  1.0598  0.8347 -1.0223
 4048SOL    HW213044   0.567   0.424   3.707 -0.4788 -0.3527  0.6109
 4049SOL     OW13045   2.203   2.140   3.099 -0.3281  0.3729 -0.4531
 4049SOL    HW113046   2.279   2.075   3.105 -0.4530  0.2158 -0.5701
 4049SOL    HW213047   2.182   2.158   3.003 -1.4518 -0.7784 -0.4486
 4050SOL     OW13048   5.394   4.474   6.938 -0.0025 -0.4087  0.0994
 4050SOL    HW113049   5.330   4.543   6.903 -0.2742  0.0344  1.4396
 4050SOL    HW213050   5.344   4.400   6.982  0.3746 -0.3069  0.7153
 4051SOL     OW13051   6.365   6.972   4.140 -0.0692  0.1491  0.2349
 4051SOL    HW113052   6.349   6.918   4.057 -0.8497 -0.6737  0.8877
 4051SOL    HW213053   6.286   6.963   4.201 -0.4964  2.5466  0.1173
 4052SOL     OW13054   6.887   0.487   0.417 -0.3891 -0.1452 -0.7428
 4052SOL    HW113055   6.814   0.435   0.460  0.9303 -0.4746  1.2234
 4052SOL    HW213056   6.974   0.439   0.430  0.6833  1.9250  0.0510
 4053SOL     OW13057   5.883   0.004   3.255 -0.2013 -0.3967 -0.0209
 4053SOL    HW113058   5.901   0.005   3.156  1.3740 -0.0802  0.2406
 4053SOL    HW213059   5.795   0.047   3.273 -0.5476 -0.5217 -1.2876
 4054SOL     OW13060   2.656   5.667   1.207  0.7847  0.3759 -0.0843
 4054SOL    HW113061   2.619   5.603   1.140  3.6010 -1.1003 -0.3983
 4054SOL    HW213062   2.588   5.684   1.278  0.3898 -4.5261  1.0528
 4055SOL     OW13063   6.923   3.092   6.894  0.0967  0.2741 -0.2962
 4055SOL    HW113064   6.969   3.006   6.917  1.2567  1.2401  1.2478
 4055SOL    HW213065   6.892   3.136   6.978 -0.5094  1.3502 -1.0633
 4056SOL     OW13066   3.104   1.959   5.483  0.6254 -0.4828 -0.1829
 4056SOL    HW113067   3.091   2.034   5.547 -2.1202 -0.6274 -0.4672
 4056SOL    HW213068   3.124   1.996   5.392  1.2878 -0.1850  0.0780
 4057SOL     OW13069   0.064   6.216   2.251  0.0162 -0.4044  0.2238
 4057SOL    HW113070   0.109   6.257   2.331  1.5433 -0.9197 -0.3319
 4057SOL    HW213071  -0.035   6.229   2.258  0.3577  3.2226  0.1382
 4058SOL     OW13072   5.141   0.146   5.291  0.6594 -0.3635  0.1313
 4058SOL    HW113073   5.059   0.197   5.262  0.5559 -1.1721 -1.0564
 4058SOL    HW213074   5.222   0.203   5.276  0.5649 -0.5859 -1.3713
 4059SOL     OW13075   1.875   0.830   5.685  0.0898 -0.6846 -0.3391
 4059SOL    HW113076   1.957   0.781   5.656  0.1648 -0.1274 -1.1065
 4059SOL    HW213077   1.878   0.924   5.649 -0.4311 -0.3672  0.4270
 4060SOL     OW13078   5.825   4.312   0.937  0.4126 -0.3573  0.0368
 4060SOL    HW113079   5.878   4.229   0.949 -2.3002 -2.2112  0.1447
 4060SOL    HW213080   5.810   4.329   0.840 -1.6740 -1.9308  0.0066
 4061SOL     OW13081   1.833   0.492   2.745 -0.6476  0.0440  0.0131
 4061SOL    HW113082   1.839   0.399   2.780  0.0264 -0.5065 -1.4409
 4061SOL    HW213083   1.925   0.523   2.719 -0.6147  1.7523  1.9506
 4062SOL     OW13084   4.071   5.148   6.169  0.0920 -0.4986  0.3172
 4062SOL    HW113085   3.981   5.111   6.147  0.0926 -0.0005 -0.5689
 4062SOL    HW213086   4.119   5.173   6.085 -0.0111  1.7408  0.8501
 4063SOL     OW13087   5.327   6.023   0.920  0.6067 -0.4796  0.0132
 4063SOL    HW113088   5.371   5.937   0.896  0.2529  0.1006 -3.2529
 4063SOL    HW213089   5.228   6.011   0.925  0.7182 -0.9646  3.4906
 4064SOL     OW13090   4.223   5.681   5.467  0.0721  0.0028  0.2641
 4064SOL    HW113091   4.259   5.702   5.376  0.0905 -1.8718 -0.2064
 4064SOL    HW213092   4.241   5.585   5.489  0.0596  0.4102  2.2637
 4065SOL     OW13093   6.284   6.585   4.773 -0.1660  0.0331 -0.2310
 4065SOL    HW113094   6.338   6.541   4.845 -2.1284 -0.8221  0.7823
 4065SOL    HW213095   6.346   6.630   4.709  1.9741 -3.5482 -0.9631
 4066SOL     OW13096   2.844   3.711   1.482  0.2010  0.3306 -0.0285
 4066SOL    HW113097   2.922   3.743   1.537 -0.0098  0.5314  0.1552
 4066SOL    HW213098   2.864   3.727   1.385  0.5607  0.0034 -0.0139
 4067SOL     OW13099   3.514   4.474   0.354  0.2598 -0.0866 -0.0627
 4067SOL    HW113100   3.506   4.376   0.368 -0.0653 -0.2286 -1.1498
 4067SOL    HW213101   3.506   4.495   0.256  0.4241  1.0099  0.1410
 4068SOL     OW13102   3.772   4.525   0.001 -0.4958 -0.3911 -0.5135
 4068SOL    HW113103   3.799   4.428   0.006  0.9498 -0.0013 -0.1718
 4068SOL    HW213104   3.673   4.532  -0.002 -0.7236 -1.8408  1.3773
 4069SOL     OW13105   6.217   0.633   2.596 -0.1655  0.0615  0.6944
 4069SOL    HW113106   6.196   0.613   2.692 -1.7043 -0.4901  0.2792
 4069SOL    HW213107   6.313   0.611   2.578 -0.0743 -0.6618  1.8954
 4070SOL     OW13108   1.399   3.545   1.572 -0.0351  0.1988  0.1581
 4070SOL    HW113109   1.346   3.460   1.566  0.3562  0.0010 -0.7390
 4070SOL    HW213110   1.482   3.529   1.624 -0.3077  0.2198  0.6042
 4071SOL     OW13111   4.936   2.153   1.819 -0.3464 -0.3286  0.4753
 4071SOL    HW113112   4.866   2.118   1.882  1.2536 -2.1402  1.3527
 4071SOL    HW213113   4.955   2.085   1.749  2.2806 -1.0507  1.7398
 4072SOL     OW13114   6.192   6.697   5.497 -0.6250  0.1417 -0.7077
 4072SOL    HW113115   6.122   6.626   5.496  0.5848 -1.0894 -1.0433
 4072SOL    HW213116   6.283   6.654   5.502  0.1169  1.6855 -0.3430
 4073SOL     OW13117   1.915   2.380   5.780 -0.1931  0.3838  0.6244
 4073SOL    HW113118   1.896   2.423   5.692  1.1059  0.9815  0.6091
 4073SOL    HW213119   1.829   2.362   5.828 -0.8136  2.4714  0.3821
 4074SOL     OW13120   5.811   3.853   4.543 -1.5180 -0.2503  0.6123
 4074SOL    HW113121   5.903   3.831   4.512 -1.3010 -2.3746  2.4510
 4074SOL    HW213122   5.769   3.920   4.482  1.1401  0.6079 -0.3907
 4075SOL     OW13123   5.506   2.875   2.450  0.2218 -0.0795  0.8962
 4075SOL    HW113124   5.597   2.910   2.426 -0.1664  0.4956  0.2269
 4075SOL    HW213125   5.475   2.812   2.379  0.1628 -0.4081  1.2092
 4076SOL     OW13126   5.869   6.272   1.478  0.2699 -0.0802  0.0112
 4076SOL    HW113127   5.915   6.323   1.551 -0.7354 -1.2186  1.5122
 4076SOL    HW213128   5.887   6.175   1.489  0.1401 -0.2787 -1.3306
 4077SOL     OW13129   3.944   6.641   0.625  0.3193 -0.1348  1.0403
 4077SOL    HW113130   4.038   6.659   0.653  0.8172 -1.0737  0.0456
 4077SOL    HW213131   3.912   6.556   0.667  1.0169 -1.4667 -1.0417
 4078SOL     OW13132   1.864   2.553   0.398  0.2632 -1.1394  0.0280
 4078SOL    HW113133   1.927   2.611   0.347 -0.7157 -0.3732 -0.3261
 4078SOL    HW213134   1.785   2.531   0.341 -1.5323  0.8708  1.6144
 4079SOL     OW13135   0.780   0.697   3.821  0.6623  0.4760  0.1758
 4079SOL    HW113136   0.821   0.770   3.766  0.0379  0.3877 -0.4264
 4079SOL    HW213137   0.681   0.707   3.822  0.1738 -2.2354 -2.8025
 4080SOL     OW13138   6.666   0.125   0.731 -0.2594 -0.1531  0.8364
 4080SOL    HW113139   6.567   0.128   0.716 -0.0493  4.6751 -1.5092
 4080SOL    HW213140   6.687   0.162   0.821 -0.5473 -0.4617  1.0326
 4081SOL     OW13141   4.648   4.315   4.545 -0.8581  0.0940  0.1967
 4081SOL    HW113142   4.657   4.371   4.627 -1.5227 -1.3756  1.3230
 4081SOL    HW213143   4.730   4.258   4.534 -0.5761  0.6081 -0.4248
 4082SOL     OW13144   6.382   5.196   0.509 -0.1078 -0.1199 -0.4589
 4082SOL    HW113145   6.284   5.180   0.505 -0.4455  1.9156 -1.0818
 4082SOL    HW213146   6.422   5.140   0.582 -1.7646 -0.6972  0.0418
 4083SOL     OW13147   0.591   2.531   3.094  0.6485  0.3024  0.0807
 4083SOL    HW113148   0.617   2.471   3.170  1.5046 -0.2033 -0.5862
 4083SOL    HW213149   0.668   2.591   3.071 -0.0022  1.2487  0.3522
 4084SOL     OW13150   3.497   6.418   6.172 -0.4584 -0.0193  0.0450
 4084SOL    HW113151   3.581   6.461   6.206  0.6902 -1.7179 -0.4973
 4084SOL    HW213152   3.468   6.348   6.237 -1.7680  0.8776  0.4630
 4085SOL     OW13153   5.710   5.144   1.372  0.4780  0.1669  0.3283
 4085SOL    HW113154   5.759   5.210   1.315 -0.0434  1.8530  1.7315
 4085SOL    HW213155   5.769   5.115   1.447  0.6019 -0.7782 -0.1203
 4086SOL     OW13156   1.588   3.904   4.233 -0.5661 -0.2783  0.0424
 4086SOL    HW113157   1.535   3.885   4.150  1.0417 -2.6905 -0.5386
 4086SOL    HW213158   1.529   3.894   4.313 -1.2116 -2.1261 -0.6172
 4087SOL     OW13159   0.569   0.499   3.023  0.2179  0.2419  0.2158
 4087SOL    HW113160   0.572   0.500   3.123 -1.0772  1.6504  0.2716
 4087SOL    HW213161   0.661   0.516   2.987  0.6142  0.1711  1.1661
 4088SOL     OW13162   3.789   5.397   1.740  0.3112 -0.2567  0.3814
 4088SOL    HW113163   3.776   5.443   1.827 -0.6445  0.1506  0.0398
 4088SOL    HW213164   3.718   5.327   1.728  0.5793 -0.4735  0.0398
 4089SOL     OW13165   2.242   5.528   1.072 -0.5535  0.6592 -0.1824
 4089SOL    HW113166   2.273   5.511   0.979  0.8883 -0.2020  0.4272
 4089SOL    HW213167   2.199   5.446   1.109 -1.0549  0.9727 -0.0598
 4090SOL     OW13168   4.889   0.521   0.148  0.9984  0.1297  0.7623
 4090SOL    HW113169   4.862   0.575   0.227  1.6218  0.6184  0.6501
 4090SOL    HW213170   4.879   0.424   0.168 -0.4443  0.2834  0.8551
 4091SOL     OW13171   3.894   5.814   6.683  0.1449  0.1521  0.3870
 4091SOL    HW113172   3.975   5.813   6.624 -0.5429  0.5148 -0.5879
 4091SOL    HW213173   3.863   5.908   6.696 -1.1369 -0.0881 -0.7011
 4092SOL     OW13174   4.973   3.894   0.016 -0.1321  0.0742  0.3103
 4092SOL    HW113175   4.928   3.807  -0.002 -0.2468  0.0941  0.4928
 4092SOL    HW213176   4.947   3.960  -0.054  1.2834 -0.5015 -0.8042
 4093SOL     OW13177   6.368   3.118   3.729 -0.0884  0.0857 -0.1633
 4093SOL    HW113178   6.447   3.082   3.680 -0.1271 -1.3987  0.7766
 4093SOL    HW213179   6.285   3.095   3.678  0.0352  1.1672 -0.8759
 4094SOL     OW13180   5.036   3.322   0.617 -0.4649  0.0405 -1.1359
 4094SOL    HW113181   4.960   3.279   0.569 -1.2879  1.1207 -0.8458
 4094SOL    HW213182   5.045   3.417   0.586 -0.8328  0.6821  0.6199
 4095SOL     OW13183   1.317   4.930   1.115 -0.2356 -0.3755 -0.2408
 4095SOL    HW113184   1.305   5.001   1.184  1.2808 -1.1478  0.8753
 4095SOL    HW213185   1.360   4.850   1.157  0.0590 -1.1415 -1.9257
 4096SOL     OW13186   5.795   2.760   0.622 -0.0984  0.1804 -0.1723
 4096SOL    HW113187   5.769   2.753   0.526  0.4304  0.4175 -0.3391
 4096SOL    HW213188   5.795   2.669   0.663 -0.3358  0.0791 -0.3946
 4097SOL     OW13189   2.024   5.040   0.141 -0.0238 -0.0777 -0.5011
 4097SOL    HW113190   2.027   5.043   0.041  1.2140 -1.3872 -0.5327
 4097SOL    HW213191   2.117   5.049   0.177 -0.2681 -1.2124  0.4660
 4098SOL     OW13192   2.266   1.921   2.030 -0.1746 -0.0680  0.0748
 4098SOL    HW113193   2.366   1.919   2.024 -0.1889  1.1156 -0.9884
 4098SOL    HW213194   2.230   1.828   2.027  0.9059 -0.5308  0.9069
 4099SOL     OW13195   0.430   5.932   3.480  0.1510  0.0219 -0.2287
 4099SOL    HW113196   0.516   5.973   3.512 -0.0846  1.5338 -1.3964
 4099SOL    HW213197   0.360   5.941   3.551  0.8457 -0.8993  0.5903
 4100SOL     OW13198   1.101   1.634   5.376  0.2238  0.0946 -0.9613
 4100SOL    HW113199   1.065   1.648   5.284  0.8605  1.9853 -0.9635
 4100SOL    HW213200   1.161   1.554   5.377 -0.7712 -0.6853 -1.8808
 4101SOL     OW13201   4.884   6.092   5.597  0.3913  0.5233  0.1202
 4101SOL    HW113202   4.804   6.129   5.644  0.5252  2.0335 -0.7484
 4101SOL    HW213203   4.915   6.158   5.528  3.1972  0.6243  1.3324
 4102SOL     OW13204   6.009   1.696   0.103  0.0485 -0.2110  0.4592
 4102SOL    HW113205   6.011   1.746   0.017  1.0012  1.0018  1.1569
 4102SOL    HW213206   6.025   1.599   0.086 -0.9422 -0.1648 -0.8284
 4103SOL     OW13207   2.651   6.257   3.748  0.2183 -0.1990 -0.1164
 4103SOL    HW113208   2.664   6.205   3.664  1.5760  0.4339 -0.3245
 4103SOL    HW213209   2.554   6.256   3.773 -0.0822 -1.0724 -1.2387
 4104SOL     OW13210   2.620   5.195   4.229 -0.2995  0.3526  0.5861
 4104SOL    HW113211   2.582   5.183   4.321 -0.1275 -2.7003  0.3516
 4104SOL    HW213212   2.558   5.154   4.162 -0.2937  2.3001 -0.6773
 4105SOL     OW13213   6.536   3.932   0.039  0.0369  0.3463 -0.0823
 4105SOL    HW113214   6.516   3.838   0.013 -0.0450 -0.0733  1.4140
 4105SOL    HW213215   6.562   3.935   0.136  0.3263  1.8241 -0.1845
 4106SOL     OW13216   6.514   0.834   5.608 -0.4789  0.0251 -0.2434
 4106SOL    HW113217   6.496   0.923   5.649 -1.8908 -0.5177  0.3663
 4106SOL    HW213218   6.451   0.819   5.532  0.0094 -0.3028 -0.5920
 4107SOL     OW13219   2.559   6.474   3.443 -0.2194  0.5973 -0.1926
 4107SOL    HW113220   2.589   6.563   3.480  3.0075 -0.7707  0.8314
 4107SOL    HW213221   2.524   6.417   3.517 -0.5293  0.3484 -0.5255
 4108SOL     OW13222   4.807   2.948   3.756  0.5436 -0.5059 -0.8640
 4108SOL    HW113223   4.746   2.875   3.726 -2.9188  0.7523  2.2373
 4108SOL    HW213224   4.841   2.928   3.848 -0.4931  1.6573  0.0734
 4109SOL     OW13225   2.906   0.035   3.349 -0.9648 -0.1586 -0.3289
 4109SOL    HW113226   2.915   0.133   3.368  0.0732  0.2331 -2.5319
 4109SOL    HW213227   2.809   0.013   3.334 -1.0806  0.8366 -1.1823
 4110SOL     OW13228   5.157   4.447   0.743 -0.0966 -0.7930 -0.3984
 4110SOL    HW113229   5.115   4.531   0.708 -0.1969 -1.2307 -1.3478
 4110SOL    HW213230   5.153   4.376   0.673  1.9877 -0.9365 -0.4325
 4111SOL     OW13231   5.768   5.951   2.298 -0.5621 -0.1148  0.1234
 4111SOL    HW113232   5.775   5.966   2.199 -1.4166 -0.4959 -0.0063
 4111SOL    HW213233   5.845   5.995   2.344 -0.4400  0.5176 -0.6623
 4112SOL     OW13234   1.636   5.562   6.257 -0.0972  0.2488 -0.1783
 4112SOL    HW113235   1.688   5.620   6.196 -1.9221 -1.2700 -3.4321
 4112SOL    HW213236   1.663   5.467   6.245  1.5060  0.0369  3.6583
 4113SOL     OW13237   1.245   4.389   2.791  0.4258 -0.3414 -0.4082
 4113SOL    HW113238   1.204   4.374   2.881 -3.0503 -0.4034 -1.8428
 4113SOL    HW213239   1.309   4.315   2.771 -1.1554 -2.1226  0.7823
 4114SOL     OW13240   2.865   3.294   1.969 -0.3406  0.4395  0.6547
 4114SOL    HW113241   2.946   3.236   1.977 -0.8174 -0.1168  1.6266
 4114SOL    HW213242   2.787   3.249   2.013 -0.7441  1.7734  1.3503
 4115SOL     OW13243   6.431   6.342   3.511  0.5189  0.6321  0.3402
 4115SOL    HW113244   6.474   6.420   3.557  0.5995  0.8467 -0.1008
 4115SOL    HW213245   6.447   6.348   3.413  2.9262 -1.3944  0.5006
 4116SOL     OW13246   1.262   3.156   2.103 -0.5144 -0.6009 -0.2798
 4116SOL    HW113247   1.347   3.168   2.052 -0.4071 -1.4882 -0.3305
 4116SOL    HW213248   1.195   3.223   2.072  0.2693  0.3473  0.0137
 4117SOL     OW13249   1.735   6.642   6.376 -0.4206 -0.2876  0.3492
 4117SOL    HW113250   1.801   6.714   6.398  0.3985 -0.7831 -0.3814
 4117SOL    HW213251   1.748   6.613   6.281 -0.5352 -1.5857  0.7112
 4118SOL     OW13252   1.920   3.483   0.590 -0.8930 -0.4280 -0.2326
 4118SOL    HW113253   1.902   3.569   0.543 -1.6535 -1.2913 -1.6039
 4118SOL    HW213254   1.963   3.501   0.679 -0.4631  1.3101 -0.7617
 4119SOL     OW13255   4.928   0.744   5.748 -0.3356 -0.2269  0.6672
 4119SOL    HW113256   5.024   0.767   5.763 -0.6587  0.9623  1.0531
 4119SOL    HW213257   4.877   0.754   5.833 -1.4995  3.0255 -0.2395
 4120SOL     OW13258   6.321   4.656   1.337  0.2372 -0.0403 -0.6803
 4120SOL    HW113259   6.228   4.671   1.303  0.2575 -0.5639 -0.9761
 4120SOL    HW213260   6.329   4.563   1.374  1.1693 -0.7392 -2.4829
 4121SOL     OW13261   4.462   3.595   6.306  0.0551 -0.6604 -0.1973
 4121SOL    HW113262   4.536   3.531   6.325 -1.0770 -1.7928  0.6157
 4121SOL    HW213263   4.428   3.633   6.392 -1.9696 -2.1506 -0.2600
 4122SOL     OW13264   5.683   6.371   1.325  0.4570  0.1417  0.1072
 4122SOL    HW113265   5.727   6.327   1.402  1.0718  0.4597 -0.0591
 4122SOL    HW213266   5.681   6.309   1.247  1.4738  0.4531 -0.1799
 4123SOL     OW13267   3.778   3.239   2.171 -0.1668  0.2423 -0.3177
 4123SOL    HW113268   3.713   3.303   2.130 -0.8321 -0.0554  0.2526
 4123SOL    HW213269   3.761   3.147   2.136 -1.8530 -0.3320  1.8018
 4124SOL     OW13270   6.069   4.905   0.386 -0.3383 -0.3989 -0.4238
 4124SOL    HW113271   6.066   4.999   0.419 -1.9010 -0.7256  0.4504
 4124SOL    HW213272   6.138   4.897   0.314  1.6839  0.8128  1.2690
 4125SOL     OW13273   6.327   5.719   2.716 -0.3356  0.4425  0.2712
 4125SOL    HW113274   6.336   5.818   2.722 -1.8148  0.6979 -0.8202
 4125SOL    HW213275   6.267   5.686   2.789  0.8035  0.2293  1.1209
 4126SOL     OW13276   0.757   1.058   5.008 -0.1105  0.1333  0.2497
 4126SOL    HW113277   0.784   0.979   5.063 -0.9353 -0.4291 -0.1313
 4126SOL    HW213278   0.724   1.027   4.918 -0.6460  0.8896  0.1718
 4127SOL     OW13279   0.013   5.955   5.309 -0.2517  0.7011  0.0931
 4127SOL    HW113280   0.084   5.923   5.371  0.9587  0.1181 -1.5196
 4127SOL    HW213281  -0.076   5.945   5.352  0.4549 -0.7375  1.2980
 4128SOL     OW13282   1.640   0.753   1.571  0.2869 -0.4925  0.1859
 4128SOL    HW113283   1.549   0.731   1.607 -0.6829  0.5312 -1.5222
 4128SOL    HW213284   1.707   0.690   1.610 -1.5317 -2.9351 -0.4161
 4129SOL     OW13285   3.076   0.949   4.709 -0.4788  0.1311  0.2664
 4129SOL    HW113286   3.142   0.875   4.695 -0.9504 -0.4927  1.2013
 4129SOL    HW213287   3.034   0.973   4.622  1.6930  1.2612 -0.5479
 4130SOL     OW13288   6.642   2.559   5.168  0.3956 -0.6631  0.4325
 4130SOL    HW113289   6.548   2.525   5.160  0.4533 -0.5369 -1.0461
 4130SOL    HW213290   6.706   2.488   5.137  0.7542 -0.5438  0.8944
 4131SOL     OW13291   1.003   0.333   0.328  0.5665  0.0192  0.8420
 4131SOL    HW113292   1.023   0.397   0.402 -0.7866  0.3590  0.9313
 4131SOL    HW213293   0.905   0.333   0.309  0.8605 -0.2017 -0.8327
 4132SOL     OW13294   3.991   5.281   1.276 -0.2076 -0.2360  0.6347
 4132SOL    HW113295   4.050   5.315   1.349 -0.6404 -0.7860  1.2488
 4132SOL    HW213296   3.930   5.210   1.312 -1.8690  0.9212  0.2354
 4133SOL     OW13297   5.878   4.628   5.664 -0.0176 -0.1517 -0.0617
 4133SOL    HW113298   5.858   4.544   5.715 -0.6070 -0.1436 -0.2671
 4133SOL    HW213299   5.941   4.607   5.590 -0.6413 -0.5489 -0.4954
 4134SOL     OW13300   1.186   5.925   1.793  0.4979 -0.0829  0.0732
 4134SOL    HW113301   1.264   5.908   1.853  1.0909 -0.2648 -0.7254
 4134SOL    HW213302   1.173   5.847   1.732 -1.0637 -0.5678  0.9871
 4135SOL     OW13303   4.546   6.691   2.173  0.0951 -0.4530  0.2456
 4135SOL    HW113304   4.563   6.716   2.078 -0.3252 -1.6117 -0.1594
 4135SOL    HW213305   4.607   6.616   2.198 -0.7561 -1.0956  0.4406
 4136SOL     OW13306   1.382   2.400   0.734  0.3425 -0.5992 -0.5003
 4136SOL    HW113307   1.418   2.317   0.776 -0.7948 -0.5070  0.7082
 4136SOL    HW213308   1.456   2.449   0.688  1.1249 -2.0077 -0.8009
 4137SOL     OW13309   2.539   6.367   4.229  0.5807  0.6015 -0.0126
 4137SOL    HW113310   2.608   6.341   4.297  1.8928  1.8762 -0.7880
 4137SOL    HW213311   2.510   6.286   4.178  2.7168  0.2356 -0.7355
 4138SOL     OW13312   1.994   3.886   1.172 -0.0565  0.2868 -0.1093
 4138SOL    HW113313   1.920   3.929   1.119 -0.5001 -0.2564  0.0601
 4138SOL    HW213314   1.994   3.922   1.265 -0.2351  0.1509 -0.0552
 4139SOL     OW13315   6.696   1.046   2.908  0.5758  0.3478  0.3983
 4139SOL    HW113316   6.760   0.978   2.871  0.9878  0.3804  1.0370
 4139SOL    HW213317   6.740   1.136   2.908 -0.4220  0.9093 -1.6936
 4140SOL     OW13318   4.870   2.041   4.812  0.4834 -0.3076  0.0773
 4140SOL    HW113319   4.881   2.127   4.862 -1.2937 -0.8493  1.4959
 4140SOL    HW213320   4.957   1.990   4.816  0.8935  0.4238  1.1787
 4141SOL     OW13321   0.624   4.541   4.678  0.3744 -0.6656 -0.9852
 4141SOL    HW113322   0.580   4.464   4.724 -0.7997 -0.3669 -1.5706
 4141SOL    HW213323   0.559   4.585   4.617  0.3537  2.0441  0.8044
 4142SOL     OW13324   0.627   5.678   0.758  0.1033  0.3518  0.4386
 4142SOL    HW113325   0.582   5.593   0.786  1.3627 -0.3985  0.2284
 4142SOL    HW213326   0.675   5.664   0.672 -0.1160  1.4446  0.1195
 4143SOL     OW13327   1.069   5.158   5.644 -0.0529  0.0196 -0.4925
 4143SOL    HW113328   1.079   5.243   5.696 -1.5772  0.0639 -0.2121
 4143SOL    HW213329   1.084   5.080   5.704  0.8260  0.0841 -0.6247
 4144SOL     OW13330   5.074   3.016   0.413 -0.3493  0.1891  0.2199
 4144SOL    HW113331   4.982   3.053   0.423 -0.7086 -0.7151  0.4171
 4144SOL    HW213332   5.086   2.982   0.320 -0.4364 -0.2502  0.3660
 4145SOL     OW13333   0.829   2.017   3.633  0.0676 -0.0628  0.2271
 4145SOL    HW113334   0.910   2.054   3.679 -0.3993  1.5073 -0.1617
 4145SOL    HW213335   0.794   1.939   3.685  0.3891  0.7728  1.7541
 4146SOL     OW13336   0.407   1.120   0.493 -0.0493  0.0525 -0.3355
 4146SOL    HW113337   0.393   1.210   0.453 -1.8762  0.6587  1.4693
 4146SOL    HW213338   0.493   1.120   0.545 -1.3889  1.7892  2.0685
 4147SOL     OW13339   4.793   4.972   1.694  0.3101 -0.0116  0.0598
 4147SOL    HW113340   4.708   4.921   1.709 -0.4550  0.2708 -2.7943
 4147SOL    HW213341   4.841   4.934   1.615  0.6816  2.4740 -0.9859
 4148SOL     OW13342   5.312   3.157   6.130  0.4399  0.6182 -0.3472
 4148SOL    HW113343   5.276   3.157   6.037 -1.1896 -0.3134  0.2416
 4148SOL    HW213344   5.259   3.220   6.187  0.8608  0.5339  0.1574
 4149SOL     OW13345   5.983   5.985   2.462 -0.4503 -0.5584 -0.2593
 4149SOL    HW113346   6.032   6.051   2.519 -0.4631 -0.7196 -0.0595
 4149SOL    HW213347   5.977   5.898   2.510 -1.5402 -0.3487  0.0127
 4150SOL     OW13348   6.048   2.477   2.802  0.2572 -0.7982 -0.0260
 4150SOL    HW113349   6.026   2.461   2.899 -0.1109 -0.6893 -0.0879
 4150SOL    HW213350   5.966   2.511   2.755  1.3274  2.6215  0.3790
 4151SOL     OW13351   4.228   4.580   1.005  0.0339 -0.2890 -0.3000
 4151SOL    HW113352   4.183   4.530   0.931 -0.0724 -0.8614  0.1461
 4151SOL    HW213353   4.169   4.655   1.036 -0.0475 -0.2308 -0.5938
 4152SOL     OW13354   1.470   1.249   0.727  0.0704 -0.1362  0.0071
 4152SOL    HW113355   1.456   1.249   0.826 -1.2440  3.2576 -0.0394
 4152SOL    HW213356   1.568   1.257   0.707  0.1874  3.2708  1.2646
 4153SOL     OW13357   0.530   4.289   4.765 -0.0257 -0.5239 -0.0118
 4153SOL    HW113358   0.545   4.200   4.723 -2.0681 -0.7591 -0.3232
 4153SOL    HW213359   0.447   4.331   4.728 -0.6025  0.3138  2.0569
 4154SOL     OW13360   3.288   6.669   2.157  0.1147  0.0911  0.3097
 4154SOL    HW113361   3.362   6.639   2.218 -0.2699  1.4583  1.5039
 4154SOL    HW213362   3.307   6.637   2.064  1.6371 -0.5320  0.7977
 4155SOL     OW13363   0.838   6.934   6.218  0.2535  0.1450 -0.5081
 4155SOL    HW113364   0.866   6.970   6.129  0.9769  0.8325 -0.0117
 4155SOL    HW213365   0.917   6.896   6.266 -0.3149 -1.1936 -0.5809
 4156SOL     OW13366   6.216   0.954   4.906 -0.1692  0.1774  0.2365
 4156SOL    HW113367   6.198   0.881   4.973  0.8562 -0.3925 -0.0799
 4156SOL    HW213368   6.208   1.043   4.951 -0.8457 -0.1468  0.7768
 4157SOL     OW13369   1.726   1.294   1.451 -0.2843 -0.1290  0.1055
 4157SOL    HW113370   1.720   1.196   1.470 -3.2650  0.0331  0.4661
 4157SOL    HW213371   1.759   1.307   1.357 -0.3300 -1.4686 -0.1276
 4158SOL     OW13372   6.342   1.623   2.515 -0.1478 -0.3679  0.2876
 4158SOL    HW113373   6.367   1.527   2.506 -1.7572 -0.6447 -2.1811
 4158SOL    HW213374   6.257   1.631   2.568  0.1038 -0.2948  0.6780
 4159SOL     OW13375   6.850   6.786   5.716 -0.8569 -0.3632  0.0806
 4159SOL    HW113376   6.896   6.700   5.738 -0.9427 -0.0223  1.7541
 4159SOL    HW213377   6.753   6.779   5.738 -1.2794 -0.4927 -1.7372
 4160SOL     OW13378   5.473   0.913   0.804  0.4236 -0.3007  0.0370
 4160SOL    HW113379   5.559   0.953   0.774 -1.7313  3.8053 -1.4943
 4160SOL    HW213380   5.431   0.863   0.728 -0.4582  1.5120 -0.7273
 4161SOL     OW13381   3.700   2.824   5.279 -0.1544  0.3610  0.1666
 4161SOL    HW113382   3.676   2.746   5.337 -0.4828 -0.4385 -0.9865
 4161SOL    HW213383   3.616   2.860   5.236  0.3685 -1.6381 -2.9037
 4162SOL     OW13384   0.897   4.416   3.223  0.5550 -0.2611 -0.1541
 4162SOL    HW113385   0.845   4.471   3.288  0.2049  1.4662 -1.7873
 4162SOL    HW213386   0.994   4.423   3.244  0.6489  2.1865 -1.0854
 4163SOL     OW13387   1.271   2.568   2.560 -0.0264  0.5704  0.3929
 4163SOL    HW113388   1.352   2.601   2.607  0.3563 -0.0998  0.2111
 4163SOL    HW213389   1.196   2.632   2.574  0.4115  0.9711  0.9270
 4164SOL     OW13390   1.754   3.591   2.980 -0.0449 -0.3076  0.0362
 4164SOL    HW113391   1.654   3.586   2.975 -0.1159 -0.5145  1.4159
 4164SOL    HW213392   1.792   3.587   2.887 -1.3517  0.9398 -0.5856
 4165SOL     OW13393   5.356   3.827   4.109  0.1214  0.4391  0.5117
 4165SOL    HW113394   5.427   3.756   4.108  0.8791  1.1669 -1.1298
 4165SOL    HW213395   5.284   3.801   4.044 -1.0189 -0.1542  1.9579
 4166SOL     OW13396   0.847   4.801   2.979 -0.0129  0.5154  0.6300
 4166SOL    HW113397   0.813   4.864   2.909  1.9555  0.6970 -0.2143
 4166SOL    HW213398   0.875   4.852   3.060 -1.0538  0.4160  1.0832
 4167SOL     OW13399   4.381   5.933   2.837 -0.2482  0.0747  0.2242
 4167SOL    HW113400   4.388   5.955   2.934  0.4298  0.4924  0.0839
 4167SOL    HW213401   4.371   5.834   2.826  0.1818 -0.0265  0.6965
 4168SOL     OW13402   5.647   1.511   2.016 -0.0484  0.1386  0.1611
 4168SOL    HW113403   5.722   1.456   1.979 -0.4361 -0.3913  0.1520
 4168SOL    HW213404   5.667   1.608   2.002 -0.9185 -0.0187 -2.9908
 4169SOL     OW13405   2.904   1.785   0.002 -0.5581 -0.5945  0.0146
 4169SOL    HW113406   2.866   1.855   0.062 -1.2869 -0.1445 -0.9422
 4169SOL    HW213407   2.870   1.799  -0.091 -2.2330 -3.3100  0.1067
 4170SOL     OW13408   5.286   6.472   4.156 -0.3081 -0.2891 -0.1960
 4170SOL    HW113409   5.306   6.435   4.065 -1.1665  0.4744 -0.7163
 4170SOL    HW213410   5.263   6.397   4.218  2.0555 -1.0079 -0.0774
 4171SOL     OW13411   0.916   4.081   5.780  0.0226 -0.0664  0.4391
 4171SOL    HW113412   0.921   4.156   5.847  1.2152  0.2329  0.0304
 4171SOL    HW213413   0.977   4.100   5.704 -0.0887 -1.1998  0.0473
 4172SOL     OW13414   2.025   2.987   5.462  0.6400  0.1371 -0.2334
 4172SOL    HW113415   1.977   3.061   5.509 -0.1880 -1.4960  1.6430
 4172SOL    HW213416   2.102   3.024   5.411 -0.9574  2.5167 -1.0820
 4173SOL     OW13417   5.648   1.923   3.056 -0.2085 -0.3459  0.5867
 4173SOL    HW113418   5.605   1.984   3.122 -1.0531  0.4275 -0.6457
 4173SOL    HW213419   5.624   1.952   2.963 -0.4692 -2.4231 -0.0394
 4174SOL     OW13420   5.242   5.727   4.982 -0.7242  0.3826 -0.0804
 4174SOL    HW113421   5.318   5.690   5.036 -1.5355 -0.6414  0.3811
 4174SOL    HW213422   5.275   5.749   4.889  0.1214 -0.0733  0.1006
 4175SOL     OW13423   3.457   5.019   4.731  0.1184  0.6121  0.0181
 4175SOL    HW113424   3.412   4.938   4.693 -0.9184  0.4031  1.6030
 4175SOL    HW213425   3.553   4.997   4.751  0.1474  0.1350 -0.5908
 4176SOL     OW13426   2.952   6.013   6.757 -0.6461  0.1526  0.4217
 4176SOL    HW113427   2.969   6.112   6.763  0.7456 -0.0103 -0.2504
 4176SOL    HW213428   2.876   5.996   6.694 -0.9337  0.7907  0.5880
 4177SOL     OW13429   2.196   5.115   3.150  0.1371 -0.6885  0.4224
 4177SOL    HW113430   2.120   5.053   3.169  0.4601 -0.4071  2.9021
 4177SOL    HW213431   2.164   5.209   3.152  0.6008 -0.5329  2.0973
 4178SOL     OW13432   1.284   0.617   3.643  0.0969  0.6653 -0.3307
 4178SOL    HW113433   1.360   0.557   3.668  1.6532  2.1633 -1.2049
 4178SOL    HW213434   1.319   0.695   3.591 -2.2040  0.8692 -1.7135
 4179SOL     OW13435   3.071   0.663   3.754  0.3642 -0.0575 -0.5397
 4179SOL    HW113436   3.054   0.725   3.831 -0.4856  1.4889 -1.9094
 4179SOL    HW213437   2.993   0.602   3.741  0.3932 -0.1352 -0.3489
 4180SOL     OW13438   1.232   0.356   1.868 -0.0146  0.3278 -0.0900
 4180SOL    HW113439   1.272   0.290   1.805  1.5221  1.1386 -0.0081
 4180SOL    HW213440   1.181   0.425   1.816  0.6270  0.5819 -0.3859
 4181SOL     OW13441   1.251   6.606   5.931  0.2215 -0.1216 -0.0937
 4181SOL    HW113442   1.187   6.552   5.986  0.7713 -0.7483 -0.0549
 4181SOL    HW213443   1.333   6.552   5.913  0.2519  0.2473 -1.1335
 4182SOL     OW13444   5.582   3.135   3.066 -0.4046  0.3925 -0.1111
 4182SOL    HW113445   5.594   3.191   3.148 -0.4000 -0.2399  0.3249
 4182SOL    HW213446   5.666   3.136   3.012 -0.3037  0.5556  0.0494
 4183SOL     OW13447   3.706   1.161   4.449 -0.2880 -0.0118 -0.4161
 4183SOL    HW113448   3.766   1.081   4.457  0.4429  0.5664 -0.0343
 4183SOL    HW213449   3.718   1.202   4.358 -1.1287 -0.6832 -0.8516
 4184SOL     OW13450   1.872   0.216   2.797  0.5018 -0.5041  0.2254
 4184SOL    HW113451   1.784   0.168   2.791  0.5564 -0.5532 -0.1909
 4184SOL    HW213452   1.929   0.190   2.720  0.7852 -0.2699  0.3558
 4185SOL     OW13453   4.397   6.395   1.481  0.3416 -0.2800 -0.0856
 4185SOL    HW113454   4.386   6.469   1.548 -0.5902  0.9204 -1.5012
 4185SOL    HW213455   4.480   6.411   1.427  0.7949 -0.9408  0.4128
 4186SOL     OW13456   1.250   4.869   3.740  0.1649 -0.7027  0.0183
 4186SOL    HW113457   1.231   4.965   3.721 -0.5436 -0.8531 -0.0493
 4186SOL    HW213458   1.343   4.847   3.711  0.2360 -0.1066 -0.2132
 4187SOL     OW13459   2.375   0.126   3.386  0.2395 -0.5108 -0.2127
 4187SOL    HW113460   2.467   0.115   3.348  0.2559  0.0522 -0.3411
 4187SOL    HW213461   2.314   0.162   3.316  0.3495  0.8579  0.3609
 4188SOL     OW13462   0.263   5.613   5.956 -0.2356 -0.2915  0.1362
 4188SOL    HW113463   0.173   5.609   5.913 -0.4620  0.0229  0.5669
 4188SOL    HW213464   0.300   5.706   5.946  0.0503 -0.4243 -0.0553
 4189SOL     OW13465   0.709   2.554   5.729  0.0989 -0.3752  0.0599
 4189SOL    HW113466   0.758   2.472   5.759  0.5143  0.5696  2.1884
 4189SOL    HW213467   0.735   2.576   5.635  4.0469  0.2147  1.1297
 4190SOL     OW13468   3.994   0.992   0.137 -0.3297  0.1372  0.1420
 4190SOL    HW113469   3.942   0.976   0.053 -1.6712 -0.1583  0.9943
 4190SOL    HW213470   4.092   0.987   0.117 -0.6254 -0.6829 -1.2617
 4191SOL     OW13471   5.890   5.227   0.958 -0.1504 -0.2113  0.0701
 4191SOL    HW113472   5.822   5.157   0.976 -0.0606  0.0262  1.3951
 4191SOL    HW213473   5.981   5.186   0.953 -0.1881 -0.2892  0.0177
 4192SOL     OW13474   4.482   6.128   6.762 -0.0377 -0.1975  0.2657
 4192SOL    HW113475   4.392   6.172   6.762 -0.3004 -0.6980 -0.8127
 4192SOL    HW213476   4.522   6.133   6.670  0.4300 -1.1801  0.3966
 4193SOL     OW13477   0.911   3.855   6.030  0.1269  0.0310  0.3068
 4193SOL    HW113478   0.829   3.798   6.025 -0.4821  0.9534 -0.8271
 4193SOL    HW213479   0.906   3.926   5.959  0.0461  2.5877  2.7333
 4194SOL     OW13480   1.670   2.415   1.984 -0.2662  0.1004 -0.6394
 4194SOL    HW113481   1.702   2.378   2.071 -0.0516 -0.2804 -0.8786
 4194SOL    HW213482   1.606   2.352   1.941  0.5523 -0.2906 -1.3277
 4195SOL     OW13483   0.266   4.856   1.311  0.6995  0.2608  0.3270
 4195SOL    HW113484   0.200   4.827   1.380  1.1294  1.0376  1.0945
 4195SOL    HW213485   0.338   4.788   1.303  1.3842  0.7822  1.6780
 4196SOL     OW13486   2.403   6.823   6.151 -0.2690  0.2273  0.3364
 4196SOL    HW113487   2.500   6.849   6.150  0.0567 -0.9046 -0.5068
 4196SOL    HW213488   2.347   6.902   6.129  0.5441  0.6552 -0.2577
 4197SOL     OW13489   5.146   1.481   2.586  0.1738 -0.0889 -0.5332
 4197SOL    HW113490   5.085   1.489   2.506 -1.5585  1.2247  0.8291
 4197SOL    HW213491   5.171   1.573   2.617 -0.6431 -0.4827  1.4526
 4198SOL     OW13492   4.845   0.212   3.575 -0.5752  0.2110  0.6414
 4198SOL    HW113493   4.905   0.205   3.496 -0.9822 -0.7875  0.4059
 4198SOL    HW213494   4.750   0.223   3.544 -0.6394  0.7619  1.0054
 4199SOL     OW13495   2.564   1.869   6.578 -0.2215  0.0045 -0.3899
 4199SOL    HW113496   2.521   1.930   6.511 -0.7353  1.2620  1.0317
 4199SOL    HW213497   2.589   1.921   6.660 -1.1662 -1.7490  1.1055
 4200SOL     OW13498   2.006   4.397   6.925 -0.5398 -0.1594 -0.1679
 4200SOL    HW113499   2.006   4.457   7.005 -0.7403 -0.5576  0.1363
 4200SOL    HW213500   1.915   4.397   6.883 -0.5869 -0.3692 -0.0704
 4201SOL     OW13501   0.748   3.548   6.923 -0.0583 -0.4465  0.3685
 4201SOL    HW113502   0.775   3.454   6.944  0.5142 -0.6325 -1.0513
 4201SOL    HW213503   0.823   3.610   6.944  0.6694 -0.6803 -1.3602
 4202SOL     OW13504   4.121   1.471   4.774 -0.8462  0.4861  0.2449
 4202SOL    HW113505   4.035   1.434   4.737 -1.2953  3.3057 -1.9203
 4202SOL    HW213506   4.196   1.448   4.713 -0.5357  0.3141  0.6872
 4203SOL     OW13507   0.148   5.653   1.144 -0.0460 -0.0575 -0.0069
 4203SOL    HW113508   0.089   5.729   1.172  0.1003 -0.2892  0.9597
 4203SOL    HW213509   0.092   5.578   1.110 -0.1855  0.5313 -1.1528
 4204SOL     OW13510   5.407   4.985   4.175 -0.4951  0.5697 -0.2764
 4204SOL    HW113511   5.463   5.063   4.202 -1.1129  0.8654  0.1617
 4204SOL    HW213512   5.312   5.013   4.167 -1.1979 -0.6932  2.5213
 4205SOL     OW13513   5.929   3.257   6.989  0.2663  0.1214  0.3059
 4205SOL    HW113514   5.900   3.279   7.082 -3.9025 -0.5717 -0.6296
 4205SOL    HW213515   5.976   3.169   6.989  0.4431  0.1928  1.7461
 4206SOL     OW13516   2.849   4.502   0.200  0.1487  0.9419 -0.2583
 4206SOL    HW113517   2.923   4.538   0.144 -0.6001  1.0135 -1.2330
 4206SOL    HW213518   2.816   4.416   0.160 -1.4264  1.7783 -0.8492
 4207SOL     OW13519   0.758   3.268   5.094 -0.0019  0.3881  0.5815
 4207SOL    HW113520   0.831   3.221   5.144 -0.3908 -0.4923  0.3417
 4207SOL    HW213521   0.673   3.263   5.148 -0.2744 -0.0313  0.1254
 4208SOL     OW13522   1.136   2.581   6.150  0.0930 -0.4867 -0.0547
 4208SOL    HW113523   1.091   2.500   6.187  1.6405 -1.6207 -0.5442
 4208SOL    HW213524   1.207   2.554   6.085 -1.1285  1.3715 -2.3148
 4209SOL     OW13525   4.836   5.112   2.788 -0.3750 -0.7189 -0.2540
 4209SOL    HW113526   4.736   5.107   2.782 -0.3076 -0.3375 -3.3584
 4209SOL    HW213527   4.876   5.052   2.719  1.4215  1.5015 -1.2800
 4210SOL     OW13528   2.213   5.762   3.580 -0.5907 -0.2492  0.0730
 4210SOL    HW113529   2.163   5.760   3.493 -2.0598 -0.4695  0.8913
 4210SOL    HW213530   2.248   5.854   3.595 -1.2017  0.0550 -0.2896
 4211SOL     OW13531   6.488   4.395   0.138 -0.1717  0.3160  0.2180
 4211SOL    HW113532   6.413   4.345   0.182  0.0988 -0.2838  0.0173
 4211SOL    HW213533   6.470   4.402   0.040  0.2305 -0.2079  0.1007
 4212SOL     OW13534   4.825   2.889   5.961 -0.4388  0.1165  0.6302
 4212SOL    HW113535   4.881   2.889   5.878 -0.4823  0.3774  0.6001
 4212SOL    HW213536   4.752   2.822   5.952 -0.3150 -0.0066  0.5434
 4213SOL     OW13537   6.415   3.226   3.977 -0.1785 -0.1761  0.3677
 4213SOL    HW113538   6.355   3.293   4.021  0.3990  0.0493  0.8253
 4213SOL    HW213539   6.375   3.198   3.890 -0.2462  1.0853 -0.0385
 4214SOL     OW13540   1.616   0.844   6.155  0.5615  0.6547  0.1761
 4214SOL    HW113541   1.668   0.903   6.216  4.0600 -0.4837 -1.4034
 4214SOL    HW213542   1.641   0.748   6.173 -0.1522  0.1437 -1.4103
 4215SOL     OW13543   4.840   2.182   5.923 -0.0307 -0.1989 -0.0783
 4215SOL    HW113544   4.809   2.111   5.860 -0.3712 -1.5708  1.5557
 4215SOL    HW213545   4.827   2.272   5.881  1.0527 -1.0751 -2.4907
 4216SOL     OW13546   3.915   2.613   0.923  1.0074 -0.3446  0.4627
 4216SOL    HW113547   3.911   2.712   0.928 -0.7426 -0.2234 -1.5389
 4216SOL    HW213548   3.964   2.586   0.840  0.6679 -1.1267  0.5078
 4217SOL     OW13549   5.645   0.487   2.123 -0.2291  0.1515 -0.6513
 4217SOL    HW113550   5.546   0.477   2.115 -0.2559  1.3454 -2.2650
 4217SOL    HW213551   5.670   0.494   2.220 -1.4825 -2.0032 -0.1001
 4218SOL     OW13552   1.934   0.311   1.789 -0.2862  0.5063  0.6820
 4218SOL    HW113553   2.013   0.335   1.733 -1.0937 -1.0317 -1.2559
 4218SOL    HW213554   1.888   0.231   1.750 -2.3895  0.8969  2.1478
 4219SOL     OW13555   6.285   2.601   0.690 -0.4119 -0.0275  0.6478
 4219SOL    HW113556   6.309   2.508   0.664  0.0196  0.1156  0.5269
 4219SOL    HW213557   6.204   2.630   0.639 -1.7398 -1.0116  2.0795
 4220SOL     OW13558   3.608   2.014   0.312 -0.1009  0.1956 -0.7273
 4220SOL    HW113559   3.691   2.029   0.258 -0.2034  0.6676 -0.7562
 4220SOL    HW213560   3.541   2.084   0.290  0.9637  2.3307  2.2608
 4221SOL     OW13561   2.102   2.328   4.686 -0.2634  0.1999 -0.5397
 4221SOL    HW113562   2.167   2.286   4.623 -2.1212 -0.4853 -2.0997
 4221SOL    HW213563   2.129   2.308   4.780  1.3679 -0.6398 -1.1477
 4222SOL     OW13564   5.050   2.075   1.011 -0.1215 -0.1232  0.0917
 4222SOL    HW113565   5.030   1.981   1.040 -0.4322 -0.3474 -0.8465
 4222SOL    HW213566   5.061   2.132   1.093  1.4796 -1.2498  0.7241
 4223SOL     OW13567   3.462   3.495   1.340 -0.2659 -0.2938  0.3326
 4223SOL    HW113568   3.443   3.413   1.393 -0.2702  0.6208  1.8092
 4223SOL    HW213569   3.378   3.547   1.328  0.2472  1.0995  2.2684
 4224SOL     OW13570   6.754   1.295   4.466 -0.1067  0.2313 -0.0077
 4224SOL    HW113571   6.749   1.324   4.370 -0.8318 -1.1715 -0.4202
 4224SOL    HW213572   6.734   1.373   4.525  2.3642  1.6668 -0.8728
 4225SOL     OW13573   1.019   0.084   5.015  0.2797  0.3431  0.0258
 4225SOL    HW113574   0.931   0.041   4.997 -0.1936  0.3812  1.9912
 4225SOL    HW213575   1.090   0.014   5.025 -0.2914 -0.0021  2.1812
 4226SOL     OW13576   4.163   6.782   0.982  0.2400  0.1272  0.4249
 4226SOL    HW113577   4.170   6.720   1.061  3.8068 -1.3977 -0.8853
 4226SOL    HW213578   4.153   6.728   0.898 -0.2030  1.5628 -0.4794
 4227SOL     OW13579   2.714   6.316   4.464 -0.1763  0.0165  0.6262
 4227SOL    HW113580   2.797   6.356   4.425 -0.0013 -0.9616 -0.0556
 4227SOL    HW213581   2.737   6.230   4.510 -0.8880 -0.5973 -0.1269
 4228SOL     OW13582   1.569   0.073   3.103 -0.7215  0.1011 -0.0649
 4228SOL    HW113583   1.534   0.123   3.024  0.3528  0.1904 -0.5061
 4228SOL    HW213584   1.665   0.050   3.088 -0.1112  1.2564  1.7669
 4229SOL     OW13585   4.457   0.797   0.737  0.4373 -0.0861  0.5116
 4229SOL    HW113586   4.541   0.832   0.696  1.5520 -0.4762  2.3359
 4229SOL    HW213587   4.477   0.713   0.788 -1.3331 -0.9232 -0.0957
 4230SOL     OW13588   3.312   5.654   6.198  0.1736 -0.9605  0.0984
 4230SOL    HW113589   3.320   5.749   6.227  0.3896 -0.9290 -0.0612
 4230SOL    HW213590   3.374   5.637   6.121  1.8549 -1.8283  1.5858
 4231SOL     OW13591   0.416   2.038   2.418 -0.0113 -0.0606  0.2032
 4231SOL    HW113592   0.368   1.950   2.420  0.7041 -0.4471  1.5679
 4231SOL    HW213593   0.358   2.108   2.458 -0.6440  0.1506 -1.0241
 4232SOL     OW13594   2.755   5.060   2.784  0.4588  0.4881 -0.2434
 4232SOL    HW113595   2.802   4.995   2.724  1.2875  0.6199  0.2477
 4232SOL    HW213596   2.667   5.086   2.743 -0.5044 -1.9071  0.1539
 4233SOL     OW13597   4.503   6.741   1.355  0.3561 -0.0265 -0.0554
 4233SOL    HW113598   4.504   6.834   1.391 -0.0431  0.6317 -1.6590
 4233SOL    HW213599   4.409   6.714   1.333  0.6660  0.0562 -1.6457
 4234SOL     OW13600   0.492   3.024   0.927  0.0489 -0.2387 -0.2975
 4234SOL    HW113601   0.444   3.001   1.012  0.4679 -0.5181 -0.1336
 4234SOL    HW213602   0.432   3.078   0.868 -0.2601 -0.0842  0.1574
 4235SOL     OW13603   1.789   5.999   4.083  0.4064  0.5739 -0.7718
 4235SOL    HW113604   1.778   6.091   4.046 -1.1991  0.3002 -1.0603
 4235SOL    HW213605   1.796   5.933   4.008 -2.8045  0.0220 -0.7360
 4236SOL     OW13606   5.177   1.019   5.057 -0.3251 -0.2464 -0.1910
 4236SOL    HW113607   5.174   0.919   5.055  0.7991 -0.3807  1.9640
 4236SOL    HW213608   5.272   1.050   5.044 -0.5410  0.4965 -0.0441
 4237SOL     OW13609   3.133   1.473   3.575  0.5521 -0.4946 -0.1158
 4237SOL    HW113610   3.145   1.498   3.479 -0.0294 -4.0043 -1.2329
 4237SOL    HW213611   3.209   1.416   3.605  0.4406  0.0835  1.4021
 4238SOL     OW13612   2.831   6.278   5.020 -0.4934  0.0261  0.1432
 4238SOL    HW113613   2.854   6.349   5.086  2.0223  1.4152 -2.0623
 4238SOL    HW213614   2.789   6.320   4.939 -0.9581 -1.2766 -0.3168
 4239SOL     OW13615   2.000   6.364   6.073  0.3542  0.1293 -0.1448
 4239SOL    HW113616   1.914   6.414   6.060 -0.0092 -0.3835  0.1910
 4239SOL    HW213617   2.062   6.381   5.997 -0.3870 -0.1714 -0.8252
 4240SOL     OW13618   5.496   5.624   3.644 -0.3478 -0.1750  0.0492
 4240SOL    HW113619   5.417   5.667   3.601  0.4734  1.4804  0.1144
 4240SOL    HW213620   5.491   5.637   3.744  1.4313  2.6958 -0.1071
 4241SOL     OW13621   6.495   0.277   6.165 -0.1168 -0.0662 -0.7857
 4241SOL    HW113622   6.530   0.199   6.114  4.0224  1.3111 -0.3672
 4241SOL    HW213623   6.514   0.361   6.115  4.1722  1.3613  2.6267
 4242SOL     OW13624   5.829   1.400   1.313 -0.6835  0.0469 -0.0418
 4242SOL    HW113625   5.894   1.344   1.262 -1.9213 -0.9632 -0.5749
 4242SOL    HW213626   5.792   1.347   1.389  0.2780  1.1567  1.2546
 4243SOL     OW13627   1.956   6.724   6.863  0.1079  0.4848  0.7447
 4243SOL    HW113628   2.034   6.782   6.887  1.3770 -0.7631 -0.2155
 4243SOL    HW213629   1.965   6.635   6.907 -0.6578  0.2358  0.4309
 4244SOL     OW13630   2.260   5.024   0.796  0.0294  0.6576  0.5189
 4244SOL    HW113631   2.291   5.052   0.705 -1.2835 -1.7048 -0.7551
 4244SOL    HW213632   2.217   5.102   0.842  0.4030  1.8268 -1.0119
 4245SOL     OW13633   4.904   1.764   3.866  0.6144  0.2772  0.1203
 4245SOL    HW113634   4.895   1.781   3.964  0.3135 -2.1323  0.5780
 4245SOL    HW213635   4.997   1.785   3.837  1.3039 -0.8675  1.3789
 4246SOL     OW13636   5.788   2.780   4.311 -0.3268  0.1101 -0.7244
 4246SOL    HW113637   5.732   2.702   4.284 -0.1980  0.3710 -1.7932
 4246SOL    HW213638   5.804   2.839   4.232  3.6393 -1.2830 -1.1685
 4247SOL     OW13639   5.091   1.160   1.924  0.0578  0.0083 -0.2096
 4247SOL    HW113640   5.068   1.250   1.962  2.4682  1.3021 -1.5689
 4247SOL    HW213641   5.183   1.134   1.955 -0.3475 -1.7061 -0.3680
 4248SOL     OW13642   5.532   6.714   1.877 -0.0014 -0.0466 -0.2218
 4248SOL    HW113643   5.438   6.743   1.893 -0.6558 -1.9811 -0.3054
 4248SOL    HW213644   5.560   6.651   1.950  0.7499 -0.5424 -0.9259
 4249SOL     OW13645   1.329   5.636   3.209 -0.0239 -0.0515 -0.2541
 4249SOL    HW113646   1.293   5.718   3.253 -1.7350 -0.2502 -1.2199
 4249SOL    HW213647   1.338   5.652   3.111 -0.8721 -1.1643 -0.5323
 4250SOL     OW13648   4.094   0.729   3.688  0.1708 -0.9716  0.3348
 4250SOL    HW113649   4.150   0.669   3.630  2.5076  2.2694 -1.0330
 4250SOL    HW213650   4.033   0.783   3.630  1.0161  0.8268  1.0744
 4251SOL     OW13651   5.524   5.618   4.443  0.2512  0.0709 -0.3899
 4251SOL    HW113652   5.575   5.685   4.496 -1.3892  0.6263  0.5716
 4251SOL    HW213653   5.556   5.526   4.465  0.8448  0.3985  0.1505
 4252SOL     OW13654   2.251   3.450   6.754 -0.7777 -0.5815 -0.5219
 4252SOL    HW113655   2.334   3.500   6.779 -2.4640  0.6279  3.4885
 4252SOL    HW213656   2.176   3.515   6.741 -2.0523 -1.8283  0.3459
 4253SOL     OW13657   5.379   6.266   1.570 -0.9830  0.0004  0.3967
 4253SOL    HW113658   5.403   6.346   1.625 -0.2420 -0.3453  0.6031
 4253SOL    HW213659   5.338   6.196   1.629  0.8197 -0.8116  0.7962
 4254SOL     OW13660   2.202   3.658   1.377  0.1907  0.0154 -0.4326
 4254SOL    HW113661   2.237   3.748   1.350  0.5389 -0.0988 -0.3656
 4254SOL    HW213662   2.250   3.587   1.326 -2.2223 -0.0338 -2.8567
 4255SOL     OW13663   4.831   0.018   6.534 -0.5946  0.1899 -0.0667
 4255SOL    HW113664   4.836   0.099   6.476  0.3749 -0.3475 -0.7710
 4255SOL    HW213665   4.740  -0.022   6.528 -0.2897 -0.3099 -1.8882
 4256SOL     OW13666   5.385   1.365   4.231  0.5276 -0.6616  0.4382
 4256SOL    HW113667   5.452   1.438   4.244  0.2206 -0.2953 -0.0082
 4256SOL    HW213668   5.427   1.277   4.252  0.3940 -0.2378  2.8064
 4257SOL     OW13669   2.348   1.040   5.348 -0.0076  0.2029 -0.2286
 4257SOL    HW113670   2.428   1.084   5.308  0.4281 -0.2908  0.0796
 4257SOL    HW213671   2.266   1.073   5.303 -0.0377  3.8089  2.0697
 4258SOL     OW13672   5.609   0.409   3.351  0.2217  0.3338  0.5568
 4258SOL    HW113673   5.524   0.413   3.403  0.8533  0.0568  1.6483
 4258SOL    HW213674   5.675   0.352   3.400  0.8986  0.2114 -0.4762
 4259SOL     OW13675   0.112   0.618   4.887  0.5159 -0.1893  0.2311
 4259SOL    HW113676   0.154   0.575   4.968 -1.3796  0.1545  1.4614
 4259SOL    HW213677   0.029   0.568   4.863 -0.3160  1.2398  0.0798
 4260SOL     OW13678   0.098   0.343   2.270  0.1284 -0.0590  0.0733
 4260SOL    HW113679   0.065   0.300   2.186 -1.7063  2.2670 -0.5208
 4260SOL    HW213680   0.047   0.307   2.348  0.4687 -0.8193 -0.0465
 4261SOL     OW13681   3.934   1.895   6.834 -0.2743 -0.0430 -0.2092
 4261SOL    HW113682   3.916   1.985   6.793 -1.5876  0.1038  0.6362
 4261SOL    HW213683   3.886   1.888   6.921 -1.2307 -2.0439 -0.8554
 4262SOL     OW13684   1.653   4.326   6.058  0.0973  0.1544 -0.6178
 4262SOL    HW113685   1.614   4.413   6.088  1.5079  0.6506 -0.1437
 4262SOL    HW213686   1.607   4.296   5.974 -1.0773  0.8454 -0.2446
 4263SOL     OW13687   0.437   6.279   5.463 -0.3852 -0.2903 -0.4556
 4263SOL    HW113688   0.359   6.217   5.468 -1.1027  0.4226 -2.0337
 4263SOL    HW213689   0.515   6.232   5.421 -0.0030 -0.9396  0.9297
 4264SOL     OW13690   4.796   6.127   5.263 -0.1649 -0.1927 -0.4080
 4264SOL    HW113691   4.862   6.052   5.261 -2.1765 -2.3445  3.2892
 4264SOL    HW213692   4.715   6.102   5.211 -1.2921 -1.2509  1.7112
 4265SOL     OW13693   3.403   2.892   4.910  0.1118  0.5556 -0.1995
 4265SOL    HW113694   3.355   2.970   4.870 -2.1133 -0.2880  0.7059
 4265SOL    HW213695   3.397   2.813   4.848  0.4129  0.4543 -0.1052
 4266SOL     OW13696   5.479   2.527   5.155  0.3930  0.5348  0.3347
 4266SOL    HW113697   5.404   2.511   5.219 -1.0649  1.3898 -1.0808
 4266SOL    HW213698   5.561   2.556   5.205  0.6630 -2.8590  2.2040
 4267SOL     OW13699   1.205   4.218   1.193  0.1239  0.3125 -0.0052
 4267SOL    HW113700   1.191   4.132   1.144 -2.2209 -0.5841  2.0428
 4267SOL    HW213701   1.171   4.294   1.137  0.2662 -0.3115 -0.9660
 4268SOL     OW13702   1.201   4.992   2.900 -0.3413  0.1131  0.1047
 4268SOL    HW113703   1.226   4.912   2.954  1.4340  0.6137  0.0934
 4268SOL    HW213704   1.173   4.963   2.809  1.2819 -0.4776 -0.2437
 4269SOL     OW13705   3.288   3.942   4.030 -0.0523  0.0701 -0.3674
 4269SOL    HW113706   3.204   3.924   3.979 -0.2414 -0.5306  0.1482
 4269SOL    HW213707   3.265   3.976   4.121  0.2757  0.5691 -0.4656
 4270SOL     OW13708   3.543   4.943   1.164  0.2256  0.1252  0.1909
 4270SOL    HW113709   3.445   4.937   1.182  0.3310  1.6995  1.5819
 4270SOL    HW213710   3.579   5.028   1.202  1.9654  0.0622 -1.1784
 4271SOL     OW13711   0.013   1.243   4.542 -0.4898  0.0009  0.1075
 4271SOL    HW113712  -0.076   1.270   4.504 -0.6925 -1.2740 -0.3789
 4271SOL    HW213713   0.062   1.187   4.475  1.1496  1.5459 -0.0389
 4272SOL     OW13714   2.566   2.396   2.627 -0.4888  0.0006 -0.0204
 4272SOL    HW113715   2.516   2.449   2.696 -1.2870  0.1498 -0.6986
 4272SOL    HW213716   2.660   2.384   2.657 -1.1085 -0.9777  1.6755
 4273SOL     OW13717   5.395   5.408   0.807 -0.3344  0.3698  0.3467
 4273SOL    HW113718   5.320   5.450   0.857 -0.4042  1.2611 -0.4749
 4273SOL    HW213719   5.481   5.426   0.855 -0.7220 -1.9519  2.1348
 4274SOL     OW13720   3.025   1.002   4.441  0.7847  0.2329 -0.5365
 4274SOL    HW113721   3.088   0.960   4.376  0.9117  0.8317 -0.8063
 4274SOL    HW213722   3.035   1.101   4.438  1.6999  0.2403  1.3118
 4275SOL     OW13723   5.913   4.796   1.997 -0.6018 -0.0507  0.1977
 4275SOL    HW113724   5.930   4.730   1.923  1.0269 -1.1192  1.4392
 4275SOL    HW213725   5.907   4.747   2.084  1.4499  1.4558  1.2670
 4276SOL     OW13726   6.646   1.991   5.041  0.5542 -0.2636  0.6033
 4276SOL    HW113727   6.576   1.924   5.018  0.6658 -0.0446 -0.4507
 4276SOL    HW213728   6.715   1.993   4.969  1.0861  0.2704  1.1126
 4277SOL     OW13729   3.472   6.968   1.832 -0.9062  0.5338  0.0375
 4277SOL    HW113730   3.423   6.971   1.919 -1.2391  0.2586 -0.1391
 4277SOL    HW213731   3.565   7.002   1.845 -0.4070 -1.0603  0.8659
 4278SOL     OW13732   6.090   3.589   5.629  0.1741  0.1549  0.6703
 4278SOL    HW113733   6.134   3.677   5.643  0.8739 -0.2543  1.1347
 4278SOL    HW213734   5.991   3.598   5.641  0.2438  0.8641  0.7465
 4279SOL     OW13735   5.881   2.746   2.620 -0.4383 -0.3147  0.1979
 4279SOL    HW113736   5.842   2.655   2.634 -1.1441 -0.2232 -0.9819
 4279SOL    HW213737   5.924   2.778   2.704 -0.3890 -1.6362  0.6931
 4280SOL     OW13738   6.007   3.131   6.241  1.1823  0.0473  0.4314
 4280SOL    HW113739   6.043   3.091   6.325 -0.7452  1.5529  2.0918
 4280SOL    HW213740   5.914   3.096   6.225  0.6981  1.3964  0.1631
 4281SOL     OW13741   0.530   5.887   5.857 -0.0761 -0.0362  0.5247
 4281SOL    HW113742   0.433   5.891   5.881 -0.4179 -1.8221 -0.3570
 4281SOL    HW213743   0.583   5.854   5.935 -0.3446 -0.1913  0.6424
 4282SOL     OW13744   6.844   2.366   5.104  0.6294 -0.3746 -0.0325
 4282SOL    HW113745   6.794   2.294   5.153 -0.8668  0.4425 -0.2716
 4282SOL    HW213746   6.832   2.353   5.005 -0.1139  0.4753 -0.0704
 4283SOL     OW13747   6.931   6.895   2.901 -0.2206 -0.2406 -0.2582
 4283SOL    HW113748   7.013   6.919   2.952  1.3236  0.2879 -2.7719
 4283SOL    HW213749   6.875   6.977   2.889  0.2319  0.0122 -0.7296
 4284SOL     OW13750   0.991   3.549   6.724  0.3277 -0.7303 -0.3070
 4284SOL    HW113751   1.028   3.549   6.631  2.1225 -0.4061  0.3672
 4284SOL    HW213752   0.946   3.636   6.743  1.8217  0.0388 -0.1948
 4285SOL     OW13753   1.489   0.863   4.987  0.6042 -0.4958  0.5037
 4285SOL    HW113754   1.577   0.888   5.027  1.4117  0.5539 -1.7357
 4285SOL    HW213755   1.472   0.920   4.906 -2.8668  0.3916  1.7037
 4286SOL     OW13756   6.239   3.766   1.836 -0.1466  0.0116  0.2667
 4286SOL    HW113757   6.303   3.842   1.842 -1.1391  0.8808  0.2384
 4286SOL    HW213758   6.279   3.694   1.780  0.5569  0.7963 -0.2803
 4287SOL     OW13759   0.998   4.029   4.323  0.0023  0.5784 -0.4605
 4287SOL    HW113760   0.969   4.124   4.335  0.1001  0.5363  0.1267
 4287SOL    HW213761   1.046   3.999   4.405  0.3200  0.1469 -0.8069
 4288SOL     OW13762   6.224   5.904   2.362  0.0928  0.3950 -0.3833
 4288SOL    HW113763   6.140   5.944   2.397  1.3234  1.2788  1.7830
 4288SOL    HW213764   6.242   5.817   2.408  0.3794  0.2072 -0.8339
 4289SOL     OW13765   5.477   2.960   4.385 -0.2814  0.1314 -0.2808
 4289SOL    HW113766   5.397   2.936   4.439 -0.6509  2.1989  0.1914
 4289SOL    HW213767   5.448   2.992   4.295 -0.1150  1.8137  0.2257
 4290SOL     OW13768   5.389   2.186   4.233  0.5867 -0.4620  0.2000
 4290SOL    HW113769   5.465   2.166   4.294  1.3761 -1.0323 -0.9429
 4290SOL    HW213770   5.424   2.206   4.142 -0.6385 -0.8290 -0.3719
 4291SOL     OW13771   4.021   1.194   3.555 -0.0670  0.3392 -0.0229
 4291SOL    HW113772   4.086   1.267   3.573 -0.6273  0.7340  0.4205
 4291SOL    HW213773   3.980   1.164   3.641  0.3606 -0.6940 -0.1624
 4292SOL     OW13774   5.061   4.632   4.885  0.4297  0.5783 -0.0271
 4292SOL    HW113775   5.026   4.630   4.979  2.1547 -0.8073  0.6347
 4292SOL    HW213776   5.009   4.569   4.828 -1.3523  2.2295 -0.3384
 4293SOL     OW13777   2.290   6.590   3.160  0.1266 -0.1761  0.0690
 4293SOL    HW113778   2.383   6.554   3.145 -0.5658 -1.6318 -1.0366
 4293SOL    HW213779   2.282   6.680   3.117  0.9298 -0.1768 -0.1132
 4294SOL     OW13780   1.223   0.767   2.475  0.6976  0.6103  0.0465
 4294SOL    HW113781   1.204   0.858   2.512 -2.0083 -0.1253  0.6740
 4294SOL    HW213782   1.199   0.698   2.542 -0.0039 -0.6414 -1.4362
 4295SOL     OW13783   5.646   2.273   2.905 -0.3317 -0.5739 -1.0231
 4295SOL    HW113784   5.719   2.257   2.972  0.5108  0.8490 -1.5473
 4295SOL    HW213785   5.599   2.187   2.885 -0.4343 -1.0956  1.1657
 4296SOL     OW13786   3.229   0.166   6.250 -0.0805  0.2869 -0.5906
 4296SOL    HW113787   3.247   0.081   6.200  0.0853 -0.6854  1.0390
 4296SOL    HW213788   3.261   0.156   6.344 -4.1504  0.3985  1.0188
 4297SOL     OW13789   5.651   6.060   0.522 -0.1019  0.6617  0.1292
 4297SOL    HW113790   5.717   6.119   0.568 -0.2506  0.5979  0.4237
 4297SOL    HW213791   5.558   6.084   0.552 -0.0913 -0.6030  1.2600
 4298SOL     OW13792   4.900   3.595   4.100  0.1054 -0.3513  0.3595
 4298SOL    HW113793   4.894   3.691   4.070  2.4157 -0.4723 -0.7580
 4298SOL    HW213794   4.912   3.537   4.020  0.4803 -1.3856  1.1495
 4299SOL     OW13795   0.454   5.097   0.545  0.6875 -0.0297  0.0818
 4299SOL    HW113796   0.375   5.055   0.590 -0.5859 -0.4372 -2.3568
 4299SOL    HW213797   0.431   5.191   0.521  0.9589 -0.1451 -0.6318
 4300SOL     OW13798   6.454   6.439   4.939  0.2192  0.3664 -0.3691
 4300SOL    HW113799   6.442   6.363   5.003  0.2949 -0.0615 -0.8537
 4300SOL    HW213800   6.550   6.448   4.916  0.0468 -0.3342 -1.4310
 4301SOL     OW13801   0.074   6.351   6.056 -0.0118 -0.1508 -0.1990
 4301SOL    HW113802   0.115   6.442   6.054 -1.7005  0.6544  0.0334
 4301SOL    HW213803   0.034   6.334   6.147 -1.2649 -0.3639 -0.7586
 4302SOL     OW13804   1.098   0.730   1.078  0.7985  0.4111  0.5551
 4302SOL    HW113805   1.194   0.758   1.079  0.8751  0.1490  0.5625
 4302SOL    HW213806   1.047   0.786   1.012  1.2978 -0.5796 -0.6977
 4303SOL     OW13807   6.911   2.548   3.555  0.2165  0.8929 -0.0457
 4303SOL    HW113808   6.983   2.569   3.621 -0.5945  0.8437  0.8988
 4303SOL    HW213809   6.908   2.618   3.484 -1.0503  2.8938  1.8429
 4304SOL     OW13810   6.411   6.156   2.412  0.0578 -0.1692  0.2384
 4304SOL    HW113811   6.367   6.067   2.396 -0.4973  0.0570  0.4819
 4304SOL    HW213812   6.463   6.182   2.331  0.9018 -1.0995  0.4661
 4305SOL     OW13813   0.861   4.271   2.790 -0.3798  0.0020 -0.0418
 4305SOL    HW113814   0.792   4.256   2.719 -0.8616 -0.5544  0.5294
 4305SOL    HW213815   0.952   4.276   2.748 -0.7706  0.8936 -0.8193
 4306SOL     OW13816   2.192   2.327   0.336  0.0372  0.0072 -0.6659
 4306SOL    HW113817   2.271   2.387   0.344 -0.1327  0.0229  1.3568
 4306SOL    HW213818   2.219   2.241   0.291  1.7453 -0.8183  1.7536
 4307SOL     OW13819   5.286   2.325   0.031 -0.0657  0.7461 -0.5976
 4307SOL    HW113820   5.326   2.361   0.115  0.9021 -0.1309 -0.6537
 4307SOL    HW213821   5.243   2.236   0.050  0.9198  0.1250 -1.1650
 4308SOL     OW13822   0.532   1.613   1.070 -0.2040 -1.0628  0.1890
 4308SOL    HW113823   0.551   1.612   0.972 -1.0386  0.7348 -0.0277
 4308SOL    HW213824   0.434   1.626   1.085 -0.1334 -1.6677  1.2748
 4309SOL     OW13825   4.294   0.209   0.312 -0.4184  0.0324  0.2543
 4309SOL    HW113826   4.260   0.115   0.320 -1.9441  0.6525  1.6669
 4309SOL    HW213827   4.251   0.254   0.233  0.3021 -0.4239 -0.4136
 4310SOL     OW13828   0.224   4.119   0.406  0.1658 -0.4592  0.0579
 4310SOL    HW113829   0.131   4.086   0.390  0.4199 -1.6147  0.8307
 4310SOL    HW213830   0.290   4.046   0.388  0.9173  0.2645 -0.2258
 4311SOL     OW13831   1.337   0.258   2.387 -0.0167  0.3704 -0.1307
 4311SOL    HW113832   1.385   0.333   2.342 -1.9752 -0.0485 -3.2230
 4311SOL    HW213833   1.268   0.294   2.450 -1.7110  1.3614 -2.4056
 4312SOL     OW13834   6.199   1.429   5.255 -0.4023  0.6051  0.0750
 4312SOL    HW113835   6.139   1.494   5.208 -1.5174 -0.2090  0.3146
 4312SOL    HW213836   6.217   1.351   5.195 -2.1626 -0.6342  1.0519
 4313SOL     OW13837   6.894   5.004   6.764 -0.6936 -0.4151 -0.4133
 4313SOL    HW113838   6.897   4.937   6.838 -0.8075 -1.0331 -0.9576
 4313SOL    HW213839   6.977   5.060   6.766 -1.6078  0.9813  1.4402
 4314SOL     OW13840   0.490   1.319   1.579 -0.1241 -0.1658  0.2476
 4314SOL    HW113841   0.461   1.414   1.573 -0.5910 -0.1786  1.7499
 4314SOL    HW213842   0.506   1.295   1.675  1.4583 -1.1814 -0.2266
 4315SOL     OW13843   3.629   0.294   4.618 -0.2458 -0.0187 -0.0340
 4315SOL    HW113844   3.595   0.328   4.531 -1.1734 -0.8163 -0.0048
 4315SOL    HW213845   3.629   0.194   4.618 -1.5539 -0.0660  1.3289
 4316SOL     OW13846   2.624   5.322   3.039  0.2755 -0.1386  0.0118
 4316SOL    HW113847   2.600   5.374   2.956 -0.1932 -0.1940  0.1118
 4316SOL    HW213848   2.712   5.277   3.025  0.2150 -0.1220 -0.4440
 4317SOL     OW13849   6.048   4.046   0.637 -0.2816 -0.1798  0.1621
 4317SOL    HW113850   6.051   3.998   0.724  0.1226 -2.0230 -0.8106
 4317SOL    HW213851   5.973   4.010   0.582 -0.0197  0.3720 -0.5679
 4318SOL     OW13852   4.261   6.556   2.198 -0.1568 -0.0217 -0.3705
 4318SOL    HW113853   4.359   6.572   2.210 -0.3623  1.1380 -0.1828
 4318SOL    HW213854   4.213   6.643   2.191 -1.6015 -0.4012  2.8804
 4319SOL     OW13855   0.681   5.453   6.438 -0.1154  0.8896  0.9330
 4319SOL    HW113856   0.719   5.425   6.350 -1.3016  1.1095  0.3410
 4319SOL    HW213857   0.753   5.498   6.492  0.5148  1.1237 -0.0778
 4320SOL     OW13858   3.151   1.182   2.721 -0.5248  0.3552 -0.1257
 4320SOL    HW113859   3.248   1.167   2.736 -0.9150 -0.1012  2.5557
 4320SOL    HW213860   3.103   1.094   2.719 -0.8908  0.5663 -1.5570
 4321SOL     OW13861   6.585   3.504   5.267 -0.3936 -0.7590 -0.0194
 4321SOL    HW113862   6.508   3.478   5.209  0.0503 -1.5381 -0.2626
 4321SOL    HW213863   6.602   3.432   5.335 -1.2402  0.3591  1.4442
 4322SOL     OW13864   4.782   4.271   1.961  0.7735 -0.0987 -0.4560
 4322SOL    HW113865   4.817   4.180   1.982 -0.4509 -0.2622  1.0672
 4322SOL    HW213866   4.684   4.265   1.942  0.5591  0.9686  0.2547
 4323SOL     OW13867   5.910   6.282   2.699  0.1291  0.1342 -0.5845
 4323SOL    HW113868   5.857   6.211   2.745  0.0780 -0.2066 -1.1544
 4323SOL    HW213869   5.911   6.366   2.754  1.7775 -0.8735  1.0341
 4324SOL     OW13870   5.011   5.419   3.805  0.3663  0.1032 -0.6514
 4324SOL    HW113871   4.956   5.392   3.726 -0.9532  0.5019  0.0950
 4324SOL    HW213872   4.952   5.430   3.885  1.4056  1.4092 -0.0155
 4325SOL     OW13873   1.862   1.111   3.647  0.6248 -0.4020 -0.0608
 4325SOL    HW113874   1.778   1.057   3.638 -1.2560  2.0695  1.5464
 4325SOL    HW213875   1.867   1.177   3.571  0.4835  0.2257  0.4680
 4326SOL     OW13876   2.549   6.922   5.074  0.0109 -0.5707 -0.3233
 4326SOL    HW113877   2.485   6.958   5.006 -0.4989 -0.1999  0.3362
 4326SOL    HW213878   2.517   6.833   5.107 -0.0494 -0.4906 -0.1612
 4327SOL     OW13879   3.927   5.889   0.015  0.1983 -0.1508 -0.0504
 4327SOL    HW113880   3.893   5.955  -0.051  1.3304 -0.4406 -0.9569
 4327SOL    HW213881   4.010   5.924   0.058 -0.1263 -0.2792  0.6982
 4328SOL     OW13882   5.028   5.395   0.668  0.0345 -0.1375  0.3433
 4328SOL    HW113883   5.093   5.324   0.695 -1.3556 -0.9293  1.7575
 4328SOL    HW213884   4.962   5.411   0.742 -0.3920  1.8344 -0.3848
 4329SOL     OW13885   5.399   6.945   0.206  1.1291  0.0745  0.1073
 4329SOL    HW113886   5.391   7.021   0.270  2.4259  0.6551 -0.3749
 4329SOL    HW213887   5.438   6.978   0.120  1.0504 -1.0118 -0.3622
 4330SOL     OW13888   0.475   3.864   3.103 -0.3068 -0.2765 -0.0017
 4330SOL    HW113889   0.412   3.927   3.149 -1.3892 -1.1484 -0.2592
 4330SOL    HW213890   0.440   3.771   3.108  0.6441 -0.6982 -0.7251
 4331SOL     OW13891   1.124   4.285   4.423  0.2287 -0.6643 -0.1512
 4331SOL    HW113892   1.174   4.201   4.400  1.3832  0.0738 -0.4779
 4331SOL    HW213893   1.163   4.325   4.506  0.5001  0.1611 -0.6618
 4332SOL     OW13894   3.758   3.649   2.943 -0.3408 -0.0489 -0.6200
 4332SOL    HW113895   3.746   3.654   3.043  0.4715  0.4226 -0.5383
 4332SOL    HW213896   3.688   3.706   2.899 -1.4957 -1.2438 -0.3890
 4333SOL     OW13897   6.856   6.115   4.747  0.2589 -0.1429  0.2057
 4333SOL    HW113898   6.766   6.072   4.749  0.3076 -0.3947 -1.5684
 4333SOL    HW213899   6.876   6.148   4.654  1.5848  0.7991  0.7883
 4334SOL     OW13900   2.702   5.966   4.815 -0.2914  0.1614  0.2832
 4334SOL    HW113901   2.622   5.913   4.788  0.5642 -1.7557  1.2819
 4334SOL    HW213902   2.680   6.023   4.894 -0.8009  0.0077  0.2529
 4335SOL     OW13903   0.244   1.115   2.024  0.1799  0.2929  0.2856
 4335SOL    HW113904   0.291   1.198   1.994  2.0317 -0.9414 -0.3514
 4335SOL    HW213905   0.185   1.082   1.950  0.4691  0.3098  0.0464
 4336SOL     OW13906   4.015   2.595   6.219 -0.0997 -0.4549 -0.1170
 4336SOL    HW113907   3.946   2.633   6.281  0.5436  1.1193 -0.3095
 4336SOL    HW213908   4.039   2.503   6.249 -0.3671 -0.0298  1.5098
 4337SOL     OW13909   5.373   1.825   0.989  0.3206  0.3555  0.3497
 4337SOL    HW113910   5.403   1.780   0.905 -0.7932  1.0379 -0.4344
 4337SOL    HW213911   5.413   1.778   1.068  2.5736  0.5858 -0.5818
 4338SOL     OW13912   3.515   3.756   1.529  0.3098 -0.5246  0.2054
 4338SOL    HW113913   3.441   3.692   1.551  1.3811 -2.4569 -1.5030
 4338SOL    HW213914   3.599   3.706   1.509  1.9370  1.5808  1.3295
 4339SOL     OW13915   2.369   5.652   5.326 -0.4543  0.2582 -0.0428
 4339SOL    HW113916   2.416   5.625   5.242  0.4440  1.0722  0.1796
 4339SOL    HW213917   2.395   5.590   5.400 -0.4305  0.1665 -0.1284
 4340SOL     OW13918   4.776   5.044   0.283 -0.0069  0.1500  0.5037
 4340SOL    HW113919   4.843   4.995   0.227 -0.1362  0.5398  0.0017
 4340SOL    HW213920   4.790   5.021   0.379 -0.5763 -1.5051  0.2282
 4341SOL     OW13921   6.188   4.139   4.973  0.3966  0.0148  0.6501
 4341SOL    HW113922   6.219   4.233   4.991  0.8475  0.4049 -1.8309
 4341SOL    HW213923   6.107   4.141   4.915  1.0690 -1.1258 -0.3614
 4342SOL     OW13924   5.083   2.043   0.016  0.0302  0.1528  0.1816
 4342SOL    HW113925   5.093   1.955  -0.031 -1.8609 -0.1733  0.3195
 4342SOL    HW213926   5.046   2.028   0.108 -0.5857  1.1038  0.1026
 4343SOL     OW13927   5.272   3.932   5.587  0.5062  0.6115 -0.4829
 4343SOL    HW113928   5.236   4.014   5.631  0.2975  0.8342 -1.0606
 4343SOL    HW213929   5.310   3.871   5.656 -0.3361  0.6954  0.0704
 4344SOL     OW13930   6.187   0.414   5.131  0.0587  0.0214  0.2927
 4344SOL    HW113931   6.151   0.403   5.224  0.9048 -0.5362  0.5579
 4344SOL    HW213932   6.183   0.327   5.083 -1.0744  0.4725 -0.4611
 4345SOL     OW13933   6.903   3.479   6.705  0.0974 -0.3442  0.7240
 4345SOL    HW113934   6.996   3.445   6.691  0.1652 -0.3492  1.1812
 4345SOL    HW213935   6.906   3.576   6.730  0.0159 -0.4924  1.3151
 4346SOL     OW13936   6.629   5.123   3.732 -0.3153 -0.0302  0.4423
 4346SOL    HW113937   6.563   5.048   3.721  0.5814 -0.8492  0.5112
 4346SOL    HW213938   6.674   5.115   3.821  0.4604  0.0251  0.0666
 4347SOL     OW13939   0.724   0.409   0.393  0.2858  0.1787 -0.2877
 4347SOL    HW113940   0.707   0.486   0.455  0.0497 -0.2669  0.2022
 4347SOL    HW213941   0.637   0.376   0.356  0.4953  1.2831 -1.9105
 4348SOL     OW13942   6.565   3.376   5.541  0.0445  0.3931 -0.2056
 4348SOL    HW113943   6.528   3.468   5.552  2.4028  1.2661  0.9092
 4348SOL    HW213944   6.512   3.312   5.596 -0.7016  1.3285  0.1930
 4349SOL     OW13945   0.672   2.685   1.523  0.4232 -0.0795  0.1210
 4349SOL    HW113946   0.677   2.782   1.502  0.9049 -0.4242 -1.4913
 4349SOL    HW213947   0.751   2.659   1.579  2.2550 -0.1707 -2.3555
 4350SOL     OW13948   0.639   6.248   4.949 -0.3830 -0.5602 -0.2717
 4350SOL    HW113949   0.593   6.333   4.922 -0.6388 -0.9044 -0.9678
 4350SOL    HW213950   0.572   6.173   4.948  0.1243 -1.0155 -0.9994
 4351SOL     OW13951   4.076   1.528   2.241  0.1589  0.1889 -0.6186
 4351SOL    HW113952   4.010   1.495   2.309  1.2414  0.8957  0.8392
 4351SOL    HW213953   4.028   1.580   2.171 -1.2430 -2.2500 -1.5795
 4352SOL     OW13954   1.045   3.559   6.441  0.6191 -0.6046 -0.1582
 4352SOL    HW113955   1.116   3.615   6.400 -0.8148  1.0821 -0.4605
 4352SOL    HW213956   0.959   3.572   6.391 -0.7371  0.0782  2.1769
 4353SOL     OW13957   6.156   0.812   1.580 -0.0857 -0.3820 -0.1670
 4353SOL    HW113958   6.086   0.769   1.637  0.5681 -1.2577 -0.0015
 4353SOL    HW213959   6.149   0.778   1.487 -1.0908  0.9772 -0.6202
 4354SOL     OW13960   6.455   2.516   3.111  0.4869  0.3325  0.3187
 4354SOL    HW113961   6.379   2.455   3.133 -0.6574  1.1516 -1.1437
 4354SOL    HW213962   6.420   2.597   3.063  2.1542  1.3285  0.6807
 4355SOL     OW13963   1.431   0.038   4.615 -0.0003 -0.1109 -0.2895
 4355SOL    HW113964   1.460   0.117   4.560  0.2904  0.4716  0.6758
 4355SOL    HW213965   1.414  -0.040   4.555  3.0731 -0.3571 -0.9946
 4356SOL     OW13966   0.691   4.111   0.239 -0.1951 -0.1288  0.2889
 4356SOL    HW113967   0.617   4.179   0.235  0.1253  0.1997 -0.0938
 4356SOL    HW213968   0.704   4.071   0.149  1.5556  1.3904 -0.1977
 4357SOL     OW13969   5.882   6.834   3.502 -0.8392  0.3115 -0.2325
 4357SOL    HW113970   5.969   6.791   3.480 -0.6583  0.8802 -0.6648
 4357SOL    HW213971   5.889   6.933   3.488 -1.9633  0.2164 -1.6870
 4358SOL     OW13972   6.495   6.049   6.770  0.0208 -0.1481 -0.6337
 4358SOL    HW113973   6.502   5.984   6.694 -0.6116 -0.4266 -0.4647
 4358SOL    HW213974   6.400   6.081   6.777  0.2460  0.4949 -0.4676
 4359SOL     OW13975   0.312   2.970   1.807 -0.6194  0.2810 -0.1064
 4359SOL    HW113976   0.351   2.984   1.898 -1.2408 -0.7555  0.3402
 4359SOL    HW213977   0.352   2.888   1.766 -1.2767  0.0135 -0.2267
 4360SOL     OW13978   0.255   3.179   2.635  0.1352 -0.2171  0.4365
 4360SOL    HW113979   0.351   3.157   2.652 -0.0869 -2.0719 -0.5024
 4360SOL    HW213980   0.197   3.132   2.701 -0.1469  1.7329  1.6869
 4361SOL     OW13981   1.688   6.096   4.352  0.0283  0.5001  0.9786
 4361SOL    HW113982   1.633   6.021   4.389 -1.0712  0.5151 -0.5616
 4361SOL    HW213983   1.731   6.068   4.267  0.7503  1.1821  1.1004
 4362SOL     OW13984   4.234   5.356   5.272 -0.1145  0.4464 -1.0353
 4362SOL    HW113985   4.227   5.263   5.235 -0.1366  0.4211 -0.9679
 4362SOL    HW213986   4.299   5.409   5.217  0.2662  0.2464 -0.7770
 4363SOL     OW13987   0.829   0.432   4.211  0.0883  0.2582  0.0031
 4363SOL    HW113988   0.852   0.359   4.275  1.9519  1.3358  0.6427
 4363SOL    HW213989   0.814   0.393   4.120  2.7256 -0.8335 -0.0628
 4364SOL     OW13990   0.126   3.109   0.338  0.7892 -0.2265  0.3162
 4364SOL    HW113991   0.109   3.199   0.298 -2.3698 -1.0046 -0.4200
 4364SOL    HW213992   0.178   3.053   0.274  0.4767  0.2493 -0.3645
 4365SOL     OW13993   4.503   0.242   3.312 -0.2704 -0.3575  0.2031
 4365SOL    HW113994   4.570   0.310   3.343 -0.7296  0.1291  0.1421
 4365SOL    HW213995   4.437   0.286   3.250 -1.4132 -0.5183  1.2730
 4366SOL     OW13996   5.552   6.180   3.005 -0.0977 -0.6740  0.3080
 4366SOL    HW113997   5.637   6.148   2.962  0.6395  1.3933  0.1081
 4366SOL    HW213998   5.567   6.194   3.103  0.1354  0.6467  0.1066
 4367SOL     OW13999   2.063   2.448   5.390 -0.1746 -0.9053 -0.0711
 4367SOL    HW114000   1.987   2.507   5.417  0.4923 -0.3846  0.7398
 4367SOL    HW214001   2.032   2.382   5.322 -1.0621  0.0426 -0.6119
 4368SOL     OW14002   5.196   0.019   1.971  0.1610  0.2848  0.1021
 4368SOL    HW114003   5.116   0.031   1.912 -0.3820  2.4931  1.1890
 4368SOL    HW214004   5.248   0.104   1.974  0.5015  0.0506  2.2982
 4369SOL     OW14005   0.282   4.635   2.865  0.1006 -0.3814  0.7119
 4369SOL    HW114006   0.208   4.591   2.915  1.0719 -2.2073  0.6111
 4369SOL    HW214007   0.351   4.567   2.840  2.0789  1.3222  1.2378
 4370SOL     OW14008   6.307   2.321   0.766 -0.6412  1.1665  0.4239
 4370SOL    HW114009   6.270   2.264   0.693 -0.0299 -1.6245  2.1552
 4370SOL    HW214010   6.255   2.306   0.850  2.1318 -0.2695  2.0370
 4371SOL     OW14011   3.457   0.075   0.607 -0.1332 -0.0496 -0.3657
 4371SOL    HW114012   3.387   0.141   0.579  0.6718  1.6306  1.3309
 4371SOL    HW214013   3.457  -0.003   0.544 -1.5847  1.2296 -2.0503
 4372SOL     OW14014   1.410   5.956   1.119 -0.3569  0.3074  0.1606
 4372SOL    HW114015   1.471   5.947   1.197  1.8473  3.0464 -1.0812
 4372SOL    HW214016   1.463   5.961   1.035 -2.2363  2.4813 -1.0422
 4373SOL     OW14017   2.038   3.345   6.532  0.0314 -0.1974  0.2437
 4373SOL    HW114018   1.952   3.333   6.483  0.3461 -0.1666 -0.3185
 4373SOL    HW214019   2.022   3.403   6.612 -0.8784 -1.8047  1.2832
 4374SOL     OW14020   2.030   4.698   2.187  0.1325 -0.3279  0.2149
 4374SOL    HW114021   1.981   4.783   2.209  1.5597  0.6490 -0.2352
 4374SOL    HW214022   2.116   4.720   2.142 -0.0825 -2.0686 -1.1921
 4375SOL     OW14023   6.113   5.481   6.509  0.1980  0.1692  0.3581
 4375SOL    HW114024   6.014   5.499   6.514  0.1923 -0.0106  0.9742
 4375SOL    HW214025   6.129   5.383   6.511  0.4337  0.2115  1.4698
 4376SOL     OW14026   0.805   0.842   5.153 -0.0910  0.1253 -0.1831
 4376SOL    HW114027   0.766   0.787   5.078  0.5120  1.1117 -1.2624
 4376SOL    HW214028   0.893   0.804   5.180  0.9642  1.2153 -1.8361
 4377SOL     OW14029   0.574   4.360   4.331  0.2477 -0.5494 -1.0851
 4377SOL    HW114030   0.517   4.309   4.267 -0.5828 -1.1312  0.0843
 4377SOL    HW214031   0.518   4.394   4.407  1.3886 -0.8719 -0.0539
 4378SOL     OW14032   6.757   2.692   4.004 -0.4136  1.0099 -0.5746
 4378SOL    HW114033   6.708   2.779   3.996 -0.9388  0.6318 -1.5770
 4378SOL    HW214034   6.742   2.638   3.922  0.7295  0.3820 -0.3792
 4379SOL     OW14035   4.952   3.679   2.550  0.0116  0.2844 -0.4084
 4379SOL    HW114036   5.022   3.650   2.615  1.6434  2.5622 -1.0470
 4379SOL    HW214037   4.935   3.605   2.484  0.0690 -1.1552  1.1392
 4380SOL     OW14038   0.201   5.360   4.890  0.0012 -0.0834 -0.4238
 4380SOL    HW114039   0.114   5.404   4.915  0.0729  0.8262 -1.6827
 4380SOL    HW214040   0.259   5.352   4.971 -0.7230  0.5351  0.1669
 4381SOL     OW14041   0.279   3.997   2.091  0.1818 -0.1582 -1.0066
 4381SOL    HW114042   0.224   4.067   2.046 -0.5969 -0.1113 -0.0100
 4381SOL    HW214043   0.257   3.995   2.189 -0.2800 -2.2359 -1.1121
 4382SOL     OW14044   6.736   7.012   3.771  0.3744  0.7150  0.7512
 4382SOL    HW114045   6.796   7.090   3.788  1.3383  0.1717 -0.0844
 4382SOL    HW214046   6.752   6.976   3.679 -2.5348  1.6954 -0.2730
 4383SOL     OW14047   6.673   4.643   4.493 -0.8340  0.0914  0.1672
 4383SOL    HW114048   6.586   4.642   4.542 -2.0076  0.3744 -1.7710
 4383SOL    HW214049   6.714   4.734   4.499 -0.5050 -0.1232  1.3330
 4384SOL     OW14050   6.851   6.193   1.162  0.2343  0.2756  0.0931
 4384SOL    HW114051   6.893   6.236   1.241  0.0704 -0.0894  0.3850
 4384SOL    HW214052   6.804   6.110   1.191 -0.2652  0.4143 -0.3050
 4385SOL     OW14053   3.758   6.234   6.234 -0.0435  0.2962 -0.0701
 4385SOL    HW114054   3.829   6.305   6.230 -1.6008  1.8881 -0.9023
 4385SOL    HW214055   3.716   6.225   6.144 -1.0203 -0.4969  0.4513
 4386SOL     OW14056   5.747   4.882   4.238  0.3222 -0.6436  0.3009
 4386SOL    HW114057   5.757   4.874   4.138 -1.4674  0.2861  0.0060
 4386SOL    HW214058   5.669   4.826   4.267 -0.7167  1.0041  0.7979
 4387SOL     OW14059   6.661   5.407   3.698 -0.1843  0.0146  0.2202
 4387SOL    HW114060   6.588   5.457   3.652 -0.7290  1.4176  2.4085
 4387SOL    HW214061   6.637   5.311   3.707 -0.2389 -0.2165 -1.9188
 4388SOL     OW14062   4.170   3.532   1.682 -0.7396 -0.3142  0.0807
 4388SOL    HW114063   4.160   3.606   1.749 -0.4676 -1.2378  1.1759
 4388SOL    HW214064   4.243   3.555   1.618 -1.2229  0.7354 -0.1098
 4389SOL     OW14065   3.460   0.809   0.140  0.0905  0.1853 -0.0113
 4389SOL    HW114066   3.458   0.885   0.075  0.9861  0.5602  0.3833
 4389SOL    HW214067   3.457   0.722   0.091  3.1303  0.3978 -0.7479
 4390SOL     OW14068   3.899   4.999   5.356 -0.3258 -0.0079  0.0342
 4390SOL    HW114069   3.951   5.079   5.387  2.0009 -1.0067 -1.0506
 4390SOL    HW214070   3.802   5.023   5.350 -0.0766  1.8962  2.3079
 4391SOL     OW14071   4.909   3.011   4.675  0.8303  0.0746 -0.2073
 4391SOL    HW114072   4.906   3.080   4.603  0.5411 -0.7189 -0.9815
 4391SOL    HW214073   4.880   3.052   4.761  0.8172  0.9527 -0.6160
 4392SOL     OW14074   0.146   5.680   6.920 -0.1004  0.5141 -0.0576
 4392SOL    HW114075   0.065   5.644   6.967  0.4524 -0.7565 -0.0249
 4392SOL    HW214076   0.197   5.739   6.983 -0.7147  0.8919  0.0930
 4393SOL     OW14077   0.002   4.330   6.183 -0.2268  0.6563 -0.2480
 4393SOL    HW114078   0.102   4.331   6.172 -0.0213 -2.8467  0.1236
 4393SOL    HW214079  -0.023   4.385   6.262  1.8595 -0.9031  1.6343
 4394SOL     OW14080   6.258   2.610   4.670 -0.7340  0.5766 -0.3649
 4394SOL    HW114081   6.341   2.599   4.614 -0.9584 -1.5494 -0.3810
 4394SOL    HW214082   6.281   2.654   4.756  0.4780 -0.1362 -0.3011
 4395SOL     OW14083   4.242   5.821   6.818 -0.4214 -0.2707  0.7548
 4395SOL    HW114084   4.192   5.907   6.824 -0.7851 -0.5704  2.4332
 4395SOL    HW214085   4.263   5.802   6.722  1.0267  2.4468  0.4000
 4396SOL     OW14086   0.134   0.191   6.824 -0.4780  0.2140 -0.2780
 4396SOL    HW114087   0.193   0.207   6.745  0.3668 -0.7476  0.1420
 4396SOL    HW214088   0.046   0.237   6.810 -0.4482 -0.1721 -1.9097
 4397SOL     OW14089   1.087   6.998   6.388  0.2861  0.2130 -0.5578
 4397SOL    HW114090   1.028   7.068   6.427  0.7987  0.7899 -0.7837
 4397SOL    HW214091   1.090   6.918   6.448 -0.3093  0.3862 -0.2962
 4398SOL     OW14092   6.707   0.019   3.248 -0.2541 -0.2369  0.3477
 4398SOL    HW114093   6.766   0.021   3.167 -1.5637  2.5983 -0.6649
 4398SOL    HW214094   6.746   0.079   3.319 -1.6185  1.3518 -0.1824
 4399SOL     OW14095   5.861   3.606   6.589  0.3498 -0.5776 -0.6394
 4399SOL    HW114096   5.881   3.518   6.631 -0.8441 -0.8008 -0.5127
 4399SOL    HW214097   5.890   3.605   6.493 -1.9086 -2.0249 -1.3901
 4400SOL     OW14098   1.474   2.468   2.947  0.2757  0.0869 -0.4692
 4400SOL    HW114099   1.552   2.434   2.895  0.4914 -0.6550  0.3013
 4400SOL    HW214100   1.425   2.390   2.987  1.6295  0.6628  2.5749
 4401SOL     OW14101   1.323   1.939   6.025  0.0240 -0.1183  0.2359
 4401SOL    HW114102   1.316   1.857   5.968 -0.3343 -0.3411  0.5967
 4401SOL    HW214103   1.404   1.933   6.083 -1.6203 -1.6595  2.4962
 4402SOL     OW14104   6.800   3.913   5.008 -0.2842 -0.0402  0.1663
 4402SOL    HW114105   6.769   4.000   4.971 -0.6091 -0.1418  0.2045
 4402SOL    HW214106   6.802   3.844   4.936 -0.2411 -0.0589  0.1849
 4403SOL     OW14107   6.738   0.547   5.649  0.3045  0.4184  0.5533
 4403SOL    HW114108   6.737   0.609   5.571 -0.9060  0.7281  0.8084
 4403SOL    HW214109   6.712   0.596   5.732 -0.6487 -0.4021  0.7658
 4404SOL     OW14110   3.012   2.221   2.489 -0.2466  0.0195 -0.2656
 4404SOL    HW114111   3.077   2.273   2.435 -1.2757  1.5353 -0.1115
 4404SOL    HW214112   2.991   2.135   2.442  2.1518 -0.7230 -0.0865
 4405SOL     OW14113   1.435   3.856   4.000 -0.1765  0.2551 -0.0578
 4405SOL    HW114114   1.478   3.822   3.917 -0.5042 -0.6289  0.1169
 4405SOL    HW214115   1.412   3.952   3.989  0.4105  0.3271 -0.7276
 4406SOL     OW14116   3.401   4.359   6.890  0.6265  0.0895 -1.0131
 4406SOL    HW114117   3.361   4.341   6.800 -0.9311  0.4694 -0.4285
 4406SOL    HW214118   3.457   4.281   6.918  0.2177 -0.5013 -1.8208
 4407SOL     OW14119   6.359   3.963   1.427 -0.4427  0.5725 -0.6438
 4407SOL    HW114120   6.421   4.035   1.457 -0.9097  0.0955  1.6856
 4407SOL    HW214121   6.411   3.885   1.393  0.1070  1.2502 -1.3964
 4408SOL     OW14122   6.121   2.352   6.272 -0.6814 -0.2022  0.0029
 4408SOL    HW114123   6.136   2.403   6.357  0.6808 -0.3357 -0.1379
 4408SOL    HW214124   6.208   2.315   6.240 -1.5615 -2.3666 -0.0633
 4409SOL     OW14125   1.013   1.812   6.786 -0.0226 -0.2490  0.0217
 4409SOL    HW114126   0.971   1.737   6.736  0.0902 -0.7747  0.7081
 4409SOL    HW214127   1.107   1.826   6.754 -0.3999  0.3373 -0.8793
 4410SOL     OW14128   0.210   2.165   4.514 -0.3017 -0.6300 -0.0416
 4410SOL    HW114129   0.235   2.075   4.477  0.8799 -0.1833 -0.3797
 4410SOL    HW214130   0.244   2.237   4.454  1.4306  0.1159  1.7079
 4411SOL     OW14131   4.894   1.580   1.874 -0.3706 -0.2709  0.0055
 4411SOL    HW114132   4.813   1.635   1.895 -0.2873 -0.9786  2.6215
 4411SOL    HW214133   4.974   1.639   1.872 -0.7598  0.2377 -1.2296
 4412SOL     OW14134   2.169   5.514   3.399 -0.0643  0.0299 -0.4089
 4412SOL    HW114135   2.116   5.546   3.477  0.3045 -3.5318  1.4908
 4412SOL    HW214136   2.256   5.562   3.396 -1.4570  2.7603 -0.9175
 4413SOL     OW14137   3.104   5.897   6.930  0.4445  0.1392 -0.2497
 4413SOL    HW114138   3.133   5.964   6.999 -2.0327 -1.1062  2.2137
 4413SOL    HW214139   3.041   5.940   6.866  1.7662  0.9955 -1.0244
 4414SOL     OW14140   3.395   5.237   2.868 -0.0841  0.1746 -0.2173
 4414SOL    HW114141   3.378   5.322   2.820  0.0671  0.6982  0.6340
 4414SOL    HW214142   3.493   5.219   2.871 -0.1592 -0.5038 -1.1674
 4415SOL     OW14143   4.509   4.232   5.887  0.2059  0.6624 -0.0299
 4415SOL    HW114144   4.479   4.137   5.891 -0.1616  0.6835 -1.6206
 4415SOL    HW214145   4.521   4.267   5.980  0.5797 -0.9987  0.5855
 4416SOL     OW14146   4.041   1.417   5.530  0.1105 -0.3119  0.0346
 4416SOL    HW114147   3.987   1.501   5.528 -0.9232 -0.9669 -1.9970
 4416SOL    HW214148   3.980   1.339   5.542  0.7817 -0.9470 -0.5706
 4417SOL     OW14149   6.463   6.784   3.384  0.1560 -0.1873  0.1545
 4417SOL    HW114150   6.511   6.869   3.361  1.8864 -0.8088  1.2696
 4417SOL    HW214151   6.527   6.707   3.379 -0.8120 -1.1192  1.3262
 4418SOL     OW14152   2.629   4.898   1.515  0.1130 -0.5453 -0.3571
 4418SOL    HW114153   2.667   4.826   1.458 -0.8777 -1.8659  0.5806
 4418SOL    HW214154   2.703   4.949   1.559  0.8305 -0.9644 -1.0681
 4419SOL     OW14155   6.017   1.154   0.633 -0.1012  0.2035  0.1065
 4419SOL    HW114156   5.975   1.095   0.564 -0.7905  0.3530  0.3917
 4419SOL    HW214157   6.059   1.233   0.589  0.2174 -0.1415 -0.2146
 4420SOL     OW14158   0.343   5.303   5.564  0.3829 -0.3544 -0.1619
 4420SOL    HW114159   0.248   5.288   5.593  0.0134  0.0057 -1.1319
 4420SOL    HW214160   0.377   5.222   5.518  0.5068 -0.4372  0.0743
 4421SOL     OW14161   4.773   0.956   0.361  0.2286 -0.9561  0.1614
 4421SOL    HW114162   4.852   1.008   0.395  0.5291 -0.7889 -0.7765
 4421SOL    HW214163   4.768   0.964   0.262 -2.8697  1.8228  0.3537
 4422SOL     OW14164   4.654   2.117   3.649 -0.8018 -0.3897 -0.3325
 4422SOL    HW114165   4.693   2.031   3.680  1.9081  1.1880  0.9672
 4422SOL    HW214166   4.684   2.135   3.555  0.3613  0.0658  0.1106
 4423SOL     OW14167   6.529   0.965   0.478  0.2209 -0.2383 -0.0029
 4423SOL    HW114168   6.496   0.883   0.523  1.2822  0.7173  2.6849
 4423SOL    HW214169   6.478   1.045   0.510  0.7138  0.4348 -0.8290
 4424SOL     OW14170   5.377   1.491   4.571  0.2108  0.1962  0.1116
 4424SOL    HW114171   5.346   1.399   4.597  3.9834 -1.2947  0.0034
 4424SOL    HW214172   5.368   1.552   4.650 -0.1953 -0.8899  0.9504
 4425SOL     OW14173   6.614   2.583   0.021  0.0712 -0.2436  0.0279
 4425SOL    HW114174   6.589   2.488   0.036 -0.1088 -0.0520  0.9944
 4425SOL    HW214175   6.659   2.619   0.102 -1.4127  0.9906  0.3600
 4426SOL     OW14176   2.269   1.594   1.591  0.7438  0.2390  0.4315
 4426SOL    HW114177   2.258   1.686   1.554  0.0679  0.8279  2.0207
 4426SOL    HW214178   2.332   1.596   1.669 -0.7663 -0.2447  1.7263
 4427SOL     OW14179   6.652   4.369   1.235  0.4478  0.1581 -0.4337
 4427SOL    HW114180   6.674   4.466   1.246  2.6149 -0.3832  0.3886
 4427SOL    HW214181   6.719   4.326   1.174 -1.0551 -0.6613 -1.5864
 4428SOL     OW14182   2.962   5.361   3.265 -0.6776 -0.0733 -0.2997
 4428SOL    HW114183   2.983   5.299   3.189 -1.8801 -1.0451  0.1400
 4428SOL    HW214184   2.863   5.377   3.269 -0.7093 -0.5107  1.4199
 4429SOL     OW14185   6.209   3.615   3.200  0.2192 -0.0497 -0.0934
 4429SOL    HW114186   6.279   3.547   3.218 -1.3985 -2.1976 -1.4113
 4429SOL    HW214187   6.231   3.665   3.116  1.0374  0.5980  0.4838
 4430SOL     OW14188   2.899   3.709   3.972  0.3045  0.2370 -0.0768
 4430SOL    HW114189   2.926   3.720   3.877  1.7426  4.7786  0.5798
 4430SOL    HW214190   2.963   3.759   4.031 -3.0082  1.5829  2.7886
 4431SOL     OW14191   6.399   6.645   4.249  0.2371  0.3020 -0.4638
 4431SOL    HW114192   6.367   6.581   4.179 -0.3478 -1.5000  1.3342
 4431SOL    HW214193   6.496   6.665   4.233 -0.1599  0.8954 -2.4132
 4432SOL     OW14194   3.257   2.929   4.610 -0.0149  0.5214 -0.2462
 4432SOL    HW114195   3.219   2.872   4.684  1.3418 -0.6415 -0.3960
 4432SOL    HW214196   3.188   2.996   4.581 -1.6986 -1.0261 -0.0466
 4433SOL     OW14197   6.804   6.814   0.292  0.4993 -0.6882 -0.1264
 4433SOL    HW114198   6.751   6.745   0.242  0.7259 -0.9795  0.0321
 4433SOL    HW214199   6.872   6.768   0.350 -0.2415 -0.3959  1.0158
 4434SOL     OW14200   1.337   5.697   6.994 -0.0192 -0.6354 -0.0638
 4434SOL    HW114201   1.286   5.657   7.070  0.7671  1.9434  1.9621
 4434SOL    HW214202   1.273   5.737   6.929 -0.6495 -0.4839  0.6391
 4435SOL     OW14203   4.659   6.423   6.751 -0.6151  0.4303  0.1482
 4435SOL    HW114204   4.617   6.424   6.660 -0.3097 -1.8630 -0.0941
 4435SOL    HW214205   4.634   6.338   6.798  0.4867  0.8662  1.5939
 4436SOL     OW14206   1.407   5.930   3.065 -0.4986  0.1205  0.1573
 4436SOL    HW114207   1.385   5.842   3.025  0.6412 -0.7017  1.2625
 4436SOL    HW214208   1.328   5.991   3.058 -1.3977 -1.0779 -0.3446
 4437SOL     OW14209   1.935   4.322   2.907 -0.2353 -0.3449  0.4034
 4437SOL    HW114210   2.002   4.249   2.892  0.8124  0.4375  1.1552
 4437SOL    HW214211   1.981   4.401   2.947 -1.5897  0.2875  0.7389
 4438SOL     OW14212   4.587   0.166   5.981 -0.0334 -0.1190 -0.0846
 4438SOL    HW114213   4.578   0.154   6.080 -0.9131 -2.0934 -0.3484
 4438SOL    HW214214   4.634   0.087   5.942 -1.4184 -0.3161 -1.4639
 4439SOL     OW14215   6.899   4.631   2.710  0.4331 -0.1303 -0.2101
 4439SOL    HW114216   6.908   4.540   2.749  3.9170  0.3388  0.3940
 4439SOL    HW214217   6.987   4.661   2.675 -0.8173  2.6752 -1.2353
 4440SOL     OW14218   4.988   5.620   3.409 -0.5799 -0.2063  0.5635
 4440SOL    HW114219   5.065   5.667   3.367 -1.2475 -0.1792 -0.6871
 4440SOL    HW214220   5.019   5.534   3.450  0.0315 -0.4461 -0.3813
 4441SOL     OW14221   2.584   5.329   5.370  0.0249  0.7311 -0.5491
 4441SOL    HW114222   2.619   5.384   5.294  2.1939  0.0963 -0.0642
 4441SOL    HW214223   2.606   5.233   5.354  1.3790  0.6785  1.2774
 4442SOL     OW14224   4.880   3.638   6.996 -0.2553 -0.4747 -0.8397
 4442SOL    HW114225   4.788   3.606   6.973 -0.4970 -0.5548  0.1802
 4442SOL    HW214226   4.898   3.619   7.092 -0.1988  1.9627 -0.3176
 4443SOL     OW14227   5.090   0.680   2.566  0.3270  0.0113 -0.1912
 4443SOL    HW114228   5.179   0.683   2.520  1.3594  0.7784  1.7015
 4443SOL    HW214229   5.075   0.767   2.614 -1.2899 -0.2532 -0.1657
 4444SOL     OW14230   3.756   1.040   3.474  0.2836  0.0934 -0.0193
 4444SOL    HW114231   3.821   1.083   3.411  1.3424 -1.0850  0.2190
 4444SOL    HW214232   3.669   1.025   3.427  1.1858 -1.1718 -1.3731
 4445SOL     OW14233   6.329   0.740   6.032  0.1324  0.4808  0.5516
 4445SOL    HW114234   6.302   0.798   5.954  1.0473  0.0396 -0.1111
 4445SOL    HW214235   6.402   0.785   6.083  1.8853 -0.6967 -0.8277
 4446SOL     OW14236   6.570   6.055   5.443  0.1514  0.4155 -0.5711
 4446SOL    HW114237   6.619   6.007   5.369 -0.2855 -1.6087  0.3712
 4446SOL    HW214238   6.635   6.078   5.516  0.2668  0.7333 -0.7739
 4447SOL     OW14239   2.688   5.913   5.467  0.3450 -0.0439  0.1613
 4447SOL    HW114240   2.666   5.837   5.405  1.1752 -0.2117  0.0535
 4447SOL    HW214241   2.787   5.921   5.475  0.2777 -0.6929  2.2900
 4448SOL     OW14242   4.494   4.005   5.490  0.2100  0.3061  0.0294
 4448SOL    HW114243   4.453   3.932   5.435 -0.1063  0.8491 -0.4691
 4448SOL    HW214244   4.427   4.040   5.555  0.5011 -0.1477  0.5860
 4449SOL     OW14245   3.335   3.990   1.492  0.1790 -0.3053 -0.3410
 4449SOL    HW114246   3.415   3.930   1.489 -0.6530 -1.4537 -0.2036
 4449SOL    HW214247   3.285   3.974   1.577 -0.4378  0.0890 -0.6258
 4450SOL     OW14248   3.082   3.410   2.972 -0.5831  0.1120  0.5581
 4450SOL    HW114249   3.132   3.332   3.009 -0.1711 -2.0076 -3.8884
 4450SOL    HW214250   3.147   3.476   2.933 -0.7563 -2.0741 -4.1400
 4451SOL     OW14251   5.126   0.530   3.426  0.0965 -0.2702  0.4517
 4451SOL    HW114252   5.058   0.514   3.498  0.0362 -0.1098  0.4313
 4451SOL    HW214253   5.207   0.473   3.443 -0.0712 -0.5122  0.4376
 4452SOL     OW14254   1.397   5.078   4.427  0.0150  0.1877  0.3051
 4452SOL    HW114255   1.344   5.046   4.349 -0.0531  1.5782 -0.2484
 4452SOL    HW214256   1.335   5.102   4.502  0.0054 -0.0394  0.3716
 4453SOL     OW14257   0.251   1.296   2.657  0.4461 -0.4551 -0.5133
 4453SOL    HW114258   0.192   1.371   2.689  1.0547 -0.1004 -0.2056
 4453SOL    HW214259   0.308   1.328   2.581 -0.3785 -1.0518 -1.4086
 4454SOL     OW14260   3.745   2.702   5.976 -0.9381 -0.0567  0.1051
 4454SOL    HW114261   3.762   2.605   5.996 -1.2359  0.2634  2.1294
 4454SOL    HW214262   3.774   2.722   5.883  0.3942 -1.7938  0.0912
 4455SOL     OW14263   5.013   1.495   6.370 -0.1809 -0.0279 -0.1074
 4455SOL    HW114264   4.956   1.423   6.331  0.6538 -0.4814 -0.5213
 4455SOL    HW214265   5.030   1.475   6.467 -0.7374  0.1216  0.0228
 4456SOL     OW14266   4.488   1.032   6.770  0.0162  0.2795 -0.0239
 4456SOL    HW114267   4.462   1.102   6.703 -0.9859  0.9811  1.0590
 4456SOL    HW214268   4.441   0.946   6.748  1.9566 -0.4088 -1.9028
 4457SOL     OW14269   0.140   1.315   0.684 -0.2738  0.2784  0.0239
 4457SOL    HW114270   0.143   1.408   0.722 -0.6471 -0.2927  1.5132
 4457SOL    HW214271   0.233   1.285   0.663  0.1000  0.1112  1.7975
 4458SOL     OW14272   5.672   0.240   3.964 -0.3001 -0.2140  0.5520
 4458SOL    HW114273   5.698   0.148   3.991 -1.5393 -0.9757 -0.7013
 4458SOL    HW214274   5.738   0.276   3.898 -1.3188 -1.4077 -1.2116
 4459SOL     OW14275   0.748   4.513   0.569  0.5148 -0.2519  0.3150
 4459SOL    HW114276   0.657   4.498   0.530  1.5506 -3.1132 -1.3287
 4459SOL    HW214277   0.741   4.518   0.668 -1.2572 -3.3009  0.4864
 4460SOL     OW14278   6.311   0.662   6.479 -0.5415 -0.0898  0.3838
 4460SOL    HW114279   6.298   0.602   6.399 -1.1462 -0.0791  0.4659
 4460SOL    HW214280   6.234   0.725   6.484 -1.1028 -0.8454  1.6358
 4461SOL     OW14281   6.982   0.107   0.805 -0.6039 -0.3315 -0.1126
 4461SOL    HW114282   7.074   0.129   0.772  0.0467  1.3607  2.5299
 4461SOL    HW214283   6.919   0.103   0.728  1.2312  0.8248 -1.7748
 4462SOL     OW14284   2.659   1.061   4.051 -0.4211 -0.1540  0.6860
 4462SOL    HW114285   2.602   1.094   4.126  1.9877  0.0491  2.5632
 4462SOL    HW214286   2.713   0.982   4.082  0.0068 -0.6190 -1.1243
 4463SOL     OW14287   4.901   1.154   3.115  0.6122 -0.2674 -0.0014
 4463SOL    HW114288   4.964   1.218   3.158  0.2821  0.4703 -0.5817
 4463SOL    HW214289   4.869   1.193   3.028 -0.6968 -0.5793  0.3202
 4464SOL     OW14290   0.330   6.056   2.129 -0.3145  0.7868  0.9119
 4464SOL    HW114291   0.233   6.079   2.116  0.2937  2.1994 -2.0908
 4464SOL    HW214292   0.352   5.976   2.074  0.4753  1.2852  0.4895
 4465SOL     OW14293   5.703   6.644   1.412 -0.8265  0.0189  0.0854
 4465SOL    HW114294   5.730   6.549   1.393  1.4132  0.7306 -0.6536
 4465SOL    HW214295   5.756   6.705   1.353 -0.4385  1.8424  2.2078
 4466SOL     OW14296   5.698   2.107   6.753  0.0804 -0.9321 -0.1536
 4466SOL    HW114297   5.750   2.060   6.681 -0.5708 -0.4324 -0.9697
 4466SOL    HW214298   5.602   2.111   6.727 -0.0389 -0.0603  0.3874
 4467SOL     OW14299   4.152   2.823   6.506  0.4706 -0.2397  0.3924
 4467SOL    HW114300   4.161   2.850   6.411 -1.2547 -1.9868 -0.3347
 4467SOL    HW214301   4.212   2.745   6.525  0.7025  0.0101  0.7076
 4468SOL     OW14302   5.368   0.728   1.304  0.3238 -0.2442 -0.7622
 4468SOL    HW114303   5.380   0.773   1.215 -1.0735 -0.9588 -1.3468
 4468SOL    HW214304   5.443   0.665   1.320  1.5902  1.2640 -0.5516
 4469SOL     OW14305   0.042   6.537   5.717 -0.2870 -0.1792 -0.1438
 4469SOL    HW114306   0.110   6.531   5.645 -0.2732  0.0508 -0.1518
 4469SOL    HW214307   0.084   6.575   5.800 -0.2158 -0.7826  0.0996
 4470SOL     OW14308   3.789   4.569   0.266 -0.1287  0.0810 -0.2396
 4470SOL    HW114309   3.697   4.533   0.284 -0.1107  1.0608  2.1175
 4470SOL    HW214310   3.800   4.583   0.167 -2.6309  0.2404 -0.5737
 4471SOL     OW14311   4.239   3.361   5.899 -0.1738  0.2844  0.4489
 4471SOL    HW114312   4.319   3.394   5.849 -0.0333 -0.6683  0.0203
 4471SOL    HW214313   4.262   3.355   5.997  1.2694 -2.6312  0.0277
 4472SOL     OW14314   4.868   1.278   6.299  0.5235  0.1275 -0.2780
 4472SOL    HW114315   4.952   1.231   6.274 -0.4605 -2.1788  0.4421
 4472SOL    HW214316   4.791   1.214   6.294 -1.3606  2.3322 -1.6636
 4473SOL     OW14317   6.080   6.758   0.907 -0.0767  0.6187 -0.6985
 4473SOL    HW114318   5.989   6.797   0.893 -0.7421 -0.1273  1.1656
 4473SOL    HW214319   6.138   6.825   0.952 -1.0740 -0.2250  2.0628
 4474SOL     OW14320   3.960   6.468   1.140 -0.0568 -0.3132  0.3171
 4474SOL    HW114321   3.971   6.422   1.228  2.3866 -1.4969 -0.5086
 4474SOL    HW214322   3.960   6.567   1.154 -0.7881 -0.4909  1.7367
 4475SOL     OW14323   1.244   0.330   6.105  0.6664  0.2708 -0.3436
 4475SOL    HW114324   1.230   0.232   6.089 -0.4222  0.6266 -1.7500
 4475SOL    HW214325   1.223   0.352   6.201 -1.8180 -0.4332 -0.6530
 4476SOL     OW14326   5.444   3.805   4.361  0.5819  0.3210  0.5154
 4476SOL    HW114327   5.393   3.735   4.412  2.2978 -1.0024  0.4839
 4476SOL    HW214328   5.401   3.818   4.272 -0.4912  0.2443  0.9979
 4477SOL     OW14329   2.723   3.210   1.494 -0.3804 -0.4068  0.6105
 4477SOL    HW114330   2.800   3.151   1.517  0.0649 -0.3832 -0.7523
 4477SOL    HW214331   2.752   3.306   1.500 -0.5216 -0.3752  0.8087
 4478SOL     OW14332   3.611   6.322   6.780 -0.1096 -0.2609 -0.0607
 4478SOL    HW114333   3.667   6.394   6.821 -0.9820  0.1376  0.4635
 4478SOL    HW214334   3.572   6.355   6.695 -2.9033  1.0553  1.5814
 4479SOL     OW14335   2.436   2.751   6.679  0.2030 -0.1058 -0.2043
 4479SOL    HW114336   2.475   2.697   6.754 -0.8334 -2.8470 -1.5110
 4479SOL    HW214337   2.480   2.724   6.593 -1.5803 -0.1828 -1.1222
 4480SOL     OW14338   3.951   0.493   3.675  0.5325 -0.0937 -0.5539
 4480SOL    HW114339   3.867   0.522   3.629  0.8760  2.8239  0.4033
 4480SOL    HW214340   3.937   0.497   3.774  1.3809 -1.0593 -0.3762
 4481SOL     OW14341   6.402   1.200   6.564  0.6279  0.6935  0.5938
 4481SOL    HW114342   6.317   1.231   6.608  0.3036  0.5234  0.0977
 4481SOL    HW214343   6.425   1.261   6.489 -0.3241 -0.5432 -0.7505
 4482SOL     OW14344   6.558   1.301   2.270  0.5796  0.1322 -0.3723
 4482SOL    HW114345   6.469   1.270   2.237  0.3156  1.4958 -1.0393
 4482SOL    HW214346   6.612   1.333   2.192 -0.0256  3.3664  0.3741
 4483SOL     OW14347   5.765   4.553   4.214  0.8448 -0.2295  0.0432
 4483SOL    HW114348   5.738   4.474   4.159 -0.0073 -0.2784  0.5186
 4483SOL    HW214349   5.685   4.592   4.259  0.8145  2.3488 -2.0257
 4484SOL     OW14350   0.641   0.907   4.187 -0.1886  0.0741 -0.6228
 4484SOL    HW114351   0.677   0.961   4.112  0.4833  1.4634  0.6488
 4484SOL    HW214352   0.647   0.959   4.272 -1.8922 -1.0457  0.2469
 4485SOL     OW14353   5.821   2.529   5.585 -0.0047 -0.5281 -0.2442
 4485SOL    HW114354   5.721   2.535   5.584  0.0296  0.1513  0.1623
 4485SOL    HW214355   5.848   2.442   5.627 -0.3956  0.9040  3.3095
 4486SOL     OW14356   2.281   5.037   3.868  0.0930  0.3436  0.2189
 4486SOL    HW114357   2.298   4.966   3.800 -0.5585  1.3564 -1.0335
 4486SOL    HW214358   2.318   5.124   3.835  0.7289  0.6480  1.6554
 4487SOL     OW14359   4.944   2.338   3.880  0.4102  0.4136 -0.1261
 4487SOL    HW114360   4.978   2.255   3.924  0.1292  0.6421  0.5435
 4487SOL    HW214361   4.898   2.314   3.795 -0.4620 -0.2335  0.5068
 4488SOL     OW14362   4.812   4.362   6.183 -0.0714  0.0814 -0.2143
 4488SOL    HW114363   4.840   4.407   6.099 -2.1276  1.4727 -0.2316
 4488SOL    HW214364   4.716   4.333   6.176  0.1247 -1.0166  1.1415
 4489SOL     OW14365   3.478   2.000   5.170  0.3079 -0.4905  0.5289
 4489SOL    HW114366   3.569   1.958   5.172  1.0692  0.5580 -3.3775
 4489SOL    HW214367   3.487   2.099   5.163 -0.9955 -0.4735 -1.7388
 4490SOL     OW14368   1.916   4.318   1.118 -0.0770 -0.3966  0.6419
 4490SOL    HW114369   1.852   4.332   1.193 -0.0169  0.0950  0.6018
 4490SOL    HW214370   1.904   4.390   1.050 -1.1875 -1.6564 -0.5735
 4491SOL     OW14371   5.027   5.060   0.876 -0.3670  0.2758 -0.6298
 4491SOL    HW114372   5.097   5.113   0.828  1.5706 -1.6248 -0.0636
 4491SOL    HW214373   5.025   5.087   0.972  0.0122 -0.0565 -0.5253
 4492SOL     OW14374   2.108   4.685   4.762  0.2962 -0.1467  0.2014
 4492SOL    HW114375   2.189   4.709   4.708 -1.1501  0.2755 -1.9070
 4492SOL    HW214376   2.042   4.760   4.758 -1.6427 -1.8405 -1.1228
 4493SOL     OW14377   1.052   5.175   4.042  0.2847 -0.2470 -0.1760
 4493SOL    HW114378   1.119   5.235   3.997  1.5068 -0.9695  0.6049
 4493SOL    HW214379   1.039   5.093   3.986  1.2785 -0.8262  0.4032
 4494SOL     OW14380   1.794   4.885   6.864  0.4706  0.5668  0.0342
 4494SOL    HW114381   1.827   4.976   6.838  0.7057  0.0761 -1.5062
 4494SOL    HW214382   1.870   4.831   6.899  0.2376  1.0895  1.4215
 4495SOL     OW14383   4.309   6.502   0.523 -0.1754  0.1874 -0.5290
 4495SOL    HW114384   4.389   6.528   0.469 -1.1830  1.8475 -1.2993
 4495SOL    HW214385   4.260   6.429   0.477  3.2065 -4.3124  2.1154
 4496SOL     OW14386   1.424   6.799   1.823  0.4218  0.2552  0.6069
 4496SOL    HW114387   1.508   6.758   1.859  1.6852  2.2490  0.1068
 4496SOL    HW214388   1.421   6.786   1.724  0.5629  0.8673  0.5185
 4497SOL     OW14389   4.244   4.545   0.485 -0.0945 -0.4235  0.2393
 4497SOL    HW114390   4.161   4.600   0.488  0.6336  0.7118  0.3901
 4497SOL    HW214391   4.222   4.452   0.456 -1.1792  0.3393 -1.5738
 4498SOL     OW14392   2.963   6.327   0.778  0.0090  0.1440 -0.1108
 4498SOL    HW114393   2.950   6.230   0.761 -0.4970 -0.1898  1.9366
 4498SOL    HW214394   3.057   6.344   0.809  0.0164  0.2619 -0.1962
 4499SOL     OW14395   3.798   5.979   3.536  0.0196  0.1888 -0.7603
 4499SOL    HW114396   3.875   6.043   3.542  0.0049  0.1061  0.6830
 4499SOL    HW214397   3.723   6.013   3.593 -1.1334  0.3930 -2.3352
 4500SOL     OW14398   0.170   6.001   4.626  0.8328  0.4687 -0.5719
 4500SOL    HW114399   0.157   6.095   4.658  3.0595  0.7199 -0.1870
 4500SOL    HW214400   0.194   5.943   4.704 -0.7637 -0.5167 -0.7668
 4501SOL     OW14401   4.342   4.675   3.574  0.3480 -0.1771 -0.4320
 4501SOL    HW114402   4.358   4.579   3.595  0.3627 -0.0757  0.0298
 4501SOL    HW214403   4.260   4.707   3.621  1.8592  0.7613  1.7572
 4502SOL     OW14404   2.656   4.576   5.350 -0.3736  0.4622 -0.8674
 4502SOL    HW114405   2.599   4.632   5.290 -0.7259 -0.1959 -1.1582
 4502SOL    HW214406   2.732   4.537   5.297 -0.1291  0.6618 -0.6670
 4503SOL     OW14407   5.072   6.489   2.900  0.1094  0.0228  0.4535
 4503SOL    HW114408   5.075   6.585   2.930  2.1115  0.7114 -1.7048
 4503SOL    HW214409   5.059   6.430   2.980  1.0136  1.9559  2.1294
 4504SOL     OW14410   6.779   3.195   3.384 -0.4860  0.0009 -0.2258
 4504SOL    HW114411   6.737   3.105   3.394 -1.9893  0.6222 -0.6666
 4504SOL    HW214412   6.843   3.194   3.307 -0.6411 -0.6411 -0.3469
 4505SOL     OW14413   6.187   5.898   6.977  0.0300  0.4234 -0.0590
 4505SOL    HW114414   6.247   5.890   7.056 -0.6108 -2.1223  0.2513
 4505SOL    HW214415   6.110   5.834   6.987 -1.7255  2.2190 -1.3332
 4506SOL     OW14416   1.370   0.943   3.060 -0.1906  0.1187 -0.1913
 4506SOL    HW114417   1.420   0.994   2.991  0.6966 -1.4228 -0.7548
 4506SOL    HW214418   1.426   0.936   3.143 -1.1285  1.7068  0.6247
 4507SOL     OW14419   1.788   1.840   0.679 -0.0666 -0.9109 -0.1645
 4507SOL    HW114420   1.754   1.926   0.717  0.4977 -0.8368  0.1803
 4507SOL    HW214421   1.792   1.771   0.751  1.1963 -0.7178 -0.0284
 4508SOL     OW14422   3.287   2.772   5.803  0.1163  0.1628  0.2369
 4508SOL    HW114423   3.270   2.686   5.754 -1.0978  1.1075 -1.0771
 4508SOL    HW214424   3.347   2.754   5.881 -0.9497 -2.0771  0.6344
 4509SOL     OW14425   5.026   4.284   2.566  0.1534 -0.4746 -0.4555
 4509SOL    HW114426   5.051   4.265   2.661  0.3617 -0.6403 -0.5443
 4509SOL    HW214427   4.926   4.288   2.559  0.1467  0.0714 -0.1285
 4510SOL     OW14428   2.047   3.109   4.883  0.4337 -0.3149 -0.2661
 4510SOL    HW114429   2.103   3.046   4.828  0.8502 -0.0333 -0.1654
 4510SOL    HW214430   1.967   3.060   4.917  0.4672 -0.6458 -0.6485
 4511SOL     OW14431   3.613   3.335   2.884 -0.1177 -0.3528  0.1872
 4511SOL    HW114432   3.701   3.363   2.923 -0.2203 -0.3528  0.4152
 4511SOL    HW214433   3.601   3.379   2.795  0.8923 -1.6585 -0.6407
 4512SOL     OW14434   5.150   1.648   3.695  0.2350  0.2425 -0.0920
 4512SOL    HW114435   5.164   1.747   3.705  3.7700  0.0189 -1.2965
 4512SOL    HW214436   5.144   1.626   3.597 -0.6917 -0.7519  0.1753
 4513SOL     OW14437   4.528   6.803   5.442 -0.0770 -0.3062 -0.0439
 4513SOL    HW114438   4.502   6.796   5.538  1.1700 -1.5381  0.2392
 4513SOL    HW214439   4.586   6.884   5.428  0.5901 -0.6838  0.4687
 4514SOL     OW14440   0.580   1.997   2.879  0.0145  0.6905 -0.4668
 4514SOL    HW114441   0.597   1.955   2.790 -1.0708 -0.5941 -0.1030
 4514SOL    HW214442   0.494   2.049   2.875 -0.7400 -0.4550  0.1407
 4515SOL     OW14443   4.758   6.798   2.955  0.9010 -0.8595  0.0534
 4515SOL    HW114444   4.716   6.888   2.947 -1.1464 -1.9316 -4.3607
 4515SOL    HW214445   4.853   6.803   2.923  1.7615  0.1084  2.5187
 4516SOL     OW14446   0.519   4.047   4.650  0.3209  0.8520 -0.0783
 4516SOL    HW114447   0.519   3.947   4.647  2.8645  0.8047  0.0023
 4516SOL    HW214448   0.500   4.082   4.558  0.9881  0.2721 -0.4447
 4517SOL     OW14449   5.831   1.606   4.839  0.3917  0.1393 -0.5559
 4517SOL    HW114450   5.852   1.534   4.906  0.7347  0.1909 -0.6085
 4517SOL    HW214451   5.877   1.586   4.753 -2.0513 -1.2931 -1.6256
 4518SOL     OW14452   0.274   0.280   1.231  0.0953 -0.0245  0.1161
 4518SOL    HW114453   0.354   0.249   1.283  0.5545 -0.1069 -0.6297
 4518SOL    HW214454   0.194   0.226   1.258  0.6693 -1.1611 -0.4069
 4519SOL     OW14455   2.776   0.691   3.575 -0.0304  0.1699  0.7074
 4519SOL    HW114456   2.810   0.775   3.617 -0.4765  0.0293  1.3691
 4519SOL    HW214457   2.805   0.687   3.480  1.0974  0.4421  1.0285
 4520SOL     OW14458   5.839   1.260   0.396  1.2406 -0.3518 -0.0813
 4520SOL    HW114459   5.902   1.313   0.338  1.2103  0.0918  0.2828
 4520SOL    HW214460   5.875   1.167   0.407  1.4059 -0.3500 -0.5525
 4521SOL     OW14461   3.122   4.826   5.050  0.7685  0.5448  0.1488
 4521SOL    HW114462   3.068   4.910   5.058 -0.9361 -0.0175 -3.5247
 4521SOL    HW214463   3.062   4.747   5.058  1.3710 -0.1622 -1.8228
 4522SOL     OW14464   1.404   6.116   6.913 -0.4120  0.0461 -0.2830
 4522SOL    HW114465   1.385   6.032   6.964 -2.4647  0.4813 -0.2383
 4522SOL    HW214466   1.495   6.109   6.871  0.2964 -1.3485  1.3344
 4523SOL     OW14467   1.604   5.694   0.622 -0.7962  0.1616  0.0913
 4523SOL    HW114468   1.695   5.675   0.584  0.1127  0.1616  2.1029
 4523SOL    HW214469   1.550   5.610   0.622 -0.1935 -0.2387  0.3435
 4524SOL     OW14470   3.989   3.216   3.564 -0.0106 -0.1136 -0.1932
 4524SOL    HW114471   4.002   3.161   3.482 -1.2018  1.1580 -1.2887
 4524SOL    HW214472   3.966   3.156   3.641 -1.9342 -1.1286 -1.4828
 4525SOL     OW14473   3.015   3.768   5.591 -0.6030  0.4214 -0.6469
 4525SOL    HW114474   2.973   3.831   5.656  0.0155 -0.0256  0.1994
 4525SOL    HW214475   3.039   3.683   5.638  0.5347  0.3812 -1.2898
 4526SOL     OW14476   5.258   6.314   0.077  0.5591 -0.0316 -0.0467
 4526SOL    HW114477   5.357   6.297   0.072  0.5149 -0.2348 -0.2758
 4526SOL    HW214478   5.217   6.296  -0.012  0.3342  0.1852  0.0126
 4527SOL     OW14479   5.911   4.877   6.075  0.4070  0.2501 -0.1118
 4527SOL    HW114480   5.863   4.946   6.020  1.2325  1.7181  0.9250
 4527SOL    HW214481   5.861   4.860   6.160  0.9033  0.6321  0.2679
 4528SOL     OW14482   1.900   2.140   1.096  0.0384  0.5962  0.4103
 4528SOL    HW114483   1.808   2.173   1.117 -0.6206 -2.2274  2.5724
 4528SOL    HW214484   1.935   2.189   1.017 -4.0890  0.4927 -1.7685
 4529SOL     OW14485   1.152   0.227   0.843 -0.3382 -0.0596 -0.6813
 4529SOL    HW114486   1.069   0.240   0.898  0.2013  0.9729 -0.0761
 4529SOL    HW214487   1.205   0.312   0.844 -0.0628 -0.1865 -2.3987
 4530SOL     OW14488   1.057   6.954   3.650  0.0645  0.0996 -0.1618
 4530SOL    HW114489   1.100   6.868   3.623 -1.9187 -0.7684 -0.8018
 4530SOL    HW214490   1.023   7.001   3.569 -2.5692 -0.6372  0.4035
 4531SOL     OW14491   4.090   1.687   2.589  0.1418  0.0228  0.6610
 4531SOL    HW114492   4.024   1.719   2.521  0.7555 -0.7479 -0.3182
 4531SOL    HW214493   4.179   1.728   2.571  0.1714  0.2941  1.3888
 4532SOL     OW14494   3.106   4.329   5.256  0.4875  0.1881 -0.1770
 4532SOL    HW114495   3.064   4.253   5.305  0.9985  1.8223  3.0778
 4532SOL    HW214496   3.036   4.397   5.234  0.4396 -0.0185 -0.6667
 4533SOL     OW14497   4.835   0.756   6.035  0.6025  0.0604  0.0827
 4533SOL    HW114498   4.909   0.715   6.088  0.1428  1.0551  1.5727
 4533SOL    HW214499   4.752   0.701   6.047  0.9113 -0.6841 -1.0516
 4534SOL     OW14500   6.812   3.432   1.098  0.0801  0.2121  0.0361
 4534SOL    HW114501   6.756   3.513   1.077 -0.5820 -0.2451  0.0102
 4534SOL    HW214502   6.806   3.368   1.021  0.0797 -0.1454  0.3350
 4535SOL     OW14503   0.929   5.567   6.552  0.4843 -0.1823  0.7845
 4535SOL    HW114504   1.007   5.629   6.550 -1.0417  1.7944  0.3980
 4535SOL    HW214505   0.953   5.485   6.605  2.5968  0.6180  1.1524
 4536SOL     OW14506   0.653   6.927   2.747  0.0971 -0.2263 -0.4090
 4536SOL    HW114507   0.719   6.903   2.675  0.4919  0.1002 -0.1602
 4536SOL    HW214508   0.564   6.945   2.706 -0.4710 -2.9306 -0.5585
 4537SOL     OW14509   2.231   2.315   5.573 -0.1014  0.3147 -0.1997
 4537SOL    HW114510   2.320   2.325   5.529  0.2315 -1.6501 -0.0774
 4537SOL    HW214511   2.162   2.367   5.522  0.9075  0.9487 -0.9522
 4538SOL     OW14512   6.063   3.907   1.345  0.2977  0.6441 -0.0657
 4538SOL    HW114513   6.152   3.953   1.347  0.1724  0.8516  0.9672
 4538SOL    HW214514   5.990   3.975   1.352  0.1033  0.3475  1.0251
 4539SOL     OW14515   3.603   5.408   3.644 -0.1605 -0.1925 -0.4465
 4539SOL    HW114516   3.604   5.507   3.627 -0.8454 -0.0371  0.3734
 4539SOL    HW214517   3.647   5.361   3.568 -0.8833  0.6611 -1.4247
 4540SOL     OW14518   1.030   3.919   1.309 -0.6549  0.3026 -0.2078
 4540SOL    HW114519   0.946   3.931   1.256 -0.3626  1.5547 -0.4041
 4540SOL    HW214520   1.043   3.997   1.369 -0.8087 -0.9366  1.5261
 4541SOL     OW14521   5.673   2.903   5.129  0.2828 -0.6821 -0.0622
 4541SOL    HW114522   5.754   2.949   5.165  0.2106  0.5515 -1.3593
 4541SOL    HW214523   5.596   2.917   5.191  0.2057  1.2187 -0.5149
 4542SOL     OW14524   0.032   0.716   5.187 -0.0199  0.6972 -0.6387
 4542SOL    HW114525  -0.002   0.762   5.105 -0.0449 -1.9695 -2.2780
 4542SOL    HW214526   0.115   0.665   5.163 -0.9571 -1.5035  0.5279
 4543SOL     OW14527   1.555   2.328   0.490  0.4266 -0.2049  0.0075
 4543SOL    HW114528   1.558   2.407   0.551  0.0991  0.4410 -0.7956
 4543SOL    HW214529   1.508   2.353   0.406 -1.2250 -1.7597  0.4250
 4544SOL     OW14530   5.196   2.858   1.615  0.6133  0.5633  0.2279
 4544SOL    HW114531   5.135   2.779   1.606  2.1475 -0.6913  0.5225
 4544SOL    HW214532   5.251   2.868   1.532  0.6401  1.1683  0.3095
 4545SOL     OW14533   5.866   4.853   1.321 -0.5551  0.9166  0.0411
 4545SOL    HW114534   5.781   4.837   1.270  0.4366  0.3945 -1.5299
 4545SOL    HW214535   5.856   4.933   1.380 -2.4434  0.2881  0.6354
 4546SOL     OW14536   0.132   5.826   5.504 -0.1159  0.4461 -0.4127
 4546SOL    HW114537   0.196   5.752   5.485  0.6427  1.3096 -1.3299
 4546SOL    HW214538   0.078   5.803   5.585  3.0361  0.7196  1.9380
 4547SOL     OW14539   0.924   0.930   1.989  0.0867  0.2037 -0.6182
 4547SOL    HW114540   0.903   0.836   2.018 -0.9452  0.4522 -0.5299
 4547SOL    HW214541   1.014   0.956   2.024 -0.3555 -0.1437  0.8460
 4548SOL     OW14542   0.143   1.243   3.246 -0.2111 -0.2799 -0.4922
 4548SOL    HW114543   0.172   1.187   3.168 -2.7340 -2.4879  0.0137
 4548SOL    HW214544   0.168   1.339   3.230  0.5240 -0.8631 -3.3655
 4549SOL     OW14545   6.655   4.601   6.824  0.2192  0.6111  1.1763
 4549SOL    HW114546   6.602   4.660   6.763  0.7732  0.7572  0.8302
 4549SOL    HW214547   6.713   4.541   6.770  1.2279  1.2199  1.5647
 4550SOL     OW14548   0.312   5.897   6.775 -0.9375 -0.0474 -0.3747
 4550SOL    HW114549   0.394   5.953   6.771 -0.2968 -0.8582  0.9016
 4550SOL    HW214550   0.231   5.956   6.770 -0.2985  0.7896 -1.1783
 4551SOL     OW14551   4.219   3.835   0.663 -0.0973  0.1369 -0.3137
 4551SOL    HW114552   4.131   3.844   0.618  0.2208  2.2441 -0.5903
 4551SOL    HW214553   4.211   3.771   0.740 -1.6317 -0.3433 -0.8492
 4552SOL     OW14554   6.720   5.176   2.876 -0.0360 -0.3501 -0.1747
 4552SOL    HW114555   6.775   5.174   2.793  1.0181  0.2703  0.4809
 4552SOL    HW214556   6.625   5.195   2.852  0.3499  0.3956 -1.2028
 4553SOL     OW14557   4.323   2.344   0.174  0.4877 -1.0194  0.9026
 4553SOL    HW114558   4.333   2.444   0.176  0.2549 -0.8985 -1.4856
 4553SOL    HW214559   4.410   2.302   0.149  0.3853 -1.3788  1.1387
 4554SOL     OW14560   1.315   0.627   6.871  0.0926 -0.0250 -0.6952
 4554SOL    HW114561   1.234   0.580   6.837  0.7755 -0.3382 -1.9783
 4554SOL    HW214562   1.299   0.658   6.965 -0.8693 -1.5931 -0.2989
 4555SOL     OW14563   6.745   2.993   4.896  0.0481 -0.0113 -0.6287
 4555SOL    HW114564   6.746   2.909   4.949 -1.2073  0.3372  0.0051
 4555SOL    HW214565   6.748   2.972   4.798 -0.4379 -0.8023 -0.4771
 4556SOL     OW14566   6.329   4.175   2.622 -0.6676 -0.1284  0.1632
 4556SOL    HW114567   6.311   4.184   2.524  2.5380  0.1534 -0.5049
 4556SOL    HW214568   6.243   4.160   2.671 -2.6494  1.9873 -2.3942
 4557SOL     OW14569   1.834   5.887   0.415 -0.2305  0.3742  0.5860
 4557SOL    HW114570   1.757   5.851   0.468 -0.0875 -0.0298  0.5217
 4557SOL    HW214571   1.841   5.837   0.329  1.5913 -1.3202  1.6129
 4558SOL     OW14572   6.359   2.617   1.378 -0.4111 -0.2988  0.0575
 4558SOL    HW114573   6.334   2.622   1.281 -0.3979  0.0209  0.0676
 4558SOL    HW214574   6.407   2.532   1.397  0.9173  0.2971 -0.5270
 4559SOL     OW14575   6.217   3.186   3.505 -0.4946 -0.5393 -0.5873
 4559SOL    HW114576   6.252   3.265   3.555  0.7251 -1.8096  0.6628
 4559SOL    HW214577   6.286   3.154   3.440 -1.2305 -0.2261 -1.5531
 4560SOL     OW14578   4.288   6.419   2.873  0.0952 -0.2110  0.2328
 4560SOL    HW114579   4.281   6.454   2.779 -0.7894 -0.9834 -0.0037
 4560SOL    HW214580   4.385   6.401   2.894  0.3971  0.8283 -0.1934
 4561SOL     OW14581   1.676   3.876   6.206  0.5609 -0.3255  0.1722
 4561SOL    HW114582   1.726   3.790   6.198  2.9535  0.8457  1.4388
 4561SOL    HW214583   1.741   3.952   6.211 -1.3973  1.3890  1.1514
 4562SOL     OW14584   5.840   6.392   0.561  0.6826  0.0553  0.1997
 4562SOL    HW114585   5.795   6.481   0.561  1.3447  0.4478 -1.8545
 4562SOL    HW214586   5.925   6.397   0.509 -0.2154 -2.1818 -1.7052
 4563SOL     OW14587   6.833   1.382   4.191  0.0958  0.2447  0.1458
 4563SOL    HW114588   6.909   1.376   4.125 -1.1749 -0.3158 -1.3271
 4563SOL    HW214589   6.752   1.418   4.144 -1.5113 -2.3375  0.7933
 4564SOL     OW14590   6.652   2.877   1.102  0.0393 -0.3912  0.1010
 4564SOL    HW114591   6.636   2.935   1.022  0.0312 -0.7304 -0.1453
 4564SOL    HW214592   6.746   2.844   1.102 -0.0379 -0.6136  0.0853
 4565SOL     OW14593   0.370   3.880   6.823 -0.0646  0.2877 -0.1178
 4565SOL    HW114594   0.338   3.975   6.819 -2.0452 -0.3416  0.2057
 4565SOL    HW214595   0.370   3.848   6.917 -2.9234 -1.1339 -0.5082
 4566SOL     OW14596   0.852   6.407   1.533 -0.1548 -0.6771 -0.2976
 4566SOL    HW114597   0.841   6.441   1.440 -1.0165  0.6283  0.2378
 4566SOL    HW214598   0.944   6.370   1.545 -0.0689 -0.9439 -1.6814
 4567SOL     OW14599   5.681   0.150   4.692  0.0229  0.0515 -0.2381
 4567SOL    HW114600   5.681   0.147   4.792 -0.4133 -0.9210 -0.2605
 4567SOL    HW214601   5.698   0.059   4.655  0.2088  0.4082 -1.0539
 4568SOL     OW14602   4.622   5.298   5.404  0.3582  0.7525 -0.6214
 4568SOL    HW114603   4.651   5.291   5.500 -0.8627 -0.0998 -0.2919
 4568SOL    HW214604   4.553   5.370   5.396  0.6596  1.0106 -0.9234
 4569SOL     OW14605   2.980   0.447   3.967  0.3522  0.0472 -0.1205
 4569SOL    HW114606   3.068   0.422   3.927  0.1681  0.9911 -1.1684
 4569SOL    HW214607   2.906   0.407   3.911  0.0811  1.7182 -1.0053
 4570SOL     OW14608   6.913   2.170   3.856 -0.1400 -0.3389 -0.2730
 4570SOL    HW114609   6.947   2.079   3.879  0.8469  0.0630 -0.0778
 4570SOL    HW214610   6.971   2.239   3.900  0.2973  0.4114 -1.9531
 4571SOL     OW14611   5.816   3.242   4.210 -0.1024 -0.0252  0.4817
 4571SOL    HW114612   5.777   3.313   4.269  2.5371  0.0487  2.3144
 4571SOL    HW214613   5.833   3.280   4.119 -1.2312  0.8608  0.6243
 4572SOL     OW14614   5.221   0.790   5.791 -0.1536 -0.8416 -0.8384
 4572SOL    HW114615   5.226   0.728   5.869 -0.8851  1.4979  1.2164
 4572SOL    HW214616   5.312   0.824   5.769 -0.1291 -0.1010  0.2951
 4573SOL     OW14617   2.650   1.318   5.452  0.1511  0.5462 -0.3303
 4573SOL    HW114618   2.628   1.299   5.357 -0.8662 -0.1108  0.0214
 4573SOL    HW214619   2.631   1.237   5.508  2.6436  0.2034  0.1695
 4574SOL     OW14620   3.343   6.643   6.595  0.2415  0.2591  0.3631
 4574SOL    HW114621   3.401   6.570   6.559 -0.2181  0.9431 -1.9214
 4574SOL    HW214622   3.385   6.681   6.677  3.2255  0.9017 -1.3102
 4575SOL     OW14623   0.176   6.738   6.633 -0.0888  0.0704  0.3603
 4575SOL    HW114624   0.226   6.814   6.591 -0.5148  0.1103 -0.0822
 4575SOL    HW214625   0.241   6.668   6.664  0.2353 -0.0026 -0.4468
 4576SOL     OW14626   2.733   1.663   6.483 -0.2668 -0.5292  0.3428
 4576SOL    HW114627   2.640   1.700   6.489  0.0353  0.5035 -0.8449
 4576SOL    HW214628   2.794   1.733   6.446  0.7352 -1.6274 -0.1352
 4577SOL     OW14629   2.551   6.052   2.754 -0.6251 -0.1889  0.1798
 4577SOL    HW114630   2.634   5.996   2.764 -1.4999 -1.3866  0.9266
 4577SOL    HW214631   2.529   6.062   2.657  0.2715 -0.0206 -0.0168
 4578SOL     OW14632   0.251   0.323   3.172 -0.2660  0.6934 -0.5100
 4578SOL    HW114633   0.237   0.280   3.083 -0.9861  0.0674 -0.1098
 4578SOL    HW214634   0.178   0.295   3.234  1.1922 -0.3575  0.8195
 4579SOL     OW14635   0.695   5.565   3.447  0.6960  0.6057 -0.0157
 4579SOL    HW114636   0.722   5.537   3.539  0.4535 -0.7610 -0.3450
 4579SOL    HW214637   0.619   5.509   3.415  2.0077 -0.2627 -1.7962
 4580SOL     OW14638   5.069   5.204   0.032 -0.1950  0.5273 -0.2355
 4580SOL    HW114639   5.076   5.240   0.125 -1.1691 -2.5233  1.1362
 4580SOL    HW214640   4.981   5.232  -0.007  0.4684  2.3252 -0.5459
 4581SOL     OW14641   2.857   2.827   6.576  0.1172  0.4957  0.3157
 4581SOL    HW114642   2.831   2.772   6.497  0.5774  0.6173  0.0756
 4581SOL    HW214643   2.931   2.781   6.625 -0.3401  0.2956  0.8229
 4582SOL     OW14644   6.966   1.920   4.490  0.4846 -0.5524  0.0633
 4582SOL    HW114645   6.901   1.857   4.447  0.2543 -0.2003 -0.1117
 4582SOL    HW214646   6.993   1.883   4.579 -1.1168 -0.0130  0.8225
 4583SOL     OW14647   6.164   2.078   5.566  0.4925 -0.1821  0.4418
 4583SOL    HW114648   6.263   2.083   5.552  0.2776 -0.6888 -1.6380
 4583SOL    HW214649   6.126   2.006   5.507 -1.0062 -0.6218  1.8816
 4584SOL     OW14650   6.695   2.901   0.733  0.1385 -0.2480  0.1370
 4584SOL    HW114651   6.625   2.846   0.778  1.0440 -0.7581  0.9684
 4584SOL    HW214652   6.656   2.948   0.655 -1.1061 -0.5850  0.5424
 4585SOL     OW14653   3.859   1.528   5.137  0.1077  0.4533 -0.5664
 4585SOL    HW114654   3.768   1.519   5.097  0.1933 -1.1483 -0.4502
 4585SOL    HW214655   3.912   1.594   5.084 -1.4917  2.3867  0.1081
 4586SOL     OW14656   1.804   6.530   3.217 -0.1481  0.6150 -0.4601
 4586SOL    HW114657   1.846   6.444   3.188  0.1033  0.0363  1.4499
 4586SOL    HW214658   1.770   6.520   3.311 -1.6941  2.0784 -0.8154
 4587SOL     OW14659   5.106   0.786   1.322  0.4104 -0.2303 -0.0223
 4587SOL    HW114660   5.199   0.752   1.336  0.2490 -0.1698  1.2730
 4587SOL    HW214661   5.090   0.866   1.379 -0.6996 -0.7348  0.4013
 4588SOL     OW14662   1.975   4.343   1.850 -0.0798  0.2905 -0.0009
 4588SOL    HW114663   1.992   4.286   1.931  1.8565  0.1922 -0.4317
 4588SOL    HW214664   2.010   4.435   1.866 -0.9173  0.6613 -0.2464
 4589SOL     OW14665   0.161   6.871   5.819  0.2194  0.0727  0.3136
 4589SOL    HW114666   0.143   6.863   5.721 -0.7048 -1.0178  0.5579
 4589SOL    HW214667   0.110   6.801   5.868  0.9617  0.3757  1.5518
 4590SOL     OW14668   3.512   3.857   3.539  0.0825 -0.1018 -0.7039
 4590SOL    HW114669   3.594   3.902   3.574  0.5412 -1.8912  0.6677
 4590SOL    HW214670   3.536   3.800   3.460  0.1231 -0.3896 -0.4876
 4591SOL     OW14671   5.791   0.512   1.243  0.2904 -0.1153  0.2878
 4591SOL    HW114672   5.847   0.508   1.325  0.4973  0.1426  0.1571
 4591SOL    HW214673   5.751   0.603   1.233 -2.4963 -1.0162  1.9408
 4592SOL     OW14674   5.040   2.841   0.929  0.3487  0.1325 -0.1751
 4592SOL    HW114675   5.036   2.870   0.834 -0.1364 -0.4641 -0.3481
 4592SOL    HW214676   5.079   2.749   0.935 -2.0961 -0.9854 -0.1077
 4593SOL     OW14677   5.759   5.736   4.581  0.1581  0.1118 -0.8533
 4593SOL    HW114678   5.813   5.800   4.635  1.8102 -2.1739  0.3638
 4593SOL    HW214679   5.811   5.708   4.500  0.0088 -0.6574 -0.6905
 4594SOL     OW14680   4.464   5.827   6.419  0.0145 -0.4754  0.6126
 4594SOL    HW114681   4.474   5.754   6.487 -0.7821 -2.5281 -1.3282
 4594SOL    HW214682   4.525   5.808   6.341 -0.9323  0.3880 -0.3657
 4595SOL     OW14683   3.337   6.981   2.071 -0.0377 -0.6649 -0.1653
 4595SOL    HW114684   3.262   6.918   2.091  1.2271 -2.7055 -1.4906
 4595SOL    HW214685   3.393   6.993   2.153 -1.5395  0.5676  0.7205
 4596SOL     OW14686   5.109   5.687   3.061  0.5971 -0.2924  0.0288
 4596SOL    HW114687   5.065   5.598   3.060 -0.2079  0.1065 -1.0723
 4596SOL    HW214688   5.134   5.714   2.968 -0.4086  1.2331  0.1683
 4597SOL     OW14689   2.214   1.809   1.028  0.1207  0.0029  0.6556
 4597SOL    HW114690   2.202   1.714   0.998  0.7986 -0.2397  1.1436
 4597SOL    HW214691   2.129   1.859   1.011 -0.3816 -0.7862  0.7438
 4598SOL     OW14692   0.694   3.251   6.347  0.4491 -0.5179 -0.0413
 4598SOL    HW114693   0.705   3.155   6.322  0.2462 -0.5836  0.1234
 4598SOL    HW214694   0.601   3.267   6.378  0.8451 -0.5429  1.1924
 4599SOL     OW14695   1.389   0.775   1.096  0.1959 -0.1554 -0.0814
 4599SOL    HW114696   1.433   0.766   1.186  0.0828  0.1339  0.0025
 4599SOL    HW214697   1.365   0.870   1.080  1.8390  0.1128 -1.1928
 4600SOL     OW14698   2.603   0.221   3.970  0.2982 -0.3435 -1.3325
 4600SOL    HW114699   2.674   0.221   4.041  0.3624 -0.0813 -1.3957
 4600SOL    HW214700   2.628   0.157   3.897  0.2293 -0.6178 -1.1163
 4601SOL     OW14701   4.911   4.194   5.620 -0.5587  0.3540 -0.0573
 4601SOL    HW114702   4.826   4.225   5.662 -0.5420  0.5310 -0.1540
 4601SOL    HW214703   4.893   4.166   5.526 -0.4977  0.4471 -0.0960
 4602SOL     OW14704   6.925   3.812   3.016 -0.3593  0.4162 -0.1354
 4602SOL    HW114705   6.993   3.807   2.942  0.5651  0.1482  0.7090
 4602SOL    HW214706   6.844   3.859   2.983 -0.1990 -0.2044 -1.4998
 4603SOL     OW14707   4.676   5.514   3.717 -0.1394 -0.2989  0.1226
 4603SOL    HW114708   4.580   5.543   3.719  0.2142  0.8878  0.4604
 4603SOL    HW214709   4.718   5.531   3.806 -0.3439 -3.4845  0.9358
 4604SOL     OW14710   0.810   5.440   2.191 -0.8360  0.3772 -0.1521
 4604SOL    HW114711   0.783   5.394   2.106 -0.6215 -0.1075  0.0435
 4604SOL    HW214712   0.865   5.521   2.168 -0.4664  0.0423 -0.4640
 4605SOL     OW14713   2.505   5.645   1.938  0.0256  0.0788 -0.2309
 4605SOL    HW114714   2.526   5.573   2.004 -1.9340 -1.5066 -1.2315
 4605SOL    HW214715   2.452   5.717   1.982 -2.5076 -1.6365 -0.2407
 4606SOL     OW14716   6.246   0.864   0.922  0.0992  0.1349 -0.1281
 4606SOL    HW114717   6.235   0.798   0.847  3.7020  0.0264 -0.7805
 4606SOL    HW214718   6.292   0.819   0.999 -0.6130  1.0505  0.8480
 4607SOL     OW14719   6.466   5.156   2.787  0.6899  0.3184  0.5229
 4607SOL    HW114720   6.489   5.070   2.741 -0.0678  1.0987 -1.4099
 4607SOL    HW214721   6.475   5.232   2.723  1.6372  1.7586  2.2692
 4608SOL     OW14722   5.543   3.549   2.742 -0.8197 -0.1918  0.0714
 4608SOL    HW114723   5.488   3.547   2.826 -0.6295  0.3991  0.2116
 4608SOL    HW214724   5.535   3.638   2.699  0.7990  0.2617  0.6134
 4609SOL     OW14725   1.458   3.922   2.561  0.1786  0.5850  0.1180
 4609SOL    HW114726   1.375   3.961   2.520  0.8400  0.9896 -0.8763
 4609SOL    HW214727   1.506   3.867   2.492  0.9281  0.6613  0.5748
 4610SOL     OW14728   1.646   0.444   0.190 -0.4934 -0.0451 -0.1841
 4610SOL    HW114729   1.695   0.401   0.266 -0.3016 -0.8958 -0.7719
 4610SOL    HW214730   1.578   0.380   0.154 -1.4278  0.8014  0.0452
 4611SOL     OW14731   1.862   2.771   5.411  0.3433  0.4846  0.1183
 4611SOL    HW114732   1.823   2.794   5.322 -1.8680  1.1866  1.1812
 4611SOL    HW214733   1.932   2.837   5.436 -0.6841  1.7057 -0.1170
 4612SOL     OW14734   0.204   2.830   1.102  0.1468 -0.0852 -0.2324
 4612SOL    HW114735   0.186   2.878   1.017 -1.1223  0.2254  0.1936
 4612SOL    HW214736   0.245   2.893   1.168 -1.5893  0.5001  0.3539
 4613SOL     OW14737   6.687   3.688   4.377  0.5562 -0.2811  0.5271
 4613SOL    HW114738   6.686   3.776   4.424  0.8412  0.0394 -0.0484
 4613SOL    HW214739   6.775   3.677   4.330  1.3321 -1.7599  2.2265
 4614SOL     OW14740   1.753   4.850   4.150  0.3052  0.0294  0.1389
 4614SOL    HW114741   1.810   4.809   4.221 -1.8572  1.8431  3.1717
 4614SOL    HW214742   1.777   4.946   4.138 -0.9467  0.3771  0.2338
 4615SOL     OW14743   4.305   3.125   1.770 -0.5223  0.4043  0.1889
 4615SOL    HW114744   4.385   3.075   1.801 -0.2780  1.0930  0.6983
 4615SOL    HW214745   4.335   3.203   1.714 -0.7799  1.2011  1.1411
 4616SOL     OW14746   4.432   2.422   3.134  0.3264  0.0206  0.2786
 4616SOL    HW114747   4.367   2.349   3.155 -0.2890  0.3688 -0.3559
 4616SOL    HW214748   4.445   2.479   3.215  1.4784 -1.2797  1.0330
 4617SOL     OW14749   0.714   0.153   2.933 -0.4741  0.0156 -0.7040
 4617SOL    HW114750   0.679   0.092   2.862 -0.5019  1.5475 -2.0630
 4617SOL    HW214751   0.798   0.196   2.900  0.4649 -0.5286  0.9017
 4618SOL     OW14752   0.447   6.040   0.651 -0.0126  0.0133  0.5170
 4618SOL    HW114753   0.356   6.000   0.645  0.9948 -2.5047  0.5129
 4618SOL    HW214754   0.488   6.016   0.740  0.9591  0.3291  0.1711
 4619SOL     OW14755   4.484   4.968   4.316  0.4592  0.0046 -0.4691
 4619SOL    HW114756   4.574   4.982   4.358  1.3407  0.3179 -2.3610
 4619SOL    HW214757   4.477   4.874   4.284 -0.8747 -0.7410  1.7611
 4620SOL     OW14758   6.873   4.459   2.362  0.3117 -0.5171 -0.8482
 4620SOL    HW114759   6.962   4.481   2.403  0.9850 -2.7716 -0.9734
 4620SOL    HW214760   6.804   4.455   2.435  0.1925  1.5915 -0.7941
 4621SOL     OW14761   5.126   4.651   1.236 -0.1765  0.0335 -0.0200
 4621SOL    HW114762   5.084   4.586   1.300 -0.6552  0.7911  0.4442
 4621SOL    HW214763   5.153   4.602   1.153  0.6783 -1.0045  0.8450
 4622SOL     OW14764   2.564   6.182   0.220 -0.0369 -0.0469 -0.4686
 4622SOL    HW114765   2.579   6.103   0.280  2.7717 -0.0080 -0.9708
 4622SOL    HW214766   2.507   6.155   0.143 -0.1741 -1.2414  0.0348
 4623SOL     OW14767   1.779   4.149   3.968  0.0583 -0.5388  0.5657
 4623SOL    HW114768   1.798   4.064   4.017  3.4534 -0.1902  0.1117
 4623SOL    HW214769   1.801   4.137   3.871  0.1001  0.7171  0.4074
 4624SOL     OW14770   2.127   1.590   5.093  0.0794  0.8517 -0.1941
 4624SOL    HW114771   2.034   1.593   5.132  0.5425 -0.1490  1.0642
 4624SOL    HW214772   2.133   1.654   5.017 -1.1855  2.1323  0.7242
 4625SOL     OW14773   2.036   1.106   2.704  0.4632  0.2613  0.3870
 4625SOL    HW114774   2.112   1.121   2.767  2.3796 -2.0066 -1.2249
 4625SOL    HW214775   2.062   1.138   2.613 -1.1002  0.7460  0.0813
 4626SOL     OW14776   4.574   6.085   2.142  0.1328  0.3738 -0.0195
 4626SOL    HW114777   4.481   6.052   2.126 -0.1002  1.0861 -0.1542
 4626SOL    HW214778   4.578   6.132   2.231  0.2400  0.7875 -0.2407
 4627SOL     OW14779   0.869   5.735   4.387  0.3691  0.2961  0.3730
 4627SOL    HW114780   0.780   5.778   4.403  0.5551  0.8834 -0.1360
 4627SOL    HW214781   0.884   5.663   4.456 -0.6366 -0.0408  0.2565
 4628SOL     OW14782   6.040   1.469   2.083 -0.2639 -0.1646  0.0415
 4628SOL    HW114783   6.131   1.454   2.042  0.0789  0.0412  0.7198
 4628SOL    HW214784   5.973   1.413   2.034  0.3152 -0.7381 -0.1181
 4629SOL     OW14785   5.078   0.672   6.151  0.4532 -0.0743  0.0693
 4629SOL    HW114786   5.084   0.765   6.187  0.2815 -0.2763  0.6376
 4629SOL    HW214787   5.160   0.651   6.099  0.4163  0.4548 -0.2144
 4630SOL     OW14788   6.125   0.727   1.310 -0.3829  0.0746 -0.0620
 4630SOL    HW114789   6.122   0.658   1.239  2.0824  2.0900 -2.3597
 4630SOL    HW214790   6.045   0.786   1.303 -0.2122  0.1968 -1.1766
 4631SOL     OW14791   0.048   0.739   5.716  0.5796  0.0824 -0.0866
 4631SOL    HW114792  -0.037   0.778   5.753 -0.0698 -1.2640 -0.1060
 4631SOL    HW214793   0.036   0.641   5.702  1.8875  0.0121 -0.8502
 4632SOL     OW14794   5.531   3.642   3.375 -0.6104 -0.4283 -0.0999
 4632SOL    HW114795   5.608   3.647   3.440 -0.1313 -1.1099 -0.6037
 4632SOL    HW214796   5.469   3.718   3.392 -0.3398 -0.4326  0.9718
 4633SOL     OW14797   0.849   3.789   6.558  0.3736 -0.3501  0.2401
 4633SOL    HW114798   0.863   3.842   6.474  0.8144 -0.4257  0.2644
 4633SOL    HW214799   0.804   3.703   6.536  3.1985 -1.7835 -0.3844
 4634SOL     OW14800   4.012   3.134   4.748  0.8982  0.1146  0.4665
 4634SOL    HW114801   4.056   3.189   4.678  1.2988  1.7092  1.9272
 4634SOL    HW214802   4.072   3.058   4.773  0.5265 -0.8116 -1.2342
 4635SOL     OW14803   1.445   2.648   0.948  0.6388 -0.2465 -0.0325
 4635SOL    HW114804   1.387   2.708   0.893  0.5093 -0.5680 -0.2525
 4635SOL    HW214805   1.531   2.631   0.899  0.8994  0.1916  0.2721
 4636SOL     OW14806   5.160   3.042   4.816  0.3190  0.6649 -0.0947
 4636SOL    HW114807   5.135   2.988   4.896  2.0563 -0.4585 -0.2674
 4636SOL    HW214808   5.087   3.036   4.748 -0.0981 -0.3727  0.4203
 4637SOL     OW14809   5.566   3.936   2.401 -0.3628 -0.4316 -0.0442
 4637SOL    HW114810   5.645   3.993   2.378 -0.6292 -0.0791 -0.0770
 4637SOL    HW214811   5.482   3.989   2.394 -0.4586 -0.2614  1.8905
 4638SOL     OW14812   1.529   6.578   2.836 -0.3406 -0.3825 -0.2712
 4638SOL    HW114813   1.624   6.605   2.825 -0.2180 -0.4634  0.5165
 4638SOL    HW214814   1.522   6.479   2.844 -0.6996 -0.5561 -2.2264
 4639SOL     OW14815   1.512   6.551   4.138  1.0869  0.1763 -0.6288
 4639SOL    HW114816   1.533   6.628   4.079  1.8676 -0.0753 -0.6858
 4639SOL    HW214817   1.517   6.466   4.085  0.3691  0.0689 -0.5350
 4640SOL     OW14818   4.081   2.216   2.260 -0.0565 -0.2661 -0.0534
 4640SOL    HW114819   4.051   2.247   2.170  2.5393  0.1787 -0.8567
 4640SOL    HW214820   4.119   2.293   2.311 -0.4957 -0.7294  1.0120
 4641SOL     OW14821   0.754   4.875   1.315 -0.2960 -0.1015  0.5879
 4641SOL    HW114822   0.755   4.870   1.215  1.0912  3.7201  0.2294
 4641SOL    HW214823   0.812   4.804   1.353  0.6886 -0.4496 -1.4397
 4642SOL     OW14824   2.594   2.292   4.418  0.1114  0.3144  0.4457
 4642SOL    HW114825   2.636   2.285   4.328  0.9266 -0.6882  0.8926
 4642SOL    HW214826   2.662   2.324   4.484 -0.7768  2.2114  0.5173
 4643SOL     OW14827   3.537   2.855   3.908 -0.2855 -0.5332 -0.6879
 4643SOL    HW114828   3.538   2.755   3.918  0.1809 -0.4850 -0.1609
 4643SOL    HW214829   3.564   2.897   3.995 -1.3759  0.0783 -0.6288
 4644SOL     OW14830   5.793   4.884   5.699  0.5554 -0.0239 -0.3438
 4644SOL    HW114831   5.853   4.939   5.642  0.8307 -1.0279 -1.0461
 4644SOL    HW214832   5.821   4.788   5.695 -0.1179 -0.2754  0.5858
 4645SOL     OW14833   4.939   5.829   1.668 -0.0843 -0.5218 -0.3097
 4645SOL    HW114834   4.926   5.742   1.622 -0.4865 -1.0723  0.7919
 4645SOL    HW214835   4.882   5.899   1.625 -2.6363 -1.6379  1.0011
 4646SOL     OW14836   1.942   0.887   4.980 -0.9167 -0.2074 -0.2799
 4646SOL    HW114837   1.999   0.928   4.909 -1.9475  1.4300 -0.2157
 4646SOL    HW214838   1.898   0.805   4.944 -1.9633  0.9637 -1.8279
 4647SOL     OW14839   5.897   0.572   2.711  0.3215  1.2848  0.3251
 4647SOL    HW114840   5.916   0.496   2.773  0.6697  0.7673 -0.3880
 4647SOL    HW214841   5.892   0.537   2.617  1.9961  2.3518 -0.2075
 4648SOL     OW14842   6.090   1.202   4.656 -0.7060 -0.3201  0.3240
 4648SOL    HW114843   6.105   1.104   4.644 -0.9001 -0.3402  0.2360
 4648SOL    HW214844   6.084   1.247   4.567 -1.9711 -0.4452  0.3213
 4649SOL     OW14845   5.290   1.728   2.574  0.1132  0.4354 -0.0800
 4649SOL    HW114846   5.241   1.745   2.489  0.4884  0.2650 -0.3346
 4649SOL    HW214847   5.383   1.697   2.554  0.3014  0.6701  0.3931
 4650SOL     OW14848   3.001   1.504   1.908  0.1878  0.1150  0.5138
 4650SOL    HW114849   2.989   1.600   1.881 -0.5279 -0.5997 -1.9077
 4650SOL    HW214850   3.097   1.488   1.931  0.2842  1.4294  1.1285
 4651SOL     OW14851   0.611   4.947   0.041 -0.2206  0.1436  0.1399
 4651SOL    HW114852   0.679   4.932   0.114  0.1153  2.1427  0.2986
 4651SOL    HW214853   0.589   5.045   0.036  1.1286  0.4056 -3.6434
 4652SOL     OW14854   2.802   0.835   4.097  0.0498  0.3035 -0.2114
 4652SOL    HW114855   2.804   0.784   4.012 -0.1507 -1.5678  0.8501
 4652SOL    HW214856   2.882   0.812   4.152  0.1870  1.4967  0.1319
 4653SOL     OW14857   5.215   1.188   2.718 -0.1684  0.3267  0.1558
 4653SOL    HW114858   5.216   1.280   2.679 -0.8126  0.7395  1.0686
 4653SOL    HW214859   5.123   1.166   2.750  0.3590  0.0544  1.5447
 4654SOL     OW14860   2.958   3.207   5.051  0.5468 -0.1791 -0.1792
 4654SOL    HW114861   2.995   3.148   4.980  0.4913 -1.2279  0.6466
 4654SOL    HW214862   3.028   3.225   5.120  0.5303  0.6429 -0.3638
 4655SOL     OW14863   3.752   6.540   6.828 -0.0659  0.1600 -0.0118
 4655SOL    HW114864   3.845   6.561   6.797 -0.8483 -0.2987 -2.9661
 4655SOL    HW214865   3.692   6.617   6.808 -0.5664 -0.0543  0.6654
 4656SOL     OW14866   1.316   4.924   5.346  0.0059  0.0755 -0.3865
 4656SOL    HW114867   1.394   4.889   5.294 -0.9552 -0.5814 -1.4100
 4656SOL    HW214868   1.321   5.024   5.348  2.4560  0.0215  2.0857
 4657SOL     OW14869   0.225   2.038   3.918  0.4223  0.3521 -0.0169
 4657SOL    HW114870   0.310   1.999   3.953  0.3664  1.4411  1.3717
 4657SOL    HW214871   0.215   2.132   3.948 -2.1384 -0.2650  1.4008
 4658SOL     OW14872   2.004   3.147   2.488 -0.5111  0.6292  0.1400
 4658SOL    HW114873   2.003   3.158   2.388 -1.7646  1.5857  0.2320
 4658SOL    HW214874   1.925   3.091   2.515  0.5152 -0.6798  0.5082
 4659SOL     OW14875   0.653   4.064   0.961 -0.3114 -0.3168  0.1952
 4659SOL    HW114876   0.654   3.989   0.895  0.8783  0.5840 -0.8676
 4659SOL    HW214877   0.666   4.151   0.912  2.5366  0.2617  1.7590
 4660SOL     OW14878   0.538   4.274   1.202 -0.5464  0.1337 -0.1151
 4660SOL    HW114879   0.492   4.217   1.134  0.5250 -0.8826 -0.0060
 4660SOL    HW214880   0.633   4.290   1.175  0.2187 -1.1782  1.6159
 4661SOL     OW14881   4.360   0.807   6.725  0.5738  0.2382  0.2498
 4661SOL    HW114882   4.346   0.816   6.823 -1.8649  2.2355 -0.2022
 4661SOL    HW214883   4.398   0.716   6.705 -0.1014 -0.7027  2.8929
 4662SOL     OW14884   1.585   4.336   1.843 -0.1127  0.8392  0.1070
 4662SOL    HW114885   1.556   4.401   1.914 -0.7114 -2.3022  3.0044
 4662SOL    HW214886   1.626   4.386   1.767 -0.8881  4.5685  1.8954
 4663SOL     OW14887   4.219   2.862   1.417 -0.2957  0.1325 -0.3994
 4663SOL    HW114888   4.306   2.854   1.466  0.4863  1.7687 -1.4582
 4663SOL    HW214889   4.148   2.896   1.479  0.3860  0.9857 -0.0738
 4664SOL     OW14890   6.049   3.684   6.805 -0.2979 -0.0264  0.3799
 4664SOL    HW114891   6.007   3.713   6.719  1.5767 -0.3909 -0.7143
 4664SOL    HW214892   6.030   3.588   6.821  2.5708 -1.0892 -1.7712
 4665SOL     OW14893   6.272   4.403   5.028 -0.2635 -0.1482 -0.0042
 4665SOL    HW114894   6.328   4.401   4.945 -0.4204 -0.2914 -0.1065
 4665SOL    HW214895   6.324   4.448   5.102  0.7785 -2.0720  0.4949
 4666SOL     OW14896   2.300   6.152   0.062 -0.4747  0.0739 -0.0692
 4666SOL    HW114897   2.232   6.139  -0.009 -1.0844  0.9239  0.3362
 4666SOL    HW214898   2.257   6.192   0.143  0.6471  1.4115 -0.0931
 4667SOL     OW14899   2.151   6.709   5.569 -0.3169  0.2715  0.3013
 4667SOL    HW114900   2.194   6.620   5.580  0.4543  0.1482 -2.8710
 4667SOL    HW214901   2.212   6.770   5.518 -1.8147  1.8470  0.2776
 4668SOL     OW14902   3.562   3.032   1.455 -0.2914 -0.5322 -0.6076
 4668SOL    HW114903   3.500   3.110   1.444 -0.6776 -0.7674 -0.1162
 4668SOL    HW214904   3.650   3.054   1.413 -0.0011  0.6493  0.5488
 4669SOL     OW14905   6.166   6.107   0.598  0.1260  0.0568  0.2969
 4669SOL    HW114906   6.222   6.025   0.601 -0.6215 -0.4373  1.9052
 4669SOL    HW214907   6.220   6.186   0.628  0.5135 -0.0517 -0.1098
 4670SOL     OW14908   6.083   4.884   5.039 -0.2403 -0.8365  0.2021
 4670SOL    HW114909   6.013   4.820   5.010  0.8018 -2.3087  0.7946
 4670SOL    HW214910   6.040   4.969   5.072 -1.6203 -1.0535 -0.9526
 4671SOL     OW14911   3.765   5.031   6.672  0.1461 -0.3967  0.1972
 4671SOL    HW114912   3.797   4.943   6.708 -0.3949 -1.1383 -1.0758
 4671SOL    HW214913   3.770   5.030   6.572 -0.7839  0.6698  0.1253
 4672SOL     OW14914   3.999   6.666   6.802  0.5744  0.6099 -1.2753
 4672SOL    HW114915   4.043   6.746   6.762  1.1864  1.6998  1.3437
 4672SOL    HW214916   4.053   6.633   6.880 -1.5708  0.0029  0.0679
 4673SOL     OW14917   2.829   1.041   0.362 -0.0583  0.6868  0.4934
 4673SOL    HW114918   2.844   0.942   0.356 -1.7264  0.2265  2.5544
 4673SOL    HW214919   2.833   1.081   0.270 -0.1498 -1.4110 -0.4907
 4674SOL     OW14920   0.241   5.914   1.331 -0.4980 -0.1900  0.0553
 4674SOL    HW114921   0.162   5.906   1.270 -0.1713 -2.8696 -0.1327
 4674SOL    HW214922   0.275   5.823   1.353  1.8635  0.8630  1.0591
 4675SOL     OW14923   3.874   2.070   1.599 -1.2023  0.3353 -0.0123
 4675SOL    HW114924   3.922   2.112   1.675 -1.1724 -0.8768  0.6604
 4675SOL    HW214925   3.812   2.136   1.557  1.3749  2.1253 -1.2470
 4676SOL     OW14926   2.667   6.991   4.635 -0.7636 -0.2276  0.3333
 4676SOL    HW114927   2.596   7.061   4.640 -1.7323 -1.2259  0.9337
 4676SOL    HW214928   2.629   6.907   4.597  0.2415 -0.6136  0.1425
 4677SOL     OW14929   3.704   0.760   3.639  0.0414 -0.1410  0.1944
 4677SOL    HW114930   3.793   0.790   3.604 -0.4724 -0.2287 -1.2734
 4677SOL    HW214931   3.704   0.764   3.739  2.0982 -1.2678  0.2921
 4678SOL     OW14932   6.941   3.082   3.844  0.0211  0.2325 -0.1310
 4678SOL    HW114933   6.914   3.149   3.913  0.3109  0.6017 -0.3707
 4678SOL    HW214934   7.041   3.082   3.833 -0.0300  0.2808 -0.6478
 4679SOL     OW14935   0.565   1.863   0.587  0.4299 -0.2895  0.1519
 4679SOL    HW114936   0.649   1.811   0.605  0.2762 -0.2987  0.8704
 4679SOL    HW214937   0.588   1.947   0.537  0.7479 -0.7519 -0.4953
 4680SOL     OW14938   1.059   2.405   3.793 -0.2542  0.2100 -0.2883
 4680SOL    HW114939   1.006   2.321   3.804 -0.1487  0.3108  1.1793
 4680SOL    HW214940   1.109   2.402   3.706 -1.4902 -0.5260 -1.0160
 4681SOL     OW14941   1.398   2.013   1.397  0.1078 -0.1916  0.0809
 4681SOL    HW114942   1.494   2.023   1.423  0.2859  0.2535 -0.7076
 4681SOL    HW214943   1.368   1.920   1.416  1.1014 -0.7406 -0.9474
 4682SOL     OW14944   6.890   1.933   0.932  0.1231  0.1530  0.4158
 4682SOL    HW114945   6.811   1.984   0.897 -2.6696 -1.5360  3.6651
 4682SOL    HW214946   6.936   1.987   1.003  0.4542  0.1894  0.1770
 4683SOL     OW14947   0.113   0.671   3.413  0.3544  0.2774 -0.6210
 4683SOL    HW114948   0.181   0.734   3.452  0.8710 -0.9990  0.6087
 4683SOL    HW214949   0.024   0.686   3.458 -0.1568  1.7261 -2.0072
 4684SOL     OW14950   0.260   4.227   3.497  0.5493  0.1455 -0.2728
 4684SOL    HW114951   0.241   4.325   3.505  0.2410  0.0576  0.1207
 4684SOL    HW214952   0.275   4.189   3.588 -0.0304 -0.3076 -0.3616
 4685SOL     OW14953   0.912   6.650   5.852 -0.5370 -0.0072  0.1622
 4685SOL    HW114954   0.912   6.631   5.950 -2.0529  1.5990  0.5232
 4685SOL    HW214955   0.891   6.747   5.836 -0.6425 -0.2972 -1.7539
 4686SOL     OW14956   1.157   6.216   5.737  0.0253 -0.4842  0.3100
 4686SOL    HW114957   1.189   6.189   5.646 -0.0909  0.0429  0.1099
 4686SOL    HW214958   1.136   6.314   5.738  2.5118  0.1255  1.5918
 4687SOL     OW14959   1.087   2.901   3.054  0.0848  0.6543  0.5258
 4687SOL    HW114960   1.023   2.918   3.129 -2.1236 -0.4736 -0.9999
 4687SOL    HW214961   1.051   2.941   2.970  1.8045  0.6511 -0.2523
 4688SOL     OW14962   2.090   3.493   2.272  0.4153  0.3746  0.0573
 4688SOL    HW114963   2.156   3.492   2.197  0.0205 -3.0448 -0.3779
 4688SOL    HW214964   1.997   3.491   2.234  0.1963 -0.4073  0.6106
 4689SOL     OW14965   0.800   4.772   5.215 -0.0415 -0.2818 -0.0013
 4689SOL    HW114966   0.821   4.751   5.120 -0.6346  0.1552 -0.2390
 4689SOL    HW214967   0.883   4.797   5.263 -0.0617  2.0999 -1.0818
 4690SOL     OW14968   2.643   1.602   2.532 -0.7240  0.8959 -0.1722
 4690SOL    HW114969   2.628   1.682   2.474 -1.6109  0.2858 -0.8096
 4690SOL    HW214970   2.559   1.578   2.580 -1.5244 -1.6319 -2.5807
 4691SOL     OW14971   3.821   4.851   4.106 -0.1914 -0.4119  0.0447
 4691SOL    HW114972   3.730   4.810   4.099 -0.5899  0.2398  1.2324
 4691SOL    HW214973   3.815   4.939   4.153  0.8314  0.4383 -1.3335
 4692SOL     OW14974   3.536   6.955   3.124  0.7072  0.3795 -0.4025
 4692SOL    HW114975   3.573   7.034   3.075  1.1155 -0.0431 -0.7722
 4692SOL    HW214976   3.488   6.987   3.206  1.2685  0.9799 -0.2998
 4693SOL     OW14977   3.432   5.456   4.537 -0.3101  0.0956 -0.0468
 4693SOL    HW114978   3.439   5.513   4.619  0.4694  1.8281 -1.2595
 4693SOL    HW214979   3.397   5.365   4.563  0.5217  0.3560  2.2797
 4694SOL     OW14980   6.652   2.560   3.304 -0.3619  0.2882 -0.2004
 4694SOL    HW114981   6.588   2.549   3.227  1.2687  1.4178 -1.7987
 4694SOL    HW214982   6.745   2.546   3.272  0.3980  1.1697  1.5067
 4695SOL     OW14983   3.647   4.947   3.462 -0.0703 -1.0144 -0.1982
 4695SOL    HW114984   3.735   4.927   3.420  1.3265 -0.0623  2.1243
 4695SOL    HW214985   3.657   4.954   3.561 -2.5014  0.5073  0.0318
 4696SOL     OW14986   6.754   6.657   6.588 -0.0375  0.5390  0.5139
 4696SOL    HW114987   6.693   6.671   6.510 -1.1848 -1.6756  0.9410
 4696SOL    HW214988   6.707   6.604   6.658  1.7798  0.4105  1.6944
 4697SOL     OW14989   4.372   1.541   5.912 -0.1352 -0.0485  0.1719
 4697SOL    HW114990   4.402   1.633   5.936  1.4479  1.2506 -5.4296
 4697SOL    HW214991   4.448   1.477   5.925 -0.9452 -0.5509  3.1475
 4698SOL     OW14992   3.403   6.241   6.343  0.3158  0.6108  0.0450
 4698SOL    HW114993   3.306   6.226   6.358  0.6235 -0.0928  1.4977
 4698SOL    HW214994   3.453   6.156   6.360  1.2726  1.1927  0.2056
 4699SOL     OW14995   0.342   1.281   4.826  0.3608 -0.3056  0.0187
 4699SOL    HW114996   0.373   1.187   4.838 -0.4079 -0.6569 -0.7217
 4699SOL    HW214997   0.422   1.341   4.818  0.8534 -0.8845  0.5126
 4700SOL     OW14998   3.569   1.679   1.710 -0.1860 -0.0568 -0.6540
 4700SOL    HW114999   3.646   1.742   1.710  0.6578 -1.0448 -1.4719
 4700SOL    HW215000   3.503   1.707   1.640  0.4471 -0.3766 -1.3908
 4701SOL     OW15001   2.035   6.679   3.607 -0.0400  0.4869  0.2586
 4701SOL    HW115002   2.057   6.624   3.527  0.9508  1.0127  0.1527
 4701SOL    HW215003   2.120   6.712   3.649 -0.5810  1.0058  0.9698
 4702SOL     OW15004   6.418   0.704   6.857  0.1534 -0.4983 -0.2907
 4702SOL    HW115005   6.467   0.674   6.775  1.6214  1.8907 -0.3798
 4702SOL    HW215006   6.478   0.762   6.912 -1.2283 -1.0105  1.8515
 4703SOL     OW15007   1.597   0.561   5.009  0.3113 -0.2294  0.4606
 4703SOL    HW115008   1.510   0.526   4.974  0.1675  0.1319  0.4511
 4703SOL    HW215009   1.629   0.636   4.950 -0.0121  0.4951  1.1779
 4704SOL     OW15010   5.653   6.434   1.768  0.5579  0.5382  0.2673
 4704SOL    HW115011   5.700   6.499   1.828  1.4339  0.2026 -0.0278
 4704SOL    HW215012   5.614   6.482   1.690  0.7943  0.7776  0.2946
 4705SOL     OW15013   6.281   1.197   3.246 -0.4844 -0.3345 -0.3673
 4705SOL    HW115014   6.379   1.198   3.270 -0.4257 -0.3324 -0.6063
 4705SOL    HW215015   6.254   1.103   3.223 -0.5163 -0.3177 -0.3977
 4706SOL     OW15016   0.090   3.793   2.839 -0.1062  0.1797 -0.4045
 4706SOL    HW115017   0.050   3.803   2.748 -0.4471 -0.2038 -0.2994
 4706SOL    HW215018   0.159   3.864   2.853 -2.4191  2.4311  0.3124
 4707SOL     OW15019   1.665   6.490   0.420  0.2988 -0.1887 -0.3202
 4707SOL    HW115020   1.743   6.504   0.359  0.4368 -1.6871 -0.5436
 4707SOL    HW215021   1.697   6.477   0.514  0.2925 -0.2955 -0.3318
 4708SOL     OW15022   0.662   3.889   6.758 -0.4687 -0.0054  0.1413
 4708SOL    HW115023   0.564   3.871   6.753 -0.1995 -1.3364 -1.0518
 4708SOL    HW215024   0.709   3.839   6.685  1.2171 -0.2327  1.3077
 4709SOL     OW15025   3.715   6.290   0.694  0.6091  0.2933  0.2376
 4709SOL    HW115026   3.747   6.362   0.756  0.2308  0.1806  0.5684
 4709SOL    HW215027   3.624   6.315   0.659  0.6804  0.1990 -0.0149
 4710SOL     OW15028   6.317   5.032   6.390  0.1539 -0.0434  0.6519
 4710SOL    HW115029   6.292   4.946   6.436  2.3792 -1.5494 -0.7446
 4710SOL    HW215030   6.265   5.041   6.305 -1.3545  0.9412  1.6321
 4711SOL     OW15031   3.431   5.808   0.332  0.1578 -0.0933  0.2395
 4711SOL    HW115032   3.461   5.732   0.389  2.8447  0.2078 -0.6428
 4711SOL    HW215033   3.393   5.773   0.247  1.7742 -0.4871 -0.3444
 4712SOL     OW15034   6.478   5.421   0.360 -0.4738  0.2128  0.3918
 4712SOL    HW115035   6.447   5.335   0.401  0.8415  0.1568  1.3291
 4712SOL    HW215036   6.469   5.416   0.261 -0.9545 -0.7870  0.4794
 4713SOL     OW15037   6.770   2.787   5.061 -0.5164  0.8027 -0.8325
 4713SOL    HW115038   6.751   2.851   5.135  1.4757  0.4214  0.0672
 4713SOL    HW215039   6.720   2.702   5.075 -0.8572  1.0682 -0.4339
 4714SOL     OW15040   0.817   2.375   0.884 -0.4931 -0.0215 -0.4762
 4714SOL    HW115041   0.869   2.311   0.828  2.0436  1.2933  0.2080
 4714SOL    HW215042   0.772   2.324   0.958  1.7281 -1.0995  0.2699
 4715SOL     OW15043   2.892   6.003   3.166 -0.2021 -0.0799  0.0235
 4715SOL    HW115044   2.850   5.924   3.210 -0.7812  0.8567  1.2252
 4715SOL    HW215045   2.985   6.016   3.202  0.2186 -0.6981 -0.8081
 4716SOL     OW15046   2.433   6.789   1.016 -0.2839 -0.2974  0.2915
 4716SOL    HW115047   2.516   6.836   0.984 -0.2424 -1.6384 -1.7747
 4716SOL    HW215048   2.368   6.857   1.051  0.3999  1.1461 -1.1017
 4717SOL     OW15049   1.483   6.634   4.385 -0.4206  0.6566  0.0877
 4717SOL    HW115050   1.518   6.611   4.294  2.7838  2.3721  0.7339
 4717SOL    HW215051   1.540   6.592   4.455 -1.7577  0.8178  1.3259
 4718SOL     OW15052   0.671   4.141   2.639 -0.1640  0.0288  0.3145
 4718SOL    HW115053   0.738   4.076   2.677  1.0591  1.7576  1.2523
 4718SOL    HW215054   0.678   4.140   2.540  0.5270 -0.5783  0.3532
 4719SOL     OW15055   1.384   5.280   0.118  0.3718  0.6701 -0.2806
 4719SOL    HW115056   1.415   5.352   0.057  3.4403  3.0522  3.6083
 4719SOL    HW215057   1.463   5.232   0.157 -1.3027 -0.4974  1.9660
 4720SOL     OW15058   4.389   4.330   6.837 -0.0631  0.0999 -0.9661
 4720SOL    HW115059   4.374   4.428   6.825  0.1774  0.4182  1.0303
 4720SOL    HW215060   4.315   4.279   6.793 -1.7984  1.3046  0.4028
 4721SOL     OW15061   4.150   2.165   0.445 -0.5477  0.3315 -0.2258
 4721SOL    HW115062   4.135   2.099   0.519 -0.0767  0.6062  0.1178
 4721SOL    HW215063   4.211   2.238   0.477 -0.3372  0.4480 -0.8841
 4722SOL     OW15064   0.874   1.178   1.774 -0.8452 -0.1915  0.1797
 4722SOL    HW115065   0.802   1.126   1.728 -0.5981 -0.8950  0.5637
 4722SOL    HW215066   0.926   1.116   1.833  0.5817  0.1567 -0.6927
 4723SOL     OW15067   0.181   1.263   5.982  0.2317  0.6621 -0.5342
 4723SOL    HW115068   0.226   1.345   6.015 -1.3313  1.0427  0.8116
 4723SOL    HW215069   0.098   1.288   5.932 -0.6196 -0.0557  0.4536
 4724SOL     OW15070   6.515   1.902   3.692  0.0904  0.5598  0.2659
 4724SOL    HW115071   6.610   1.925   3.713  0.3262 -0.5631  0.4815
 4724SOL    HW215072   6.511   1.811   3.652 -0.4195  2.1927 -3.8925
 4725SOL     OW15073   5.559   4.788   2.277  0.4122 -1.1489  0.0747
 4725SOL    HW115074   5.536   4.690   2.278 -1.3171 -0.8013 -1.3648
 4725SOL    HW215075   5.575   4.818   2.183 -0.6314  0.2649  0.3119
 4726SOL     OW15076   0.914   3.751   6.980 -0.1262  0.3232  0.1843
 4726SOL    HW115077   0.986   3.740   7.048 -0.6860 -0.0906  0.7231
 4726SOL    HW215078   0.955   3.774   6.891  0.7851 -1.3504  0.1270
 4727SOL     OW15079   6.674   2.239   6.804 -0.1531 -0.6934  0.6733
 4727SOL    HW115080   6.732   2.273   6.878 -0.2431 -1.6223  1.1903
 4727SOL    HW215081   6.727   2.235   6.719  0.0337  0.1075  0.7491
 4728SOL     OW15082   4.035   5.203   1.974  0.9295 -0.0986 -0.0247
 4728SOL    HW115083   3.946   5.250   1.974  1.4335  0.9701 -2.2049
 4728SOL    HW215084   4.058   5.176   2.068 -0.3045  2.3015  1.0757
 4729SOL     OW15085   1.175   4.878   5.021 -0.0086 -0.7005  0.0491
 4729SOL    HW115086   1.093   4.910   5.070  1.1001  0.6265  1.1315
 4729SOL    HW215087   1.156   4.789   4.980 -1.3965 -1.3544  1.9171
 4730SOL     OW15088   1.762   1.304   4.914  0.3348 -0.4121 -0.1082
 4730SOL    HW115089   1.702   1.384   4.922 -0.3278 -0.9285  0.1801
 4730SOL    HW215090   1.791   1.293   4.819  0.5017  0.2176 -0.1342
 4731SOL     OW15091   6.364   0.029   1.796 -0.8677  0.3922 -0.6214
 4731SOL    HW115092   6.388  -0.063   1.828 -0.5502 -0.0907 -2.1412
 4731SOL    HW215093   6.280   0.024   1.742 -1.3544  1.1617  0.0499
 4732SOL     OW15094   2.825   5.016   2.061  0.0075 -0.4184 -0.4889
 4732SOL    HW115095   2.882   4.934   2.071 -1.1078 -1.1252  0.3052
 4732SOL    HW215096   2.746   4.994   2.003  0.0192  0.2759 -0.7689
 4733SOL     OW15097   2.096   3.510   4.440  0.7717  0.6820 -0.2442
 4733SOL    HW115098   2.040   3.568   4.499 -1.4616 -1.3244 -0.2526
 4733SOL    HW215099   2.187   3.499   4.480  0.3666  1.9698  1.1069
 4734SOL     OW15100   1.583   4.800   3.646  0.2183 -0.0179  0.2898
 4734SOL    HW115101   1.683   4.791   3.640  0.1611  0.1199 -1.3019
 4734SOL    HW215102   1.560   4.882   3.699  0.9843  0.7202 -0.4898
 4735SOL     OW15103   2.516   3.764   6.081  0.1657 -0.4909  0.1417
 4735SOL    HW115104   2.586   3.826   6.046 -1.4484  1.3608  0.0003
 4735SOL    HW215105   2.495   3.694   6.011  0.4630  0.1653 -0.6194
 4736SOL     OW15106   4.632   0.551   4.234 -0.1665 -0.3922 -0.3710
 4736SOL    HW115107   4.613   0.462   4.193  1.7184 -0.7533 -0.5390
 4736SOL    HW215108   4.656   0.539   4.331  0.2946 -0.0897 -0.4467
 4737SOL     OW15109   3.137   1.640   6.569  0.0474  0.3486  0.6265
 4737SOL    HW115110   3.191   1.557   6.584  0.1644  0.1096 -0.9363
 4737SOL    HW215111   3.043   1.624   6.599  0.5278  0.3379  2.1839
 4738SOL     OW15112   6.639   3.063   0.482  0.0514 -0.0599  0.5464
 4738SOL    HW115113   6.723   3.103   0.519  0.4033 -0.8122  0.5844
 4738SOL    HW215114   6.661   3.000   0.408 -0.4450 -0.5266  0.7810
 4739SOL     OW15115   4.208   0.297   1.046  0.2954  0.0423  0.1828
 4739SOL    HW115116   4.190   0.203   1.016  0.6823 -0.2596  0.8698
 4739SOL    HW215117   4.233   0.353   0.967 -0.1332 -0.3872 -0.2608
 4740SOL     OW15118   6.334   3.542   1.652  0.1157 -0.5009  0.4409
 4740SOL    HW115119   6.313   3.485   1.572  0.0416 -1.5385  1.1783
 4740SOL    HW215120   6.412   3.503   1.700 -0.6757 -0.6735  1.6284
 4741SOL     OW15121   6.126   0.144   5.437  0.1345  0.0253 -0.1020
 4741SOL    HW115122   6.210   0.124   5.387  0.8245 -1.9359  1.7314
 4741SOL    HW215123   6.073   0.061   5.449 -1.9111  1.1453 -0.8125
 4742SOL     OW15124   1.730   2.278   3.647  0.1659 -0.1651  0.2367
 4742SOL    HW115125   1.801   2.235   3.591 -1.7825  0.2390 -2.7631
 4742SOL    HW215126   1.735   2.377   3.637  1.0666  0.0833  2.5624
 4743SOL     OW15127   0.343   5.468   3.110  0.5955 -0.0099 -0.1548
 4743SOL    HW115128   0.361   5.400   3.039  0.1432 -0.6525  0.3403
 4743SOL    HW215129   0.404   5.451   3.188  0.9248  0.5484 -0.2807
 4744SOL     OW15130   3.957   2.321   6.319 -0.3934 -0.3977  0.3189
 4744SOL    HW115131   3.988   2.242   6.372 -1.0797 -0.1981  1.0309
 4744SOL    HW215132   3.871   2.355   6.357  0.1214  0.9660  0.3102
 4745SOL     OW15133   3.532   1.368   3.524 -0.2995  0.0941  0.1650
 4745SOL    HW115134   3.568   1.386   3.432 -1.0798  0.2381 -0.1187
 4745SOL    HW215135   3.500   1.453   3.564 -3.9981 -0.4850 -1.1740
 4746SOL     OW15136   6.168   0.854   0.094  0.7625  0.0612  0.2360
 4746SOL    HW115137   6.129   0.762   0.099  0.7474  0.1090  1.1012
 4746SOL    HW215138   6.250   0.859   0.151  0.3018  0.8086  0.8536
 4747SOL     OW15139   0.243   3.080   5.976 -0.0373  0.4037  0.0223
 4747SOL    HW115140   0.239   3.062   5.878 -0.5768 -1.3116  0.3161
 4747SOL    HW215141   0.335   3.109   6.002 -0.1183  1.7496 -1.0988
 4748SOL     OW15142   3.096   1.752   4.328 -0.0010 -0.6097 -0.6518
 4748SOL    HW115143   3.115   1.782   4.421 -0.6942 -1.0784 -0.3460
 4748SOL    HW215144   3.153   1.672   4.306 -0.5976 -1.1631 -0.2343
 4749SOL     OW15145   5.564   1.934   4.661 -0.1309  0.1657 -0.0346
 4749SOL    HW115146   5.624   2.015   4.661  1.0236 -0.6635  0.0353
 4749SOL    HW215147   5.478   1.957   4.616  1.5674  0.4518 -3.5312
 4750SOL     OW15148   4.179   6.441   0.041  0.0039  0.3289  0.5531
 4750SOL    HW115149   4.156   6.525   0.091  1.6852  0.7886  0.6117
 4750SOL    HW215150   4.279   6.434   0.033  0.0920 -2.8483  2.6439
 4751SOL     OW15151   5.303   4.481   4.050 -0.0280 -0.3633  0.0020
 4751SOL    HW115152   5.401   4.461   4.051  0.1089  0.2610 -0.2276
 4751SOL    HW215153   5.275   4.513   4.141 -0.0006 -0.4726  0.0483
 4752SOL     OW15154   4.732   2.043   0.242  0.0177 -0.1990 -0.2011
 4752SOL    HW115155   4.667   2.034   0.317  1.7411 -0.2985  1.3635
 4752SOL    HW215156   4.714   2.127   0.190 -2.8283 -1.4363 -1.3849
 4753SOL     OW15157   2.704   4.734   5.799  0.0839 -0.5252 -0.1882
 4753SOL    HW115158   2.793   4.770   5.829  0.2691 -1.2211  0.1206
 4753SOL    HW215159   2.634   4.761   5.864 -0.3413  1.8116 -1.4929
 4754SOL     OW15160   3.352   3.636   4.109 -0.3741 -0.2788 -0.2439
 4754SOL    HW115161   3.345   3.639   4.209 -0.1090  0.2045 -0.2390
 4754SOL    HW215162   3.438   3.677   4.080 -0.1290 -1.0530 -0.6343
 4755SOL     OW15163   5.214   5.771   1.721  0.0240  0.5742 -0.2037
 4755SOL    HW115164   5.116   5.767   1.705 -0.4076  3.0780  1.2141
 4755SOL    HW215165   5.241   5.696   1.782 -1.1217  0.2183 -0.1095
 4756SOL     OW15166   4.399   6.643   3.801 -0.3106  0.5142 -0.4296
 4756SOL    HW115167   4.498   6.657   3.804 -0.1672 -0.3680 -0.7930
 4756SOL    HW215168   4.354   6.731   3.782  0.5028  0.6547 -1.9275
 4757SOL     OW15169   1.153   5.377   1.503 -0.1523 -0.1028  0.5594
 4757SOL    HW115170   1.250   5.371   1.479 -0.1769  2.7529 -0.5651
 4757SOL    HW215171   1.144   5.417   1.595 -0.2260  2.5359 -0.5234
 4758SOL     OW15172   4.036   5.617   6.919  0.3780  0.3640  0.2138
 4758SOL    HW115173   4.124   5.630   6.964  0.3392  0.0031  0.3956
 4758SOL    HW215174   3.972   5.689   6.947 -0.1982 -0.8252  2.0990
 4759SOL     OW15175   2.344   1.485   3.480 -0.2199  0.4555 -0.1581
 4759SOL    HW115176   2.286   1.507   3.559  0.2481 -0.1817  0.3790
 4759SOL    HW215177   2.337   1.558   3.412 -0.8528  0.8803  0.3474
 4760SOL     OW15178   5.592   5.574   1.854  0.0704  0.1501  0.1070
 4760SOL    HW115179   5.671   5.614   1.901 -0.1189  1.4306 -0.6272
 4760SOL    HW215180   5.604   5.581   1.755 -0.8364  0.0941 -0.0156
 4761SOL     OW15181   6.911   2.858   0.395 -0.1131 -0.3270  0.2016
 4761SOL    HW115182   6.904   2.929   0.465 -0.1677 -0.7781  0.6688
 4761SOL    HW215183   7.005   2.850   0.364 -0.3342  0.8499 -0.8278
 4762SOL     OW15184   5.256   3.529   4.010  0.2306 -0.1412 -0.4283
 4762SOL    HW115185   5.194   3.591   3.963  0.1985  1.7144  1.9060
 4762SOL    HW215186   5.209   3.489   4.089  1.5351  0.0903  0.4771
 4763SOL     OW15187   6.966   1.243   3.759 -0.1525  0.0023 -0.3468
 4763SOL    HW115188   6.904   1.184   3.707 -1.2135  0.0579  0.8031
 4763SOL    HW215189   7.029   1.289   3.697 -1.0626 -0.2982 -1.5219
 4764SOL     OW15190   3.086   3.787   4.163 -0.3802 -0.2699 -0.1283
 4764SOL    HW115191   3.161   3.736   4.121 -1.0948  0.6062 -2.6135
 4764SOL    HW215192   3.124   3.857   4.224  0.6928 -1.4642  0.6485
 4765SOL     OW15193   2.604   0.840   5.595 -0.1530  0.2645 -0.3993
 4765SOL    HW115194   2.570   0.934   5.602 -2.6392 -0.4895 -1.2652
 4765SOL    HW215195   2.691   0.840   5.545  0.3332  2.1385  0.3232
 4766SOL     OW15196   5.086   0.074   4.112  0.5570 -0.1843  0.0802
 4766SOL    HW115197   5.047   0.026   4.190  1.0949 -0.9379 -0.1026
 4766SOL    HW215198   5.186   0.067   4.115  0.7583  2.2398  0.8836
 4767SOL     OW15199   5.040   0.417   5.490 -0.3371  0.4589 -0.6549
 4767SOL    HW115200   5.047   0.506   5.444  0.2551 -0.0847 -1.6475
 4767SOL    HW215201   5.101   0.417   5.569  0.7950  0.4453 -1.4979
 4768SOL     OW15202   4.071   3.177   2.594 -0.1081 -0.7229  0.6047
 4768SOL    HW115203   4.031   3.266   2.616 -2.5528 -1.1231 -1.7743
 4768SOL    HW215204   4.171   3.183   2.599 -0.1113  2.6120 -0.9600
 4769SOL     OW15205   6.407   4.161   4.595  0.2833 -0.0780  0.1547
 4769SOL    HW115206   6.455   4.213   4.665 -1.0580 -1.1990  1.9989
 4769SOL    HW215207   6.387   4.069   4.629 -0.5726 -0.6055 -1.6453
 4770SOL     OW15208   2.416   1.443   0.831  0.4013 -0.4282  0.2674
 4770SOL    HW115209   2.340   1.471   0.891 -0.2169 -2.7133  0.6263
 4770SOL    HW215210   2.380   1.411   0.744  1.1808  1.0426 -0.6289
 4771SOL     OW15211   6.599   2.113   1.526 -0.1238  0.0641 -0.1377
 4771SOL    HW115212   6.538   2.034   1.525  2.6342 -2.1949  0.0470
 4771SOL    HW215213   6.658   2.112   1.446  1.5786  0.5502  1.0402
 4772SOL     OW15214   3.038   5.291   3.000  0.2787 -0.2528 -0.5092
 4772SOL    HW115215   2.977   5.325   2.929  0.5906 -1.8430 -1.5802
 4772SOL    HW215216   3.039   5.191   2.998  1.8413 -0.2827  0.4309
 4773SOL     OW15217   5.875   3.613   4.240  0.3943 -0.2238  0.6155
 4773SOL    HW115218   5.853   3.707   4.213  0.3009 -0.4916 -0.2617
 4773SOL    HW215219   5.806   3.579   4.303  0.1207  0.0928  0.4875
 4774SOL     OW15220   4.513   1.750   0.888  0.4411  0.6089  0.4705
 4774SOL    HW115221   4.420   1.761   0.853 -0.1730 -2.6950  0.7367
 4774SOL    HW215222   4.510   1.718   0.982  1.9260  1.5760  0.8877
 4775SOL     OW15223   1.139   5.347   6.185 -0.0766 -0.4270 -0.6292
 4775SOL    HW115224   1.120   5.350   6.283  1.1306 -1.5672 -0.3348
 4775SOL    HW215225   1.191   5.428   6.159  1.0278 -0.9123  0.0137
 4776SOL     OW15226   6.625   4.118   4.063  0.6185  0.2924 -0.7423
 4776SOL    HW115227   6.608   4.191   4.129 -0.4785 -0.6908  0.0928
 4776SOL    HW215228   6.551   4.117   3.995 -1.0156 -1.8350  0.9325
 4777SOL     OW15229   3.621   6.573   4.641  0.1595  0.2926 -0.1247
 4777SOL    HW115230   3.682   6.548   4.566  0.7416 -0.2595  0.5241
 4777SOL    HW215231   3.540   6.619   4.604  0.6305  0.3959 -1.0527
 4778SOL     OW15232   0.425   5.353   2.100 -0.0843  0.5790  0.0247
 4778SOL    HW115233   0.512   5.400   2.087 -0.8705  1.6766 -1.6444
 4778SOL    HW215234   0.402   5.301   2.018  0.0820 -1.6757  1.3216
 4779SOL     OW15235   5.457   3.984   3.866 -0.7993  0.6979 -0.3380
 4779SOL    HW115236   5.430   4.066   3.916  2.1417  1.2411  0.5606
 4779SOL    HW215237   5.461   3.906   3.928 -0.2596  0.6701 -0.3955
 4780SOL     OW15238   4.405   6.525   2.624 -1.0470  0.2381 -0.0300
 4780SOL    HW115239   4.504   6.517   2.623 -1.0145  0.6723 -0.4132
 4780SOL    HW215240   4.368   6.503   2.534 -1.2614  0.5396 -0.0189
 4781SOL     OW15241   1.825   3.423   1.350  0.3047 -0.1806 -0.0698
 4781SOL    HW115242   1.870   3.479   1.281  0.8423 -0.2970  0.1835
 4781SOL    HW215243   1.889   3.355   1.386 -0.5642 -1.5756 -1.0077
 4782SOL     OW15244   6.282   2.466   6.480 -0.0135  0.4604 -0.2314
 4782SOL    HW115245   6.220   2.496   6.553 -0.3895 -1.0727  0.1097
 4782SOL    HW215246   6.355   2.410   6.520  0.7378  0.9947 -0.8328
 4783SOL     OW15247   5.674   1.345   0.943  0.2207 -0.1512 -0.2575
 4783SOL    HW115248   5.677   1.363   0.845 -0.2259 -1.2323 -0.4834
 4783SOL    HW215249   5.596   1.286   0.964  0.6957 -0.4780  0.6517
 4784SOL     OW15250   6.205   7.002   5.976 -0.0460 -0.4790 -0.2065
 4784SOL    HW115251   6.255   6.950   5.906 -0.7686 -1.6711  0.1382
 4784SOL    HW215252   6.174   6.940   6.048 -1.4211  0.3475 -0.0656
 4785SOL     OW15253   6.871   4.430   3.737 -0.2705 -0.7746  0.0621
 4785SOL    HW115254   6.968   4.427   3.716  0.2409 -0.7572  2.1795
 4785SOL    HW215255   6.822   4.364   3.680  0.8746 -0.3718 -1.4292
 4786SOL     OW15256   0.214   0.844   6.171 -0.7706 -0.1181 -0.0978
 4786SOL    HW115257   0.234   0.849   6.074  0.5221 -1.4204  0.0640
 4786SOL    HW215258   0.224   0.935   6.212  1.6282 -0.0426 -0.6757
 4787SOL     OW15259   1.434   3.894   4.769  0.2034  0.2285  0.1553
 4787SOL    HW115260   1.339   3.870   4.784  0.0376  0.4802 -0.4565
 4787SOL    HW215261   1.477   3.919   4.856 -0.2359 -0.0680  0.4563
 4788SOL     OW15262   6.970   0.741   0.398  0.6982 -0.7827  0.1327
 4788SOL    HW115263   6.918   0.813   0.444  2.1575 -1.2328  2.7267
 4788SOL    HW215264   6.928   0.653   0.418  0.6689 -0.8872 -0.3988
 4789SOL     OW15265   1.265   4.431   6.344 -0.0774  0.0305  0.2105
 4789SOL    HW115266   1.314   4.346   6.325 -0.3472 -0.1977  0.4999
 4789SOL    HW215267   1.274   4.493   6.267 -0.9702 -0.7780 -0.5781
 4790SOL     OW15268   0.859   2.099   2.088  0.1809 -0.2284 -0.1348
 4790SOL    HW115269   0.903   2.009   2.093  1.0169  0.1511 -0.4907
 4790SOL    HW215270   0.764   2.092   2.120 -0.2606 -1.5472 -1.6454
 4791SOL     OW15271   5.615   5.084   0.765 -0.1861  0.0096  0.7163
 4791SOL    HW115272   5.641   5.157   0.701 -0.5075 -0.1404  0.4137
 4791SOL    HW215273   5.528   5.044   0.737  0.0925 -0.6421  0.7490
 4792SOL     OW15274   0.449   2.440   1.735 -0.2017 -0.6073 -0.2892
 4792SOL    HW115275   0.431   2.355   1.687  0.2445  0.4235 -2.3858
 4792SOL    HW215276   0.502   2.421   1.818 -1.6414 -2.5109  0.2540
 4793SOL     OW15277   3.379   6.039   0.057  0.5500 -0.5283 -0.3868
 4793SOL    HW115278   3.430   6.121   0.084 -0.7144  0.0896  0.1928
 4793SOL    HW215279   3.282   6.052   0.077 -0.2391 -0.7693 -3.4648
 4794SOL     OW15280   6.735   6.128   2.960  0.1018  0.1249 -0.1860
 4794SOL    HW115281   6.822   6.172   2.982  0.5712 -0.9692  0.2096
 4794SOL    HW215282   6.719   6.133   2.862 -0.1209  1.6230 -0.0995
 4795SOL     OW15283   1.783   5.395   2.580  0.0373 -0.5259  0.5517
 4795SOL    HW115284   1.696   5.433   2.549  0.8045  1.1909  0.4027
 4795SOL    HW215285   1.783   5.389   2.680  0.2906  0.9067  0.6539
 4796SOL     OW15286   3.386   5.011   6.668  0.3383  0.7335 -0.8450
 4796SOL    HW115287   3.359   5.057   6.583  1.7573  1.2384 -1.0538
 4796SOL    HW215288   3.413   4.917   6.648  1.5294  1.1108 -1.1409
 4797SOL     OW15289   0.505   3.611   5.876 -0.0046  0.8367 -0.2504
 4797SOL    HW115290   0.512   3.669   5.795  0.3230  0.6210 -0.3782
 4797SOL    HW215291   0.596   3.578   5.902 -0.1928  0.3478 -0.2017
 4798SOL     OW15292   1.998   4.305   3.507  0.0362 -0.4292 -0.3414
 4798SOL    HW115293   1.977   4.293   3.410  1.9951  0.9000 -0.9824
 4798SOL    HW215294   2.083   4.257   3.529 -0.4569 -0.8329  0.7789
 4799SOL     OW15295   6.619   1.998   2.428 -0.0621 -0.3182 -0.3742
 4799SOL    HW115296   6.653   2.069   2.366 -1.6728 -0.5991 -1.6581
 4799SOL    HW215297   6.652   1.908   2.397 -0.4127 -0.4080 -0.4865
 4800SOL     OW15298   4.417   2.004   1.910 -0.2887  0.1140  0.5278
 4800SOL    HW115299   4.337   1.968   1.862  0.4364  0.8991 -1.3808
 4800SOL    HW215300   4.401   2.001   2.008 -0.8006 -4.2035  0.5223
 4801SOL     OW15301   1.085   1.747   0.312  0.2035 -0.0316 -0.9163
 4801SOL    HW115302   0.987   1.764   0.312  0.4741  2.0741  1.3464
 4801SOL    HW215303   1.132   1.819   0.260  0.6146 -0.6004 -1.3470
 4802SOL     OW15304   2.612   0.642   1.140 -0.3543  0.3887  0.2650
 4802SOL    HW115305   2.652   0.574   1.202  0.4678  0.5341 -0.0917
 4802SOL    HW215306   2.513   0.636   1.145 -0.3007 -0.4731  0.6437
 4803SOL     OW15307   2.410   0.498   2.543  0.5671 -0.2582 -0.4545
 4803SOL    HW115308   2.444   0.478   2.635  1.3401 -0.8776 -0.8577
 4803SOL    HW215309   2.312   0.516   2.546  0.3536 -1.4722  0.3277
 4804SOL     OW15310   6.048   2.357   0.495 -0.7414  0.5224 -0.2879
 4804SOL    HW115311   6.132   2.304   0.507 -1.5473 -1.1694 -1.6526
 4804SOL    HW215312   6.068   2.441   0.446  0.0278 -0.3980 -1.6209
 4805SOL     OW15313   6.537   3.808   0.326 -0.5917  0.0740  0.0327
 4805SOL    HW115314   6.517   3.830   0.422  0.7948 -0.6462  0.5174
 4805SOL    HW215315   6.478   3.734   0.295  0.2132 -1.0038  0.9643
 4806SOL     OW15316   1.288   6.311   5.467  0.0278  0.0638 -0.1795
 4806SOL    HW115317   1.281   6.408   5.490  0.3554 -0.0558  0.4621
 4806SOL    HW215318   1.377   6.276   5.496  0.2680 -0.2288 -1.2243
 4807SOL     OW15319   6.974   4.089   3.670  0.0265 -0.1771 -0.2713
 4807SOL    HW115320   7.047   4.146   3.707  2.3719 -1.0941 -3.0627
 4807SOL    HW215321   6.890   4.106   3.721  1.8345  1.8093  2.3853
 4808SOL     OW15322   4.264   5.737   5.168  0.3675  0.0187 -0.1729
 4808SOL    HW115323   4.223   5.668   5.108 -1.8100 -1.9699  3.2418
 4808SOL    HW215324   4.209   5.820   5.167 -2.8363 -1.8147  2.6073
 4809SOL     OW15325   5.796   2.522   2.707  0.1173  0.0894 -0.9018
 4809SOL    HW115326   5.757   2.449   2.651  0.9209 -0.7636 -0.3725
 4809SOL    HW215327   5.750   2.523   2.796  0.9290 -0.5719 -0.4685
 4810SOL     OW15328   2.877   0.909   3.714  0.6966  0.7923  0.1933
 4810SOL    HW115329   2.823   0.993   3.710  0.7803  0.8036 -1.5439
 4810SOL    HW215330   2.943   0.915   3.789  0.0097  1.8269  0.7398
 4811SOL     OW15331   4.743   6.385   3.681  0.6785 -0.0059  0.3023
 4811SOL    HW115332   4.711   6.480   3.681 -0.1719 -0.2598  1.6961
 4811SOL    HW215333   4.687   6.331   3.619 -0.1988  0.0147  1.0455
 4812SOL     OW15334   0.109   3.898   6.322  0.0029  0.0899  0.3732
 4812SOL    HW115335   0.110   3.874   6.225 -2.3134  1.4847 -0.0636
 4812SOL    HW215336   0.086   3.817   6.376  0.6176 -0.5378 -0.2838
 4813SOL     OW15337   6.745   1.032   0.173  0.5705 -0.0270 -0.4578
 4813SOL    HW115338   6.700   1.117   0.145  0.6988  0.2396  0.1342
 4813SOL    HW215339   6.784   1.043   0.264  1.1083 -0.5272 -0.6168
 4814SOL     OW15340   0.391   2.985   2.087 -0.6797 -0.3120  0.0326
 4814SOL    HW115341   0.417   3.042   2.165  1.3789 -0.8188 -0.2252
 4814SOL    HW215342   0.360   2.896   2.120 -1.1735 -0.0357  0.3202
 4815SOL     OW15343   5.813   4.534   6.431  0.1899  0.3120 -0.7566
 4815SOL    HW115344   5.734   4.596   6.429  1.3483  1.9915  1.4761
 4815SOL    HW215345   5.791   4.453   6.485 -0.3575  0.1910 -1.1483
 4816SOL     OW15346   6.154   3.991   3.854  0.3677  0.1055 -0.0028
 4816SOL    HW115347   6.069   4.012   3.805  0.1781 -1.3002 -0.3311
 4816SOL    HW215348   6.194   3.908   3.816  3.5976  2.3954 -1.9935
 4817SOL     OW15349   1.381   3.477   6.221  0.1813  0.5306 -0.1305
 4817SOL    HW115350   1.370   3.575   6.239 -0.0435  0.3200  0.9442
 4817SOL    HW215351   1.366   3.426   6.306 -0.6977 -0.5066 -0.8839
 4818SOL     OW15352   0.278   4.020   4.082 -0.6989 -0.2265 -0.3255
 4818SOL    HW115353   0.212   3.971   4.138 -0.1533 -1.5050 -0.7548
 4818SOL    HW215354   0.289   3.973   3.994  0.0117  0.5470 -0.6706
 4819SOL     OW15355   4.001   4.461   6.220 -0.4571 -0.0274 -0.0493
 4819SOL    HW115356   4.022   4.367   6.192  0.9642  0.6860 -1.5364
 4819SOL    HW215357   4.067   4.490   6.289  0.2140  0.4463 -0.8726
 4820SOL     OW15358   1.300   5.163   1.948  0.0434  0.3300 -0.0898
 4820SOL    HW115359   1.201   5.165   1.935  0.2547  0.6650 -1.8153
 4820SOL    HW215360   1.334   5.071   1.930  0.2415  0.6083 -1.1769
 4821SOL     OW15361   5.367   3.472   6.016  0.1605  0.0044  0.1904
 4821SOL    HW115362   5.434   3.466   6.091  1.9355 -0.5105 -1.3627
 4821SOL    HW215363   5.415   3.473   5.929 -1.8891 -0.0849 -0.9974
 4822SOL     OW15364   1.392   4.116   3.945 -0.2236  0.0023 -0.5888
 4822SOL    HW115365   1.307   4.168   3.956  0.0101  0.6343 -1.5599
 4822SOL    HW215366   1.470   4.176   3.962  0.0391 -0.2690 -0.8154
 4823SOL     OW15367   1.523   3.019   5.563 -0.3904  0.2387  0.3489
 4823SOL    HW115368   1.599   2.961   5.593  0.4509  1.3138  0.3913
 4823SOL    HW215369   1.560   3.099   5.516 -1.4997  0.9178  0.5973
 4824SOL     OW15370   4.498   4.295   0.968  0.0897 -0.1119  0.4627
 4824SOL    HW115371   4.463   4.359   0.900  0.3683  0.3253  0.7262
 4824SOL    HW215372   4.430   4.224   0.985 -0.2666  0.1747  0.2473
 4825SOL     OW15373   2.915   3.907   4.944 -0.1133 -0.2740 -0.7736
 4825SOL    HW115374   2.869   3.975   4.887 -0.3661  0.6680  0.4944
 4825SOL    HW215375   2.984   3.859   4.890 -0.5075  0.4105 -1.9208
 4826SOL     OW15376   4.876   5.544   2.620  0.2579 -0.0005 -0.2698
 4826SOL    HW115377   4.781   5.567   2.599  0.5272  1.1248 -0.2766
 4826SOL    HW215378   4.878   5.480   2.697 -0.5107 -0.2399 -0.4378
 4827SOL     OW15379   3.594   0.942   2.850 -0.1407 -0.2868  0.3039
 4827SOL    HW115380   3.532   0.866   2.871  0.8937 -1.0151  0.8339
 4827SOL    HW215381   3.647   0.964   2.932 -1.5645  2.1441  0.6546
 4828SOL     OW15382   3.470   5.237   2.142 -0.3707  0.0246  0.0554
 4828SOL    HW115383   3.465   5.253   2.241 -2.7067  0.5070 -0.0644
 4828SOL    HW215384   3.562   5.210   2.117  1.1884  3.0946  1.8736
 4829SOL     OW15385   0.903   4.039   4.820 -0.1062  0.4015  0.4087
 4829SOL    HW115386   0.911   4.137   4.800 -0.1609  0.2947 -0.1826
 4829SOL    HW215387   0.838   4.025   4.894 -0.6047  0.7770  0.0482
 4830SOL     OW15388   0.588   6.669   1.736  0.1207 -0.0394 -0.5193
 4830SOL    HW115389   0.617   6.598   1.801 -1.7048 -0.9220 -0.5895
 4830SOL    HW215390   0.643   6.751   1.749  2.7666 -1.6509 -0.8604
 4831SOL     OW15391   2.805   4.533   1.423 -0.6028  0.3948  0.1575
 4831SOL    HW115392   2.817   4.434   1.423 -0.3586  0.4203 -0.4929
 4831SOL    HW215393   2.726   4.557   1.366  1.4151  0.7843 -2.6817
 4832SOL     OW15394   6.560   0.194   2.493  0.2571  0.2612 -0.0653
 4832SOL    HW115395   6.608   0.116   2.533 -1.4777 -0.6966  0.2468
 4832SOL    HW215396   6.530   0.171   2.400 -1.9232 -0.2265  0.7017
 4833SOL     OW15397   0.313   2.465   7.001  0.3279  0.1361  0.0816
 4833SOL    HW115398   0.337   2.402   7.075 -1.1207  1.3663  1.6822
 4833SOL    HW215399   0.350   2.431   6.915  3.0434 -0.7685  1.5046
 4834SOL     OW15400   0.451   6.977   5.451 -0.0628 -0.2642  0.1304
 4834SOL    HW115401   0.521   7.047   5.431  0.6189 -0.9312  0.1319
 4834SOL    HW215402   0.408   6.998   5.539  0.0159  0.2492  0.0537
 4835SOL     OW15403   1.484   5.915   0.707 -0.3946 -0.0781 -0.4135
 4835SOL    HW115404   1.503   5.999   0.655  1.4426  0.6396  1.2659
 4835SOL    HW215405   1.549   5.844   0.680 -0.0585 -0.0105  0.2104
 4836SOL     OW15406   5.961   6.588   5.012 -0.2895  0.7308  0.0330
 4836SOL    HW115407   5.922   6.570   5.102 -0.6047  0.9150 -0.0646
 4836SOL    HW215408   6.002   6.680   5.012  0.8551  0.2468  0.3744
 4837SOL     OW15409   5.186   6.518   4.565  0.3279  0.1727  0.6507
 4837SOL    HW115410   5.178   6.616   4.578  0.5927  0.4303 -0.9594
 4837SOL    HW215411   5.267   6.484   4.612  1.2103  1.0303 -0.2128
 4838SOL     OW15412   1.704   2.529   0.136 -0.2717 -0.1194 -0.5949
 4838SOL    HW115413   1.797   2.547   0.103 -1.0212  0.1785 -2.7235
 4838SOL    HW215414   1.697   2.434   0.166  0.5498 -0.3523 -1.0961
 4839SOL     OW15415   5.507   5.326   2.010  0.5428  0.1673 -0.0013
 4839SOL    HW115416   5.540   5.419   1.995  1.7282  0.0826  1.7592
 4839SOL    HW215417   5.582   5.268   2.042 -0.3308 -1.2197 -0.3697
 4840SOL     OW15418   1.415   1.824   4.225 -0.0922  0.1145 -0.5751
 4840SOL    HW115419   1.337   1.835   4.162 -0.3613 -1.0677 -0.4787
 4840SOL    HW215420   1.389   1.859   4.315 -0.2660  0.3515 -0.7122
 4841SOL     OW15421   6.426   0.309   3.318 -0.2811 -0.4556 -0.2384
 4841SOL    HW115422   6.505   0.357   3.279 -0.5480  0.1250 -0.0717
 4841SOL    HW215423   6.455   0.258   3.399  0.1168 -1.0349 -0.7330
 4842SOL     OW15424   3.353   1.623   5.258  0.3971 -0.5083 -0.3193
 4842SOL    HW115425   3.291   1.570   5.316  0.6781 -0.4361  0.0523
 4842SOL    HW215426   3.308   1.644   5.171  0.4019 -1.6302 -0.6046
 4843SOL     OW15427   4.326   1.502   5.305  0.1480  0.3852 -0.0843
 4843SOL    HW115428   4.274   1.419   5.324  1.4634 -0.7332 -1.1287
 4843SOL    HW215429   4.268   1.582   5.319 -0.9126 -0.6363  1.7878
 4844SOL     OW15430   2.465   5.147   2.691  0.1349  0.4645 -0.1626
 4844SOL    HW115431   2.481   5.061   2.642  0.1967 -0.1416  0.8828
 4844SOL    HW215432   2.386   5.136   2.752 -0.8387  1.6611 -1.1598
 4845SOL     OW15433   5.941   1.593   2.882 -0.2362  0.4754  0.2667
 4845SOL    HW115434   6.010   1.578   2.811  0.1154  1.2930  0.4278
 4845SOL    HW215435   5.877   1.516   2.882 -1.7760  1.5647 -2.6972
 4846SOL     OW15436   0.695   0.348   6.474 -0.0963  0.6632  0.0618
 4846SOL    HW115437   0.637   0.408   6.529 -2.5440 -0.9334 -0.5835
 4846SOL    HW215438   0.643   0.266   6.449  1.9810 -0.1571 -1.9265
 4847SOL     OW15439   0.544   2.063   5.374 -0.2360  0.2778 -0.2319
 4847SOL    HW115440   0.463   2.073   5.318  0.2497 -3.9931 -2.1041
 4847SOL    HW215441   0.517   2.043   5.468 -1.3363 -0.1750 -0.6279
 4848SOL     OW15442   4.359   0.349   3.095 -0.1207 -0.4837  0.0594
 4848SOL    HW115443   4.425   0.348   3.021 -0.6554 -0.3472 -0.4296
 4848SOL    HW215444   4.305   0.265   3.093 -0.4548 -0.2704 -0.0012
 4849SOL     OW15445   1.321   0.869   0.527  0.5773  0.2185  0.2763
 4849SOL    HW115446   1.283   0.892   0.437  0.5095 -0.7039  0.0626
 4849SOL    HW215447   1.420   0.853   0.518  0.4027 -0.8896  0.1555
 4850SOL     OW15448   4.885   4.093   5.913 -0.5789  0.4062 -0.2842
 4850SOL    HW115449   4.828   4.150   5.854 -1.6380  1.9479  2.0516
 4850SOL    HW215450   4.955   4.150   5.957 -1.0489 -0.2514  1.3864
 4851SOL     OW15451   1.208   2.465   4.640  0.5172 -0.3193 -0.6247
 4851SOL    HW115452   1.135   2.534   4.641  1.0591  0.3078  1.2701
 4851SOL    HW215453   1.290   2.504   4.599  1.2093  0.6942  1.5459
 4852SOL     OW15454   5.748   3.653   3.538 -0.3196  0.4045 -0.4119
 4852SOL    HW115455   5.806   3.628   3.460  0.3310 -0.6184  0.3781
 4852SOL    HW215456   5.793   3.627   3.623 -0.5505  2.4518  0.3953
 4853SOL     OW15457   0.025   1.416   5.801  0.2488 -0.1651  0.5290
 4853SOL    HW115458   0.092   1.489   5.788 -0.0627  0.0648  0.2046
 4853SOL    HW215459  -0.033   1.409   5.721 -2.2143  1.8169  2.0042
 4854SOL     OW15460   5.911   5.668   0.533 -0.8220  0.1678  0.3447
 4854SOL    HW115461   5.940   5.745   0.590 -0.6441 -1.3319  2.3528
 4854SOL    HW215462   5.838   5.617   0.579  0.0212 -1.6767 -0.2824
 4855SOL     OW15463   1.360   4.580   4.231 -0.0532 -0.3227 -0.3445
 4855SOL    HW115464   1.372   4.485   4.260 -0.0139 -1.0402 -2.5441
 4855SOL    HW215465   1.306   4.583   4.147 -0.4690  1.6582 -0.0684
 4856SOL     OW15466   4.695   1.157   4.676  0.0389  0.2171 -0.1019
 4856SOL    HW115467   4.621   1.102   4.715 -1.3144  0.9348 -1.5473
 4856SOL    HW215468   4.722   1.119   4.587  1.7494 -0.2871  0.5915
 4857SOL     OW15469   2.033   4.878   3.200  0.0306  0.1243 -0.4022
 4857SOL    HW115470   2.008   4.870   3.103  1.1368 -0.4790 -0.6699
 4857SOL    HW215471   2.070   4.790   3.231 -0.0453  0.4024  0.4930
 4858SOL     OW15472   0.070   6.844   5.550  0.3142  0.0582  0.5822
 4858SOL    HW115473   0.089   6.942   5.542  0.6362 -0.0706 -0.4126
 4858SOL    HW215474  -0.023   6.831   5.582  0.1509  0.6932  0.3877
 4859SOL     OW15475   1.089   2.369   3.253  0.2080  0.3772 -0.0752
 4859SOL    HW115476   1.158   2.438   3.230  0.6898  0.3057  1.0644
 4859SOL    HW215477   1.039   2.343   3.171 -0.1998  2.3037 -0.4868
 4860SOL     OW15478   4.717   6.612   3.272  0.0749  1.3400 -1.2490
 4860SOL    HW115479   4.716   6.516   3.246  0.0464  0.5623  1.3758
 4860SOL    HW215480   4.640   6.659   3.229 -0.5349 -0.0559 -1.7217
 4861SOL     OW15481   5.775   2.048   1.915  0.3355 -0.2196 -0.3299
 4861SOL    HW115482   5.737   2.140   1.928 -0.9243 -0.9176  1.2799
 4861SOL    HW215483   5.875   2.054   1.907  0.2427  1.3054 -0.6989
 4862SOL     OW15484   2.081   1.156   5.308 -0.0262  0.7182  0.1923
 4862SOL    HW115485   2.027   1.174   5.226 -0.0810  1.1729  0.3230
 4862SOL    HW215486   2.025   1.105   5.374  0.9387 -2.3373 -1.1924
 4863SOL     OW15487   5.206   0.650   5.350  0.5062 -0.3040 -0.0476
 4863SOL    HW115488   5.165   0.718   5.410  3.3309  0.9098  0.6675
 4863SOL    HW215489   5.246   0.576   5.405 -1.8758 -2.2717 -0.7854
 4864SOL     OW15490   4.290   0.697   0.274  0.1259  0.6681  0.4601
 4864SOL    HW115491   4.327   0.707   0.366  1.2922 -0.8012  0.2017
 4864SOL    HW215492   4.190   0.697   0.277  0.0553 -2.2364  2.1553
 4865SOL     OW15493   5.490   2.966   2.010  0.7020 -0.1517 -0.4958
 4865SOL    HW115494   5.442   2.986   1.924  0.7111  2.2676  0.0011
 4865SOL    HW215495   5.588   2.959   1.992  0.5665 -1.3854 -0.9073
 4866SOL     OW15496   1.801   6.389   5.313  0.5265  0.2569  0.5419
 4866SOL    HW115497   1.753   6.469   5.349  0.6957 -0.6385  2.9293
 4866SOL    HW215498   1.757   6.358   5.229 -2.0490  0.4460  1.7470
 4867SOL     OW15499   0.975   2.296   7.011  0.1443  0.0827 -0.1346
 4867SOL    HW115500   0.881   2.327   6.996  1.0036  3.3625  0.5683
 4867SOL    HW215501   1.038   2.359   6.965  2.0583 -1.9267 -0.4119
 4868SOL     OW15502   3.670   2.579   0.646  0.7435 -0.4171  0.0192
 4868SOL    HW115503   3.595   2.610   0.704 -0.2271 -0.0827 -1.3642
 4868SOL    HW215504   3.681   2.480   0.656  1.6134 -0.1737  1.8906
 4869SOL     OW15505   0.149   1.562   0.544  0.3463  0.0600  0.0521
 4869SOL    HW115506   0.220   1.541   0.477 -0.4441  0.5710 -0.9709
 4869SOL    HW215507   0.069   1.504   0.529 -0.1197  0.6812  0.0588
 4870SOL     OW15508   5.735   0.934   0.718 -0.4474  0.2629  0.3880
 4870SOL    HW115509   5.809   0.947   0.784 -0.4663  0.6580  0.3355
 4870SOL    HW215510   5.716   0.837   0.708 -1.4252  0.2176  2.0861
 4871SOL     OW15511   6.820   0.412   3.574  0.1556  0.2359 -0.5576
 4871SOL    HW115512   6.856   0.433   3.665  0.1914 -1.4736 -0.1367
 4871SOL    HW215513   6.743   0.473   3.553 -0.7679 -0.2298  1.2324
 4872SOL     OW15514   3.794   4.978   6.388 -0.3037 -0.1226 -0.1621
 4872SOL    HW115515   3.818   5.002   6.294  2.6717 -2.1264 -0.0534
 4872SOL    HW215516   3.794   4.878   6.398 -0.4286  0.0511  1.9940
 4873SOL     OW15517   0.104   5.613   1.637 -0.2354  0.2552 -0.2511
 4873SOL    HW115518   0.118   5.529   1.584 -0.1691  0.4568 -0.5564
 4873SOL    HW215519   0.187   5.633   1.690 -0.4841 -0.2248  0.3316
 4874SOL     OW15520   6.589   1.231   5.495 -0.2157  0.4230 -0.5737
 4874SOL    HW115521   6.682   1.205   5.470 -0.4658 -0.1324 -0.9554
 4874SOL    HW215522   6.559   1.306   5.436 -0.4576 -0.2413 -1.3119
 4875SOL     OW15523   3.751   4.312   0.790  0.0442  0.1941 -0.3474
 4875SOL    HW115524   3.794   4.292   0.701  1.5402 -0.0614  0.4101
 4875SOL    HW215525   3.821   4.333   0.857 -1.0238 -0.4079  0.9944
 4876SOL     OW15526   6.490   6.171   1.747 -1.0238  0.1480 -0.2230
 4876SOL    HW115527   6.552   6.155   1.670  0.5106  1.9181  0.5745
 4876SOL    HW215528   6.408   6.114   1.735  0.3840 -1.7485 -1.6912
 4877SOL     OW15529   4.745   4.097   2.747  0.0542 -0.5870  0.7049
 4877SOL    HW115530   4.669   4.153   2.714 -0.9769 -0.4532  3.0800
 4877SOL    HW215531   4.797   4.148   2.816  0.1711 -1.8859  1.6243
 4878SOL     OW15532   6.265   3.427   4.909 -0.3798  0.0114  0.0696
 4878SOL    HW115533   6.204   3.429   4.830  0.5423  1.3506 -0.6596
 4878SOL    HW215534   6.357   3.399   4.880 -0.1340  0.0790  0.7547
 4879SOL     OW15535   5.420   5.925   5.904 -0.2514  0.3299  0.8668
 4879SOL    HW115536   5.354   6.000   5.905 -1.4392 -0.6556 -0.3460
 4879SOL    HW215537   5.384   5.848   5.852  0.5340 -1.4830  2.7950
 4880SOL     OW15538   3.460   0.814   6.109  0.1283  0.1073  1.0114
 4880SOL    HW115539   3.437   0.717   6.107  1.2154 -0.2224  2.5942
 4880SOL    HW215540   3.558   0.826   6.127  0.9762  1.4887 -3.4203
 4881SOL     OW15541   2.491   6.142   2.489 -0.1631 -0.2162 -0.0835
 4881SOL    HW115542   2.396   6.172   2.482 -0.0561  0.6880  1.8084
 4881SOL    HW215543   2.552   6.216   2.461  0.0214 -0.3899 -0.1471
 4882SOL     OW15544   1.898   4.209   5.085  0.3299 -0.2617 -0.2011
 4882SOL    HW115545   1.850   4.245   5.166 -1.0493 -1.8377 -0.2766
 4882SOL    HW215546   1.836   4.210   5.007  0.6117 -1.7740 -0.4584
 4883SOL     OW15547   1.670   3.011   1.947  0.3142  0.0376 -0.1420
 4883SOL    HW115548   1.665   2.946   1.871  1.4338  0.0403 -0.2348
 4883SOL    HW215549   1.732   2.974   2.017  1.7395  1.4092 -0.6221
 4884SOL     OW15550   6.763   0.197   5.063  0.1207 -0.1305 -0.2967
 4884SOL    HW115551   6.813   0.283   5.067  0.4366 -0.3214 -0.0626
 4884SOL    HW215552   6.765   0.161   4.970 -0.2969  0.2799 -0.4670
 4885SOL     OW15553   0.396   1.730   1.946 -0.0070 -0.0844  0.0846
 4885SOL    HW115554   0.405   1.750   1.848  0.0017  1.7188  0.4279
 4885SOL    HW215555   0.340   1.800   1.990 -5.1612 -3.7976  0.4378
 4886SOL     OW15556   2.371   3.541   5.948 -0.3734  0.6137 -0.4833
 4886SOL    HW115557   2.335   3.486   5.872  0.0344 -1.4637  0.7365
 4886SOL    HW215558   2.308   3.535   6.025  0.7578 -0.0341  0.4274
 4887SOL     OW15559   4.733   4.672   3.937 -0.1068 -0.7734 -1.0778
 4887SOL    HW115560   4.786   4.720   3.867  1.5814 -2.1798 -0.8309
 4887SOL    HW215561   4.644   4.716   3.947  0.3503  0.6454 -2.7158
 4888SOL     OW15562   2.285   0.378   5.991  0.3091  0.1396  0.1910
 4888SOL    HW115563   2.376   0.365   5.952  1.6500  1.0872  2.7979
 4888SOL    HW215564   2.269   0.312   6.064  0.5546  2.3211  2.3629
 4889SOL     OW15565   1.532   2.463   5.798  0.1595  0.0046  0.0686
 4889SOL    HW115566   1.526   2.485   5.700 -0.3349  1.8992  0.5030
 4889SOL    HW215567   1.443   2.475   5.841  0.8997  1.7762  1.2378
 4890SOL     OW15568   4.439   6.897   6.304  0.5463 -0.1298  0.3844
 4890SOL    HW115569   4.439   6.846   6.218  0.5550 -1.9791  1.4190
 4890SOL    HW215570   4.344   6.911   6.334  0.5366 -2.2008  1.5285
 4891SOL     OW15571   3.393   5.594   4.783 -0.8236 -0.5524 -0.2027
 4891SOL    HW115572   3.344   5.636   4.859 -0.4321  0.6545 -0.5942
 4891SOL    HW215573   3.446   5.517   4.816 -0.0621  0.4079  0.9107
 4892SOL     OW15574   1.437   0.768   3.919  0.0599 -0.0391  0.8490
 4892SOL    HW115575   1.364   0.701   3.933  0.4278 -0.5403  0.4205
 4892SOL    HW215576   1.502   0.762   3.994 -0.3372  0.4071  1.2310
 4893SOL     OW15577   4.186   0.352   3.650 -0.1766  0.2065  0.0528
 4893SOL    HW115578   4.226   0.408   3.578  1.4499  0.8747  1.3894
 4893SOL    HW215579   4.092   0.381   3.666 -0.1495  0.8919 -0.9354
 4894SOL     OW15580   6.377   0.992   0.219  0.3273  0.3868 -0.4263
 4894SOL    HW115581   6.456   0.940   0.250 -0.2332  0.4320  1.1243
 4894SOL    HW215582   6.380   1.084   0.258 -0.8789  0.1423  0.2982
 4895SOL     OW15583   0.309   5.771   2.217 -0.4986  0.0860  0.4075
 4895SOL    HW115584   0.234   5.745   2.157 -1.0236  0.1278  1.0368
 4895SOL    HW215585   0.394   5.774   2.165 -1.0324  0.6629 -0.4567
 4896SOL     OW15586   4.524   4.887   3.689  0.4336  0.9394  0.9671
 4896SOL    HW115587   4.482   4.928   3.770 -0.0175  0.2109  1.1125
 4896SOL    HW215588   4.454   4.839   3.636  0.9830  0.1632  0.9255
 4897SOL     OW15589   3.729   5.842   4.762  0.8397  0.1714  0.0243
 4897SOL    HW115590   3.687   5.903   4.829 -0.9987 -0.8984 -0.0903
 4897SOL    HW215591   3.808   5.797   4.804 -0.4559 -0.7216  1.6466
 4898SOL     OW15592   0.675   1.666   2.449 -0.1774 -0.2110 -0.2113
 4898SOL    HW115593   0.709   1.731   2.381 -0.1429  0.7506  0.7127
 4898SOL    HW215594   0.611   1.602   2.405  0.4353 -0.0988 -1.3022
 4899SOL     OW15595   6.285   0.373   6.309  0.0572 -0.0619 -0.3417
 4899SOL    HW115596   6.219   0.403   6.241  2.1690  1.2121 -1.9741
 4899SOL    HW215597   6.360   0.325   6.264  1.2096  0.2355  1.1483
 4900SOL     OW15598   6.342   1.791   5.431 -0.4781  0.0992  0.4438
 4900SOL    HW115599   6.357   1.695   5.454  0.9729 -0.2481 -1.7035
 4900SOL    HW215600   6.251   1.801   5.391 -0.3841 -0.5124  0.0647
 4901SOL     OW15601   0.305   5.871   3.975 -0.2000  0.2654  0.0211
 4901SOL    HW115602   0.355   5.798   3.928 -2.0370  0.2845 -2.1110
 4901SOL    HW215603   0.365   5.913   4.044  2.7112  0.2810 -2.3046
 4902SOL     OW15604   2.166   1.867   5.183 -0.2757  0.3442 -0.1439
 4902SOL    HW115605   2.070   1.888   5.202 -0.6832  0.3793 -2.0904
 4902SOL    HW215606   2.190   1.780   5.226 -1.7181 -0.5888 -1.1463
 4903SOL     OW15607   1.253   4.390   0.080  0.4501 -0.1323 -0.4181
 4903SOL    HW115608   1.217   4.374  -0.012  1.1280  0.6550 -0.8329
 4903SOL    HW215609   1.302   4.308   0.111  2.1386  0.3339 -1.6940
 4904SOL     OW15610   1.984   2.963   0.516  0.3699 -0.0815 -0.2550
 4904SOL    HW115611   1.981   2.954   0.416 -0.6554 -2.8734 -0.0546
 4904SOL    HW215612   1.979   3.060   0.541  0.6077  0.6798 -2.8872
 4905SOL     OW15613   5.114   6.146   2.522 -0.4482 -0.5474  0.3675
 4905SOL    HW115614   5.076   6.118   2.434 -0.3637  1.4351 -0.3474
 4905SOL    HW215615   5.047   6.128   2.595 -1.7854  0.6221 -0.5295
 4906SOL     OW15616   4.400   6.471   4.012 -0.1448 -0.0901  0.0120
 4906SOL    HW115617   4.406   6.514   3.922 -3.0311 -1.2704 -0.8678
 4906SOL    HW215618   4.383   6.541   4.081  0.2747  0.6591 -0.6173
 4907SOL     OW15619   5.490   2.989   5.318 -0.6822  0.2377 -0.0569
 4907SOL    HW115620   5.512   2.971   5.414  0.7472 -0.3180 -0.4592
 4907SOL    HW215621   5.393   2.971   5.302 -0.9521  0.3801  1.2826
 4908SOL     OW15622   6.130   6.161   2.636 -0.0891 -0.0657  0.5374
 4908SOL    HW115623   6.044   6.201   2.669  0.7961 -0.2756  3.3855
 4908SOL    HW215624   6.196   6.234   2.619 -0.9995  0.1814 -2.6021
 4909SOL     OW15625   0.661   2.641   5.993  0.1297  0.4577 -0.8101
 4909SOL    HW115626   0.572   2.681   5.971  0.3584  0.6859 -1.3221
 4909SOL    HW215627   0.694   2.588   5.915  0.0555 -0.3345 -0.3193
 4910SOL     OW15628   3.649   5.452   4.367 -0.4936 -0.2580  0.0357
 4910SOL    HW115629   3.584   5.467   4.442  0.2892  0.0218  0.6682
 4910SOL    HW215630   3.728   5.402   4.401  1.1063  2.1342  0.0691
 4911SOL     OW15631   1.176   1.647   1.820 -0.5543  0.3068 -0.8155
 4911SOL    HW115632   1.127   1.636   1.906 -1.2679  0.3096 -1.2188
 4911SOL    HW215633   1.273   1.625   1.834 -0.4672  1.2560  0.2144
 4912SOL     OW15634   5.083   4.250   6.021  0.0310  0.6935 -0.2099
 4912SOL    HW115635   5.113   4.323   5.960  0.4497  1.0549  0.4204
 4912SOL    HW215636   5.161   4.195   6.049 -0.4510 -0.8603 -1.7516
 4913SOL     OW15637   0.446   3.502   0.208  0.1197  0.3207 -1.0180
 4913SOL    HW115638   0.439   3.489   0.109 -0.0234  0.0293 -0.9705
 4913SOL    HW215639   0.527   3.557   0.229  0.1245  0.4221 -1.2996
 4914SOL     OW15640   4.446   0.627   0.921 -0.5470  0.3690  0.1741
 4914SOL    HW115641   4.385   0.662   0.993 -0.4031  0.7184  0.1265
 4914SOL    HW215642   4.403   0.549   0.876  0.5475 -1.7851  2.5995
 4915SOL     OW15643   5.325   4.075   5.155 -0.1522  0.5571  0.1974
 4915SOL    HW115644   5.308   3.982   5.121 -0.1283  0.2462  1.0154
 4915SOL    HW215645   5.315   4.140   5.080 -0.3449 -0.0892 -0.3477
 4916SOL     OW15646   0.997   3.786   0.339 -0.0609  0.3635  0.2239
 4916SOL    HW115647   1.073   3.838   0.377 -0.3033  1.4303 -0.7137
 4916SOL    HW215648   0.912   3.814   0.384  0.1344 -1.3092  1.7565
 4917SOL     OW15649   5.728   2.571   0.827 -0.0546  0.2677  0.3194
 4917SOL    HW115650   5.724   2.583   0.926  1.6437 -1.3080  0.6270
 4917SOL    HW215651   5.635   2.554   0.792 -0.8844  2.2927  1.3725
 4918SOL     OW15652   0.373   0.271   2.553 -0.1998  0.2538 -0.3972
 4918SOL    HW115653   0.365   0.255   2.455  0.9247  1.6314 -0.7428
 4918SOL    HW215654   0.306   0.340   2.581 -0.7105 -0.3403 -0.1263
 4919SOL     OW15655   6.389   4.463   6.563  0.4847  0.2150  0.2520
 4919SOL    HW115656   6.482   4.439   6.538  0.3015  0.1598 -0.4041
 4919SOL    HW215657   6.337   4.485   6.480 -0.4555 -1.1083  0.4573
 4920SOL     OW15658   1.108   3.028   3.331  0.3472  0.0075 -0.5124
 4920SOL    HW115659   1.084   3.118   3.366 -0.2554  0.8440 -2.8569
 4920SOL    HW215660   1.161   3.038   3.247  3.0644 -1.8651  0.8348
 4921SOL     OW15661   1.152   2.731   6.798  0.3173 -0.0964  0.2385
 4921SOL    HW115662   1.155   2.799   6.724  0.2992  0.4752  0.7575
 4921SOL    HW215663   1.171   2.775   6.885  1.9434 -1.0354  0.4110
 4922SOL     OW15664   5.192   6.241   5.209 -0.3312  0.1536 -0.0743
 4922SOL    HW115665   5.126   6.209   5.141 -0.9051 -1.8861  1.3573
 4922SOL    HW215666   5.239   6.163   5.250 -0.1142  1.2926  1.9676
 4923SOL     OW15667   6.069   3.147   5.618 -0.1005 -0.6133 -0.2548
 4923SOL    HW115668   6.061   3.224   5.555  2.8216 -1.2401 -1.5797
 4923SOL    HW215669   6.106   3.178   5.705  2.8574 -0.6195 -1.3948
 4924SOL     OW15670   6.099   6.044   0.331 -0.2120  0.4281 -0.0825
 4924SOL    HW115671   6.185   6.009   0.294 -1.1653  0.2437 -2.2763
 4924SOL    HW215672   6.111   6.066   0.428  1.8908 -0.9199  0.0292
 4925SOL     OW15673   4.811   6.912   6.888  0.2253 -0.0821 -0.1311
 4925SOL    HW115674   4.755   6.885   6.810 -1.3135 -1.0161  1.2380
 4925SOL    HW215675   4.907   6.916   6.860 -0.1988 -1.0982 -1.8814
 4926SOL     OW15676   0.361   4.886   2.972  1.2095  0.0340  0.0715
 4926SOL    HW115677   0.328   4.974   2.937 -0.7415  0.6986  3.1370
 4926SOL    HW215678   0.327   4.812   2.915  1.0991  1.1332 -1.3538
 4927SOL     OW15679   2.022   4.727   6.019  0.2704 -0.4848 -0.4211
 4927SOL    HW115680   1.987   4.813   5.983 -2.1095 -1.8362 -1.6096
 4927SOL    HW215681   1.986   4.651   5.964  2.1758 -2.2614  0.6521
 4928SOL     OW15682   6.886   6.888   3.574  0.2006 -0.4286 -0.6052
 4928SOL    HW115683   6.861   6.799   3.536 -2.2550  1.0178 -2.6140
 4928SOL    HW215684   6.939   6.939   3.507  0.7131  0.0554  0.1461
 4929SOL     OW15685   4.838   6.767   5.929  0.0831  0.9280 -0.1276
 4929SOL    HW115686   4.760   6.705   5.940  0.3809  0.4552 -0.6536
 4929SOL    HW215687   4.913   6.738   5.988  0.5803  0.1853 -1.0917
 4930SOL     OW15688   2.016   2.775   6.858  0.3267  0.3113  0.0355
 4930SOL    HW115689   2.090   2.838   6.878  0.6442  0.5024 -1.6508
 4930SOL    HW215690   2.051   2.681   6.856  0.1829  0.2284  0.8379
 4931SOL     OW15691   5.749   0.326   1.659 -0.6955 -0.0758 -0.0560
 4931SOL    HW115692   5.793   0.236   1.667  1.6698  0.7278 -2.4251
 4931SOL    HW215693   5.780   0.385   1.734  0.3544 -0.3102 -0.2798
 4932SOL     OW15694   3.781   6.393   3.463 -0.5342 -0.6771  0.1423
 4932SOL    HW115695   3.777   6.492   3.478 -0.6993 -0.6324 -0.1867
 4932SOL    HW215696   3.870   6.358   3.492 -0.1601 -0.2941 -0.5281
 4933SOL     OW15697   4.931   4.288   3.453 -0.4360 -0.2562  0.6522
 4933SOL    HW115698   4.856   4.238   3.497  1.2329 -2.5407  1.0799
 4933SOL    HW215699   4.981   4.226   3.392 -0.0126  1.7090 -1.0784
 4934SOL     OW15700   3.076   6.511   3.687 -0.4072  0.4473 -0.4306
 4934SOL    HW115701   3.115   6.485   3.775  0.2387  1.1170 -0.5106
 4934SOL    HW215702   2.977   6.496   3.688 -0.4133  0.5289  0.4292
 4935SOL     OW15703   1.286   3.877   2.925  0.6158  0.2442 -0.0645
 4935SOL    HW115704   1.287   3.961   2.871 -0.8378  1.7540  2.0642
 4935SOL    HW215705   1.238   3.894   3.012  2.2261 -2.2017  1.4252
 4936SOL     OW15706   0.044   6.856   3.767  0.3595  0.3888 -0.0065
 4936SOL    HW115707   0.128   6.877   3.718  0.3916 -0.2678 -0.2450
 4936SOL    HW215708  -0.034   6.864   3.705  0.3720 -0.1635 -0.0992
 4937SOL     OW15709   4.264   0.386   5.473  0.0206  0.0540 -0.5815
 4937SOL    HW115710   4.264   0.399   5.374 -1.2990  1.8974 -0.3846
 4937SOL    HW215711   4.179   0.340   5.501  1.0890 -1.9236 -0.4224
 4938SOL     OW15712   0.120   4.536   1.153 -0.0998  0.5127  0.6537
 4938SOL    HW115713   0.048   4.591   1.111  1.2001 -0.1170 -2.6831
 4938SOL    HW215714   0.147   4.463   1.091  2.5580 -0.0671  2.3256
 4939SOL     OW15715   4.751   1.426   2.308  0.1974 -0.0198  0.1253
 4939SOL    HW115716   4.726   1.407   2.403  0.1682  1.7634  0.5225
 4939SOL    HW215717   4.762   1.340   2.258 -2.2475 -0.9767  1.0850
 4940SOL     OW15718   6.465   4.990   5.548 -0.4222 -0.0074 -0.0959
 4940SOL    HW115719   6.524   4.910   5.534 -1.2194 -0.4851 -0.8114
 4940SOL    HW215720   6.507   5.070   5.505 -0.5222 -0.4549 -1.0522
 4941SOL     OW15721   6.507   5.986   0.869 -0.7455  0.5347  0.8625
 4941SOL    HW115722   6.467   5.898   0.842  1.3677 -0.1570 -0.2258
 4941SOL    HW215723   6.559   5.974   0.953  0.0511  0.5916  0.3819
 4942SOL     OW15724   2.214   2.821   1.573 -0.3843  0.2519  0.0547
 4942SOL    HW115725   2.218   2.828   1.673  0.8301  0.0868  0.0365
 4942SOL    HW215726   2.195   2.726   1.548  0.5052  0.0395  0.1342
 4943SOL     OW15727   2.290   0.027   5.995  0.7414  0.4635 -0.2120
 4943SOL    HW115728   2.334  -0.025   5.922  1.5325 -0.3071  0.7931
 4943SOL    HW215729   2.201   0.061   5.963  0.7613 -0.4452 -1.2875
 4944SOL     OW15730   4.048   2.201   1.346  0.5432  0.0324  0.5202
 4944SOL    HW115731   4.072   2.177   1.252 -1.6071 -2.3336  0.4616
 4944SOL    HW215732   3.951   2.224   1.351  0.8295  1.0765  2.0404
 4945SOL     OW15733   6.674   0.408   2.780  0.6340 -1.2543 -0.2396
 4945SOL    HW115734   6.771   0.433   2.784  0.3605 -0.1584  0.0142
 4945SOL    HW215735   6.631   0.456   2.703  0.0937 -0.9644  0.2386
 4946SOL     OW15736   3.590   2.273   7.008  0.1286  0.2884 -0.4146
 4946SOL    HW115737   3.583   2.255   6.910 -1.3480  0.0775 -0.2947
 4946SOL    HW215738   3.510   2.234   7.054 -0.0148  1.7852  0.6529
 4947SOL     OW15739   1.631   0.097   2.753 -0.2408  1.0154  0.0559
 4947SOL    HW115740   1.655   0.105   2.656 -1.6484 -0.8698 -0.4923
 4947SOL    HW215741   1.608   0.003   2.774  1.0109  1.1771  2.5083
 4948SOL     OW15742   0.204   5.110   3.289  0.5188 -0.0195 -0.1437
 4948SOL    HW115743   0.297   5.147   3.293  0.5044 -0.0188  0.1847
 4948SOL    HW215744   0.138   5.185   3.288  0.5674  0.0484 -2.2356
 4949SOL     OW15745   0.054   1.324   2.309  0.0596 -0.5227 -0.4449
 4949SOL    HW115746   0.040   1.304   2.212 -0.3238 -0.1506 -0.4667
 4949SOL    HW215747  -0.001   1.260   2.364  0.3909 -0.8298 -0.4654
 4950SOL     OW15748   2.301   2.122   2.326 -0.2400  0.3874 -0.1490
 4950SOL    HW115749   2.331   2.217   2.337  1.4179 -0.1758  0.5353
 4950SOL    HW215750   2.252   2.112   2.240 -2.8839  2.4192  0.9689
 4951SOL     OW15751   6.359   5.906   0.559 -0.4504  0.0860 -0.1821
 4951SOL    HW115752   6.421   5.888   0.483  0.4694  1.9091  0.0811
 4951SOL    HW215753   6.390   5.857   0.640 -1.5101 -1.9772 -0.9568
 4952SOL     OW15754   5.016   6.024   1.287 -0.6582 -0.0727  0.1284
 4952SOL    HW115755   4.992   6.109   1.334  0.2420 -0.0142  0.4886
 4952SOL    HW215756   5.063   6.044   1.202 -2.1952 -0.1838 -0.7922
 4953SOL     OW15757   1.953   0.978   0.362  0.2247 -0.9929 -0.3260
 4953SOL    HW115758   2.028   0.915   0.382 -0.0316 -1.1092  0.3061
 4953SOL    HW215759   1.990   1.067   0.336  0.6400 -0.3024  2.3324
 4954SOL     OW15760   6.033   2.480   4.777  0.4163  0.0289  0.1706
 4954SOL    HW115761   5.945   2.528   4.770  0.7005  0.4972 -0.3533
 4954SOL    HW215762   6.063   2.454   4.685 -0.7444 -3.1041  0.5667
 4955SOL     OW15763   6.658   5.488   6.662 -0.0247 -0.6384 -0.4738
 4955SOL    HW115764   6.600   5.516   6.585  0.8520 -1.3164 -1.4051
 4955SOL    HW215765   6.718   5.414   6.633  1.3568  0.0776  0.4549
 4956SOL     OW15766   6.241   6.027   6.425  0.3075  0.1753  0.2072
 4956SOL    HW115767   6.224   5.968   6.346 -1.1081  2.0008 -0.9357
 4956SOL    HW215768   6.314   6.091   6.403  0.6738 -0.0342  0.8051
 4957SOL     OW15769   5.655   3.383   3.630 -0.0457 -0.1605 -0.7158
 4957SOL    HW115770   5.743   3.337   3.636 -0.7956 -1.7830 -1.6265
 4957SOL    HW215771   5.669   3.476   3.596  1.5205  0.4447  1.3730
 4958SOL     OW15772   5.000   6.907   3.476  0.3600  0.0087  0.2929
 4958SOL    HW115773   4.917   6.944   3.435  0.4707 -1.5529 -1.4904
 4958SOL    HW215774   5.078   6.927   3.416  0.8623 -0.5868  0.7321
 4959SOL     OW15775   2.152   0.661   1.628 -0.6381  0.1965  0.7091
 4959SOL    HW115776   2.225   0.598   1.600 -1.8594 -1.2852  0.7123
 4959SOL    HW215777   2.183   0.715   1.706  0.9013  0.5346 -0.1101
 4960SOL     OW15778   1.750   5.511   1.271 -0.2893  0.6833 -0.1082
 4960SOL    HW115779   1.758   5.445   1.196 -0.7278  0.8555 -0.3140
 4960SOL    HW215780   1.797   5.595   1.246  1.0917  0.1310  0.5441
 4961SOL     OW15781   2.974   3.203   4.134  0.0931  0.2030  0.3241
 4961SOL    HW115782   2.914   3.238   4.062 -0.7853  1.1404  1.4545
 4961SOL    HW215783   2.937   3.230   4.223  0.6949 -1.6377  1.1698
 4962SOL     OW15784   3.232   0.944   5.341  0.2112 -0.9812  0.6012
 4962SOL    HW115785   3.276   1.016   5.395 -1.2826  0.3223  0.1499
 4962SOL    HW215786   3.133   0.948   5.353  0.0812 -2.8276  0.3630
 4963SOL     OW15787   2.367   1.282   3.710 -0.4862 -0.0394  0.1540
 4963SOL    HW115788   2.307   1.362   3.703  0.7741  1.0323  0.9956
 4963SOL    HW215789   2.405   1.278   3.803  0.9882 -0.4763 -0.4370
 4964SOL     OW15790   3.524   6.529   1.069  0.4515 -0.5248 -0.2003
 4964SOL    HW115791   3.545   6.624   1.047  2.0557 -0.8428 -0.1423
 4964SOL    HW215792   3.465   6.491   0.998 -1.1348  0.8084  0.3481
 4965SOL     OW15793   6.091   3.713   1.551 -0.2612  0.4221  0.0668
 4965SOL    HW115794   6.106   3.782   1.480 -0.4251 -0.0190 -0.3969
 4965SOL    HW215795   6.179   3.688   1.591 -0.2705  1.4938  0.8124
 4966SOL     OW15796   2.191   0.252   2.753  0.0845  0.3527  0.0176
 4966SOL    HW115797   2.252   0.306   2.812  0.1046 -0.2618  0.5746
 4966SOL    HW215798   2.161   0.171   2.803 -0.3947  0.1409 -0.6131
 4967SOL     OW15799   5.100   6.360   3.132  0.0756 -0.2477 -0.1731
 4967SOL    HW115800   5.078   6.439   3.190 -1.8949  0.3820 -1.6623
 4967SOL    HW215801   5.198   6.361   3.112  0.3759  0.9017  1.1270
 4968SOL     OW15802   5.972   0.570   4.664 -0.3170 -0.1727 -0.2317
 4968SOL    HW115803   6.005   0.598   4.754  1.5197 -0.5278 -0.7446
 4968SOL    HW215804   5.890   0.515   4.674  0.2735 -0.8335  1.2994
 4969SOL     OW15805   5.169   3.159   5.202  0.6314 -0.3336 -0.3878
 4969SOL    HW115806   5.191   3.232   5.138 -0.4716 -1.4664 -2.1165
 4969SOL    HW215807   5.188   3.071   5.160 -1.6152 -1.1634  0.2031
 4970SOL     OW15808   6.919   3.423   4.339  0.1610  0.3703  0.2046
 4970SOL    HW115809   6.852   3.421   4.413  0.5684  0.2351  0.5810
 4970SOL    HW215810   7.009   3.396   4.375  0.1954 -0.5378 -0.5161
 4971SOL     OW15811   6.860   3.019   1.970 -0.3263 -0.4196  0.1128
 4971SOL    HW115812   6.798   2.992   1.896  0.8853 -1.4297 -0.5601
 4971SOL    HW215813   6.940   2.959   1.971  0.3700  0.4781  1.3504
 4972SOL     OW15814   3.534   1.154   0.720  0.4158  0.4112 -0.7515
 4972SOL    HW115815   3.608   1.114   0.774  0.9468  0.4881 -1.4014
 4972SOL    HW215816   3.446   1.124   0.756  0.7902 -0.7389 -0.7591
 4973SOL     OW15817   3.447   0.506   6.613 -0.0118  0.6832  0.0192
 4973SOL    HW115818   3.531   0.545   6.576  0.7992 -1.3570 -0.4616
 4973SOL    HW215819   3.379   0.577   6.626  1.7335  2.3781  0.2671
 4974SOL     OW15820   4.114   0.378   2.320  0.3254 -0.4982  0.0134
 4974SOL    HW115821   4.150   0.371   2.413  0.2405  0.8912  0.1663
 4974SOL    HW215822   4.032   0.434   2.320 -1.4166 -2.8994 -0.4704
 4975SOL     OW15823   3.007   1.769   3.269 -0.3650  0.0245 -0.0459
 4975SOL    HW115824   3.055   1.684   3.291  2.9217  1.5407 -0.7717
 4975SOL    HW215825   3.001   1.780   3.170 -2.0700  0.0080  0.0274
 4976SOL     OW15826   5.386   6.401   3.034  0.3697  0.6101 -0.7325
 4976SOL    HW115827   5.458   6.340   3.000 -0.4869 -0.2215 -1.1109
 4976SOL    HW215828   5.406   6.495   3.006  0.9411  0.2867 -1.4568
 4977SOL     OW15829   6.622   4.019   4.830  0.0075 -0.2004  0.2108
 4977SOL    HW115830   6.619   3.923   4.802  0.1600 -0.3215  0.5970
 4977SOL    HW215831   6.567   4.031   4.913 -3.6330  0.8541 -2.1320
 4978SOL     OW15832   3.377   6.694   5.045 -0.7041  0.0572  0.5431
 4978SOL    HW115833   3.303   6.637   5.079  0.5499 -1.4531  0.8385
 4978SOL    HW215834   3.442   6.713   5.119 -1.1730  2.0602  0.5015
 4979SOL     OW15835   6.753   5.244   0.099 -0.0541 -0.8346 -0.8141
 4979SOL    HW115836   6.840   5.293   0.100 -0.7350  0.3982  0.2789
 4979SOL    HW215837   6.694   5.282   0.027 -0.1782 -0.7759 -0.6824
 4980SOL     OW15838   1.966   5.557   5.728  0.1348 -0.4037  0.3790
 4980SOL    HW115839   1.956   5.467   5.685  2.7555 -0.7098  0.2351
 4980SOL    HW215840   1.950   5.628   5.660  1.2984 -0.8446 -0.3887
 4981SOL     OW15841   4.129   6.909   4.316  0.2377 -0.4081 -0.3548
 4981SOL    HW115842   4.108   6.811   4.318  1.8840 -0.7937  0.2596
 4981SOL    HW215843   4.049   6.961   4.345 -0.9221 -1.5072 -1.4295
 4982SOL     OW15844   4.333   0.126   1.573  0.0893 -0.0967 -0.0949
 4982SOL    HW115845   4.326   0.223   1.595 -0.5020 -0.4736  1.4987
 4982SOL    HW215846   4.244   0.091   1.546  0.1416 -0.3561  0.0635
 4983SOL     OW15847   6.698   5.866   4.372  0.3524  0.0866  0.8483
 4983SOL    HW115848   6.712   5.821   4.284 -0.6650 -0.4601  0.9540
 4983SOL    HW215849   6.620   5.928   4.366  1.0001  0.9496  1.0475
 4984SOL     OW15850   0.088   1.484   2.823  0.3703  0.6745  0.1495
 4984SOL    HW115851   0.033   1.438   2.893 -0.4690  1.6243  0.1349
 4984SOL    HW215852   0.177   1.508   2.860  0.3517  0.1703  0.5334
 4985SOL     OW15853   6.929   6.503   1.662 -0.2466  0.3826  0.4300
 4985SOL    HW115854   6.931   6.564   1.583 -0.5777 -0.6124 -0.3539
 4985SOL    HW215855   7.022   6.487   1.694 -0.1975  2.0440  1.2528
 4986SOL     OW15856   5.947   4.234   6.750 -0.3269 -0.1839  0.0971
 4986SOL    HW115857   6.013   4.293   6.797  1.2333 -2.0718  0.4451
 4986SOL    HW215858   5.931   4.152   6.805  1.5722 -2.5019 -2.4907
 4987SOL     OW15859   1.510   6.258   4.606  0.1617  0.0581  0.4194
 4987SOL    HW115860   1.426   6.216   4.642 -2.1853  2.3484 -1.8967
 4987SOL    HW215861   1.562   6.190   4.555 -2.4814 -0.6748 -1.5395
 4988SOL     OW15862   5.359   5.853   4.462 -0.3642  0.0941 -0.3121
 4988SOL    HW115863   5.406   5.766   4.450 -0.6077  0.0545 -1.0652
 4988SOL    HW215864   5.426   5.927   4.467 -0.1573 -0.1381  0.3562
 4989SOL     OW15865   4.997   2.033   0.299 -0.0386 -0.0589 -0.5089
 4989SOL    HW115866   4.902   1.999   0.298  0.0639 -0.3583 -1.4178
 4989SOL    HW215867   5.018   2.071   0.389 -1.2988  0.8035 -0.5520
 4990SOL     OW15868   5.820   3.994   5.290 -0.2639 -0.0320  0.0598
 4990SOL    HW115869   5.759   4.011   5.213 -0.3757 -0.1716  0.1164
 4990SOL    HW215870   5.914   4.011   5.263 -0.2993 -0.1197 -0.1183
 4991SOL     OW15871   1.119   2.632   5.749 -0.1488 -0.4881 -0.3428
 4991SOL    HW115872   1.044   2.662   5.808 -1.0974 -0.9500 -1.2802
 4991SOL    HW215873   1.111   2.675   5.659  0.9045 -0.2976 -0.3607
 4992SOL     OW15874   0.331   4.689   4.129 -0.6379  0.2846  0.7074
 4992SOL    HW115875   0.350   4.724   4.038 -0.8514 -0.7307  0.2608
 4992SOL    HW215876   0.417   4.673   4.178 -0.4819 -0.1693  0.2905
 4993SOL     OW15877   1.606   1.008   5.694 -0.1699  0.1888  0.1505
 4993SOL    HW115878   1.614   1.068   5.773  2.3578 -0.7099  0.6845
 4993SOL    HW215879   1.574   0.918   5.724  0.7810 -0.1501  0.1907
 4994SOL     OW15880   0.499   5.034   4.175 -0.2185 -1.0122  0.0542
 4994SOL    HW115881   0.466   5.077   4.259 -0.5127  0.9186 -0.9951
 4994SOL    HW215882   0.592   4.999   4.190  0.8825  1.8497  0.4168
 4995SOL     OW15883   4.605   1.400   6.221 -0.0636 -0.6853 -0.3866
 4995SOL    HW115884   4.688   1.445   6.254  0.8609 -2.1209 -0.6666
 4995SOL    HW215885   4.626   1.347   6.138 -1.4889 -0.2598 -1.0409
 4996SOL     OW15886   0.501   0.557   3.617 -0.2388 -0.2241  0.0417
 4996SOL    HW115887   0.574   0.600   3.565 -1.2356  1.3056 -0.1389
 4996SOL    HW215888   0.464   0.480   3.565  0.5409 -0.3578 -0.3230
 4997SOL     OW15889   4.994   2.161   5.518  0.5537  0.2386  0.1735
 4997SOL    HW115890   5.035   2.098   5.453  0.6377  0.8449 -0.3714
 4997SOL    HW215891   5.064   2.222   5.555  0.8548 -1.1751  2.1532
 4998SOL     OW15892   6.138   2.702   2.434 -0.1189  0.0609  0.1221
 4998SOL    HW115893   6.078   2.730   2.359  1.0916  1.2793 -0.4344
 4998SOL    HW215894   6.086   2.702   2.520 -1.1201  0.2249 -0.4633
 4999SOL     OW15895   4.232   3.254   6.929  0.4111  0.3241  0.2449
 4999SOL    HW115896   4.202   3.185   6.864  0.8844 -0.6545  1.0488
 4999SOL    HW215897   4.157   3.318   6.947 -0.8182 -1.3613  1.3115
 5000SOL     OW15898   6.972   4.627   5.132  0.3715 -0.3546 -0.0153
 5000SOL    HW115899   6.928   4.683   5.202 -1.0113 -1.6830  0.2218
 5000SOL    HW215900   7.049   4.577   5.172  1.5924  1.2869 -0.2200
 5001SOL     OW15901   2.310   5.931   5.641  0.3532 -0.2373  0.3836
 5001SOL    HW115902   2.263   5.968   5.722  0.0094  0.9831 -0.3379
 5001SOL    HW215903   2.355   5.845   5.664  1.1489  0.6084  2.1504
 5002SOL     OW15904   6.552   2.377   3.502 -0.4822  0.6264  0.1803
 5002SOL    HW115905   6.616   2.363   3.577  0.9652  0.5014 -1.0077
 5002SOL    HW215906   6.598   2.428   3.429 -1.7183  0.4227 -0.7728
 5003SOL     OW15907   4.000   0.140   6.604 -0.3701  0.2311  0.2650
 5003SOL    HW115908   4.015   0.190   6.690  0.8430  0.5756 -0.1224
 5003SOL    HW215909   3.944   0.196   6.542 -1.0368  0.0878  0.7287
 5004SOL     OW15910   1.492   2.355   1.723 -0.3431 -0.9167 -0.3503
 5004SOL    HW115911   1.421   2.338   1.791 -1.6069  2.6348 -0.5753
 5004SOL    HW215912   1.457   2.335   1.632 -0.3417 -1.1188 -0.3058
 5005SOL     OW15913   5.740   1.747   6.613  0.4319 -0.2536 -0.2031
 5005SOL    HW115914   5.684   1.766   6.694  1.0023  0.8109 -0.0408
 5005SOL    HW215915   5.780   1.832   6.580  2.0088 -1.0023 -0.2932
 5006SOL     OW15916   2.386   6.440   2.480  0.1607 -0.3853 -0.4473
 5006SOL    HW115917   2.305   6.477   2.434  0.6772 -0.0335 -1.0948
 5006SOL    HW215918   2.460   6.431   2.413  1.1319  0.7296  0.4308
 5007SOL     OW15919   6.888   2.993   5.923 -0.1796  0.4423  0.4070
 5007SOL    HW115920   6.842   2.925   5.865 -1.7670  0.9703  0.9991
 5007SOL    HW215921   6.858   2.981   6.018  2.0526 -0.1337  1.1072
 5008SOL     OW15922   0.465   1.496   0.629  0.0413  0.7058  0.1294
 5008SOL    HW115923   0.451   1.505   0.531  1.4142  0.6243 -0.1068
 5008SOL    HW215924   0.472   1.586   0.671  0.0966  0.7446  0.0364
 5009SOL     OW15925   1.537   6.292   6.571 -0.2463 -0.2189 -0.7161
 5009SOL    HW115926   1.600   6.255   6.502 -0.0368 -0.0630 -0.6078
 5009SOL    HW215927   1.556   6.249   6.659 -1.1789 -1.1659 -0.9560
 5010SOL     OW15928   1.608   4.985   6.078 -0.0488 -0.0218 -0.1835
 5010SOL    HW115929   1.594   5.083   6.063 -0.4075  0.0099  0.3397
 5010SOL    HW215930   1.658   4.946   6.000  0.1516  0.5862 -0.3618
 5011SOL     OW15931   3.713   2.008   0.608 -0.2167  0.0955  0.1493
 5011SOL    HW115932   3.675   1.921   0.637 -1.9347  0.3817 -1.0945
 5011SOL    HW215933   3.745   2.001   0.513  0.9097  0.4546  0.4836
 5012SOL     OW15934   5.247   6.758   2.001  0.7119  0.0219 -0.9403
 5012SOL    HW115935   5.174   6.690   2.009  0.1300  0.5959 -1.3919
 5012SOL    HW215936   5.209   6.847   1.979  1.3759  0.7286  0.6075
 5013SOL     OW15937   5.893   6.599   6.439  0.8600  0.6174 -0.5781
 5013SOL    HW115938   5.953   6.656   6.496  2.7836 -0.9943 -0.9053
 5013SOL    HW215939   5.837   6.542   6.498  2.3836 -0.5770 -0.2233
 5014SOL     OW15940   4.256   5.283   5.551  0.2089  0.0615  0.4321
 5014SOL    HW115941   4.279   5.284   5.454  0.8163 -0.8194  0.5536
 5014SOL    HW215942   4.301   5.206   5.595  0.3986  0.7832  1.5376
 5015SOL     OW15943   2.473   1.278   3.358  0.1689  0.1181  0.6045
 5015SOL    HW115944   2.505   1.209   3.423 -0.2531  0.5263  1.2614
 5015SOL    HW215945   2.421   1.348   3.407  0.4483  0.8177 -0.0771
 5016SOL     OW15946   0.048   3.656   6.503  0.2387  0.3726  0.1321
 5016SOL    HW115947   0.018   3.635   6.596  1.6663 -2.5993  0.0351
 5016SOL    HW215948   0.005   3.592   6.439  0.4533  1.4008 -1.0886
 5017SOL     OW15949   2.859   6.083   1.534  0.6398  0.2256 -0.0234
 5017SOL    HW115950   2.791   6.073   1.462 -0.4882  2.2894  0.6699
 5017SOL    HW215951   2.855   6.004   1.595 -0.4327 -0.1463 -0.5578
 5018SOL     OW15952   1.392   2.889   3.713 -0.1974  0.4215  0.3745
 5018SOL    HW115953   1.397   2.989   3.721 -1.0789  0.8586 -2.9842
 5018SOL    HW215954   1.482   2.852   3.694  0.3797  0.3153  2.9113
 5019SOL     OW15955   6.584   6.776   2.632 -0.5254 -0.1921  0.5329
 5019SOL    HW115956   6.492   6.770   2.593  0.2916  0.4502 -1.6148
 5019SOL    HW215957   6.599   6.868   2.668 -1.0487 -0.5949  1.8375
 5020SOL     OW15958   5.700   0.738   5.695 -0.4489  0.0007 -0.3045
 5020SOL    HW115959   5.714   0.817   5.754  0.3308 -0.5016  0.2118
 5020SOL    HW215960   5.711   0.654   5.748 -0.1800 -0.4596 -1.0658
 5021SOL     OW15961   5.054   5.852   0.418 -0.4781 -0.0577  0.0512
 5021SOL    HW115962   5.036   5.940   0.375 -0.1551 -0.4845 -0.9857
 5021SOL    HW215963   5.045   5.779   0.350 -0.2517 -0.7809  0.7817
 5022SOL     OW15964   5.361   5.081   5.569  0.3702 -0.1924 -0.0785
 5022SOL    HW115965   5.268   5.093   5.603  0.6521  0.5109  0.4652
 5022SOL    HW215966   5.379   5.147   5.496  0.5494 -0.0894  0.0560
 5023SOL     OW15967   2.540   6.130   4.122  0.5384 -0.1580  0.1044
 5023SOL    HW115968   2.625   6.107   4.168  0.4116  0.3359  0.5954
 5023SOL    HW215969   2.470   6.062   4.144  0.2882  0.4254  1.1998
 5024SOL     OW15970   6.800   0.933   2.333 -0.4221  0.4942  0.0347
 5024SOL    HW115971   6.774   0.879   2.413 -0.4388 -0.8167 -0.8164
 5024SOL    HW215972   6.726   0.932   2.266  0.5575 -0.6684 -1.0956
 5025SOL     OW15973   4.573   6.230   5.660  0.2587 -0.2110  0.2416
 5025SOL    HW115974   4.606   6.298   5.726  2.0550 -0.8671  0.0580
 5025SOL    HW215975   4.607   6.251   5.569 -0.5814 -0.4296 -0.1405
 5026SOL     OW15976   2.945   6.301   3.481 -0.2419 -0.7629 -0.1616
 5026SOL    HW115977   2.867   6.239   3.483  0.4628 -1.6467  1.0349
 5026SOL    HW215978   3.001   6.288   3.563  1.5538 -0.6687 -1.3108
 5027SOL     OW15979   1.874   3.361   3.443 -0.5361 -1.1740  0.0734
 5027SOL    HW115980   1.833   3.367   3.352  0.6220 -0.3264 -0.4145
 5027SOL    HW215981   1.802   3.366   3.513 -1.4998 -2.4378 -0.7861
 5028SOL     OW15982   2.030   0.903   4.052  0.1303  0.1071 -0.4085
 5028SOL    HW115983   2.059   0.964   4.126  1.1838  1.4443 -1.8501
 5028SOL    HW215984   2.017   0.957   3.969  0.4554 -1.5718 -1.5847
 5029SOL     OW15985   6.688   2.744   6.087 -0.0868  0.7301 -0.3544
 5029SOL    HW115986   6.595   2.762   6.118 -0.3404  0.2453 -0.8317
 5029SOL    HW215987   6.743   2.827   6.097 -0.2812  0.7222  0.9386
 5030SOL     OW15988   4.648   4.508   1.805 -0.0288 -0.4195 -0.5601
 5030SOL    HW115989   4.643   4.596   1.852 -2.8694 -0.1488 -1.1599
 5030SOL    HW215990   4.733   4.462   1.828 -0.0814  0.8819  2.6756
 5031SOL     OW15991   1.933   0.042   4.997 -0.2907 -0.4239  0.0003
 5031SOL    HW115992   2.007   0.077   4.940 -0.7959  0.2519 -0.2457
 5031SOL    HW215993   1.917   0.104   5.074 -1.2057 -0.0798 -0.4546
 5032SOL     OW15994   5.951   2.338   5.005 -0.4430 -0.1358  0.0069
 5032SOL    HW115995   5.949   2.414   5.070 -0.6507 -0.3071  0.2051
 5032SOL    HW215996   5.964   2.373   4.913 -2.1465  0.2651 -0.0956
 5033SOL     OW15997   0.337   3.897   1.034  0.2847 -1.0116 -0.0947
 5033SOL    HW115998   0.403   3.937   1.097 -0.0259 -1.4084  0.4878
 5033SOL    HW215999   0.370   3.907   0.940  0.9173 -0.7379  0.1528
 5034SOL     OW16000   6.605   3.203   6.952  0.0764 -0.0661 -0.3925
 5034SOL    HW116001   6.637   3.123   7.003 -0.5021 -0.4250 -0.5893
 5034SOL    HW216002   6.505   3.208   6.957  0.0201 -0.0579 -1.4205
 5035SOL     OW16003   0.839   2.408   0.246  0.4670 -0.1199 -0.1033
 5035SOL    HW116004   0.811   2.477   0.179  0.7862 -0.2871 -0.4129
 5035SOL    HW216005   0.881   2.331   0.198 -0.2431 -0.7105  0.1978
 5036SOL     OW16006   0.609   6.631   5.133  0.2884 -0.3443 -0.4642
 5036SOL    HW116007   0.696   6.679   5.141  0.0200  0.0711  0.1132
 5036SOL    HW216008   0.543   6.673   5.196 -0.0000 -1.3761 -0.0591
 5037SOL     OW16009   1.002   5.658   1.397 -0.1191 -0.3934 -0.2090
 5037SOL    HW116010   1.020   5.589   1.327 -1.0044  0.1047 -0.9593
 5037SOL    HW216011   0.910   5.643   1.435 -1.4620  1.8870 -2.2752
 5038SOL     OW16012   4.285   2.646   5.787 -0.0559 -0.1112  0.6442
 5038SOL    HW116013   4.320   2.553   5.778 -2.4245 -0.9090 -1.4963
 5038SOL    HW216014   4.229   2.653   5.869  2.1403  0.2286  2.2028
 5039SOL     OW16015   4.817   5.170   4.962  0.0472  0.2206 -0.4428
 5039SOL    HW116016   4.745   5.106   4.938 -2.2444  2.9645 -1.5308
 5039SOL    HW216017   4.827   5.174   5.061  1.6771 -3.1066 -0.3491
 5040SOL     OW16018   5.235   6.111   3.928  0.6472  0.5163  0.0316
 5040SOL    HW116019   5.280   6.197   3.952  0.6913  0.1307  1.3895
 5040SOL    HW216020   5.225   6.054   4.009 -0.8996 -0.0699 -0.5254
 5041SOL     OW16021   3.285   2.156   1.807 -0.1357 -0.2435  0.0104
 5041SOL    HW116022   3.353   2.082   1.809  0.2671  0.0856 -0.9227
 5041SOL    HW216023   3.196   2.121   1.836 -0.1235 -1.2901 -1.1194
 5042SOL     OW16024   3.264   6.930   0.153 -0.0859 -0.2340  0.8265
 5042SOL    HW116025   3.195   6.918   0.223  0.4353  0.6597  1.5083
 5042SOL    HW216026   3.287   7.027   0.143  0.2365 -0.3933 -0.2046
 5043SOL     OW16027   2.891   0.297   5.348 -0.3626 -0.1556  0.0907
 5043SOL    HW116028   2.990   0.305   5.334 -0.4410  1.1920  0.1957
 5043SOL    HW216029   2.872   0.290   5.446 -0.3532 -0.8684  0.0467
 5044SOL     OW16030   5.895   6.731   6.709 -0.5065  0.4212  0.3723
 5044SOL    HW116031   5.815   6.718   6.651  0.3435 -0.8908 -0.5519
 5044SOL    HW216032   5.869   6.785   6.790 -2.4319 -0.4167  0.3692
 5045SOL     OW16033   1.476   4.243   6.254  0.5256  0.4799 -0.2925
 5045SOL    HW116034   1.548   4.248   6.185  0.6804 -0.4145 -0.2163
 5045SOL    HW216035   1.514   4.207   6.340 -0.0271 -0.1080 -0.2848
 5046SOL     OW16036   4.181   1.209   3.205 -0.3538  0.0533 -0.1630
 5046SOL    HW116037   4.232   1.235   3.123 -2.1779  0.8850 -1.0739
 5046SOL    HW216038   4.220   1.257   3.284 -0.6281  1.8477 -1.0720
 5047SOL     OW16039   6.742   2.440   3.864 -0.2132 -1.0070 -0.2774
 5047SOL    HW116040   6.680   2.378   3.816  1.2540 -1.9960 -0.9918
 5047SOL    HW216041   6.826   2.391   3.889 -0.3129 -0.1162  2.0286
 5048SOL     OW16042   6.930   5.492   6.870  0.2972  0.1787 -0.2378
 5048SOL    HW116043   6.861   5.456   6.807 -1.3709  0.6963  1.2169
 5048SOL    HW216044   6.892   5.570   6.920  2.5242  1.5839 -0.5722
 5049SOL     OW16045   5.774   3.371   0.783 -0.4944  0.0274 -0.8223
 5049SOL    HW116046   5.712   3.370   0.862 -1.1862 -0.7855 -1.3596
 5049SOL    HW216047   5.868   3.378   0.815 -0.8237  0.7878  0.0278
 5050SOL     OW16048   5.372   5.251   4.328 -0.1032  0.1523 -0.0748
 5050SOL    HW116049   5.278   5.240   4.363 -0.2660 -0.9735 -0.8162
 5050SOL    HW216050   5.434   5.196   4.384  0.3697  1.9666  1.2873
 5051SOL     OW16051   3.861   3.852   3.909 -0.0104 -0.3222  0.2680
 5051SOL    HW116052   3.925   3.811   3.843 -0.3720 -1.1287  0.4156
 5051SOL    HW216053   3.875   3.951   3.910  2.4626 -0.6006  1.5500
 5052SOL     OW16054   0.899   5.303   1.412 -0.0858 -0.2803  0.3505
 5052SOL    HW116055   0.979   5.330   1.465  0.0373  0.1827 -0.0689
 5052SOL    HW216056   0.924   5.230   1.349  0.1352  0.2379 -0.1623
 5053SOL     OW16057   3.493   3.657   0.165 -0.2379  0.2867 -0.2734
 5053SOL    HW116058   3.566   3.630   0.102  1.9815  1.6361  1.5553
 5053SOL    HW216059   3.491   3.596   0.243 -1.7325 -0.2664 -0.7023
 5054SOL     OW16060   2.652   4.743   4.984  0.5542 -0.0562 -0.2604
 5054SOL    HW116061   2.733   4.686   4.995 -0.1740 -0.8368  1.5557
 5054SOL    HW216062   2.678   4.839   4.979  1.7201 -0.4227 -2.2024
 5055SOL     OW16063   0.158   2.282   1.252 -0.3121  0.2840 -0.0526
 5055SOL    HW116064   0.198   2.247   1.167 -0.5932 -0.1865  0.0052
 5055SOL    HW216065   0.228   2.332   1.304  0.1427 -0.3331 -0.0583
 5056SOL     OW16066   0.448   2.347   6.147  0.4158  0.4961  0.5838
 5056SOL    HW116067   0.390   2.428   6.143 -0.6567 -0.2909 -0.2207
 5056SOL    HW216068   0.429   2.296   6.231 -0.3422  0.0522  0.1549
 5057SOL     OW16069   5.187   5.713   0.703  0.5332  0.2925  0.1458
 5057SOL    HW116070   5.222   5.756   0.619  1.5532  0.4943  0.6551
 5057SOL    HW216071   5.164   5.618   0.684  0.5128  0.4014 -0.4208
 5058SOL     OW16072   6.957   4.399   2.852  0.4984 -0.2081  0.2984
 5058SOL    HW116073   6.990   4.384   2.945 -0.3865 -1.6306  0.4201
 5058SOL    HW216074   6.857   4.396   2.851  0.5013 -0.8986 -0.7812
 5059SOL     OW16075   2.410   0.725   0.918  0.6850  0.0722  0.2755
 5059SOL    HW116076   2.414   0.795   0.989  0.5896 -1.0069  1.3758
 5059SOL    HW216077   2.427   0.636   0.958  0.3665 -0.5995 -1.0248
 5060SOL     OW16078   5.783   1.726   5.406  0.3705 -0.0581  0.3559
 5060SOL    HW116079   5.821   1.635   5.390  2.4517  0.7376  0.4619
 5060SOL    HW216080   5.810   1.758   5.497  0.0492  0.8625  0.1416
 5061SOL     OW16081   2.877   6.652   3.038 -0.1709  0.6053  0.5824
 5061SOL    HW116082   2.856   6.606   3.125 -2.8419  0.5708 -0.0111
 5061SOL    HW216083   2.968   6.623   3.007  0.5173 -0.0013  2.9415
 5062SOL     OW16084   6.340   0.692   4.884 -0.4833 -0.4334  0.1362
 5062SOL    HW116085   6.337   0.787   4.853 -0.5077 -0.3135  0.5018
 5062SOL    HW216086   6.247   0.661   4.906 -0.4741 -0.5404  0.0291
 5063SOL     OW16087   0.350   5.651   4.644 -0.6958  0.2784 -0.0001
 5063SOL    HW116088   0.277   5.716   4.623 -2.2264 -1.7683 -1.4844
 5063SOL    HW216089   0.390   5.673   4.733 -1.8088  2.5970 -0.0007
 5064SOL     OW16090   4.745   1.674   5.981 -0.1105 -0.1517 -0.3114
 5064SOL    HW116091   4.698   1.624   6.054 -0.0117  0.2032 -0.0002
 5064SOL    HW216092   4.838   1.638   5.970 -0.7390 -1.4641 -1.5465
 5065SOL     OW16093   0.918   4.353   4.731 -0.2186 -0.0364  0.5252
 5065SOL    HW116094   0.940   4.450   4.742 -0.0434 -0.2226  1.9348
 5065SOL    HW216095   0.932   4.327   4.635  1.1429  0.9767  0.4128
 5066SOL     OW16096   1.706   5.296   3.576  0.6470  0.0283 -0.4886
 5066SOL    HW116097   1.756   5.259   3.498  0.7776 -1.4453  0.2536
 5066SOL    HW216098   1.613   5.261   3.576  1.6011 -2.9179  1.8558
 5067SOL     OW16099   3.557   2.856   3.635  0.5901 -0.4996  0.2211
 5067SOL    HW116100   3.535   2.867   3.732 -0.7168 -0.6977 -0.0242
 5067SOL    HW216101   3.473   2.834   3.585  1.1758 -0.0074 -1.0167
 5068SOL     OW16102   6.094   4.958   6.928 -0.0743  0.0685 -0.3680
 5068SOL    HW116103   6.054   5.026   6.866  0.3775  0.5259 -0.1767
 5068SOL    HW216104   6.029   4.885   6.946 -0.5698  0.4550 -0.5847
 5069SOL     OW16105   0.457   3.921   6.061  0.1769 -0.3459 -0.3342
 5069SOL    HW116106   0.495   3.914   5.969  0.3499  0.7621 -0.3633
 5069SOL    HW216107   0.357   3.929   6.056  0.2333  0.3560 -0.4765
 5070SOL     OW16108   2.008   4.540   3.892  0.2411 -0.2707 -0.4942
 5070SOL    HW116109   2.019   4.476   3.968 -0.3947  0.3857  0.1666
 5070SOL    HW216110   2.098   4.567   3.859  0.5370 -0.3946  0.1790
 5071SOL     OW16111   5.122   6.756   4.780 -0.1034  0.6872  0.1536
 5071SOL    HW116112   5.205   6.779   4.729 -0.1137 -0.4295 -0.3985
 5071SOL    HW216113   5.105   6.826   4.849  0.8988  1.3021 -0.2002
 5072SOL     OW16114   5.020   2.044   4.315  0.0714  0.3123  0.6516
 5072SOL    HW116115   5.018   1.989   4.398 -1.3095 -0.8688 -0.1276
 5072SOL    HW216116   5.088   2.007   4.251 -1.8599 -1.5089 -0.4764
 5073SOL     OW16117   1.020   3.663   3.260  0.4792 -0.3721  0.0670
 5073SOL    HW116118   1.031   3.762   3.268  0.5606 -0.3825  0.0899
 5073SOL    HW216119   1.092   3.627   3.201  0.6416 -0.4578  0.3157
 5074SOL     OW16120   2.175   3.766   6.816  0.0803 -0.1490  0.4634
 5074SOL    HW116121   2.235   3.767   6.735 -0.7236 -1.2271 -0.1710
 5074SOL    HW216122   2.222   3.720   6.891  0.0123 -1.1502 -0.0852
 5075SOL     OW16123   5.792   3.136   6.628  0.1787  0.2178  0.1218
 5075SOL    HW116124   5.775   3.183   6.715 -0.8927 -0.7851  0.4651
 5075SOL    HW216125   5.734   3.177   6.557  0.4163  0.4588  0.0641
 5076SOL     OW16126   2.340   6.378   5.392 -0.0398 -0.0404 -0.0947
 5076SOL    HW116127   2.380   6.401   5.303  0.1592  3.2278  0.6842
 5076SOL    HW216128   2.243   6.360   5.382 -0.2125  1.1939 -0.9317
 5077SOL     OW16129   0.326   4.642   1.802  0.1387  1.3393 -0.0479
 5077SOL    HW116130   0.373   4.564   1.760  0.5020  1.5142  0.0275
 5077SOL    HW216131   0.381   4.676   1.879 -0.8652  0.5322  1.0805
 5078SOL     OW16132   6.228   6.086   1.713  0.0985 -0.1902  0.3050
 5078SOL    HW116133   6.219   5.986   1.720  1.7721 -0.3998  0.1087
 5078SOL    HW216134   6.174   6.129   1.785  0.5646 -1.3396  1.4023
 5079SOL     OW16135   4.600   0.549   5.892 -0.2986 -0.0331  0.1772
 5079SOL    HW116136   4.527   0.543   5.824  1.0281 -1.7348 -1.1963
 5079SOL    HW216137   4.679   0.497   5.861  0.0015 -1.8867  3.5410
 5080SOL     OW16138   3.308   2.153   6.092  0.1158 -0.2650 -0.4415
 5080SOL    HW116139   3.390   2.210   6.093  0.1190 -0.2610 -1.0090
 5080SOL    HW216140   3.305   2.099   6.176  0.7038 -0.2725 -0.4197
 5081SOL     OW16141   5.737   5.723   6.972 -0.0123 -0.2653  0.0245
 5081SOL    HW116142   5.720   5.655   6.900 -0.0839  0.8028 -0.9888
 5081SOL    HW216143   5.670   5.711   7.046 -1.6929  0.3456 -1.3491
 5082SOL     OW16144   3.076   1.600   2.681 -0.2494 -0.0480  0.4170
 5082SOL    HW116145   3.123   1.515   2.657 -1.4948 -0.7883  0.5120
 5082SOL    HW216146   3.112   1.675   2.625  1.7170 -0.3732  1.1783
 5083SOL     OW16147   6.638   4.177   5.270 -1.0041 -0.1484 -0.0298
 5083SOL    HW116148   6.635   4.105   5.340 -2.5872  0.6239  0.7633
 5083SOL    HW216149   6.688   4.256   5.306  1.0622 -0.9409 -1.0390
 5084SOL     OW16150   1.530   5.078   6.510  0.4103 -0.2786 -0.4737
 5084SOL    HW116151   1.509   5.035   6.598  0.5324  2.1216  0.7982
 5084SOL    HW216152   1.587   5.016   6.456 -0.7272 -2.3461  0.5471
 5085SOL     OW16153   4.557   1.874   1.477  0.9168 -0.0892  0.2457
 5085SOL    HW116154   4.520   1.966   1.464  1.5079  0.1769  0.4159
 5085SOL    HW216155   4.487   1.816   1.517  0.5691  0.3115  0.2294
 5086SOL     OW16156   5.988   3.222   1.577 -0.5429 -0.2862  0.8146
 5086SOL    HW116157   6.007   3.287   1.651 -0.2304 -0.6703  1.0765
 5086SOL    HW216158   5.892   3.195   1.581 -0.9177  0.9009  0.1025
 5087SOL     OW16159   0.009   1.649   4.615  0.1931 -0.4577 -0.2580
 5087SOL    HW116160   0.106   1.645   4.592  0.7328 -2.6337  1.9543
 5087SOL    HW216161  -0.045   1.617   4.537  0.9368  2.8391 -2.3484
 5088SOL     OW16162   3.928   2.933   5.256  0.0475  0.2949  0.3793
 5088SOL    HW116163   3.935   2.967   5.162  0.6281  1.2427  0.7511
 5088SOL    HW216164   3.839   2.891   5.269 -0.6598  1.5436 -0.1758
 5089SOL     OW16165   3.778   3.402   6.626  0.6144  0.3131  0.3394
 5089SOL    HW116166   3.797   3.336   6.554  1.4240 -1.8211  2.3982
 5089SOL    HW216167   3.679   3.418   6.632  0.2662 -1.6767  0.5563
 5090SOL     OW16168   5.112   3.479   5.515  0.2983 -0.0926 -0.3928
 5090SOL    HW116169   5.082   3.433   5.432 -1.0814  2.6741 -1.5631
 5090SOL    HW216170   5.120   3.577   5.498  4.1905  0.1421  1.5920
 5091SOL     OW16171   2.403   6.690   5.195 -0.1893  0.2208 -0.0832
 5091SOL    HW116172   2.490   6.639   5.200  0.0238  0.4791 -1.0150
 5091SOL    HW216173   2.345   6.650   5.124 -0.4156  0.6833 -0.1590
 5092SOL     OW16174   5.776   1.900   0.954  0.5314 -0.5794  0.4984
 5092SOL    HW116175   5.866   1.939   0.973  1.0239 -1.8183  0.8460
 5092SOL    HW216176   5.723   1.963   0.898  1.3612  0.4681  0.8630
 5093SOL     OW16177   1.802   3.622   2.484  0.2041  0.1841 -0.4072
 5093SOL    HW116178   1.754   3.566   2.552  1.3508 -3.0077 -2.0154
 5093SOL    HW216179   1.898   3.631   2.511  0.6034 -0.8805 -1.4001
 5094SOL     OW16180   1.241   1.807   6.641  0.7654  0.3322  0.5009
 5094SOL    HW116181   1.244   1.788   6.543 -1.2365 -0.1653  0.4954
 5094SOL    HW216182   1.283   1.896   6.659  0.9750  0.5207 -0.8122
 5095SOL     OW16183   6.845   0.783   2.890  0.4549 -0.5001 -0.0174
 5095SOL    HW116184   6.908   0.706   2.894  0.1286 -0.7767 -0.1600
 5095SOL    HW216185   6.752   0.749   2.879  0.5254 -0.0657 -2.7145
 5096SOL     OW16186   5.007   6.815   4.279 -0.0464 -0.1122 -0.3000
 5096SOL    HW116187   5.003   6.825   4.379 -1.3690  1.7022 -0.4682
 5096SOL    HW216188   4.958   6.733   4.252 -2.1630  0.8235  0.4319
 5097SOL     OW16189   4.582   5.061   6.232  0.1954  0.2200 -0.0109
 5097SOL    HW116190   4.537   5.011   6.306 -0.6926 -0.1942 -0.8033
 5097SOL    HW216191   4.513   5.093   6.167  0.9817  0.2850 -0.8323
 5098SOL     OW16192   1.281   0.974   0.897  0.1350 -0.0819 -0.2287
 5098SOL    HW116193   1.202   1.001   0.951  0.8664 -0.3925  1.0483
 5098SOL    HW216194   1.276   1.015   0.807  0.3029  2.8576  0.9994
 5099SOL     OW16195   1.444   6.665   1.245  0.4239 -0.0387 -0.3553
 5099SOL    HW116196   1.483   6.573   1.251  0.4765 -0.0124 -0.2869
 5099SOL    HW216197   1.352   6.660   1.207 -0.5273 -0.3855  1.8579
 5100SOL     OW16198   1.537   3.255   3.657  0.3991  0.0162  0.1763
 5100SOL    HW116199   1.487   3.234   3.741  0.9771  2.6761  1.2887
 5100SOL    HW216200   1.632   3.227   3.666  0.0137 -1.5795 -0.4482
 5101SOL     OW16201   3.123   6.078   6.065 -0.3077  0.3684  0.3195
 5101SOL    HW116202   3.023   6.079   6.057 -0.4130 -2.8757 -0.3570
 5101SOL    HW216203   3.164   6.115   5.982 -1.0181 -0.4384 -0.4167
 5102SOL     OW16204   0.708   0.488   0.114 -0.2793  0.1078  0.6531
 5102SOL    HW116205   0.617   0.447   0.101  0.7665 -1.9967 -0.5147
 5102SOL    HW216206   0.721   0.509   0.211 -1.7484 -0.2098  0.9460
 5103SOL     OW16207   6.820   2.484   4.478  0.0377  0.2560  0.7797
 5103SOL    HW116208   6.752   2.470   4.551  0.1016 -0.8069  0.6379
 5103SOL    HW216209   6.884   2.408   4.477  1.0265  1.0686  0.6633
 5104SOL     OW16210   0.223   2.147   6.600  0.0180 -0.1734  0.2647
 5104SOL    HW116211   0.150   2.080   6.617 -0.1765  0.0266  0.2289
 5104SOL    HW216212   0.247   2.192   6.685  0.6450 -0.7865  0.4191
 5105SOL     OW16213   2.854   0.913   5.764  0.2219  0.3163 -0.0794
 5105SOL    HW116214   2.833   0.982   5.695 -1.5464  0.6899  0.7779
 5105SOL    HW216215   2.798   0.832   5.747  0.9635 -0.2255 -0.0032
 5106SOL     OW16216   6.248   6.317   1.538 -1.0733  0.1771 -0.3418
 5106SOL    HW116217   6.160   6.357   1.565 -0.4763  1.7640 -0.5844
 5106SOL    HW216218   6.255   6.224   1.573 -1.7410  0.9562  2.0853
 5107SOL     OW16219   3.922   0.371   4.551 -0.0034 -0.1142 -0.0152
 5107SOL    HW116220   3.857   0.384   4.626  1.4600  1.0870  1.1138
 5107SOL    HW216221   3.964   0.281   4.558 -0.5807 -0.3933 -0.0076
 5108SOL     OW16222   4.340   1.924   5.318 -0.2829  0.2194  0.3174
 5108SOL    HW116223   4.360   1.956   5.411  1.3295 -1.2297  0.5010
 5108SOL    HW216224   4.418   1.941   5.259 -1.2877  1.1009 -0.8082
 5109SOL     OW16225   0.334   6.485   4.184  0.0447  0.3312  0.6809
 5109SOL    HW116226   0.362   6.541   4.262 -1.5404 -0.5269  1.9107
 5109SOL    HW216227   0.405   6.489   4.113 -0.0736  4.0643  0.5785
 5110SOL     OW16228   6.194   2.832   0.219  0.2041  0.1021 -0.2045
 5110SOL    HW116229   6.229   2.924   0.239 -1.6196  1.0002 -0.9495
 5110SOL    HW216230   6.194   2.817   0.121  0.2354 -0.5869 -0.0993
 5111SOL     OW16231   3.733   6.502   4.403 -0.3438  0.1296 -0.0061
 5111SOL    HW116232   3.714   6.405   4.386  0.4708  0.1924 -1.3751
 5111SOL    HW216233   3.831   6.518   4.401 -0.4733  1.0035  0.1617
 5112SOL     OW16234   4.984   0.887   6.772  0.3510 -0.2596  0.4437
 5112SOL    HW116235   4.911   0.837   6.727  0.1585 -1.1837  1.7112
 5112SOL    HW216236   4.955   0.913   6.864  0.6516  1.7485  0.0246
 5113SOL     OW16237   2.897   0.456   0.392  0.1262 -0.4232 -0.0966
 5113SOL    HW116238   2.810   0.487   0.355 -0.3946  0.1911  1.5736
 5113SOL    HW216239   2.971   0.512   0.354  0.0108 -1.7434 -2.5003
 5114SOL     OW16240   4.668   2.365   0.473  0.3051  0.0902 -0.0703
 5114SOL    HW116241   4.609   2.296   0.432  1.8306 -1.5077  0.2637
 5114SOL    HW216242   4.649   2.373   0.571  1.1220 -1.0036  0.1975
 5115SOL     OW16243   6.396   1.417   0.037  0.0913 -0.3353  0.0947
 5115SOL    HW116244   6.302   1.425   0.004 -0.3038  1.5166  1.4973
 5115SOL    HW216245   6.450   1.494   0.004  0.6324 -0.4139  0.7650
 5116SOL     OW16246   2.809   1.686   4.060 -0.2066  0.5841 -0.2644
 5116SOL    HW116247   2.715   1.666   4.030 -0.9941  2.1397  0.9818
 5116SOL    HW216248   2.874   1.648   3.994 -1.6792 -0.9325 -0.9344
 5117SOL     OW16249   6.793   3.503   2.558 -0.1574  0.6036  0.3175
 5117SOL    HW116250   6.784   3.526   2.655  0.1028  0.4412  0.3791
 5117SOL    HW216251   6.872   3.445   2.545  0.4469  1.5114 -0.1468
 5118SOL     OW16252   0.051   0.306   4.155 -0.1844 -0.0247  0.3775
 5118SOL    HW116253   0.091   0.313   4.246 -2.0958 -0.3419  1.2936
 5118SOL    HW216254   0.081   0.221   4.111  2.2152  0.9961 -0.0955
 5119SOL     OW16255   3.784   1.275   5.912 -0.3098 -0.3803 -0.6442
 5119SOL    HW116256   3.799   1.366   5.873 -0.6317  0.1520  0.4240
 5119SOL    HW216257   3.748   1.285   6.005 -0.9066 -1.6030 -0.7296
 5120SOL     OW16258   4.780   3.204   0.883  0.0067 -0.1298 -0.5998
 5120SOL    HW116259   4.874   3.192   0.849 -0.2023 -2.9377 -0.4055
 5120SOL    HW216260   4.774   3.171   0.977 -0.8219  1.7945  0.0847
 5121SOL     OW16261   6.128   6.276   1.907  0.1531  0.5901  0.2036
 5121SOL    HW116262   6.204   6.340   1.895  2.9859 -2.7122 -1.4258
 5121SOL    HW216263   6.141   6.225   1.993  0.5093 -0.7524 -0.6153
 5122SOL     OW16264   5.287   6.012   6.679  0.2115  0.5557 -0.5346
 5122SOL    HW116265   5.369   5.997   6.624  0.4055 -0.2053 -0.0484
 5122SOL    HW216266   5.228   6.079   6.633  1.5078  1.8047 -0.4456
 5123SOL     OW16267   4.175   5.878   3.192  0.1465 -0.0448 -0.3319
 5123SOL    HW116268   4.251   5.938   3.171  0.0969  0.2382  0.2732
 5123SOL    HW216269   4.205   5.783   3.190  0.5548  0.0735  0.0431
 5124SOL     OW16270   3.576   1.379   3.116  0.6167 -0.2617 -0.5076
 5124SOL    HW116271   3.628   1.403   3.198  0.0070  0.6287 -0.3720
 5124SOL    HW216272   3.527   1.459   3.083 -0.7130 -1.0923 -0.6169
 5125SOL     OW16273   3.110   3.588   5.750  0.0045  0.1844 -0.1903
 5125SOL    HW116274   3.204   3.589   5.784  0.0337  2.7008 -0.1427
 5125SOL    HW216275   3.048   3.603   5.827 -0.2950  0.4966 -0.4937
 5126SOL     OW16276   3.654   4.041   6.065  0.1906 -0.6359 -0.0330
 5126SOL    HW116277   3.751   4.059   6.044  0.2521 -1.3852 -0.4160
 5126SOL    HW216278   3.596   4.086   5.997  0.2158  0.7377  0.8214
 5127SOL     OW16279   6.075   0.749   0.604 -0.2087 -0.0088 -0.5565
 5127SOL    HW116280   6.039   0.820   0.665 -0.1234 -0.3883 -0.0613
 5127SOL    HW216281   6.148   0.788   0.548  1.7455 -0.3574  1.6341
 5128SOL     OW16282   2.125   3.360   2.896  0.4986 -0.3096 -0.0242
 5128SOL    HW116283   2.162   3.445   2.936 -0.0610  0.5904 -1.3589
 5128SOL    HW216284   2.143   3.359   2.798 -0.8155 -1.0385 -0.2752
 5129SOL     OW16285   6.353   3.160   1.355  0.1732 -0.7640 -0.4299
 5129SOL    HW116286   6.345   3.145   1.257 -1.4419  0.2581 -0.4960
 5129SOL    HW216287   6.311   3.083   1.404  0.9988 -1.2843 -0.5259
 5130SOL     OW16288   1.039   2.760   2.658  0.5290  0.4950 -0.3260
 5130SOL    HW116289   1.005   2.831   2.719 -0.8350  1.2928 -1.9470
 5130SOL    HW216290   1.068   2.801   2.571  0.3682 -0.8331 -1.0344
 5131SOL     OW16291   3.035   1.970   6.743  0.2684 -0.6538 -0.1924
 5131SOL    HW116292   2.987   2.052   6.713  0.7185  0.5423  2.1860
 5131SOL    HW216293   2.969   1.895   6.754 -0.8130  0.4620  1.2797
 5132SOL     OW16294   6.803   0.992   0.794  0.5262  0.0398  0.7932
 5132SOL    HW116295   6.878   1.045   0.833  0.6706 -0.7003  1.5646
 5132SOL    HW216296   6.716   1.029   0.825  0.5824  0.5745  0.3270
 5133SOL     OW16297   6.653   1.628   5.196  0.0757 -0.0325 -0.0226
 5133SOL    HW116298   6.597   1.692   5.144 -2.3995 -3.2026 -1.6917
 5133SOL    HW216299   6.733   1.602   5.143 -0.0555  0.0988 -0.2848
 5134SOL     OW16300   3.984   3.500   1.481 -0.1337  0.5832  0.0268
 5134SOL    HW116301   4.038   3.496   1.565  0.8840  0.1740 -0.6317
 5134SOL    HW216302   4.014   3.577   1.426 -1.4082  1.3980  0.4155
 5135SOL     OW16303   4.424   5.102   5.387 -0.3844 -0.2660 -0.1799
 5135SOL    HW116304   4.469   5.098   5.298 -0.7165 -0.6503 -0.3318
 5135SOL    HW216305   4.492   5.120   5.458  0.3274 -2.5583 -0.1900
 5136SOL     OW16306   4.797   5.558   0.053  0.9311  0.0953  0.5408
 5136SOL    HW116307   4.883   5.554   0.001  0.5702 -0.1134 -0.0479
 5136SOL    HW216308   4.795   5.484   0.120  1.0326 -0.1525  0.2728
 5137SOL     OW16309   4.686   5.644   3.398 -0.1555  0.6388  0.0747
 5137SOL    HW116310   4.648   5.551   3.391 -0.0201  0.6282 -0.5623
 5137SOL    HW216311   4.785   5.638   3.409 -0.0719  0.7172 -0.5925
 5138SOL     OW16312   2.549   6.251   3.292  0.5621  0.1580 -0.4351
 5138SOL    HW116313   2.628   6.249   3.230  0.3670 -1.4042 -0.6769
 5138SOL    HW216314   2.547   6.339   3.340  1.5997  0.8025 -1.4992
 5139SOL     OW16315   4.113   1.100   1.415 -0.6798 -0.6043 -0.0076
 5139SOL    HW116316   4.041   1.165   1.389 -2.5791 -2.7405 -0.3427
 5139SOL    HW216317   4.094   1.065   1.507 -0.5237 -1.7979 -0.4244
 5140SOL     OW16318   6.950   5.718   5.864 -0.2214 -0.7127 -0.6368
 5140SOL    HW116319   7.008   5.655   5.812 -1.9570 -1.6964 -1.4489
 5140SOL    HW216320   6.927   5.797   5.808 -0.4723 -0.7980 -0.6524
 5141SOL     OW16321   3.135   6.977   5.754 -0.0053  0.3682 -0.5867
 5141SOL    HW116322   3.058   6.931   5.798  0.7197 -0.5264 -0.2185
 5141SOL    HW216323   3.102   7.031   5.677 -0.7309 -2.4367 -2.4112
 5142SOL     OW16324   3.202   5.662   4.205 -0.1098 -0.2091  0.0339
 5142SOL    HW116325   3.243   5.690   4.292  0.7544 -0.2572 -0.3581
 5142SOL    HW216326   3.265   5.603   4.155 -0.4492  0.1127 -0.7956
 5143SOL     OW16327   1.474   2.669   5.221  0.4755  0.1425 -0.6092
 5143SOL    HW116328   1.383   2.673   5.262  0.7113 -1.4833  0.1466
 5143SOL    HW216329   1.467   2.631   5.129  0.5771 -2.5882  0.3938
 5144SOL     OW16330   6.162   2.817   6.677  0.5510 -0.4498 -0.6910
 5144SOL    HW116331   6.144   2.870   6.595  1.3046 -2.1453 -2.0177
 5144SOL    HW216332   6.209   2.874   6.745 -0.4290  1.0805 -1.2687
 5145SOL     OW16333   2.927   3.831   6.774 -0.1667 -0.0944 -0.7033
 5145SOL    HW116334   2.961   3.745   6.810  0.0851 -0.2256 -1.2444
 5145SOL    HW216335   2.897   3.889   6.850 -1.0559 -0.9514 -0.3856
 5146SOL     OW16336   1.557   0.347   6.401  0.4525 -0.4133  0.0024
 5146SOL    HW116337   1.470   0.386   6.432  1.4193  1.9145 -0.0757
 5146SOL    HW216338   1.550   0.324   6.304  0.1975  0.5967 -0.2243
 5147SOL     OW16339   2.546   0.641   4.646 -0.4748 -0.7949  0.4417
 5147SOL    HW116340   2.576   0.704   4.718 -0.7015 -3.4139  3.0012
 5147SOL    HW216341   2.627   0.598   4.605 -0.2608  1.6494 -1.9578
 5148SOL     OW16342   4.585   0.344   4.086  0.5571  0.1868  0.2485
 5148SOL    HW116343   4.648   0.270   4.061 -0.0169 -0.8785  1.8159
 5148SOL    HW216344   4.492   0.319   4.059  0.2377 -0.0699  1.5311
 5149SOL     OW16345   4.116   4.825   3.612 -0.4961 -0.2187  0.5671
 5149SOL    HW116346   4.029   4.824   3.660 -0.4299 -1.3529  0.7006
 5149SOL    HW216347   4.101   4.845   3.515 -0.7860  0.5650  0.7649
 5150SOL     OW16348   0.337   2.260   0.452 -1.0242 -0.2529 -0.7376
 5150SOL    HW116349   0.321   2.167   0.417 -1.2703 -0.9301  1.0703
 5150SOL    HW216350   0.364   2.255   0.548  0.4152  1.4829 -1.0106
 5151SOL     OW16351   6.604   1.506   1.257  0.3341  0.1563 -0.2777
 5151SOL    HW116352   6.555   1.593   1.255 -0.1131 -0.0573 -3.0611
 5151SOL    HW216353   6.549   1.438   1.305 -0.3539  0.8520 -0.0485
 5152SOL     OW16354   5.595   6.817   4.369  0.4078 -0.8879 -0.2641
 5152SOL    HW116355   5.581   6.718   4.361 -0.4615 -0.7047 -1.1753
 5152SOL    HW216356   5.693   6.837   4.360  0.5462 -1.6227 -0.5373
 5153SOL     OW16357   6.415   6.397   3.241  0.3683 -0.4705 -0.0338
 5153SOL    HW116358   6.367   6.469   3.190  0.5226 -0.1578  0.2508
 5153SOL    HW216359   6.490   6.361   3.186 -0.3493 -1.1466 -0.5845
 5154SOL     OW16360   3.394   0.175   6.504  0.0767  0.2828 -0.1951
 5154SOL    HW116361   3.477   0.124   6.482  0.1449 -0.2645  1.1910
 5154SOL    HW216362   3.406   0.271   6.480  1.5413  0.4216  0.9466
 5155SOL     OW16363   3.173   3.757   0.564  0.3103  0.1122  0.0698
 5155SOL    HW116364   3.093   3.814   0.547  0.9642  1.9029  2.5250
 5155SOL    HW216365   3.251   3.791   0.512  0.8066  1.8684  1.8307
 5156SOL     OW16366   1.209   4.381   1.687 -0.0355  0.2830  0.6942
 5156SOL    HW116367   1.236   4.289   1.716  1.3064  0.8865  1.4731
 5156SOL    HW216368   1.133   4.414   1.743 -1.1557 -0.6874 -0.2108
 5157SOL     OW16369   6.858   0.180   6.757  0.5583 -0.0411 -0.0969
 5157SOL    HW116370   6.860   0.205   6.660  1.7511 -1.5856 -0.5202
 5157SOL    HW216371   6.831   0.259   6.812 -1.4354  0.5386 -1.7760
 5158SOL     OW16372   0.569   6.423   6.060 -0.4969  0.1907 -0.1055
 5158SOL    HW116373   0.627   6.424   5.979 -1.3051  1.7289 -0.7006
 5158SOL    HW216374   0.501   6.350   6.051  0.2597 -0.5329 -0.1561
 5159SOL     OW16375   1.402   0.019   5.242  0.3235  0.2519 -0.2087
 5159SOL    HW116376   1.409   0.045   5.146 -0.0310  1.4155  0.0624
 5159SOL    HW216377   1.443   0.090   5.299  1.1253 -0.7374  0.4767
 5160SOL     OW16378   4.890   4.741   2.368 -0.6236  0.2126  0.1678
 5160SOL    HW116379   4.844   4.751   2.457  0.1671  1.5999  0.4541
 5160SOL    HW216380   4.980   4.701   2.382 -0.7200 -0.0950 -0.0878
 5161SOL     OW16381   4.238   6.458   3.673  0.2041  0.2675  0.2474
 5161SOL    HW116382   4.203   6.524   3.606  3.3794  1.2519 -0.5936
 5161SOL    HW216383   4.291   6.507   3.743 -1.5319 -0.9399  2.5409
 5162SOL     OW16384   1.545   3.337   6.984  0.2045  0.4323  0.2112
 5162SOL    HW116385   1.559   3.251   7.032  0.4494  1.3691  1.8710
 5162SOL    HW216386   1.574   3.327   6.888 -0.3567 -1.4804  0.2061
 5163SOL     OW16387   1.206   2.754   1.723  0.1193  0.1610  0.3493
 5163SOL    HW116388   1.174   2.742   1.629  1.6054  2.0692 -0.4717
 5163SOL    HW216389   1.150   2.824   1.769  0.8393  0.9398  0.0722
 5164SOL     OW16390   0.686   3.715   3.514 -0.4197  0.1421 -0.0408
 5164SOL    HW116391   0.709   3.676   3.425 -0.5215 -0.9790  0.4040
 5164SOL    HW216392   0.752   3.682   3.582 -1.2082 -0.1985  0.5684
 5165SOL     OW16393   0.481   6.159   5.830 -0.0098  0.1140  0.0107
 5165SOL    HW116394   0.533   6.074   5.836  1.6429  0.9662 -1.2803
 5165SOL    HW216395   0.443   6.169   5.738  0.8437  1.3146 -0.2364
 5166SOL     OW16396   1.233   5.521   0.180 -0.9164 -0.0050  0.4107
 5166SOL    HW116397   1.238   5.422   0.171 -1.3900  0.1095 -1.4605
 5166SOL    HW216398   1.317   5.555   0.224 -0.7577 -1.2124  1.0749
 5167SOL     OW16399   6.356   4.664   2.255 -0.0415 -0.2340  0.2350
 5167SOL    HW116400   6.337   4.683   2.159 -0.6264  1.4560  0.6494
 5167SOL    HW216401   6.292   4.594   2.288  0.7233 -1.4721 -0.7885
 5168SOL     OW16402   4.446   1.970   6.265 -0.1044 -0.2069  0.2748
 5168SOL    HW116403   4.392   2.054   6.265  0.9195  0.4749  0.9913
 5168SOL    HW216404   4.436   1.924   6.353  0.1835 -0.2746  0.2739
 5169SOL     OW16405   6.270   4.742   6.865  0.2642 -0.2257  0.3736
 5169SOL    HW116406   6.278   4.739   6.765 -0.2391 -1.7663  0.3477
 5169SOL    HW216407   6.213   4.820   6.892  0.6229  0.3579 -0.5120
 5170SOL     OW16408   1.252   3.303   5.409 -0.1399  0.7776  0.0586
 5170SOL    HW116409   1.278   3.264   5.320 -0.0782 -0.0432  0.4300
 5170SOL    HW216410   1.277   3.240   5.482  0.9932  2.0218  0.7792
 5171SOL     OW16411   1.953   6.872   1.580  0.1751  1.0096 -0.0944
 5171SOL    HW116412   1.965   6.806   1.654  3.4077  0.2694 -1.0915
 5171SOL    HW216413   1.885   6.838   1.515  1.2701 -1.0582 -0.2307
 5172SOL     OW16414   5.028   2.833   5.744 -0.1605 -0.1465  0.0287
 5172SOL    HW116415   5.112   2.779   5.740 -0.4853 -0.6279 -0.5677
 5172SOL    HW216416   5.018   2.885   5.659 -1.9723 -2.4527 -1.2930
 5173SOL     OW16417   6.643   6.766   2.177  0.1781  0.3922 -0.1863
 5173SOL    HW116418   6.630   6.690   2.113 -0.9642 -0.1676  0.6807
 5173SOL    HW216419   6.640   6.853   2.127  2.4543 -0.1290 -1.3308
 5174SOL     OW16420   0.253   3.024   0.055 -0.5255  0.2017  0.4718
 5174SOL    HW116421   0.277   3.035  -0.041 -3.6739  1.8044 -0.2519
 5174SOL    HW216422   0.278   2.931   0.084  1.0380 -0.1367 -1.6562
 5175SOL     OW16423   4.983   5.710   5.044 -0.2913  0.2206 -0.1737
 5175SOL    HW116424   5.081   5.689   5.046 -0.2616  0.3649 -0.0843
 5175SOL    HW216425   4.953   5.723   4.950 -0.3232 -0.2841 -0.2334
 5176SOL     OW16426   6.559   4.922   1.759  0.0778  0.3986 -0.1517
 5176SOL    HW116427   6.498   5.001   1.768  0.3131  0.4416  1.2708
 5176SOL    HW216428   6.518   4.855   1.697  0.0961  1.8329 -1.7809
 5177SOL     OW16429   1.959   2.968   1.740  0.1096 -0.6482 -0.5037
 5177SOL    HW116430   2.045   3.016   1.726 -0.7193  0.8577 -0.7399
 5177SOL    HW216431   1.944   2.903   1.666  0.0066  0.7107 -1.7173
 5178SOL     OW16432   3.674   5.322   4.139  0.1419 -0.7561 -0.2776
 5178SOL    HW116433   3.623   5.353   4.059 -1.8459 -2.3014  0.2854
 5178SOL    HW216434   3.641   5.371   4.220  1.1198 -0.2199 -0.1978
 5179SOL     OW16435   5.543   2.581   5.854 -0.6426 -0.3551  0.2451
 5179SOL    HW116436   5.504   2.655   5.908  1.1223  0.9129 -0.1181
 5179SOL    HW216437   5.606   2.527   5.910 -1.5559 -1.2967  0.3812
 5180SOL     OW16438   6.501   5.508   1.620  0.3416  0.3163 -0.1489
 5180SOL    HW116439   6.576   5.466   1.570  1.2225  1.6098  0.0504
 5180SOL    HW216440   6.508   5.485   1.717  0.4854  0.4399 -0.1299
 5181SOL     OW16441   5.577   4.599   1.994 -0.1258 -0.2870 -0.0010
 5181SOL    HW116442   5.487   4.605   1.950  0.1590 -0.5410 -0.6299
 5181SOL    HW216443   5.565   4.584   2.092 -0.7738  0.2585  0.0164
 5182SOL     OW16444   4.972   0.276   0.742 -0.4937  0.7210  0.5777
 5182SOL    HW116445   4.975   0.181   0.774 -1.0546  0.5704  0.2103
 5182SOL    HW216446   5.006   0.280   0.648  1.1206  1.1549  1.1453
 5183SOL     OW16447   1.508   6.364   0.793  0.4509 -0.3665 -1.2226
 5183SOL    HW116448   1.440   6.432   0.765  1.3212  1.1904  0.2584
 5183SOL    HW216449   1.499   6.346   0.891  2.2808  0.0185 -0.9534
 5184SOL     OW16450   2.849   1.197   0.128 -0.2385  0.2977  0.2865
 5184SOL    HW116451   2.761   1.243   0.126 -1.5481 -2.0354 -0.8944
 5184SOL    HW216452   2.892   1.202   0.038 -0.7069 -1.2159 -0.0556
 5185SOL     OW16453   5.195   4.503   1.004 -0.0734  0.0135  0.0892
 5185SOL    HW116454   5.177   4.422   1.060  0.2771  0.0914  0.3211
 5185SOL    HW216455   5.196   4.478   0.907 -0.2722 -0.2010  0.1434
 5186SOL     OW16456   3.911   4.503   6.752 -0.3587 -0.3671  0.2008
 5186SOL    HW116457   3.838   4.478   6.688  0.5085 -1.4182 -0.4035
 5186SOL    HW216458   3.878   4.492   6.846 -1.6578  1.2332 -0.0157
 5187SOL     OW16459   4.231   6.070   3.698  0.6461  0.3420 -0.4119
 5187SOL    HW116460   4.138   6.094   3.728  1.1639  0.8666  0.8416
 5187SOL    HW216461   4.262   5.989   3.747 -0.0274 -1.3510 -2.6062
 5188SOL     OW16462   0.490   5.734   1.553  0.2428 -0.6084 -0.2475
 5188SOL    HW116463   0.442   5.717   1.639  0.0332  0.4085 -0.1605
 5188SOL    HW216464   0.430   5.710   1.476 -0.6782  1.2674 -0.1540
 5189SOL     OW16465   2.613   6.661   1.689  0.0122  0.5508 -0.1658
 5189SOL    HW116466   2.524   6.697   1.715  0.5993 -0.0315  3.0781
 5189SOL    HW216467   2.601   6.578   1.634 -1.4744  0.1060  0.7808
 5190SOL     OW16468   5.678   5.136   6.888  0.3762  0.1544  0.2719
 5190SOL    HW116469   5.671   5.108   6.793  0.9152 -0.1482  0.3114
 5190SOL    HW216470   5.707   5.057   6.943  1.1483  0.5929  0.5070
 5191SOL     OW16471   6.687   3.714   1.132 -0.0374 -0.9078 -0.3633
 5191SOL    HW116472   6.684   3.706   1.032  0.3948  0.4142 -0.5019
 5191SOL    HW216473   6.779   3.691   1.164  0.3422  0.3383 -0.4734
 5192SOL     OW16474   0.443   1.291   0.803 -0.0941  0.3819  0.5741
 5192SOL    HW116475   0.457   1.375   0.751  0.8111  0.5725  1.0890
 5192SOL    HW216476   0.389   1.311   0.885  0.0813  0.4572  0.6723
 5193SOL     OW16477   3.722   5.090   0.685  0.8265  0.4489 -0.9335
 5193SOL    HW116478   3.729   4.999   0.726 -1.5883  0.1116 -1.0741
 5193SOL    HW216479   3.708   5.158   0.756  1.3479  0.5273 -0.9065
 5194SOL     OW16480   1.351   2.881   3.154 -0.1259 -0.3586 -0.5187
 5194SOL    HW116481   1.388   2.971   3.179 -1.6301  0.1671 -0.0685
 5194SOL    HW216482   1.264   2.893   3.106 -0.4692 -1.5830 -0.2369
 5195SOL     OW16483   6.027   4.033   4.671  0.1417  0.4630 -0.2156
 5195SOL    HW116484   5.995   3.959   4.612  1.3744  0.7421 -1.2987
 5195SOL    HW216485   6.115   4.007   4.711 -0.2131  0.6845  0.7149
 5196SOL     OW16486   4.481   6.001   0.352  0.2052  0.0969 -0.2871
 5196SOL    HW116487   4.471   6.080   0.292  2.9418  0.0928 -0.8863
 5196SOL    HW216488   4.574   5.965   0.345  0.8180  0.2175  4.0706
 5197SOL     OW16489   3.316   6.076   2.401 -0.0200 -0.1272  0.1706
 5197SOL    HW116490   3.402   6.027   2.415  0.0908 -0.6214 -1.9723
 5197SOL    HW216491   3.262   6.029   2.332 -1.6845  0.6295  0.9050
 5198SOL     OW16492   0.978   0.058   2.594  0.1497 -0.1620 -0.6840
 5198SOL    HW116493   0.901   0.048   2.530  0.6197  0.3258 -1.3452
 5198SOL    HW216494   0.948   0.112   2.673 -0.1382  0.1887 -1.0267
 5199SOL     OW16495   0.153   6.390   0.971 -0.2490 -0.0804 -0.6167
 5199SOL    HW116496   0.148   6.314   0.906 -0.6257 -0.2213 -0.4287
 5199SOL    HW216497   0.199   6.468   0.928  0.0365 -0.3768 -0.8487
 5200SOL     OW16498   2.334   1.915   5.533  0.0572 -0.3320  0.0070
 5200SOL    HW116499   2.264   1.979   5.502  1.6388  0.6500 -1.7408
 5200SOL    HW216500   2.310   1.823   5.504 -0.7831 -0.1042 -0.0639
 5201SOL     OW16501   6.443   5.429   0.103 -0.1580  0.2553  0.1684
 5201SOL    HW116502   6.509   5.419   0.028  2.0892 -0.7412  2.1263
 5201SOL    HW216503   6.369   5.489   0.074  1.7048  1.6504 -2.1415
 5202SOL     OW16504   0.668   6.582   1.263 -0.9677  0.0592 -0.0325
 5202SOL    HW116505   0.628   6.616   1.178 -1.0581 -1.9116 -0.8321
 5202SOL    HW216506   0.595   6.552   1.324 -0.8819  1.0863  0.5978
 5203SOL     OW16507   0.603   5.998   5.082  0.3093  0.1883  0.0836
 5203SOL    HW116508   0.697   5.965   5.093  0.1234 -0.4641 -0.1920
 5203SOL    HW216509   0.550   5.976   5.164  0.7704  1.9330  0.8837
 5204SOL     OW16510   2.879   1.211   1.433 -0.0097 -0.4315  0.1780
 5204SOL    HW116511   2.832   1.221   1.521 -2.0343  0.2373 -0.9048
 5204SOL    HW216512   2.826   1.257   1.361  3.0115  1.6087 -0.9725
 5205SOL     OW16513   1.943   2.902   3.453 -0.3985  0.8843 -0.4143
 5205SOL    HW116514   1.934   2.802   3.452 -1.0486  0.9411 -1.0424
 5205SOL    HW216515   2.017   2.928   3.516 -2.1307  0.1609  2.0607
 5206SOL     OW16516   0.970   2.481   2.083 -0.4926 -0.2051 -0.3875
 5206SOL    HW116517   1.003   2.501   2.176 -1.5746 -0.8628  0.1672
 5206SOL    HW216518   1.047   2.480   2.020  0.5952 -1.8252  0.8629
 5207SOL     OW16519   4.578   0.307   3.611  0.2326  0.3813  0.4711
 5207SOL    HW116520   4.508   0.280   3.678  0.9461  1.6017  1.7572
 5207SOL    HW216521   4.585   0.407   3.608  0.2425  0.3709 -1.4473
 5208SOL     OW16522   0.227   1.664   1.089  0.1666  0.3997  0.3216
 5208SOL    HW116523   0.142   1.684   1.041 -0.4625  0.5788  1.4916
 5208SOL    HW216524   0.220   1.575   1.134  0.0197  1.0818  1.6793
 5209SOL     OW16525   2.944   3.756   5.939 -0.1473  0.2025  0.7694
 5209SOL    HW116526   2.894   3.784   6.021 -0.2054  1.9162  0.1947
 5209SOL    HW216527   2.923   3.819   5.864  1.0501 -0.4402 -0.1394
 5210SOL     OW16528   6.883   4.072   6.313  0.0439 -0.4096  0.0052
 5210SOL    HW116529   6.963   4.013   6.324 -0.5240 -1.1203  0.4281
 5210SOL    HW216530   6.913   4.166   6.296  0.9826 -0.4772  1.1435
 5211SOL     OW16531   0.018   6.291   4.297 -0.3083  0.2136 -0.4560
 5211SOL    HW116532   0.074   6.209   4.282 -0.6085 -0.0783 -0.0043
 5211SOL    HW216533   0.078   6.369   4.314 -0.0235  0.0458 -0.6617
 5212SOL     OW16534   0.889   0.629   6.971  0.0087  0.3320  0.0556
 5212SOL    HW116535   0.825   0.559   7.002 -1.4841  1.5629 -0.1289
 5212SOL    HW216536   0.963   0.586   6.919 -0.8829 -1.0815 -0.0916
 5213SOL     OW16537   3.576   4.891   5.857 -0.0502 -0.0276 -0.0816
 5213SOL    HW116538   3.560   4.965   5.922 -0.2048 -0.9528  0.9417
 5213SOL    HW216539   3.541   4.918   5.767 -1.0390  0.7299  0.5185
 5214SOL     OW16540   5.719   2.624   3.719  0.1127  0.1327  0.2395
 5214SOL    HW116541   5.620   2.626   3.712  0.2470  0.7647 -4.3797
 5214SOL    HW216542   5.750   2.529   3.728 -0.8867 -0.1711  0.5390
 5215SOL     OW16543   0.494   6.009   4.233  0.4368  0.3159  0.2219
 5215SOL    HW116544   0.457   6.095   4.267 -0.4244 -0.1436  0.4990
 5215SOL    HW216545   0.478   5.937   4.302  0.5995 -0.1873 -0.2595
 5216SOL     OW16546   1.336   5.252   6.762 -0.4628 -0.7626  0.3446
 5216SOL    HW116547   1.338   5.314   6.683  0.6818 -0.7545  0.3686
 5216SOL    HW216548   1.391   5.290   6.836 -1.2689 -0.9272  1.0444
 5217SOL     OW16549   1.743   1.856   2.837  0.2839 -0.5214  0.6754
 5217SOL    HW116550   1.762   1.831   2.932  0.8296  2.8724  1.5881
 5217SOL    HW216551   1.818   1.911   2.801 -1.0729  0.4346 -0.8451
 5218SOL     OW16552   6.397   3.825   0.880 -0.3244  0.2246 -0.7737
 5218SOL    HW116553   6.444   3.899   0.928 -0.6201  0.3038 -0.6004
 5218SOL    HW216554   6.417   3.738   0.925 -0.0260  0.2068 -0.9404
 5219SOL     OW16555   5.737   3.675   5.910 -0.3986  0.4587  0.2531
 5219SOL    HW116556   5.706   3.743   5.977 -1.5635  0.0862  0.1030
 5219SOL    HW216557   5.753   3.588   5.955 -0.4683  0.4029  0.1705
 5220SOL     OW16558   4.068   6.814   6.274 -0.1088  0.3951  0.0466
 5220SOL    HW116559   3.990   6.841   6.217 -1.0066  0.9651  1.4834
 5220SOL    HW216560   4.113   6.896   6.309  1.6844  0.0967 -1.4010
 5221SOL     OW16561   4.406   6.348   1.885  0.4295 -0.0317  0.2323
 5221SOL    HW116562   4.420   6.298   1.799 -0.6696  2.8090 -1.7432
 5221SOL    HW216563   4.495   6.364   1.928  1.2034 -0.1120 -1.2500
 5222SOL     OW16564   0.317   3.702   4.761  0.0441  0.6847  0.3611
 5222SOL    HW116565   0.344   3.739   4.672  0.8355 -1.1169 -0.1879
 5222SOL    HW216566   0.238   3.642   4.749  0.0281  0.5939  0.8993
 5223SOL     OW16567   1.260   6.507   4.240 -0.4895 -0.2133  0.3575
 5223SOL    HW116568   1.193   6.493   4.167  0.1573  1.1474 -0.5389
 5223SOL    HW216569   1.345   6.542   4.201 -0.3844  1.2927  1.8397
 5224SOL     OW16570   4.715   3.085   5.223 -0.3093 -0.4239 -0.0267
 5224SOL    HW116571   4.727   3.062   5.126 -1.0922  0.6064 -0.3872
 5224SOL    HW216572   4.747   3.178   5.240  0.2194 -0.7507  0.8034
 5225SOL     OW16573   4.677   1.772   1.951  0.2261 -0.1237 -0.0298
 5225SOL    HW116574   4.579   1.754   1.943 -0.0296  1.1067  0.1748
 5225SOL    HW216575   4.700   1.787   2.047  0.3221  1.1433 -0.2427
 5226SOL     OW16576   1.829   3.542   2.196  0.3895  0.9006 -0.1320
 5226SOL    HW116577   1.814   3.570   2.291 -3.6604  0.1408 -0.3855
 5226SOL    HW216578   1.787   3.609   2.134  0.6157  0.0448 -1.2515
 5227SOL     OW16579   0.221   3.244   2.090  0.5788 -0.0893 -0.2712
 5227SOL    HW116580   0.253   3.160   2.134  0.8291  0.9736  1.6942
 5227SOL    HW216581   0.290   3.316   2.101 -0.4959  0.9487 -0.0742
 5228SOL     OW16582   1.430   3.981   5.974  0.0469 -0.0977 -0.2432
 5228SOL    HW116583   1.524   3.986   6.009  0.2506 -0.1479 -0.7860
 5228SOL    HW216584   1.431   3.979   5.875 -0.5513  0.3149 -0.2642
 5229SOL     OW16585   3.151   1.704   0.070  0.1505  0.2017  0.0375
 5229SOL    HW116586   3.166   1.729   0.166 -1.4094 -0.3520  0.4548
 5229SOL    HW216587   3.059   1.732   0.043  0.3427 -0.2452 -1.1066
 5230SOL     OW16588   1.658   0.506   5.271  0.0326 -0.2565  0.6235
 5230SOL    HW116589   1.637   0.512   5.173 -1.3636  0.1496  0.9275
 5230SOL    HW216590   1.756   0.495   5.283  0.3965  1.0075 -0.7924
 5231SOL     OW16591   3.702   1.566   1.121  0.6115 -0.2762  0.0653
 5231SOL    HW116592   3.697   1.487   1.060 -0.7580  0.2464 -0.5664
 5231SOL    HW216593   3.664   1.542   1.210  2.2007 -0.9152  0.6013
 5232SOL     OW16594   3.724   5.128   3.106  0.0688 -0.6581 -0.2165
 5232SOL    HW116595   3.722   5.198   3.034  3.3471 -0.2049 -0.0443
 5232SOL    HW216596   3.741   5.172   3.194 -0.6382 -1.4676  0.3298
 5233SOL     OW16597   2.678   3.073   6.413  0.3042 -0.1407 -0.5135
 5233SOL    HW116598   2.587   3.084   6.452  0.5012 -0.2928 -0.0017
 5233SOL    HW216599   2.743   3.129   6.463  0.3804  0.5078 -1.3171
 5234SOL     OW16600   4.177   6.506   5.809  0.5411  0.1505 -0.0334
 5234SOL    HW116601   4.128   6.563   5.875 -0.6437 -0.1960 -0.5904
 5234SOL    HW216602   4.247   6.453   5.856 -1.4343 -1.4329  1.2912
 5235SOL     OW16603   3.890   4.836   5.138 -0.3757 -0.6905  0.3758
 5235SOL    HW116604   3.910   4.742   5.166 -1.7876 -1.2597 -0.4175
 5235SOL    HW216605   3.878   4.893   5.219  3.4907 -0.4370  0.9157
 5236SOL     OW16606   0.424   1.693   4.037 -0.1352  0.0291  0.0443
 5236SOL    HW116607   0.355   1.656   4.100 -0.5484 -0.7972 -0.8651
 5236SOL    HW216608   0.428   1.792   4.048  0.9722 -0.2023  2.5240
 5237SOL     OW16609   5.250   4.447   1.434 -0.8865  0.1099 -0.5080
 5237SOL    HW116610   5.293   4.410   1.516 -0.1247  1.7564 -0.1233
 5237SOL    HW216611   5.266   4.385   1.357 -0.8689 -1.0222  0.3866
 5238SOL     OW16612   1.098   4.572   5.328 -0.3494 -0.1222  0.2492
 5238SOL    HW116613   1.086   4.669   5.350  0.0701 -0.2346  1.0134
 5238SOL    HW216614   1.094   4.560   5.228  2.1593  1.0799 -0.0858
 5239SOL     OW16615   6.002   4.411   1.124  0.2641 -0.2592  0.5390
 5239SOL    HW116616   5.963   4.388   1.035  0.2543 -0.4643  0.5961
 5239SOL    HW216617   5.932   4.399   1.195  0.3091 -0.2214  0.5905
 5240SOL     OW16618   6.653   6.250   4.077 -0.0450 -0.2053  0.0542
 5240SOL    HW116619   6.617   6.285   3.991  0.8360  0.4388 -0.0592
 5240SOL    HW216620   6.697   6.323   4.128  1.9044 -1.1423 -0.2131
 5241SOL     OW16621   1.191   4.876   0.472 -0.0484 -0.3770 -0.0848
 5241SOL    HW116622   1.196   4.976   0.480  0.3888 -0.3553 -0.5502
 5241SOL    HW216623   1.160   4.852   0.379 -0.1534 -0.6749  0.0276
 5242SOL     OW16624   1.468   1.756   0.604  0.2238  0.4111  0.3471
 5242SOL    HW116625   1.544   1.756   0.669  0.0627 -0.9652  0.5717
 5242SOL    HW216626   1.504   1.753   0.511  0.5723 -3.1045  0.4537
 5243SOL     OW16627   3.532   6.289   3.612 -0.1934 -0.2323  0.1112
 5243SOL    HW116628   3.625   6.310   3.583  0.5304 -1.7276  1.2026
 5243SOL    HW216629   3.512   6.336   3.698 -0.2496 -0.3358  0.1552
 5244SOL     OW16630   5.423   2.240   5.277 -0.1845  0.1839 -0.3911
 5244SOL    HW116631   5.360   2.318   5.286 -2.3905 -1.7166  2.6471
 5244SOL    HW216632   5.503   2.256   5.335 -1.7887 -0.6877  2.2251
 5245SOL     OW16633   5.660   4.368   2.539  0.1804 -0.4668 -0.3331
 5245SOL    HW116634   5.721   4.302   2.582 -1.2228 -0.8558  1.1304
 5245SOL    HW216635   5.705   4.458   2.538  1.5230 -1.1090 -1.0441
 5246SOL     OW16636   0.125   2.099   6.914  0.2036 -0.0149  0.6860
 5246SOL    HW116637   0.026   2.083   6.905 -0.1101  0.0427  3.2541
 5246SOL    HW216638   0.141   2.195   6.938  0.6962 -0.4843  2.3140
 5247SOL     OW16639   2.510   6.719   5.588 -0.4226  0.4258 -0.2044
 5247SOL    HW116640   2.501   6.772   5.504  1.1903  0.1336 -0.5882
 5247SOL    HW216641   2.605   6.691   5.600 -0.8057 -0.3581  1.2270
 5248SOL     OW16642   1.080   0.843   4.819  0.5322 -0.4986  0.2379
 5248SOL    HW116643   1.009   0.913   4.813  3.8661  3.2338  0.2015
 5248SOL    HW216644   1.068   0.777   4.745 -2.6141  0.0949  0.0739
 5249SOL     OW16645   5.832   0.087   1.690 -0.2166  0.0616  0.6774
 5249SOL    HW116646   5.900   0.073   1.619 -2.5868  1.0045 -1.9731
 5249SOL    HW216647   5.768   0.010   1.690 -1.0615  0.7448  0.7388
 5250SOL     OW16648   3.016   6.800   4.729 -0.1911 -0.4367  0.0787
 5250SOL    HW116649   2.982   6.736   4.799  1.8890  0.0224  1.5961
 5250SOL    HW216650   2.978   6.891   4.747 -2.1890 -0.9193 -1.3638
 5251SOL     OW16651   5.217   1.552   1.665 -0.5036  0.1434 -0.5147
 5251SOL    HW116652   5.302   1.579   1.709 -0.8962  0.5416  0.0141
 5251SOL    HW216653   5.190   1.461   1.697 -0.2138 -0.0339 -0.7763
 5252SOL     OW16654   0.373   2.711   5.186  0.4035 -0.5786  0.2121
 5252SOL    HW116655   0.330   2.663   5.110  1.0294 -0.8986  0.0587
 5252SOL    HW216656   0.302   2.743   5.249 -0.1953  0.4774 -0.9438
 5253SOL     OW16657   3.845   3.441   4.144  0.1021  0.5973  0.1350
 5253SOL    HW116658   3.891   3.528   4.128 -0.2161  0.5052 -1.4179
 5253SOL    HW216659   3.821   3.399   4.057 -0.8156 -0.4861  0.8737
 5254SOL     OW16660   6.383   5.911   5.595 -0.0752 -0.0531  0.0019
 5254SOL    HW116661   6.443   5.937   5.519  0.4133 -0.0395  0.3903
 5254SOL    HW216662   6.287   5.920   5.566  0.0496  2.1358  0.0852
 5255SOL     OW16663   3.618   4.180   0.983  0.3008  0.0881  0.1228
 5255SOL    HW116664   3.684   4.131   1.040  0.4407  2.3909  2.0833
 5255SOL    HW216665   3.666   4.224   0.907  0.7001  0.0411  0.3449
 5256SOL     OW16666   3.038   4.616   5.598 -0.1853  0.6108  0.0657
 5256SOL    HW116667   2.949   4.575   5.619  0.7332 -0.3879  2.3121
 5256SOL    HW216668   3.109   4.546   5.607  1.0537  1.8840  0.3908
 5257SOL     OW16669   4.250   0.891   5.918 -0.0865 -0.0171  0.4300
 5257SOL    HW116670   4.252   0.805   5.867 -1.2703 -1.9711  3.3709
 5257SOL    HW216671   4.156   0.926   5.919 -0.8215 -1.6886  3.5450
 5258SOL     OW16672   0.935   2.733   5.931 -0.1488  0.5318  0.1821
 5258SOL    HW116673   0.991   2.725   6.014 -0.7310 -1.9023  0.4158
 5258SOL    HW216674   0.839   2.739   5.956 -0.3625 -0.6574 -0.2879
 5259SOL     OW16675   1.997   1.334   5.914 -0.6364 -0.6300  0.3297
 5259SOL    HW116676   1.967   1.425   5.940  0.0539 -0.7005  1.4329
 5259SOL    HW216677   2.024   1.334   5.817  0.9530  0.7701  0.7209
 5260SOL     OW16678   2.246   4.218   3.572 -0.2200  0.4310  0.0438
 5260SOL    HW116679   2.332   4.249   3.613  0.6110 -1.1191 -0.4232
 5260SOL    HW216680   2.223   4.127   3.608  0.2975 -0.7839 -2.4242
 5261SOL     OW16681   1.976   5.148   2.744  0.3498  0.4770 -0.2915
 5261SOL    HW116682   2.060   5.198   2.721  1.4940 -2.3574 -3.1794
 5261SOL    HW216683   1.998   5.051   2.755 -2.3882 -0.1310  0.4672
 5262SOL     OW16684   5.349   1.848   2.063 -0.6402 -0.0856  0.3934
 5262SOL    HW116685   5.321   1.943   2.077 -1.4343  0.1268 -2.1254
 5262SOL    HW216686   5.445   1.845   2.034  0.3476 -0.3682  3.3371
 5263SOL     OW16687   4.480   1.030   5.994 -0.1061 -0.7573  0.2964
 5263SOL    HW116688   4.511   1.097   5.927 -0.3601 -0.8369  0.0968
 5263SOL    HW216689   4.407   0.974   5.954 -2.5775  1.2921  1.6873
 5264SOL     OW16690   0.804   2.212   2.480  0.0719 -0.2134  0.0746
 5264SOL    HW116691   0.886   2.268   2.477  0.3839 -0.7054 -1.0626
 5264SOL    HW216692   0.829   2.117   2.502 -0.4946  0.1228  2.4359
 5265SOL     OW16693   5.108   1.798   6.378  0.5044 -0.7659  0.6148
 5265SOL    HW116694   5.049   1.854   6.436  1.0134  0.5215 -0.0520
 5265SOL    HW216695   5.098   1.702   6.402 -0.3991 -0.3942  1.8103
 5266SOL     OW16696   4.540   2.080   4.861  0.1559  0.2813 -0.0199
 5266SOL    HW116697   4.597   2.154   4.824  0.5228  0.7949  1.5278
 5266SOL    HW216698   4.459   2.069   4.802  0.5613  1.2658 -0.8083
 5267SOL     OW16699   5.871   1.742   4.421  0.4871  0.2429  0.0841
 5267SOL    HW116700   5.939   1.814   4.430  0.6698  0.0004  0.7613
 5267SOL    HW216701   5.779   1.782   4.424  0.5936  0.4995 -0.0849
 5268SOL     OW16702   2.304   5.403   0.261 -0.8355  0.4674  0.1561
 5268SOL    HW116703   2.221   5.427   0.211 -1.0487  0.5122  0.5248
 5268SOL    HW216704   2.384   5.444   0.216 -1.1929  1.9273  0.7945
 5269SOL     OW16705   6.235   3.994   3.348  0.4498  0.2135  0.6864
 5269SOL    HW116706   6.314   3.957   3.397 -0.7046 -1.4359  1.4251
 5269SOL    HW216707   6.261   4.016   3.254  1.4171 -2.0369  0.3501
 5270SOL     OW16708   1.843   0.669   1.053 -0.2995  0.5113 -0.4046
 5270SOL    HW116709   1.911   0.647   0.983  0.0614  1.6745 -0.4541
 5270SOL    HW216710   1.751   0.658   1.015 -0.1141  2.4952 -1.5808
 5271SOL     OW16711   2.156   4.384   6.220  0.4355 -0.1259 -0.0393
 5271SOL    HW116712   2.066   4.380   6.261  0.0220 -1.9686 -1.0274
 5271SOL    HW216713   2.159   4.460   6.154 -0.6285 -0.4525 -0.4903
 5272SOL     OW16714   6.937   2.543   2.245  0.1804  0.6901  0.2620
 5272SOL    HW116715   6.867   2.501   2.303  1.2423 -1.4846  0.0706
 5272SOL    HW216716   6.917   2.522   2.149  1.3393 -0.4395  0.2384
 5273SOL     OW16717   1.107   6.159   1.242 -0.0554  0.6895 -0.2066
 5273SOL    HW116718   1.174   6.087   1.228 -1.6520 -1.1025  0.8856
 5273SOL    HW216719   1.076   6.194   1.153  1.0564  0.3527 -0.7362
 5274SOL     OW16720   3.176   4.412   0.068  0.3508 -0.3627 -0.0049
 5274SOL    HW116721   3.111   4.472   0.020  1.2626  0.0163 -0.7965
 5274SOL    HW216722   3.222   4.354   0.001  0.4301 -1.0188  0.6204
 5275SOL     OW16723   1.645   1.577   1.262  0.0513  0.9652 -0.5231
 5275SOL    HW116724   1.563   1.556   1.314 -0.0963  1.7982 -0.4052
 5275SOL    HW216725   1.636   1.667   1.219  0.5614  0.7060 -1.1985
 5276SOL     OW16726   5.840   3.555   1.098  0.0005 -0.6126 -0.1969
 5276SOL    HW116727   5.771   3.615   1.139  0.3461 -1.5618  1.9343
 5276SOL    HW216728   5.806   3.461   1.097  1.2338 -1.0994  0.9114
 5277SOL     OW16729   6.977   0.186   6.189  0.4319  0.3774 -0.2627
 5277SOL    HW116730   7.004   0.282   6.179  1.6812 -0.0040 -0.8070
 5277SOL    HW216731   7.034   0.129   6.128 -0.6419 -0.6491 -0.3407
 5278SOL     OW16732   4.436   6.952   3.838 -0.0138  0.2835 -0.2129
 5278SOL    HW116733   4.349   6.991   3.808  1.4180  1.6231 -2.9707
 5278SOL    HW216734   4.507   7.023   3.836  1.7437 -1.4090 -0.9116
 5279SOL     OW16735   5.359   4.114   1.792  0.1208  0.1293  0.1505
 5279SOL    HW116736   5.327   4.023   1.819  0.2871 -0.3943 -1.3306
 5279SOL    HW216737   5.354   4.176   1.871 -0.8085 -0.9323  0.9573
 5280SOL     OW16738   0.421   0.692   0.004  0.0448  0.2660  0.5930
 5280SOL    HW116739   0.399   0.788  -0.009  2.2555  0.7832  0.2845
 5280SOL    HW216740   0.345   0.646   0.051 -2.1300  1.5466 -1.4394
 5281SOL     OW16741   1.072   2.195   2.289  0.1582  0.1693 -0.0791
 5281SOL    HW116742   1.102   2.100   2.298 -0.6864 -0.1690 -0.6531
 5281SOL    HW216743   0.975   2.197   2.267 -0.2904  1.2250  1.7574
 5282SOL     OW16744   1.542   0.750   1.327 -0.1271  0.3032  0.2915
 5282SOL    HW116745   1.589   0.746   1.415 -2.0770  2.1901  1.5170
 5282SOL    HW216746   1.534   0.658   1.289 -0.7955 -0.8215  2.9634
 5283SOL     OW16747   6.564   4.798   2.386  0.2096 -0.1379  1.0513
 5283SOL    HW116748   6.488   4.754   2.339 -0.4220 -0.3204  2.1992
 5283SOL    HW216749   6.638   4.816   2.321 -0.2757 -1.1636  0.1891
 5284SOL     OW16750   4.607   3.170   6.687  0.1703 -0.6415  0.4898
 5284SOL    HW116751   4.685   3.109   6.675  0.6193  0.0019  0.0791
 5284SOL    HW216752   4.525   3.116   6.708  0.5984 -1.3628  0.3334
 5285SOL     OW16753   0.790   3.066   2.308  0.0909 -0.3442  0.4486
 5285SOL    HW116754   0.873   3.096   2.355  0.0042  0.6169  0.0172
 5285SOL    HW216755   0.814   3.007   2.231  0.3247 -0.6914  0.7866
 5286SOL     OW16756   0.885   1.407   0.082 -0.4694  0.1872 -0.4032
 5286SOL    HW116757   0.918   1.318   0.051 -0.3122  0.4895 -1.1534
 5286SOL    HW216758   0.962   1.470   0.091 -0.5235  0.1278  0.5688
 5287SOL     OW16759   6.510   1.424   5.318 -0.8613 -0.1964  0.3688
 5287SOL    HW116760   6.565   1.499   5.280  0.5497 -0.2126  2.2608
 5287SOL    HW216761   6.417   1.429   5.280 -0.3511  1.5172 -0.7870
 5288SOL     OW16762   1.926   4.610   1.210 -0.2714 -0.0926  0.6461
 5288SOL    HW116763   2.010   4.600   1.262  0.1983  0.4446  0.0089
 5288SOL    HW216764   1.851   4.562   1.257  0.2369 -0.0082  1.5600
 5289SOL     OW16765   4.922   0.944   4.543  0.0590 -0.3455 -0.3588
 5289SOL    HW116766   4.985   0.899   4.480 -0.8941  0.1111 -1.6791
 5289SOL    HW216767   4.974   0.985   4.618  1.1073 -2.0528 -0.0699
 5290SOL     OW16768   6.202   0.114   3.536 -0.1994 -0.2157  0.0814
 5290SOL    HW116769   6.230   0.057   3.459  0.4516  0.7617 -0.4312
 5290SOL    HW216770   6.255   0.088   3.617 -0.6067 -0.9833  0.1134
 5291SOL     OW16771   6.606   4.539   2.761 -0.0375  0.2617  0.6065
 5291SOL    HW116772   6.631   4.501   2.672 -0.2666 -0.3703  0.8112
 5291SOL    HW216773   6.653   4.627   2.774  1.1811 -0.3506  0.4876
 5292SOL     OW16774   6.960   6.287   3.031 -0.1764  0.6512  0.1027
 5292SOL    HW116775   6.997   6.362   3.087 -0.7161  0.7569  0.3218
 5292SOL    HW216776   7.028   6.260   2.963  0.3297  0.8034  0.5411
 5293SOL     OW16777   6.025   1.759   6.421 -0.1973  1.1791 -0.1347
 5293SOL    HW116778   6.043   1.822   6.346  1.5086  0.3687 -0.4731
 5293SOL    HW216779   5.941   1.708   6.403 -1.4510  3.1071  0.0160
 5294SOL     OW16780   6.633   0.684   1.117 -0.1873  0.4659  0.0633
 5294SOL    HW116781   6.683   0.689   1.204 -0.3970 -2.4150  0.4710
 5294SOL    HW216782   6.692   0.715   1.043  1.2245 -0.1785  0.8721
 5295SOL     OW16783   3.440   1.574   3.929 -0.0316 -0.2827  0.3827
 5295SOL    HW116784   3.494   1.511   3.985  0.7677 -0.5027 -0.5938
 5295SOL    HW216785   3.345   1.544   3.926  0.0720 -0.6770  1.0195
 5296SOL     OW16786   2.672   4.908   4.132 -0.0502  0.4840  0.1901
 5296SOL    HW116787   2.577   4.933   4.113 -0.3722 -0.8393  0.0010
 5296SOL    HW216788   2.692   4.819   4.092  0.6135 -0.2840  2.1098
 5297SOL     OW16789   1.866   2.871   4.761 -0.5162  0.0597 -0.1755
 5297SOL    HW116790   1.881   2.892   4.664  2.0503  2.2673  0.5816
 5297SOL    HW216791   1.940   2.814   4.795  0.4195  1.9646  1.1660
 5298SOL     OW16792   3.088   0.715   6.369  0.2902  0.2784  0.4461
 5298SOL    HW116793   3.128   0.623   6.376  0.8825  0.6240  2.2469
 5298SOL    HW216794   3.042   0.737   6.455  0.2220  1.6998  0.0642
 5299SOL     OW16795   0.163   1.018   0.434 -0.6185  0.1692  0.1549
 5299SOL    HW116796   0.183   0.929   0.393 -3.1298 -0.3512 -0.0968
 5299SOL    HW216797   0.242   1.048   0.488  0.9227 -1.3879 -1.1102
 5300SOL     OW16798   1.375   3.865   6.999  0.0317 -0.2749  0.4490
 5300SOL    HW116799   1.309   3.793   7.022  0.7151 -1.0124  0.1588
 5300SOL    HW216800   1.436   3.880   7.076 -0.0581 -0.0637  0.4787
 5301SOL     OW16801   6.731   6.119   1.926 -0.1750  0.7375 -0.1978
 5301SOL    HW116802   6.644   6.103   1.880 -0.3252 -0.0973  0.3506
 5301SOL    HW216803   6.763   6.211   1.906 -0.8042  0.7851 -1.0255
 5302SOL     OW16804   5.466   4.357   6.686  0.3369 -0.0647  0.2902
 5302SOL    HW116805   5.448   4.380   6.781  1.4911  2.2318  0.0097
 5302SOL    HW216806   5.386   4.377   6.630 -0.0676 -0.6749  0.6419
 5303SOL     OW16807   5.546   4.707   6.084 -0.0697 -0.2649  0.1219
 5303SOL    HW116808   5.593   4.689   6.171  0.5081  0.7521  0.0357
 5303SOL    HW216809   5.593   4.659   6.010  2.7404  2.9207 -0.4444
 5304SOL     OW16810   2.374   3.949   1.348 -0.1918 -0.0244 -0.2489
 5304SOL    HW116811   2.325   3.994   1.275 -0.1508  1.6937  0.7267
 5304SOL    HW216812   2.471   3.973   1.343 -0.5411  2.2884  1.7783
 5305SOL     OW16813   0.504   0.095   3.506 -0.4624 -0.0767 -0.9296
 5305SOL    HW116814   0.429   0.049   3.553 -1.3828  1.1320 -1.1532
 5305SOL    HW216815   0.502   0.071   3.408 -1.2220  0.7550 -1.1323
 5306SOL     OW16816   3.621   2.591   1.165 -0.3316 -0.0470  0.0909
 5306SOL    HW116817   3.620   2.574   1.263 -0.5061 -0.7307 -0.0271
 5306SOL    HW216818   3.700   2.547   1.123 -0.1964  0.3342 -0.0627
 5307SOL     OW16819   1.158   3.959   5.337  0.1790 -0.3045  0.0198
 5307SOL    HW116820   1.233   3.929   5.396  0.3671  2.1540  1.1402
 5307SOL    HW216821   1.194   3.987   5.248  0.4802 -0.0428  0.2212
 5308SOL     OW16822   4.073   0.712   2.208 -0.5399 -0.1641 -0.1634
 5308SOL    HW116823   4.029   0.801   2.220  0.0668 -0.0211  1.1640
 5308SOL    HW216824   4.002   0.641   2.202 -0.9963  0.2171  0.5347
 5309SOL     OW16825   1.424   1.303   5.878 -0.4809  0.3680  0.3434
 5309SOL    HW116826   1.429   1.214   5.925 -1.1806  0.1074 -0.0549
 5309SOL    HW216827   1.431   1.376   5.946  0.0526  0.0085  0.6843
 5310SOL     OW16828   4.135   6.160   5.308  0.3879 -0.5052  0.0439
 5310SOL    HW116829   4.152   6.231   5.376  1.6047 -1.4016  0.7246
 5310SOL    HW216830   4.037   6.140   5.304  0.0990  0.7539  0.2779
 5311SOL     OW16831   0.688   4.529   1.316 -0.1752 -0.0410  0.0347
 5311SOL    HW116832   0.720   4.437   1.293  0.4717 -0.4102  2.1332
 5311SOL    HW216833   0.757   4.575   1.372 -0.9758  1.2933 -0.0434
 5312SOL     OW16834   5.742   4.020   2.820 -0.0540  0.0138  0.3577
 5312SOL    HW116835   5.656   3.974   2.797 -0.0821  0.2631 -0.0493
 5312SOL    HW216836   5.780   4.062   2.738 -1.1322  2.5651  1.0470
 5313SOL     OW16837   6.730   2.930   1.753  0.5541 -0.2264 -0.3498
 5313SOL    HW116838   6.714   2.834   1.776 -0.7248  0.2199  0.7574
 5313SOL    HW216839   6.647   2.968   1.710  0.3191  0.8820  1.0206
 5314SOL     OW16840   0.243   3.137   5.718  0.2158 -0.2357 -0.0184
 5314SOL    HW116841   0.333   3.101   5.743 -0.0169 -0.4742  0.4897
 5314SOL    HW216842   0.251   3.190   5.634  0.7594 -0.5811 -0.1890
 5315SOL     OW16843   1.100   5.556   4.228 -0.2656  0.1014 -0.3477
 5315SOL    HW116844   1.152   5.593   4.152 -0.6171  0.1241 -0.5813
 5315SOL    HW216845   1.120   5.607   4.311 -0.8201  0.8859 -0.6858
 5316SOL     OW16846   2.023   1.848   1.396 -0.0431 -0.7853  0.2190
 5316SOL    HW116847   1.953   1.801   1.341 -0.7174  0.5891 -0.1385
 5316SOL    HW216848   2.112   1.839   1.351 -0.1539 -1.6976  0.1576
 5317SOL     OW16849   6.731   5.239   3.405  0.5206  0.1806  0.0952
 5317SOL    HW116850   6.715   5.144   3.381  0.5284  0.0937  0.4379
 5317SOL    HW216851   6.804   5.245   3.473 -0.2696  0.3491  0.9375
 5318SOL     OW16852   3.981   0.417   4.867 -0.1455 -0.1665  0.6145
 5318SOL    HW116853   3.971   0.514   4.848 -0.2525 -0.0166  1.3940
 5318SOL    HW216854   3.891   0.373   4.866 -0.2174 -0.0487  1.3006
 5319SOL     OW16855   2.914   0.273   3.457  0.1315 -0.1403 -0.4478
 5319SOL    HW116856   2.869   0.268   3.546 -1.1221 -0.1042 -1.0650
 5319SOL    HW216857   2.889   0.358   3.411  2.8583  1.1548  0.2217
 5320SOL     OW16858   2.680   2.783   1.725 -0.4413  1.1140  0.6775
 5320SOL    HW116859   2.729   2.871   1.728  0.4653  0.6114  0.9214
 5320SOL    HW216860   2.745   2.709   1.707 -1.3055  0.5656 -0.3113
 5321SOL     OW16861   6.502   2.358   5.535 -0.2101 -0.1005 -1.0945
 5321SOL    HW116862   6.415   2.408   5.540 -0.1343 -0.0694  0.9495
 5321SOL    HW216863   6.572   2.416   5.494  0.1636  2.0620  2.2091
 5322SOL     OW16864   5.882   4.335   5.779  0.6207 -0.1330 -0.3510
 5322SOL    HW116865   5.962   4.325   5.838  1.2869 -1.2101 -1.3865
 5322SOL    HW216866   5.817   4.262   5.797  0.4237  0.0437 -0.3393
 5323SOL     OW16867   3.131   0.803   0.125 -0.5419 -0.0962  0.4179
 5323SOL    HW116868   3.160   0.728   0.184 -1.1795 -0.4456  0.3030
 5323SOL    HW216869   3.186   0.884   0.144  1.6027 -1.1399 -0.8944
 5324SOL     OW16870   4.469   6.150   1.637  0.2852  0.2066 -0.1287
 5324SOL    HW116871   4.456   6.225   1.572  1.3824  0.7484  0.2587
 5324SOL    HW216872   4.388   6.091   1.635  0.8621 -0.7032 -3.1555
 5325SOL     OW16873   3.152   4.908   4.744 -0.3988 -0.0981  0.4383
 5325SOL    HW116874   3.217   4.860   4.803 -0.9823 -0.6259  0.6635
 5325SOL    HW216875   3.061   4.868   4.755 -0.9809  1.2679  0.8850
 5326SOL     OW16876   2.564   6.333   2.199  0.1256 -0.1918 -0.0862
 5326SOL    HW116877   2.579   6.367   2.106 -0.3682 -0.0510 -0.1174
 5326SOL    HW216878   2.620   6.384   2.263 -0.4415  0.5421 -0.1595
 5327SOL     OW16879   2.837   6.344   1.547  0.0507  0.2878 -0.4481
 5327SOL    HW116880   2.833   6.248   1.575 -0.9771 -0.6082 -3.2735
 5327SOL    HW216881   2.745   6.384   1.554  0.2493  0.7373 -0.3684
 5328SOL     OW16882   6.180   4.198   5.804  0.0399 -0.4242  0.5054
 5328SOL    HW116883   6.169   4.264   5.729  1.0880 -1.1041 -0.2751
 5328SOL    HW216884   6.116   4.122   5.792  1.0464 -1.1565 -0.4295
 5329SOL     OW16885   4.162   4.343   0.029  0.3703 -0.1130 -0.6451
 5329SOL    HW116886   4.250   4.329  -0.015  0.8352  1.6732 -0.3881
 5329SOL    HW216887   4.123   4.255   0.057  1.9817 -0.9364 -0.9121
 5330SOL     OW16888   3.379   4.108   3.307  0.3032 -0.5485  0.0178
 5330SOL    HW116889   3.360   4.097   3.404  0.9458 -1.6933  0.0289
 5330SOL    HW216890   3.294   4.097   3.255 -0.5415  2.4471  0.5514
 5331SOL     OW16891   1.002   4.559   2.515 -0.3804 -0.4122 -0.1066
 5331SOL    HW116892   0.950   4.594   2.437  0.1430 -0.9854 -0.7341
 5331SOL    HW216893   1.015   4.460   2.504  1.2258 -0.2193 -0.2124
 5332SOL     OW16894   5.134   5.038   2.073  0.4213  0.4562 -0.2027
 5332SOL    HW116895   5.062   5.094   2.115  0.7444  0.6686  0.0705
 5332SOL    HW216896   5.105   5.010   1.981 -0.6070 -0.6410  0.4326
 5333SOL     OW16897   4.974   6.805   0.680 -0.9793  0.0849  0.6667
 5333SOL    HW116898   5.057   6.779   0.730 -0.4667  0.5626  0.0894
 5333SOL    HW216899   4.999   6.869   0.607 -1.5228 -1.4970 -0.9807
 5334SOL     OW16900   1.858   5.374   3.083 -0.2809 -0.0039  0.1744
 5334SOL    HW116901   1.816   5.465   3.086  0.3585  0.3995 -1.8692
 5334SOL    HW216902   1.955   5.381   3.103  0.1754  0.0914 -1.8726
 5335SOL     OW16903   2.290   0.182   4.373  0.4650 -0.3239 -0.5591
 5335SOL    HW116904   2.221   0.254   4.371 -0.4606 -1.1510  0.5650
 5335SOL    HW216905   2.325   0.167   4.280  0.2894  1.1824 -0.8921
 5336SOL     OW16906   4.841   5.820   3.011 -0.2089 -0.0391  0.3007
 5336SOL    HW116907   4.841   5.784   2.918  0.7885 -1.9279  0.9641
 5336SOL    HW216908   4.934   5.848   3.036 -0.1573 -0.9738  1.2163
 5337SOL     OW16909   5.071   6.520   4.916 -0.3889 -0.4537  0.2023
 5337SOL    HW116910   5.099   6.598   4.859  1.8395 -0.8124  0.7152
 5337SOL    HW216911   4.988   6.480   4.878 -1.0712  1.5900 -0.6135
 5338SOL     OW16912   1.324   5.071   0.880 -0.2333 -0.0341 -0.3968
 5338SOL    HW116913   1.373   5.154   0.907  0.2249 -0.3784 -0.1619
 5338SOL    HW216914   1.317   5.009   0.958 -2.9978  0.9319  0.2313
 5339SOL     OW16915   3.322   1.864   3.032  0.2445  0.1744  0.3555
 5339SOL    HW116916   3.298   1.953   2.993  1.2653 -0.6407 -2.3499
 5339SOL    HW216917   3.263   1.793   2.994  1.5590 -0.7228 -0.1011
 5340SOL     OW16918   6.685   5.828   3.408 -0.2184 -0.2007 -0.4198
 5340SOL    HW116919   6.699   5.874   3.320 -0.1670 -0.4105 -0.5239
 5340SOL    HW216920   6.608   5.763   3.399 -0.5272  0.1296 -0.1730
 5341SOL     OW16921   5.940   1.234   5.343  0.2635  0.4995  0.0121
 5341SOL    HW116922   5.922   1.144   5.382  0.3420  0.2810 -0.4456
 5341SOL    HW216923   5.998   1.224   5.262 -1.2263  0.7709 -1.1500
 5342SOL     OW16924   5.015   5.826   5.687 -0.0355  0.1541  0.5151
 5342SOL    HW116925   4.984   5.739   5.725  0.8140  0.7456  2.6998
 5342SOL    HW216926   4.937   5.878   5.655 -0.6048 -1.1765 -0.3401
 5343SOL     OW16927   6.672   4.799   3.959  0.4913  0.3558 -0.2087
 5343SOL    HW116928   6.688   4.745   4.041  0.2652  1.7702  0.8043
 5343SOL    HW216929   6.757   4.810   3.908  0.4656 -1.2234 -0.6301
 5344SOL     OW16930   6.715   2.687   0.233  0.1855 -0.8685 -0.1011
 5344SOL    HW116931   6.660   2.636   0.300 -1.6786  0.5674 -0.4362
 5344SOL    HW216932   6.788   2.736   0.281 -0.7571 -0.3217  0.8384
 5345SOL     OW16933   0.469   3.831   3.609 -0.0695 -0.2530  0.4389
 5345SOL    HW116934   0.401   3.831   3.536 -0.4396 -0.7248  0.7710
 5345SOL    HW216935   0.556   3.797   3.573  0.7194  2.6241 -0.5981
 5346SOL     OW16936   3.376   0.552   6.084  0.3254  0.0323 -0.4051
 5346SOL    HW116937   3.415   0.460   6.091 -1.5765 -0.8177 -0.4398
 5346SOL    HW216938   3.354   0.572   5.989 -1.9464 -0.7008 -0.0965
 5347SOL     OW16939   4.413   1.632   1.562 -0.1626 -0.4892  0.1231
 5347SOL    HW116940   4.492   1.589   1.517 -0.7783 -0.9947 -0.4910
 5347SOL    HW216941   4.335   1.570   1.559 -0.8539  0.3722 -0.0778
 5348SOL     OW16942   1.566   1.532   3.639  0.9368  0.6836 -0.0478
 5348SOL    HW116943   1.527   1.603   3.579  0.0071 -1.7907 -2.5792
 5348SOL    HW216944   1.493   1.476   3.676  1.7885 -0.6286 -0.3104
 5349SOL     OW16945   6.546   3.158   5.329 -0.4679  0.2530  0.0139
 5349SOL    HW116946   6.468   3.197   5.280 -0.6643 -2.0754 -1.7316
 5349SOL    HW216947   6.554   3.200   5.420 -3.4369  0.9019  0.0613
 5350SOL     OW16948   2.230   1.306   1.621  0.5712  0.3198  0.3386
 5350SOL    HW116949   2.205   1.401   1.601  1.2446  1.1668  3.0671
 5350SOL    HW216950   2.152   1.246   1.604 -0.2676  1.5442 -0.2212
 5351SOL     OW16951   1.616   4.840   2.544 -0.1797 -0.4760 -0.3305
 5351SOL    HW116952   1.612   4.927   2.594 -0.3624  0.4045 -1.8224
 5351SOL    HW216953   1.712   4.815   2.529 -0.1168 -0.9627  0.7921
 5352SOL     OW16954   3.950   3.027   6.459 -0.6179  0.2364  0.3860
 5352SOL    HW116955   4.000   2.953   6.504 -0.2325  0.8283  0.9335
 5352SOL    HW216956   3.946   3.009   6.361  0.4344  0.0514  0.3684
 5353SOL     OW16957   3.398   0.210   0.127  0.5748  0.9759  0.2517
 5353SOL    HW116958   3.497   0.195   0.122  0.8706  1.4765  2.9787
 5353SOL    HW216959   3.375   0.248   0.216 -2.0392  1.4798 -0.5578
 5354SOL     OW16960   1.475   0.778   3.478 -0.2061 -0.7353 -0.5933
 5354SOL    HW116961   1.547   0.732   3.427  0.3479  1.0058 -1.4421
 5354SOL    HW216962   1.495   0.876   3.484 -0.0029 -0.8231  3.3145
 5355SOL     OW16963   5.814   0.379   5.626 -0.3403 -0.5862  0.2556
 5355SOL    HW116964   5.799   0.299   5.567 -1.1820  0.1037 -0.4913
 5355SOL    HW216965   5.912   0.385   5.648 -0.1740 -1.4838 -0.1658
 5356SOL     OW16966   0.721   2.967   6.283  0.6051 -0.2038 -0.3655
 5356SOL    HW116967   0.803   2.959   6.340  0.2007 -3.2556 -0.0601
 5356SOL    HW216968   0.742   2.936   6.190 -0.4429 -2.4236  0.0684
 5357SOL     OW16969   6.990   1.449   3.061 -0.0049  0.4369  0.3382
 5357SOL    HW116970   7.084   1.470   3.088  0.5735 -2.0431  0.4767
 5357SOL    HW216971   6.927   1.487   3.128  0.9851  0.6471  1.1752
 5358SOL     OW16972   6.638   2.019   0.822 -0.2377 -0.0178 -0.0071
 5358SOL    HW116973   6.553   1.969   0.839  0.6416 -1.5407  0.1672
 5358SOL    HW216974   6.618   2.112   0.793 -2.0299 -0.8801 -1.7704
 5359SOL     OW16975   1.934   2.749   3.962  0.2298  0.0785  0.3136
 5359SOL    HW116976   2.032   2.733   3.948  0.4633  0.7630  1.0798
 5359SOL    HW216977   1.910   2.734   4.057 -0.2648  0.6076  0.2829
 5360SOL     OW16978   4.684   3.972   0.611  0.2961 -0.1433 -0.0127
 5360SOL    HW116979   4.647   4.056   0.650 -0.0322  0.3072 -1.2639
 5360SOL    HW216980   4.738   3.924   0.681 -0.8549  0.2579  1.1975
 5361SOL     OW16981   1.412   3.381   2.917 -0.3354  0.0842  0.3447
 5361SOL    HW116982   1.314   3.387   2.900 -0.4571 -0.2465  0.8922
 5361SOL    HW216983   1.459   3.352   2.834 -0.6876  0.3337  0.0552
 5362SOL     OW16984   4.859   5.532   6.225 -0.4256  0.0723 -0.0604
 5362SOL    HW116985   4.918   5.514   6.146  0.2498 -0.4313  0.5387
 5362SOL    HW216986   4.815   5.447   6.254 -0.2397  0.1340  0.4259
 5363SOL     OW16987   1.561   5.023   1.448  0.0515  0.1653  0.4431
 5363SOL    HW116988   1.514   4.960   1.385 -1.4201  1.1191  0.5360
 5363SOL    HW216989   1.632   5.073   1.398 -0.3904  0.1491 -0.2191
 5364SOL     OW16990   0.494   0.845   1.117  0.6193 -0.0222  0.3704
 5364SOL    HW116991   0.580   0.884   1.150  0.9250 -1.6360  1.5651
 5364SOL    HW216992   0.514   0.767   1.057 -0.0074  0.6387 -0.7306
 5365SOL     OW16993   4.878   0.627   2.934 -0.9126 -0.2999  0.5855
 5365SOL    HW116994   4.780   0.616   2.953 -0.7101  0.1939  2.0632
 5365SOL    HW216995   4.907   0.718   2.961 -0.5545  0.5419 -2.3254
 5366SOL     OW16996   4.665   1.944   0.747 -0.4463  0.2449  0.5015
 5366SOL    HW116997   4.645   1.861   0.798 -1.1356  0.8999  1.3364
 5366SOL    HW216998   4.764   1.956   0.739 -0.3330 -0.0264  1.4348
 5367SOL     OW16999   5.366   5.771   1.501 -0.9364  1.0011  0.1621
 5367SOL    HW117000   5.297   5.758   1.573 -1.9433  0.3393 -0.9060
 5367SOL    HW217001   5.446   5.816   1.541 -1.3544  0.4056  1.7633
 5368SOL     OW17002   6.666   5.690   4.596 -0.1225  0.0448  0.0224
 5368SOL    HW117003   6.582   5.660   4.551 -0.4630 -0.2222  0.8171
 5368SOL    HW217004   6.723   5.741   4.531  0.4194 -2.1879 -1.3388
 5369SOL     OW17005   2.273   6.558   6.177  0.2071 -0.3591 -0.1149
 5369SOL    HW117006   2.190   6.605   6.208 -0.3190 -2.7801  2.6214
 5369SOL    HW217007   2.348   6.623   6.171 -0.5641  0.9833  2.9883
 5370SOL     OW17008   4.508   0.419   1.887  0.4269 -0.1935  0.0781
 5370SOL    HW117009   4.542   0.459   1.801  1.2314 -1.2719 -0.1254
 5370SOL    HW217010   4.426   0.468   1.916  1.2536  1.4594 -0.2699
 5371SOL     OW17011   4.223   5.139   3.969  0.0190  0.0483  0.2908
 5371SOL    HW117012   4.167   5.107   4.045  1.3516 -2.2905  0.4011
 5371SOL    HW217013   4.168   5.196   3.908 -2.7008 -2.6144  0.0153
 5372SOL     OW17014   2.136   5.948   1.571 -0.5652  0.0920 -0.2168
 5372SOL    HW117015   2.047   5.940   1.616 -0.9747 -0.2177 -1.0722
 5372SOL    HW217016   2.206   5.965   1.640 -1.2471  0.0802  0.4936
 5373SOL     OW17017   4.407   5.536   4.429  0.4708  0.6205  0.2593
 5373SOL    HW117018   4.400   5.436   4.434  0.1714  0.5830 -0.6314
 5373SOL    HW217019   4.317   5.575   4.410  0.9818  0.8484 -1.9693
 5374SOL     OW17020   6.794   1.466   3.504  0.2290 -0.4367  0.1143
 5374SOL    HW117021   6.881   1.513   3.506  0.0201  0.0589 -1.3083
 5374SOL    HW217022   6.809   1.368   3.490  0.5548 -0.2602 -0.8585
 5375SOL     OW17023   2.744   5.455   4.286  0.1472 -0.6894  0.0648
 5375SOL    HW117024   2.684   5.375   4.277  0.5248 -0.9725  0.0528
 5375SOL    HW217025   2.839   5.426   4.278  0.3337 -0.3906  1.0822
 5376SOL     OW17026   4.854   5.865   0.634 -0.0902 -0.1881 -0.0323
 5376SOL    HW117027   4.951   5.843   0.638 -0.3812 -1.4359  1.1319
 5376SOL    HW217028   4.842   5.960   0.605  1.4235 -0.2500 -1.0077
 5377SOL     OW17029   5.303   1.470   0.929 -0.0013  0.2354  0.4165
 5377SOL    HW117030   5.369   1.396   0.942  1.6872  1.7523  0.8558
 5377SOL    HW217031   5.344   1.543   0.875 -2.1200  0.3022 -1.2568
 5378SOL     OW17032   5.703   0.184   0.948  0.3268 -0.1878 -0.4251
 5378SOL    HW117033   5.664   0.129   1.021  2.3945  1.2677  1.9465
 5378SOL    HW217034   5.786   0.141   0.913 -0.2856 -0.5412 -1.5126
 5379SOL     OW17035   6.567   1.722   3.270 -0.1485  0.3272 -0.0962
 5379SOL    HW117036   6.530   1.811   3.298  0.5738  1.1225 -1.5483
 5379SOL    HW217037   6.519   1.690   3.189 -0.2127 -0.4950  0.2542
 5380SOL     OW17038   3.117   6.614   0.960 -0.0586 -0.9238 -0.4957
 5380SOL    HW117039   3.166   6.573   0.883  1.5356 -0.2779  0.1237
 5380SOL    HW217040   3.033   6.657   0.927 -0.2306 -2.0511 -1.6079
 5381SOL     OW17041   6.345   5.097   1.698  0.0829 -0.2991 -0.4903
 5381SOL    HW117042   6.296   5.179   1.670  0.8341  0.0673 -0.7439
 5381SOL    HW217043   6.281   5.033   1.740 -0.2084  1.2544  1.5972
 5382SOL     OW17044   5.879   3.898   3.923 -0.3062  0.6999 -0.2700
 5382SOL    HW117045   5.974   3.887   3.951 -0.9790 -2.8534  1.1535
 5382SOL    HW217046   5.864   3.851   3.836 -1.2076 -1.0555  0.7808
 5383SOL     OW17047   6.984   0.773   4.467  0.9383  0.5786 -0.4250
 5383SOL    HW117048   6.901   0.830   4.466  0.2643 -0.2866  1.2757
 5383SOL    HW217049   7.030   0.782   4.555  2.4676  0.7438 -1.2117
 5384SOL     OW17050   3.871   1.562   5.871  0.9705 -0.1964 -0.0262
 5384SOL    HW117051   3.844   1.639   5.814  0.0308 -0.7199 -0.2982
 5384SOL    HW217052   3.961   1.580   5.911  1.4182  0.3962 -1.2683
 5385SOL     OW17053   5.873   6.136   5.385  0.3192  0.0152  0.3944
 5385SOL    HW117054   5.935   6.157   5.310 -2.4990  1.5818 -1.6644
 5385SOL    HW217055   5.806   6.209   5.395 -1.5087 -1.7736  2.2027
 5386SOL     OW17056   0.890   3.856   1.828 -0.4073 -0.0039  0.0659
 5386SOL    HW117057   0.962   3.916   1.795 -2.5582  2.5154 -0.3576
 5386SOL    HW217058   0.854   3.802   1.752  1.2159 -1.5915  0.3597
 5387SOL     OW17059   6.951   1.879   3.916  0.8335  0.1944 -0.3997
 5387SOL    HW117060   6.943   1.930   4.002  1.6974  0.4536 -0.4684
 5387SOL    HW217061   7.041   1.837   3.910  0.4734 -0.5429 -0.7938
 5388SOL     OW17062   0.517   4.289   6.965  0.0023  0.1170  0.3782
 5388SOL    HW117063   0.458   4.348   6.909 -0.3267 -0.8049 -0.2661
 5388SOL    HW217064   0.588   4.248   6.908  0.4356  0.1465  0.8864
 5389SOL     OW17065   6.614   2.206   3.181  0.3964  0.2219 -0.2760
 5389SOL    HW117066   6.528   2.173   3.219  0.9595 -0.3854  0.5043
 5389SOL    HW217067   6.600   2.236   3.086  0.0923 -3.4325 -1.5229
 5390SOL     OW17068   3.182   3.847   4.538 -0.3749  0.5264  0.2012
 5390SOL    HW117069   3.202   3.900   4.620 -0.7081  0.1394  0.5355
 5390SOL    HW217070   3.101   3.790   4.553 -0.1533  0.0866 -0.2241
 5391SOL     OW17071   6.612   5.794   3.860  0.2838 -0.1743  0.1770
 5391SOL    HW117072   6.541   5.857   3.828 -0.4474 -0.8543  0.4339
 5391SOL    HW217073   6.659   5.755   3.782  0.9793  0.9442  0.0188
 5392SOL     OW17074   1.107   3.204   2.714 -0.5762  0.3290 -0.0220
 5392SOL    HW117075   1.143   3.262   2.641  2.2536  1.1383  1.8476
 5392SOL    HW217076   1.097   3.257   2.798  1.2200 -1.5557  1.5192
 5393SOL     OW17077   2.715   5.607   0.801  0.0629 -0.0543  0.5116
 5393SOL    HW117078   2.808   5.618   0.835 -0.2312  1.9163  0.7719
 5393SOL    HW217079   2.659   5.563   0.871  0.6579 -0.7350  0.5669
 5394SOL     OW17080   3.606   1.742   2.918 -0.0127 -0.3368  0.0129
 5394SOL    HW117081   3.614   1.691   2.832 -1.0475 -1.2799  0.4509
 5394SOL    HW217082   3.536   1.700   2.975  0.2508  0.6308  1.0848
 5395SOL     OW17083   2.298   1.585   0.451 -0.3949 -0.3734  0.2532
 5395SOL    HW117084   2.297   1.596   0.352  0.7576 -0.3912  0.2340
 5395SOL    HW217085   2.384   1.619   0.488 -0.2883 -1.5358  1.1123
 5396SOL     OW17086   3.542   0.019   5.548 -0.2135 -0.0174  0.2408
 5396SOL    HW117087   3.451   0.060   5.559  0.0651  0.7972 -0.4469
 5396SOL    HW217088   3.550  -0.020   5.457 -0.0585 -0.5722  0.4896
 5397SOL     OW17089   2.774   6.249   3.153  0.3464  0.1271 -0.0080
 5397SOL    HW117090   2.828   6.166   3.165  1.3421  1.0011  1.9397
 5397SOL    HW217091   2.816   6.306   3.082  0.4195 -0.4142 -0.4013
 5398SOL     OW17092   5.511   3.092   6.808  0.1493  0.6596 -0.2350
 5398SOL    HW117093   5.487   3.049   6.895 -0.1781 -1.6596 -1.4066
 5398SOL    HW217094   5.570   3.171   6.825 -1.1531  1.2058  2.1593
 5399SOL     OW17095   1.661   1.222   3.990 -0.0615  0.4753 -0.0666
 5399SOL    HW117096   1.752   1.242   3.954  0.2422  1.6581  1.2683
 5399SOL    HW217097   1.614   1.307   4.011 -1.0359 -0.1476  0.3562
 5400SOL     OW17098   4.914   3.176   4.436  0.1716  0.8081  0.1361
 5400SOL    HW117099   5.012   3.160   4.433 -0.0530 -0.7235 -0.2306
 5400SOL    HW217100   4.892   3.262   4.390  1.2888  0.8972 -0.2500
 5401SOL     OW17101   3.420   1.732   3.251 -0.3231 -0.8066 -0.0708
 5401SOL    HW117102   3.519   1.716   3.250 -0.1445 -0.0752  1.8325
 5401SOL    HW217103   3.395   1.792   3.175  0.7745 -0.5265 -0.2321
 5402SOL     OW17104   6.251   5.622   6.679  0.2162  0.8424  0.0353
 5402SOL    HW117105   6.232   5.541   6.736 -1.2688  1.7277  0.8767
 5402SOL    HW217106   6.199   5.615   6.594 -0.9637  1.4620  0.6675
 5403SOL     OW17107   6.241   1.937   3.795 -0.2311  0.3126  0.2089
 5403SOL    HW117108   6.339   1.919   3.811 -0.4148 -0.4236  0.5671
 5403SOL    HW217109   6.189   1.853   3.812 -1.1160  1.1341  1.7889
 5404SOL     OW17110   3.024   2.271   6.230 -0.3133 -0.1404 -0.3143
 5404SOL    HW117111   2.994   2.348   6.287 -0.4551  1.0740 -1.9520
 5404SOL    HW217112   3.047   2.305   6.139  0.4721 -1.9391 -0.8123
 5405SOL     OW17113   5.313   1.031   3.687 -0.1743 -0.2353  0.0365
 5405SOL    HW117114   5.271   1.109   3.641  0.3503  1.0638  1.6764
 5405SOL    HW217115   5.323   1.051   3.784  2.7380 -1.1157  0.0082
 5406SOL     OW17116   1.224   5.728   4.058  0.2809  0.4172 -0.4159
 5406SOL    HW117117   1.271   5.707   3.972 -0.3093 -3.5403  0.0379
 5406SOL    HW217118   1.142   5.782   4.039  1.4002  1.6388 -1.9950
 5407SOL     OW17119   4.971   0.455   1.678  0.3990 -0.2007  0.4820
 5407SOL    HW117120   4.923   0.444   1.764 -0.2914  1.7782  0.4030
 5407SOL    HW217121   4.906   0.476   1.605  1.2258  1.8938  0.2521
 5408SOL     OW17122   0.455   4.786   3.859  0.1837 -0.5544 -0.0215
 5408SOL    HW117123   0.432   4.881   3.877 -2.5036 -1.2711  0.7384
 5408SOL    HW217124   0.443   4.766   3.762 -4.4949 -1.2471  0.4897
 5409SOL     OW17125   5.700   3.503   5.355 -0.4070  0.2376  0.4763
 5409SOL    HW117126   5.762   3.438   5.400 -1.3992 -1.4519 -0.5017
 5409SOL    HW217127   5.751   3.586   5.333  1.6569 -1.2143 -0.6230
 5410SOL     OW17128   6.014   0.596   0.249  0.6117  0.7156  0.1993
 5410SOL    HW117129   5.951   0.637   0.313  0.7458 -0.1717  0.9156
 5410SOL    HW217130   5.987   0.620   0.155 -1.1784 -0.1982  0.4518
 5411SOL     OW17131   5.931   2.217   0.078  0.0363 -0.0147 -0.2111
 5411SOL    HW117132   5.967   2.127   0.103  0.6188 -0.4367 -2.3740
 5411SOL    HW217133   5.985   2.288   0.124  1.7315 -0.7284 -0.9777
 5412SOL     OW17134   4.483   5.437   6.072  0.3010  0.3206 -0.4779
 5412SOL    HW117135   4.491   5.422   6.171 -0.3758 -0.1410 -0.4856
 5412SOL    HW217136   4.400   5.488   6.053  1.2665  1.8772 -0.6855
 5413SOL     OW17137   0.682   2.376   2.684 -0.3143  0.2851  1.2128
 5413SOL    HW117138   0.686   2.301   2.618  0.7411  1.1884  0.2106
 5413SOL    HW217139   0.768   2.427   2.681 -0.8368  1.2526  2.2164
 5414SOL     OW17140   3.432   4.056   6.487  0.6656  0.4101 -0.4223
 5414SOL    HW117141   3.492   4.096   6.557 -0.3539 -0.2309  0.8565
 5414SOL    HW217142   3.393   4.130   6.432  1.1772  0.9684 -0.0589
 5415SOL     OW17143   3.710   0.505   5.877  0.3898 -0.6246  0.3451
 5415SOL    HW117144   3.620   0.511   5.833 -0.0790  0.0870  1.3556
 5415SOL    HW217145   3.761   0.589   5.858  0.2038 -0.3353  1.0921
 5416SOL     OW17146   0.389   6.572   0.544 -0.1914 -0.2540  0.6001
 5416SOL    HW117147   0.443   6.491   0.563  1.0476  0.0038 -1.5017
 5416SOL    HW217148   0.448   6.644   0.506 -1.3475  1.4444  1.8645
 5417SOL     OW17149   1.677   3.211   5.444 -0.9197  0.9345  0.1454
 5417SOL    HW117150   1.651   3.293   5.392 -0.7092  1.9238  1.5474
 5417SOL    HW217151   1.770   3.222   5.479 -0.0936 -0.8078 -1.3510
 5418SOL     OW17152   6.306   4.806   3.223  0.5949 -0.3294  0.0055
 5418SOL    HW117153   6.251   4.789   3.141 -0.0745  0.0462  0.3696
 5418SOL    HW217154   6.265   4.759   3.301  0.8707 -0.1674  0.2504
 5419SOL     OW17155   0.592   6.513   2.827 -0.1052  0.1960 -0.2136
 5419SOL    HW117156   0.544   6.524   2.914  0.0305  0.8463 -0.2132
 5419SOL    HW217157   0.690   6.529   2.842  0.1788 -1.4977 -0.1389
 5420SOL     OW17158   5.694   0.685   3.909 -0.5739  0.0349  0.7881
 5420SOL    HW117159   5.779   0.737   3.909 -0.6007  0.0928  1.6391
 5420SOL    HW217160   5.693   0.623   3.988 -1.5021  0.3400  1.0256
 5421SOL     OW17161   1.477   5.485   4.099  0.5777  0.3841  0.3419
 5421SOL    HW117162   1.417   5.435   4.162  0.9102 -0.1184  0.2592
 5421SOL    HW217163   1.551   5.426   4.069  1.1335  1.0166  0.4566
 5422SOL     OW17164   0.041   4.242   6.510 -0.3193 -0.0672 -0.3320
 5422SOL    HW117165   0.045   4.341   6.521  0.6158 -0.0914 -0.3333
 5422SOL    HW217166   0.055   4.198   6.599  0.0647 -0.1942 -0.4489
 5423SOL     OW17167   4.875   0.923   6.419  0.1365 -0.2234 -0.1860
 5423SOL    HW117168   4.825   0.847   6.461  0.1797 -0.0690  0.1549
 5423SOL    HW217169   4.813   0.978   6.363 -0.0838 -0.0242  0.2466
 5424SOL     OW17170   5.248   6.539   0.484 -0.3141 -0.1937 -0.0866
 5424SOL    HW117171   5.295   6.593   0.555 -0.1075 -2.3128  1.4827
 5424SOL    HW217172   5.222   6.599   0.408 -0.0017  2.0594  1.4957
 5425SOL     OW17173   0.485   2.526   2.565  0.1407 -0.3762  0.0959
 5425SOL    HW117174   0.388   2.508   2.579  0.3137 -0.9979  0.5432
 5425SOL    HW217175   0.539   2.466   2.625  0.7888  0.1757  0.0714
 5426SOL     OW17176   3.040   0.214   5.657 -0.5455  0.6981 -0.0150
 5426SOL    HW117177   2.953   0.264   5.652 -0.2375  1.3147  0.7661
 5426SOL    HW217178   3.085   0.233   5.744  1.5492  2.3248 -1.3701
 5427SOL     OW17179   2.712   5.003   6.492 -0.5676 -0.7877  0.3096
 5427SOL    HW117180   2.720   5.103   6.493 -1.2854 -0.7116 -0.1951
 5427SOL    HW217181   2.665   4.972   6.575  1.9418 -0.9650  1.7507
 5428SOL     OW17182   1.677   0.890   1.152 -0.1213 -0.7245  0.2096
 5428SOL    HW117183   1.645   0.819   1.215  1.9905 -1.2737  0.7475
 5428SOL    HW217184   1.766   0.863   1.114 -0.3858  0.5562 -1.4298
 5429SOL     OW17185   5.713   1.257   1.530 -0.3401  0.6102  0.9279
 5429SOL    HW117186   5.624   1.220   1.504  0.8421 -0.6713 -1.8006
 5429SOL    HW217187   5.762   1.190   1.585 -0.1757  0.2427  0.3530
 5430SOL     OW17188   2.024   1.133   1.560 -0.1006 -0.1144  0.0224
 5430SOL    HW117189   2.039   1.036   1.575 -0.1701 -0.2488 -0.7196
 5430SOL    HW217190   2.000   1.148   1.464 -0.1861  0.6222  0.1544
 5431SOL     OW17191   5.999   5.607   4.840  0.2667  0.0259 -0.0933
 5431SOL    HW117192   6.010   5.511   4.866  3.3065  0.2904 -0.1197
 5431SOL    HW217193   6.039   5.621   4.750  1.2919  1.6187  0.5845
 5432SOL     OW17194   0.455   3.331   3.053  0.1191 -0.2730 -0.3064
 5432SOL    HW117195   0.459   3.272   2.972  0.6295 -1.5405  0.6126
 5432SOL    HW217196   0.384   3.298   3.115  1.1577 -0.6395  0.7368
 5433SOL     OW17197   6.579   1.416   4.076 -0.4648 -0.1153 -0.1708
 5433SOL    HW117198   6.494   1.466   4.057 -1.1699 -0.7736  1.1005
 5433SOL    HW217199   6.621   1.388   3.990 -0.6788  1.6000 -0.8811
 5434SOL     OW17200   2.386   5.484   5.534 -0.3129 -0.4407 -0.4026
 5434SOL    HW117201   2.294   5.447   5.546 -0.0241 -0.4149  2.5335
 5434SOL    HW217202   2.446   5.412   5.498 -0.8370 -1.4131  0.5939
 5435SOL     OW17203   3.199   0.820   2.305 -0.4143 -0.3809 -0.0436
 5435SOL    HW117204   3.281   0.764   2.306  0.8097  1.2447  2.4229
 5435SOL    HW217205   3.183   0.856   2.213  0.5638 -2.1636 -0.9547
 5436SOL     OW17206   5.212   2.635   0.909  0.1732 -0.0076 -0.3028
 5436SOL    HW117207   5.198   2.648   0.811  0.5420 -0.2224 -0.3876
 5436SOL    HW217208   5.307   2.606   0.925  0.0814 -0.0832  0.1051
 5437SOL     OW17209   1.653   2.377   4.215 -0.3197 -0.4426  0.4176
 5437SOL    HW117210   1.579   2.329   4.262  0.5016 -1.5990  0.5675
 5437SOL    HW217211   1.725   2.312   4.191  0.8030  0.7057  0.5631
 5438SOL     OW17212   4.042   3.163   4.260  0.1627  0.1074  0.3098
 5438SOL    HW117213   3.982   3.115   4.325  0.0932  0.4348  0.4905
 5438SOL    HW217214   4.072   3.249   4.301 -0.8362  0.8898 -0.5493
 5439SOL     OW17215   2.279   1.690   4.855 -0.1380 -0.4696  0.0368
 5439SOL    HW117216   2.269   1.780   4.813 -1.5901 -0.2502  0.7754
 5439SOL    HW217217   2.351   1.693   4.924 -1.8746  0.9259  1.9226
 5440SOL     OW17218   2.142   4.221   4.942 -0.2353  0.4848 -0.3372
 5440SOL    HW117219   2.058   4.224   4.996 -0.7424  1.2464 -1.1437
 5440SOL    HW217220   2.196   4.141   4.968 -2.7082 -1.9007 -1.9791
 5441SOL     OW17221   2.074   0.644   6.255  0.5886  0.3370 -0.1545
 5441SOL    HW117222   2.053   0.662   6.159  0.6210 -1.1408 -0.4643
 5441SOL    HW217223   2.174   0.637   6.267  0.5307 -1.3510 -0.4116
 5442SOL     OW17224   0.107   1.638   3.973 -0.4895 -0.3198 -0.5993
 5442SOL    HW117225   0.172   1.584   3.919 -0.3753 -0.5977 -0.1900
 5442SOL    HW217226   0.020   1.590   3.977 -0.7365  0.0678 -1.1743
 5443SOL     OW17227   3.599   1.796   5.310 -0.1112  0.5123  0.6720
 5443SOL    HW117228   3.666   1.723   5.298  0.7076  1.5706 -1.7927
 5443SOL    HW217229   3.508   1.764   5.281  0.0177  0.1327  0.6863
 5444SOL     OW17230   1.256   3.727   1.270 -0.1963  0.0382  0.2467
 5444SOL    HW117231   1.312   3.651   1.305 -0.2262 -0.4984 -0.8291
 5444SOL    HW217232   1.181   3.745   1.333 -1.0081 -1.7759 -0.1381
 5445SOL     OW17233   2.438   2.027   3.513  0.1341  0.1147 -0.3800
 5445SOL    HW117234   2.520   1.973   3.491  0.2081 -0.0255  0.2288
 5445SOL    HW217235   2.449   2.068   3.604 -1.0546 -1.0234  0.3005
 5446SOL     OW17236   4.028   6.219   2.330 -0.7649  0.6678  0.2801
 5446SOL    HW117237   3.993   6.130   2.298  0.0506  1.3210 -2.7715
 5446SOL    HW217238   3.970   6.292   2.295  0.1625  1.4761  0.3965
 5447SOL     OW17239   1.231   2.154   1.201 -0.1070  0.4359  0.6561
 5447SOL    HW117240   1.306   2.213   1.171 -0.7052  1.1458  0.5313
 5447SOL    HW217241   1.268   2.076   1.251  1.0531 -1.3237 -2.6108
 5448SOL     OW17242   4.775   0.058   2.675  0.2529 -0.8455  0.1943
 5448SOL    HW117243   4.766  -0.030   2.627  1.4911 -0.2402 -1.2349
 5448SOL    HW217244   4.707   0.063   2.748  0.0603 -2.9347  0.2332
 5449SOL     OW17245   1.715   4.157   2.596  0.0070 -0.0447  0.1899
 5449SOL    HW117246   1.737   4.119   2.506 -1.1076 -1.3890  0.4414
 5449SOL    HW217247   1.730   4.087   2.666 -0.5302  0.5076  0.8685
 5450SOL     OW17248   5.750   1.656   0.396 -0.3539 -0.4326  0.4503
 5450SOL    HW117249   5.758   1.756   0.396 -1.0682 -0.3709 -0.1096
 5450SOL    HW217250   5.836   1.617   0.427  1.0340  0.2958 -2.1017
 5451SOL     OW17251   1.285   0.166   5.536 -0.5604  0.7563  0.4020
 5451SOL    HW117252   1.330   0.129   5.617 -2.3089  0.4672  1.2787
 5451SOL    HW217253   1.293   0.266   5.536  1.4600  0.6391 -0.3366
 5452SOL     OW17254   6.068   1.193   2.995  0.0013  0.4734  0.5930
 5452SOL    HW117255   5.994   1.260   3.006  1.5139  2.7546 -1.9759
 5452SOL    HW217256   6.097   1.161   3.085 -3.0152  0.6463  1.7586
 5453SOL     OW17257   1.167   2.705   5.054 -0.1396  0.2021 -0.1720
 5453SOL    HW117258   1.099   2.634   5.074 -0.3021  0.1620 -0.8375
 5453SOL    HW217259   1.248   2.663   5.013 -0.2935  0.4153 -0.6964
 5454SOL     OW17260   3.750   2.948   6.088  0.4037 -0.3184 -0.5114
 5454SOL    HW117261   3.746   2.848   6.085 -1.8420 -0.2835 -0.8158
 5454SOL    HW217262   3.716   2.985   6.001  0.2938  0.7078 -0.0460
 5455SOL     OW17263   6.917   4.331   4.171 -0.0275  0.3606 -0.1479
 5455SOL    HW117264   6.984   4.378   4.113  2.9946 -0.9920  1.9870
 5455SOL    HW217265   6.920   4.232   4.153 -1.5777  0.2589 -0.0466
 5456SOL     OW17266   0.734   1.198   2.599 -0.0868  0.9926  0.1070
 5456SOL    HW117267   0.722   1.286   2.553  0.9327  0.4866 -1.2077
 5456SOL    HW217268   0.659   1.137   2.574 -2.1486  2.1731  2.9230
 5457SOL     OW17269   1.164   0.623   2.691 -0.3129 -0.4131 -0.4357
 5457SOL    HW117270   1.144   0.710   2.737  0.9126 -0.2908 -0.1131
 5457SOL    HW217271   1.208   0.560   2.754  0.5247 -0.5876 -1.1724
 5458SOL     OW17272   5.118   6.704   3.573 -0.0605 -0.1088 -0.8502
 5458SOL    HW117273   5.098   6.706   3.670  0.1774  2.2226 -0.7867
 5458SOL    HW217274   5.056   6.766   3.524 -0.2412 -1.3072 -2.2173
 5459SOL     OW17275   6.054   1.279   1.157  0.1276 -0.1784 -1.2052
 5459SOL    HW117276   6.105   1.193   1.158 -0.3899 -0.5045  0.3853
 5459SOL    HW217277   6.007   1.289   1.069  0.8232 -1.1313 -1.7044
 5460SOL     OW17278   4.170   4.821   1.970 -0.4257 -0.4215 -0.5242
 5460SOL    HW117279   4.266   4.814   1.940 -0.7509 -1.9638 -1.3015
 5460SOL    HW217280   4.159   4.903   2.025  1.3282 -0.1510 -0.5044
 5461SOL     OW17281   2.892   5.137   5.372  0.1235  0.3926  0.1411
 5461SOL    HW117282   2.914   5.079   5.450  1.9378  1.7308  0.7015
 5461SOL    HW217283   2.797   5.122   5.345  0.1912 -1.9300  0.9825
 5462SOL     OW17284   1.315   3.882   0.674 -0.5644 -0.1621 -0.7567
 5462SOL    HW117285   1.320   3.966   0.728  3.1921  0.0324 -1.1350
 5462SOL    HW217286   1.381   3.816   0.710 -1.3114 -1.8102 -2.2899
 5463SOL     OW17287   6.094   0.177   0.971 -0.7003  0.3829  0.1749
 5463SOL    HW117288   6.066   0.162   0.877 -0.8088 -0.0541  0.2751
 5463SOL    HW217289   6.070   0.271   0.999 -1.2561  0.3004 -0.0180
 5464SOL     OW17290   5.140   6.539   1.436  0.2384  0.2227 -0.0294
 5464SOL    HW117291   5.206   6.476   1.394  0.2416  1.2736 -1.7250
 5464SOL    HW217292   5.164   6.555   1.532 -0.1418 -2.8088  0.6469
 5465SOL     OW17293   0.149   0.408   0.462 -0.2809  0.5960  0.4550
 5465SOL    HW117294   0.147   0.308   0.459 -0.2059  0.6035  0.0982
 5465SOL    HW217295   0.211   0.438   0.534 -0.5927  0.3852  0.8093
 5466SOL     OW17296   4.268   0.564   1.953 -0.0423  0.0820 -0.2778
 5466SOL    HW117297   4.176   0.600   1.942 -0.4256 -0.6150  0.5274
 5466SOL    HW217298   4.309   0.601   2.037 -0.4300 -1.2823  0.5411
 5467SOL     OW17299   6.865   1.881   0.608  0.3457  0.4534 -0.3739
 5467SOL    HW117300   6.797   1.815   0.638  0.7989 -0.2944 -0.9302
 5467SOL    HW217301   6.954   1.858   0.648  0.5997  0.4362 -0.9284
 5468SOL     OW17302   0.791   1.745   5.699  0.6883 -0.1015  0.1663
 5468SOL    HW117303   0.697   1.776   5.688  0.6067 -0.9475 -1.9630
 5468SOL    HW217304   0.850   1.797   5.637  1.6594  0.3986  1.4493
 5469SOL     OW17305   1.651   6.765   2.226 -0.4037  0.2441  0.1550
 5469SOL    HW117306   1.572   6.809   2.268 -0.4040 -1.7328  2.4619
 5469SOL    HW217307   1.735   6.811   2.257 -0.4421 -0.7904  1.9419
 5470SOL     OW17308   4.619   5.036   4.847  0.0537  0.2727 -0.6103
 5470SOL    HW117309   4.543   5.043   4.912  2.6258  0.5860  2.6569
 5470SOL    HW217310   4.603   4.959   4.786 -2.7044  0.1490  0.1119
 5471SOL     OW17311   4.558   0.164   6.262 -0.2209  0.7237 -0.1254
 5471SOL    HW117312   4.465   0.196   6.278 -0.4495  0.8139 -1.5445
 5471SOL    HW217313   4.564   0.066   6.283 -0.3864  0.9249  0.8874
 5472SOL     OW17314   6.927   5.554   5.173  0.4014 -0.3083  0.1863
 5472SOL    HW117315   6.840   5.600   5.190 -0.5372 -0.8245 -2.6733
 5472SOL    HW217316   6.921   5.502   5.088  2.7389 -2.4115  1.1861
 5473SOL     OW17317   3.610   5.377   3.168  0.4500 -0.1066  0.6548
 5473SOL    HW117318   3.551   5.457   3.175  2.4952  1.3992  1.3336
 5473SOL    HW217319   3.562   5.305   3.117 -0.9490  2.0023 -1.1744
 5474SOL     OW17320   0.709   5.762   2.388 -0.0019 -0.0505  0.0358
 5474SOL    HW117321   0.755   5.735   2.473  0.3546  0.0261 -0.1314
 5474SOL    HW217322   0.611   5.772   2.405  0.1519  0.5903  0.5929
 5475SOL     OW17323   1.117   2.281   1.728  0.1238 -0.1185 -0.4060
 5475SOL    HW117324   1.047   2.218   1.760 -0.6534  0.8056 -0.2583
 5475SOL    HW217325   1.180   2.302   1.803  0.2912 -0.5810 -0.4128
 5476SOL     OW17326   4.642   6.317   4.079  0.0091  0.0382  0.7903
 5476SOL    HW117327   4.545   6.338   4.072 -0.0218 -0.2934  0.1446
 5476SOL    HW217328   4.673   6.272   3.995  1.7821  4.3611 -1.1998
 5477SOL     OW17329   5.156   2.755   3.078  0.0621 -0.2198 -0.8271
 5477SOL    HW117330   5.231   2.800   3.126 -1.1202  1.2039 -0.2370
 5477SOL    HW217331   5.134   2.805   2.995 -0.8065 -0.0979 -0.5360
 5478SOL     OW17332   0.713   3.775   2.983 -0.4185  0.3579 -0.3100
 5478SOL    HW117333   0.635   3.809   3.035 -0.7424 -0.6193 -0.1378
 5478SOL    HW217334   0.739   3.684   3.016  1.7095  1.2247  0.5908
 5479SOL     OW17335   1.614   0.715   6.504  0.4505  0.1651 -0.3448
 5479SOL    HW117336   1.562   0.646   6.554 -0.1866  1.0496  0.2493
 5479SOL    HW217337   1.700   0.675   6.471 -0.1959 -1.0709 -0.5767
 5480SOL     OW17338   0.060   5.654   0.443  0.6819  0.1781  0.2203
 5480SOL    HW117339   0.081   5.656   0.541  0.8383 -0.6232  0.2084
 5480SOL    HW217340  -0.030   5.612   0.429  1.6488 -1.9298 -0.1088
 5481SOL     OW17341   2.226   0.315   1.473  0.6315  0.1085  0.0244
 5481SOL    HW117342   2.290   0.388   1.448  0.7134  0.1068  0.2337
 5481SOL    HW217343   2.253   0.274   1.559 -0.3363  0.9400  0.7531
 5482SOL     OW17344   2.127   1.399   4.066  0.5057  0.1319  0.4196
 5482SOL    HW117345   2.091   1.454   4.142 -0.2701  0.4911 -0.1910
 5482SOL    HW217346   2.201   1.341   4.099 -1.2728 -1.3992  2.0025
 5483SOL     OW17347   0.679   2.493   6.228  0.1594  0.0916  0.0182
 5483SOL    HW117348   0.595   2.446   6.202  0.8980 -2.0565  1.2122
 5483SOL    HW217349   0.710   2.551   6.153 -1.0385 -1.0397 -1.3994
 5484SOL     OW17350   4.791   6.810   2.558  0.2715  0.2307 -0.7119
 5484SOL    HW117351   4.845   6.784   2.478 -0.3924 -0.6846 -0.8832
 5484SOL    HW217352   4.787   6.733   2.622 -0.4421  0.4402 -0.4949
 5485SOL     OW17353   0.582   4.847   3.156 -0.1049  0.2002 -0.2735
 5485SOL    HW117354   0.669   4.845   3.106  0.2082  0.8155  0.2236
 5485SOL    HW217355   0.508   4.871   3.093 -0.4824 -3.4328 -1.4301
 5486SOL     OW17356   0.677   2.370   6.992  0.0937 -0.1037 -0.4104
 5486SOL    HW117357   0.687   2.380   6.893 -0.3786  0.9960 -0.3653
 5486SOL    HW217358   0.648   2.458   7.031 -2.0984 -1.1079  0.3949
 5487SOL     OW17359   2.026   0.073   5.944 -0.3111  0.0389  0.0870
 5487SOL    HW117360   1.982   0.163   5.945  1.6147  1.0649 -0.6364
 5487SOL    HW217361   2.009   0.028   5.857  0.7625  0.8389 -0.5648
 5488SOL     OW17362   3.219   1.682   4.731  0.0093  0.0795 -0.5526
 5488SOL    HW117363   3.150   1.609   4.724  1.7111 -1.9863  2.1949
 5488SOL    HW217364   3.176   1.764   4.769 -1.4637 -0.2443 -1.4452
 5489SOL     OW17365   5.066   6.409   6.368 -0.4471  0.2479 -0.7687
 5489SOL    HW117366   5.155   6.454   6.368  0.0949 -0.7824 -1.6996
 5489SOL    HW217367   4.997   6.472   6.333  0.5178  0.0189 -3.2954
 5490SOL     OW17368   4.077   3.115   5.927 -0.0260  0.0981  0.4195
 5490SOL    HW117369   4.030   3.081   5.845  0.4024  1.1000 -0.2549
 5490SOL    HW217370   4.140   3.188   5.902  1.2181 -0.5876  1.4492
 5491SOL     OW17371   5.491   2.375   4.901 -0.2244 -0.4562  0.4675
 5491SOL    HW117372   5.499   2.417   4.991  1.7257 -1.3167  0.7553
 5491SOL    HW217373   5.519   2.279   4.906  0.4627 -0.3877 -1.1314
 5492SOL     OW17374   0.533   4.970   2.286  0.0382  0.2519 -0.4469
 5492SOL    HW117375   0.586   4.934   2.363  0.2008 -1.5786 -1.3525
 5492SOL    HW217376   0.595   5.016   2.222  0.2770 -0.3184 -0.6340
 5493SOL     OW17377   1.934   3.062   6.655  0.1126  0.3202  0.2832
 5493SOL    HW117378   1.971   3.108   6.574 -1.8729  2.6441  0.5730
 5493SOL    HW217379   1.977   3.098   6.737 -0.3382  0.5200  0.4347
 5494SOL     OW17380   4.282   0.964   0.876 -0.0704 -0.1059 -0.3248
 5494SOL    HW117381   4.337   0.881   0.890 -1.7593 -1.0570  1.0641
 5494SOL    HW217382   4.315   1.036   0.937 -0.1103 -0.5458  0.2288
 5495SOL     OW17383   2.030   4.242   4.690  0.4261 -0.0979 -0.3847
 5495SOL    HW117384   1.981   4.155   4.699 -1.6657  1.1588  1.4929
 5495SOL    HW217385   2.098   4.249   4.763 -0.3485  0.3926  0.2964
 5496SOL     OW17386   5.283   4.472   2.375 -0.1732 -0.3706 -0.2608
 5496SOL    HW117387   5.368   4.420   2.381 -1.3172 -2.2919  0.5578
 5496SOL    HW217388   5.212   4.415   2.334 -1.2796  0.8944 -0.1931
 5497SOL     OW17389   5.635   1.945   3.850 -0.2224 -0.0563 -0.2527
 5497SOL    HW117390   5.595   2.032   3.823  2.4586  1.2335 -0.4721
 5497SOL    HW217391   5.674   1.953   3.941  0.5012 -0.8441 -0.4813
 5498SOL     OW17392   0.666   4.136   6.051 -0.1519  0.2237 -0.1917
 5498SOL    HW117393   0.616   4.058   6.089  2.3229 -1.3651  0.0373
 5498SOL    HW217394   0.754   4.145   6.097  0.0837  2.5221 -0.9659
 5499SOL     OW17395   0.249   6.985   3.556 -0.6829  0.0826 -0.2512
 5499SOL    HW117396   0.160   7.011   3.520 -0.0496 -0.1712 -2.1051
 5499SOL    HW217397   0.257   6.885   3.559 -0.8276  0.0867  0.9344
 5500SOL     OW17398   1.125   0.673   6.278 -0.4455  0.2866  0.3987
 5500SOL    HW117399   1.055   0.619   6.325 -2.9880  3.1734  0.2445
 5500SOL    HW217400   1.081   0.744   6.222  2.6292  1.6464 -0.5271
 5501SOL     OW17401   4.553   0.216   1.102  0.0489  0.1614 -0.5145
 5501SOL    HW117402   4.588   0.291   1.047  0.0495 -0.7320 -1.7611
 5501SOL    HW217403   4.628   0.171   1.150  0.5665 -1.1453 -2.4331
 5502SOL     OW17404   0.732   5.657   1.443  0.6227 -0.4415 -0.5241
 5502SOL    HW117405   0.672   5.718   1.494  0.2682 -0.7861 -0.5285
 5502SOL    HW217406   0.718   5.670   1.345  0.4339 -0.6383 -0.5244
 5503SOL     OW17407   1.754   5.166   1.328 -0.4718  0.4026 -0.6240
 5503SOL    HW117408   1.730   5.175   1.232 -0.4083 -0.4166 -0.7287
 5503SOL    HW217409   1.831   5.225   1.350 -0.3322  0.4103 -1.1387
 5504SOL     OW17410   6.813   4.418   6.666 -0.0243 -0.0501 -0.4045
 5504SOL    HW117411   6.756   4.397   6.587  0.5239  0.3067 -0.9067
 5504SOL    HW217412   6.883   4.347   6.676  0.2404  0.1883 -0.5639
 5505SOL     OW17413   5.124   6.391   3.430 -0.5562  0.4911  0.4587
 5505SOL    HW117414   5.070   6.460   3.382 -0.6317 -0.1636 -0.4301
 5505SOL    HW217415   5.094   6.385   3.525  0.0672  2.3096  0.8211
 5506SOL     OW17416   1.847   1.263   3.430 -0.2632 -0.1637 -0.1956
 5506SOL    HW117417   1.755   1.265   3.390  0.4604 -0.6203 -2.0011
 5506SOL    HW217418   1.915   1.274   3.357  1.1608 -1.4767  0.8690
 5507SOL     OW17419   0.187   5.433   4.589  0.5003  0.0493  0.2549
 5507SOL    HW117420   0.243   5.505   4.629  2.3262 -2.5257  2.7671
 5507SOL    HW217421   0.131   5.390   4.660 -0.0736 -1.3751 -0.9967
 5508SOL     OW17422   6.996   1.573   6.067 -0.3283 -0.4436  0.2776
 5508SOL    HW117423   6.937   1.648   6.037 -0.0023  0.1076  0.9657
 5508SOL    HW217424   7.007   1.507   5.993 -0.6092  0.1977 -0.3470
 5509SOL     OW17425   5.720   5.997   2.025 -0.0880 -0.2356 -0.1182
 5509SOL    HW117426   5.652   5.923   2.025  0.4482 -0.7686 -1.9020
 5509SOL    HW217427   5.693   6.067   1.959 -0.5771  1.2094  1.5326
 5510SOL     OW17428   5.114   6.950   2.382 -0.0714 -0.3808 -0.2898
 5510SOL    HW117429   5.197   6.898   2.403 -0.6572 -1.6339 -0.9936
 5510SOL    HW217430   5.136   7.021   2.316  0.4599 -0.6274 -0.3851
 5511SOL     OW17431   1.996   6.959   5.704  0.2660 -0.0412  0.2190
 5511SOL    HW117432   2.070   6.901   5.672  0.1527  0.4165 -0.9464
 5511SOL    HW217433   1.963   7.015   5.628  0.4702  1.6532  1.3284
 5512SOL     OW17434   1.126   2.868   2.428  0.3774 -0.2822 -0.0229
 5512SOL    HW117435   1.214   2.914   2.414  0.4353 -0.1422  0.7834
 5512SOL    HW217436   1.078   2.861   2.340  1.0366 -0.0444 -0.4068
 5513SOL     OW17437   6.785   4.976   6.529  0.5450 -0.1347  0.4171
 5513SOL    HW117438   6.817   4.991   6.622  0.5878 -1.0923  0.5708
 5513SOL    HW217439   6.690   5.003   6.520  0.7006  0.4763  0.5896
 5514SOL     OW17440   3.432   4.756   6.078  0.3128  0.0774 -0.2068
 5514SOL    HW117441   3.334   4.761   6.062  0.4193 -0.5764 -1.1360
 5514SOL    HW217442   3.479   4.814   6.012  0.4922  1.6991  1.2583
 5515SOL     OW17443   2.290   5.480   0.523 -0.1109 -0.0402  0.4860
 5515SOL    HW117444   2.265   5.390   0.558 -0.9109  0.0614  0.1883
 5515SOL    HW217445   2.313   5.474   0.426 -0.1672  0.0746  0.4646
 5516SOL     OW17446   2.964   4.164   0.351  0.2441  0.5853  0.1285
 5516SOL    HW117447   2.905   4.183   0.273 -0.4162 -1.4116  0.0956
 5516SOL    HW217448   2.908   4.146   0.432  0.6150 -3.1807 -0.3093
 5517SOL     OW17449   4.523   4.830   5.130 -0.4079  0.4483 -0.3139
 5517SOL    HW117450   4.424   4.828   5.142 -0.2182 -2.0720  1.5089
 5517SOL    HW217451   4.559   4.737   5.131  2.1342  1.3577  0.5907
 5518SOL     OW17452   3.974   3.043   6.170  0.0448  0.4395 -0.0483
 5518SOL    HW117453   3.894   2.994   6.136  0.5307 -0.4728  0.0805
 5518SOL    HW217454   4.025   3.082   6.093  0.8292 -1.1317 -0.3676
 5519SOL     OW17455   1.531   4.436   5.562 -0.6791 -0.4119 -0.3427
 5519SOL    HW117456   1.455   4.480   5.515 -0.4386  0.1717 -0.1881
 5519SOL    HW217457   1.507   4.420   5.657 -0.4114  0.2638 -0.1592
 5520SOL     OW17458   4.677   1.861   4.318 -0.2929  0.2309  0.3649
 5520SOL    HW117459   4.577   1.859   4.324 -0.3806 -1.5575 -0.6999
 5520SOL    HW217460   4.714   1.917   4.392 -2.0785  1.1535  0.6233
 5521SOL     OW17461   0.487   5.818   2.926 -0.1067  0.0940 -0.1665
 5521SOL    HW117462   0.533   5.732   2.905  1.5002  1.1916 -1.4456
 5521SOL    HW217463   0.509   5.845   3.020  0.3549 -0.3174 -0.1496
 5522SOL     OW17464   0.771   4.200   4.507 -0.3112  0.1549 -0.2219
 5522SOL    HW117465   0.757   4.102   4.498  1.3706 -0.1464  0.1702
 5522SOL    HW217466   0.701   4.248   4.453  1.3780 -1.3405 -4.1519
 5523SOL     OW17467   1.506   3.601   6.812 -0.3061 -0.0941  0.2759
 5523SOL    HW117468   1.505   3.682   6.871  0.2614 -1.9645  3.0468
 5523SOL    HW217469   1.437   3.536   6.844  0.3865 -1.4065 -0.8031
 5524SOL     OW17470   5.772   5.312   1.621  0.1339  0.0706 -0.5271
 5524SOL    HW117471   5.811   5.310   1.713 -0.2766  1.1583 -0.3171
 5524SOL    HW217472   5.673   5.296   1.626  0.1671 -0.2627 -0.8289
 5525SOL     OW17473   6.331   2.876   1.460 -0.1882  0.1086  0.1735
 5525SOL    HW117474   6.363   2.782   1.453  1.5072  0.6819 -0.3111
 5525SOL    HW217475   6.244   2.885   1.411 -0.7149 -1.3307  0.7977
 5526SOL     OW17476   4.593   6.268   6.104 -0.4866 -0.1983  0.0270
 5526SOL    HW117477   4.622   6.306   6.192 -0.5732  3.3797 -1.2925
 5526SOL    HW217478   4.672   6.228   6.057  0.2558  0.6992  0.4655
 5527SOL     OW17479   4.448   4.524   2.394 -0.2488 -0.0926 -0.4883
 5527SOL    HW117480   4.395   4.607   2.375 -0.7301 -0.3428 -0.2801
 5527SOL    HW217481   4.441   4.461   2.316 -1.5250 -0.7622  0.1237
 5528SOL     OW17482   5.137   2.665   5.953  0.2634  0.4030 -0.8120
 5528SOL    HW117483   5.221   2.707   5.989  0.8257 -1.5552  0.3430
 5528SOL    HW217484   5.059   2.725   5.972  0.7926  0.3313  2.1774
 5529SOL     OW17485   0.329   2.754   2.201  0.7574 -0.0293 -0.2817
 5529SOL    HW117486   0.410   2.739   2.258 -0.8578 -0.7368  1.9645
 5529SOL    HW217487   0.299   2.667   2.161 -0.2987 -0.2455  0.9377
 5530SOL     OW17488   6.091   5.990   4.767  0.1957 -0.2087  0.0015
 5530SOL    HW117489   6.086   5.988   4.667 -0.3550 -0.4347  0.0333
 5530SOL    HW217490   6.123   6.080   4.796 -0.5292  0.1732 -0.3421
 5531SOL     OW17491   2.166   0.184   6.361 -0.3429 -0.3791 -0.1619
 5531SOL    HW117492   2.105   0.134   6.300 -0.9411 -0.3886  0.4236
 5531SOL    HW217493   2.115   0.212   6.442  0.1967  0.4558 -0.1025
 5532SOL     OW17494   5.689   2.089   6.343 -0.7088 -0.1406  0.6595
 5532SOL    HW117495   5.735   2.176   6.325 -0.9762 -0.0647  0.3360
 5532SOL    HW217496   5.592   2.106   6.361 -0.6508 -0.3193  1.1525
 5533SOL     OW17497   0.611   3.878   0.761 -0.5068  0.0433 -0.2498
 5533SOL    HW117498   0.543   3.810   0.790  0.0699 -1.3930 -2.0962
 5533SOL    HW217499   0.673   3.837   0.695  0.4130  2.1615 -0.7746
 5534SOL     OW17500   2.749   0.556   2.692  0.4955 -0.0146  0.3542
 5534SOL    HW117501   2.818   0.559   2.619 -0.3373  0.7649 -0.4297
 5534SOL    HW217502   2.662   0.525   2.654 -0.1619  1.1950  0.8293
 5535SOL     OW17503   5.181   1.231   6.258 -0.2993  0.2950  0.5414
 5535SOL    HW117504   5.205   1.328   6.269 -0.2524  0.2406  0.9337
 5535SOL    HW217505   5.182   1.208   6.161 -0.0154  0.6150  0.4634
 5536SOL     OW17506   5.387   1.658   0.753  0.5404  0.1075 -0.2367
 5536SOL    HW117507   5.311   1.621   0.699  0.3287  0.4151 -0.1506
 5536SOL    HW217508   5.452   1.703   0.693  1.4391 -1.4563 -0.5045
 5537SOL     OW17509   5.222   0.058   3.036  0.4282  0.0261 -0.2590
 5537SOL    HW117510   5.310   0.044   3.083  0.0951 -0.8488  0.1289
 5537SOL    HW217511   5.237   0.063   2.938  1.1422  1.8773 -0.1078
 5538SOL     OW17512   3.465   2.747   5.986  0.1253  0.3470  0.0145
 5538SOL    HW117513   3.451   2.677   6.056 -1.5338 -0.9844 -1.5327
 5538SOL    HW217514   3.562   2.770   5.980  1.0574 -3.1421 -0.5445
 5539SOL     OW17515   4.580   4.706   1.522 -0.3728 -0.0740 -0.1330
 5539SOL    HW117516   4.592   4.671   1.430 -0.8577 -1.1482  0.1923
 5539SOL    HW217517   4.501   4.662   1.564 -1.2270  1.6565  0.1991
 5540SOL     OW17518   6.974   6.808   1.711  0.3751  0.0974 -0.1987
 5540SOL    HW117519   7.067   6.785   1.682  0.1986 -0.7036 -0.1703
 5540SOL    HW217520   6.977   6.879   1.781  0.8674  1.2687 -1.3710
 5541SOL     OW17521   2.709   6.930   0.920  0.5998 -0.1615 -0.4466
 5541SOL    HW117522   2.760   6.849   0.889  0.2581 -0.4561 -0.2585
 5541SOL    HW217523   2.714   7.001   0.851  0.7214 -0.4280 -0.7163
 5542SOL     OW17524   4.203   1.025   2.194 -0.6120  0.0945 -0.4855
 5542SOL    HW117525   4.265   1.058   2.123  0.9510  0.0240  0.7984
 5542SOL    HW217526   4.211   0.926   2.203  0.3898  0.2714  0.8317
 5543SOL     OW17527   0.234   4.338   3.063  0.0861  0.4535 -0.1024
 5543SOL    HW117528   0.317   4.348   3.118  0.1427  2.5411 -0.4716
 5543SOL    HW217529   0.181   4.423   3.067 -2.5737 -1.1131  0.8856
 5544SOL     OW17530   6.069   2.988   3.393  0.0695  0.8535 -0.6117
 5544SOL    HW117531   6.120   2.956   3.312  1.1775  3.1617 -0.9112
 5544SOL    HW217532   6.106   3.076   3.422  0.3581 -0.3171  3.0435
 5545SOL     OW17533   0.363   2.993   1.242  0.4794  0.6965 -0.1044
 5545SOL    HW117534   0.332   3.079   1.201  2.3637  1.5371  0.1179
 5545SOL    HW217535   0.367   3.004   1.341 -1.8710 -0.5870  0.1975
 5546SOL     OW17536   1.943   1.363   0.020  0.9124  0.2753  0.2348
 5546SOL    HW117537   1.915   1.457   0.000  0.3850 -0.0266 -0.5037
 5546SOL    HW217538   2.042   1.355   0.009  0.7898  0.4100 -1.1752
 5547SOL     OW17539   4.282   4.788   1.287 -0.0816  0.4275  0.9795
 5547SOL    HW117540   4.218   4.862   1.266 -0.8178  0.4600  3.1344
 5547SOL    HW217541   4.241   4.727   1.355  0.4671 -2.0485 -0.7752
 5548SOL     OW17542   5.437   2.717   2.227 -0.5829 -0.3936 -0.0452
 5548SOL    HW117543   5.348   2.736   2.185 -0.9396 -0.0983  0.8373
 5548SOL    HW217544   5.431   2.633   2.282 -0.3347 -0.3342  0.0721
 5549SOL     OW17545   1.259   1.772   6.374  0.7726  0.0529  0.0940
 5549SOL    HW117546   1.172   1.772   6.325 -0.4594  0.7529  2.1654
 5549SOL    HW217547   1.333   1.792   6.310 -0.6093 -0.1959 -1.6543
 5550SOL     OW17548   5.101   2.206   1.281  0.1360 -0.0323  0.0670
 5550SOL    HW117549   5.141   2.136   1.340 -0.0134  1.2713  1.7779
 5550SOL    HW217550   5.113   2.296   1.322 -0.4298  0.8807 -1.6703
 5551SOL     OW17551   0.038   2.983   2.685  0.0720 -0.0235  0.2246
 5551SOL    HW117552   0.090   2.981   2.599  0.7822  1.8794  0.5460
 5551SOL    HW217553  -0.049   2.937   2.673 -1.0693  2.4956 -2.3938
 5552SOL     OW17554   3.747   6.834   1.647  0.1559 -0.5718 -1.1665
 5552SOL    HW117555   3.740   6.893   1.727 -1.6381 -0.8089 -1.1065
 5552SOL    HW217556   3.709   6.882   1.567  1.5791 -0.4795 -1.8087
 5553SOL     OW17557   2.672   0.404   1.297 -0.1588 -0.1574  0.3222
 5553SOL    HW117558   2.772   0.413   1.296 -0.1371 -0.2285 -1.4014
 5553SOL    HW217559   2.646   0.314   1.261 -0.8582  0.1174  0.1259
 5554SOL     OW17560   6.074   1.135   5.114  0.2341 -0.0283 -0.1655
 5554SOL    HW117561   6.030   1.147   5.025  2.1606 -0.4322 -1.2427
 5554SOL    HW217562   6.067   1.039   5.142  2.0572 -0.5843 -1.3501
 5555SOL     OW17563   1.595   4.294   2.370  0.0880 -0.4476  0.4344
 5555SOL    HW117564   1.642   4.252   2.447  1.1216  1.5021  0.9278
 5555SOL    HW217565   1.593   4.393   2.381 -3.1802 -0.3091 -0.1265
 5556SOL     OW17566   4.658   6.364   0.176  0.3992  0.7036 -0.4242
 5556SOL    HW117567   4.595   6.307   0.123 -0.7440  1.3944  0.1333
 5556SOL    HW217568   4.751   6.353   0.141  0.2016 -1.3369 -0.4670
 5557SOL     OW17569   3.111   1.470   6.144  0.3328  0.1411  0.2526
 5557SOL    HW117570   3.017   1.485   6.114 -0.3249  0.6934  2.3528
 5557SOL    HW217571   3.154   1.399   6.089 -1.6691 -0.8685 -0.0750
 5558SOL     OW17572   5.441   4.214   0.261 -0.3058  0.0303 -0.4266
 5558SOL    HW117573   5.388   4.212   0.176 -0.1149  1.1369 -0.5826
 5558SOL    HW217574   5.461   4.120   0.289 -3.2310 -0.5000  0.2147
 5559SOL     OW17575   6.717   5.889   3.122  0.2047  0.1763  0.4956
 5559SOL    HW117576   6.705   5.984   3.093  0.0160 -0.2353 -0.8407
 5559SOL    HW217577   6.651   5.831   3.075  0.5665 -0.6702  1.0051
 5560SOL     OW17578   5.940   1.878   0.507  0.0572 -0.0549 -0.4450
 5560SOL    HW117579   5.985   1.822   0.438  1.6147  0.3383  0.1802
 5560SOL    HW217580   5.892   1.819   0.572 -1.0945 -0.4420 -1.6175
 5561SOL     OW17581   5.697   3.284   6.855  0.8207  0.1934 -0.0067
 5561SOL    HW117582   5.681   3.379   6.829  0.7564  0.3110  0.4449
 5561SOL    HW217583   5.792   3.274   6.885  1.0030 -0.0258 -0.6370
 5562SOL     OW17584   2.471   5.627   0.150 -0.1997  0.7686  0.4658
 5562SOL    HW117585   2.491   5.683   0.070 -0.0660 -0.4887 -0.4214
 5562SOL    HW217586   2.556   5.592   0.188 -0.3397  0.0842  0.1769
 5563SOL     OW17587   5.479   3.760   6.067  0.2546 -0.0330 -0.2328
 5563SOL    HW117588   5.509   3.668   6.094  0.9445  0.0082 -0.8334
 5563SOL    HW217589   5.550   3.826   6.089 -0.1996  0.3556  0.1050
 5564SOL     OW17590   0.707   0.726   4.901 -0.7085 -0.0071  0.7365
 5564SOL    HW117591   0.617   0.684   4.893 -0.4323 -0.5592  0.4876
 5564SOL    HW217592   0.778   0.658   4.884 -0.2792  0.9064 -1.4861
 5565SOL     OW17593   3.000   2.923   6.269 -0.2532  0.0724 -0.2890
 5565SOL    HW117594   3.052   2.934   6.184 -2.3141  1.2000 -1.4787
 5565SOL    HW217595   3.040   2.983   6.339 -0.2908  1.4272 -1.3645
 5566SOL     OW17596   6.616   1.466   1.768  0.1396 -0.0988  0.0664
 5566SOL    HW117597   6.658   1.389   1.816 -0.3508  0.0746  0.7935
 5566SOL    HW217598   6.535   1.434   1.718  0.3364 -0.1801 -0.2022
 5567SOL     OW17599   3.337   4.857   0.568  0.0784 -0.0982 -0.1810
 5567SOL    HW117600   3.354   4.799   0.648 -0.2547  0.8814  0.6226
 5567SOL    HW217601   3.397   4.829   0.493  1.5166 -0.0495  0.9071
 5568SOL     OW17602   3.875   2.469   1.142  0.3848 -0.2629 -0.2239
 5568SOL    HW117603   3.953   2.477   1.204 -0.1394  0.1122  0.3962
 5568SOL    HW217604   3.887   2.532   1.065  0.1068  0.7074  0.5146
 5569SOL     OW17605   0.432   0.008   2.642  0.2257 -0.3968 -0.2125
 5569SOL    HW117606   0.418   0.090   2.586  1.9046 -0.7063 -1.1573
 5569SOL    HW217607   0.345  -0.042   2.649 -0.6369  1.0218 -0.2893
 5570SOL     OW17608   1.170   3.583   2.385  0.0056 -0.2325  0.1492
 5570SOL    HW117609   1.092   3.589   2.324 -0.1795 -0.7650  0.3279
 5570SOL    HW217610   1.179   3.669   2.436 -2.4043 -1.1822  2.4461
 5571SOL     OW17611   3.756   1.681   0.882  0.3720  0.2515  0.3537
 5571SOL    HW117612   3.708   1.665   0.968  0.6899  0.7126  0.6222
 5571SOL    HW217613   3.688   1.699   0.810 -0.0702 -3.1531 -0.2139
 5572SOL     OW17614   0.086   1.091   4.772  0.5646  0.7878  0.0196
 5572SOL    HW117615   0.185   1.100   4.779  0.4702  1.1319  1.1148
 5572SOL    HW217616   0.055   1.130   4.685  1.3527  0.9496 -0.1966
 5573SOL     OW17617   4.970   2.540   1.002  0.5794  0.4167  0.8808
 5573SOL    HW117618   4.959   2.589   1.088  3.5019  2.6555  0.1327
 5573SOL    HW217619   5.064   2.548   0.970 -0.2437 -0.7859 -2.2734
 5574SOL     OW17620   3.989   0.005   0.772  0.6164  0.1611  0.3899
 5574SOL    HW117621   4.059   0.015   0.843  0.1486  0.5497  0.8068
 5574SOL    HW217622   3.947   0.094   0.754 -0.3866 -0.2122  0.7904
 5575SOL     OW17623   0.488   2.453   4.391  0.0241  0.2510  0.2660
 5575SOL    HW117624   0.510   2.490   4.481  0.5348 -0.3584  0.3986
 5575SOL    HW217625   0.537   2.504   4.320  0.0501  0.3785  0.3763
 5576SOL     OW17626   5.403   5.567   6.943 -0.5171 -0.0324 -0.1925
 5576SOL    HW117627   5.334   5.583   7.014 -1.9468 -0.9709 -1.3042
 5576SOL    HW217628   5.431   5.655   6.903  0.2177  0.4930  1.4129
 5577SOL     OW17629   1.687   3.818   5.525  0.1167  0.0081  0.1776
 5577SOL    HW117630   1.642   3.847   5.440  4.1752 -0.2562 -2.3196
 5577SOL    HW217631   1.676   3.719   5.536  1.5134 -0.3708 -1.4440
 5578SOL     OW17632   4.114   3.511   3.918  0.2735 -0.0953 -1.0843
 5578SOL    HW117633   4.198   3.469   3.882  0.1234 -0.6252 -0.8256
 5578SOL    HW217634   4.049   3.439   3.942 -0.2960  0.3172 -1.3747
 5579SOL     OW17635   5.091   2.209   6.093  0.1915 -0.2063  0.1174
 5579SOL    HW117636   5.126   2.301   6.075  2.7119 -1.3985 -1.5353
 5579SOL    HW217637   5.013   2.191   6.033 -0.5378  0.9098  0.6831
 5580SOL     OW17638   0.882   2.007   0.784  0.1906  0.0227 -0.5527
 5580SOL    HW117639   0.941   1.935   0.750  1.4244  0.4033  0.6998
 5580SOL    HW217640   0.833   1.975   0.865  1.2255  0.7469  0.3953
 5581SOL     OW17641   3.051   4.157   6.939  0.5894  0.0141 -0.2151
 5581SOL    HW117642   3.112   4.080   6.919  0.6928  0.0322  0.0367
 5581SOL    HW217643   3.078   4.236   6.884  1.7108  0.4770  0.9556
 5582SOL     OW17644   5.891   2.206   3.086 -0.1795 -0.2906 -0.2124
 5582SOL    HW117645   5.892   2.169   3.179 -2.6711 -1.3448 -0.5251
 5582SOL    HW217646   5.966   2.167   3.034  1.7837  0.9395  1.4946
 5583SOL     OW17647   3.541   5.802   6.691 -0.2310 -0.2091  0.4708
 5583SOL    HW117648   3.600   5.731   6.728  1.1345  1.5035  1.7605
 5583SOL    HW217649   3.539   5.880   6.753 -1.7779  0.8535 -0.8138
 5584SOL     OW17650   1.352   0.191   3.552 -0.5732 -0.0519  0.6169
 5584SOL    HW117651   1.268   0.246   3.553 -0.0689  0.7285  0.6871
 5584SOL    HW217652   1.331   0.101   3.515 -1.6118 -0.1524  1.3868
 5585SOL     OW17653   1.956   6.664   2.432 -0.1061 -0.3002 -0.6114
 5585SOL    HW117654   1.869   6.621   2.458 -0.0860 -1.2141 -1.9179
 5585SOL    HW217655   1.937   6.747   2.379 -0.1447  1.0740  1.4498
 5586SOL     OW17656   3.211   4.084   1.766  0.3063 -0.3354  0.5343
 5586SOL    HW117657   3.302   4.121   1.746  0.2389  0.9631  2.3470
 5586SOL    HW217658   3.205   4.061   1.863 -0.9320 -1.5778  0.1979
 5587SOL     OW17659   3.140   0.689   3.126  0.0194 -0.2597 -0.7744
 5587SOL    HW117660   3.188   0.613   3.083  0.4951  0.1878 -1.0397
 5587SOL    HW217661   3.199   0.770   3.127  0.0884 -0.3054  0.8907
 5588SOL     OW17662   4.882   1.002   5.933 -0.0472 -0.7705 -0.1084
 5588SOL    HW117663   4.802   1.021   5.875  0.3091 -0.8299 -0.6270
 5588SOL    HW217664   4.865   0.921   5.988 -0.6961 -0.2706  0.4514
 5589SOL     OW17665   1.351   0.013   2.649 -0.6465  0.1884 -0.6174
 5589SOL    HW117666   1.422   0.066   2.602 -0.7954  0.0595 -0.9926
 5589SOL    HW217667   1.319  -0.061   2.589 -1.4787  0.5746 -0.6613
 5590SOL     OW17668   0.662   1.008   5.307 -0.3241 -0.6339 -0.2639
 5590SOL    HW117669   0.722   0.971   5.377 -0.1077 -0.2900 -0.2625
 5590SOL    HW217670   0.682   0.964   5.219  2.1085  1.5648 -0.9667
 5591SOL     OW17671   6.491   4.181   1.952  0.1579  0.0270  0.1910
 5591SOL    HW117672   6.521   4.275   1.935 -1.7536  1.0019  1.7391
 5591SOL    HW217673   6.402   4.183   1.998  0.5925 -2.5253  1.2877
 5592SOL     OW17674   0.361   0.292   5.353  0.4305  0.8221 -0.1218
 5592SOL    HW117675   0.439   0.253   5.402  1.9505  1.4205 -1.9380
 5592SOL    HW217676   0.352   0.389   5.377  0.9243  1.0123 -0.6576
 5593SOL     OW17677   5.087   3.880   1.204 -0.0966 -0.0518  0.0276
 5593SOL    HW117678   5.150   3.808   1.233  1.9501  0.5963 -2.3742
 5593SOL    HW217679   5.080   3.949   1.276  1.9879 -0.1602  0.3975
 5594SOL     OW17680   4.381   2.459   4.403 -0.1106 -0.3434  0.1309
 5594SOL    HW117681   4.474   2.496   4.413 -0.8499  1.7406 -0.2597
 5594SOL    HW217682   4.351   2.469   4.308 -1.7700  1.7188  0.7968
 5595SOL     OW17683   3.413   1.347   5.531  0.3343  0.0975  0.1639
 5595SOL    HW117684   3.496   1.359   5.476  1.4737  2.4947  2.2327
 5595SOL    HW217685   3.338   1.398   5.490  0.1511 -1.0647 -1.0348
 5596SOL     OW17686   4.352   6.386   0.754 -0.8730 -0.1001 -0.1859
 5596SOL    HW117687   4.422   6.434   0.806  0.3051 -2.5447  0.6699
 5596SOL    HW217688   4.335   6.434   0.668 -1.9441  3.3530  1.7526
 5597SOL     OW17689   3.806   6.076   6.861 -0.2631 -0.4500 -0.2695
 5597SOL    HW117690   3.710   6.075   6.834 -0.1261  1.4894 -0.9794
 5597SOL    HW217691   3.826   6.161   6.909  0.9180 -1.2138  0.6406
 5598SOL     OW17692   2.881   6.064   0.661  0.1374  0.3914 -0.0831
 5598SOL    HW117693   2.879   6.125   0.582  1.3033  1.0509  0.3675
 5598SOL    HW217694   2.851   5.973   0.634  0.2017  0.6900 -1.2093
 5599SOL     OW17695   4.883   1.573   2.720  0.2020  0.0568 -0.5715
 5599SOL    HW117696   4.815   1.580   2.647 -0.8002  0.0445  0.3334
 5599SOL    HW217697   4.972   1.551   2.680 -0.2571  0.3400 -1.8085
 5600SOL     OW17698   5.030   1.887   5.275  0.2478  0.0652 -0.1426
 5600SOL    HW117699   5.012   1.901   5.372 -1.0919  0.9327 -0.4823
 5600SOL    HW217700   5.005   1.794   5.249 -1.1220  0.3717  0.0033
 5601SOL     OW17701   5.385   4.225   2.088 -0.1338 -0.1311 -0.4392
 5601SOL    HW117702   5.293   4.197   2.112  0.1422 -0.5280  0.1860
 5601SOL    HW217703   5.434   4.255   2.170  0.4440 -0.3742 -0.6846
 5602SOL     OW17704   0.327   1.719   1.344 -0.3428  0.7863 -0.4880
 5602SOL    HW117705   0.259   1.765   1.401  2.0119  3.4264  0.4768
 5602SOL    HW217706   0.296   1.719   1.249 -3.1601 -1.3037  0.3232
 5603SOL     OW17707   2.275   1.308   6.533 -0.5362 -0.6980 -0.4210
 5603SOL    HW117708   2.367   1.301   6.569  0.3839 -0.2329 -2.5249
 5603SOL    HW217709   2.212   1.332   6.607  1.2238  0.3153  0.8289
 5604SOL     OW17710   2.981   5.217   1.575 -0.3127  0.1836  0.5770
 5604SOL    HW117711   2.955   5.313   1.580  0.5745  0.4720 -0.2325
 5604SOL    HW217712   3.073   5.209   1.538 -0.7985 -1.0339 -0.4249
 5605SOL     OW17713   5.035   4.590   1.723  0.5711  0.4606 -0.3108
 5605SOL    HW117714   5.005   4.606   1.629  1.0685 -0.6263 -0.6796
 5605SOL    HW217715   5.077   4.673   1.760 -2.7404  2.0428  0.2324
 5606SOL     OW17716   1.963   1.649   6.999  0.6124  0.0715 -0.0163
 5606SOL    HW117717   1.917   1.681   6.916  1.5520  1.3221 -0.0771
 5606SOL    HW217718   1.917   1.686   7.080 -0.1363 -0.9244  0.0309
 5607SOL     OW17719   2.835   0.862   5.435 -0.6764 -0.4059 -0.2546
 5607SOL    HW117720   2.890   0.856   5.352  2.1445 -1.3026  1.5413
 5607SOL    HW217721   2.835   0.956   5.468  0.2821 -0.4791 -0.0035
 5608SOL     OW17722   1.728   6.980   3.930  0.1031  0.2721 -0.1005
 5608SOL    HW117723   1.709   7.036   3.850 -2.4181  2.1943  1.6647
 5608SOL    HW217724   1.814   7.010   3.972 -0.9630  2.6449  0.5447
 5609SOL     OW17725   5.543   6.811   0.869 -0.3050  0.3809 -0.0549
 5609SOL    HW117726   5.507   6.883   0.810 -0.3033  0.7645  0.4033
 5609SOL    HW217727   5.479   6.793   0.943 -0.7547 -0.7764 -0.7008
 5610SOL     OW17728   1.033   4.095   2.261  0.0496 -0.3295  0.0421
 5610SOL    HW117729   1.026   4.184   2.307  1.2556  0.6930 -1.6088
 5610SOL    HW217730   0.951   4.080   2.206 -0.5597 -0.6823  1.0278
 5611SOL     OW17731   5.950   5.095   2.894  0.1152 -0.3415  1.4128
 5611SOL    HW117732   5.924   5.175   2.948 -1.7419  0.2504 -0.2016
 5611SOL    HW217733   6.049   5.091   2.885  0.2990  1.2138  2.3497
 5612SOL     OW17734   2.801   4.683   4.065 -0.0730  0.4291 -0.1303
 5612SOL    HW117735   2.823   4.680   4.163  2.8199 -2.4382 -0.6834
 5612SOL    HW217736   2.879   4.722   4.016 -2.1191  3.3715 -1.3043
 5613SOL     OW17737   6.535   4.319   4.854  0.2588  0.1321  0.0703
 5613SOL    HW117738   6.520   4.257   4.931  0.0031  0.5586  0.3708
 5613SOL    HW217739   6.626   4.360   4.861  0.4246 -0.2043 -0.1237
 5614SOL     OW17740   1.314   0.450   5.653 -0.7070  0.0451  0.4761
 5614SOL    HW117741   1.279   0.471   5.744  0.9302  0.0305  1.1560
 5614SOL    HW217742   1.413   0.464   5.651 -0.2022 -2.8171 -0.4267
 5615SOL     OW17743   3.533   5.212   1.673  0.0808  0.2714 -0.0900
 5615SOL    HW117744   3.520   5.183   1.579  0.1516  0.4809 -0.1645
 5615SOL    HW217745   3.498   5.141   1.735  0.4436 -0.0612 -0.2672
 5616SOL     OW17746   3.159   6.007   0.657  0.3979 -0.3583  0.1767
 5616SOL    HW117747   3.191   5.917   0.686  1.7568 -0.5668 -1.7648
 5616SOL    HW217748   3.059   6.011   0.664  0.4855 -1.0052  2.8670
 5617SOL     OW17749   4.486   5.779   5.318 -0.3862  0.1273  0.6288
 5617SOL    HW117750   4.416   5.732   5.264 -1.3989  0.2556  1.7882
 5617SOL    HW217751   4.457   5.873   5.335  0.8785  0.7242 -0.3036
 5618SOL     OW17752   2.092   5.485   5.109 -0.2602 -0.3649  0.4858
 5618SOL    HW117753   2.089   5.519   5.015  0.4681 -0.3485  0.4700
 5618SOL    HW217754   2.095   5.563   5.172 -0.2328 -0.3849  0.5089
 5619SOL     OW17755   1.710   0.314   0.862 -0.1729 -0.2325 -0.1938
 5619SOL    HW117756   1.769   0.327   0.942  2.6132  0.1111 -2.2005
 5619SOL    HW217757   1.721   0.221   0.827 -2.3999 -0.8229  0.5014
 5620SOL     OW17758   6.772   6.410   0.577  0.5545  0.1911 -0.0293
 5620SOL    HW117759   6.711   6.488   0.593  0.2081 -0.2400  0.7961
 5620SOL    HW217760   6.738   6.330   0.626  1.0412 -0.4253 -0.6724
 5621SOL     OW17761   0.795   0.700   4.536  0.1753  0.4790  0.5191
 5621SOL    HW117762   0.754   0.780   4.580  0.8602  1.2561 -0.2197
 5621SOL    HW217763   0.747   0.681   4.450 -0.8546 -0.7484  1.3203
 5622SOL     OW17764   3.184   3.000   4.219  0.7755 -0.7179 -0.5227
 5622SOL    HW117765   3.233   2.935   4.159  0.7253 -2.2250  1.0001
 5622SOL    HW217766   3.131   3.063   4.162  0.3671 -2.3613 -2.0916
 5623SOL     OW17767   4.975   1.290   0.098 -0.3403  0.0714  0.3259
 5623SOL    HW117768   5.036   1.334   0.031 -0.6559  0.0718  0.0390
 5623SOL    HW217769   4.911   1.230   0.050  1.2822 -2.1840  0.8510
 5624SOL     OW17770   4.142   5.464   3.803  0.0236  0.0547 -0.5717
 5624SOL    HW117771   4.114   5.423   3.717 -0.2973 -0.6998 -0.1172
 5624SOL    HW217772   4.074   5.445   3.874  1.7972 -2.2136  0.6785
 5625SOL     OW17773   1.241   2.863   4.712  0.7256 -0.9362 -0.0222
 5625SOL    HW117774   1.306   2.848   4.786 -0.0754 -0.2225  0.8646
 5625SOL    HW217775   1.288   2.902   4.633  1.2346  0.4763  0.9410
 5626SOL     OW17776   0.006   5.347   0.102 -0.7978 -0.4036  0.0330
 5626SOL    HW117777  -0.024   5.405   0.177  1.5850  0.8691  0.0994
 5626SOL    HW217778   0.026   5.403   0.022  1.0279 -1.1205 -0.0726
 5627SOL     OW17779   5.729   5.014   6.357 -0.5637  0.5537 -0.7236
 5627SOL    HW117780   5.788   4.958   6.416 -1.0287 -0.5133 -1.2450
 5627SOL    HW217781   5.777   5.097   6.331 -0.0691  0.6973  0.5472
 5628SOL     OW17782   4.805   1.232   5.549 -0.8876  0.3421  0.2320
 5628SOL    HW117783   4.830   1.300   5.618  0.9653 -0.6142  0.5866
 5628SOL    HW217784   4.804   1.141   5.591  0.3856 -0.2690 -0.9890
 5629SOL     OW17785   0.356   2.796   0.521  0.0623  0.3327  0.4422
 5629SOL    HW117786   0.401   2.867   0.467  0.4892 -0.8257 -0.7643
 5629SOL    HW217787   0.397   2.791   0.612 -0.1081  1.7453  0.6154
 5630SOL     OW17788   4.516   6.305   4.627 -0.3705  0.0836 -0.0515
 5630SOL    HW117789   4.451   6.268   4.694 -1.0927  1.1111 -0.1484
 5630SOL    HW217790   4.598   6.248   4.624 -0.7859 -0.5887  0.9189
 5631SOL     OW17791   0.243   0.354   1.982 -0.4169  0.3968  0.5966
 5631SOL    HW117792   0.146   0.347   2.006 -0.9463  1.8334 -0.8936
 5631SOL    HW217793   0.288   0.267   2.000 -2.1477 -0.5441  0.6563
 5632SOL     OW17794   0.495   0.285   4.889 -0.5715 -0.0551  0.0953
 5632SOL    HW117795   0.588   0.282   4.852 -0.5892 -0.8276  0.0992
 5632SOL    HW217796   0.432   0.312   4.817 -0.5341 -1.0088 -0.3077
 5633SOL     OW17797   2.116   0.730   5.591  0.3247  0.1994 -0.1354
 5633SOL    HW117798   2.131   0.648   5.645 -0.1584 -0.1784 -0.5607
 5633SOL    HW217799   2.174   0.728   5.510  0.9191  0.6811  0.2641
 5634SOL     OW17800   2.427   5.404   4.456 -0.0460  0.8715 -0.1380
 5634SOL    HW117801   2.380   5.465   4.392 -1.8165  1.3747  1.5405
 5634SOL    HW217802   2.430   5.446   4.546  2.2606  0.1166  0.2044
 5635SOL     OW17803   0.963   0.523   2.180 -0.1412  0.2770 -0.0873
 5635SOL    HW117804   1.055   0.561   2.195  0.5257 -0.6815 -1.5333
 5635SOL    HW217805   0.951   0.441   2.236 -0.2073  0.5157  0.2555
 5636SOL     OW17806   6.229   1.284   6.776 -0.2455  0.0792 -0.0674
 5636SOL    HW117807   6.135   1.297   6.807 -0.3839 -1.7757  0.3996
 5636SOL    HW217808   6.283   1.243   6.850  0.5236 -0.3655 -0.8565
 5637SOL     OW17809   1.260   3.183   4.075  0.2114 -0.2690 -0.4957
 5637SOL    HW117810   1.303   3.265   4.112 -0.1621 -0.0764 -0.4755
 5637SOL    HW217811   1.301   3.102   4.116 -0.4552 -0.0552  0.6662
 5638SOL     OW17812   2.358   0.442   6.711 -0.2102 -0.4109 -0.3927
 5638SOL    HW117813   2.397   0.352   6.694  0.2230 -0.0087 -1.5927
 5638SOL    HW217814   2.324   0.481   6.626 -0.4544  0.5442  0.1231
 5639SOL     OW17815   2.711   6.154   3.485  0.4668 -0.1837  0.0123
 5639SOL    HW117816   2.748   6.062   3.501  0.0804 -0.3064  0.2201
 5639SOL    HW217817   2.653   6.153   3.404 -0.0424 -0.2665  0.3794
 5640SOL     OW17818   2.037   1.687   2.660  0.2528  0.2357  0.1215
 5640SOL    HW117819   2.035   1.670   2.759  1.1789 -0.7668 -0.0090
 5640SOL    HW217820   1.945   1.707   2.628 -0.2925 -0.7409  0.9912
 5641SOL     OW17821   0.433   1.105   3.170  0.4244 -0.5330 -0.2568
 5641SOL    HW117822   0.360   1.042   3.145  1.4588 -1.9257  0.0978
 5641SOL    HW217823   0.439   1.178   3.102  0.0820 -1.5832 -1.4487
 5642SOL     OW17824   3.554   2.942   6.303 -0.0603  0.0567  0.0625
 5642SOL    HW117825   3.633   2.948   6.242 -0.0673 -0.8821 -0.0570
 5642SOL    HW217826   3.480   3.001   6.269  0.4640  0.6962  0.0049
 5643SOL     OW17827   0.807   2.832   3.736  0.0154 -0.2807 -0.5472
 5643SOL    HW117828   0.739   2.773   3.693 -1.0976 -0.0690  0.8482
 5643SOL    HW217829   0.881   2.777   3.773  0.5435 -0.5295 -1.8956
 5644SOL     OW17830   4.824   4.548   1.521 -0.0571 -0.2390  0.2452
 5644SOL    HW117831   4.746   4.610   1.529 -0.1850 -0.2710 -0.6741
 5644SOL    HW217832   4.799   4.459   1.558 -1.2284 -0.9115 -1.9715
 5645SOL     OW17833   1.699   2.042   0.839  0.1306 -0.4420  0.1253
 5645SOL    HW117834   1.704   2.142   0.845 -2.1785 -0.0966 -1.8583
 5645SOL    HW217835   1.707   2.003   0.930  2.1323  1.4553  0.8410
 5646SOL     OW17836   5.249   4.677   6.826  0.3419 -0.2225  0.3031
 5646SOL    HW117837   5.195   4.734   6.888 -1.2217 -1.6780  0.3635
 5646SOL    HW217838   5.320   4.732   6.784 -0.6764  1.6074  0.8442
 5647SOL     OW17839   5.717   1.305   4.637  0.0483 -0.1826 -0.0816
 5647SOL    HW117840   5.770   1.388   4.620  0.1485  0.2486  2.0062
 5647SOL    HW217841   5.716   1.287   4.736 -1.7041 -1.5166 -0.3083
 5648SOL     OW17842   1.610   2.548   0.650  0.0922 -0.0101  0.2515
 5648SOL    HW117843   1.709   2.559   0.638  0.0659  0.1274  0.1684
 5648SOL    HW217844   1.563   2.631   0.622 -0.1677 -0.6343 -1.2698
 5649SOL     OW17845   4.846   3.955   3.382 -0.5257 -0.0030 -0.0586
 5649SOL    HW117846   4.810   4.038   3.426 -0.2948 -0.5177  1.1269
 5649SOL    HW217847   4.938   3.973   3.348  0.1929 -0.2398  1.6972
 5650SOL     OW17848   4.646   2.258   4.674 -0.2094 -0.2360  0.3037
 5650SOL    HW117849   4.559   2.306   4.691 -0.1703  0.1486 -0.5136
 5650SOL    HW217850   4.716   2.326   4.652  0.2120 -0.5781  0.5846
 5651SOL     OW17851   3.732   6.780   0.250 -0.0537  0.4181  0.5728
 5651SOL    HW117852   3.827   6.774   0.282  0.3341 -1.5734 -0.7815
 5651SOL    HW217853   3.731   6.798   0.152 -1.0485 -0.6753  0.3716
 5652SOL     OW17854   5.345   3.281   1.625 -0.0661  0.1782  0.3067
 5652SOL    HW117855   5.248   3.289   1.604  0.1950 -0.0683 -1.1197
 5652SOL    HW217856   5.399   3.306   1.544  1.1049  1.9451  1.5615
 5653SOL     OW17857   1.305   2.053   3.756 -0.9506  0.0828 -0.2353
 5653SOL    HW117858   1.334   2.089   3.845  1.7250  0.2524 -1.0709
 5653SOL    HW217859   1.386   2.028   3.703 -2.5207 -1.2487 -2.1470
 5654SOL     OW17860   3.418   5.469   1.007 -0.0144 -0.2266  0.0227
 5654SOL    HW117861   3.416   5.542   1.075  0.1865  1.6916 -1.8996
 5654SOL    HW217862   3.330   5.422   1.005 -0.5980  0.8133  0.4636
 5655SOL     OW17863   0.038   0.180   1.311 -0.2978 -0.5700  0.2742
 5655SOL    HW117864   0.010   0.170   1.215  0.3111 -2.1857  0.2347
 5655SOL    HW217865  -0.025   0.129   1.370 -1.5219  1.5647  0.9376
 5656SOL     OW17866   5.623   6.736   3.055 -0.0342  0.1853  0.0641
 5656SOL    HW117867   5.624   6.752   3.153 -2.5013 -2.1161  0.6097
 5656SOL    HW217868   5.669   6.649   3.035 -0.5499  0.0650 -0.6429
 5657SOL     OW17869   1.112   2.436   1.273  0.3913 -0.2580  0.2745
 5657SOL    HW117870   1.126   2.350   1.224  0.0368 -1.0840  1.5591
 5657SOL    HW217871   1.186   2.499   1.251 -0.3100 -0.1640 -2.1232
 5658SOL     OW17872   1.781   5.795   4.254 -0.0949 -0.6104 -0.3638
 5658SOL    HW117873   1.709   5.792   4.324  0.7628  0.6375  0.6130
 5658SOL    HW217874   1.770   5.877   4.199  0.3699 -0.6032 -0.4462
 5659SOL     OW17875   4.844   2.380   2.837  0.7975 -0.4257  0.4613
 5659SOL    HW117876   4.887   2.331   2.913  0.4531 -1.6841 -0.1248
 5659SOL    HW217877   4.838   2.478   2.859 -1.4310 -1.0409  3.0810
 5660SOL     OW17878   0.572   5.724   2.129 -0.0518 -0.2683 -0.5612
 5660SOL    HW117879   0.643   5.723   2.200 -1.0666 -0.3863  0.5014
 5660SOL    HW217880   0.611   5.751   2.042  1.1744  0.2644  0.1331
 5661SOL     OW17881   2.187   0.731   3.907 -0.2448 -0.1934 -0.8900
 5661SOL    HW117882   2.125   0.771   3.974 -0.5054 -2.2053  0.1611
 5661SOL    HW217883   2.247   0.665   3.952  2.7351  1.6491 -1.8715
 5662SOL     OW17884   0.117   4.696   6.925 -0.0750  0.1060  0.2838
 5662SOL    HW117885   0.098   4.619   6.986 -0.8042  1.0016  1.2057
 5662SOL    HW217886   0.192   4.751   6.962 -1.2073  1.2497  0.9588
 5663SOL     OW17887   5.562   2.117   4.956  0.0384  0.8800 -0.0693
 5663SOL    HW117888   5.563   2.063   5.041 -1.6018 -0.0039 -0.5744
 5663SOL    HW217889   5.652   2.111   4.913 -0.1441 -1.7612 -0.2532
 5664SOL     OW17890   4.828   1.104   1.365 -0.3468 -0.4363  0.1061
 5664SOL    HW117891   4.779   1.048   1.298  1.5449 -0.7347 -1.1326
 5664SOL    HW217892   4.811   1.068   1.457 -2.7857 -0.1862 -0.1907
 5665SOL     OW17893   1.014   5.317   6.695  0.0315 -0.4234 -0.3756
 5665SOL    HW117894   1.001   5.289   6.600 -0.9303  0.4548 -0.5240
 5665SOL    HW217895   1.111   5.313   6.719  0.3458 -0.1487 -1.5630
 5666SOL     OW17896   1.729   3.111   4.814  0.2389 -0.2162 -0.2445
 5666SOL    HW117897   1.682   3.136   4.729  0.4790 -0.6523 -0.5137
 5666SOL    HW217898   1.784   3.029   4.798  0.9687  0.1985  0.1104
 5667SOL     OW17899   4.649   2.905   5.421 -0.4753  0.0683 -0.5904
 5667SOL    HW117900   4.677   2.963   5.345 -0.1601  1.3024  0.4373
 5667SOL    HW217901   4.549   2.895   5.420 -0.5955  1.1433 -0.4345
 5668SOL     OW17902   4.927   2.227   3.048 -0.1324  0.2857  0.2088
 5668SOL    HW117903   4.917   2.243   3.146  1.1315  1.5289  0.1602
 5668SOL    HW217904   4.949   2.130   3.033  1.5697  0.4458  1.3370
 5669SOL     OW17905   6.026   6.924   5.558 -0.2793 -0.4013 -0.3497
 5669SOL    HW117906   6.073   6.836   5.569  0.9645  0.3052  0.1874
 5669SOL    HW217907   5.992   6.954   5.647 -0.6388 -0.2997 -0.5216
 5670SOL     OW17908   0.776   3.408   4.858  0.0403 -0.5105  0.3424
 5670SOL    HW117909   0.704   3.385   4.792  0.2948 -1.8509  0.4997
 5670SOL    HW217910   0.764   3.353   4.941  0.8369 -0.2406  0.6490
 5671SOL     OW17911   1.533   6.222   5.527  0.7317  0.0713 -0.0719
 5671SOL    HW117912   1.574   6.143   5.483  0.0560 -0.1223 -0.3567
 5671SOL    HW217913   1.599   6.263   5.590  1.9987  0.7948 -1.7814
 5672SOL     OW17914   0.767   2.724   2.172  0.4175  0.2717 -0.2048
 5672SOL    HW117915   0.720   2.723   2.260 -0.3858 -0.2077 -0.6308
 5672SOL    HW217916   0.842   2.658   2.174 -0.0785 -0.2903 -0.1365
 5673SOL     OW17917   3.224   6.240   5.105  0.2924  0.2967  0.1716
 5673SOL    HW117918   3.150   6.175   5.126 -0.2169  0.7099 -0.3119
 5673SOL    HW217919   3.246   6.235   5.008  1.2358 -0.1554  0.3958
 5674SOL     OW17920   5.403   2.244   1.381 -0.5881  0.4532 -0.1219
 5674SOL    HW117921   5.485   2.200   1.419 -0.8108 -1.6792 -1.8540
 5674SOL    HW217922   5.429   2.330   1.337  0.6312  0.0942 -0.1583
 5675SOL     OW17923   4.205   5.554   6.289  0.2519 -0.0875 -0.2377
 5675SOL    HW117924   4.123   5.497   6.288  0.2556 -0.0962 -0.0749
 5675SOL    HW217925   4.282   5.500   6.323  0.3628 -0.1307 -0.5537
 5676SOL     OW17926   1.495   2.693   6.999  0.2082  0.3920  0.8544
 5676SOL    HW117927   1.559   2.621   7.027  0.9691  1.0162  0.7499
 5676SOL    HW217928   1.417   2.695   7.062  0.3076 -0.3502  1.0085
 5677SOL     OW17929   4.435   1.979   4.062  0.0185 -0.0469 -0.1313
 5677SOL    HW117930   4.477   1.898   4.103  1.3794  0.2595 -0.8685
 5677SOL    HW217931   4.487   2.061   4.087 -1.7847  0.7462  1.2471
 5678SOL     OW17932   1.604   6.787   4.675  0.0227 -0.2212 -0.1039
 5678SOL    HW117933   1.627   6.692   4.653 -0.4958 -0.1387 -1.0523
 5678SOL    HW217934   1.665   6.820   4.747  1.8016 -0.5220 -1.3935
 5679SOL     OW17935   5.807   0.242   3.429 -0.3531  0.1623 -0.6609
 5679SOL    HW117936   5.862   0.315   3.387 -1.1230  0.8954 -0.4202
 5679SOL    HW217937   5.857   0.204   3.507 -0.0483  0.5961 -0.6399
 5680SOL     OW17938   5.537   5.358   4.897  0.0846  0.1679 -0.0781
 5680SOL    HW117939   5.462   5.324   4.840 -1.3594  3.3342 -0.2737
 5680SOL    HW217940   5.589   5.426   4.847  1.5218 -0.1179  0.9651
 5681SOL     OW17941   5.369   3.335   0.184 -0.3973  0.2041  0.1590
 5681SOL    HW117942   5.361   3.375   0.275 -0.3589  0.0629  0.2237
 5681SOL    HW217943   5.312   3.387   0.120 -1.4704 -0.5091  0.5191
 5682SOL     OW17944   6.801   2.500   6.002 -0.4235 -0.1632  0.2535
 5682SOL    HW117945   6.889   2.503   5.954  0.3350 -2.5306  1.3654
 5682SOL    HW217946   6.787   2.587   6.050  1.6163  0.0379  0.5835
 5683SOL     OW17947   1.747   2.656   6.832 -0.0741  0.1792 -0.1523
 5683SOL    HW117948   1.664   2.603   6.850 -0.8961  1.7131  0.7522
 5683SOL    HW217949   1.799   2.666   6.917 -0.5735  1.8549 -0.0166
 5684SOL     OW17950   3.501   6.225   5.925 -0.0977  0.3583 -0.1728
 5684SOL    HW117951   3.463   6.302   5.976 -0.8993  1.3129 -2.0921
 5684SOL    HW217952   3.526   6.152   5.988 -5.0007 -0.3487  1.3855
 5685SOL     OW17953   3.453   3.715   2.593 -0.6157 -0.0224 -0.3092
 5685SOL    HW117954   3.489   3.760   2.674  1.4832 -2.7575  0.4455
 5685SOL    HW217955   3.459   3.777   2.514 -0.0117  1.7160  1.0525
 5686SOL     OW17956   2.288   6.252   4.390  0.1220 -0.1652  0.3386
 5686SOL    HW117957   2.271   6.295   4.479  0.9169  0.4685  0.1868
 5686SOL    HW217958   2.332   6.317   4.329 -1.2033 -0.3159 -0.8295
 5687SOL     OW17959   6.378   2.090   0.370  0.2589 -0.0309  0.2809
 5687SOL    HW117960   6.364   2.063   0.275  1.0611  1.8179 -0.4121
 5687SOL    HW217961   6.453   2.036   0.408  0.9467  0.2412 -0.6369
 5688SOL     OW17962   2.119   0.442   4.289 -0.4043 -0.0248  0.2280
 5688SOL    HW117963   2.090   0.521   4.343 -1.1777  0.2903 -0.6303
 5688SOL    HW217964   2.199   0.467   4.235 -2.1916  1.0690 -2.0801
 5689SOL     OW17965   0.663   6.187   2.447 -0.1703  0.1357  0.2959
 5689SOL    HW117966   0.617   6.139   2.521  1.0454 -1.3145  0.1551
 5689SOL    HW217967   0.703   6.121   2.384 -1.2822  1.3328 -1.7618
 5690SOL     OW17968   0.236   5.473   2.306  0.5619 -0.1910 -0.4882
 5690SOL    HW117969   0.165   5.539   2.278 -0.2990 -0.8381  0.1158
 5690SOL    HW217970   0.279   5.434   2.225  0.8240  0.8390 -0.8556
 5691SOL     OW17971   4.306   2.135   4.736 -0.1588  0.1441 -0.0668
 5691SOL    HW117972   4.328   2.225   4.697 -1.4270  0.6764  0.3916
 5691SOL    HW217973   4.240   2.146   4.811  1.9627 -0.8955  2.0656
 5692SOL     OW17974   4.477   4.975   1.516  0.1231 -0.3746  0.2636
 5692SOL    HW117975   4.490   5.017   1.605  0.0370 -0.2580  0.2221
 5692SOL    HW217976   4.491   4.876   1.523  2.4047 -0.1227 -0.0579
 5693SOL     OW17977   0.411   1.970   4.077 -0.6806 -0.6069  0.1021
 5693SOL    HW117978   0.482   2.035   4.101 -2.6995  2.0727 -0.7117
 5693SOL    HW217979   0.325   1.996   4.121 -1.0089 -4.5175  2.2165
 5694SOL     OW17980   4.667   6.137   4.273 -0.8309  0.4259  0.0923
 5694SOL    HW117981   4.645   6.044   4.244 -1.5305  0.3240  0.9038
 5694SOL    HW217982   4.662   6.198   4.194 -1.3279 -0.0613 -0.2662
 5695SOL     OW17983   1.391   2.367   1.103 -0.3341  0.3467 -0.3159
 5695SOL    HW117984   1.304   2.340   1.062 -0.1802  0.1285 -0.4995
 5695SOL    HW217985   1.434   2.437   1.047 -0.9323  1.2859  0.3836
 5696SOL     OW17986   2.723   6.795   4.046 -0.4501 -0.6218  0.2197
 5696SOL    HW117987   2.680   6.808   3.957 -0.9032 -0.6981  0.4245
 5696SOL    HW217988   2.676   6.722   4.095 -0.2002 -0.5812  0.5219
 5697SOL     OW17989   4.314   0.886   2.753  0.1476  0.2003 -0.2727
 5697SOL    HW117990   4.381   0.862   2.683  0.7003 -1.6519  0.8159
 5697SOL    HW217991   4.278   0.803   2.794  1.0715  1.1676  2.7688
 5698SOL     OW17992   3.626   6.750   1.244  0.1462  0.0761 -0.0713
 5698SOL    HW117993   3.603   6.663   1.287  1.7249  0.4201  1.6076
 5698SOL    HW217994   3.609   6.824   1.308 -1.3927  1.0670 -1.5667
 5699SOL     OW17995   3.081   0.735   0.978 -0.5719 -0.3901 -0.0803
 5699SOL    HW117996   3.061   0.818   0.926  0.2169 -0.1538 -0.0281
 5699SOL    HW217997   3.147   0.679   0.927 -0.1663 -0.3903  0.4365
 5700SOL     OW17998   3.004   5.334   3.684  0.5682 -0.4149  0.2513
 5700SOL    HW117999   3.058   5.362   3.763  2.2869  0.7966 -1.2694
 5700SOL    HW218000   3.061   5.335   3.602 -1.9373  1.9098 -1.6664
 5701SOL     OW18001   0.284   6.764   5.054 -0.0520  0.1404 -0.1418
 5701SOL    HW118002   0.339   6.843   5.030 -1.5067  1.4207  0.5325
 5701SOL    HW218003   0.243   6.778   5.145  0.9431 -2.1158  0.7234
 5702SOL     OW18004   6.392   1.017   2.395  0.5132 -0.5309 -0.4253
 5702SOL    HW118005   6.348   1.100   2.360  0.2683 -0.0776  0.9342
 5702SOL    HW218006   6.327   0.964   2.448  1.2310 -0.5346  0.4694
 5703SOL     OW18007   6.419   1.310   4.531 -0.4994  0.1468  0.3553
 5703SOL    HW118008   6.381   1.247   4.599 -2.1692 -0.8370 -1.3718
 5703SOL    HW218009   6.452   1.258   4.452  2.1271  1.1938  0.6579
 5704SOL     OW18010   1.795   6.132   5.686 -0.0269  0.0924 -0.4729
 5704SOL    HW118011   1.850   6.208   5.719  0.1608  0.6583 -2.0081
 5704SOL    HW218012   1.799   6.129   5.586 -2.7861  0.1609 -0.6619
 5705SOL     OW18013   4.367   3.190   1.184 -0.5514 -0.4685 -0.4293
 5705SOL    HW118014   4.380   3.194   1.085  1.6169  0.1283 -0.1689
 5705SOL    HW218015   4.394   3.100   1.218  2.7865  0.5567  0.0266
 5706SOL     OW18016   6.789   1.915   5.266 -0.0627  0.8948  0.5444
 5706SOL    HW118017   6.730   1.930   5.187 -0.5950 -0.0923  0.7356
 5706SOL    HW218018   6.856   1.844   5.245 -0.9286 -0.1869  1.3186
 5707SOL     OW18019   6.464   4.348   3.914  0.1292 -0.1931 -0.0480
 5707SOL    HW118020   6.412   4.425   3.949  0.9984  0.7224 -0.7079
 5707SOL    HW218021   6.562   4.369   3.918  0.3627  1.1563 -5.1699
 5708SOL     OW18022   6.252   6.312   1.268  0.4056  0.1468  0.3679
 5708SOL    HW118023   6.196   6.386   1.233  0.2580  0.1663  0.6414
 5708SOL    HW218024   6.268   6.326   1.366  0.6433 -0.0123  0.3519
 5709SOL     OW18025   0.997   5.824   1.174  0.1111 -0.1555 -0.5266
 5709SOL    HW118026   1.029   5.741   1.127 -0.3158 -0.0743 -0.9707
 5709SOL    HW218027   0.977   5.803   1.269 -1.4773 -0.9382 -1.0111
 5710SOL     OW18028   3.530   1.014   5.064 -0.0310 -0.0822  0.3722
 5710SOL    HW118029   3.589   1.052   4.992 -0.9609 -0.4849 -0.6325
 5710SOL    HW218030   3.521   1.080   5.138  3.7790 -0.9746  1.8495
 5711SOL     OW18031   6.621   6.438   4.447 -0.5187  0.5413 -0.3859
 5711SOL    HW118032   6.687   6.503   4.484 -0.9846  0.5562  0.4461
 5711SOL    HW218033   6.582   6.474   4.362  0.3790  0.6248 -0.7649
 5712SOL     OW18034   6.407   3.829   5.498  0.6226 -0.1137 -0.0241
 5712SOL    HW118035   6.374   3.832   5.403  1.1729  1.3970 -0.2016
 5712SOL    HW218036   6.495   3.876   5.504  0.6407 -0.2799  1.2278
 5713SOL     OW18037   6.452   6.437   1.826 -0.0960  0.2432 -1.0101
 5713SOL    HW118038   6.475   6.477   1.737  0.0195 -1.0847 -1.5988
 5713SOL    HW218039   6.455   6.338   1.820 -0.0798  0.1257  0.4959
 5714SOL     OW18040   6.339   1.568   3.707 -0.1038 -0.4838  0.0379
 5714SOL    HW118041   6.439   1.566   3.697  0.3120 -1.3357  3.3001
 5714SOL    HW218042   6.300   1.488   3.663  0.7921 -0.8252 -0.1717
 5715SOL     OW18043   4.323   6.913   5.240  0.0207 -0.1861  0.7510
 5715SOL    HW118044   4.293   6.855   5.165  0.5506  3.2054 -2.3751
 5715SOL    HW218045   4.413   6.883   5.272  1.0195 -0.2410 -1.8661
 5716SOL     OW18046   4.645   4.415   3.980 -0.3758  0.6824 -0.4741
 5716SOL    HW118047   4.578   4.436   4.051 -0.0988  2.6840 -0.7562
 5716SOL    HW218048   4.680   4.500   3.941 -0.7855 -0.3177 -3.2577
 5717SOL     OW18049   6.552   4.783   3.348 -0.5017  0.3808  0.5605
 5717SOL    HW118050   6.463   4.790   3.303 -0.1281  1.2424 -0.0908
 5717SOL    HW218051   6.543   4.805   3.445 -0.7016  2.4884  0.1086
 5718SOL     OW18052   1.996   2.108   2.734  0.8225  0.6669 -0.1843
 5718SOL    HW118053   2.076   2.049   2.745 -0.7109 -1.0399  3.2216
 5718SOL    HW218054   2.015   2.197   2.776  0.6713 -0.1124  1.6503
 5719SOL     OW18055   4.301   1.616   6.753  0.1230 -0.3080 -0.3289
 5719SOL    HW118056   4.279   1.534   6.807 -1.8684 -0.3107 -1.0322
 5719SOL    HW218057   4.400   1.628   6.749  0.3699 -0.7847  2.5462
 5720SOL     OW18058   2.763   3.086   0.378  1.0280  0.5776  0.1667
 5720SOL    HW118059   2.786   2.993   0.351 -0.7175 -0.0713  0.8053
 5720SOL    HW218060   2.700   3.084   0.455  1.8133  2.3179  0.9136
 5721SOL     OW18061   6.938   5.162   1.469  0.3220 -0.0078 -0.2308
 5721SOL    HW118062   6.958   5.136   1.374  2.1344  1.9212 -0.4634
 5721SOL    HW218063   6.842   5.188   1.477  0.3435  0.7047 -1.8203
 5722SOL     OW18064   0.184   6.458   4.444 -0.4902  0.1738  0.5957
 5722SOL    HW118065   0.230   6.466   4.356 -0.1260 -0.3811  0.7298
 5722SOL    HW218066   0.185   6.546   4.490  0.6290  0.1298  0.6811
 5723SOL     OW18067   4.725   2.749   4.885 -0.1751 -0.0483 -0.3236
 5723SOL    HW118068   4.804   2.688   4.879 -0.5557 -0.4817 -1.1738
 5723SOL    HW218069   4.646   2.697   4.916 -0.1453  0.3711  0.4677
 5724SOL     OW18070   1.044   0.422   5.515 -0.5614  0.4401  0.3264
 5724SOL    HW118071   1.046   0.440   5.417 -1.7405  0.1570  0.2406
 5724SOL    HW218072   1.122   0.467   5.559 -0.5510  1.3439 -0.5974
 5725SOL     OW18073   3.113   4.851   4.405  0.2067  0.9252  0.2906
 5725SOL    HW118074   3.018   4.825   4.385  1.2301 -1.9047 -1.5036
 5725SOL    HW218075   3.131   4.837   4.502 -0.6341 -0.6953  0.2512
 5726SOL     OW18076   6.317   5.945   3.015  0.0654  0.3276 -0.0347
 5726SOL    HW118077   6.379   6.013   2.977 -0.7443  1.0001 -0.1686
 5726SOL    HW218078   6.230   5.947   2.965 -0.5816  0.3855  1.0507
 5727SOL     OW18079   3.719   0.440   2.659 -0.3157 -0.0214  0.3132
 5727SOL    HW118080   3.661   0.472   2.734  0.1070  0.5202  0.4194
 5727SOL    HW218081   3.726   0.341   2.662 -1.6876 -0.1416 -0.0439
 5728SOL     OW18082   3.330   3.530   4.747 -0.1151  0.3648  0.2319
 5728SOL    HW118083   3.305   3.560   4.839  0.7836  0.1260  0.5597
 5728SOL    HW218084   3.426   3.553   4.729 -0.6972  1.8418 -1.2434
 5729SOL     OW18085   1.074   5.993   0.035  0.4494 -0.4426  0.0674
 5729SOL    HW118086   1.035   6.080   0.006  1.3549  0.2531  0.8839
 5729SOL    HW218087   1.092   5.937  -0.046  0.7106  0.4867 -0.5410
 5730SOL     OW18088   6.368   1.818   5.758 -0.6248  0.4199  0.4271
 5730SOL    HW118089   6.347   1.738   5.702  1.9768  0.3014 -0.4873
 5730SOL    HW218090   6.340   1.901   5.710  2.4110  0.3824 -1.6188
 5731SOL     OW18091   2.012   3.201   0.603  0.2791  0.0554  0.3858
 5731SOL    HW118092   2.030   3.161   0.693 -0.2820  0.9683  0.9345
 5731SOL    HW218093   1.994   3.299   0.614  0.9743  0.3369 -0.8255
 5732SOL     OW18094   0.467   3.181   0.237 -0.2707 -0.3718 -0.1031
 5732SOL    HW118095   0.392   3.232   0.279 -0.3669  1.1168 -1.9307
 5732SOL    HW218096   0.430   3.111   0.176 -0.2088  0.1581 -0.7665
 5733SOL     OW18097   5.500   1.359   2.198  1.1016  0.7081 -0.1295
 5733SOL    HW118098   5.567   1.405   2.139  0.9495  2.7699  1.2326
 5733SOL    HW218099   5.413   1.408   2.195  0.2816 -0.6926 -0.1835
 5734SOL     OW18100   2.152   2.304   5.923  0.3059  0.0289 -0.8969
 5734SOL    HW118101   2.217   2.256   5.863 -0.9693 -1.4412 -1.1580
 5734SOL    HW218102   2.067   2.320   5.874 -0.5353 -0.6265  0.3028
 5735SOL     OW18103   4.359   3.642   6.550  0.6732  0.1516 -0.3503
 5735SOL    HW118104   4.373   3.545   6.570  1.8305  0.6094  1.2415
 5735SOL    HW218105   4.320   3.687   6.631  1.3391  1.2473 -0.6227
 5736SOL     OW18106   1.998   2.931   0.257 -0.3940  0.1756 -0.3868
 5736SOL    HW118107   1.927   2.954   0.189 -0.0305  3.0614  0.1068
 5736SOL    HW218108   2.087   2.961   0.223  0.0095  0.2536  0.7198
 5737SOL     OW18109   6.272   4.785   6.500  0.0804 -0.5056  0.1271
 5737SOL    HW118110   6.354   4.753   6.547  0.6616  1.1849  0.3390
 5737SOL    HW218111   6.249   4.723   6.426  0.5221 -1.9516  1.1505
 5738SOL     OW18112   4.531   2.254   1.789 -0.0216  0.0142 -0.2707
 5738SOL    HW118113   4.497   2.169   1.830 -0.3356  0.1707 -0.1965
 5738SOL    HW218114   4.621   2.275   1.825 -1.1515  1.2807  2.0374
 5739SOL     OW18115   5.878   0.217   6.398 -0.3957 -0.0967  0.2118
 5739SOL    HW118116   5.941   0.212   6.321  1.1145 -0.2582  1.3965
 5739SOL    HW218117   5.863   0.313   6.423 -0.0500 -0.0799  0.3603
 5740SOL     OW18118   5.255   3.415   4.971  0.2567  0.3101  0.2387
 5740SOL    HW118119   5.311   3.490   5.009  0.1780  0.3931  0.1917
 5740SOL    HW218120   5.284   3.397   4.877 -0.4098  0.9797 -0.1055
 5741SOL     OW18121   0.765   6.760   5.572  0.1743 -0.2894 -0.2862
 5741SOL    HW118122   0.781   6.678   5.517  0.5813 -1.2098  1.1628
 5741SOL    HW218123   0.851   6.793   5.609 -0.1507  0.0173  0.2102
 5742SOL     OW18124   2.980   6.368   4.649 -0.5105 -0.3063  0.0114
 5742SOL    HW118125   3.051   6.306   4.683 -0.4253  0.1772  0.7371
 5742SOL    HW218126   2.925   6.400   4.726 -1.8426 -1.0672 -0.6023
 5743SOL     OW18127   6.387   3.091   4.223 -0.5908 -0.5506  0.0633
 5743SOL    HW118128   6.471   3.046   4.251  0.0620 -1.1215 -2.5223
 5743SOL    HW218129   6.404   3.144   4.139 -2.5676  0.1716  0.0644
 5744SOL     OW18130   4.768   6.668   0.271 -0.0283  0.3631  0.0557
 5744SOL    HW118131   4.741   6.749   0.219 -0.1532 -0.8746 -1.8786
 5744SOL    HW218132   4.686   6.620   0.303  0.0168  0.2944  0.0677
 5745SOL     OW18133   3.809   1.932   2.972 -0.5161 -0.2015  0.5027
 5745SOL    HW118134   3.746   1.855   2.960 -0.4561 -0.4177  1.5225
 5745SOL    HW218135   3.887   1.903   3.026  0.9894 -0.2042 -1.5560
 5746SOL     OW18136   6.894   6.465   5.221  0.1509 -0.4618 -0.1638
 5746SOL    HW118137   6.988   6.491   5.200 -0.1585  0.5158 -0.4046
 5746SOL    HW218138   6.868   6.501   5.310  0.0535 -0.8516 -0.0360
 5747SOL     OW18139   4.419   2.445   5.213 -0.4580 -0.1779 -0.1613
 5747SOL    HW118140   4.385   2.483   5.299  1.5875  1.0035  0.1971
 5747SOL    HW218141   4.347   2.448   5.144 -1.1017  2.2585  0.5144
 5748SOL     OW18142   6.188   5.666   5.424 -0.0957 -0.2459 -0.3054
 5748SOL    HW118143   6.231   5.734   5.366 -1.4081 -0.6497 -1.8290
 5748SOL    HW218144   6.249   5.587   5.434  0.7570  0.4536  0.1384
 5749SOL     OW18145   3.592   2.102   3.671  0.2218  0.3011 -0.2377
 5749SOL    HW118146   3.507   2.116   3.620 -0.0035  2.3084  0.5988
 5749SOL    HW218147   3.571   2.082   3.767  0.6970 -0.9809 -0.3735
 5750SOL     OW18148   6.415   2.694   1.103 -0.0858  0.4370 -0.0880
 5750SOL    HW118149   6.489   2.749   1.140  0.7620 -0.4322 -0.4382
 5750SOL    HW218150   6.329   2.744   1.110  0.9004  2.6425 -2.1467
 5751SOL     OW18151   2.821   6.873   6.779 -0.5356  0.1699  0.2266
 5751SOL    HW118152   2.904   6.826   6.748 -0.1258  0.9716  0.0829
 5751SOL    HW218153   2.758   6.806   6.819  1.3688 -0.1270  2.9873
 5752SOL     OW18154   6.705   2.050   5.673 -0.5696 -0.2294  0.4943
 5752SOL    HW118155   6.707   2.129   5.612 -3.0957 -0.8697 -0.5280
 5752SOL    HW218156   6.691   1.967   5.620  1.7747 -1.4192  1.5731
 5753SOL     OW18157   6.791   4.276   1.020  0.3264  0.1978 -0.0074
 5753SOL    HW118158   6.715   4.229   0.975 -0.4308  1.4167 -0.0451
 5753SOL    HW218159   6.793   4.372   0.990  1.0645  0.5099  1.0022
 5754SOL     OW18160   2.136   5.703   1.455  0.2251 -0.2035 -0.0196
 5754SOL    HW118161   2.134   5.633   1.527  0.8353 -2.1104 -1.7525
 5754SOL    HW218162   2.131   5.794   1.497 -1.0997 -1.2543  2.3038
 5755SOL     OW18163   2.341   1.684   6.527 -0.1460  0.3783 -0.4189
 5755SOL    HW118164   2.386   1.762   6.569  0.6603 -0.5620  0.5295
 5755SOL    HW218165   2.407   1.631   6.475  0.3858 -1.9370  2.3377
 5756SOL     OW18166   5.957   4.963   3.421 -0.5461  0.3112 -1.0176
 5756SOL    HW118167   6.034   4.986   3.481  1.1216  1.8877 -3.6039
 5756SOL    HW218168   5.871   4.978   3.471  0.7455  0.9828  1.1495
 5757SOL     OW18169   6.670   3.834   3.957  0.1743 -0.1903 -0.6340
 5757SOL    HW118170   6.616   3.750   3.954  1.9536 -1.6968  3.2164
 5757SOL    HW218171   6.624   3.900   4.017  0.3836  0.3628 -1.0716
 5758SOL     OW18172   5.409   2.132   2.538 -0.7617  0.4597 -0.0444
 5758SOL    HW118173   5.395   2.228   2.515 -0.3703  0.7578  0.8762
 5758SOL    HW218174   5.328   2.096   2.585 -0.8928  0.3503 -0.3532
 5759SOL     OW18175   2.696   0.067   0.691  0.2952  0.2359 -0.5663
 5759SOL    HW118176   2.686   0.160   0.725 -0.3635  0.2809 -0.8754
 5759SOL    HW218177   2.633   0.051   0.615  2.6692  0.5679 -2.7432
 5760SOL     OW18178   1.066   4.309   2.472  0.0962  0.3690 -0.6907
 5760SOL    HW118179   1.161   4.333   2.451  0.7308 -1.8654 -0.6576
 5760SOL    HW218180   1.064   4.225   2.526 -1.9222  0.1835 -0.9623
 5761SOL     OW18181   4.476   1.168   5.719  0.0942  0.2895 -0.3303
 5761SOL    HW118182   4.385   1.208   5.725  0.9159  2.4758 -1.4126
 5761SOL    HW218183   4.496   1.144   5.624  0.3753 -0.9403  0.0180
 5762SOL     OW18184   6.929   1.583   4.338 -0.0199 -0.3037  0.0732
 5762SOL    HW118185   6.864   1.657   4.327  2.5547  1.7780 -2.7998
 5762SOL    HW218186   6.910   1.511   4.272  0.4537  0.2221 -0.6466
 5763SOL     OW18187   1.017   3.406   5.571  0.4944  0.6170  0.2588
 5763SOL    HW118188   0.968   3.441   5.492  0.6347  0.2733  0.0195
 5763SOL    HW218189   1.116   3.412   5.555  0.5231  0.4827  0.3805
 5764SOL     OW18190   2.626   5.675   3.092 -0.1739 -0.4606  0.0172
 5764SOL    HW118191   2.536   5.715   3.108  0.4319  1.5623 -1.2726
 5764SOL    HW218192   2.622   5.610   3.016 -0.2772  0.8393 -1.1212
 5765SOL     OW18193   5.158   3.260   3.236 -0.2494  0.0352  0.2983
 5765SOL    HW118194   5.153   3.353   3.200  0.5220  0.4719  1.2727
 5765SOL    HW218195   5.114   3.256   3.326  2.7940  0.3702  1.9533
 5766SOL     OW18196   1.944   1.025   1.030  0.5200 -0.2215 -0.4626
 5766SOL    HW118197   1.950   0.970   0.947 -0.5179  1.5861 -1.7798
 5766SOL    HW218198   2.009   1.101   1.026  0.1932  0.1099  0.2052
 5767SOL     OW18199   6.657   2.529   6.404  0.4043 -0.7244 -0.4043
 5767SOL    HW118200   6.731   2.482   6.356 -0.6721 -3.6589  0.5832
 5767SOL    HW218201   6.583   2.549   6.339  0.7885 -0.5674 -0.8011
 5768SOL     OW18202   1.921   3.454   5.252 -0.1244 -0.8698  0.0818
 5768SOL    HW118203   1.830   3.462   5.211 -0.2448 -1.6910  0.1747
 5768SOL    HW218204   1.942   3.538   5.303  0.9796  1.2372 -3.5082
 5769SOL     OW18205   3.041   6.248   5.608 -0.3947  0.5512 -0.2230
 5769SOL    HW118206   3.068   6.339   5.640  0.1379  0.0070  0.9595
 5769SOL    HW218207   3.064   6.181   5.678  0.1402 -0.6365 -1.4980
 5770SOL     OW18208   3.008   6.933   0.809 -0.0329 -0.4642  0.2697
 5770SOL    HW118209   3.000   6.953   0.907 -0.4268 -2.0240  0.5776
 5770SOL    HW218210   2.978   6.840   0.791 -0.1979 -0.1300 -1.3887
 5771SOL     OW18211   0.140   6.380   4.926 -0.0123 -0.1465  0.7914
 5771SOL    HW118212   0.171   6.361   4.832  0.5657 -0.6179  1.0734
 5771SOL    HW218213   0.219   6.384   4.987 -0.4561 -0.7645  1.4185
 5772SOL     OW18214   6.671   5.618   5.186 -0.2261 -0.1547  0.1625
 5772SOL    HW118215   6.650   5.591   5.092 -0.4865  2.1924 -0.5161
 5772SOL    HW218216   6.604   5.578   5.248 -0.9354 -0.5574 -0.8398
 5773SOL     OW18217   3.915   2.406   1.552  0.0623  0.3161 -0.4803
 5773SOL    HW118218   4.005   2.443   1.531 -0.4770  0.2312 -3.3886
 5773SOL    HW218219   3.865   2.390   1.466 -2.1012 -1.1944  0.9684
 5774SOL     OW18220   1.748   5.360   2.159  0.3204 -0.4348 -0.1028
 5774SOL    HW118221   1.655   5.395   2.165 -0.3104 -1.8056 -1.3932
 5774SOL    HW218222   1.804   5.424   2.105 -0.7694 -1.2228 -2.2727
 5775SOL     OW18223   6.217   2.015   2.179  0.1834  0.6760 -0.7433
 5775SOL    HW118224   6.179   1.938   2.127  1.2426 -0.0454 -0.4811
 5775SOL    HW218225   6.161   2.032   2.260 -0.5882  0.8039 -1.2855
 5776SOL     OW18226   2.776   5.840   4.070  0.9717  0.2091  0.6467
 5776SOL    HW118227   2.802   5.920   4.017 -0.8023  0.9036  0.7645
 5776SOL    HW218228   2.766   5.866   4.166  0.9416 -0.2849  0.7803
 5777SOL     OW18229   3.748   2.105   4.361  0.0503 -0.0357 -0.3516
 5777SOL    HW118230   3.729   2.102   4.459  1.3858  0.8388 -0.0365
 5777SOL    HW218231   3.676   2.056   4.311 -0.3816 -0.9231  1.0897
 5778SOL     OW18232   0.970   2.150   6.029 -0.3394  0.6951  0.4444
 5778SOL    HW118233   1.048   2.163   6.090 -0.1534 -0.2082  0.4081
 5778SOL    HW218234   0.899   2.096   6.075  0.5470 -1.5589 -0.6963
 5779SOL     OW18235   0.717   0.523   6.064  0.3135 -0.1118 -0.0842
 5779SOL    HW118236   0.754   0.495   6.152 -0.5572 -1.0644  0.0016
 5779SOL    HW218237   0.650   0.597   6.078  1.3829  0.8891 -0.1355
 5780SOL     OW18238   2.756   2.412   7.011 -0.6799  0.4757  0.0829
 5780SOL    HW118239   2.834   2.360   7.046 -1.5421 -1.8980 -1.3236
 5780SOL    HW218240   2.717   2.466   7.085 -0.1981 -1.4995  1.8733
 5781SOL     OW18241   2.321   4.311   4.577 -0.2907 -0.2549  0.7047
 5781SOL    HW118242   2.337   4.247   4.652  2.2729 -1.5190 -0.7551
 5781SOL    HW218243   2.278   4.263   4.501  2.5101 -0.6437 -0.7628
 5782SOL     OW18244   4.424   3.363   1.584  0.0779  0.4512  0.0597
 5782SOL    HW118245   4.421   3.462   1.567  1.2425  0.6214  0.7482
 5782SOL    HW218246   4.356   3.318   1.526 -3.3699  2.0183  2.5147
 5783SOL     OW18247   6.898   0.494   4.821  0.1488  0.1435 -0.2893
 5783SOL    HW118248   6.849   0.580   4.809 -0.3321 -0.3127 -1.8859
 5783SOL    HW218249   6.893   0.465   4.916 -2.2539  0.3945 -0.2924
 5784SOL     OW18250   3.498   4.466   0.657 -0.7280  0.3217 -0.4763
 5784SOL    HW118251   3.583   4.434   0.699 -0.5596  2.4293  0.9541
 5784SOL    HW218252   3.516   4.499   0.565  0.2090  1.5202  0.1111
 5785SOL     OW18253   2.421   4.372   3.778  0.1396 -0.3965  0.2945
 5785SOL    HW118254   2.443   4.424   3.696  0.9736  1.2839  1.5282
 5785SOL    HW218255   2.469   4.411   3.856 -1.3306 -1.3721  1.7514
 5786SOL     OW18256   0.371   5.050   3.927 -0.2795 -0.6017 -0.0554
 5786SOL    HW118257   0.373   5.142   3.888  0.3856 -0.8315 -0.5851
 5786SOL    HW218258   0.409   5.052   4.020 -0.8922 -0.2332  0.1945
 5787SOL     OW18259   6.528   3.937   1.159  0.5782 -0.1479  0.2084
 5787SOL    HW118260   6.567   3.847   1.143  0.4462 -0.3360  0.9108
 5787SOL    HW218261   6.565   3.975   1.244  0.5561  0.4127 -0.0308
 5788SOL     OW18262   2.395   0.188   2.415  0.0973  0.2563  0.1766
 5788SOL    HW118263   2.451   0.251   2.470 -0.5773  0.0826  1.0833
 5788SOL    HW218264   2.299   0.216   2.420  0.0338  0.3040 -1.0268
 5789SOL     OW18265   6.858   1.532   0.845 -0.3275  0.4058  0.1845
 5789SOL    HW118266   6.939   1.590   0.855 -0.3292  0.3081  0.7768
 5789SOL    HW218267   6.849   1.473   0.925 -0.7686  0.1400 -0.0579
 5790SOL     OW18268   1.798   2.991   0.830 -0.1221 -0.3964  0.1934
 5790SOL    HW118269   1.883   3.038   0.806 -0.9656  0.9472 -0.3071
 5790SOL    HW218270   1.784   2.995   0.929  1.1345 -2.0092  0.4915
 5791SOL     OW18271   5.884   3.121   4.675 -0.5483  0.0471 -0.0993
 5791SOL    HW118272   5.854   3.212   4.705 -3.4961 -1.0150  0.5596
 5791SOL    HW218273   5.829   3.093   4.596  1.8209 -0.3577 -1.7150
 5792SOL     OW18274   4.835   1.243   2.830 -0.0559 -0.2866 -0.2307
 5792SOL    HW118275   4.839   1.226   2.732 -0.6031  0.4175 -0.3771
 5792SOL    HW218276   4.749   1.288   2.854 -0.9607 -2.4526  0.8907
 5793SOL     OW18277   6.872   3.647   6.071  0.0161  0.9625 -0.4586
 5793SOL    HW118278   6.816   3.602   6.002 -0.5267  2.7340 -1.2311
 5793SOL    HW218279   6.813   3.693   6.138  0.5470  0.4278  0.3961
 5794SOL     OW18280   1.580   1.870   2.349  0.0962  0.0033 -0.2933
 5794SOL    HW118281   1.516   1.880   2.272  0.1929  1.9903 -0.1792
 5794SOL    HW218282   1.529   1.866   2.435  0.0488 -0.5395 -0.3469
 5795SOL     OW18283   4.260   3.688   0.281  0.0104  0.3485  0.2434
 5795SOL    HW118284   4.293   3.597   0.255  2.3421  1.3016 -0.3661
 5795SOL    HW218285   4.324   3.730   0.346 -0.9747  1.6063  0.4502
 5796SOL     OW18286   4.396   5.734   2.480 -0.9190 -0.4249  0.0451
 5796SOL    HW118287   4.423   5.741   2.384 -1.7239  0.3529 -0.1308
 5796SOL    HW218288   4.376   5.639   2.503  1.3598 -0.9790  0.0327
 5797SOL     OW18289   6.482   4.987   4.687 -0.0184 -0.4415 -0.3145
 5797SOL    HW118290   6.441   4.960   4.775  0.0410 -2.5906 -0.8818
 5797SOL    HW218291   6.422   5.051   4.640 -0.4071  0.1583  0.9425
 5798SOL     OW18292   5.031   5.451   5.622 -0.0234  0.6037 -0.3951
 5798SOL    HW118293   4.962   5.489   5.684  0.8299  1.4509  0.0619
 5798SOL    HW218294   5.055   5.518   5.553 -0.2277  0.0245 -1.0432
 5799SOL     OW18295   4.444   1.589   0.373 -0.9009  0.3053  0.7301
 5799SOL    HW118296   4.458   1.497   0.337  0.9204  1.1594 -0.9093
 5799SOL    HW218297   4.459   1.656   0.301 -1.5493  1.9352  2.0421
 5800SOL     OW18298   6.976   0.944   6.642  0.2233  0.1442 -0.7031
 5800SOL    HW118299   6.878   0.943   6.622 -0.0717  1.2672  0.5678
 5800SOL    HW218300   7.012   1.037   6.628  0.4825  0.4380  1.5163
 5801SOL     OW18301   5.473   5.430   6.701 -0.0960 -0.1566  0.5431
 5801SOL    HW118302   5.432   5.344   6.670  0.7058 -0.6503  0.8354
 5801SOL    HW218303   5.451   5.444   6.797 -0.8669  0.3576  0.3017
 5802SOL     OW18304   2.915   5.120   4.317  0.2949 -0.1523  0.0345
 5802SOL    HW118305   2.818   5.143   4.311 -0.1221 -1.2415  1.8649
 5802SOL    HW218306   2.938   5.055   4.244 -0.1392  0.7255 -0.9051
 5803SOL     OW18307   3.066   0.624   2.789 -0.0385 -0.1376 -0.6970
 5803SOL    HW118308   3.007   0.562   2.841  2.8805 -0.8871  2.0802
 5803SOL    HW218309   3.049   0.718   2.819  0.7484 -0.4445  0.8555
 5804SOL     OW18310   5.719   2.209   3.391  0.3129  0.2947 -0.0560
 5804SOL    HW118311   5.766   2.295   3.373 -0.4459  0.9772  1.1003
 5804SOL    HW218312   5.681   2.210   3.483 -0.9521 -0.6998 -0.5298
 5805SOL     OW18313   0.117   4.965   0.417 -0.1616 -0.6743  0.4616
 5805SOL    HW118314   0.058   4.948   0.338  0.6703 -2.5015  0.1753
 5805SOL    HW218315   0.141   5.062   0.421 -0.7752 -0.4348 -1.1169
 5806SOL     OW18316   6.659   4.399   5.816  0.4812 -0.1074 -0.1906
 5806SOL    HW118317   6.726   4.361   5.879  0.9939  2.1599  0.7401
 5806SOL    HW218318   6.706   4.432   5.734  0.2989  0.0928 -0.2153
 5807SOL     OW18319   1.330   5.702   2.940 -0.3703 -0.2705 -0.0771
 5807SOL    HW118320   1.382   5.694   2.855  1.6912  2.1742  0.8481
 5807SOL    HW218321   1.246   5.754   2.922 -0.2314 -0.2541 -0.7112
 5808SOL     OW18322   2.202   6.214   0.779  0.0120 -0.7287  0.4520
 5808SOL    HW118323   2.181   6.310   0.763  0.4088 -0.9243 -1.4050
 5808SOL    HW218324   2.236   6.202   0.873 -1.4989  0.6669  1.2084
 5809SOL     OW18325   2.217   4.066   6.790 -0.1679  0.4210  0.3016
 5809SOL    HW118326   2.187   4.115   6.871 -1.1129 -0.7273  0.6848
 5809SOL    HW218327   2.272   3.987   6.818  0.9648  0.9739 -0.2794
 5810SOL     OW18328   4.708   5.941   0.053  0.3084 -0.1073 -0.7107
 5810SOL    HW118329   4.770   5.980  -0.015  0.2914 -0.3374 -0.8595
 5810SOL    HW218330   4.620   5.920   0.011  1.0211 -2.4144 -1.2318
 5811SOL     OW18331   2.122   4.622   2.437 -0.9370  1.1100  0.6672
 5811SOL    HW118332   2.059   4.563   2.489 -0.2193 -0.8189 -0.5645
 5811SOL    HW218333   2.084   4.639   2.346 -0.3867  1.2259  0.4594
 5812SOL     OW18334   0.549   2.813   4.647  0.3855  0.0004  0.2675
 5812SOL    HW118335   0.474   2.821   4.581 -2.4437 -0.1584  3.2078
 5812SOL    HW218336   0.580   2.904   4.673 -0.5996  0.1741  0.8865
 5813SOL     OW18337   3.169   6.526   5.096 -0.0146 -0.2972 -0.3787
 5813SOL    HW118338   3.140   6.556   5.187  0.3388 -0.9880 -0.0411
 5813SOL    HW218339   3.187   6.428   5.096 -1.4461 -0.6029 -1.5563
 5814SOL     OW18340   3.163   0.218   3.635 -0.4859 -0.0909  0.5302
 5814SOL    HW118341   3.178   0.284   3.709 -0.4387 -0.7823  1.1509
 5814SOL    HW218342   3.078   0.239   3.588 -0.5513  0.3185  0.8285
 5815SOL     OW18343   2.848   6.014   5.135 -0.9044 -0.4550 -0.2853
 5815SOL    HW118344   2.753   5.983   5.139 -1.0862 -0.0717 -1.4196
 5815SOL    HW218345   2.851   6.108   5.101 -0.0896 -0.6318 -0.7265
 5816SOL     OW18346   2.759   0.193   3.682 -0.8568 -0.1177 -0.4323
 5816SOL    HW118347   2.820   0.155   3.751 -0.1017 -0.0363 -1.0403
 5816SOL    HW218348   2.669   0.151   3.690  0.1809 -2.8450 -1.7069
 5817SOL     OW18349   3.620   4.919   3.751  0.2078  0.3529  0.3116
 5817SOL    HW118350   3.637   4.990   3.820  0.0043  0.0968  0.6273
 5817SOL    HW218351   3.542   4.864   3.778 -0.8872  1.2348 -0.9059
 5818SOL     OW18352   0.139   7.010   4.363 -0.4694  0.2340  0.6062
 5818SOL    HW118353   0.052   6.977   4.325  0.1211 -1.4973  0.6546
 5818SOL    HW218354   0.122   7.051   4.453 -1.2061 -0.3702  0.7568
 5819SOL     OW18355   0.487   3.850   5.412  0.5170  0.3384 -0.3033
 5819SOL    HW118356   0.455   3.938   5.446 -0.7891 -0.9335  1.9258
 5819SOL    HW218357   0.411   3.802   5.368  0.3995 -0.9441  1.2595
 5820SOL     OW18358   1.181   4.502   0.781  0.3030  0.1254 -0.2758
 5820SOL    HW118359   1.121   4.547   0.715  0.8190 -0.0300 -0.8599
 5820SOL    HW218360   1.170   4.402   0.774 -0.0172  0.1150  0.2418
 5821SOL     OW18361   0.921   3.200   5.758 -0.0930  0.0861 -0.3929
 5821SOL    HW118362   0.935   3.270   5.688 -1.7796  1.1987  0.3154
 5821SOL    HW218363   0.909   3.111   5.714  0.5682  0.4733 -1.3963
 5822SOL     OW18364   3.211   0.578   0.245 -0.1167 -0.0502 -0.5874
 5822SOL    HW118365   3.222   0.615   0.337  0.4373  0.0019 -0.6710
 5822SOL    HW218366   3.219   0.479   0.247 -0.1125 -0.0496 -0.5775
 5823SOL     OW18367   5.509   3.011   1.144 -0.0432 -0.3190 -0.2512
 5823SOL    HW118368   5.563   3.078   1.195 -0.9737 -0.1722  0.5661
 5823SOL    HW218369   5.455   3.058   1.074 -0.7730 -0.1846  0.3886
 5824SOL     OW18370   0.179   4.346   0.914 -0.0913  0.6075  0.6179
 5824SOL    HW118371   0.115   4.385   0.848  0.5719 -0.0175 -0.4280
 5824SOL    HW218372   0.234   4.276   0.869  0.7380  0.5315  1.7180
 5825SOL     OW18373   2.793   5.859   2.072  0.6428 -0.6270  0.3278
 5825SOL    HW118374   2.743   5.820   2.149  0.9249 -2.1376 -0.2113
 5825SOL    HW218375   2.783   5.959   2.072 -0.2452 -0.6933  1.6778
 5826SOL     OW18376   4.553   1.396   0.782  0.2925  0.5161 -0.2957
 5826SOL    HW118377   4.551   1.316   0.722  3.0984  0.8421 -0.9981
 5826SOL    HW218378   4.572   1.478   0.728  0.7946  1.1265  0.7731
 5827SOL     OW18379   0.140   4.787   5.813 -0.1991  0.0851 -0.3929
 5827SOL    HW118380   0.143   4.844   5.731 -1.0877 -1.3023 -1.4364
 5827SOL    HW218381   0.191   4.703   5.798 -0.3549 -0.1805  0.4898
 5828SOL     OW18382   2.593   5.190   1.345 -0.1130  0.0805  1.1023
 5828SOL    HW118383   2.611   5.288   1.352 -1.3706  0.3087  1.4381
 5828SOL    HW218384   2.543   5.159   1.426  0.2296 -0.8347  0.9788
 5829SOL     OW18385   6.893   1.799   1.726 -0.2345  0.1159 -0.3123
 5829SOL    HW118386   6.965   1.748   1.774  0.3979 -0.0209 -1.3867
 5829SOL    HW218387   6.890   1.770   1.631 -0.8327  1.0838 -0.5957
 5830SOL     OW18388   1.884   2.405   6.167 -0.2209 -0.0315 -0.7697
 5830SOL    HW118389   1.949   2.329   6.166 -1.1031 -0.9577  2.0095
 5830SOL    HW218390   1.891   2.453   6.255 -1.2262  1.7480 -1.6101
 5831SOL     OW18391   1.786   5.192   1.911  0.3992  0.6734 -0.4402
 5831SOL    HW118392   1.722   5.116   1.923 -0.2766  1.3536  0.3226
 5831SOL    HW218393   1.814   5.226   2.001 -1.5460  3.1919 -0.6696
 5832SOL     OW18394   1.837   3.330   0.198 -0.0322  0.1010 -0.3736
 5832SOL    HW118395   1.886   3.364   0.118 -1.7603 -1.0756 -2.0284
 5832SOL    HW218396   1.787   3.405   0.241  1.7571  0.9616  0.3163
 5833SOL     OW18397   3.780   3.759   4.599  0.1286 -0.0488  0.2508
 5833SOL    HW118398   3.769   3.821   4.521 -0.2398 -2.0972 -1.4280
 5833SOL    HW218399   3.864   3.705   4.586  0.0054 -0.4866  1.2226
 5834SOL     OW18400   5.499   3.507   0.699 -0.2969 -0.3168 -0.4638
 5834SOL    HW118401   5.478   3.464   0.787 -1.7626 -0.0156 -0.6330
 5834SOL    HW218402   5.598   3.517   0.689 -0.1107 -0.2089  1.2250
 5835SOL     OW18403   4.844   3.899   3.752 -0.3431  0.0247  0.0259
 5835SOL    HW118404   4.762   3.957   3.755 -1.3506 -1.3910  1.4639
 5835SOL    HW218405   4.837   3.837   3.674 -0.9402 -0.4884  0.4798
 5836SOL     OW18406   5.376   3.795   3.032  1.0076 -0.1719  0.3724
 5836SOL    HW118407   5.387   3.706   2.988 -1.5425  0.0803 -0.9804
 5836SOL    HW218408   5.327   3.784   3.119  0.5123 -0.0741  0.1066
 5837SOL     OW18409   1.571   0.757   0.480  0.0066  0.2295  0.1309
 5837SOL    HW118410   1.662   0.759   0.439 -0.1595 -1.1620 -0.3478
 5837SOL    HW218411   1.505   0.718   0.415 -0.4421 -1.1043  1.3323
 5838SOL     OW18412   1.267   3.973   0.951 -0.0119 -0.1164 -0.1789
 5838SOL    HW118413   1.235   3.880   0.968 -0.0943 -0.0157  0.2138
 5838SOL    HW218414   1.356   3.987   0.994 -1.5932  1.1160  3.0050
 5839SOL     OW18415   2.457   0.720   6.655  0.3645 -0.0275  0.2949
 5839SOL    HW118416   2.389   0.718   6.728 -2.2376  1.2373 -1.9195
 5839SOL    HW218417   2.412   0.708   6.567  2.6702  3.0029 -1.5092
 5840SOL     OW18418   0.399   0.212   2.252 -0.4124 -0.6477 -0.1295
 5840SOL    HW118419   0.327   0.172   2.195  0.1071  0.4927 -1.6535
 5840SOL    HW218420   0.459   0.267   2.195 -0.0070  0.7755  1.5985
 5841SOL     OW18421   1.797   4.448   4.186  0.3065  0.2250  0.0783
 5841SOL    HW118422   1.718   4.490   4.142  0.1895  1.1390  1.1397
 5841SOL    HW218423   1.779   4.350   4.200 -0.4613  0.3418 -0.0482
 5842SOL     OW18424   1.683   6.543   4.545  0.0124  0.3965  0.1067
 5842SOL    HW118425   1.628   6.487   4.606 -1.5008 -1.1480 -2.4822
 5842SOL    HW218426   1.762   6.491   4.513 -0.4457  0.3045 -0.9465
 5843SOL     OW18427   6.866   2.678   0.692 -0.4340  0.5101  0.9116
 5843SOL    HW118428   6.807   2.759   0.699 -0.3853  0.6452 -0.0609
 5843SOL    HW218429   6.959   2.707   0.669 -0.7421  0.1253 -0.9801
 5844SOL     OW18430   1.221   2.336   0.494 -0.6594 -0.0077 -0.0560
 5844SOL    HW118431   1.166   2.259   0.525  0.8740 -1.0097  0.3031
 5844SOL    HW218432   1.290   2.358   0.564  1.3151 -0.7531 -1.6550
 5845SOL     OW18433   3.927   5.407   0.142  0.0745 -0.2148  0.3380
 5845SOL    HW118434   3.960   5.380   0.233  0.7029  0.2026  0.2339
 5845SOL    HW218435   3.883   5.497   0.149  2.1429  0.8994 -0.1645
 5846SOL     OW18436   3.245   5.831   5.828  0.1174 -0.3115 -0.3215
 5846SOL    HW118437   3.183   5.778   5.885  0.4084  0.8745  1.1593
 5846SOL    HW218438   3.340   5.805   5.848  0.2707  0.8574  0.5572
 5847SOL     OW18439   1.717   5.802   1.597  0.7163  0.3177  0.5729
 5847SOL    HW118440   1.728   5.830   1.501  0.5711 -0.8774  0.1899
 5847SOL    HW218441   1.626   5.764   1.610  1.5056 -1.6603  0.6012
 5848SOL     OW18442   2.647   2.981   6.726  0.2270 -0.7206 -0.0305
 5848SOL    HW118443   2.574   2.925   6.687  0.1400  0.2070 -1.2457
 5848SOL    HW218444   2.735   2.951   6.690  0.1263  0.2855 -1.1918
 5849SOL     OW18445   0.022   3.302   2.497  0.1590  0.4575 -0.3281
 5849SOL    HW118446   0.006   3.224   2.436  1.7621  1.2042 -1.7961
 5849SOL    HW218447   0.094   3.278   2.562 -0.0852  0.3734 -0.0856
 5850SOL     OW18448   1.041   5.818   0.594 -0.7021 -0.6164 -0.2778
 5850SOL    HW118449   0.961   5.877   0.608 -1.7588 -1.9415 -0.5435
 5850SOL    HW218450   1.014   5.737   0.541  1.0211 -0.6597 -1.1722
 5851SOL     OW18451   4.713   5.397   5.952 -0.4453  0.6299 -0.3852
 5851SOL    HW118452   4.630   5.417   6.004 -0.1471  0.7088  0.0698
 5851SOL    HW218453   4.772   5.335   6.005 -0.3707  0.2946 -0.8520
 5852SOL     OW18454   2.480   1.124   2.057 -0.4601 -0.1314 -0.3162
 5852SOL    HW118455   2.473   1.145   2.154 -0.1870  0.9883 -0.5273
 5852SOL    HW218456   2.394   1.083   2.026 -0.0753 -1.7907  0.6712
 5853SOL     OW18457   3.698   5.574   4.976  0.5048 -0.3307 -0.6419
 5853SOL    HW118458   3.635   5.506   4.941  0.3073 -0.8637  0.6687
 5853SOL    HW218459   3.646   5.647   5.021  0.7740 -1.4316  1.6203
 5854SOL     OW18460   2.227   2.646   5.309  0.3747  0.0014  0.5194
 5854SOL    HW118461   2.290   2.673   5.382 -0.4386 -1.8838  2.0150
 5854SOL    HW218462   2.156   2.587   5.347  0.3731 -1.7402 -1.9227
 5855SOL     OW18463   1.827   5.097   3.821 -0.1796  0.6952  0.0600
 5855SOL    HW118464   1.915   5.098   3.869  0.0393 -1.3341 -0.2279
 5855SOL    HW218465   1.838   5.136   3.730  0.0634  1.8315  0.5604
 5856SOL     OW18466   5.631   1.239   6.058  0.1854 -0.1256 -0.2073
 5856SOL    HW118467   5.655   1.334   6.076  2.9503 -0.3808 -1.9303
 5856SOL    HW218468   5.557   1.235   5.991  0.9249  0.8657 -1.1176
 5857SOL     OW18469   0.032   4.023   5.619  0.0783  0.1222  0.4469
 5857SOL    HW118470   0.065   4.031   5.524 -0.3240  0.6781  0.3514
 5857SOL    HW218471   0.044   3.929   5.650  1.7412  0.2830  0.4139
 5858SOL     OW18472   4.832   4.010   4.294  0.2209 -0.8538 -0.0983
 5858SOL    HW118473   4.849   4.075   4.368 -0.0654  0.0978 -0.8394
 5858SOL    HW218474   4.916   3.960   4.273  0.1702 -1.5278  1.2119
 5859SOL     OW18475   3.811   1.812   1.683  0.0107  0.2458 -0.4132
 5859SOL    HW118476   3.814   1.757   1.599  0.7037  1.1860 -1.0199
 5859SOL    HW218477   3.823   1.908   1.660  0.2337  0.5155  0.7746
 5860SOL     OW18478   4.063   1.050   1.134 -0.0365  0.1330 -0.0316
 5860SOL    HW118479   4.084   1.041   1.231 -2.5315 -0.5315  0.5072
 5860SOL    HW218480   4.149   1.060   1.083  1.5642 -2.2780  1.9010
 5861SOL     OW18481   4.326   3.859   5.881 -0.2075 -0.5603  0.7950
 5861SOL    HW118482   4.284   3.815   5.960 -0.3469  0.9158  1.5861
 5861SOL    HW218483   4.420   3.885   5.904 -0.1582 -0.3695  0.3790
 5862SOL     OW18484   6.065   4.190   4.454 -0.2612  0.2205  0.1561
 5862SOL    HW118485   6.080   4.140   4.540  2.1416  0.3897 -0.0768
 5862SOL    HW218486   6.120   4.147   4.382 -1.3837  0.7545 -1.0466
 5863SOL     OW18487   3.702   6.454   0.112 -0.2331 -0.1597  0.3930
 5863SOL    HW118488   3.671   6.511   0.035 -0.8303 -1.1553 -0.1231
 5863SOL    HW218489   3.703   6.509   0.195  1.1476  1.1532 -0.4408
 5864SOL     OW18490   1.296   4.124   1.770 -0.2709  0.5086 -0.1806
 5864SOL    HW118491   1.267   4.124   1.866 -1.1729  1.3631 -0.4436
 5864SOL    HW218492   1.392   4.098   1.765 -0.6679 -1.3383  0.7992
 5865SOL     OW18493   2.059   1.807   3.608 -0.0221  0.0006  0.0736
 5865SOL    HW118494   2.006   1.737   3.560  1.4486 -0.1780 -1.4072
 5865SOL    HW218495   2.076   1.778   3.702 -3.2807  0.5112  0.9250
 5866SOL     OW18496   0.945   5.753   5.364 -0.0998  0.0494 -0.1757
 5866SOL    HW118497   0.940   5.660   5.327 -1.4434 -0.0895  0.3117
 5866SOL    HW218498   0.987   5.750   5.454  0.3861 -0.0044 -0.3999
 5867SOL     OW18499   1.596   2.031   3.081 -0.0929 -0.1922  0.4616
 5867SOL    HW118500   1.692   2.057   3.070  0.2265 -1.3998  0.2182
 5867SOL    HW218501   1.540   2.082   3.016  0.6211 -0.7296 -0.5985
 5868SOL     OW18502   6.947   6.608   2.868 -0.0164 -0.1417 -0.4229
 5868SOL    HW118503   7.044   6.603   2.842 -0.3733  0.6786 -1.9925
 5868SOL    HW218504   6.925   6.701   2.897 -0.8492  0.2872 -2.3099
 5869SOL     OW18505   4.713   2.775   2.535 -0.0196 -0.2130  0.5090
 5869SOL    HW118506   4.755   2.838   2.600 -1.9531  0.5850  1.0698
 5869SOL    HW218507   4.713   2.816   2.443  0.0887 -0.0593  0.5774
 5870SOL     OW18508   6.120   6.828   6.589 -0.2261 -0.5849  0.5268
 5870SOL    HW118509   6.193   6.760   6.588 -1.1823 -1.6473  0.3992
 5870SOL    HW218510   6.053   6.804   6.660 -1.8392 -1.1808 -1.1428
 5871SOL     OW18511   1.013   1.161   2.571 -0.3311 -0.0612  0.1819
 5871SOL    HW118512   0.920   1.156   2.607 -0.4915 -0.5225 -0.2882
 5871SOL    HW218513   1.018   1.115   2.483 -0.0429  1.4318 -0.6183
 5872SOL     OW18514   1.475   4.383   1.077 -0.0696 -0.1009  0.7736
 5872SOL    HW118515   1.477   4.372   1.176  1.6350  0.4160  0.8308
 5872SOL    HW218516   1.417   4.312   1.037 -0.9856 -0.1560  2.1424
 5873SOL     OW18517   0.612   1.916   4.517 -0.4583  0.1695  0.1039
 5873SOL    HW118518   0.542   1.899   4.586  0.0334 -0.1684  0.5284
 5873SOL    HW218519   0.580   1.985   4.453 -2.1415 -1.5694 -1.0615
 5874SOL     OW18520   1.832   3.892   4.067 -0.0522  0.1761  0.4883
 5874SOL    HW118521   1.755   3.868   4.127  1.0923 -1.4853  1.3700
 5874SOL    HW218522   1.847   3.817   4.002  1.2223  0.1753  0.7665
 5875SOL     OW18523   0.544   6.907   1.362 -0.0702  0.3683  0.5137
 5875SOL    HW118524   0.623   6.850   1.387  0.7561  1.2315 -0.0326
 5875SOL    HW218525   0.478   6.906   1.437 -0.2531 -1.5517  0.3846
 5876SOL     OW18526   4.459   4.439   0.641  0.0219 -0.1460  0.3765
 5876SOL    HW118527   4.481   4.498   0.719  3.3972 -1.0105  0.2435
 5876SOL    HW218528   4.395   4.486   0.580 -1.2856  1.2828  2.7062
 5877SOL     OW18529   6.508   4.904   5.938  0.1266 -0.6091 -0.1660
 5877SOL    HW118530   6.574   4.905   6.013 -0.8169  1.1940  0.6978
 5877SOL    HW218531   6.556   4.893   5.851  1.3383 -1.5440  0.5869
 5878SOL     OW18532   6.700   0.684   4.759 -0.9633  0.2509 -0.3734
 5878SOL    HW118533   6.618   0.643   4.721 -0.5793  0.2977 -1.2617
 5878SOL    HW218534   6.728   0.762   4.703  1.2252 -1.3741 -1.6949
 5879SOL     OW18535   4.460   6.577   6.306 -0.3501  0.6080  0.4806
 5879SOL    HW118536   4.451   6.655   6.244 -0.6074  1.1683  1.2053
 5879SOL    HW218537   4.546   6.529   6.287 -1.0143 -0.0089 -1.1514
 5880SOL     OW18538   3.343   0.998   6.991  0.2158 -0.1889 -0.2351
 5880SOL    HW118539   3.336   0.960   6.899 -0.9779  0.2442 -0.3466
 5880SOL    HW218540   3.381   1.090   6.986  0.4711 -0.2935 -0.2529
 5881SOL     OW18541   0.288   3.595   6.041 -0.2150  0.5280  0.0403
 5881SOL    HW118542   0.372   3.592   5.987 -0.0228 -1.4703  0.3888
 5881SOL    HW218543   0.309   3.622   6.134 -0.0366  0.5577 -0.0077
 5882SOL     OW18544   1.244   6.105   0.498 -1.0873 -0.2020  0.5170
 5882SOL    HW118545   1.226   6.009   0.518 -0.0247 -0.0572  2.3391
 5882SOL    HW218546   1.339   6.126   0.517 -1.2069  1.1281 -0.2608
 5883SOL     OW18547   1.568   5.936   2.213  0.1384  0.4316 -0.5210
 5883SOL    HW118548   1.495   5.978   2.267  1.1570  1.2939  0.2137
 5883SOL    HW218549   1.650   5.993   2.217  1.5350 -1.5240  0.3602
 5884SOL     OW18550   3.344   6.866   6.405  0.8385  0.1106  0.2574
 5884SOL    HW118551   3.332   6.796   6.476  0.9233 -0.5721 -0.3917
 5884SOL    HW218552   3.356   6.956   6.448 -0.6471 -0.0448  1.0928
 5885SOL     OW18553   4.256   4.787   6.251  0.3772  0.2166  0.1456
 5885SOL    HW118554   4.260   4.805   6.152  0.1645 -0.6286 -0.0229
 5885SOL    HW218555   4.334   4.831   6.295 -0.0180  1.3866 -0.2574
 5886SOL     OW18556   4.618   4.249   1.611 -0.0533  0.3378 -0.1485
 5886SOL    HW118557   4.625   4.164   1.663  1.2254  0.3882 -0.1941
 5886SOL    HW218558   4.642   4.232   1.515  0.5126  0.7942 -0.0941
 5887SOL     OW18559   2.777   6.644   1.038 -0.3745  0.1678 -0.2980
 5887SOL    HW118560   2.690   6.617   1.081 -1.2797  2.3887 -0.6206
 5887SOL    HW218561   2.841   6.675   1.109 -0.8343  1.0768 -0.2623
 5888SOL     OW18562   1.838   6.669   4.060  0.1406  0.0413 -0.6166
 5888SOL    HW118563   1.743   6.696   4.042 -1.1616 -1.3808  3.1581
 5888SOL    HW218564   1.894   6.751   4.073 -1.0527  0.9130 -0.7522
 5889SOL     OW18565   5.949   5.169   4.487  0.0713 -0.2844 -0.3320
 5889SOL    HW118566   5.944   5.075   4.520 -1.5410  0.7040  2.5141
 5889SOL    HW218567   5.858   5.201   4.461  0.1306  1.2226  1.1015
 5890SOL     OW18568   0.655   1.307   6.733 -0.0240  0.3804  0.6093
 5890SOL    HW118569   0.733   1.250   6.709 -0.1855 -0.1638  1.3398
 5890SOL    HW218570   0.628   1.288   6.827 -1.6249 -0.1209  0.0719
 5891SOL     OW18571   6.182   6.663   5.898  0.1238 -0.2708 -0.0700
 5891SOL    HW118572   6.103   6.657   5.958  0.0897  1.5464  0.1076
 5891SOL    HW218573   6.265   6.640   5.949 -0.2280 -1.8703 -0.1787
 5892SOL     OW18574   0.898   3.063   4.327 -0.3254 -0.2811 -0.0718
 5892SOL    HW118575   0.959   2.998   4.371  0.9692  2.1819  2.0048
 5892SOL    HW218576   0.809   3.061   4.373  1.1588  2.6362  3.3994
 5893SOL     OW18577   3.896   3.326   6.857  0.2150 -0.1170 -0.2354
 5893SOL    HW118578   3.819   3.348   6.797  0.6112 -2.2518 -1.6518
 5893SOL    HW218579   3.862   3.284   6.941 -0.2338 -3.1129 -1.7766
 5894SOL     OW18580   5.160   3.992   0.963  1.0271  1.0007  0.2591
 5894SOL    HW118581   5.104   3.958   1.038  0.3459  1.1401 -0.1767
 5894SOL    HW218582   5.256   3.994   0.991  1.0413 -0.8143  0.4603
 5895SOL     OW18583   2.067   6.059   3.054  0.1696  0.0314 -0.0955
 5895SOL    HW118584   2.152   6.065   3.001  0.5615  2.3325  0.6768
 5895SOL    HW218585   2.066   5.974   3.106  1.3345 -0.6882 -1.2167
 5896SOL     OW18586   2.192   2.641   4.561  0.2385 -0.5864 -0.6605
 5896SOL    HW118587   2.139   2.664   4.642  0.9510  0.9590 -0.5908
 5896SOL    HW218588   2.139   2.581   4.501 -1.2220  0.1825 -0.1715
 5897SOL     OW18589   3.544   4.155   3.793  0.6791  0.3985 -0.1573
 5897SOL    HW118590   3.543   4.102   3.878 -0.0589  0.7869  0.0796
 5897SOL    HW218591   3.587   4.243   3.810  0.1144  0.6608 -0.0706
 5898SOL     OW18592   1.808   0.501   6.740  0.4420 -0.2660  0.3023
 5898SOL    HW118593   1.798   0.496   6.641  0.7657 -1.6604  0.3164
 5898SOL    HW218594   1.725   0.539   6.781  0.3246  0.3509 -0.4959
 5899SOL     OW18595   2.578   1.545   5.606  0.0465 -0.1976  0.1293
 5899SOL    HW118596   2.491   1.522   5.649 -0.3906  0.7870 -0.2013
 5899SOL    HW218597   2.607   1.469   5.547 -2.2626  0.7077 -2.3746
 5900SOL     OW18598   5.667   4.957   3.034 -0.1296 -0.0642 -0.4796
 5900SOL    HW118599   5.641   4.861   3.039 -0.0703 -0.0847 -0.5515
 5900SOL    HW218600   5.715   4.974   2.947  0.0797 -0.0232 -0.3567
 5901SOL     OW18601   1.598   1.643   2.746  0.1940  0.0942 -0.0685
 5901SOL    HW118602   1.570   1.587   2.824  0.7018  0.1746  0.1775
 5901SOL    HW218603   1.649   1.722   2.780  0.7342 -0.0649 -0.5089
 5902SOL     OW18604   2.119   1.677   3.879 -0.5095  0.3684  0.1636
 5902SOL    HW118605   2.056   1.601   3.893  1.1102 -1.0673 -0.0828
 5902SOL    HW218606   2.137   1.722   3.967  1.4381 -1.9674  1.0577
 5903SOL     OW18607   5.035   6.005   4.794 -0.4979  0.2136 -0.2644
 5903SOL    HW118608   5.013   5.908   4.787 -0.1816  0.2269 -1.6674
 5903SOL    HW218609   5.024   6.049   4.705  2.8996  0.6741 -0.6066
 5904SOL     OW18610   4.975   0.662   0.849 -0.0739  0.4946 -0.0530
 5904SOL    HW118611   5.026   0.636   0.931 -1.3795 -1.4463  0.2170
 5904SOL    HW218612   4.905   0.729   0.872  1.9444  2.8762 -0.3555
 5905SOL     OW18613   1.782   3.820   5.785  0.0496 -0.4084 -0.2777
 5905SOL    HW118614   1.778   3.914   5.818  1.2281 -0.1146 -0.9061
 5905SOL    HW218615   1.746   3.815   5.692  1.9538 -0.1245 -1.0889
 5906SOL     OW18616   1.831   2.016   5.343 -0.5118  0.3388 -0.1207
 5906SOL    HW118617   1.759   2.085   5.335  0.6040  1.6164  0.4353
 5906SOL    HW218618   1.812   1.958   5.423 -1.3740  0.0931 -0.4931
 5907SOL     OW18619   0.757   6.407   5.850 -0.5516 -0.1320  0.2031
 5907SOL    HW118620   0.702   6.404   5.767  1.1015 -0.6747 -0.9343
 5907SOL    HW218621   0.810   6.492   5.853  1.0972 -1.0789 -0.5134
 5908SOL     OW18622   2.586   0.797   1.715  0.0321  0.5991 -0.0338
 5908SOL    HW118623   2.620   0.737   1.643  2.6464 -0.5608  1.9907
 5908SOL    HW218624   2.632   0.886   1.708  0.0552  0.5914  0.0199
 5909SOL     OW18625   0.871   6.944   0.904  0.3383 -0.1921 -0.5095
 5909SOL    HW118626   0.967   6.936   0.931 -0.2968 -1.6465  1.5886
 5909SOL    HW218627   0.813   6.920   0.982 -1.7276 -0.2283 -1.9908
 5910SOL     OW18628   2.093   2.037   5.488 -0.1763 -0.0786  0.1566
 5910SOL    HW118629   2.036   2.006   5.412  0.9016  0.0307 -0.7219
 5910SOL    HW218630   2.077   2.134   5.504 -1.0678 -0.2998  0.6813
 5911SOL     OW18631   2.882   3.324   6.787 -0.4831 -0.7280  0.4718
 5911SOL    HW118632   2.844   3.303   6.698  1.4109 -4.1389  0.2839
 5911SOL    HW218633   2.809   3.352   6.849 -2.1820 -0.5783 -1.4931
 5912SOL     OW18634   6.545   1.146   6.798 -0.4553  0.2505 -0.1412
 5912SOL    HW118635   6.482   1.116   6.870  1.4044  1.2688  2.0506
 5912SOL    HW218636   6.496   1.154   6.712 -3.1054  0.1322  1.2492
 5913SOL     OW18637   2.851   4.275   1.413  0.2218 -0.3529  0.2370
 5913SOL    HW118638   2.880   4.190   1.368 -1.0249 -0.7286  0.0998
 5913SOL    HW218639   2.833   4.256   1.510  2.4503  0.3520  0.8474
 5914SOL     OW18640   4.565   2.590   2.079 -0.1253  0.1342  0.2919
 5914SOL    HW118641   4.653   2.635   2.094  0.1572 -1.0651  2.8235
 5914SOL    HW218642   4.491   2.649   2.113 -0.1066  0.2498  0.1322
 5915SOL     OW18643   1.281   4.433   3.721 -0.4533  0.1683 -0.1109
 5915SOL    HW118644   1.241   4.382   3.797 -1.6179  0.8858 -0.2202
 5915SOL    HW218645   1.381   4.432   3.729 -0.5546  0.4392  1.5708
 5916SOL     OW18646   5.395   7.011   6.344  0.0440 -0.0576  0.3355
 5916SOL    HW118647   5.377   7.104   6.376 -0.4874 -0.4824  1.3091
 5916SOL    HW218648   5.320   6.951   6.371  0.3522 -0.7625 -0.3396
 5917SOL     OW18649   2.432   2.692   3.293  0.0890 -0.2405  0.3878
 5917SOL    HW118650   2.500   2.666   3.224  0.1732  2.1928 -0.5404
 5917SOL    HW218651   2.340   2.680   3.255 -0.0229 -2.1464  1.1339
 5918SOL     OW18652   2.847   3.279   6.500  0.0744  0.1687  0.3939
 5918SOL    HW118653   2.807   3.326   6.421 -0.5951  0.1634  0.7166
 5918SOL    HW218654   2.942   3.255   6.481 -0.0284  0.3270 -0.3376
 5919SOL     OW18655   1.199   2.106   3.298  0.3670 -0.0949 -0.2221
 5919SOL    HW118656   1.171   2.201   3.312 -0.8114 -0.3601 -0.6360
 5919SOL    HW218657   1.130   2.046   3.338 -0.0919 -0.7906 -1.9640
 5920SOL     OW18658   4.077   4.582   0.150  0.1595 -0.2137  0.8912
 5920SOL    HW118659   4.091   4.496   0.101  1.3321  1.1586 -1.3446
 5920SOL    HW218660   4.055   4.562   0.246 -1.0046 -2.9908  0.1518
 5921SOL     OW18661   4.524   5.180   0.171 -0.3126 -0.9056  0.0123
 5921SOL    HW118662   4.603   5.122   0.192 -0.3789 -0.8024  0.5571
 5921SOL    HW218663   4.457   5.173   0.244 -1.2121 -1.6702 -0.8575
 5922SOL     OW18664   4.176   3.740   0.013 -0.7898  0.0861 -0.0731
 5922SOL    HW118665   4.177   3.640   0.006  0.9587  0.1290 -1.0718
 5922SOL    HW218666   4.203   3.767   0.105  1.3045 -0.3748 -0.5066
 5923SOL     OW18667   6.607   2.025   1.188 -0.3494 -0.0980  0.3953
 5923SOL    HW118668   6.541   2.090   1.150  0.2610 -0.4326 -1.3242
 5923SOL    HW218669   6.650   1.974   1.114  1.1345 -0.5804  1.5361
 5924SOL     OW18670   1.603   3.146   1.351  0.7348 -0.6517 -0.5486
 5924SOL    HW118671   1.625   3.207   1.274 -1.3417  0.6155 -0.2182
 5924SOL    HW218672   1.649   3.179   1.433  0.2492  0.0060 -0.5375
 5925SOL     OW18673   6.204   5.897   4.219  0.2248  0.0829 -0.3167
 5925SOL    HW118674   6.247   5.928   4.305  0.4138  0.7347 -0.6344
 5925SOL    HW218675   6.107   5.921   4.221  0.3298  0.5368 -0.4796
 5926SOL     OW18676   0.660   4.837   2.492 -0.3936  0.4818 -0.2195
 5926SOL    HW118677   0.576   4.786   2.475 -0.0103  0.0070 -0.7222
 5926SOL    HW218678   0.711   4.793   2.566 -1.7382  2.1636  1.8115
 5927SOL     OW18679   4.009   6.116   1.991 -0.2167  0.2396 -0.1272
 5927SOL    HW118680   4.041   6.033   1.946 -0.3700  0.2529 -0.2603
 5927SOL    HW218681   4.087   6.177   2.008 -0.3542  0.8953 -1.7351
 5928SOL     OW18682   5.466   3.280   5.402  0.1395  0.1467 -0.2959
 5928SOL    HW118683   5.439   3.230   5.320  0.0672  1.5370 -1.1548
 5928SOL    HW218684   5.470   3.378   5.382  0.2617  0.5115  1.3305
 5929SOL     OW18685   0.750   6.718   1.507 -0.1434  0.4506  0.3415
 5929SOL    HW118686   0.732   6.657   1.430  0.1782 -0.5206  1.0097
 5929SOL    HW218687   0.677   6.706   1.575 -0.1479  0.9160  0.4178
 5930SOL     OW18688   1.696   3.198   6.783 -0.6828 -0.2371  0.4121
 5930SOL    HW118689   1.792   3.174   6.768 -0.5677  0.2095  0.4144
 5930SOL    HW218690   1.644   3.115   6.803 -0.3363 -0.5063  0.2152
 5931SOL     OW18691   1.643   2.476   6.357  0.5145  0.0317  0.7924
 5931SOL    HW118692   1.728   2.528   6.364  1.7688 -1.7273 -0.5993
 5931SOL    HW218693   1.636   2.413   6.435 -0.0006  0.7852  1.3801
 5932SOL     OW18694   1.458   4.876   6.680  0.1552  0.8188 -0.3596
 5932SOL    HW118695   1.417   4.865   6.590 -0.9069 -1.8530  0.3828
 5932SOL    HW218696   1.554   4.846   6.677 -0.7569 -2.4305  0.0277
 5933SOL     OW18697   6.709   3.203   5.894 -0.0441  0.6597  0.1841
 5933SOL    HW118698   6.757   3.116   5.892 -2.7166 -0.9070 -0.1785
 5933SOL    HW218699   6.774   3.277   5.876  2.3718 -1.1646  0.8502
 5934SOL     OW18700   4.848   4.684   0.340  0.4515  0.1245 -0.5834
 5934SOL    HW118701   4.773   4.744   0.313 -0.8176 -0.1972  1.9636
 5934SOL    HW218702   4.898   4.725   0.416  1.8813 -0.4222 -1.1894
 5935SOL     OW18703   3.806   3.914   3.284 -0.0612  0.1958 -0.1978
 5935SOL    HW118704   3.779   3.819   3.271  0.1321  0.2050 -0.6786
 5935SOL    HW218705   3.875   3.920   3.356 -0.2867  0.0062  0.0338
 5936SOL     OW18706   2.973   0.900   5.213  0.2300  0.5814 -0.1948
 5936SOL    HW118707   2.969   0.995   5.181  1.3254  0.3856 -0.9698
 5936SOL    HW218708   2.988   0.839   5.136  0.1297 -0.1718  0.3673
 5937SOL     OW18709   1.348   4.918   6.101  0.1629 -0.4246  0.4181
 5937SOL    HW118710   1.317   5.005   6.062  0.4490 -0.3164  0.4327
 5937SOL    HW218711   1.447   4.919   6.111  0.1890 -0.8507  0.1912
 5938SOL     OW18712   0.930   0.208   3.146  0.3596 -0.1508 -0.1465
 5938SOL    HW118713   0.889   0.118   3.128  1.6972 -1.1576  1.5277
 5938SOL    HW218714   1.029   0.200   3.145  0.4973  1.3037  0.1051
 5939SOL     OW18715   1.454   2.066   2.847 -0.0294 -0.0780 -0.1502
 5939SOL    HW118716   1.378   2.123   2.880  0.3383 -0.2716  1.1046
 5939SOL    HW218717   1.473   2.087   2.751 -1.9752 -0.3864 -0.6291
 5940SOL     OW18718   2.087   1.372   6.735 -0.6248  0.2242  0.3258
 5940SOL    HW118719   2.041   1.285   6.722 -0.9334  0.3260  0.7207
 5940SOL    HW218720   2.123   1.377   6.829 -0.2311  0.3428  0.1702
 5941SOL     OW18721   1.035   6.454   4.532  0.2286 -0.1689  0.1776
 5941SOL    HW118722   1.133   6.470   4.520  0.0682  1.8472  1.2467
 5941SOL    HW218723   1.012   6.363   4.496  2.4447 -0.6404 -0.2048
 5942SOL     OW18724   3.609   3.703   0.468 -0.0954  0.2981 -0.3370
 5942SOL    HW118725   3.556   3.622   0.493  1.2421 -0.1117  1.3455
 5942SOL    HW218726   3.614   3.765   0.547  2.2296  0.1339 -0.3025
 5943SOL     OW18727   3.184   3.346   1.897 -0.3885  0.2191 -0.0823
 5943SOL    HW118728   3.105   3.387   1.853 -0.1658 -0.4519 -1.1268
 5943SOL    HW218729   3.161   3.254   1.929 -0.0028 -0.0344 -0.5158
 5944SOL     OW18730   0.823   5.160   4.850  0.0239 -0.2462 -0.2047
 5944SOL    HW118731   0.775   5.206   4.775 -1.3682  2.4922  2.1621
 5944SOL    HW218732   0.917   5.195   4.855 -0.3831  0.8324  0.2768
 5945SOL     OW18733   6.873   5.460   0.344 -0.3761 -0.2531  0.3541
 5945SOL    HW118734   6.884   5.372   0.389  0.6367  0.0845  0.8125
 5945SOL    HW218735   6.790   5.504   0.375 -2.8636 -2.5068 -2.4558
 5946SOL     OW18736   2.615   0.378   5.288 -0.0128  0.2063  0.4697
 5946SOL    HW118737   2.558   0.296   5.297 -1.2044  0.9532 -0.1355
 5946SOL    HW218738   2.705   0.352   5.253 -0.3268 -0.8671  0.4322
 5947SOL     OW18739   4.199   1.738   2.030 -0.5020  0.1811  0.3593
 5947SOL    HW118740   4.136   1.778   1.963 -0.2472  0.5035  0.3107
 5947SOL    HW218741   4.207   1.799   2.109 -0.3881  0.0536  0.4469
 5948SOL     OW18742   1.281   1.413   3.818  0.3755 -0.0342  0.7191
 5948SOL    HW118743   1.188   1.385   3.793  0.1058  0.4915  1.1187
 5948SOL    HW218744   1.343   1.336   3.803 -0.0779 -0.3102  0.2018
 5949SOL     OW18745   0.120   6.966   3.074  0.3614 -0.9687 -0.1774
 5949SOL    HW118746   0.177   6.912   3.136  0.5330  0.4944  0.9817
 5949SOL    HW218747   0.177   7.032   3.025 -0.0014 -1.1259 -0.8262
 5950SOL     OW18748   0.083   2.365   4.988 -0.2458  0.3362 -0.1028
 5950SOL    HW118749  -0.004   2.354   5.036 -0.1573 -2.2491 -0.3878
 5950SOL    HW218750   0.074   2.331   4.894  0.6905  1.4403 -0.6097
 5951SOL     OW18751   2.515   1.259   3.955 -0.0429 -0.4294  0.4446
 5951SOL    HW118752   2.434   1.261   4.014  0.6885 -1.1201  1.4982
 5951SOL    HW218753   2.564   1.173   3.968 -0.8963 -1.5033 -2.6415
 5952SOL     OW18754   2.411   2.501   0.319 -1.0160  0.5102  0.0721
 5952SOL    HW118755   2.501   2.487   0.361 -1.5278 -0.2805  0.9742
 5952SOL    HW218756   2.389   2.598   0.318 -0.6061  0.6192  0.8465
 5953SOL     OW18757   5.431   3.448   4.281  0.0557  0.3262  0.0200
 5953SOL    HW118758   5.524   3.411   4.289  0.1830  0.4910 -0.6299
 5953SOL    HW218759   5.431   3.524   4.217 -0.9819 -1.3088 -2.0442
 5954SOL     OW18760   2.598   4.271   6.954 -0.0839 -0.1854  0.4321
 5954SOL    HW118761   2.598   4.313   6.863  0.6274  4.1218  2.1922
 5954SOL    HW218762   2.517   4.302   7.005 -0.4539 -2.4761  1.3704
 5955SOL     OW18763   1.185   6.444   2.489  0.3657  0.6015 -0.1014
 5955SOL    HW118764   1.120   6.417   2.560  0.2105  0.4347 -0.3077
 5955SOL    HW218765   1.147   6.424   2.399 -0.0565  2.1357 -0.2978
 5956SOL     OW18766   2.161   5.901   0.289 -0.4284  0.3981  0.2184
 5956SOL    HW118767   2.101   5.841   0.342 -0.8711 -0.4953 -1.2349
 5956SOL    HW218768   2.111   5.938   0.210  0.0572  2.1155  0.6650
 5957SOL     OW18769   4.898   4.990   0.562  0.5304  0.1944  0.3728
 5957SOL    HW118770   4.877   4.903   0.606  0.2121 -0.0791 -0.3109
 5957SOL    HW218771   4.982   4.981   0.508  0.4832  0.3012  0.2792
 5958SOL     OW18772   5.606   6.216   3.261  0.2281  0.2307 -0.1477
 5958SOL    HW118773   5.528   6.264   3.301 -0.5846 -1.6791  0.6852
 5958SOL    HW218774   5.650   6.160   3.331 -1.3619 -3.3978 -1.7669
 5959SOL     OW18775   0.338   4.133   0.065  0.4357 -0.3098 -0.6826
 5959SOL    HW118776   0.351   4.033   0.065  3.1897 -0.0515  0.7141
 5959SOL    HW218777   0.407   4.175   0.006  0.4310  0.8634  0.1238
 5960SOL     OW18778   6.485   1.740   4.278  0.1512 -0.0844 -0.2664
 5960SOL    HW118779   6.420   1.722   4.352 -0.4310 -1.4154 -1.0707
 5960SOL    HW218780   6.452   1.817   4.223  1.4260  2.0769  1.7637
 5961SOL     OW18781   2.983   4.722   5.334  0.6340  0.2838 -0.1924
 5961SOL    HW118782   2.971   4.698   5.430 -1.3084 -0.2267 -0.5181
 5961SOL    HW218783   2.951   4.647   5.277  1.0139  0.9061 -1.2602
 5962SOL     OW18784   0.534   3.562   5.282  0.3802  0.1703  0.9151
 5962SOL    HW118785   0.570   3.580   5.374  2.6339  0.0857  0.0989
 5962SOL    HW218786   0.590   3.609   5.214  0.1148 -1.5351 -0.5604
 5963SOL     OW18787   1.298   1.426   5.376 -0.9318 -0.8235  0.1744
 5963SOL    HW118788   1.309   1.341   5.428 -1.6183 -1.3103 -0.4542
 5963SOL    HW218789   1.321   1.410   5.280 -1.5086 -0.4220 -0.0416
 5964SOL     OW18790   0.459   5.410   3.344 -0.4069 -0.5233 -0.0328
 5964SOL    HW118791   0.469   5.318   3.308 -0.6500 -0.9383  0.9302
 5964SOL    HW218792   0.454   5.407   3.444 -0.2523  0.5465  0.0232
 5965SOL     OW18793   0.209   5.045   4.666 -0.3626 -0.1939  0.0650
 5965SOL    HW118794   0.127   5.100   4.652 -1.7493 -1.3964  2.7463
 5965SOL    HW218795   0.215   5.019   4.763  3.8467  0.8121  0.2548
 5966SOL     OW18796   4.562   6.078   5.129  0.4500  0.2370 -0.0564
 5966SOL    HW118797   4.568   5.998   5.069 -0.1518  0.4861 -0.4662
 5966SOL    HW218798   4.487   6.066   5.194 -0.2777  0.8647 -0.7525
 5967SOL     OW18799   1.467   6.109   2.698 -0.2148 -0.8168  0.1562
 5967SOL    HW118800   1.439   6.021   2.660 -0.4883 -1.5684  2.0062
 5967SOL    HW218801   1.532   6.094   2.772  1.9948  0.7034 -1.3229
 5968SOL     OW18802   2.577   3.458   6.728 -0.6597  0.1589  0.3648
 5968SOL    HW118803   2.600   3.409   6.812  0.7520 -1.8382 -1.0995
 5968SOL    HW218804   2.658   3.503   6.692 -0.9549 -0.0570 -0.5942
 5969SOL     OW18805   3.499   3.638   6.861  0.0181 -0.2694 -0.6205
 5969SOL    HW118806   3.466   3.684   6.943  1.2866 -0.5394  0.0766
 5969SOL    HW218807   3.599   3.634   6.864  0.0927 -0.1124 -2.2797
 5970SOL     OW18808   1.426   1.726   3.501  0.2045 -0.0906 -0.6440
 5970SOL    HW118809   1.350   1.784   3.529  0.8896  0.5090  0.0248
 5970SOL    HW218810   1.470   1.764   3.420  0.7149  0.4144 -0.1492
 5971SOL     OW18811   3.597   6.700   5.188 -0.0706  0.2175 -0.2065
 5971SOL    HW118812   3.632   6.653   5.107 -1.0679 -0.7788 -0.0804
 5971SOL    HW218813   3.585   6.634   5.262 -0.6823  0.8364  0.2495
 5972SOL     OW18814   4.565   1.463   5.493 -0.3813 -0.1053  0.5107
 5972SOL    HW118815   4.583   1.369   5.465  1.6252 -0.1964  1.9027
 5972SOL    HW218816   4.539   1.517   5.413 -0.0115 -1.4722 -0.5720
 5973SOL     OW18817   0.863   5.859   5.141  0.5320 -0.1941  0.0872
 5973SOL    HW118818   0.956   5.885   5.112  0.2255  2.0994  0.9515
 5973SOL    HW218819   0.868   5.809   5.228  0.9035  2.1706  1.5218
 5974SOL     OW18820   0.568   0.120   6.886  0.5081  0.2094 -0.1853
 5974SOL    HW118821   0.562   0.024   6.860 -0.5504 -0.8021  3.1913
 5974SOL    HW218822   0.662   0.142   6.911  0.5612 -0.3111  0.0940
 5975SOL     OW18823   4.873   2.440   6.335 -0.2854 -0.4145 -0.5027
 5975SOL    HW118824   4.963   2.451   6.293  1.3441  1.4025  3.0614
 5975SOL    HW218825   4.807   2.498   6.286  1.2423  0.7962 -1.2318
 5976SOL     OW18826   1.588   3.894   0.162  0.0869  0.0647  1.1253
 5976SOL    HW118827   1.648   3.844   0.100 -1.0823  0.9700 -0.8254
 5976SOL    HW218828   1.546   3.830   0.228  0.7901 -1.0373  0.5257
 5977SOL     OW18829   4.604   4.223   0.702 -1.1703 -0.1013 -0.4390
 5977SOL    HW118830   4.607   4.195   0.797  0.7406  0.2950 -0.3575
 5977SOL    HW218831   4.519   4.275   0.685 -1.0052  0.8146  1.3279
 5978SOL     OW18832   5.761   0.760   6.763  0.0469  0.1064 -0.4788
 5978SOL    HW118833   5.688   0.789   6.825 -0.8481  0.3151 -1.6081
 5978SOL    HW218834   5.795   0.839   6.711  1.6967  0.1803  0.6345
 5979SOL     OW18835   1.787   5.122   4.996  0.4246  0.0918  0.3697
 5979SOL    HW118836   1.799   5.177   4.913  0.9791 -1.2374 -0.4782
 5979SOL    HW218837   1.799   5.025   4.973 -1.4668 -0.4828  1.6290
 5980SOL     OW18838   0.084   6.036   2.639 -0.8909 -0.4419  0.3076
 5980SOL    HW118839   0.116   6.048   2.545  1.6242  0.1047  1.1493
 5980SOL    HW218840   0.006   5.973   2.640 -0.7835 -0.7036 -2.0903
 5981SOL     OW18841   6.341   2.104   1.704  0.2742  0.2571  0.3121
 5981SOL    HW118842   6.297   2.188   1.675  2.2134  1.1697 -0.1744
 5981SOL    HW218843   6.381   2.058   1.625 -0.6899 -1.0913  0.5885
 5982SOL     OW18844   1.887   4.564   5.831 -0.1019  0.8500  0.6282
 5982SOL    HW118845   1.842   4.477   5.849  2.4287 -0.9585 -1.0494
 5982SOL    HW218846   1.843   4.609   5.753 -0.2378  0.1082  0.2717
 5983SOL     OW18847   4.042   0.663   0.568 -0.0164 -0.5854  0.0366
 5983SOL    HW118848   3.983   0.696   0.494  0.5928 -1.1743 -0.7362
 5983SOL    HW218849   4.035   0.724   0.646 -1.7106 -0.6916 -0.0008
 5984SOL     OW18850   5.416   6.705   6.714  0.4111 -0.1410 -0.1393
 5984SOL    HW118851   5.450   6.611   6.720  1.3545  0.0770 -1.4007
 5984SOL    HW218852   5.424   6.749   6.803 -0.0201 -1.2306  0.4689
 5985SOL     OW18853   1.762   6.311   3.675 -0.1922  0.4534 -0.2913
 5985SOL    HW118854   1.664   6.301   3.687 -0.2012  0.3376 -0.4565
 5985SOL    HW218855   1.790   6.404   3.699 -0.4026  0.6084 -0.6349
 5986SOL     OW18856   4.120   3.446   2.911  0.0159 -0.4354 -0.0565
 5986SOL    HW118857   4.106   3.416   3.006  1.9855 -0.2895  0.3250
 5986SOL    HW218858   4.102   3.544   2.904 -2.1817 -0.8157 -0.3367
 5987SOL     OW18859   2.780   4.860   5.217 -0.0506  0.1297 -0.2131
 5987SOL    HW118860   2.756   4.782   5.160  0.0974  1.4829 -2.2437
 5987SOL    HW218861   2.860   4.837   5.272 -0.6507 -1.4835  0.0332
 5988SOL     OW18862   3.261   6.685   4.783  0.1703 -0.3106 -0.0635
 5988SOL    HW118863   3.165   6.712   4.786 -0.1393 -1.1207 -1.6362
 5988SOL    HW218864   3.301   6.696   4.874 -1.8488 -1.5952  1.0534
 5989SOL     OW18865   1.727   2.535   3.618  0.4994  0.5078 -0.0285
 5989SOL    HW118866   1.798   2.597   3.586  0.7831  0.0824 -0.2412
 5989SOL    HW218867   1.641   2.556   3.573  0.4930  1.0098  0.2099
 5990SOL     OW18868   2.250   1.893   0.412 -0.5321 -0.0106  0.2193
 5990SOL    HW118869   2.260   1.794   0.410 -2.2596 -0.2506  1.4611
 5990SOL    HW218870   2.264   1.926   0.506 -1.0726  0.7815  0.0380
 5991SOL     OW18871   3.709   6.012   1.967 -0.2980 -0.0516 -0.3654
 5991SOL    HW118872   3.665   6.090   2.011  0.3445  0.4033 -0.5254
 5991SOL    HW218873   3.679   5.928   2.012 -0.5103  0.3302  0.2172
 5992SOL     OW18874   0.978   3.778   1.535  0.3933 -0.7736  0.3086
 5992SOL    HW118875   0.978   3.815   1.442 -2.6854  0.3721  0.6497
 5992SOL    HW218876   1.012   3.847   1.598 -0.9355 -0.1672  0.3990
 5993SOL     OW18877   5.839   5.331   4.181 -0.2644 -0.0936  0.0997
 5993SOL    HW118878   5.920   5.317   4.124 -1.6266 -0.0303 -1.9524
 5993SOL    HW218879   5.782   5.402   4.141 -0.4346  1.2869  2.5737
 5994SOL     OW18880   1.809   4.453   6.734 -0.3196  0.3904 -0.1061
 5994SOL    HW118881   1.754   4.516   6.790 -0.1643 -0.1652  0.6969
 5994SOL    HW218882   1.756   4.424   6.654 -0.0800  2.1927 -0.9575
 5995SOL     OW18883   0.371   0.404   4.617 -0.2496 -0.8657 -0.3117
 5995SOL    HW118884   0.289   0.366   4.576 -0.9908  0.3966 -0.0650
 5995SOL    HW218885   0.442   0.416   4.547 -1.2311  0.5611 -1.1074
 5996SOL     OW18886   5.450   0.055   3.171 -0.3713 -0.2928  0.1305
 5996SOL    HW118887   5.507  -0.003   3.229 -1.9133 -2.1989 -0.1446
 5996SOL    HW218888   5.508   0.117   3.118  1.3938 -1.6521  0.3694
 5997SOL     OW18889   5.107   2.944   3.689  0.2829  0.2341 -1.2000
 5997SOL    HW118890   5.154   2.871   3.738  0.7500  0.0006 -1.9857
 5997SOL    HW218891   5.009   2.925   3.688  0.4213 -0.4586 -1.5299
 5998SOL     OW18892   4.656   3.218   1.640 -0.1177 -0.3235  0.0904
 5998SOL    HW118893   4.570   3.266   1.620 -0.1705 -0.7013 -0.6479
 5998SOL    HW218894   4.643   3.159   1.719  0.0935  1.2266  1.3203
 5999SOL     OW18895   6.489   6.290   1.173 -0.5896 -0.3216 -0.2370
 5999SOL    HW118896   6.494   6.375   1.121  0.2246  0.0956  0.4962
 5999SOL    HW218897   6.401   6.283   1.219 -0.6523  0.1271 -0.2924
 6000SOL     OW18898   4.744   0.349   0.930 -0.1476 -0.0567  0.0062
 6000SOL    HW118899   4.836   0.330   0.895 -0.3911  0.2681 -0.8317
 6000SOL    HW218900   4.676   0.313   0.866 -0.6019  1.1048 -0.1825
 6001SOL     OW18901   0.356   4.061   5.551 -0.1152 -0.1402 -0.0533
 6001SOL    HW118902   0.382   4.150   5.589  2.2111 -0.8943  0.2630
 6001SOL    HW218903   0.269   4.070   5.502  1.5247  3.0479 -2.8039
 6002SOL     OW18904   2.629   4.051   6.682 -0.0978  0.4540 -0.1722
 6002SOL    HW118905   2.602   4.063   6.587  2.5163 -0.1723 -1.0610
 6002SOL    HW218906   2.653   4.139   6.722  0.7978  0.4956 -0.7712
 6003SOL     OW18907   6.170   1.767   0.868  0.2188 -0.3593 -0.1138
 6003SOL    HW118908   6.113   1.849   0.877  0.3955 -0.2633  0.1566
 6003SOL    HW218909   6.147   1.702   0.940  0.5081 -0.2819  0.0508
 6004SOL     OW18910   6.205   5.731   2.081 -0.2298  0.2543 -0.3390
 6004SOL    HW118911   6.168   5.649   2.126  0.6949 -0.6294 -1.1327
 6004SOL    HW218912   6.274   5.773   2.141 -0.0061 -0.1150 -0.3330
 6005SOL     OW18913   1.857   6.071   3.760  0.2321 -0.8363 -0.2880
 6005SOL    HW118914   1.782   6.007   3.749 -0.0289 -0.7889  1.0390
 6005SOL    HW218915   1.831   6.160   3.721  0.8979 -1.6991 -2.8545
 6006SOL     OW18916   6.239   0.212   1.318  0.4781 -0.6802  0.2365
 6006SOL    HW118917   6.226   0.172   1.227  0.9265 -1.7602  0.6239
 6006SOL    HW218918   6.337   0.228   1.333  0.5919 -2.0059  1.1096
 6007SOL     OW18919   5.289   0.380   0.114  0.0785  0.2639 -0.0915
 6007SOL    HW118920   5.334   0.308   0.060  0.5686  0.1711  0.4237
 6007SOL    HW218921   5.263   0.343   0.203  3.1645  1.4555  1.4467
 6008SOL     OW18922   0.882   5.963   5.723 -0.1613  0.0322 -0.0569
 6008SOL    HW118923   0.854   6.048   5.769  2.4820  1.6245 -1.1227
 6008SOL    HW218924   0.830   5.952   5.639 -0.0344  1.0401 -0.2812
 6009SOL     OW18925   4.324   1.020   3.558 -0.6232  1.2057 -0.2907
 6009SOL    HW118926   4.386   0.949   3.593 -0.3441  1.2337 -0.7184
 6009SOL    HW218927   4.272   0.984   3.480 -1.3231  1.1069  0.2123
 6010SOL     OW18928   3.896   6.829   5.258  0.1353  0.0665 -0.3415
 6010SOL    HW118929   3.877   6.731   5.256 -1.5853  0.3827 -1.4493
 6010SOL    HW218930   3.949   6.854   5.177  0.4151  0.0978 -0.1523
 6011SOL     OW18931   4.526   4.971   1.242 -0.2412 -0.0582 -0.1118
 6011SOL    HW118932   4.532   4.991   1.340 -1.1540  1.0713 -0.2563
 6011SOL    HW218933   4.462   4.895   1.227  1.9352 -2.0970  0.3201
 6012SOL     OW18934   0.907   2.520   2.645  0.4832  0.1633 -0.1703
 6012SOL    HW118935   0.964   2.464   2.585  0.7622  0.7093 -0.4111
 6012SOL    HW218936   0.956   2.604   2.669  0.5700 -0.2400  1.1756
 6013SOL     OW18937   4.735   5.794   6.335  0.0828  0.7644 -0.1977
 6013SOL    HW118938   4.747   5.701   6.299  0.2435 -0.1866  2.1221
 6013SOL    HW218939   4.759   5.860   6.264  0.0928 -0.9447 -1.8844
 6014SOL     OW18940   4.605   1.909   6.520  0.3586  0.6795  0.0005
 6014SOL    HW118941   4.543   1.965   6.574  2.3509  2.2845  0.7730
 6014SOL    HW218942   4.581   1.813   6.531 -0.5439  1.0868  2.1795
 6015SOL     OW18943   2.851   3.794   0.449 -0.1154 -0.1734  0.0116
 6015SOL    HW118944   2.863   3.838   0.537 -1.3877  0.2652 -0.0188
 6015SOL    HW218945   2.757   3.806   0.417  0.0063 -1.3074 -0.8708
 6016SOL     OW18946   5.940   5.745   2.850  0.2654  0.6530  0.2289
 6016SOL    HW118947   5.903   5.834   2.878  0.6183  1.4650 -1.7108
 6016SOL    HW218948   6.017   5.721   2.909 -0.4563  1.1499  1.3978
 6017SOL     OW18949   1.222   4.401   5.712  0.6463 -0.1772  0.5893
 6017SOL    HW118950   1.263   4.356   5.791  0.2979 -1.3647  0.1223
 6017SOL    HW218951   1.190   4.332   5.647  0.3166  0.7623 -0.2821
 6018SOL     OW18952   2.168   2.362   3.261 -1.0202 -0.3439  0.0854
 6018SOL    HW118953   2.125   2.436   3.208 -0.0073 -1.3676 -2.3541
 6018SOL    HW218954   2.191   2.287   3.199  0.2465 -1.6662  2.0535
 6019SOL     OW18955   6.757   0.404   6.876  0.4734 -0.6020 -0.0012
 6019SOL    HW118956   6.831   0.467   6.855  0.3598  0.1726  1.7857
 6019SOL    HW218957   6.733   0.411   6.972 -0.7771 -2.0853 -0.1601
 6020SOL     OW18958   4.676   2.582   5.228  0.0526 -0.4907  0.2660
 6020SOL    HW118959   4.596   2.635   5.256  0.5489  0.7798 -0.5842
 6020SOL    HW218960   4.715   2.535   5.307 -1.2814 -0.8064  0.7609
 6021SOL     OW18961   3.864   0.684   5.005 -0.3389  0.5473 -0.6510
 6021SOL    HW118962   3.854   0.643   5.095  1.2693 -2.1611 -1.5700
 6021SOL    HW218963   3.925   0.764   5.011  0.8807 -0.4228  0.5093
 6022SOL     OW18964   4.475   4.880   6.433  0.0055 -0.1132  0.4498
 6022SOL    HW118965   4.422   4.929   6.502  0.4051 -0.0765  0.7347
 6022SOL    HW218966   4.540   4.818   6.478  1.5061  1.1895  0.1734
 6023SOL     OW18967   0.094   6.236   6.665  0.1167  0.3026  0.0654
 6023SOL    HW118968   0.017   6.299   6.678  1.0752  1.0522  2.7775
 6023SOL    HW218969   0.164   6.280   6.608 -0.5861  0.3922 -0.7470
 6024SOL     OW18970   1.045   1.937   1.355  0.2907 -0.0384 -0.8360
 6024SOL    HW118971   0.964   1.995   1.359  0.9029  0.7725  0.5023
 6024SOL    HW218972   1.062   1.897   1.446  1.0548 -0.6558 -1.2349
 6025SOL     OW18973   2.562   2.201   6.940 -0.1550  0.0910  0.3417
 6025SOL    HW118974   2.613   2.286   6.949  2.3132 -1.2690  0.2477
 6025SOL    HW218975   2.588   2.155   6.855 -3.8689  0.6734 -1.2974
 6026SOL     OW18976   0.958   3.271   6.412 -0.0326  0.2639  0.2035
 6026SOL    HW118977   0.862   3.289   6.432 -0.0812  0.4512 -0.1918
 6026SOL    HW218978   1.014   3.349   6.442 -0.0316  0.2650  0.1984
 6027SOL     OW18979   6.594   6.119   0.012 -0.0287 -0.4473  0.1420
 6027SOL    HW118980   6.557   6.106  -0.080  0.5245  0.5854 -0.2466
 6027SOL    HW218981   6.692   6.136   0.006 -0.0134 -0.2267  0.9088
 6028SOL     OW18982   3.529   0.585   6.955 -0.1182  0.5216  0.0402
 6028SOL    HW118983   3.550   0.510   6.892  0.2963  0.9658 -0.3635
 6028SOL    HW218984   3.431   0.602   6.956 -0.5117 -1.5109  1.8621
 6029SOL     OW18985   5.811   2.527   1.341  0.1966 -0.1909  0.8738
 6029SOL    HW118986   5.782   2.623   1.352 -0.1887 -0.4217  1.9452
 6029SOL    HW218987   5.739   2.467   1.376 -0.2134 -0.9360 -1.1278
 6030SOL     OW18988   4.861   4.860   3.115 -0.3478  0.0598  0.4768
 6030SOL    HW118989   4.819   4.873   3.025  1.0156 -0.8568 -0.3127
 6030SOL    HW218990   4.938   4.797   3.108  0.0315  0.2724  2.2301
 6031SOL     OW18991   0.376   0.744   4.368 -0.1370 -0.2708  0.2900
 6031SOL    HW118992   0.362   0.822   4.429  1.1442  0.8383 -0.7550
 6031SOL    HW218993   0.461   0.698   4.392  0.4758  0.2881 -0.7183
 6032SOL     OW18994   3.358   5.295   0.583 -0.5415 -0.0766  0.5207
 6032SOL    HW118995   3.383   5.230   0.511  1.2490  0.9822  0.1218
 6032SOL    HW218996   3.270   5.268   0.622 -0.8319 -1.5669 -0.9918
 6033SOL     OW18997   3.278   0.155   6.898  0.3059  0.3899 -0.5258
 6033SOL    HW118998   3.201   0.212   6.872  1.6547  2.2895 -0.5826
 6033SOL    HW218999   3.309   0.180   6.989  0.4281 -0.8576 -0.2014
 6034SOL     OW19000   2.259   2.292   6.631 -0.1632 -0.2314  0.1013
 6034SOL    HW119001   2.265   2.247   6.720  0.5272  0.0387  0.2041
 6034SOL    HW219002   2.175   2.265   6.584  0.2829 -1.6893  0.1142
 6035SOL     OW19003   5.429   4.513   2.996 -0.3161 -0.0588  0.1931
 6035SOL    HW119004   5.425   4.472   2.905  0.2991 -2.7643  1.2895
 6035SOL    HW219005   5.405   4.444   3.064 -0.9186  1.9339  2.1133
 6036SOL     OW19006   1.530   0.246   4.462 -0.3496 -0.0796  0.2757
 6036SOL    HW119007   1.492   0.273   4.373  1.4015  1.1620 -0.1507
 6036SOL    HW219008   1.629   0.232   4.453  0.0473  1.0580  2.2046
 6037SOL     OW19009   6.552   5.308   0.955  0.0639 -0.1905 -0.0235
 6037SOL    HW119010   6.453   5.301   0.970  0.3048  1.6597  3.0687
 6037SOL    HW219011   6.571   5.384   0.893 -0.3988  2.1613  2.5153
 6038SOL     OW19012   4.736   0.144   1.538  0.0094 -0.5542 -0.6015
 6038SOL    HW119013   4.777   0.053   1.546  1.0179 -0.0761 -0.0954
 6038SOL    HW219014   4.704   0.174   1.628 -0.8010 -0.6102 -0.8607
 6039SOL     OW19015   3.484   4.158   3.035  0.1501 -0.5134  0.1339
 6039SOL    HW119016   3.406   4.173   2.973  0.7585  0.9048 -0.3542
 6039SOL    HW219017   3.450   4.147   3.128 -0.6441  0.6732  0.0246
 6040SOL     OW19018   2.422   1.935   3.118  0.0776 -0.6660  0.4729
 6040SOL    HW119019   2.420   1.850   3.065 -0.1421  0.5492 -1.6146
 6040SOL    HW219020   2.515   1.953   3.149  0.7322 -0.2539 -1.5942
 6041SOL     OW19021   0.817   5.227   0.747 -0.8540  0.2331  0.1724
 6041SOL    HW119022   0.812   5.151   0.683  1.5668  0.1435  0.0027
 6041SOL    HW219023   0.745   5.218   0.816 -0.4199 -2.3928  0.3669
 6042SOL     OW19024   1.376   0.580   1.998 -0.3761  0.3572 -0.3600
 6042SOL    HW119025   1.345   0.492   1.961 -1.1914  0.6001 -0.2812
 6042SOL    HW219026   1.323   0.602   2.080  1.6602 -0.3551  1.2206
 6043SOL     OW19027   5.691   2.943   0.761  0.2231  0.4529 -0.2612
 6043SOL    HW119028   5.699   3.037   0.725 -0.2532 -0.0189 -1.6826
 6043SOL    HW219029   5.728   2.879   0.693  1.8691 -0.3197  1.2757
 6044SOL     OW19030   1.868   0.657   4.873 -0.4289  0.0022 -0.1907
 6044SOL    HW119031   1.888   0.560   4.890 -0.2850 -0.0525 -0.6404
 6044SOL    HW219032   1.818   0.665   4.787  0.3816  0.3960 -0.6427
 6045SOL     OW19033   2.561   1.248   0.621 -0.2647  0.3415 -0.3234
 6045SOL    HW119034   2.617   1.305   0.680  0.6539 -1.5193  0.7116
 6045SOL    HW219035   2.464   1.270   0.636  0.0457  1.3775  0.2839
 6046SOL     OW19036   5.239   1.257   4.641  0.0228  0.0076  0.2126
 6046SOL    HW119037   5.248   1.245   4.740 -0.1507  2.6638  0.6380
 6046SOL    HW219038   5.164   1.201   4.607 -1.0718  0.3490  1.9311
 6047SOL     OW19039   0.612   2.939   5.477 -0.4737 -0.3343  0.4774
 6047SOL    HW119040   0.708   2.939   5.505 -0.6647  0.8608  1.1753
 6047SOL    HW219041   0.602   2.884   5.394  1.0307  0.5507 -0.3292
 6048SOL     OW19042   6.041   4.857   3.774  0.2059 -0.2906  0.6212
 6048SOL    HW119043   6.108   4.786   3.751 -1.1411 -1.4819  0.2233
 6048SOL    HW219044   6.055   4.936   3.714  1.2969 -0.4744  0.6094
 6049SOL     OW19045   5.139   2.380   3.170  0.1846 -0.0865 -0.8943
 6049SOL    HW119046   5.120   2.283   3.157 -1.4552 -0.0720  1.0228
 6049SOL    HW219047   5.093   2.433   3.099 -1.2072 -0.5469 -0.3585
 6050SOL     OW19048   1.932   4.548   3.586 -0.0268  0.4424 -0.3567
 6050SOL    HW119049   1.905   4.540   3.682  0.7405  0.5777 -0.1180
 6050SOL    HW219050   1.957   4.458   3.552  2.5968  0.7596  0.4854
 6051SOL     OW19051   6.724   0.408   1.169  0.3781 -0.2190  0.6503
 6051SOL    HW119052   6.702   0.493   1.122  0.4721  0.2423  1.4293
 6051SOL    HW219053   6.773   0.347   1.106  1.6593  0.9040  0.5064
 6052SOL     OW19054   1.635   0.858   3.748 -0.0705 -0.2340  0.0686
 6052SOL    HW119055   1.546   0.818   3.771 -0.5905 -0.4592 -2.1236
 6052SOL    HW219056   1.698   0.845   3.825 -1.6967 -0.7291  1.3783
 6053SOL     OW19057   1.063   6.544   3.332  0.3960  0.4032 -0.4816
 6053SOL    HW119058   1.051   6.516   3.236  1.1661 -2.7530  0.2318
 6053SOL    HW219059   1.020   6.477   3.392  3.6752 -0.1536  1.4992
 6054SOL     OW19060   4.753   1.718   3.497 -0.2261  0.1478  0.1643
 6054SOL    HW119061   4.696   1.752   3.572  1.5315 -2.5792  3.0185
 6054SOL    HW219062   4.844   1.758   3.503  0.1096 -0.5548 -0.1200
 6055SOL     OW19063   4.566   6.527   1.130  0.1926 -0.1235  0.1419
 6055SOL    HW119064   4.477   6.485   1.146  1.2765 -1.7364  2.3881
 6055SOL    HW219065   4.572   6.614   1.179 -0.3764  0.4184 -0.6995
 6056SOL     OW19066   3.140   0.339   1.796 -0.0647 -0.0040  0.1198
 6056SOL    HW119067   3.084   0.398   1.737  1.6233 -1.0647 -2.7034
 6056SOL    HW219068   3.091   0.253   1.812 -0.2115 -0.0207 -0.3949
 6057SOL     OW19069   2.763   1.023   0.705 -0.2800 -0.0488 -0.2943
 6057SOL    HW119070   2.737   0.962   0.631 -0.0816 -0.5126  0.0170
 6057SOL    HW219071   2.705   1.105   0.702  0.9807  0.8467 -2.1366
 6058SOL     OW19072   3.384   6.455   4.165 -0.4087  0.0273  0.0986
 6058SOL    HW119073   3.379   6.529   4.097 -0.4250  0.9971  1.1344
 6058SOL    HW219074   3.387   6.367   4.117  1.9869  0.7458 -1.2383
 6059SOL     OW19075   0.241   4.075   4.706  0.3116  0.4335  0.0646
 6059SOL    HW119076   0.206   4.040   4.619  0.5545  0.0169  0.1306
 6059SOL    HW219077   0.334   4.110   4.693  0.7009 -0.4730  0.3425
 6060SOL     OW19078   6.087   3.723   1.150 -0.2171  0.3079 -0.3312
 6060SOL    HW119079   6.152   3.661   1.195  1.1732  1.1464 -1.1048
 6060SOL    HW219080   6.053   3.790   1.217 -0.6900 -0.4512  0.1969
 6061SOL     OW19081   6.204   1.700   4.406  0.0824 -0.2802 -0.0905
 6061SOL    HW119082   6.168   1.778   4.458  0.3966 -0.4206  0.3515
 6061SOL    HW219083   6.169   1.702   4.313 -2.5031 -1.3856  0.7644
 6062SOL     OW19084   1.728   2.598   4.397 -0.6189  0.0837 -0.0852
 6062SOL    HW119085   1.724   2.694   4.369  0.7238 -0.0088 -0.6835
 6062SOL    HW219086   1.718   2.540   4.316  0.6494 -0.2375 -0.0259
 6063SOL     OW19087   6.436   1.267   4.884  0.0444 -0.0982  0.2938
 6063SOL    HW119088   6.490   1.351   4.881 -1.8922  1.2336 -3.0856
 6063SOL    HW219089   6.340   1.289   4.869 -0.5746 -2.8966 -0.3544
 6064SOL     OW19090   6.970   1.400   5.329  0.0930 -0.6773  0.4690
 6064SOL    HW119091   7.061   1.418   5.364 -0.8664  1.3484  2.1435
 6064SOL    HW219092   6.902   1.451   5.383 -1.7537  0.5154 -2.6703
 6065SOL     OW19093   5.939   4.599   3.637 -0.4848  0.1739 -0.1349
 6065SOL    HW119094   5.950   4.573   3.734 -0.6806  0.5027 -0.0237
 6065SOL    HW219095   5.861   4.661   3.628 -0.9542 -0.4740 -0.6163
 6066SOL     OW19096   1.076   3.455   6.067 -0.1932  0.0789 -0.1606
 6066SOL    HW119097   1.080   3.470   5.968 -0.1098 -0.2692 -0.2123
 6066SOL    HW219098   1.161   3.413   6.097 -0.4699 -0.4047 -0.0454
 6067SOL     OW19099   5.628   6.532   2.061 -0.2634  0.1764  0.4256
 6067SOL    HW119100   5.599   6.436   2.065  1.0251 -0.3030 -0.8907
 6067SOL    HW219101   5.609   6.577   2.148 -1.8694 -0.9749  0.7077
 6068SOL     OW19102   3.709   0.819   0.787  0.3359 -0.4575  0.2941
 6068SOL    HW119103   3.791   0.861   0.749 -0.5042  0.5073 -0.5179
 6068SOL    HW219104   3.700   0.726   0.751 -0.7069  0.5863 -2.4526
 6069SOL     OW19105   2.131   6.007   4.331  0.5119 -0.1300 -0.0892
 6069SOL    HW119106   2.168   6.096   4.361  0.3459  0.0632 -0.4554
 6069SOL    HW219107   2.195   5.965   4.266  0.6812 -0.3669  0.2290
 6070SOL     OW19108   0.330   5.975   6.482  0.1957  0.0198  0.2820
 6070SOL    HW119109   0.365   6.023   6.563 -1.3726  1.2704  0.2844
 6070SOL    HW219110   0.369   5.884   6.477 -0.5517 -0.5598  3.1458
 6071SOL     OW19111   3.906   2.996   3.036 -0.1137  0.4291  0.1663
 6071SOL    HW119112   3.980   2.929   3.049  1.0981  1.5663 -0.5960
 6071SOL    HW219113   3.944   3.079   2.995 -2.0859  0.5388 -1.5347
 6072SOL     OW19114   4.042   1.280   4.478  0.0803 -1.3042  0.0566
 6072SOL    HW119115   3.995   1.311   4.561  0.7392 -0.2900  0.0691
 6072SOL    HW219116   4.013   1.336   4.401  0.8689 -0.9999 -0.0316
 6073SOL     OW19117   6.229   1.512   0.736  0.4860 -0.2679 -0.3878
 6073SOL    HW119118   6.237   1.605   0.772 -1.6475 -0.2639  0.2158
 6073SOL    HW219119   6.231   1.447   0.812 -1.6770 -0.4253 -0.4151
 6074SOL     OW19120   2.373   5.995   4.933  0.3130  0.7325 -0.0061
 6074SOL    HW119121   2.288   6.032   4.970  0.8270  1.9277  0.0194
 6074SOL    HW219122   2.443   5.994   5.004 -0.4906 -3.3778  0.9917
 6075SOL     OW19123   5.519   3.512   5.789 -0.2428  0.2853  0.0385
 6075SOL    HW119124   5.533   3.433   5.730 -2.6924  0.1268 -0.4512
 6075SOL    HW219125   5.603   3.566   5.793  0.9459 -1.3909 -1.0155
 6076SOL     OW19126   5.561   1.132   6.294 -0.0851  0.3046 -0.4114
 6076SOL    HW119127   5.553   1.185   6.379  0.4927  0.0763 -0.2152
 6076SOL    HW219128   5.608   1.187   6.225 -1.1872  0.7627 -0.8244
 6077SOL     OW19129   3.608   1.415   1.769  0.5998 -0.4215 -0.2659
 6077SOL    HW119130   3.701   1.381   1.755  0.7475  0.6965 -2.4885
 6077SOL    HW219131   3.600   1.507   1.731 -1.9744 -1.3360 -2.2799
 6078SOL     OW19132   4.770   6.142   0.611 -0.2993 -0.1192 -0.1885
 6078SOL    HW119133   4.794   6.179   0.521 -0.3146  0.0478 -0.1235
 6078SOL    HW219134   4.671   6.146   0.623 -0.4526 -1.4860 -0.7598
 6079SOL     OW19135   5.723   6.569   4.023 -0.1222  0.2009 -0.2216
 6079SOL    HW119136   5.795   6.639   4.032 -1.5844  1.4834  2.4785
 6079SOL    HW219137   5.704   6.554   3.926  1.1096  2.6541 -0.9219
 6080SOL     OW19138   4.245   4.822   5.973  0.2376  0.2998  0.1322
 6080SOL    HW119139   4.203   4.743   5.929  2.1066 -0.6995  0.0232
 6080SOL    HW219140   4.248   4.899   5.908  2.6828 -1.0576 -1.5282
 6081SOL     OW19141   3.691   5.523   1.175  0.2484 -0.2081  0.2856
 6081SOL    HW119142   3.593   5.542   1.166 -0.1698 -2.4891 -0.7791
 6081SOL    HW219143   3.732   5.516   1.084  1.0119 -1.0218  0.6784
 6082SOL     OW19144   5.866   5.342   6.833  0.2500 -0.0168  0.1163
 6082SOL    HW119145   5.800   5.276   6.869  0.5658  0.0992  0.9301
 6082SOL    HW219146   5.817   5.416   6.787 -0.1537 -0.3035  0.0756
 6083SOL     OW19147   2.474   2.261   0.583 -0.1681  0.0359 -0.0301
 6083SOL    HW119148   2.401   2.310   0.631 -0.4659 -0.0715 -0.3645
 6083SOL    HW219149   2.546   2.236   0.648 -0.9706 -0.8878  0.5456
 6084SOL     OW19150   2.944   5.554   5.824 -0.1473  0.0382  0.1111
 6084SOL    HW119151   3.038   5.555   5.859  0.0273 -0.3002 -0.3335
 6084SOL    HW219152   2.904   5.464   5.839 -1.4647  0.9826  2.9975
 6085SOL     OW19153   6.139   5.141   1.389 -0.9127 -0.2163  0.1798
 6085SOL    HW119154   6.159   5.165   1.294  0.2804  0.1315  0.5034
 6085SOL    HW219155   6.069   5.203   1.425 -0.0338  0.8739  0.0815
 6086SOL     OW19156   1.691   0.703   5.534 -0.0318  0.1634 -0.2237
 6086SOL    HW119157   1.636   0.782   5.508 -1.0946 -0.0428  1.2221
 6086SOL    HW219158   1.761   0.731   5.600 -1.5786 -0.3219  1.7264
 6087SOL     OW19159   3.611   2.101   2.883 -0.0591 -0.3451 -0.2562
 6087SOL    HW119160   3.687   2.036   2.895 -0.8340 -0.9496  1.7873
 6087SOL    HW219161   3.526   2.057   2.911 -0.8430  1.0824 -0.3332
 6088SOL     OW19162   1.650   5.425   6.739  0.6844 -0.3722 -0.1185
 6088SOL    HW119163   1.732   5.478   6.717  2.2663 -1.8423  1.8028
 6088SOL    HW219164   1.590   5.421   6.659  2.3822  0.9209 -1.5378
 6089SOL     OW19165   2.945   1.708   5.511 -0.0824  0.4297  0.0682
 6089SOL    HW119166   3.011   1.777   5.540  0.6263 -0.2254  0.0572
 6089SOL    HW219167   2.863   1.714   5.567  0.1756  0.9620  0.3905
 6090SOL     OW19168   1.514   2.499   4.547 -0.7425 -0.1225 -0.1635
 6090SOL    HW119169   1.512   2.403   4.519 -2.2292 -0.6363  1.5512
 6090SOL    HW219170   1.596   2.543   4.509 -0.2683 -1.9300 -1.3501
 6091SOL     OW19171   1.451   0.074   0.584  0.0236 -0.2706  0.0791
 6091SOL    HW119172   1.385   0.051   0.656  0.0326 -0.2309  0.1000
 6091SOL    HW219173   1.468  -0.007   0.527  0.2819 -0.3976  0.3350
 6092SOL     OW19174   3.765   4.941   1.964 -0.0566  0.4586  0.1898
 6092SOL    HW119175   3.841   4.879   1.942  0.4602  1.6006 -1.5247
 6092SOL    HW219176   3.678   4.893   1.954  0.3892 -0.5308  0.9435
 6093SOL     OW19177   6.534   6.443   6.450 -0.4224 -0.1069 -0.3468
 6093SOL    HW119178   6.616   6.385   6.450 -0.6304 -0.4193  0.7021
 6093SOL    HW219179   6.464   6.401   6.392  0.1098  0.1220 -1.1897
 6094SOL     OW19180   0.234   3.315   4.903  0.3071  0.0102 -0.5099
 6094SOL    HW119181   0.259   3.219   4.888  0.9661  0.3463 -1.6727
 6094SOL    HW219182   0.316   3.368   4.922 -0.0666  0.3334  0.2123
 6095SOL     OW19183   5.744   1.802   1.198 -0.1591  0.3578  0.2095
 6095SOL    HW119184   5.762   1.853   1.114 -1.6234 -0.5990 -0.7378
 6095SOL    HW219185   5.703   1.713   1.175  0.8264 -0.5800  1.8813
 6096SOL     OW19186   6.976   0.167   3.098 -0.4454 -0.1284 -0.4166
 6096SOL    HW119187   7.052   0.107   3.073 -0.4216  0.1353 -1.0022
 6096SOL    HW219188   6.894   0.140   3.047 -0.0050  1.4042 -2.0782
 6097SOL     OW19189   1.057   1.859   1.646 -0.6867 -0.1362  0.1164
 6097SOL    HW119190   1.001   1.933   1.684  1.6322  0.6426  2.3092
 6097SOL    HW219191   1.102   1.809   1.721  0.8828 -1.2387 -1.4845
 6098SOL     OW19192   2.285   2.833   1.851  0.0277 -0.2270  0.5103
 6098SOL    HW119193   2.348   2.756   1.856  0.6026  0.3279  2.4777
 6098SOL    HW219194   2.214   2.823   1.920  0.5348  1.3487  1.3037
 6099SOL     OW19195   2.679   0.605   1.907 -0.1378  0.0309 -0.0339
 6099SOL    HW119196   2.659   0.679   1.843  0.6667 -1.0802 -1.6388
 6099SOL    HW219197   2.777   0.604   1.927 -0.1675 -0.5249  0.0949
 6100SOL     OW19198   1.257   5.453   0.951  0.1885  0.6005  0.4864
 6100SOL    HW119199   1.173   5.399   0.958 -0.7716  1.9824  0.0522
 6100SOL    HW219200   1.278   5.470   0.855  1.9280 -1.1294  0.5147
 6101SOL     OW19201   6.652   3.515   2.299  0.2324 -0.0172  0.2595
 6101SOL    HW119202   6.681   3.515   2.395  0.2860 -1.6208  0.2765
 6101SOL    HW219203   6.607   3.428   2.279  1.5966 -0.3456 -1.5685
 6102SOL     OW19204   3.884   6.535   3.754 -0.2853 -0.2228  0.1671
 6102SOL    HW119205   3.909   6.604   3.687 -0.0539 -1.8180 -1.4788
 6102SOL    HW219206   3.960   6.520   3.817 -0.2680  0.8594  0.4105
 6103SOL     OW19207   0.474   3.311   5.191 -0.5435 -0.0968  0.4463
 6103SOL    HW119208   0.511   3.394   5.233  1.4348 -0.8207  0.2696
 6103SOL    HW219209   0.445   3.330   5.097 -1.4797  0.6943  0.8812
 6104SOL     OW19210   1.513   3.985   3.158 -0.1248 -0.0234  0.4541
 6104SOL    HW119211   1.466   4.043   3.090  0.2227  0.3357  0.5160
 6104SOL    HW219212   1.611   3.987   3.141 -0.0276  0.1273  1.0101
 6105SOL     OW19213   3.718   6.532   5.013 -0.7901 -0.2168  0.1968
 6105SOL    HW119214   3.642   6.478   4.978  0.4751 -1.1287 -1.3004
 6105SOL    HW219215   3.739   6.606   4.948  0.6807 -1.0554 -0.3376
 6106SOL     OW19216   3.403   5.510   2.785 -1.1473  0.7085  0.3837
 6106SOL    HW119217   3.471   5.534   2.716 -1.0933  0.7743  0.4594
 6106SOL    HW219218   3.428   5.552   2.872 -0.5517 -0.3735  0.7510
 6107SOL     OW19219   1.118   2.062   4.074  0.4518 -0.0729 -0.0593
 6107SOL    HW119220   1.210   2.100   4.064  0.4090 -0.2573 -1.4079
 6107SOL    HW219221   1.124   1.964   4.090  0.4944 -0.3395 -1.5531
 6108SOL     OW19222   1.160   4.274   6.820  0.3188 -0.4244 -1.1090
 6108SOL    HW119223   1.129   4.281   6.725  2.3810  0.4946 -1.7653
 6108SOL    HW219224   1.198   4.183   6.835  1.4054 -0.0830 -1.6618
 6109SOL     OW19225   4.796   6.261   1.035  0.2363 -0.0047 -0.0337
 6109SOL    HW119226   4.723   6.227   0.976  0.4692 -0.3798 -0.1086
 6109SOL    HW219227   4.883   6.218   1.009  0.6295  1.0121 -0.4522
 6110SOL     OW19228   5.198   3.108   4.461  0.1306  0.2837 -0.2505
 6110SOL    HW119229   5.268   3.179   4.463  0.0860  0.3211  0.5914
 6110SOL    HW219230   5.225   3.032   4.520 -0.9657  0.7340  0.8904
 6111SOL     OW19231   6.350   6.184   5.366 -0.1714  0.6620  0.3331
 6111SOL    HW119232   6.338   6.197   5.268  0.6579 -1.7646 -0.1658
 6111SOL    HW219233   6.442   6.149   5.384  0.0364  1.9838  2.1214
 6112SOL     OW19234   0.002   3.194   4.187 -0.2187  0.2434 -0.7113
 6112SOL    HW119235  -0.050   3.264   4.236 -1.2914  0.4988 -2.1254
 6112SOL    HW219236  -0.032   3.103   4.212  1.0456  0.1984  0.9831
 6113SOL     OW19237   0.941   3.766   4.844  0.1822  0.4582 -0.3800
 6113SOL    HW119238   1.020   3.784   4.902  0.4605 -1.5055 -0.0729
 6113SOL    HW219239   0.914   3.850   4.797  0.8567  1.7607  1.4456
 6114SOL     OW19240   0.959   3.197   4.086  0.5438 -0.7322 -0.5110
 6114SOL    HW119241   1.050   3.177   4.049  0.0740 -2.2561 -0.9306
 6114SOL    HW219242   0.942   3.138   4.165  0.1301 -0.0545 -0.0857
 6115SOL     OW19243   3.327   6.284   1.993 -0.0399 -0.0501 -0.6991
 6115SOL    HW119244   3.261   6.222   2.037 -0.6256  1.3816  0.5357
 6115SOL    HW219245   3.420   6.258   2.019 -0.3202  0.0289  0.4338
 6116SOL     OW19246   5.463   2.608   6.548  0.3919  0.1057 -1.1144
 6116SOL    HW119247   5.557   2.625   6.520  0.5429  2.5384  0.5863
 6116SOL    HW219248   5.454   2.623   6.646 -1.9676  1.0126 -1.4107
 6117SOL     OW19249   5.464   0.900   4.717  0.0213  0.3055  0.8995
 6117SOL    HW119250   5.378   0.852   4.735  1.1049 -1.2063  2.2511
 6117SOL    HW219251   5.463   0.935   4.623 -0.3799 -3.4386 -0.6578
 6118SOL     OW19252   3.041   1.945   6.125 -0.1435 -0.3671  0.6486
 6118SOL    HW119253   3.036   2.028   6.181  0.1802  0.4546 -0.5076
 6118SOL    HW219254   3.089   1.874   6.176 -1.5386 -0.2962  2.1605
 6119SOL     OW19255   3.916   2.883   0.347  0.1135 -0.2861 -0.3110
 6119SOL    HW119256   3.849   2.809   0.353  0.7812 -0.8577  0.2537
 6119SOL    HW219257   3.953   2.887   0.254  0.7239 -1.2641 -0.1286
 6120SOL     OW19258   5.864   2.944   4.074  0.4914  0.0043 -0.4898
 6120SOL    HW119259   5.822   3.035   4.073 -0.7345 -0.5289 -2.6461
 6120SOL    HW219260   5.961   2.952   4.096  0.8002  2.0272 -2.3494
 6121SOL     OW19261   2.871   2.962   1.797 -0.0593 -0.5702 -0.3020
 6121SOL    HW119262   2.934   2.918   1.861 -0.7620 -2.0882 -0.6051
 6121SOL    HW219263   2.920   3.030   1.743  0.2185  2.2598  3.1089
 6122SOL     OW19264   3.105   2.980   5.440 -0.6281  0.3792 -0.5078
 6122SOL    HW119265   3.145   3.007   5.353 -1.4620 -0.0837 -1.0383
 6122SOL    HW219266   3.010   3.011   5.445 -0.4206  0.9443  0.4999
 6123SOL     OW19267   1.446   6.854   4.942 -0.1713  0.3608  0.2784
 6123SOL    HW119268   1.524   6.803   4.976  0.4244  1.9070  1.3525
 6123SOL    HW219269   1.461   6.879   4.846  0.4149  0.2103  0.3304
 6124SOL     OW19270   1.869   5.816   3.907 -0.1511  0.3173  0.3874
 6124SOL    HW119271   1.867   5.722   3.940  2.5828  0.9889  2.9529
 6124SOL    HW219272   1.910   5.818   3.815  0.9521 -0.9413  0.8105
 6125SOL     OW19273   0.240   1.735   0.210  0.1572 -0.1655  0.0277
 6125SOL    HW119274   0.317   1.710   0.269 -0.1377 -0.0441  0.4687
 6125SOL    HW219275   0.261   1.820   0.162  1.9374 -2.0602 -2.8754
 6126SOL     OW19276   3.634   3.294   6.216  0.0413 -0.0770 -0.1684
 6126SOL    HW119277   3.693   3.281   6.296  1.2949 -0.4661 -1.1204
 6126SOL    HW219278   3.691   3.297   6.134 -1.1300  1.2795 -0.9638
 6127SOL     OW19279   4.444   3.754   0.509 -0.1442  0.1665  0.3830
 6127SOL    HW119280   4.366   3.794   0.557 -0.4692 -1.0747  0.9434
 6127SOL    HW219281   4.490   3.824   0.455 -1.1454  1.0997  0.7078
 6128SOL     OW19282   3.055   1.461   5.036 -0.2344 -0.3427  0.5268
 6128SOL    HW119283   3.081   1.557   5.040  0.3955 -0.5317  1.2638
 6128SOL    HW219284   2.956   1.453   5.024 -0.4877  0.3934  1.9525
 6129SOL     OW19285   4.669   2.401   6.874  0.0956  0.1796  0.1808
 6129SOL    HW119286   4.702   2.342   6.801  0.4978  2.5794 -1.7104
 6129SOL    HW219287   4.747   2.434   6.928  0.0625  0.5002  0.0306
 6130SOL     OW19288   2.558   2.873   5.428  0.0815 -0.0205 -0.1333
 6130SOL    HW119289   2.655   2.895   5.444 -0.0358  2.0979 -1.7850
 6130SOL    HW219290   2.533   2.900   5.334 -2.4486  0.8902  0.7142
 6131SOL     OW19291   1.783   6.438   5.618 -0.1097 -0.1874 -0.3222
 6131SOL    HW119292   1.770   6.504   5.692 -1.0738 -0.5984 -0.1032
 6131SOL    HW219293   1.764   6.483   5.531  0.5103  0.1616 -0.2768
 6132SOL     OW19294   6.656   0.907   1.818 -0.2941 -0.3010 -0.3831
 6132SOL    HW119295   6.673   0.826   1.875 -2.6350 -1.4945 -1.2241
 6132SOL    HW219296   6.709   0.900   1.734  0.4868 -0.3141  0.1053
 6133SOL     OW19297   2.576   6.416   1.545 -0.1249  0.0363  0.0971
 6133SOL    HW119298   2.493   6.402   1.599 -0.9043 -1.1464 -1.3066
 6133SOL    HW219299   2.561   6.380   1.452  1.3310  1.5120 -0.7500
 6134SOL     OW19300   3.946   5.400   5.131 -0.0935 -0.0579  0.2564
 6134SOL    HW119301   3.980   5.344   5.055  2.0451  1.6510 -0.1343
 6134SOL    HW219302   3.993   5.374   5.215  2.1381  2.0586 -0.2156
 6135SOL     OW19303   5.443   6.006   6.439  0.2898  0.5568 -0.6239
 6135SOL    HW119304   5.470   5.929   6.381 -0.5245  0.7380 -1.2639
 6135SOL    HW219305   5.367   6.054   6.396 -0.5635  0.4836  0.7490
 6136SOL     OW19306   3.439   2.568   0.429 -0.2221  0.5914  0.5607
 6136SOL    HW119307   3.451   2.649   0.372  0.5471  0.2971  0.2863
 6136SOL    HW219308   3.384   2.591   0.509 -3.0638  0.5846 -1.2304
 6137SOL     OW19309   5.568   2.454   4.048 -0.3444  0.2197  0.3389
 6137SOL    HW119310   5.476   2.492   4.045 -0.5372 -0.2323  0.5250
 6137SOL    HW219311   5.631   2.517   4.001 -0.7994  0.3617 -0.0950
 6138SOL     OW19312   1.190   1.953   5.135  0.0050 -0.0990 -0.3909
 6138SOL    HW119313   1.160   2.034   5.186  1.3743 -0.8913  1.8077
 6138SOL    HW219314   1.110   1.899   5.108 -1.0163  2.3607 -2.7508
 6139SOL     OW19315   0.853   3.257   6.020 -0.8270  0.0135  0.7900
 6139SOL    HW119316   0.924   3.295   6.078 -1.6597  0.8670  1.2908
 6139SOL    HW219317   0.885   3.252   5.925  0.2419 -0.5954  1.1747
 6140SOL     OW19318   2.906   1.183   2.843 -0.0741 -0.2724  0.6493
 6140SOL    HW119319   2.999   1.190   2.805  0.0339 -0.8279  0.8031
 6140SOL    HW219320   2.845   1.145   2.774 -0.3176  0.5979  0.3602
 6141SOL     OW19321   5.369   6.962   4.378  0.2166  0.0026 -0.6005
 6141SOL    HW119322   5.414   7.017   4.448  0.2118 -2.8117  1.8592
 6141SOL    HW219323   5.437   6.906   4.331 -0.1541 -0.8193 -0.1877
 6142SOL     OW19324   1.436   0.738   1.774 -0.2310  0.1136  0.0507
 6142SOL    HW119325   1.426   0.695   1.864 -1.3551  0.3616  0.0561
 6142SOL    HW219326   1.346   0.753   1.734  0.2622 -0.5030 -1.3718
 6143SOL     OW19327   5.903   6.851   2.264 -0.0307 -0.0693  0.2905
 6143SOL    HW119328   5.951   6.823   2.181  1.3718  0.9548  0.7169
 6143SOL    HW219329   5.823   6.792   2.278  0.0682 -0.6575 -1.4250
 6144SOL     OW19330   3.747   4.159   5.699 -0.4204  0.4786 -0.2809
 6144SOL    HW119331   3.662   4.113   5.675  0.3343 -1.8550  1.1701
 6144SOL    HW219332   3.798   4.103   5.765  0.1702  3.8828  2.4456
 6145SOL     OW19333   4.696   4.730   1.014 -0.3699 -0.1216 -0.1027
 6145SOL    HW119334   4.781   4.776   1.038  0.3552 -0.6552 -1.5282
 6145SOL    HW219335   4.637   4.793   0.963 -0.4539 -0.0098  0.1340
 6146SOL     OW19336   2.490   1.776   0.819 -0.2384 -0.4128 -0.5901
 6146SOL    HW119337   2.409   1.793   0.876 -0.6659 -1.6554 -0.8005
 6146SOL    HW219338   2.481   1.823   0.732 -1.7190 -2.1479 -1.4407
 6147SOL     OW19339   3.903   5.637   1.604 -0.2265  0.0577  0.0931
 6147SOL    HW119340   3.880   5.542   1.626  0.4272  0.1676  1.3534
 6147SOL    HW219341   3.926   5.644   1.507 -1.5055 -0.8172 -0.2988
 6148SOL     OW19342   4.043   5.092   6.478 -0.2746  0.4517  0.8125
 6148SOL    HW119343   4.043   5.093   6.378 -0.5328 -0.6368  0.7907
 6148SOL    HW219344   3.965   5.040   6.511  0.7357 -0.6568  1.5484
 6149SOL     OW19345   1.701   0.580   6.215 -0.1733  0.0106 -0.5835
 6149SOL    HW119346   1.606   0.583   6.246 -0.3316  0.4551 -1.0986
 6149SOL    HW219347   1.723   0.487   6.185 -0.8232  0.1639 -1.5969
 6150SOL     OW19348   2.530   4.194   6.149  0.1525 -0.0591 -0.0532
 6150SOL    HW119349   2.539   4.121   6.080  2.8410 -2.1493  2.2678
 6150SOL    HW219350   2.433   4.211   6.166 -0.5828 -1.9594 -1.8403
 6151SOL     OW19351   6.051   4.397   6.390 -0.3589 -0.5136 -0.3998
 6151SOL    HW119352   5.966   4.449   6.386 -0.5992 -0.6458  1.7418
 6151SOL    HW219353   6.030   4.299   6.380 -0.3297 -0.4600 -0.9686
 6152SOL     OW19354   6.249   2.951   5.530  0.2107  0.8171 -0.4525
 6152SOL    HW119355   6.212   2.860   5.551 -0.3905  0.6809 -1.9301
 6152SOL    HW219356   6.179   3.019   5.548  0.0604  0.8007 -0.9420
 6153SOL     OW19357   1.668   4.620   4.769 -0.2159 -0.3432  0.3873
 6153SOL    HW119358   1.761   4.616   4.732  0.8496  0.0987  2.8156
 6153SOL    HW219359   1.628   4.710   4.749  0.3011 -0.1405  0.2551
 6154SOL     OW19360   3.456   2.595   0.825  0.5392 -0.4680 -0.0037
 6154SOL    HW119361   3.479   2.630   0.916  1.0430  1.4402 -0.8159
 6154SOL    HW219362   3.405   2.510   0.835 -0.1670  0.1191  2.0968
 6155SOL     OW19363   0.728   5.475   3.154 -0.0729 -0.3994 -0.2747
 6155SOL    HW119364   0.822   5.445   3.169  0.0741  0.4542  0.5402
 6155SOL    HW219365   0.696   5.527   3.233 -1.0432 -0.2066 -0.7811
 6156SOL     OW19366   4.596   2.216   6.087  0.1687 -1.2595 -0.6749
 6156SOL    HW119367   4.567   2.158   6.164  1.5960  0.1938  1.0488
 6156SOL    HW219368   4.690   2.193   6.062 -0.0423 -1.2264 -1.5206
 6157SOL     OW19369   3.495   5.903   3.819 -0.4025 -0.2485  0.2005
 6157SOL    HW119370   3.478   5.851   3.735  0.8024  2.5517 -1.9143
 6157SOL    HW219371   3.413   5.953   3.846 -0.5461 -0.4972  0.2271
 6158SOL     OW19372   3.570   2.640   5.668 -0.1823  0.4482 -0.2286
 6158SOL    HW119373   3.576   2.738   5.688  2.4512  0.1670  0.7615
 6158SOL    HW219374   3.651   2.594   5.705 -1.3214 -2.1073 -0.7462
 6159SOL     OW19375   3.747   1.172   4.912 -0.5255 -0.6610 -0.3401
 6159SOL    HW119376   3.724   1.269   4.909  0.5335 -0.4017 -0.8649
 6159SOL    HW219377   3.781   1.149   5.004  0.0269 -0.3241 -0.4529
 6160SOL     OW19378   2.828   2.324   3.227  0.6557  0.6944  0.2647
 6160SOL    HW119379   2.769   2.395   3.265 -1.4358 -0.1300 -1.2201
 6160SOL    HW219380   2.816   2.321   3.127  1.1756 -1.2809  0.2150
 6161SOL     OW19381   5.557   3.479   3.887 -0.1067  0.0945 -0.2532
 6161SOL    HW119382   5.525   3.446   3.799 -1.8775 -3.4911  1.5413
 6161SOL    HW219383   5.479   3.495   3.948  1.0405  2.8080  0.6728
 6162SOL     OW19384   5.460   5.052   3.256 -0.4725 -0.1373 -0.0755
 6162SOL    HW119385   5.514   5.113   3.198 -0.7212 -0.2092 -0.3867
 6162SOL    HW219386   5.474   4.957   3.229 -1.3102 -0.1110 -0.6472
 6163SOL     OW19387   1.172   4.588   0.343  0.1791 -0.3050 -0.6721
 6163SOL    HW119388   1.266   4.602   0.374  0.6886 -2.5992 -1.0388
 6163SOL    HW219389   1.172   4.555   0.249 -1.1097  1.2174 -1.2612
 6164SOL     OW19390   6.275   0.681   3.842 -0.0843 -0.2432 -0.4638
 6164SOL    HW119391   6.365   0.716   3.867 -1.1078  1.5642  0.9365
 6164SOL    HW219392   6.284   0.588   3.807  2.3653  0.0890 -0.8884
 6165SOL     OW19393   1.638   2.209   5.836  0.3079  0.2088  0.3406
 6165SOL    HW119394   1.618   2.173   5.745 -1.0146  0.9135  0.3200
 6165SOL    HW219395   1.621   2.308   5.837  1.6469  0.4637  1.0001
 6166SOL     OW19396   1.589   3.661   1.869  0.3312  0.1373  0.0965
 6166SOL    HW119397   1.682   3.643   1.836  0.1420  3.2350 -2.6101
 6166SOL    HW219398   1.585   3.751   1.912 -1.1030 -0.7266  1.9222
 6167SOL     OW19399   3.970   1.846   3.613 -0.4670 -0.0288  0.3937
 6167SOL    HW119400   4.051   1.905   3.606 -0.9221  0.6065  0.3601
 6167SOL    HW219401   3.953   1.826   3.710  0.0780 -0.6649  0.3627
 6168SOL     OW19402   2.552   1.219   5.205 -0.1986  0.2510 -0.0011
 6168SOL    HW119403   2.602   1.147   5.156 -0.3007  0.4466 -0.4001
 6168SOL    HW219404   2.543   1.299   5.146  0.9703  1.0446  0.8518
 6169SOL     OW19405   3.570   6.599   1.660 -0.5668  0.3841  0.4450
 6169SOL    HW119406   3.637   6.673   1.661 -0.9015  0.6939  1.1573
 6169SOL    HW219407   3.614   6.514   1.690 -0.4181  0.5183  0.6088
 6170SOL     OW19408   4.035   2.398   5.967  0.4126 -0.4063  0.1315
 6170SOL    HW119409   3.984   2.446   6.038  1.0309 -0.4466  0.6204
 6170SOL    HW219410   3.974   2.338   5.916 -0.2499  0.4700 -0.1080
 6171SOL     OW19411   5.350   4.241   6.126 -0.0661  0.4357  0.0956
 6171SOL    HW119412   5.294   4.322   6.147 -0.5253 -0.0181  0.6730
 6171SOL    HW219413   5.425   4.267   6.066 -0.4691  1.2063 -0.0902
 6172SOL     OW19414   2.445   2.615   4.443 -0.3745  0.6302  0.1233
 6172SOL    HW119415   2.509   2.544   4.474  0.5389  1.1015 -0.6038
 6172SOL    HW219416   2.353   2.592   4.472 -0.4449 -1.9570 -1.8242
 6173SOL     OW19417   2.161   4.387   5.447  0.0873  0.0870 -0.4021
 6173SOL    HW119418   2.240   4.332   5.471  0.5858  0.6852 -0.6621
 6173SOL    HW219419   2.175   4.431   5.358 -0.8616 -0.4225 -0.8248
 6174SOL     OW19420   2.747   6.132   2.158  1.1852  0.1301  0.5349
 6174SOL    HW119421   2.678   6.204   2.169  0.1268 -0.7970  0.1909
 6174SOL    HW219422   2.796   6.120   2.244  0.6041  0.4993  0.9281
 6175SOL     OW19423   5.689   6.863   4.944  0.8705 -0.2387 -0.0151
 6175SOL    HW119424   5.610   6.854   5.005  0.1252  0.1555 -0.8970
 6175SOL    HW219425   5.767   6.896   4.996  0.5280 -0.8619  0.9270
 6176SOL     OW19426   6.069   2.934   3.799  0.1928 -0.0933 -0.0915
 6176SOL    HW119427   6.130   2.883   3.738  0.0148 -1.3771  0.7736
 6176SOL    HW219428   6.071   2.893   3.890 -0.3023  1.1981  0.5231
 6177SOL     OW19429   0.804   4.705   1.968  0.5912 -0.1721 -0.4157
 6177SOL    HW119430   0.763   4.626   1.922 -0.8939  0.4588 -0.2165
 6177SOL    HW219431   0.865   4.753   1.904  0.1894 -0.5082 -1.0596
 6178SOL     OW19432   5.322   5.522   6.361  0.2792 -0.1610  0.4876
 6178SOL    HW119433   5.337   5.556   6.454 -0.9570 -0.9866  1.0099
 6178SOL    HW219434   5.274   5.591   6.308  3.4140  1.4789 -0.4486
 6179SOL     OW19435   2.702   1.007   2.727 -0.6304  0.3674 -0.4330
 6179SOL    HW119436   2.758   0.952   2.666  0.4309  1.2114 -0.2616
 6179SOL    HW219437   2.718   0.979   2.822  1.3791  2.1167 -0.1635
 6180SOL     OW19438   4.483   0.008   1.357  0.1683 -0.1748 -0.3116
 6180SOL    HW119439   4.563   0.052   1.316  0.6258 -0.1708  0.5732
 6180SOL    HW219440   4.457   0.055   1.441  0.4406 -1.3476  0.4542
 6181SOL     OW19441   5.637   2.322   0.175  0.4150 -0.2650  0.7059
 6181SOL    HW119442   5.549   2.356   0.209  0.2186 -1.1922  1.1608
 6181SOL    HW219443   5.661   2.238   0.223  0.6659 -1.0288 -0.7056
 6182SOL     OW19444   2.041   5.771   5.563 -0.4162 -0.8650 -0.2199
 6182SOL    HW119445   1.961   5.820   5.597 -0.3291 -0.2217 -0.9017
 6182SOL    HW219446   2.124   5.821   5.589 -0.3255 -0.6513 -0.8966
 6183SOL     OW19447   6.118   1.451   6.993  0.1952  0.2686 -0.5513
 6183SOL    HW119448   6.154   1.492   6.910  0.2393  1.8853  0.2246
 6183SOL    HW219449   6.020   1.433   6.982  0.2941  0.0614 -1.0989
 6184SOL     OW19450   2.943   0.436   1.306 -0.0984 -0.2662 -0.0987
 6184SOL    HW119451   2.991   0.361   1.261 -1.1855 -1.1463  0.1747
 6184SOL    HW219452   2.911   0.501   1.237  0.5854 -0.2008 -0.3615
 6185SOL     OW19453   2.893   5.114   6.889 -0.1003 -0.1065 -0.5174
 6185SOL    HW119454   2.978   5.065   6.868 -0.3142 -1.2307  1.0000
 6185SOL    HW219455   2.911   5.212   6.893  1.9144 -0.4476  2.6624
 6186SOL     OW19456   4.630   4.352   3.253 -0.5867 -0.1437 -0.1226
 6186SOL    HW119457   4.651   4.379   3.347  0.0023 -0.4791 -0.1519
 6186SOL    HW219458   4.676   4.265   3.233  0.3872  0.5937 -1.1474
 6187SOL     OW19459   1.276   2.763   3.940  0.1599 -0.2526 -0.0277
 6187SOL    HW119460   1.301   2.797   3.850 -2.4872 -3.7146 -2.3734
 6187SOL    HW219461   1.299   2.666   3.947 -1.6945 -0.6280  2.1568
 6188SOL     OW19462   0.587   5.309   1.434 -0.5519 -0.1046  0.5868
 6188SOL    HW119463   0.681   5.337   1.414  0.2560 -1.7117  1.9131
 6188SOL    HW219464   0.567   5.223   1.387 -1.8874  0.9117 -0.8208
 6189SOL     OW19465   4.300   3.335   6.160 -0.1678 -0.1472 -0.8310
 6189SOL    HW119466   4.242   3.361   6.238 -1.9445  0.0233 -2.1664
 6189SOL    HW219467   4.347   3.249   6.181 -0.7020 -0.1670  0.3762
 6190SOL     OW19468   6.861   4.927   2.461  0.3507 -0.2967  0.6834
 6190SOL    HW119469   6.810   4.857   2.511 -1.4670 -0.0017 -0.6819
 6190SOL    HW219470   6.805   5.009   2.451  1.1982  0.1522 -0.6133
 6191SOL     OW19471   2.469   0.914   3.417  0.4523 -0.2514  0.1256
 6191SOL    HW119472   2.500   0.997   3.463  1.8576  0.1318 -1.4252
 6191SOL    HW219473   2.373   0.924   3.391  0.6620  0.9916 -0.2273
 6192SOL     OW19474   1.075   3.068   6.816 -0.0270  0.1186  0.1151
 6192SOL    HW119475   1.087   3.167   6.828  0.1314  0.4373 -2.1142
 6192SOL    HW219476   1.016   3.052   6.737  0.0011 -1.5792  0.4099
 6193SOL     OW19477   2.190   5.236   3.534  0.0837 -0.3052  0.4751
 6193SOL    HW119478   2.208   5.245   3.632 -0.1882 -0.4388  0.5373
 6193SOL    HW219479   2.160   5.324   3.498 -1.2964 -0.6181  0.8185
 6194SOL     OW19480   0.096   2.250   0.265  0.1534  0.0920 -0.1425
 6194SOL    HW119481   0.184   2.254   0.313 -0.3213  2.3459  0.6784
 6194SOL    HW219482   0.047   2.167   0.291  1.2814 -0.3181  0.7669
 6195SOL     OW19483   2.571   3.920   5.340  0.1764 -0.6701  0.3394
 6195SOL    HW119484   2.531   3.955   5.425 -0.1092 -0.2347  0.0322
 6195SOL    HW219485   2.511   3.943   5.263  0.4704 -0.9911  0.0117
 6196SOL     OW19486   6.942   4.874   0.007  0.2196  0.1897  0.2281
 6196SOL    HW119487   6.875   4.803   0.028  0.7973 -0.4642 -0.1100
 6196SOL    HW219488   7.029   4.831  -0.020  0.0615  0.9867 -1.7243
 6197SOL     OW19489   3.364   5.055   3.511  0.5863 -0.3453 -0.7562
 6197SOL    HW119490   3.437   5.046   3.579 -0.3958  1.6722  0.6521
 6197SOL    HW219491   3.381   5.135   3.454 -0.1278 -0.2868 -0.8988
 6198SOL     OW19492   5.831   6.617   2.677 -0.3500  0.0416 -0.1443
 6198SOL    HW119493   5.836   6.556   2.756 -0.2363  0.3852  0.1138
 6198SOL    HW219494   5.739   6.656   2.671 -0.5159 -0.3968 -0.4925
 6199SOL     OW19495   3.770   3.789   4.872  0.4055  0.2087  0.1881
 6199SOL    HW119496   3.790   3.886   4.881 -0.4491  0.4055  0.0778
 6199SOL    HW219497   3.776   3.762   4.776 -1.4914  0.6673 -0.1026
 6200SOL     OW19498   4.960   6.390   4.472  0.1739 -0.3647  0.4957
 6200SOL    HW119499   5.045   6.433   4.504 -0.0258 -0.5315  1.2635
 6200SOL    HW219500   4.917   6.449   4.404 -0.2065  0.7896  1.6829
 6201SOL     OW19501   6.466   5.934   1.382  0.0448 -0.4121 -0.4055
 6201SOL    HW119502   6.449   5.836   1.394  0.0472 -0.4288 -0.5347
 6201SOL    HW219503   6.380   5.981   1.360  0.1499 -0.4844 -0.9809
 6202SOL     OW19504   6.834   6.455   2.239  0.2366 -0.2208  0.2528
 6202SOL    HW119505   6.796   6.510   2.313 -1.8508 -0.8098 -0.3026
 6202SOL    HW219506   6.873   6.515   2.169 -0.3468  0.4727  0.5112
 6203SOL     OW19507   2.394   6.036   3.249 -0.2890 -0.1462  0.4252
 6203SOL    HW119508   2.423   6.129   3.273  0.7658 -0.7791  1.7168
 6203SOL    HW219509   2.380   6.030   3.150 -0.0403  1.2892  0.2774
 6204SOL     OW19510   3.324   5.937   6.241 -0.3185  0.7370  0.2875
 6204SOL    HW119511   3.236   5.957   6.198 -0.1623  0.4912 -0.1506
 6204SOL    HW219512   3.313   5.939   6.340 -2.0769 -4.1374  0.4931
 6205SOL     OW19513   0.142   0.768   6.553  0.6033 -0.5571  0.8051
 6205SOL    HW119514   0.089   0.848   6.582 -1.2386 -1.3506 -0.2350
 6205SOL    HW219515   0.133   0.696   6.621  0.1669 -0.7597  0.5368
 6206SOL     OW19516   2.006   4.801   0.673 -0.0337  0.2486 -0.4833
 6206SOL    HW119517   2.093   4.780   0.629 -0.6047 -1.6458 -0.7972
 6206SOL    HW219518   2.011   4.778   0.770 -0.7744 -1.8937 -0.8984
 6207SOL     OW19519   5.434   6.103   2.780 -0.3007 -0.0215 -0.3323
 6207SOL    HW119520   5.351   6.157   2.790 -1.6913 -2.1069  0.1260
 6207SOL    HW219521   5.499   6.128   2.851 -3.2238 -2.7973  3.8284
 6208SOL     OW19522   6.530   6.649   3.057  0.0525  0.2280  0.1853
 6208SOL    HW119523   6.488   6.595   2.984 -0.6349  0.4951  0.3806
 6208SOL    HW219524   6.621   6.613   3.077 -0.1140 -0.4063 -0.1847
 6209SOL     OW19525   0.573   5.752   1.204 -0.1704  0.0519 -0.6728
 6209SOL    HW119526   0.640   5.719   1.137 -2.0377 -0.2349 -2.5077
 6209SOL    HW219527   0.543   5.844   1.179 -1.2360 -0.2353 -0.5239
 6210SOL     OW19528   6.700   4.523   0.960 -0.0012 -0.4376 -0.1586
 6210SOL    HW119529   6.665   4.556   1.048  1.9577  0.9099  0.1876
 6210SOL    HW219530   6.682   4.591   0.889  1.2601 -0.0179 -0.1020
 6211SOL     OW19531   0.443   0.281   2.860 -0.8120  0.6141 -0.3088
 6211SOL    HW119532   0.447   0.296   2.761 -1.1796 -0.6797 -0.5476
 6211SOL    HW219533   0.490   0.355   2.907 -0.8523  1.3869 -1.4390
 6212SOL     OW19534   0.874   1.656   3.525  0.4738 -0.5139 -0.5604
 6212SOL    HW119535   0.833   1.619   3.441  1.1714 -1.9651 -0.2901
 6212SOL    HW219536   0.963   1.614   3.540  0.3623 -0.2697  0.9115
 6213SOL     OW19537   5.033   0.359   2.008  0.2812  0.2042  0.0885
 6213SOL    HW119538   5.080   0.447   2.017 -0.1258  0.3772  0.5863
 6213SOL    HW219539   4.939   0.375   1.978  0.1659 -0.0449  0.3084
 6214SOL     OW19540   6.512   4.766   6.667 -0.4602 -0.2714  0.5749
 6214SOL    HW119541   6.555   4.731   6.584 -1.0058  1.3710 -0.4503
 6214SOL    HW219542   6.537   4.862   6.680 -0.6411 -0.4071  2.1570
 6215SOL     OW19543   0.537   0.605   0.975 -0.1783 -0.5259 -0.2113
 6215SOL    HW119544   0.612   0.593   0.910  0.4938 -0.2903  0.5173
 6215SOL    HW219545   0.515   0.516   1.016 -0.6355 -0.6840 -0.7810
 6216SOL     OW19546   2.428   6.579   1.872 -0.9738  0.0287  0.2275
 6216SOL    HW119547   2.380   6.540   1.793 -0.3362 -1.3779  0.5101
 6216SOL    HW219548   2.510   6.525   1.892 -0.4846  1.0680  1.1300
 6217SOL     OW19549   0.948   1.424   2.845  0.6867 -0.2052  0.4170
 6217SOL    HW119550   0.868   1.479   2.868  0.9184  1.1361 -1.7239
 6217SOL    HW219551   0.930   1.328   2.868 -1.0997  0.2268  0.9807
 6218SOL     OW19552   2.225   5.733   2.545 -0.5426 -0.3444 -0.1253
 6218SOL    HW119553   2.125   5.732   2.553 -0.8043 -0.7880 -2.6776
 6218SOL    HW219554   2.254   5.662   2.482  1.3681  0.1775  0.1143
 6219SOL     OW19555   6.796   1.621   4.013  0.3003 -0.1532  0.2552
 6219SOL    HW119556   6.698   1.600   4.017  0.1655  0.2603 -0.6096
 6219SOL    HW219557   6.809   1.720   4.003  0.7069 -0.3533 -1.7406
 6220SOL     OW19558   4.589   4.789   2.362  0.4301  0.3003  0.2419
 6220SOL    HW119559   4.672   4.750   2.321  0.2964  1.1038 -0.8387
 6220SOL    HW219560   4.576   4.750   2.453  1.0872 -1.0675 -0.2129
 6221SOL     OW19561   3.192   3.001   2.671 -0.0018 -0.1431  0.3180
 6221SOL    HW119562   3.109   3.048   2.642 -0.6568 -1.3193  0.2177
 6221SOL    HW219563   3.244   2.972   2.591 -0.9452 -1.8796  0.2824
 6222SOL     OW19564   3.262   0.417   2.758 -0.2287 -0.6121  0.2191
 6222SOL    HW119565   3.292   0.430   2.852 -1.6613  0.1844  0.5936
 6222SOL    HW219566   3.181   0.473   2.741  0.2722 -0.3992 -1.6310
 6223SOL     OW19567   1.412   5.701   1.053 -0.2035 -0.5240 -0.2318
 6223SOL    HW119568   1.342   5.639   1.019 -0.3886 -0.1037 -0.6339
 6223SOL    HW219569   1.379   5.795   1.046  0.1432 -0.3662  0.1987
 6224SOL     OW19570   5.160   0.603   4.943 -0.0129  0.9182 -0.5805
 6224SOL    HW119571   5.111   0.648   5.018  3.1176  0.9085  1.6662
 6224SOL    HW219572   5.196   0.515   4.975  1.6450  1.0268 -1.9864
 6225SOL     OW19573   6.901   5.188   6.405 -0.4628 -0.1542 -0.3057
 6225SOL    HW119574   6.937   5.218   6.493 -0.8088  0.7282 -0.4643
 6225SOL    HW219575   6.863   5.096   6.414  2.6039 -1.5592 -0.3081
 6226SOL     OW19576   3.956   3.228   5.434 -0.1635  0.4807 -0.0687
 6226SOL    HW119577   4.054   3.222   5.456  0.2776 -1.6877 -2.1853
 6226SOL    HW219578   3.945   3.237   5.335 -2.0762 -2.1868 -0.1926
 6227SOL     OW19579   5.485   3.372   1.828  0.0414 -1.0924  0.2892
 6227SOL    HW119580   5.436   3.333   1.751  1.1857 -1.8927 -0.0585
 6227SOL    HW219581   5.583   3.372   1.809  0.2960 -0.7785  1.5057
 6228SOL     OW19582   4.559   2.850   6.815  0.0639 -0.5312 -0.3707
 6228SOL    HW119583   4.603   2.810   6.735  1.5721  0.1831  0.0499
 6228SOL    HW219584   4.538   2.779   6.881  2.9755 -0.7276  0.4999
 6229SOL     OW19585   0.783   5.998   2.303 -0.2991 -0.1457  0.9245
 6229SOL    HW119586   0.746   6.003   2.210 -0.6867  0.4131  1.1044
 6229SOL    HW219587   0.751   5.913   2.346 -0.4590 -0.2058  0.6941
 6230SOL     OW19588   1.951   5.261   5.199  0.3201  0.4830  0.1266
 6230SOL    HW119589   1.902   5.218   5.123  1.9342 -1.5707  0.1813
 6230SOL    HW219590   2.017   5.327   5.163 -0.2408  0.9298 -0.1109
 6231SOL     OW19591   2.759   6.612   5.661 -0.0057  0.5133 -0.0252
 6231SOL    HW119592   2.720   6.532   5.616 -0.5426  1.3018 -1.0262
 6231SOL    HW219593   2.857   6.598   5.675  0.1391  0.1316 -1.2544
 6232SOL     OW19594   4.226   1.614   1.222  0.0556  0.0600 -0.3527
 6232SOL    HW119595   4.189   1.705   1.241  0.1101  0.5447 -2.3656
 6232SOL    HW219596   4.155   1.558   1.178  0.1100 -0.7913  0.6144
 6233SOL     OW19597   3.963   0.634   3.933 -0.0076 -0.3801 -0.0886
 6233SOL    HW119598   4.030   0.620   4.006 -0.8393  1.7136  1.1681
 6233SOL    HW219599   4.010   0.658   3.849  1.0711 -4.2742 -0.7876
 6234SOL     OW19600   2.856   4.470   0.514  0.2772 -0.8180  0.1647
 6234SOL    HW119601   2.946   4.437   0.544  0.0151 -0.9795  0.7949
 6234SOL    HW219602   2.863   4.505   0.421 -0.0147 -5.4339 -1.8766
 6235SOL     OW19603   4.243   6.223   3.943 -0.5488 -0.2175  0.1698
 6235SOL    HW119604   4.300   6.298   3.909 -0.6652 -0.0982  0.2403
 6235SOL    HW219605   4.223   6.160   3.868  1.6719 -1.5499  0.6071
 6236SOL     OW19606   5.619   2.184   3.983 -0.4100  0.6324 -0.0151
 6236SOL    HW119607   5.582   2.277   3.994  0.0247  0.9115 -0.8370
 6236SOL    HW219608   5.714   2.183   4.012 -0.5665  0.3128  0.4925
 6237SOL     OW19609   3.833   3.374   4.699 -0.3397 -0.1718 -0.0224
 6237SOL    HW119610   3.866   3.280   4.711  0.5024  0.1571  0.3208
 6237SOL    HW219611   3.828   3.395   4.601  1.4272  0.0691 -0.1067
 6238SOL     OW19612   6.654   3.814   2.518 -0.5314 -0.2345  0.0544
 6238SOL    HW119613   6.705   3.893   2.551 -0.2696 -0.5439  0.3984
 6238SOL    HW219614   6.719   3.742   2.491 -0.7834 -0.6891  0.6405
 6239SOL     OW19615   3.008   6.727   4.037  0.6264  0.8048 -0.1068
 6239SOL    HW119616   2.909   6.740   4.047  0.1995 -0.3841 -2.2468
 6239SOL    HW219617   3.043   6.679   4.117 -0.3792  1.8935  1.0251
 6240SOL     OW19618   2.667   3.979   6.007  0.3785  0.4589  0.5303
 6240SOL    HW119619   2.705   3.943   5.922 -1.3915  1.2593 -0.6464
 6240SOL    HW219620   2.738   4.030   6.056  1.9079 -1.4458  0.4486
 6241SOL     OW19621   4.560   0.135   0.153 -0.3475  0.1868  0.4457
 6241SOL    HW119622   4.627   0.167   0.086 -0.9790  0.2172 -0.1825
 6241SOL    HW219623   4.557   0.199   0.231  0.5344  0.0397  0.6063
 6242SOL     OW19624   0.070   2.316   2.228  0.6942 -0.3330 -0.2891
 6242SOL    HW119625   0.061   2.260   2.311 -0.3180 -1.1259 -0.9143
 6242SOL    HW219626   0.016   2.400   2.239  2.3712  0.6798  0.7293
 6243SOL     OW19627   2.042   6.365   2.052  1.1636 -0.4721  0.2644
 6243SOL    HW119628   2.027   6.349   1.954  0.5844  0.9800  0.0932
 6243SOL    HW219629   2.066   6.461   2.068 -1.8729  0.1722  1.8103
 6244SOL     OW19630   2.501   4.018   0.107 -0.3233  0.4488 -0.1929
 6244SOL    HW119631   2.519   4.116   0.100 -0.7922  0.5633  0.1941
 6244SOL    HW219632   2.548   3.971   0.032  1.5947  0.7405  0.7473
 6245SOL     OW19633   6.170   6.419   4.342  0.4302 -0.0458 -0.3016
 6245SOL    HW119634   6.181   6.516   4.362  0.2311 -0.0711 -0.0546
 6245SOL    HW219635   6.210   6.398   4.253 -0.6657  0.5139 -0.9507
 6246SOL     OW19636   5.191   0.111   3.795  0.1990 -0.4910  0.7634
 6246SOL    HW119637   5.209   0.018   3.762 -0.3995 -0.3328 -0.0435
 6246SOL    HW219638   5.105   0.112   3.845 -0.4407 -0.1391 -0.3140
 6247SOL     OW19639   5.565   4.236   0.551 -0.0673  0.0148 -0.4209
 6247SOL    HW119640   5.505   4.238   0.471 -0.3620  2.2156 -0.1860
 6247SOL    HW219641   5.593   4.141   0.568 -1.1045 -0.6898 -2.2762
 6248SOL     OW19642   4.991   6.028   2.296 -0.0786 -0.3758 -0.1163
 6248SOL    HW119643   5.058   5.953   2.288  1.7019  0.9397  1.6517
 6248SOL    HW219644   4.900   5.989   2.309  0.7835 -2.2567  0.7523
 6249SOL     OW19645   0.256   4.153   0.716 -0.0633 -0.1457 -0.2539
 6249SOL    HW119646   0.285   4.163   0.621  0.1376  0.0744 -0.1687
 6249SOL    HW219647   0.262   4.057   0.743 -2.9434 -0.7550 -1.3770
 6250SOL     OW19648   0.848   6.755   5.104 -0.7121 -0.2128  0.2019
 6250SOL    HW119649   0.907   6.774   5.183  1.0483 -1.4953 -0.7552
 6250SOL    HW219650   0.858   6.829   5.037 -2.2072  0.8773  1.1198
 6251SOL     OW19651   3.822   5.542   3.224  0.1092 -0.4007 -0.5781
 6251SOL    HW119652   3.754   5.471   3.204 -2.2135  1.6018 -0.2254
 6251SOL    HW219653   3.835   5.550   3.323 -1.1154  0.9166 -0.5004
 6252SOL     OW19654   1.286   2.967   5.454 -0.2134 -0.3283 -0.1352
 6252SOL    HW119655   1.255   2.880   5.415 -2.1517  1.0333 -1.9245
 6252SOL    HW219656   1.381   2.958   5.485  0.3183 -2.5345 -2.0652
 6253SOL     OW19657   4.919   1.548   2.981 -0.1160  0.3861 -0.6348
 6253SOL    HW119658   4.907   1.541   2.882 -2.3403  1.7498 -0.5312
 6253SOL    HW219659   5.013   1.523   3.005  1.1123  2.0126 -3.3088
 6254SOL     OW19660   5.949   6.767   1.955  0.3213 -0.3560 -0.4136
 6254SOL    HW119661   5.908   6.713   1.881  0.8901 -0.7214 -0.4732
 6254SOL    HW219662   5.902   6.854   1.963  0.0937 -0.4133 -1.0481
 6255SOL     OW19663   2.303   5.979   1.835  0.4651  0.3815  0.2595
 6255SOL    HW119664   2.392   5.937   1.814  0.9899  1.5988 -0.0360
 6255SOL    HW219665   2.315   6.050   1.904 -0.0768  1.3172 -0.5770
 6256SOL     OW19666   6.559   1.296   6.049  0.9646  0.0140  0.6180
 6256SOL    HW119667   6.459   1.297   6.052  0.8973  0.4799 -0.8405
 6256SOL    HW219668   6.595   1.336   6.132 -0.0957  1.1868  0.5454
 6257SOL     OW19669   6.555   3.895   6.314 -0.4601  0.0102  0.1427
 6257SOL    HW119670   6.525   3.987   6.340  0.3624  0.1991  0.4443
 6257SOL    HW219671   6.519   3.874   6.223 -1.2538  0.3425  0.3712
 6258SOL     OW19672   6.191   4.208   6.111 -0.3347  0.8808  0.4002
 6258SOL    HW119673   6.233   4.172   6.027  2.3862 -0.3219  2.1350
 6258SOL    HW219674   6.119   4.146   6.142 -0.4820  0.6607 -0.3545
 6259SOL     OW19675   3.209   3.614   1.354 -0.4149  0.6930 -0.0590
 6259SOL    HW119676   3.193   3.700   1.304 -3.3540  1.0313  1.2849
 6259SOL    HW219677   3.240   3.635   1.447 -0.1877  0.2381 -0.0290
 6260SOL     OW19678   6.901   5.616   3.415  0.6867 -0.5325 -0.7674
 6260SOL    HW119679   6.845   5.557   3.473  2.2098 -0.7178  0.5608
 6260SOL    HW219680   6.936   5.564   3.338 -0.4869 -0.5542 -1.3061
 6261SOL     OW19681   6.887   5.319   5.370 -0.1991  0.0802  0.3331
 6261SOL    HW119682   6.817   5.306   5.299 -0.4427 -0.4990  0.6731
 6261SOL    HW219683   6.878   5.410   5.410  0.5622  0.7926 -1.0453
 6262SOL     OW19684   6.974   3.935   1.445  0.6750  0.2277 -0.0188
 6262SOL    HW119685   6.970   3.893   1.354  0.4272  2.0671 -0.9020
 6262SOL    HW219686   6.981   4.035   1.435 -1.6193  0.6699  1.9873
 6263SOL     OW19687   5.094   2.972   0.124 -0.8065  0.3412 -0.0512
 6263SOL    HW119688   5.179   3.006   0.084 -0.3578  1.1401  1.5084
 6263SOL    HW219689   5.020   2.981   0.057 -0.1006  1.6683 -0.6913
 6264SOL     OW19690   3.946   2.116   1.996 -0.1636 -0.2701  0.0579
 6264SOL    HW119691   3.850   2.135   2.012  0.8146  3.3676  2.9005
 6264SOL    HW219692   3.974   2.156   1.908 -0.8307  0.5683  0.2143
 6265SOL     OW19693   5.649   6.821   6.594 -0.0111 -0.1597 -0.0480
 6265SOL    HW119694   5.675   6.883   6.520  2.9038  0.1863  1.1075
 6265SOL    HW219695   5.560   6.781   6.574  0.2000  0.6372 -3.2522
 6266SOL     OW19696   2.022   5.735   3.113 -0.3215  0.4317  0.1211
 6266SOL    HW119697   2.086   5.664   3.083  0.1945  0.7516  0.4440
 6266SOL    HW219698   1.991   5.715   3.206  0.4911  1.0648  0.5445
 6267SOL     OW19699   4.146   6.477   5.175 -0.7860  0.2272  0.2450
 6267SOL    HW119700   4.200   6.503   5.256 -0.0508  1.4799 -0.6071
 6267SOL    HW219701   4.049   6.495   5.193 -0.8313 -0.9951  1.3920
 6268SOL     OW19702   3.939   3.484   0.216 -0.0872 -0.0760  0.2064
 6268SOL    HW119703   3.840   3.471   0.209 -0.0257 -0.4622  0.0384
 6268SOL    HW219704   3.982   3.398   0.245 -0.0743  0.7376  2.9559
 6269SOL     OW19705   1.808   2.560   1.812 -0.1970 -0.0273  0.3713
 6269SOL    HW119706   1.747   2.485   1.838 -0.0381 -1.7182 -3.4255
 6269SOL    HW219707   1.758   2.647   1.816 -1.6765 -0.8687  0.9729
 6270SOL     OW19708   4.771   4.773   3.683 -0.0304  0.1124  0.4627
 6270SOL    HW119709   4.839   4.836   3.647 -0.2299  0.2566  0.3331
 6270SOL    HW219710   4.681   4.817   3.683 -0.5161 -0.7566 -1.3182
 6271SOL     OW19711   2.483   6.454   4.795  0.9538  0.5931 -0.3330
 6271SOL    HW119712   2.491   6.449   4.696  0.8288  1.0863 -0.3742
 6271SOL    HW219713   2.465   6.549   4.822  3.6081  0.9836  0.3668
 6272SOL     OW19714   2.460   5.895   0.807 -0.6684 -0.8536 -0.2851
 6272SOL    HW119715   2.394   5.887   0.882 -0.3509 -0.7206  0.0096
 6272SOL    HW219716   2.550   5.918   0.843 -0.8166  0.6772 -0.8220
 6273SOL     OW19717   4.832   6.746   1.383 -0.0040 -0.5852 -0.5659
 6273SOL    HW119718   4.855   6.652   1.407 -1.5220 -1.2529 -1.6081
 6273SOL    HW219719   4.772   6.747   1.303 -1.4315  1.1661  0.4424
 6274SOL     OW19720   6.894   4.194   2.347  0.0669 -0.4579 -0.2966
 6274SOL    HW119721   6.913   4.292   2.338  1.2640 -0.4757  1.4773
 6274SOL    HW219722   6.805   4.173   2.306 -0.5288  1.4942 -0.0944
 6275SOL     OW19723   3.880   6.129   4.939 -0.1680  0.5100  0.2727
 6275SOL    HW119724   3.950   6.197   4.962  0.1108  0.4184 -0.2824
 6275SOL    HW219725   3.850   6.082   5.022  0.3964  0.5871  0.5213
 6276SOL     OW19726   4.658   5.796   2.547  0.2175 -0.2923  0.1824
 6276SOL    HW119727   4.563   5.765   2.543 -0.3322  1.2444  0.5475
 6276SOL    HW219728   4.685   5.833   2.457 -0.1160  0.8514  0.5386
 6277SOL     OW19729   6.691   4.926   2.982  0.1281 -0.2265  0.1783
 6277SOL    HW119730   6.672   4.951   3.077 -0.4779  0.3086 -0.0735
 6277SOL    HW219731   6.713   5.009   2.929  0.9828 -0.5832 -0.0328
 6278SOL     OW19732   6.364   2.025   6.810  0.2482  0.3047 -0.8117
 6278SOL    HW119733   6.306   2.106   6.810 -0.7273 -0.3675 -0.2099
 6278SOL    HW219734   6.381   1.996   6.905  0.4953 -0.2492 -1.0194
 6279SOL     OW19735   2.194   0.061   6.804 -0.0958  0.3064 -0.1749
 6279SOL    HW119736   2.243   0.047   6.718 -0.0430 -3.2775  0.3046
 6279SOL    HW219737   2.251   0.116   6.866  0.6546  1.3441 -1.7105
 6280SOL     OW19738   0.147   2.942   1.425  0.3444 -0.4693  0.2499
 6280SOL    HW119739   0.087   2.981   1.355 -0.1556  0.0806  0.9710
 6280SOL    HW219740   0.175   3.014   1.488  0.2262 -1.0867  1.0236
 6281SOL     OW19741   2.741   5.233   4.663 -0.0993  0.3083 -0.0414
 6281SOL    HW119742   2.714   5.330   4.659 -1.2098  0.1884  2.3501
 6281SOL    HW219743   2.670   5.177   4.621 -0.5761  0.4117  0.6070
 6282SOL     OW19744   3.827   3.113   0.031 -0.0502 -0.4142 -0.0561
 6282SOL    HW119745   3.740   3.064   0.043  0.3723 -0.8411  1.4429
 6282SOL    HW219746   3.874   3.077  -0.050 -0.8799 -0.7763 -0.3910
 6283SOL     OW19747   5.755   1.260   6.475 -0.1982  0.1934 -0.1972
 6283SOL    HW119748   5.822   1.317   6.429  0.6501 -0.2236  0.4873
 6283SOL    HW219749   5.683   1.318   6.514  1.4225  1.0051  1.7892
 6284SOL     OW19750   0.391   0.573   5.412 -0.0097 -0.5405  0.3465
 6284SOL    HW119751   0.398   0.628   5.328 -2.2005 -1.0094 -0.1909
 6284SOL    HW219752   0.444   0.617   5.484  1.3086  0.2872 -1.0588
 6285SOL     OW19753   5.883   4.703   3.338  0.2189  0.4181 -0.5344
 6285SOL    HW119754   5.823   4.669   3.410  0.0304 -0.1309 -0.9470
 6285SOL    HW219755   5.907   4.798   3.357 -0.4383  0.5112 -0.1455
 6286SOL     OW19756   3.539   4.939   4.235  0.5720 -0.0400  0.4803
 6286SOL    HW119757   3.468   4.962   4.301  0.2097  1.1037 -0.2743
 6286SOL    HW219758   3.627   4.978   4.264  0.2377  1.2161 -0.1076
 6287SOL     OW19759   6.654   4.381   2.524  0.2995 -0.5886 -0.3226
 6287SOL    HW119760   6.663   4.299   2.579  0.7682 -0.1003  0.3364
 6287SOL    HW219761   6.581   4.368   2.457  0.8506 -1.7977 -0.7091
 6288SOL     OW19762   3.289   2.151   1.461 -0.2893 -0.6182 -0.1477
 6288SOL    HW119763   3.270   2.201   1.546 -1.9528 -0.6490 -0.4650
 6288SOL    HW219764   3.313   2.216   1.390  2.5073 -0.6838  0.6324
 6289SOL     OW19765   5.536   0.796   6.000  0.5133  0.6792  0.4390
 6289SOL    HW119766   5.603   0.761   6.065  0.0065  0.0116  0.6110
 6289SOL    HW219767   5.478   0.864   6.045  0.4285  0.5225  0.5657
 6290SOL     OW19768   6.312   5.162   4.536 -0.0268  0.6232  0.1015
 6290SOL    HW119769   6.359   5.153   4.448  0.1946  0.9148  0.1850
 6290SOL    HW219770   6.257   5.245   4.536 -0.2765  0.4589  0.1275
 6291SOL     OW19771   4.846   6.825   3.958  0.4178 -0.2760  0.0766
 6291SOL    HW119772   4.869   6.880   4.039  0.0700  0.1322 -0.1024
 6291SOL    HW219773   4.864   6.729   3.978  1.5719 -0.0507  0.2065
 6292SOL     OW19774   6.952   6.188   5.165 -1.0658  0.3543  0.7143
 6292SOL    HW119775   6.925   6.271   5.214 -1.1817 -0.4864  2.1492
 6292SOL    HW219776   6.997   6.125   5.229  1.9725  0.5967 -1.0061
 6293SOL     OW19777   5.593   0.529   5.534  0.3014  0.5117 -0.2054
 6293SOL    HW119778   5.658   0.453   5.542 -1.2941 -0.7810  1.5163
 6293SOL    HW219779   5.623   0.605   5.591 -0.0187 -0.3634  1.1810
 6294SOL     OW19780   0.088   4.649   3.439 -0.3456  0.0541 -0.2280
 6294SOL    HW119781   0.000   4.668   3.482 -0.0690  0.5325  0.1329
 6294SOL    HW219782   0.130   4.735   3.409  0.9241  0.0472  1.4188
 6295SOL     OW19783   0.657   3.333   6.700  0.3425  0.3055 -0.7467
 6295SOL    HW119784   0.659   3.235   6.683  0.6875  0.0141  0.8229
 6295SOL    HW219785   0.688   3.352   6.793  0.1901  1.9032 -0.9804
 6296SOL     OW19786   5.667   5.302   5.115  0.0750 -0.3757 -0.1490
 6296SOL    HW119787   5.596   5.301   5.044 -0.4132 -2.3376  0.2967
 6296SOL    HW219788   5.626   5.328   5.202 -0.2854 -2.0706  0.2279
 6297SOL     OW19789   2.199   1.519   0.996  0.5138  0.2015  0.2471
 6297SOL    HW119790   2.208   1.516   1.095  0.2976  2.3161  0.3831
 6297SOL    HW219791   2.103   1.511   0.970  0.4982  0.3366  0.2618
 6298SOL     OW19792   6.640   5.451   5.564 -0.3857  0.4625  0.4312
 6298SOL    HW119793   6.611   5.393   5.639 -2.5670  0.5835 -0.2695
 6298SOL    HW219794   6.587   5.536   5.563  1.0965  1.4369  0.0091
 6299SOL     OW19795   1.541   4.858   4.741 -0.0064 -0.3386 -0.0748
 6299SOL    HW119796   1.441   4.849   4.734  0.0392 -0.5856 -0.4346
 6299SOL    HW219797   1.577   4.893   4.655  0.0795  1.0999  0.5125
 6300SOL     OW19798   3.101   0.180   4.587 -0.4522 -0.1244  0.2004
 6300SOL    HW119799   3.147   0.259   4.629  0.0579 -0.0721 -0.4464
 6300SOL    HW219800   3.134   0.096   4.631  2.2669 -0.3157 -1.9177
 6301SOL     OW19801   4.466   2.020   2.701 -0.6465 -0.8336  0.0593
 6301SOL    HW119802   4.406   2.083   2.751  0.3894 -0.8249  1.3334
 6301SOL    HW219803   4.517   2.070   2.632 -0.5398 -0.4538  0.4103
 6302SOL     OW19804   6.779   6.306   6.489 -0.6266  0.2398  0.4057
 6302SOL    HW119805   6.829   6.220   6.486 -0.0266  0.5568  1.1264
 6302SOL    HW219806   6.822   6.368   6.555 -2.6015  0.1199  1.8854
 6303SOL     OW19807   0.407   4.189   2.378 -0.4462  0.2276  0.2101
 6303SOL    HW119808   0.407   4.257   2.451 -1.9533  0.7325 -0.2296
 6303SOL    HW219809   0.316   4.150   2.369  0.4497 -2.0655  0.6084
 6304SOL     OW19810   4.563   4.104   6.783 -0.0557 -0.1892 -0.0107
 6304SOL    HW119811   4.517   4.062   6.705  0.1233  3.1374 -2.1126
 6304SOL    HW219812   4.505   4.174   6.823  1.7621  1.7480 -0.5545
 6305SOL     OW19813   2.540   5.374   0.001 -0.1322  0.2493  0.0288
 6305SOL    HW119814   2.559   5.436  -0.075  2.2386 -0.2710  0.1052
 6305SOL    HW219815   2.589   5.406   0.083  0.0717 -0.9948  0.4136
 6306SOL     OW19816   3.376   6.626   3.949  0.7615 -0.1981 -0.2683
 6306SOL    HW119817   3.353   6.721   3.972  2.1403 -0.0968  0.8658
 6306SOL    HW219818   3.374   6.614   3.850 -2.3065  0.2078 -0.3574
 6307SOL     OW19819   1.589   4.068   1.772  1.0546  0.2839  0.4144
 6307SOL    HW119820   1.575   3.994   1.837 -1.8238  0.5737  0.2983
 6307SOL    HW219821   1.583   4.156   1.819  2.3433  0.4825  0.2371
 6308SOL     OW19822   6.082   1.241   5.721  0.0897 -0.3585 -1.0658
 6308SOL    HW119823   6.036   1.302   5.785 -0.0906 -1.7972  0.2366
 6308SOL    HW219824   6.116   1.294   5.643 -0.6852  1.2648 -0.3531
 6309SOL     OW19825   3.989   3.425   2.658  0.4683  0.0299  0.1086
 6309SOL    HW119826   3.898   3.465   2.672  0.8297  0.3627  1.7670
 6309SOL    HW219827   4.045   3.440   2.740  2.8290  1.8465 -1.6868
 6310SOL     OW19828   6.972   6.483   7.012 -0.2018 -0.2949  0.0711
 6310SOL    HW119829   7.039   6.543   7.056  1.2750 -0.8045 -1.3699
 6310SOL    HW219830   6.884   6.530   7.007  0.2819  0.7810  1.1498
 6311SOL     OW19831   4.434   5.184   6.909  0.0709 -0.1819  0.5250
 6311SOL    HW119832   4.470   5.229   6.991 -0.8676  1.8552 -0.1038
 6311SOL    HW219833   4.498   5.197   6.834  0.2273 -0.7433  0.5558
 6312SOL     OW19834   4.570   6.310   2.883  0.1194 -0.6105 -0.2540
 6312SOL    HW119835   4.640   6.381   2.882 -1.3980  1.0006  1.3201
 6312SOL    HW219836   4.608   6.226   2.924  1.3632 -0.0528 -0.2283
 6313SOL     OW19837   5.942   4.570   3.920  0.2716 -0.1177 -0.0302
 6313SOL    HW119838   5.847   4.599   3.926  1.1146  2.7991  0.7304
 6313SOL    HW219839   5.952   4.480   3.964 -2.0996 -0.5586 -0.2502
 6314SOL     OW19840   5.915   2.958   1.648 -0.5524 -0.0631  0.1554
 6314SOL    HW119841   5.961   2.978   1.561 -0.2620  0.2590  0.3807
 6314SOL    HW219842   5.908   2.858   1.660  0.1692 -0.1218  0.1536
 6315SOL     OW19843   6.428   2.675   1.980 -0.0673 -0.1674  0.2453
 6315SOL    HW119844   6.369   2.609   1.932 -0.8977  1.6235 -1.3393
 6315SOL    HW219845   6.521   2.670   1.942 -0.7582  1.3654 -1.8551
 6316SOL     OW19846   1.212   0.972   0.285  0.0072 -0.0363  0.3964
 6316SOL    HW119847   1.144   0.959   0.213 -0.2431 -0.1299  0.6486
 6316SOL    HW219848   1.193   1.058   0.333 -0.2037 -0.2847  0.7601
 6317SOL     OW19849   2.307   0.069   6.561  0.3015  0.2062  0.2303
 6317SOL    HW119850   2.380   0.130   6.591  1.0270 -0.6494  0.2223
 6317SOL    HW219851   2.261   0.110   6.482  1.4095  0.3147 -0.3792
 6318SOL     OW19852   4.368   0.730   7.011  0.0590 -0.4526  0.1310
 6318SOL    HW119853   4.466   0.715   6.994 -0.0080 -0.7278 -0.0268
 6318SOL    HW219854   4.348   0.710   7.107  0.0667 -0.8911  0.0432
 6319SOL     OW19855   4.890   3.559   0.897  0.1128 -0.1313  0.2825
 6319SOL    HW119856   4.958   3.486   0.884 -0.2951 -0.2945 -1.0381
 6319SOL    HW219857   4.810   3.540   0.841  0.2254  1.6208 -0.5227
 6320SOL     OW19858   1.751   0.536   1.666  0.3290  0.7063 -0.6645
 6320SOL    HW119859   1.726   0.511   1.572  1.4635  0.0691 -0.8205
 6320SOL    HW219860   1.759   0.453   1.721 -0.6507  1.1023  0.0903
 6321SOL     OW19861   3.082   6.894   0.362 -0.1896 -0.6200  0.2151
 6321SOL    HW119862   3.139   6.863   0.439 -1.1428  1.1397  1.7140
 6321SOL    HW219863   2.988   6.907   0.394 -0.5483  0.4024 -1.1994
 6322SOL     OW19864   6.689   5.914   5.210 -0.2843 -0.0817 -0.1353
 6322SOL    HW119865   6.698   5.972   5.129  0.0470 -0.1390 -0.1383
 6322SOL    HW219866   6.640   5.830   5.186  0.6456 -0.5262 -0.4868
 6323SOL     OW19867   5.788   3.254   1.139  0.0914  0.5475 -0.0916
 6323SOL    HW119868   5.828   3.182   1.082  0.5443 -0.6038  1.5887
 6323SOL    HW219869   5.736   3.212   1.214 -0.8489  2.0063  0.1141
 6324SOL     OW19870   3.710   3.650   4.313  0.0345 -0.1533 -0.3400
 6324SOL    HW119871   3.692   3.580   4.382  3.0861 -0.4984  0.2471
 6324SOL    HW219872   3.700   3.610   4.222 -1.2009 -0.4764 -0.0854
 6325SOL     OW19873   3.833   0.950   5.631  0.4209  0.3059  0.4188
 6325SOL    HW119874   3.780   1.008   5.693  0.7615  1.1471 -0.0661
 6325SOL    HW219875   3.793   0.954   5.540  0.5185 -0.1376  0.3560
 6326SOL     OW19876   3.615   6.470   3.810 -0.2760 -0.4625 -0.1779
 6326SOL    HW119877   3.713   6.486   3.813  0.0246 -1.7571 -1.9740
 6326SOL    HW219878   3.569   6.533   3.874  1.7280 -0.2585  1.1358
 6327SOL     OW19879   4.042   5.785   3.424 -0.4202 -0.7491 -0.6651
 6327SOL    HW119880   3.985   5.853   3.470  0.8128  0.4102 -0.8179
 6327SOL    HW219881   4.088   5.827   3.346  1.4857 -1.3719  0.0794
 6328SOL     OW19882   2.403   2.415   0.057  0.4152 -0.4404 -0.2290
 6328SOL    HW119883   2.334   2.343   0.042 -3.0116  1.7684  3.0436
 6328SOL    HW219884   2.419   2.425   0.156  3.4464  1.0818 -0.7582
 6329SOL     OW19885   4.720   1.969   5.114 -0.0017  0.2763  0.0619
 6329SOL    HW119886   4.657   2.041   5.144  0.8888  0.6439  1.1334
 6329SOL    HW219887   4.813   2.005   5.112  0.3524 -0.6222 -0.1855
 6330SOL     OW19888   5.366   3.529   2.944 -0.6411  0.2360 -0.2065
 6330SOL    HW119889   5.326   3.442   2.917  1.6955 -0.2591 -2.4606
 6330SOL    HW219890   5.442   3.513   3.007  0.6458  0.4617 -1.6461
 6331SOL     OW19891   2.435   6.212   5.594 -0.2202 -0.4306  0.0318
 6331SOL    HW119892   2.382   6.130   5.614  0.3679 -1.0481 -0.8692
 6331SOL    HW219893   2.388   6.265   5.523  0.5748 -1.2239 -1.1167
 6332SOL     OW19894   6.200   2.134   0.570  0.4068 -0.8117  0.4134
 6332SOL    HW119895   6.278   2.109   0.512 -0.0971 -0.4837 -0.4183
 6332SOL    HW219896   6.149   2.051   0.594  0.0193 -0.8491 -0.4922
 6333SOL     OW19897   0.869   0.441   3.042 -0.4961 -0.5099  0.2047
 6333SOL    HW119898   0.896   0.355   3.084 -1.8143 -1.5270 -0.9476
 6333SOL    HW219899   0.848   0.427   2.945  0.8826  1.4466 -0.4605
 6334SOL     OW19900   1.242   1.326   0.182 -0.3415 -0.1662 -0.3478
 6334SOL    HW119901   1.277   1.282   0.265  1.1139  0.7726 -0.4421
 6334SOL    HW219902   1.198   1.413   0.207 -1.7763 -0.8638 -0.3478
 6335SOL     OW19903   3.223   5.754   0.785 -0.2182  0.4989  0.6486
 6335SOL    HW119904   3.179   5.677   0.739  0.7176  0.3839 -0.0852
 6335SOL    HW219905   3.200   5.752   0.883  1.1009 -1.6967  0.9803
 6336SOL     OW19906   1.258   6.961   0.904  0.2363  0.6216 -0.5745
 6336SOL    HW119907   1.235   7.053   0.871 -0.8216  0.0965 -1.3391
 6336SOL    HW219908   1.209   6.943   0.989 -1.2839 -0.0219 -1.5471
 6337SOL     OW19909   2.562   4.371   0.842 -0.6999  0.3586 -0.1346
 6337SOL    HW119910   2.473   4.416   0.857 -0.8652 -0.2871  0.9165
 6337SOL    HW219911   2.548   4.272   0.836  0.0190  0.1927  0.7465
 6338SOL     OW19912   1.447   6.282   1.083  0.4104  0.3576  0.0305
 6338SOL    HW119913   1.363   6.228   1.073  0.9291 -0.7632  1.4872
 6338SOL    HW219914   1.451   6.321   1.174  0.6712  1.8469 -0.5928
 6339SOL     OW19915   4.070   4.681   1.739  0.5109 -0.1087 -0.1591
 6339SOL    HW119916   3.975   4.651   1.745 -0.0192  1.0913 -1.8846
 6339SOL    HW219917   4.093   4.737   1.819 -0.6982  0.8270 -0.4405
 6340SOL     OW19918   4.723   0.736   1.900 -0.1209 -0.1602 -0.1759
 6340SOL    HW119919   4.651   0.751   1.832 -1.1476 -1.5804  0.5612
 6340SOL    HW219920   4.690   0.762   1.991  1.1100  1.3487 -0.1197
 6341SOL     OW19921   4.946   5.720   2.411 -0.7607  0.1780 -0.0729
 6341SOL    HW119922   4.875   5.650   2.419  0.9983 -1.7449 -0.6625
 6341SOL    HW219923   4.998   5.726   2.496 -0.3155  0.1364 -0.3438
 6342SOL     OW19924   2.765   6.100   3.942 -0.2260 -0.0329  0.4630
 6342SOL    HW119925   2.696   6.120   4.011 -0.0033  0.8324  0.4467
 6342SOL    HW219926   2.748   6.155   3.860  0.4745  0.1983  0.4608
 6343SOL     OW19927   0.052   2.889   2.982  0.3264  0.1312  0.0950
 6343SOL    HW119928   0.067   2.914   2.886  2.7072 -1.8821 -0.1750
 6343SOL    HW219929   0.118   2.938   3.039 -0.3471  0.4743  0.5960
 6344SOL     OW19930   4.801   1.239   2.121  0.3382  0.3532  0.0116
 6344SOL    HW119931   4.820   1.155   2.172 -0.6462  0.9239  1.3845
 6344SOL    HW219932   4.725   1.222   2.058  1.3212 -0.2543 -1.0550
 6345SOL     OW19933   0.799   1.232   0.538  0.2432  0.1899 -0.3112
 6345SOL    HW119934   0.785   1.322   0.497  0.1517  1.0672  1.5494
 6345SOL    HW219935   0.889   1.196   0.511  0.9998  1.5973  0.2215
 6346SOL     OW19936   5.455   1.934   2.353 -0.4647 -0.4754  0.3161
 6346SOL    HW119937   5.486   1.844   2.383  0.7563  0.0567  0.7126
 6346SOL    HW219938   5.449   1.995   2.432 -1.6633 -0.3069  0.1067
 6347SOL     OW19939   2.855   1.144   5.960 -0.0305  0.0283  0.2997
 6347SOL    HW119940   2.899   1.074   5.905 -0.2560 -0.0036  0.1577
 6347SOL    HW219941   2.852   1.230   5.910  0.8495  0.3260  0.7337
 6348SOL     OW19942   6.164   1.933   1.255 -0.0535 -0.0580 -0.1245
 6348SOL    HW119943   6.173   2.000   1.328 -0.0072  1.1465 -1.2075
 6348SOL    HW219944   6.174   1.841   1.293  2.1541  0.6008  1.0660
 6349SOL     OW19945   1.181   1.770   5.723  0.4335 -0.4746  0.0675
 6349SOL    HW119946   1.119   1.694   5.744  0.8148 -0.1957  2.5437
 6349SOL    HW219947   1.138   1.856   5.749  0.8510 -0.0262 -0.6900
 6350SOL     OW19948   1.391   0.153   6.560 -0.2418 -0.5323 -0.4281
 6350SOL    HW119949   1.429   0.130   6.470 -0.1964 -3.7958  0.2681
 6350SOL    HW219950   1.465   0.182   6.621  0.0035 -0.0365 -0.9522
 6351SOL     OW19951   6.410   1.698   1.242  0.3166  0.6298 -0.2754
 6351SOL    HW119952   6.420   1.791   1.208  0.9621  0.5873 -0.2140
 6351SOL    HW219953   6.344   1.697   1.317 -2.2172  0.5114 -2.3711
 6352SOL     OW19954   1.699   2.773   3.802 -0.4842 -0.1843  0.3363
 6352SOL    HW119955   1.761   2.748   3.876 -0.5886  0.9045  0.8066
 6352SOL    HW219956   1.659   2.690   3.763  0.9058 -0.8693  0.3244
 6353SOL     OW19957   4.260   2.310   6.439  0.6728 -0.4831 -0.3145
 6353SOL    HW119958   4.199   2.234   6.458 -1.0446  0.9227  0.0335
 6353SOL    HW219959   4.264   2.327   6.341  2.0646 -1.7644 -0.5197
 6354SOL     OW19960   0.974   5.305   5.915  0.1570  0.4940  0.5563
 6354SOL    HW119961   0.876   5.288   5.916  0.3648 -0.8498  2.2523
 6354SOL    HW219962   0.991   5.403   5.928 -0.9262  0.6859  0.6258
 6355SOL     OW19963   3.158   1.178   3.140 -0.0259 -0.2807  0.0523
 6355SOL    HW119964   3.181   1.163   3.236  1.8030 -1.2717 -0.4737
 6355SOL    HW219965   3.064   1.149   3.123 -0.0019 -1.1911  1.3236
 6356SOL     OW19966   6.621   2.290   5.904 -0.2114  0.4686 -0.1844
 6356SOL    HW119967   6.658   2.281   5.811 -1.2316  2.1942 -0.7948
 6356SOL    HW219968   6.684   2.344   5.959  0.9333 -1.4495  0.5173
 6357SOL     OW19969   6.427   2.096   5.601 -0.5007 -0.2963 -0.4673
 6357SOL    HW119970   6.498   2.051   5.656  0.3117  1.5707  0.0815
 6357SOL    HW219971   6.451   2.192   5.587 -0.9186 -0.5598 -3.7461
 6358SOL     OW19972   2.998   5.155   4.662  0.5384 -0.5509 -0.0416
 6358SOL    HW119973   2.901   5.178   4.672  0.8623  2.3564 -2.2737
 6358SOL    HW219974   3.013   5.060   4.689 -2.1837 -0.0689  4.0381
 6359SOL     OW19975   0.919   6.569   1.789  0.1920 -0.0072 -0.7100
 6359SOL    HW119976   0.945   6.517   1.871  0.9573  1.1782 -0.1784
 6359SOL    HW219977   0.889   6.505   1.718 -3.4220 -1.0257  1.4148
 6360SOL     OW19978   2.624   6.296   2.871  0.5077 -0.7748  0.0444
 6360SOL    HW119979   2.723   6.306   2.878  0.4920  0.5124 -1.0129
 6360SOL    HW219980   2.602   6.217   2.814  0.9840 -0.1949 -0.9766
 6361SOL     OW19981   1.388   5.612   2.672  0.3655 -0.2256 -0.6364
 6361SOL    HW119982   1.424   5.602   2.579  0.0912 -1.2517 -0.6466
 6361SOL    HW219983   1.293   5.582   2.674 -0.1177  1.2584 -0.3366
 6362SOL     OW19984   1.412   5.867   1.974  0.0058  0.0276  0.4407
 6362SOL    HW119985   1.485   5.888   2.039 -0.0723  0.6211  0.3416
 6362SOL    HW219986   1.439   5.789   1.917  0.9136  0.7602 -0.1543
 6363SOL     OW19987   0.815   1.326   3.880 -0.6387  0.3577 -1.1573
 6363SOL    HW119988   0.897   1.338   3.825 -0.7415  0.6692 -1.2485
 6363SOL    HW219989   0.744   1.281   3.825 -0.0161 -1.3946 -0.5969
 6364SOL     OW19990   4.119   4.651   5.594  0.0087  0.3292  0.5989
 6364SOL    HW119991   4.042   4.714   5.594 -1.1250 -1.0181  0.8694
 6364SOL    HW219992   4.133   4.615   5.501  0.2148  0.4484  0.5827
 6365SOL     OW19993   6.702   0.855   5.134 -0.1884  0.0764 -0.1356
 6365SOL    HW119994   6.641   0.890   5.064 -1.1925  1.0803  1.1968
 6365SOL    HW219995   6.682   0.758   5.150 -0.0102 -0.1379 -1.1449
 6366SOL     OW19996   6.193   3.534   2.318  0.1083  0.7639  0.1595
 6366SOL    HW119997   6.165   3.611   2.376  0.3129  0.7523  0.2728
 6366SOL    HW219998   6.115   3.472   2.305  0.6232 -0.4142  2.2450
 6367SOL     OW19999   2.404   1.649   1.841 -0.3129 -0.3413  0.1069
 6367SOL    HW120000   2.464   1.715   1.887 -0.5284 -0.8427  1.1322
 6367SOL    HW220001   2.447   1.559   1.844 -0.4845 -0.4396 -0.3896
 6368SOL     OW20002   4.146   0.764   4.712  0.7873  0.3521  0.0907
 6368SOL    HW120003   4.218   0.820   4.670  0.8768 -0.4910 -0.9176
 6368SOL    HW220004   4.184   0.675   4.737 -0.1651 -0.5736 -1.5926
 6369SOL     OW20005   4.055   0.331   1.659  0.0883 -0.0773 -0.0458
 6369SOL    HW120006   4.059   0.231   1.661 -1.0250 -0.1845 -1.4567
 6369SOL    HW220007   4.116   0.365   1.587 -0.7895  0.1228 -0.7207
 6370SOL     OW20008   3.392   6.935   5.822 -0.0813 -0.2842  0.3297
 6370SOL    HW120009   3.302   6.958   5.784  0.1762 -1.2588 -0.9538
 6370SOL    HW220010   3.463   6.958   5.755  0.6941  0.8119  1.4665
 6371SOL     OW20011   5.014   1.449   0.865  0.0511 -0.1605 -0.7672
 6371SOL    HW120012   5.070   1.451   0.782 -0.0068 -0.0357 -0.8031
 6371SOL    HW220013   5.070   1.419   0.942  0.4538  1.0050 -0.5844
 6372SOL     OW20014   3.207   5.026   2.901 -0.2725 -0.2069 -0.4182
 6372SOL    HW120015   3.240   5.116   2.872 -2.3358  1.5617  2.2824
 6372SOL    HW220016   3.164   4.980   2.822 -1.4300  2.2846 -1.3539
 6373SOL     OW20017   1.200   3.332   1.545  0.7109 -0.7829 -0.0736
 6373SOL    HW120018   1.164   3.348   1.453  0.3092  0.6544  0.3096
 6373SOL    HW220019   1.125   3.304   1.605  0.2060  1.6991  0.5992
 6374SOL     OW20020   1.978   1.223   4.414 -0.3342  0.0509 -0.1712
 6374SOL    HW120021   1.907   1.199   4.348 -0.5696  0.9149 -0.2535
 6374SOL    HW220022   1.943   1.210   4.507 -1.0666  1.6476 -0.1896
 6375SOL     OW20023   4.057   4.568   5.957  0.1020  0.1029 -0.6330
 6375SOL    HW120024   4.059   4.527   6.048 -0.1659 -0.1649 -0.7435
 6375SOL    HW220025   4.044   4.496   5.888  1.4383  0.1710 -0.9774
 6376SOL     OW20026   2.028   5.254   1.813  0.2046 -0.0827 -0.1926
 6376SOL    HW120027   2.072   5.215   1.894  0.7825 -0.1805 -0.5522
 6376SOL    HW220028   1.931   5.228   1.812  0.2912 -0.4305  0.2467
 6377SOL     OW20029   1.176   4.577   4.036 -0.0778  0.4782  0.0752
 6377SOL    HW120030   1.211   4.603   3.946 -0.1606 -2.1539 -0.8028
 6377SOL    HW220031   1.126   4.491   4.029  0.1848  0.0204  2.6848
 6378SOL     OW20032   0.652   1.025   1.988  0.2263  0.0649  0.2178
 6378SOL    HW120033   0.636   1.062   2.080  0.7205  0.2485  0.2316
 6378SOL    HW220034   0.748   1.000   1.978  0.3589  0.8294 -0.5315
 6379SOL     OW20035   6.440   7.013   3.681  0.1363  0.1791 -0.4839
 6379SOL    HW120036   6.467   7.025   3.777 -0.2375  0.0308 -0.3603
 6379SOL    HW220037   6.477   7.088   3.626 -0.5743  0.8686 -0.0387
 6380SOL     OW20038   4.107   4.263   6.096  0.1507 -0.0239 -0.2214
 6380SOL    HW120039   4.137   4.320   6.019 -1.3032  2.8273  1.1724
 6380SOL    HW220040   4.186   4.239   6.152  0.7034  1.6299 -0.2428
 6381SOL     OW20041   4.478   4.458   3.666 -0.7560  0.4039  0.0793
 6381SOL    HW120042   4.559   4.509   3.637 -1.2821  1.2712  0.1066
 6381SOL    HW220043   4.506   4.368   3.699  0.1672  0.5889 -0.1642
 6382SOL     OW20044   2.193   0.690   2.107  0.1498 -0.4413 -0.2990
 6382SOL    HW120045   2.277   0.696   2.161  1.3602 -2.4070 -1.8602
 6382SOL    HW220046   2.197   0.755   2.031 -0.0785 -0.0179  0.0486
 6383SOL     OW20047   2.003   2.258   0.836  0.1448 -0.6155 -0.5298
 6383SOL    HW120048   1.969   2.296   0.750  0.3694  0.1837 -0.2764
 6383SOL    HW220049   2.048   2.330   0.888 -0.4134 -0.9868  0.4793
 6384SOL     OW20050   5.986   0.706   4.016 -0.6841  0.8191 -0.2547
 6384SOL    HW120051   5.985   0.640   3.941 -2.3057 -0.0366  0.4669
 6384SOL    HW220052   6.080   0.721   4.047 -0.1766 -0.2026 -1.2436
 6385SOL     OW20053   0.129   6.557   0.622 -0.1626 -0.5449 -0.0374
 6385SOL    HW120054   0.129   6.606   0.709  0.9161 -2.0095  0.8391
 6385SOL    HW220055   0.222   6.551   0.587 -0.1169 -2.5336  0.2710
 6386SOL     OW20056   5.308   3.300   2.038 -0.3369  0.5743  0.0615
 6386SOL    HW120057   5.369   3.248   2.097  0.1513  1.5447  0.4452
 6386SOL    HW220058   5.363   3.358   1.977 -0.8263  2.5429  1.3940
 6387SOL     OW20059   2.133   3.999   0.752 -0.1861  0.2086 -0.0987
 6387SOL    HW120060   2.065   3.928   0.771 -0.5164  0.6604  0.4765
 6387SOL    HW220061   2.098   4.087   0.786  1.0175  0.3203  0.9273
 6388SOL     OW20062   4.121   1.398   5.038 -0.0635  0.4747 -0.2860
 6388SOL    HW120063   4.035   1.418   5.085 -0.8426 -2.5956 -0.2271
 6388SOL    HW220064   4.114   1.426   4.942 -1.7858 -1.1528 -0.6814
 6389SOL     OW20065   4.056   0.870   6.680 -0.1966 -0.7016  0.2206
 6389SOL    HW120066   4.149   0.834   6.687 -0.6160 -1.8177  0.2543
 6389SOL    HW220067   4.058   0.958   6.632  0.9779 -0.2328  1.0923
 6390SOL     OW20068   3.269   1.457   1.974 -0.7907 -0.2124  0.2472
 6390SOL    HW120069   3.308   1.374   1.934 -0.6853 -0.1028  0.1232
 6390SOL    HW220070   3.302   1.467   2.068 -0.2330  0.0701  0.0265
 6391SOL     OW20071   0.859   2.822   5.005  0.4911  0.3192 -0.0543
 6391SOL    HW120072   0.893   2.741   5.052  0.9674  1.5102  1.7471
 6391SOL    HW220073   0.934   2.867   4.957  0.7235  0.9228  0.8515
 6392SOL     OW20074   5.938   5.200   3.654  0.5006  0.1971 -0.1811
 6392SOL    HW120075   5.967   5.294   3.674 -0.4033  0.7629 -1.4421
 6392SOL    HW220076   5.852   5.201   3.604 -1.6335 -1.4022  3.0701
 6393SOL     OW20077   0.715   4.901   5.505 -0.1711  0.3654 -0.7311
 6393SOL    HW120078   0.696   4.966   5.579  1.4651  1.1642 -0.9676
 6393SOL    HW220079   0.691   4.943   5.418  2.5201  1.4399 -1.0469
 6394SOL     OW20080   3.940   4.789   6.683 -0.1059 -0.5886 -0.1828
 6394SOL    HW120081   3.972   4.780   6.589 -1.2723  2.1132 -0.9454
 6394SOL    HW220082   3.910   4.700   6.717  0.3159 -1.6261 -2.3669
 6395SOL     OW20083   5.734   2.512   6.607 -0.3612 -0.0135  0.3409
 6395SOL    HW120084   5.801   2.583   6.627 -2.3944  2.2545 -0.4213
 6395SOL    HW220085   5.699   2.473   6.692  0.5798  0.0704  0.7715
 6396SOL     OW20086   1.889   2.464   2.742 -0.3690  0.0821 -0.3948
 6396SOL    HW120087   1.953   2.424   2.676 -0.8461  1.3829 -1.6996
 6396SOL    HW220088   1.922   2.554   2.769 -0.8795  0.1169  0.1088
 6397SOL     OW20089   6.675   4.899   0.782 -0.2048  0.4089 -0.3146
 6397SOL    HW120090   6.596   4.843   0.806  0.4531 -0.3870  0.0345
 6397SOL    HW220091   6.726   4.922   0.865  0.9371 -0.6168 -0.7030
 6398SOL     OW20092   0.092   0.277   1.583  0.1467  0.1733 -0.0418
 6398SOL    HW120093   0.074   0.279   1.484 -0.5443  0.3002  0.0821
 6398SOL    HW220094   0.173   0.332   1.603  0.5680 -0.2338 -0.5914
 6399SOL     OW20095   5.559   4.629   4.357  0.4206  0.5637 -0.0711
 6399SOL    HW120096   5.463   4.606   4.345 -0.6816  3.6643  1.4996
 6399SOL    HW220097   5.588   4.606   4.450  0.6926  1.0302 -0.0328
 6400SOL     OW20098   6.692   6.148   2.709 -0.5489  0.7057  0.2924
 6400SOL    HW120099   6.691   6.057   2.666  1.1416  0.1924  1.2657
 6400SOL    HW220100   6.700   6.218   2.638  1.5792 -0.0984 -0.3291
 6401SOL     OW20101   6.937   0.502   4.525  0.1728 -0.6421  0.2869
 6401SOL    HW120102   6.963   0.595   4.500 -0.9962 -0.4782 -0.4093
 6401SOL    HW220103   6.919   0.497   4.623 -0.0689 -0.0536  0.2755
 6402SOL     OW20104   3.563   6.037   6.110 -0.5117  0.3198  0.5159
 6402SOL    HW120105   3.640   5.989   6.152 -1.0478 -0.9721  0.0743
 6402SOL    HW220106   3.477   6.001   6.146 -1.0705 -2.0538 -2.7450
 6403SOL     OW20107   3.969   1.511   2.878 -0.1777 -0.4653 -0.1985
 6403SOL    HW120108   4.035   1.442   2.911  0.9472  0.6502 -0.0584
 6403SOL    HW220109   3.967   1.588   2.941  0.1552  0.5949 -1.4534
 6404SOL     OW20110   3.678   3.206   0.620 -0.1080 -0.1310 -0.0366
 6404SOL    HW120111   3.597   3.212   0.678  0.3032 -0.3016  0.5643
 6404SOL    HW220112   3.757   3.179   0.676  0.5017  0.6903 -0.4841
 6405SOL     OW20113   6.029   3.399   6.731 -0.0465  0.2333 -0.6654
 6405SOL    HW120114   6.116   3.373   6.690  0.3382  2.2654 -1.2387
 6405SOL    HW220115   5.973   3.317   6.745  0.6171 -0.7915 -3.3309
 6406SOL     OW20116   5.987   6.321   4.516 -0.5524  0.2521  0.0795
 6406SOL    HW120117   6.061   6.362   4.463 -1.2861  0.1444 -1.0515
 6406SOL    HW220118   5.976   6.371   4.602  0.9674  0.1267  0.3666
 6407SOL     OW20119   6.645   6.372   1.424  0.4409 -0.2871 -0.0641
 6407SOL    HW120120   6.586   6.335   1.353 -0.4140  0.3786  0.2779
 6407SOL    HW220121   6.731   6.321   1.427  0.7445  0.0717 -1.9671
 6408SOL     OW20122   3.681   4.400   6.330 -0.6935  0.5978 -0.0686
 6408SOL    HW120123   3.690   4.420   6.232 -0.9450 -1.2667 -0.5141
 6408SOL    HW220124   3.725   4.313   6.350  1.1715  1.9065  1.9169
 6409SOL     OW20125   1.932   2.634   3.439 -0.3597  0.7639  0.0384
 6409SOL    HW120126   1.974   2.581   3.512 -0.3123  0.2080 -0.3863
 6409SOL    HW220127   1.876   2.574   3.382 -0.5101  1.2160 -0.2966
 6410SOL     OW20128   6.408   6.609   5.201  0.7749  0.5989 -0.0348
 6410SOL    HW120129   6.402   6.547   5.123  1.1711 -0.2593  0.5993
 6410SOL    HW220130   6.407   6.556   5.286  1.6256  1.4268  0.5081
 6411SOL     OW20131   2.886   3.379   3.928 -0.1351 -0.1380 -0.3067
 6411SOL    HW120132   2.938   3.388   3.843  1.3475  0.9911  0.6665
 6411SOL    HW220133   2.858   3.470   3.959 -0.7744 -0.5481  0.3424
 6412SOL     OW20134   3.754   6.083   6.453  0.5932  0.1544  0.2799
 6412SOL    HW120135   3.763   6.152   6.382  0.4186 -0.4632 -0.3590
 6412SOL    HW220136   3.661   6.084   6.489  0.7247  0.5734  0.6228
 6413SOL     OW20137   6.692   1.898   2.986 -0.7181 -0.0147 -0.5055
 6413SOL    HW120138   6.637   1.947   3.054  1.4953  0.7047  0.8668
 6413SOL    HW220139   6.776   1.864   3.029 -1.0506 -3.0456 -1.9637
 6414SOL     OW20140   0.644   6.027   0.042 -0.3616  0.5879  0.1461
 6414SOL    HW120141   0.674   5.936   0.070  1.4805  1.1270  0.0783
 6414SOL    HW220142   0.650   6.089   0.120 -1.1533  0.7486  0.0779
 6415SOL     OW20143   6.134   4.047   1.640  0.3364 -0.5573  0.2246
 6415SOL    HW120144   6.096   4.093   1.560  0.3881 -0.1112  0.4532
 6415SOL    HW220145   6.231   4.030   1.625  0.2008 -1.0846 -0.0811
 6416SOL     OW20146   0.892   1.073   3.578  0.9076  0.2408 -0.2581
 6416SOL    HW120147   0.798   1.039   3.584  0.2271  2.0179 -0.0990
 6416SOL    HW220148   0.948   1.028   3.648  0.1441 -0.7126 -0.2341
 6417SOL     OW20149   0.486   6.017   1.612  0.8669 -0.2757 -0.0394
 6417SOL    HW120150   0.530   5.928   1.598  1.9828  0.2831 -0.2077
 6417SOL    HW220151   0.387   6.005   1.620  0.9970 -1.5161 -0.1561
 6418SOL     OW20152   5.953   5.040   5.550 -0.2083 -0.0094  0.2584
 6418SOL    HW120153   5.983   5.130   5.584  0.4427  0.5644 -1.7071
 6418SOL    HW220154   5.886   5.053   5.477 -2.4333 -1.2289  1.9508
 6419SOL     OW20155   3.740   5.541   6.122 -0.3819 -0.2102 -0.1252
 6419SOL    HW120156   3.775   5.593   6.200  0.8499 -0.5055 -0.4596
 6419SOL    HW220157   3.801   5.465   6.103 -0.4464  0.0910 -1.6287
 6420SOL     OW20158   3.306   2.930   2.935  0.5498  0.4800 -0.3155
 6420SOL    HW120159   3.268   2.927   2.843 -1.2208  3.5865  0.1697
 6420SOL    HW220160   3.387   2.989   2.937  0.7200  0.2403  0.0620
 6421SOL     OW20161   1.240   4.838   1.445 -0.0293  0.0777 -0.8218
 6421SOL    HW120162   1.226   4.937   1.450  0.3376  0.1070 -0.2079
 6421SOL    HW220163   1.336   4.818   1.424  0.2887 -0.1454  0.7111
 6422SOL     OW20164   5.687   2.791   1.006 -0.3186  0.0765  0.5066
 6422SOL    HW120165   5.617   2.850   1.046 -0.1283  1.1672 -0.7018
 6422SOL    HW220166   5.723   2.834   0.923  0.1666 -1.5360 -0.1530
 6423SOL     OW20167   6.260   1.970   6.369 -0.6142  0.3131  0.1106
 6423SOL    HW120168   6.240   1.908   6.293  0.2839  0.6102 -0.3760
 6423SOL    HW220169   6.288   2.059   6.334  3.2938 -0.5378  0.5966
 6424SOL     OW20170   4.435   3.176   0.083  0.0001  0.0829 -0.0554
 6424SOL    HW120171   4.412   3.167   0.180  0.6767 -0.3779  0.0698
 6424SOL    HW220172   4.353   3.200   0.031 -0.2282  1.0329  0.7246
 6425SOL     OW20173   3.165   4.914   4.116  0.1754 -0.2675  0.5934
 6425SOL    HW120174   3.150   4.916   4.215 -0.8125 -3.6301  0.6446
 6425SOL    HW220175   3.079   4.934   4.069 -0.0047 -1.1712  0.5119
 6426SOL     OW20176   2.869   6.507   6.815 -0.1434  0.2730  0.4900
 6426SOL    HW120177   2.925   6.570   6.868  0.7415  1.0095 -1.2228
 6426SOL    HW220178   2.809   6.559   6.755 -0.4693 -0.5159  0.1240
 6427SOL     OW20179   2.019   4.299   3.218  0.3977  0.1421 -0.5282
 6427SOL    HW120180   2.110   4.339   3.226  0.8293 -1.0617  1.5437
 6427SOL    HW220181   2.025   4.211   3.171  0.3970 -0.1296 -0.0315
 6428SOL     OW20182   0.761   0.060   3.950  0.5852 -0.1557 -0.2832
 6428SOL    HW120183   0.763   0.026   4.044  0.2295  0.9028  0.1293
 6428SOL    HW220184   0.688   0.128   3.941  1.7451  1.0567 -0.8524
 6429SOL     OW20185   2.603   1.999   4.147  0.5126 -0.1294  0.4969
 6429SOL    HW120186   2.573   1.933   4.078  1.0076 -0.2401  0.3791
 6429SOL    HW220187   2.568   1.971   4.237  0.5155 -0.4235  0.4096
 6430SOL     OW20188   4.008   0.684   5.317  0.3500  0.2620 -0.1929
 6430SOL    HW120189   4.006   0.667   5.415 -1.4452 -0.2160 -0.2826
 6430SOL    HW220190   4.037   0.601   5.269 -1.2117 -0.3343 -0.1789
 6431SOL     OW20191   5.067   4.473   6.819  0.3464  0.2742 -0.2938
 6431SOL    HW120192   5.140   4.541   6.811 -0.1311  0.8913  0.4523
 6431SOL    HW220193   5.050   4.432   6.730  1.3316  0.4059 -0.5524
 6432SOL     OW20194   1.471   1.444   6.105  0.3248 -0.1146  0.0360
 6432SOL    HW120195   1.405   1.463   6.177 -0.9267 -0.5721 -0.9633
 6432SOL    HW220196   1.557   1.415   6.146 -0.6326 -1.2173  1.3298
 6433SOL     OW20197   2.423   4.350   1.864 -0.6286  0.1186 -0.3847
 6433SOL    HW120198   2.507   4.384   1.821 -0.2962 -1.6564 -1.2755
 6433SOL    HW220199   2.396   4.264   1.820 -3.3125  0.9642 -0.5749
 6434SOL     OW20200   2.636   6.580   5.278  0.1192 -0.1536 -0.2138
 6434SOL    HW120201   2.643   6.668   5.325  0.4057 -0.0767 -0.3977
 6434SOL    HW220202   2.597   6.512   5.339 -0.9111  0.3124 -0.3327
 6435SOL     OW20203   5.859   4.455   4.559 -0.1459 -0.5539 -0.1656
 6435SOL    HW120204   5.826   4.521   4.628  1.9457 -1.1433  1.5345
 6435SOL    HW220205   5.893   4.505   4.480 -0.3315  0.3107  0.2791
 6436SOL     OW20206   5.262   4.828   5.003  0.3465 -0.0350 -0.3019
 6436SOL    HW120207   5.259   4.751   5.067 -0.7037  1.5103  1.6230
 6436SOL    HW220208   5.174   4.875   5.003  0.7634  0.8386 -1.9011
 6437SOL     OW20209   5.220   0.832   6.651 -0.2704  0.0594 -0.1797
 6437SOL    HW120210   5.234   0.740   6.689 -0.5072  0.7788  1.7502
 6437SOL    HW220211   5.130   0.866   6.677 -0.0840  0.9457 -0.6459
 6438SOL     OW20212   0.628   3.007   1.898  0.7115 -0.5598  0.5048
 6438SOL    HW120213   0.569   3.013   1.979  1.6360  0.2044  1.1584
 6438SOL    HW220214   0.706   2.947   1.919  0.4847 -1.0935 -0.1485
 6439SOL     OW20215   0.433   4.616   4.516 -0.4102 -0.1284  0.0927
 6439SOL    HW120216   0.363   4.581   4.453  0.3632  0.0654 -0.8853
 6439SOL    HW220217   0.388   4.671   4.587 -1.2327  0.2705 -0.7106
 6440SOL     OW20218   3.119   6.188   6.384  0.2074  0.2842  0.0891
 6440SOL    HW120219   3.096   6.281   6.414 -0.9478 -0.1137  0.4748
 6440SOL    HW220220   3.075   6.169   6.296 -1.6729 -0.7512  1.1983
 6441SOL     OW20221   3.555   4.337   5.540  0.3356 -0.3560  0.3951
 6441SOL    HW120222   3.603   4.407   5.592  0.4666  0.8794 -1.2728
 6441SOL    HW220223   3.618   4.262   5.520  0.2664 -0.8720  1.9962
 6442SOL     OW20224   4.147   4.866   3.340  0.6524 -0.2202  0.1834
 6442SOL    HW120225   4.135   4.899   3.246  0.0610 -0.5156  0.1515
 6442SOL    HW220226   4.236   4.821   3.349  0.2465 -1.1892 -0.5314
 6443SOL     OW20227   2.109   2.209   4.316 -0.1577  0.6492  0.0708
 6443SOL    HW120228   2.033   2.162   4.271  0.0524 -0.0543  0.4382
 6443SOL    HW220229   2.192   2.199   4.261  0.3025 -0.9494  1.0008
 6444SOL     OW20230   3.751   5.821   3.333 -0.0492  0.1909  0.5220
 6444SOL    HW120231   3.763   5.884   3.410 -1.5288  1.4110 -0.1971
 6444SOL    HW220232   3.724   5.731   3.367 -2.9377  1.2878  1.4199
 6445SOL     OW20233   2.456   4.642   6.357  0.3430 -0.2385 -0.1575
 6445SOL    HW120234   2.498   4.581   6.290  0.1619 -0.2292 -0.2819
 6445SOL    HW220235   2.447   4.594   6.444 -0.5302 -0.6713 -0.4684
 6446SOL     OW20236   1.843   3.990   5.325 -0.0220 -0.2461 -0.0585
 6446SOL    HW120237   1.774   4.059   5.346  1.1131  1.2911 -1.1143
 6446SOL    HW220238   1.821   3.905   5.372 -1.5631  0.7775  1.1674
 6447SOL     OW20239   4.339   0.568   6.405 -0.0703  0.3245 -0.5331
 6447SOL    HW120240   4.374   0.507   6.477  1.2485  2.3079  0.6034
 6447SOL    HW220241   4.396   0.558   6.324 -1.6093 -1.9813 -1.4321
 6448SOL     OW20242   5.089   1.616   0.086  0.4109  0.3902  0.0041
 6448SOL    HW120243   5.089   1.699   0.030  0.3254  0.5167  0.1857
 6448SOL    HW220244   5.130   1.541   0.036 -1.6313 -0.0770 -1.0766
 6449SOL     OW20245   1.550   6.184   2.022  0.3088 -0.2774  0.1382
 6449SOL    HW120246   1.602   6.171   1.937 -1.2964  1.1433 -1.1259
 6449SOL    HW220247   1.456   6.154   2.008 -0.0210  0.1155  1.3871
 6450SOL     OW20248   6.365   0.769   1.143  0.1560 -0.2580  0.2792
 6450SOL    HW120249   6.321   0.732   1.225  0.6669 -1.1686  0.1582
 6450SOL    HW220250   6.464   0.770   1.157  0.1542  1.8292  0.5772
 6451SOL     OW20251   2.531   6.510   4.519  0.2193  0.4620 -0.4089
 6451SOL    HW120252   2.586   6.434   4.485 -1.5025 -1.4514  0.8239
 6451SOL    HW220253   2.575   6.596   4.497  2.7779 -0.9129 -0.9924
 6452SOL     OW20254   6.786   3.357   1.729  0.0723  0.0465  0.5692
 6452SOL    HW120255   6.843   3.393   1.803  0.3846 -1.2968  1.0039
 6452SOL    HW220256   6.795   3.258   1.725 -0.3361  0.0478 -0.9623
 6453SOL     OW20257   5.260   0.010   3.394  0.5060  0.3845  0.2943
 6453SOL    HW120258   5.298   0.026   3.303 -0.7640 -1.5964 -0.6426
 6453SOL    HW220259   5.335  -0.001   3.460  1.5449 -0.8653 -1.0238
 6454SOL     OW20260   4.852   6.992   3.701  0.0645 -0.4599  0.2521
 6454SOL    HW120261   4.905   6.914   3.667  2.1173  0.4811  1.0792
 6454SOL    HW220262   4.866   7.070   3.640 -0.3218 -0.1786  0.5226
 6455SOL     OW20263   0.724   0.239   3.330  0.6266  0.0545 -0.1439
 6455SOL    HW120264   0.663   0.180   3.277  1.0331 -1.5490  1.0641
 6455SOL    HW220265   0.818   0.228   3.297  0.7639 -0.3122  0.3616
 6456SOL     OW20266   3.733   5.923   4.473 -0.2203  0.6949  0.0416
 6456SOL    HW120267   3.734   5.877   4.562 -1.1159  3.2793  1.4715
 6456SOL    HW220268   3.818   5.974   4.461  0.9716 -1.4893 -1.7423
 6457SOL     OW20269   5.448   0.638   6.837 -0.3234 -0.7526  0.0922
 6457SOL    HW120270   5.450   0.614   6.934  1.2405 -0.4853  0.1537
 6457SOL    HW220271   5.540   0.663   6.807 -1.2194  1.8765 -0.7667
 6458SOL     OW20272   0.977   6.031   1.644  0.0471 -0.4608  0.1040
 6458SOL    HW120273   0.947   5.983   1.561 -2.3526 -1.9546  1.6857
 6458SOL    HW220274   1.039   5.972   1.696 -0.8324 -0.7973  0.7911
 6459SOL     OW20275   2.833   4.034   5.425  0.0037 -0.2561 -0.4356
 6459SOL    HW120276   2.836   4.111   5.489 -1.7612 -1.6273  1.4347
 6459SOL    HW220277   2.741   4.025   5.388  0.1924 -1.4349 -0.6581
 6460SOL     OW20278   3.934   0.984   6.279 -0.1345 -0.2888  0.2322
 6460SOL    HW120279   4.012   1.045   6.266 -0.6590  0.3971  0.2561
 6460SOL    HW220280   3.857   1.036   6.315 -1.0531 -0.6391 -1.1344
 6461SOL     OW20281   6.211   5.857   3.670  0.0377 -0.5894 -0.3736
 6461SOL    HW120282   6.241   5.779   3.615  0.9698 -0.5042 -0.0167
 6461SOL    HW220283   6.288   5.888   3.727 -1.4911 -2.2560  2.9068
 6462SOL     OW20284   6.849   2.048   6.011 -0.4058  0.2561 -0.7312
 6462SOL    HW120285   6.933   2.101   6.012 -2.2068  3.3849  1.1109
 6462SOL    HW220286   6.786   2.084   6.080 -2.7077 -2.9501 -0.9268
 6463SOL     OW20287   3.824   3.925   4.376  0.4330  0.9061  0.1584
 6463SOL    HW120288   3.762   3.874   4.316 -1.1356  1.3760  1.2989
 6463SOL    HW220289   3.915   3.883   4.375  0.0162 -0.0082 -1.3197
 6464SOL     OW20290   1.540   4.491   3.647 -0.6386  0.1051 -0.0596
 6464SOL    HW120291   1.577   4.450   3.564 -0.8064 -2.0162  0.8433
 6464SOL    HW220292   1.569   4.587   3.653  3.5605 -0.9598 -0.1572
 6465SOL     OW20293   0.762   0.697   3.464  0.1438 -0.9552  0.1128
 6465SOL    HW120294   0.756   0.653   3.375 -0.0267  1.2404 -1.0410
 6465SOL    HW220295   0.855   0.687   3.500  1.6645  1.8867 -2.5141
 6466SOL     OW20296   1.637   2.277   6.157 -0.7727 -1.0383  0.3722
 6466SOL    HW120297   1.638   2.305   6.062  0.4917 -1.5158  0.2259
 6466SOL    HW220298   1.701   2.333   6.210 -0.2918 -1.7891  0.6136
 6467SOL     OW20299   4.564   4.480   4.323 -0.1702 -0.0544  0.3250
 6467SOL    HW120300   4.660   4.503   4.305 -0.5866  1.5275 -0.0126
 6467SOL    HW220301   4.556   4.440   4.414  0.5895  1.4886  1.1137
 6468SOL     OW20302   5.701   5.463   5.359  0.0016  0.1853  0.5829
 6468SOL    HW120303   5.650   5.509   5.287  0.7200  2.0293  1.2100
 6468SOL    HW220304   5.795   5.445   5.328  0.5817  1.7801  1.3104
 6469SOL     OW20305   5.428   2.783   5.998 -0.3462  0.1501 -0.2735
 6469SOL    HW120306   5.417   2.830   6.086 -1.3293 -1.3449  0.4500
 6469SOL    HW220307   5.425   2.850   5.924 -0.9710  1.2934  0.7433
 6470SOL     OW20308   2.090   3.663   2.557 -0.0872  0.8514  0.5486
 6470SOL    HW120309   2.125   3.702   2.472  0.9778  1.7703  1.3650
 6470SOL    HW220310   2.111   3.566   2.560  2.4395  1.3322  0.9440
 6471SOL     OW20311   1.708   0.951   5.204 -0.5858 -0.0865  0.4173
 6471SOL    HW120312   1.796   0.909   5.225  0.1264  1.7291  1.2666
 6471SOL    HW220313   1.642   0.927   5.276 -0.1714  0.2967  0.9310
 6472SOL     OW20314   0.044   6.081   4.931  0.2938 -0.4156 -0.0481
 6472SOL    HW120315  -0.040   6.086   4.878  1.0729  1.9894 -1.1831
 6472SOL    HW220316   0.036   6.140   5.012  1.6073  1.6553 -1.3515
 6473SOL     OW20317   0.610   4.590   0.834  0.4545  0.2065  0.6494
 6473SOL    HW120318   0.524   4.623   0.873  0.0550  0.1377 -0.1489
 6473SOL    HW220319   0.671   4.667   0.819 -0.1159  0.4752 -0.3343
 6474SOL     OW20320   6.288   1.239   5.911 -0.2462 -0.2155  0.5710
 6474SOL    HW120321   6.297   1.313   5.978 -1.3214 -0.4383  0.9801
 6474SOL    HW220322   6.202   1.249   5.861  0.2429 -0.4186 -0.3439
 6475SOL     OW20323   6.902   5.504   2.710 -0.4457  0.1017 -0.4140
 6475SOL    HW120324   6.821   5.543   2.753 -1.6756 -1.7580 -0.9141
 6475SOL    HW220325   6.917   5.545   2.621 -0.2279  1.1590  0.0977
 6476SOL     OW20326   3.860   6.930   3.406  0.9403 -0.8843 -0.2125
 6476SOL    HW120327   3.882   6.941   3.309  1.8696  3.7002  0.2807
 6476SOL    HW220328   3.761   6.937   3.419  0.9861  1.7202 -0.7097
 6477SOL     OW20329   5.252   2.258   1.614  0.2010 -0.2952  0.0972
 6477SOL    HW120330   5.289   2.267   1.706  0.0498  1.2109  0.0416
 6477SOL    HW220331   5.326   2.266   1.547 -0.1281  3.5329 -0.0475
 6478SOL     OW20332   0.713   5.778   3.801  0.1039  0.5106  0.5029
 6478SOL    HW120333   0.768   5.812   3.877 -1.2523  2.5197  0.6707
 6478SOL    HW220334   0.754   5.695   3.764  2.5843  1.2811  1.3365
 6479SOL     OW20335   4.446   6.660   6.814  0.5580  0.2839  0.2135
 6479SOL    HW120336   4.536   6.618   6.802  1.0019  1.1539  0.4108
 6479SOL    HW220337   4.400   6.666   6.725  0.2657 -1.0619  0.2491
 6480SOL     OW20338   0.653   6.191   1.093  0.1053  0.0203 -0.0445
 6480SOL    HW120339   0.583   6.122   1.110  0.3707 -0.4312 -0.7730
 6480SOL    HW220340   0.718   6.191   1.169  0.2330 -0.6844 -0.1522
 6481SOL     OW20341   1.691   3.287   4.031 -0.0101  0.1059  0.1484
 6481SOL    HW120342   1.717   3.356   3.964 -1.2570 -0.7134 -1.2415
 6481SOL    HW220343   1.731   3.199   4.006 -1.1131 -0.3751  0.0056
 6482SOL     OW20344   2.441   4.485   3.531 -0.2170  0.0232 -0.4186
 6482SOL    HW120345   2.360   4.542   3.539 -0.2804 -0.1276  0.0646
 6482SOL    HW220346   2.508   4.530   3.473  0.5620  1.5711  1.5385
 6483SOL     OW20347   5.096   6.206   6.584  0.1444  0.0349 -0.7220
 6483SOL    HW120348   5.050   6.133   6.534  1.4210  0.2996 -2.3787
 6483SOL    HW220349   5.074   6.294   6.541  1.0281  0.3078 -0.6183
 6484SOL     OW20350   3.580   0.774   5.325  0.3508 -0.0036  0.0610
 6484SOL    HW120351   3.556   0.755   5.230  0.0152 -0.6148  0.2601
 6484SOL    HW220352   3.497   0.776   5.380  0.4060  1.6508  0.1364
 6485SOL     OW20353   2.155   2.839   4.410  0.2848  0.4005 -0.0279
 6485SOL    HW120354   2.220   2.856   4.336 -2.5527  0.5403 -2.6855
 6485SOL    HW220355   2.184   2.758   4.462  2.3394  0.2652 -1.2741
 6486SOL     OW20356   1.934   0.109   0.603 -0.1139  0.8849 -0.2836
 6486SOL    HW120357   1.850   0.096   0.656 -2.1313  0.5652 -3.3359
 6486SOL    HW220358   1.982   0.022   0.594 -0.9428  0.4686 -0.8069
 6487SOL     OW20359   3.399   1.612   5.850  0.1021  0.0693  0.4018
 6487SOL    HW120360   3.427   1.638   5.943  1.9930 -0.6028  0.0615
 6487SOL    HW220361   3.331   1.539   5.855  0.6709 -0.4296  1.2761
 6488SOL     OW20362   3.847   2.996   4.378 -0.2485  0.2215 -0.0517
 6488SOL    HW120363   3.861   2.909   4.427 -2.1005 -0.5434 -0.7816
 6488SOL    HW220364   3.765   3.041   4.412 -0.3302  0.7704 -0.9339
 6489SOL     OW20365   5.674   2.285   2.565  0.4143 -0.4739 -0.0121
 6489SOL    HW120366   5.729   2.280   2.481  0.1647 -2.3250 -0.1204
 6489SOL    HW220367   5.677   2.196   2.611 -2.3209 -0.5800  0.0942
 6490SOL     OW20368   2.283   3.616   0.023 -0.2098 -0.3515  0.2133
 6490SOL    HW120369   2.287   3.642   0.120 -0.5074 -0.0849  0.1560
 6490SOL    HW220370   2.374   3.628  -0.018 -0.1953  0.0147  0.3419
 6491SOL     OW20371   4.496   1.085   6.448  0.6711 -0.1260 -0.0547
 6491SOL    HW120372   4.451   1.171   6.473  1.3713  0.0578  0.6183
 6491SOL    HW220373   4.438   1.008   6.473  0.5494  0.1196  0.4191
 6492SOL     OW20374   6.386   5.691   4.904 -0.5010  0.7207 -0.7264
 6492SOL    HW120375   6.370   5.636   4.822  0.9440 -0.6479 -0.1510
 6492SOL    HW220376   6.469   5.746   4.892 -0.2642  0.4941 -0.1868
 6493SOL     OW20377   4.360   5.607   3.108  0.3342 -0.5829 -0.0653
 6493SOL    HW120378   4.449   5.649   3.088  0.9085 -2.1573 -1.0103
 6493SOL    HW220379   4.347   5.600   3.206  1.1152 -0.0462  0.0804
 6494SOL     OW20380   1.023   0.136   3.859 -0.2589  0.4375  0.1152
 6494SOL    HW120381   0.929   0.109   3.879  0.3343 -0.5431  1.7924
 6494SOL    HW220382   1.066   0.066   3.801 -0.3027  0.4660  0.0477
 6495SOL     OW20383   2.349   0.167   4.111 -0.6246  0.2390  0.1620
 6495SOL    HW120384   2.434   0.188   4.064  0.3302 -0.3373  1.5594
 6495SOL    HW220385   2.274   0.163   4.045  0.1765  2.0131 -0.9323
 6496SOL     OW20386   0.979   1.860   2.157  0.0149  1.0139  0.2618
 6496SOL    HW120387   1.007   1.837   2.250 -0.7586  0.5026  0.3789
 6496SOL    HW220388   1.003   1.786   2.095 -1.4279  0.3512  0.4418
 6497SOL     OW20389   4.997   3.868   6.032 -0.3507 -0.2638  0.1240
 6497SOL    HW120390   4.936   3.798   5.994  0.1933 -0.4849 -0.3457
 6497SOL    HW220391   4.973   3.957   5.994 -1.7935  0.0273  1.5683
 6498SOL     OW20392   2.743   1.696   0.775  0.1959 -0.4455 -0.3826
 6498SOL    HW120393   2.658   1.745   0.796  0.4929 -0.4427  0.9019
 6498SOL    HW220394   2.776   1.724   0.685 -0.3029  0.7993 -0.2043
 6499SOL     OW20395   0.892   6.574   0.016  0.2552 -0.0754  0.2824
 6499SOL    HW120396   0.899   6.659   0.068  1.9704 -0.0032 -0.0170
 6499SOL    HW220397   0.973   6.563  -0.041 -0.6677 -1.1468 -0.8892
 6500SOL     OW20398   6.142   3.513   3.657 -0.0982 -0.0586  0.1339
 6500SOL    HW120399   6.219   3.450   3.659  0.8309  1.0067  2.5126
 6500SOL    HW220400   6.102   3.520   3.749 -1.8041  0.8937 -0.6201
 6501SOL     OW20401   6.139   1.201   1.866  0.0148 -0.7189 -0.5501
 6501SOL    HW120402   6.169   1.227   1.774  0.7445  0.8120  0.0779
 6501SOL    HW220403   6.213   1.152   1.912  0.5835  0.6325  0.0329
 6502SOL     OW20404   5.216   5.717   6.178 -0.0165 -0.1859 -0.0631
 6502SOL    HW120405   5.163   5.682   6.101  0.6731 -0.4102 -0.4440
 6502SOL    HW220406   5.216   5.817   6.175 -0.2597 -0.1863 -0.1644
 6503SOL     OW20407   6.685   3.037   2.878 -0.2046 -0.0126  0.7586
 6503SOL    HW120408   6.704   3.135   2.871  0.4711 -0.2177 -0.5466
 6503SOL    HW220409   6.587   3.023   2.894 -0.4917  0.8501 -0.1475
 6504SOL     OW20410   3.703   1.698   3.801 -0.2480 -0.2032 -0.0036
 6504SOL    HW120411   3.634   1.681   3.871 -0.3150  0.4830  0.0957
 6504SOL    HW220412   3.729   1.794   3.802  1.1891 -0.5759  0.4055
 6505SOL     OW20413   0.855   5.394   6.223  0.3217 -0.1868  0.1364
 6505SOL    HW120414   0.916   5.343   6.163 -0.7144 -0.3437 -0.8128
 6505SOL    HW220415   0.863   5.492   6.205 -1.3036 -0.3116 -1.6317
 6506SOL     OW20416   6.586   4.176   2.712  0.0248 -0.5901  0.3288
 6506SOL    HW120417   6.592   4.137   2.804  0.1489  0.2297  0.6733
 6506SOL    HW220418   6.490   4.187   2.686 -0.0083 -0.2178  0.6172
 6507SOL     OW20419   2.601   0.760   5.992 -0.4449  0.5687 -0.3477
 6507SOL    HW120420   2.602   0.845   5.939  0.2942  1.0770  0.4602
 6507SOL    HW220421   2.606   0.682   5.929 -0.6361  1.1214 -1.0728
 6508SOL     OW20422   5.140   5.730   2.618 -0.0891 -0.3832 -0.0035
 6508SOL    HW120423   5.126   5.659   2.687 -0.5396 -2.3155 -1.9633
 6508SOL    HW220424   5.206   5.699   2.550 -2.2045 -0.1073 -2.3565
 6509SOL     OW20425   0.307   5.189   6.432 -0.4558 -0.0959 -0.1860
 6509SOL    HW120426   0.242   5.197   6.356  0.4483 -2.3778 -1.2874
 6509SOL    HW220427   0.388   5.138   6.402  0.7165  0.4502  1.8562
 6510SOL     OW20428   1.866   5.493   1.560  0.4301  0.2458  0.0552
 6510SOL    HW120429   1.818   5.515   1.475  0.9479  0.8188 -0.0852
 6510SOL    HW220430   1.908   5.575   1.598  1.1459 -0.2183  0.2805
 6511SOL     OW20431   0.284   2.022   0.328  0.0814 -0.0697 -0.0486
 6511SOL    HW120432   0.335   1.949   0.374 -0.9574 -1.1253 -0.5063
 6511SOL    HW220433   0.188   1.996   0.321 -0.7514  2.2416  1.5684
 6512SOL     OW20434   2.828   5.008   1.666 -0.3644  0.3543 -0.0592
 6512SOL    HW120435   2.882   5.080   1.623 -1.2748  0.7672 -0.5412
 6512SOL    HW220436   2.889   4.937   1.701  0.5209  1.1406  0.0285
 6513SOL     OW20437   4.991   6.586   3.290  1.1825  0.0372  0.4880
 6513SOL    HW120438   4.893   6.607   3.290  0.6411 -2.1902 -0.2825
 6513SOL    HW220439   5.040   6.654   3.236 -0.2540  0.0444 -0.8856
 6514SOL     OW20440   2.407   4.135   5.871  0.5900 -0.1206  0.1981
 6514SOL    HW120441   2.319   4.139   5.824  1.5094 -0.6145 -1.6716
 6514SOL    HW220442   2.459   4.219   5.852  1.7390 -1.1336 -1.3243
 6515SOL     OW20443   0.972   2.257   0.609  0.2290 -0.3279 -0.3012
 6515SOL    HW120444   0.936   2.164   0.611  2.0287 -1.0509  0.2779
 6515SOL    HW220445   0.900   2.320   0.580 -1.5437 -1.6499  1.0030
 6516SOL     OW20446   1.530   6.750   6.533  0.4475 -0.2684 -0.0010
 6516SOL    HW120447   1.575   6.690   6.467  0.8099 -0.7169  0.6429
 6516SOL    HW220448   1.585   6.755   6.617  0.1483  0.5324  0.1600
 6517SOL     OW20449   6.730   4.105   6.993 -0.4800 -1.2322  0.7760
 6517SOL    HW120450   6.651   4.059   7.033 -2.4322  0.5703 -0.7479
 6517SOL    HW220451   6.699   4.176   6.929  2.3975 -0.6453 -0.1468
 6518SOL     OW20452   0.302   6.892   2.280 -0.0426 -0.6546 -0.1220
 6518SOL    HW120453   0.381   6.949   2.301  0.5005 -0.5228 -2.2958
 6518SOL    HW220454   0.331   6.798   2.264 -0.1955 -0.5033 -1.4537
 6519SOL     OW20455   4.207   6.955   1.842 -0.0140  0.3602 -0.1230
 6519SOL    HW120456   4.169   7.041   1.875  1.5910  0.8418  0.5928
 6519SOL    HW220457   4.292   6.973   1.793 -0.7293 -0.6536 -1.8063
 6520SOL     OW20458   0.627   4.328   0.862 -0.2542  0.3185 -0.2407
 6520SOL    HW120459   0.634   4.309   0.764 -0.2761 -0.0051 -0.1815
 6520SOL    HW220460   0.615   4.426   0.877  1.9528  0.6777 -0.4610
 6521SOL     OW20461   3.270   5.965   4.784  0.0719  0.0992 -0.0385
 6521SOL    HW120462   3.284   6.006   4.694  0.9858  1.2247  0.5841
 6521SOL    HW220463   3.178   5.988   4.817 -0.1468 -0.0403 -0.5335
 6522SOL     OW20464   3.542   4.900   2.256 -0.6150 -0.1477 -0.3959
 6522SOL    HW120465   3.555   4.858   2.166 -1.4557  1.3307 -1.2497
 6522SOL    HW220466   3.450   4.937   2.263 -0.0210  1.2553  0.4199
 6523SOL     OW20467   3.708   0.314   6.107  0.4680 -0.2855 -0.0340
 6523SOL    HW120468   3.771   0.382   6.070  0.7558 -0.3009  0.4181
 6523SOL    HW220469   3.614   0.343   6.090  0.5398  1.0405  1.5195
 6524SOL     OW20470   5.681   5.414   2.696  0.1217  0.4439  0.1753
 6524SOL    HW120471   5.748   5.395   2.767  0.9981  0.2210 -0.6849
 6524SOL    HW220472   5.598   5.452   2.737  0.9276  1.1289  1.2167
 6525SOL     OW20473   1.919   2.307   1.465  0.3146  0.0722  0.2138
 6525SOL    HW120474   2.003   2.357   1.443  0.3110  0.1588  0.3962
 6525SOL    HW220475   1.842   2.348   1.415  0.6309 -0.9733 -1.1764
 6526SOL     OW20476   5.325   2.716   5.518  0.0895 -0.7945  0.2862
 6526SOL    HW120477   5.278   2.651   5.578 -0.1385  0.4587  1.5227
 6526SOL    HW220478   5.259   2.756   5.455 -0.4480  0.5474  1.6457
 6527SOL     OW20479   1.751   2.295   2.194 -0.1126 -0.0744  0.4374
 6527SOL    HW120480   1.755   2.196   2.204  1.0616 -0.2510 -1.3210
 6527SOL    HW220481   1.839   2.335   2.218 -0.3732  0.4895  0.4841
 6528SOL     OW20482   3.000   0.555   0.629 -0.4942 -0.3512  0.5759
 6528SOL    HW120483   2.939   0.521   0.557  0.0956  1.2349 -0.7238
 6528SOL    HW220484   2.992   0.654   0.636  1.5562 -0.1509  0.7068
 6529SOL     OW20485   2.890   4.557   1.142  0.0161  0.3462  0.0195
 6529SOL    HW120486   2.975   4.586   1.186 -0.7470 -0.9388  2.5423
 6529SOL    HW220487   2.845   4.636   1.100  1.0848  1.5425  1.0531
 6530SOL     OW20488   0.305   2.924   6.676 -0.1228 -0.6970  0.0871
 6530SOL    HW120489   0.293   2.891   6.582  0.7062 -0.8332  0.0190
 6530SOL    HW220490   0.223   2.974   6.705  0.0097  0.2644 -1.0942
 6531SOL     OW20491   2.720   6.025   6.944 -0.4907 -0.4542 -0.4461
 6531SOL    HW120492   2.807   6.017   6.895 -0.3159  1.0584 -0.4271
 6531SOL    HW220493   2.736   6.029   7.042 -0.4823  0.7915 -0.4838
 6532SOL     OW20494   0.912   0.651   2.533 -0.1095 -0.0461  0.1116
 6532SOL    HW120495   0.883   0.746   2.520 -0.5912 -0.2996 -0.7758
 6532SOL    HW220496   1.007   0.649   2.564 -0.0380  0.7221 -0.0284
 6533SOL     OW20497   1.291   3.512   3.968  0.6371  0.4039 -0.0676
 6533SOL    HW120498   1.337   3.582   3.913 -0.8736  1.0872 -0.5028
 6533SOL    HW220499   1.350   3.485   4.044  2.0921  0.6303 -1.0874
 6534SOL     OW20500   6.633   5.756   6.130  0.1511  0.0682 -0.1944
 6534SOL    HW120501   6.534   5.771   6.120  0.4154  1.4256 -1.0487
 6534SOL    HW220502   6.666   5.704   6.052  0.1535 -0.1166 -0.0685
 6535SOL     OW20503   5.433   6.615   1.300 -0.5651 -0.5430  0.1422
 6535SOL    HW120504   5.422   6.517   1.288  0.5711 -0.6000 -0.6398
 6535SOL    HW220505   5.497   6.632   1.376 -1.2218 -0.3862  0.6668
 6536SOL     OW20506   1.704   3.645   5.098 -0.5268  0.0470  0.5108
 6536SOL    HW120507   1.760   3.590   5.035 -0.0978 -0.2654  1.1468
 6536SOL    HW220508   1.745   3.735   5.109  0.9976 -0.8149  2.4729
 6537SOL     OW20509   0.874   1.058   5.899 -0.2492 -0.0332  0.0833
 6537SOL    HW120510   0.774   1.057   5.898 -0.3527 -1.4105  2.4334
 6537SOL    HW220511   0.906   1.120   5.972  0.7875  2.6983 -2.4849
 6538SOL     OW20512   0.894   0.509   6.321 -0.2949 -0.0690  0.0786
 6538SOL    HW120513   0.844   0.457   6.390 -0.0007  0.9701  1.0988
 6538SOL    HW220514   0.853   0.599   6.310  0.5901  0.3463  0.0384
 6539SOL     OW20515   4.178   1.721   5.322 -0.2087 -0.0094 -0.6389
 6539SOL    HW120516   4.079   1.730   5.329 -0.1104 -0.1240  4.1351
 6539SOL    HW220517   4.221   1.811   5.331  0.1224 -0.3208  1.1473
 6540SOL     OW20518   0.836   4.041   2.051  0.0784 -0.2270  0.1252
 6540SOL    HW120519   0.856   3.964   1.992  0.0103 -1.1143  1.2222
 6540SOL    HW220520   0.738   4.041   2.074  0.5862 -1.8072  2.7410
 6541SOL     OW20521   5.971   4.333   5.335  0.0084  0.0193  0.3153
 6541SOL    HW120522   6.020   4.249   5.314 -1.3071 -0.3972 -1.3696
 6541SOL    HW220523   6.011   4.409   5.283  0.4405  0.2147  0.9168
 6542SOL     OW20524   1.818   3.332   1.884  0.0177  0.5651 -0.2178
 6542SOL    HW120525   1.897   3.317   1.944 -0.1999  2.1552  0.5143
 6542SOL    HW220526   1.740   3.279   1.917  0.2167  0.5587  0.2476
 6543SOL     OW20527   1.166   6.627   2.052 -0.1425 -0.1646  0.2132
 6543SOL    HW120528   1.188   6.674   1.967  1.4695  0.4011  0.8992
 6543SOL    HW220529   1.137   6.694   2.120 -0.7286 -0.5305  0.3304
 6544SOL     OW20530   5.031   3.401   1.167 -0.5641  0.0069 -0.0760
 6544SOL    HW120531   5.040   3.355   1.079 -0.3145 -0.7793  0.3431
 6544SOL    HW220532   4.969   3.347   1.225  1.6959 -1.2392  1.3263
 6545SOL     OW20533   1.449   4.804   2.814 -0.6502 -0.2801 -0.5630
 6545SOL    HW120534   1.381   4.785   2.743  1.7678  0.7165 -3.3308
 6545SOL    HW220535   1.486   4.896   2.801  0.9438 -0.6257  1.1084
 6546SOL     OW20536   0.806   3.633   2.521 -0.1847 -0.2231 -0.5836
 6546SOL    HW120537   0.708   3.646   2.535  0.3754  0.3190  5.2396
 6546SOL    HW220538   0.851   3.723   2.512  0.0674 -0.2835  0.0553
 6547SOL     OW20539   4.461   0.413   0.421 -0.2160 -0.5266  0.2338
 6547SOL    HW120540   4.426   0.489   0.476  0.7031  0.3551 -0.3647
 6547SOL    HW220541   4.391   0.341   0.414 -1.4611  0.6753  0.0201
 6548SOL     OW20542   6.565   2.747   2.331  0.5351 -0.3847  0.0543
 6548SOL    HW120543   6.521   2.834   2.309  0.2443 -0.6317 -0.3694
 6548SOL    HW220544   6.616   2.715   2.251 -0.0416 -1.0071 -0.0765
 6549SOL     OW20545   5.742   6.352   5.047  0.4809 -0.2232 -0.9789
 6549SOL    HW120546   5.730   6.424   4.978  1.7252  0.8378 -0.1484
 6549SOL    HW220547   5.777   6.393   5.132  0.3846 -1.7026 -0.1907
 6550SOL     OW20548   5.384   6.329   3.331 -0.2252  0.1154  0.6948
 6550SOL    HW120549   5.295   6.338   3.376  1.2447  1.9867  3.5696
 6550SOL    HW220550   5.392   6.396   3.258 -1.4378 -0.6463 -0.1629
 6551SOL     OW20551   5.077   2.806   4.553  0.8733  0.8156 -0.0470
 6551SOL    HW120552   5.009   2.879   4.552  0.1058  0.1491  1.0254
 6551SOL    HW220553   5.168   2.845   4.563  0.4094  1.6086  1.2659
 6552SOL     OW20554   6.797   2.695   2.524 -0.0064  0.6536 -0.3361
 6552SOL    HW120555   6.804   2.790   2.552 -3.0763  0.9006 -0.1443
 6552SOL    HW220556   6.721   2.684   2.461  1.8654 -1.2868 -2.4677
 6553SOL     OW20557   2.888   3.650   4.283  0.0860  0.6366  0.9168
 6553SOL    HW120558   2.825   3.625   4.210  1.8028 -0.8083 -0.1719
 6553SOL    HW220559   2.964   3.702   4.244  0.2634  1.1710  1.9569
 6554SOL     OW20560   1.596   5.369   6.478 -0.1214  0.3799 -0.3470
 6554SOL    HW120561   1.633   5.277   6.491 -1.1717  0.2181  1.9899
 6554SOL    HW220562   1.671   5.434   6.471  0.6327 -0.3926  0.3109
 6555SOL     OW20563   6.524   3.414   4.813 -0.2646 -0.2534  0.4655
 6555SOL    HW120564   6.611   3.382   4.851 -1.0365 -1.1246  1.5549
 6555SOL    HW220565   6.542   3.467   4.731  1.2579 -0.9952  0.2756
 6556SOL     OW20566   4.052   3.743   1.348 -0.0951 -0.2949  1.1365
 6556SOL    HW120567   4.077   3.701   1.261  0.2274 -0.9651  1.5428
 6556SOL    HW220568   4.127   3.803   1.378  0.3288 -1.0154  1.5434
 6557SOL     OW20569   4.334   5.382   1.965 -0.0336 -0.0653 -0.3771
 6557SOL    HW120570   4.298   5.441   2.037 -3.4051 -2.8739  0.5000
 6557SOL    HW220571   4.279   5.393   1.882  2.0163  1.0192 -1.6832
 6558SOL     OW20572   1.490   5.708   4.821 -0.0071 -0.6079  0.1935
 6558SOL    HW120573   1.563   5.717   4.888 -0.8016 -1.8936  1.2726
 6558SOL    HW220574   1.492   5.616   4.782 -0.9760 -0.6116  0.1357
 6559SOL     OW20575   3.367   2.652   5.294 -0.3567  0.4011 -0.1156
 6559SOL    HW120576   3.326   2.562   5.277 -0.1871  0.3941 -0.5238
 6559SOL    HW220577   3.450   2.641   5.349 -0.1706  0.2709 -0.4172
 6560SOL     OW20578   6.920   6.647   1.418 -0.0598  0.1395  0.2523
 6560SOL    HW120579   7.015   6.651   1.389  0.2320 -2.1093  0.7371
 6560SOL    HW220580   6.869   6.586   1.358 -0.6134 -0.5911  1.4321
 6561SOL     OW20581   1.135   1.103   2.914  0.7377  0.2530  0.0963
 6561SOL    HW120582   1.217   1.045   2.907  0.9678  0.7392 -2.0021
 6561SOL    HW220583   1.079   1.073   2.991  1.7196 -1.6257  0.1334
 6562SOL     OW20584   2.830   3.518   0.063 -0.1281 -0.2733 -0.4453
 6562SOL    HW120585   2.825   3.453   0.139 -0.0615 -0.5137 -0.6432
 6562SOL    HW220586   2.844   3.610   0.098 -0.8684 -0.2746 -0.1238
 6563SOL     OW20587   6.551   6.569   1.569  0.1843  0.0064 -0.1998
 6563SOL    HW120588   6.594   6.653   1.536  0.4248  0.5567  1.4177
 6563SOL    HW220589   6.577   6.493   1.509  1.3894  0.7680 -0.6927
 6564SOL     OW20590   4.715   0.048   3.069  0.0318 -0.2219  0.5903
 6564SOL    HW120591   4.808   0.065   3.036 -0.3984 -0.7571 -0.9913
 6564SOL    HW220592   4.665   0.134   3.074  0.3782 -0.0258  0.6951
 6565SOL     OW20593   2.267   4.896   5.158 -0.1229  0.2253  0.4201
 6565SOL    HW120594   2.256   4.944   5.245 -1.1896 -0.9720  0.9796
 6565SOL    HW220595   2.181   4.899   5.107  0.0062 -0.5013  0.1514
 6566SOL     OW20596   5.240   5.365   2.573 -0.0820 -0.2091 -0.1305
 6566SOL    HW120597   5.276   5.399   2.486 -0.2402 -0.3947 -0.2704
 6566SOL    HW220598   5.266   5.268   2.584 -1.0044 -0.5041 -0.4938
 6567SOL     OW20599   0.509   5.995   2.657  0.0195  0.4064 -0.3437
 6567SOL    HW120600   0.539   5.946   2.739 -1.3156  0.5129  0.2335
 6567SOL    HW220601   0.480   5.929   2.588  0.1577  0.3369 -0.3347
 6568SOL     OW20602   2.408   2.663   4.813 -0.0887  0.4181  0.2633
 6568SOL    HW120603   2.346   2.677   4.736 -0.5876 -0.8121  0.4237
 6568SOL    HW220604   2.379   2.719   4.891 -0.4443  0.5492  0.0373
 6569SOL     OW20605   5.744   4.975   2.765 -0.0053  0.2681 -0.3073
 6569SOL    HW120606   5.702   5.038   2.699  2.0462  2.8335  0.6748
 6569SOL    HW220607   5.834   5.010   2.792  0.3351 -2.0540  1.8941
 6570SOL     OW20608   3.147   6.648   4.279 -0.1651  0.1951 -0.1207
 6570SOL    HW120609   3.204   6.694   4.347 -0.2559 -0.4267  0.3883
 6570SOL    HW220610   3.082   6.588   4.326 -0.0754 -0.4169 -0.7671
 6571SOL     OW20611   3.197   1.938   5.911  0.2609 -0.3996  0.6111
 6571SOL    HW120612   3.121   1.936   5.976 -1.3417  2.0433 -1.0706
 6571SOL    HW220613   3.273   1.989   5.951  0.5024 -1.5515  1.7017
 6572SOL     OW20614   4.644   5.362   4.798 -0.2531  0.3198 -0.3021
 6572SOL    HW120615   4.545   5.346   4.805 -0.1985  0.4305  0.8234
 6572SOL    HW220616   4.692   5.294   4.853  0.3364 -0.0131 -1.2043
 6573SOL     OW20617   1.161   3.010   5.068  0.3207  0.4781  0.2730
 6573SOL    HW120618   1.182   2.915   5.094 -1.6308  0.1986  1.0100
 6573SOL    HW220619   1.095   3.010   4.992 -0.2293  1.2214  0.7348
 6574SOL     OW20620   1.143   5.994   3.542 -0.0116  0.0859 -0.7043
 6574SOL    HW120621   1.060   6.040   3.510  0.2093  0.8247 -0.2569
 6574SOL    HW220622   1.191   5.954   3.464 -1.2750 -1.2108 -0.8641
 6575SOL     OW20623   6.072   0.650   4.913 -0.2735  0.1563  0.2920
 6575SOL    HW120624   6.034   0.743   4.911 -1.3677 -0.2779  0.5320
 6575SOL    HW220625   6.016   0.592   4.972  0.7169 -0.5306  0.5679
 6576SOL     OW20626   5.853   5.932   3.687 -0.5578  0.6493 -0.0729
 6576SOL    HW120627   5.942   5.934   3.640 -0.8568 -1.4689 -0.8707
 6576SOL    HW220628   5.784   5.894   3.625 -0.9184 -2.5552  2.0329
 6577SOL     OW20629   5.272   1.665   3.317 -0.1506 -0.0639 -0.8483
 6577SOL    HW120630   5.287   1.576   3.361 -1.7118  0.0122 -0.0818
 6577SOL    HW220631   5.357   1.718   3.319  0.0669 -0.3765  1.4133
 6578SOL     OW20632   4.698   3.040   0.675  0.3464 -0.7806  0.0680
 6578SOL    HW120633   4.721   3.094   0.756 -1.4210 -0.0106  0.0896
 6578SOL    HW220634   4.615   2.988   0.692 -1.0814  0.7569 -1.8016
 6579SOL     OW20635   3.868   4.866   3.307 -0.1395 -0.5921  0.3403
 6579SOL    HW120636   3.959   4.824   3.302 -0.3623 -0.9851 -0.4073
 6579SOL    HW220637   3.825   4.865   3.217 -0.3202  0.8692  0.3853
 6580SOL     OW20638   3.620   3.891   6.752  0.5590 -0.4381  0.4102
 6580SOL    HW120639   3.715   3.862   6.760  0.9699  1.3618  3.5404
 6580SOL    HW220640   3.560   3.814   6.775  1.1403 -1.6130 -1.6791
 6581SOL     OW20641   4.715   6.324   1.353 -0.8747  0.4592 -0.5574
 6581SOL    HW120642   4.680   6.232   1.367  1.3530 -0.5226 -1.0989
 6581SOL    HW220643   4.689   6.356   1.262 -0.2875 -0.3023 -1.0016
 6582SOL     OW20644   0.454   6.434   4.825  0.4203  0.0015 -0.0148
 6582SOL    HW120645   0.372   6.467   4.872  1.5671  1.4048  1.0961
 6582SOL    HW220646   0.497   6.509   4.776 -0.0227 -1.1634 -2.3237
 6583SOL     OW20647   6.511   3.555   4.542  0.1920  0.4731  0.2150
 6583SOL    HW120648   6.597   3.577   4.496 -0.2838  2.4997  0.2093
 6583SOL    HW220649   6.453   3.502   4.480  1.4575 -1.0660  0.2763
 6584SOL     OW20650   5.915   4.480   2.071  0.3416  0.0520 -0.1540
 6584SOL    HW120651   5.896   4.521   1.982 -0.0328  0.7494  0.2373
 6584SOL    HW220652   5.944   4.552   2.135  0.9092 -0.4843  0.2062
 6585SOL     OW20653   1.842   0.300   3.639  0.8051 -0.2233 -0.1747
 6585SOL    HW120654   1.939   0.291   3.616  0.7838 -1.5183  0.1876
 6585SOL    HW220655   1.828   0.385   3.691  1.5967  0.3789 -0.9178
 6586SOL     OW20656   4.502   5.864   6.890 -1.2402  0.2405  0.1415
 6586SOL    HW120657   4.517   5.959   6.861 -1.5135  0.4615  0.6955
 6586SOL    HW220658   4.405   5.842   6.881 -1.3133  0.2843  0.7820
 6587SOL     OW20659   3.727   6.379   1.259 -0.0523  0.5272  0.0247
 6587SOL    HW120660   3.747   6.379   1.161  0.8371  0.5405  0.1979
 6587SOL    HW220661   3.661   6.450   1.280  2.2750  2.8930 -0.0842
 6588SOL     OW20662   4.407   2.062   1.136  0.1644 -0.1587  0.3501
 6588SOL    HW120663   4.488   2.059   1.077  0.8240  0.5962  1.1790
 6588SOL    HW220664   4.343   2.130   1.101 -0.5240 -1.3433 -0.7827
 6589SOL     OW20665   5.111   1.848   5.799 -0.2817 -0.0065 -0.2161
 6589SOL    HW120666   5.179   1.800   5.745  0.0450 -1.8561  1.6947
 6589SOL    HW220667   5.153   1.926   5.845  0.8866 -1.6253  1.6274
 6590SOL     OW20668   1.072   0.310   6.337  0.1860  0.0867  0.2516
 6590SOL    HW120669   1.012   0.245   6.382 -0.2220 -1.1198 -1.9031
 6590SOL    HW220670   1.019   0.388   6.305  0.0920 -0.0585  0.0478
 6591SOL     OW20671   0.780   1.925   1.624  0.5808  0.1629  0.5714
 6591SOL    HW120672   0.748   2.004   1.572 -2.5672 -0.1908  1.7578
 6591SOL    HW220673   0.789   1.847   1.563 -0.7752  0.3427  0.0919
 6592SOL     OW20674   1.748   5.256   2.832 -0.2478 -0.3526  0.2409
 6592SOL    HW120675   1.774   5.290   2.923 -0.5486 -0.7548  0.4797
 6592SOL    HW220676   1.828   5.220   2.786  0.1981  1.1744 -0.2421
 6593SOL     OW20677   0.753   1.636   5.288  0.3003  0.1137 -0.3802
 6593SOL    HW120678   0.681   1.572   5.260  0.4875 -0.1824 -0.1827
 6593SOL    HW220679   0.762   1.635   5.387  1.4704 -0.8226 -0.4791
 6594SOL     OW20680   2.821   2.328   2.718  0.0299 -0.2962  0.3732
 6594SOL    HW120681   2.858   2.315   2.626  1.7532  2.3032  0.6278
 6594SOL    HW220682   2.883   2.287   2.785  0.6775  0.9764  0.5747
 6595SOL     OW20683   5.736   1.270   4.204 -0.3062 -0.4231 -0.6745
 6595SOL    HW120684   5.751   1.220   4.290 -1.9247 -1.2744 -0.8517
 6595SOL    HW220685   5.678   1.349   4.221  0.9735  0.5530 -0.6779
 6596SOL     OW20686   5.540   6.430   6.778  0.1676  0.4757 -0.8123
 6596SOL    HW120687   5.542   6.330   6.770  0.0568  0.4697 -0.7671
 6596SOL    HW220688   5.583   6.457   6.864  1.0099  0.5199 -1.2357
 6597SOL     OW20689   5.946   2.888   2.829 -0.1800 -0.1499 -0.0729
 6597SOL    HW120690   6.043   2.867   2.846  0.2335  0.8894 -1.0145
 6597SOL    HW220691   5.891   2.851   2.903  0.5972 -3.3086 -0.9356
 6598SOL     OW20692   3.450   6.829   1.030 -0.4029  0.2240 -0.6497
 6598SOL    HW120693   3.529   6.820   1.090 -0.8309  1.0396  0.0723
 6598SOL    HW220694   3.366   6.816   1.084 -0.7643 -0.9791 -1.4645
 6599SOL     OW20695   4.147   2.723   6.014 -0.1480 -0.5158 -0.0606
 6599SOL    HW120696   4.089   2.705   6.094  0.0587  1.7541  0.6953
 6599SOL    HW220697   4.089   2.753   5.938 -0.3314 -2.5521 -0.7846
 6600SOL     OW20698   4.153   6.266   1.455  0.0746  0.2988  0.1798
 6600SOL    HW120699   4.247   6.295   1.437 -0.2626  0.0677 -2.3645
 6600SOL    HW220700   4.105   6.338   1.506  1.5722  0.4714  1.3861
 6601SOL     OW20701   4.875   6.559   4.274 -0.2827 -0.4904  0.2926
 6601SOL    HW120702   4.792   6.519   4.236 -0.3303 -1.7001  1.5926
 6601SOL    HW220703   4.955   6.525   4.223 -0.4454 -0.9048  0.3116
 6602SOL     OW20704   3.455   4.192   1.740 -0.2511  0.6566 -0.2620
 6602SOL    HW120705   3.505   4.270   1.702  0.6194  0.4409  0.4162
 6602SOL    HW220706   3.491   4.170   1.830 -1.8295  0.7233  0.4256
 6603SOL     OW20707   2.064   2.526   0.826 -0.3826 -0.2518 -0.4993
 6603SOL    HW120708   1.993   2.573   0.773 -0.1630 -0.6732 -1.1764
 6603SOL    HW220709   2.087   2.581   0.906  0.5844  1.2995 -1.7969
 6604SOL     OW20710   2.479   2.340   3.027 -0.6064  0.3484 -0.0085
 6604SOL    HW120711   2.435   2.301   3.108 -0.2392 -0.9126 -0.4058
 6604SOL    HW220712   2.542   2.274   2.987 -0.2991  1.1874 -0.9636
 6605SOL     OW20713   3.191   2.511   0.656 -0.5990 -0.2076 -0.2773
 6605SOL    HW120714   3.261   2.483   0.722 -1.5450 -1.1015  0.3854
 6605SOL    HW220715   3.135   2.583   0.697 -0.4077  0.1275 -0.6000
 6606SOL     OW20716   1.553   3.083   6.260 -0.5072 -0.8983 -0.0212
 6606SOL    HW120717   1.493   3.136   6.320  2.0034 -1.4775  3.2756
 6606SOL    HW220718   1.596   3.010   6.313  1.3555 -1.9442 -2.7878
 6607SOL     OW20719   3.094   4.372   6.735 -0.4713 -0.5550  0.3299
 6607SOL    HW120720   3.019   4.359   6.669 -1.5842 -0.2233  1.4839
 6607SOL    HW220721   3.181   4.375   6.686 -1.4392  2.2589 -1.4638
 6608SOL     OW20722   4.722   6.344   3.215 -0.6915  0.0229 -0.1541
 6608SOL    HW120723   4.636   6.293   3.209 -0.5536 -0.1503 -0.7027
 6608SOL    HW220724   4.779   6.305   3.288 -0.5589 -0.6515 -0.6106
 6609SOL     OW20725   2.263   4.362   2.109  0.0098  0.2935  0.2536
 6609SOL    HW120726   2.295   4.382   2.016 -0.9509  1.2281  0.1145
 6609SOL    HW220727   2.309   4.424   2.173 -0.4757  0.6909  0.2180
 6610SOL     OW20728   2.397   0.876   2.749 -0.0200  0.1356  0.4643
 6610SOL    HW120729   2.325   0.836   2.693 -0.4865  0.9252  0.4875
 6610SOL    HW220730   2.435   0.956   2.703  1.1451 -0.5033  0.2563
 6611SOL     OW20731   3.763   6.201   5.868  0.1123  0.1288  0.3274
 6611SOL    HW120732   3.666   6.193   5.846  0.1098  0.0927  0.3493
 6611SOL    HW220733   3.803   6.109   5.870  0.1649  0.1503  0.2387
 6612SOL     OW20734   3.707   1.738   3.229  0.0168  0.3462  0.6047
 6612SOL    HW120735   3.674   1.809   3.167 -3.0615 -1.8583 -0.5555
 6612SOL    HW220736   3.766   1.674   3.179  2.6192  1.7940  1.5983
 6613SOL     OW20737   3.905   4.284   1.016 -0.3079  1.2391  0.4107
 6613SOL    HW120738   3.879   4.194   1.049  0.8651  0.9578  0.5897
 6613SOL    HW220739   3.887   4.352   1.087 -2.7732  1.4469 -0.2954
 6614SOL     OW20740   6.039   4.495   0.563  0.2445  0.2266  0.8165
 6614SOL    HW120741   6.093   4.411   0.561  0.0108  0.0514 -2.0931
 6614SOL    HW220742   6.085   4.566   0.509 -1.4026  0.7266  0.0016
 6615SOL     OW20743   6.702   6.139   5.022 -0.5745  0.3545  0.1868
 6615SOL    HW120744   6.700   6.176   4.929  0.7050 -1.7589 -0.7721
 6615SOL    HW220745   6.797   6.136   5.054 -0.6309 -1.6012  0.3302
 6616SOL     OW20746   4.118   2.403   0.020  0.1328  0.4095  0.1984
 6616SOL    HW120747   4.196   2.361   0.065  0.6017 -0.3169 -1.2261
 6616SOL    HW220748   4.033   2.368   0.058  0.4757  1.0757  1.6407
 6617SOL     OW20749   3.887   1.113   5.179 -0.2917  0.5973  0.4258
 6617SOL    HW120750   3.898   1.021   5.215 -1.8709 -0.0820 -0.7020
 6617SOL    HW220751   3.842   1.170   5.247  1.2179  0.7386  1.3520
 6618SOL     OW20752   2.050   4.020   4.172 -0.1861 -0.1826 -0.0131
 6618SOL    HW120753   2.080   3.945   4.231 -1.1675 -0.2314  0.4545
 6618SOL    HW220754   1.965   3.994   4.126 -0.1430  0.3663 -0.4089
 6619SOL     OW20755   5.876   0.295   3.806 -0.3149 -0.2861  0.3176
 6619SOL    HW120756   5.952   0.294   3.871  0.2621  0.5194 -0.3269
 6619SOL    HW220757   5.901   0.240   3.726  0.6078  1.9211 -0.9844
 6620SOL     OW20758   2.113   3.387   2.568 -0.2150 -0.4280  0.1267
 6620SOL    HW120759   2.105   3.289   2.580  1.5200 -0.6765 -0.4267
 6620SOL    HW220760   2.093   3.411   2.473 -0.7804 -0.2144  0.2944
 6621SOL     OW20761   5.884   2.109   4.822 -0.1210 -0.1673  0.4253
 6621SOL    HW120762   5.897   2.186   4.885 -1.2231  0.5821 -0.2352
 6621SOL    HW220763   5.944   2.034   4.850 -0.9552 -0.0732  2.7148
 6622SOL     OW20764   5.876   2.863   6.996  0.5925  0.0890 -0.4463
 6622SOL    HW120765   5.826   2.802   6.935  2.1575 -1.4910 -0.2584
 6622SOL    HW220766   5.943   2.916   6.943  0.5183  0.2665 -0.3644
 6623SOL     OW20767   5.742   4.345   6.609  0.2687 -0.0276 -0.5821
 6623SOL    HW120768   5.802   4.302   6.677  0.0468 -0.4496 -0.6487
 6623SOL    HW220769   5.647   4.335   6.637  0.2670  2.3158  0.5072
 6624SOL     OW20770   3.317   6.637   0.248  0.3780  0.1462 -0.3346
 6624SOL    HW120771   3.317   6.725   0.200 -0.5468  1.1871  1.4554
 6624SOL    HW220772   3.222   6.607   0.263  0.6128  0.0937  1.1991
 6625SOL     OW20773   4.597   6.580   5.839  0.6099  0.1019  0.1132
 6625SOL    HW120774   4.525   6.560   5.905  1.1535 -1.4699  0.2626
 6625SOL    HW220775   4.667   6.509   5.843  0.7817  0.0902 -2.0062
 6626SOL     OW20776   3.094   2.206   0.909 -0.5015  0.1779  0.4408
 6626SOL    HW120777   3.191   2.182   0.917 -0.7310 -3.1568 -3.5064
 6626SOL    HW220778   3.085   2.284   0.846 -0.3825  0.3766  0.6701
 6627SOL     OW20779   4.028   5.500   2.085 -0.4153 -0.8387  0.5415
 6627SOL    HW120780   4.036   5.532   1.991 -1.0637 -1.9977  0.0752
 6627SOL    HW220781   4.116   5.510   2.131 -0.6175  1.7625  0.5110
 6628SOL     OW20782   2.430   5.029   4.107  0.5117 -0.0512 -0.1906
 6628SOL    HW120783   2.370   5.054   4.032 -0.9463 -0.1392  0.8908
 6628SOL    HW220784   2.376   4.988   4.181  1.9077 -0.1068  0.8545
 6629SOL     OW20785   0.622   3.748   0.160  0.0173 -0.4387  0.1237
 6629SOL    HW120786   0.663   3.835   0.133 -1.5578  0.2842 -0.0329
 6629SOL    HW220787   0.630   3.682   0.085  1.2537 -0.4683  0.2615
 6630SOL     OW20788   4.407   5.567   3.757  0.9390  0.1315  0.3788
 6630SOL    HW120789   4.313   5.537   3.776  0.7303  1.0243  0.8195
 6630SOL    HW220790   4.416   5.664   3.779  0.6453  1.4176 -4.1193
 6631SOL     OW20791   5.147   0.102   0.136  0.0607 -0.2345  0.6176
 6631SOL    HW120792   5.109   0.012   0.113 -0.6700  0.2061  0.0391
 6631SOL    HW220793   5.236   0.112   0.093  0.4957 -0.9636  1.3051
 6632SOL     OW20794   1.885   5.162   0.746  0.3182 -0.3865  0.5596
 6632SOL    HW120795   1.920   5.113   0.667  1.1461  0.7228  0.2183
 6632SOL    HW220796   1.823   5.102   0.798  1.6734 -1.9562  0.4451
 6633SOL     OW20797   0.736   6.044   4.102  0.0115  0.1193  0.3734
 6633SOL    HW120798   0.706   6.105   4.029  0.1076  0.5694  0.7065
 6633SOL    HW220799   0.658   6.024   4.162 -0.4169 -1.3845 -0.6376
 6634SOL     OW20800   4.578   4.574   5.027 -0.7803  0.2282  0.6578
 6634SOL    HW120801   4.575   4.495   5.088 -0.0489  0.9206  1.6233
 6634SOL    HW220802   4.492   4.579   4.975 -0.7989 -1.2414  0.4937
 6635SOL     OW20803   2.390   5.029   2.031 -0.5277 -0.0779 -0.0852
 6635SOL    HW120804   2.489   5.037   2.042 -0.5064 -1.2486  0.7365
 6635SOL    HW220805   2.368   5.016   1.934  0.2189 -0.9088 -0.1543
 6636SOL     OW20806   4.388   6.177   4.843 -0.9847 -0.0383  0.2920
 6636SOL    HW120807   4.432   6.092   4.872  0.0408 -0.1799 -1.5460
 6636SOL    HW220808   4.291   6.160   4.826 -1.9898  0.3181  4.5741
 6637SOL     OW20809   2.206   2.617   0.549 -0.5477  0.0236 -0.1701
 6637SOL    HW120810   2.193   2.599   0.646 -0.6680  1.2520  0.0586
 6637SOL    HW220811   2.118   2.638   0.507 -0.4664 -0.2851 -0.4992
 6638SOL     OW20812   0.634   5.578   2.920 -0.1320 -0.2467 -0.1438
 6638SOL    HW120813   0.612   5.525   2.838  2.6669  0.2722 -1.3572
 6638SOL    HW220814   0.659   5.516   2.994 -0.2658 -0.6852 -0.4606
 6639SOL     OW20815   0.136   6.183   2.850  0.4288 -0.3167 -0.3023
 6639SOL    HW120816   0.084   6.150   2.772 -0.6139 -0.7758  0.5615
 6639SOL    HW220817   0.233   6.189   2.825  0.7432 -4.0577 -0.5570
 6640SOL     OW20818   6.567   5.033   1.016  0.6720  0.2040 -0.1456
 6640SOL    HW120819   6.574   5.127   0.984  2.0704  0.2824  0.3129
 6640SOL    HW220820   6.471   5.003   1.011 -0.2079  2.3447  1.6174
 6641SOL     OW20821   6.890   0.406   3.173  0.1252  0.6534 -0.6358
 6641SOL    HW120822   6.946   0.327   3.148  0.3369  0.9672 -1.1879
 6641SOL    HW220823   6.948   0.486   3.182 -0.3618  1.3171 -2.6935
 6642SOL     OW20824   0.574   6.244   1.915 -0.4709  0.0338 -0.9392
 6642SOL    HW120825   0.653   6.279   1.866  0.4654 -0.5259  0.1438
 6642SOL    HW220826   0.574   6.281   2.008 -1.4696 -0.0033 -0.9134
 6643SOL     OW20827   1.920   6.425   0.255 -0.0178  0.2574  0.3439
 6643SOL    HW120828   1.892   6.330   0.266  0.8540 -0.0159  0.3140
 6643SOL    HW220829   1.957   6.459   0.341  0.3321  0.3392  0.1645
 6644SOL     OW20830   3.577   6.659   4.253  0.7337  0.2806 -0.1614
 6644SOL    HW120831   3.634   6.608   4.317  1.0516  1.4828  0.5496
 6644SOL    HW220832   3.502   6.601   4.220  1.0535 -0.6073  0.6466
 6645SOL     OW20833   6.349   5.740   5.173  0.0430  0.0456 -0.3988
 6645SOL    HW120834   6.325   5.729   5.076  2.3881 -0.2935 -0.9942
 6645SOL    HW220835   6.387   5.655   5.208 -2.1026 -0.3023  1.2990
 6646SOL     OW20836   5.788   3.348   2.052  0.3867 -0.4298  0.2062
 6646SOL    HW120837   5.737   3.413   2.107 -0.8404 -0.3352 -0.9906
 6646SOL    HW220838   5.777   3.256   2.090 -0.7016 -0.4108 -0.0406
 6647SOL     OW20839   4.666   1.297   6.991 -0.1048  0.5329  0.1017
 6647SOL    HW120840   4.710   1.224   6.939  0.7733 -0.7517  2.4901
 6647SOL    HW220841   4.570   1.274   7.006  0.2573 -0.3745  1.1609
 6648SOL     OW20842   0.780   3.631   1.704  0.1768 -0.3290  0.1331
 6648SOL    HW120843   0.711   3.562   1.684 -1.0399  1.0643 -0.7127
 6648SOL    HW220844   0.821   3.663   1.618  1.7291 -0.9712  0.6127
 6649SOL     OW20845   3.300   6.558   6.084 -0.8777 -0.6378 -0.5195
 6649SOL    HW120846   3.352   6.641   6.066 -1.8860  0.3670  0.8966
 6649SOL    HW220847   3.361   6.488   6.121 -0.2701  0.0045 -0.2797
 6650SOL     OW20848   5.773   0.583   3.215  0.9491  0.3533 -0.3593
 6650SOL    HW120849   5.688   0.549   3.256  0.2217  2.0138 -0.3979
 6650SOL    HW220850   5.850   0.564   3.276  0.0393  1.8309  1.3136
 6651SOL     OW20851   5.559   4.647   4.639 -0.4332  0.2869 -0.0412
 6651SOL    HW120852   5.553   4.727   4.699 -1.4909 -0.3817  0.7828
 6651SOL    HW220853   5.483   4.584   4.659 -0.7076 -0.0591 -1.9524
 6652SOL     OW20854   4.549   2.558   2.459  0.3847 -0.1632 -0.3555
 6652SOL    HW120855   4.494   2.539   2.540  0.8292 -0.2570 -0.0700
 6652SOL    HW220856   4.620   2.625   2.482  1.1707 -0.9723 -0.3944
 6653SOL     OW20857   4.187   1.786   4.568  0.5015  0.1833  0.2594
 6653SOL    HW120858   4.185   1.827   4.659  2.7913  1.1636 -0.0525
 6653SOL    HW220859   4.233   1.698   4.573  0.9079  0.3793  0.0196
 6654SOL     OW20860   4.595   1.932   0.477  0.1576 -0.1993 -0.1613
 6654SOL    HW120861   4.570   1.933   0.573 -0.8895 -1.8277 -0.3836
 6654SOL    HW220862   4.692   1.910   0.467  0.4044  0.5630  0.5277
 6655SOL     OW20863   4.736   6.512   2.943 -0.5496 -0.4072 -0.3457
 6655SOL    HW120864   4.746   6.471   3.033 -1.9186 -0.6864 -0.3001
 6655SOL    HW220865   4.781   6.601   2.942 -1.0133 -0.1475  0.7877
 6656SOL     OW20866   2.313   3.456   1.241  0.1202 -0.2341  0.0134
 6656SOL    HW120867   2.265   3.396   1.177  1.1755  0.7323 -1.7685
 6656SOL    HW220868   2.395   3.410   1.274  0.7331  0.0528 -1.0642
 6657SOL     OW20869   2.215   0.347   4.918 -0.0738 -0.6426  0.0463
 6657SOL    HW120870   2.280   0.421   4.936 -0.6176 -0.8737  3.5599
 6657SOL    HW220871   2.129   0.385   4.885  1.2892 -0.2625 -3.5969
 6658SOL     OW20872   4.048   2.228   3.792  0.0519  0.4813 -0.1149
 6658SOL    HW120873   3.996   2.181   3.720 -0.7279  1.6099 -0.3237
 6658SOL    HW220874   4.006   2.209   3.881  0.2026  0.1712 -0.1091
 6659SOL     OW20875   0.592   6.238   1.486  0.2238  0.1248 -0.3010
 6659SOL    HW120876   0.573   6.158   1.543 -0.3883  0.0328 -0.6323
 6659SOL    HW220877   0.681   6.226   1.442  0.2458 -0.2620 -0.1610
 6660SOL     OW20878   4.414   6.698   0.076  0.3980  0.2776 -0.2744
 6660SOL    HW120879   4.470   6.781   0.078  2.6632 -1.1613 -0.7729
 6660SOL    HW220880   4.383   6.682  -0.018 -2.6720  2.1013  0.2689
 6661SOL     OW20881   5.058   3.017   6.801 -0.1062 -0.1482 -0.2341
 6661SOL    HW120882   5.115   3.098   6.786 -0.6206  0.4585  0.9749
 6661SOL    HW220883   4.979   3.020   6.741  1.5087 -1.4593 -2.6186
 6662SOL     OW20884   3.612   1.798   4.646  0.0464  0.3945  0.0588
 6662SOL    HW120885   3.572   1.890   4.650  0.3586  0.5309  0.1040
 6662SOL    HW220886   3.703   1.804   4.604 -0.9666 -0.2442 -2.4081
 6663SOL     OW20887   6.693   1.525   0.442  0.2026  0.3995 -0.1908
 6663SOL    HW120888   6.700   1.570   0.531 -0.3782 -0.9030  0.5409
 6663SOL    HW220889   6.620   1.567   0.389 -0.8100 -0.1050  0.7632
 6664SOL     OW20890   6.679   5.356   6.393  0.2520  0.2424 -0.0722
 6664SOL    HW120891   6.600   5.294   6.395  0.0464  0.4915  2.2903
 6664SOL    HW220892   6.762   5.303   6.408  0.2695  0.2825 -0.0265
 6665SOL     OW20893   1.493   3.084   5.985 -0.1411 -0.0494 -0.4039
 6665SOL    HW120894   1.524   3.075   6.079 -0.8371  0.7201 -0.0863
 6665SOL    HW220895   1.572   3.092   5.924  0.3084 -0.3736  0.1265
 6666SOL     OW20896   6.638   2.099   3.871 -0.0099  0.0748 -0.3515
 6666SOL    HW120897   6.582   2.167   3.825 -2.2423 -1.1688  0.4117
 6666SOL    HW220898   6.735   2.119   3.853 -0.5811  2.9090 -0.8567
 6667SOL     OW20899   0.672   3.034   4.466 -0.3060  0.4637 -0.1482
 6667SOL    HW120900   0.574   3.036   4.448 -0.3787  0.8729  0.2841
 6667SOL    HW220901   0.693   3.094   4.543  0.0792 -0.7247  0.7181
 6668SOL     OW20902   0.160   2.164   0.668 -0.3038  0.1648  0.2353
 6668SOL    HW120903   0.152   2.260   0.697 -1.2015  0.0678  0.3285
 6668SOL    HW220904   0.073   2.133   0.630  0.4194 -0.1709 -1.2111
 6669SOL     OW20905   3.010   4.685   0.691 -0.8946  0.3382  0.3920
 6669SOL    HW120906   3.083   4.682   0.622  0.3610 -0.0970  1.6751
 6669SOL    HW220907   2.924   4.711   0.648 -0.7824 -2.4733 -1.8768
 6670SOL     OW20908   5.983   1.976   0.188 -0.3168  0.3380 -0.2623
 6670SOL    HW120909   6.008   1.975   0.285  0.4550 -1.8353 -0.4445
 6670SOL    HW220910   5.969   1.883   0.156  0.1718  0.9724 -2.4428
 6671SOL     OW20911   6.969   7.000   2.486  0.2197  0.5228  0.2273
 6671SOL    HW120912   7.047   6.957   2.531 -0.1023 -0.2383  0.0602
 6671SOL    HW220913   6.936   6.941   2.413  0.0818  1.2738 -0.3339
 6672SOL     OW20914   5.840   6.528   0.826  0.4171  0.3679  0.2735
 6672SOL    HW120915   5.930   6.526   0.781  0.1840 -1.8154 -0.2188
 6672SOL    HW220916   5.837   6.458   0.897 -0.5472  1.1406  1.0087
 6673SOL     OW20917   5.066   0.924   2.694 -0.1338  0.2113 -0.6944
 6673SOL    HW120918   5.125   0.885   2.765 -0.6133 -0.1338 -0.4832
 6673SOL    HW220919   4.982   0.960   2.736  0.5585  2.0579 -0.7945
 6674SOL     OW20920   1.229   6.110   5.269 -0.0719 -0.0184  0.3843
 6674SOL    HW120921   1.272   6.183   5.322  0.7281 -0.8090  0.8374
 6674SOL    HW220922   1.239   6.023   5.317 -0.7196 -0.4961 -0.3157
 6675SOL     OW20923   3.977   2.282   1.774  0.3250  0.1507 -0.2575
 6675SOL    HW120924   3.887   2.278   1.816 -0.2173 -1.2665 -1.4490
 6675SOL    HW220925   3.970   2.320   1.682  0.8126 -0.5539 -0.5993
 6676SOL     OW20926   4.181   4.974   1.665 -0.2779 -0.1237 -0.2442
 6676SOL    HW120927   4.099   4.922   1.691  0.5929 -1.8465 -0.7841
 6676SOL    HW220928   4.262   4.928   1.700  0.5711  0.6486 -1.1410
 6677SOL     OW20929   6.289   2.490   3.538 -0.4129 -0.0483  0.0879
 6677SOL    HW120930   6.300   2.586   3.511 -1.5584  0.3922  1.1068
 6677SOL    HW220931   6.373   2.440   3.515 -0.0123  1.0489 -0.9986
 6678SOL     OW20932   6.715   5.252   5.144 -0.4169  0.2296 -0.3753
 6678SOL    HW120933   6.730   5.161   5.105 -0.3297  0.1253 -0.0952
 6678SOL    HW220934   6.750   5.321   5.081  1.1110  0.0027  0.1882
 6679SOL     OW20935   2.637   2.457   3.374 -0.1140 -0.3492  0.4330
 6679SOL    HW120936   2.580   2.533   3.406 -1.0079 -1.4147  1.4822
 6679SOL    HW220937   2.582   2.373   3.374  1.0454 -1.1211 -0.0296
 6680SOL     OW20938   1.013   2.913   2.187  0.1978  0.9073 -0.2309
 6680SOL    HW120939   1.013   2.892   2.089 -0.5282  1.3583 -0.3419
 6680SOL    HW220940   1.058   3.001   2.202  2.2148 -0.1429  0.1003
 6681SOL     OW20941   0.701   1.820   3.221 -0.0784  0.5359  0.2240
 6681SOL    HW120942   0.727   1.725   3.235 -0.1464  0.2718 -1.3477
 6681SOL    HW220943   0.628   1.844   3.286 -0.3587 -0.5971  0.3446
 6682SOL     OW20944   5.764   1.939   4.134  0.1051 -0.1137 -0.8516
 6682SOL    HW120945   5.850   1.988   4.119  0.6054 -0.5067  0.6059
 6682SOL    HW220946   5.714   1.982   4.209 -0.6001 -0.3667 -1.1752
 6683SOL     OW20947   1.457   6.814   5.397 -0.2374 -0.0923  0.4013
 6683SOL    HW120948   1.491   6.835   5.489 -1.1356  1.1308  0.4728
 6683SOL    HW220949   1.439   6.899   5.348  1.1007 -0.7161 -1.2653
 6684SOL     OW20950   2.269   6.815   3.729  0.4799  0.3906  0.2334
 6684SOL    HW120951   2.305   6.839   3.639 -0.3449  0.1570 -0.1653
 6684SOL    HW220952   2.334   6.756   3.776  0.3917 -0.4616 -0.6929
 6685SOL     OW20953   3.803   3.725   2.422 -0.3391 -0.3205 -0.4525
 6685SOL    HW120954   3.717   3.764   2.453  0.1400  1.3387 -1.0849
 6685SOL    HW220955   3.876   3.754   2.484 -0.3767 -2.7747  0.8311
 6686SOL     OW20956   1.638   5.891   3.700  0.1406  0.1600 -0.3474
 6686SOL    HW120957   1.559   5.935   3.657  1.3188 -0.2270 -3.0881
 6686SOL    HW220958   1.606   5.820   3.763 -1.6969  0.6782 -0.6248
 6687SOL     OW20959   6.124   3.544   0.899 -0.4017 -0.1725  0.2994
 6687SOL    HW120960   6.222   3.562   0.901 -0.1558 -1.2674 -0.5544
 6687SOL    HW220961   6.081   3.583   0.980  0.6124  0.9790  0.3088
 6688SOL     OW20962   2.234   6.936   1.140  0.2369 -0.2470 -0.5441
 6688SOL    HW120963   2.158   6.871   1.140  0.0537 -0.0331 -0.6883
 6688SOL    HW220964   2.203   7.024   1.105  0.1971  0.2737  0.7411
 6689SOL     OW20965   1.288   2.289   5.569 -0.3880  0.1372  0.4240
 6689SOL    HW120966   1.359   2.220   5.579  0.4488  1.2036  2.4500
 6689SOL    HW220967   1.232   2.292   5.652 -0.2967  1.9577  0.4686
 6690SOL     OW20968   4.906   0.231   0.179  0.2753  0.3655  0.7362
 6690SOL    HW120969   4.840   0.182   0.123  0.8556  2.7241 -2.2890
 6690SOL    HW220970   4.998   0.196   0.163  0.2959  0.0692  1.4397
 6691SOL     OW20971   2.525   1.152   2.922  0.1667 -0.2014  0.1741
 6691SOL    HW120972   2.537   1.096   2.840 -0.0617 -1.8667  1.2060
 6691SOL    HW220973   2.569   1.241   2.910  1.1462 -0.8531 -1.2995
 6692SOL     OW20974   2.784   2.540   5.307 -0.6643 -0.0175 -0.5900
 6692SOL    HW120975   2.821   2.459   5.262 -0.2566 -1.3448  1.9247
 6692SOL    HW220976   2.859   2.595   5.343 -0.9862  0.9039 -1.2718
 6693SOL     OW20977   2.134   6.621   4.769 -0.0085  0.1575  0.0596
 6693SOL    HW120978   2.062   6.601   4.835 -2.1695 -1.7197 -2.6433
 6693SOL    HW220979   2.105   6.697   4.711  0.8855  0.3822 -0.1001
 6694SOL     OW20980   0.914   6.736   0.397  0.2174 -0.4899 -0.6492
 6694SOL    HW120981   0.976   6.755   0.473 -1.1352  0.6868  0.1899
 6694SOL    HW220982   0.860   6.654   0.417  0.8051 -0.9721 -0.9748
 6695SOL     OW20983   6.424   1.743   3.010 -0.2589  0.1029  0.2648
 6695SOL    HW120984   6.372   1.817   2.970  0.9245  0.8251  0.0189
 6695SOL    HW220985   6.515   1.739   2.968  0.5786  0.1011  1.9739
 6696SOL     OW20986   6.814   2.347   5.540 -0.4939  0.0248  0.3731
 6696SOL    HW120987   6.782   2.441   5.548 -3.0355 -0.8363  1.2825
 6696SOL    HW220988   6.882   2.329   5.611 -0.0536  1.1219  0.2512
 6697SOL     OW20989   2.920   5.672   3.591  0.2923 -0.3252 -0.3223
 6697SOL    HW120990   2.982   5.629   3.526 -0.3650  1.5097 -2.2851
 6697SOL    HW220991   2.833   5.624   3.592 -0.1831  0.4433 -1.9294
 6698SOL     OW20992   6.703   3.303   2.856 -0.7516  0.0341 -0.2825
 6698SOL    HW120993   6.622   3.310   2.798 -0.9563 -1.0670 -0.1597
 6698SOL    HW220994   6.751   3.391   2.858 -1.5542  0.4984 -0.9182
 6699SOL     OW20995   1.277   3.588   3.167  0.0038  0.1547  0.2669
 6699SOL    HW120996   1.305   3.565   3.074  3.5024  0.9268  0.9665
 6699SOL    HW220997   1.283   3.506   3.225 -2.9342 -0.5176 -0.2047
 6700SOL     OW20998   6.202   5.072   4.014  0.0425  0.2449  0.2131
 6700SOL    HW120999   6.123   5.015   3.990 -1.4832  2.8011 -1.4747
 6700SOL    HW221000   6.192   5.106   4.107 -0.2729 -0.3464  0.3973
 6701SOL     OW21001   5.880   6.476   2.891  0.6672 -0.2822  0.3432
 6701SOL    HW121002   5.833   6.444   2.974  0.7810 -1.2524  0.0398
 6701SOL    HW221003   5.976   6.448   2.895  0.5827 -0.6711 -0.2912
 6702SOL     OW21004   0.786   6.554   3.659  0.1616  0.4580 -0.4246
 6702SOL    HW121005   0.837   6.603   3.730 -0.6892  0.1748  0.3962
 6702SOL    HW221006   0.850   6.520   3.590  1.3624 -1.5086  1.5153
 6703SOL     OW21007   4.116   5.408   1.065  0.3874  0.7260  0.3858
 6703SOL    HW121008   4.059   5.380   1.142 -0.2751  0.9338 -0.0300
 6703SOL    HW221009   4.120   5.334   0.998 -0.1192  1.0533 -0.0025
 6704SOL     OW21010   1.038   5.278   0.955  0.2346 -0.4773 -0.0710
 6704SOL    HW121011   1.035   5.181   0.981 -0.8205 -1.0428 -2.1498
 6704SOL    HW221012   0.985   5.293   0.871 -0.8271  2.1606  0.9342
 6705SOL     OW21013   6.409   0.557   1.356 -0.5279  0.1149 -0.3606
 6705SOL    HW121014   6.310   0.550   1.348 -0.6913 -0.5069  1.5741
 6705SOL    HW221015   6.449   0.465   1.358 -0.2242  0.2433  1.5245
 6706SOL     OW21016   5.489   4.382   5.514 -0.2875  0.5793  0.0758
 6706SOL    HW121017   5.439   4.296   5.498 -0.1999 -0.1297  3.0139
 6706SOL    HW221018   5.581   4.361   5.548 -0.0485  1.8653  0.2709
 6707SOL     OW21019   0.274   4.821   6.686 -0.0367 -0.5917  0.1705
 6707SOL    HW121020   0.346   4.805   6.754  1.3164 -0.8409 -1.2447
 6707SOL    HW221021   0.200   4.756   6.699 -0.5399  0.3305  2.3103
 6708SOL     OW21022   6.199   2.863   2.833  0.0332 -0.0092 -0.9846
 6708SOL    HW121023   6.285   2.820   2.861 -0.5665 -0.5046  0.1640
 6708SOL    HW221024   6.211   2.907   2.744  1.5441  0.1331 -0.7412
 6709SOL     OW21025   3.278   3.984   5.502 -0.1832  0.6013  0.1736
 6709SOL    HW121026   3.354   3.987   5.436  2.2352  0.5347  2.7537
 6709SOL    HW221027   3.215   4.059   5.483  1.1885  1.4378 -1.3416
 6710SOL     OW21028   6.052   5.229   3.131  0.0575  0.1670  0.3932
 6710SOL    HW121029   6.132   5.194   3.179  0.0707 -1.8797 -0.9983
 6710SOL    HW221030   5.969   5.189   3.171 -0.0077 -0.5745 -0.4518
 6711SOL     OW21031   6.615   3.000   3.626  0.3391  0.1228  0.0585
 6711SOL    HW121032   6.647   2.983   3.533  1.5031  0.6319  0.3436
 6711SOL    HW221033   6.681   2.962   3.691  0.5105  1.4245  0.6701
 6712SOL     OW21034   5.226   0.557   6.716  0.0221 -0.3062  0.0066
 6712SOL    HW121035   5.311   0.592   6.757  0.7003 -0.4600 -1.2081
 6712SOL    HW221036   5.189   0.485   6.774  0.5129  0.0165  0.7466
 6713SOL     OW21037   0.234   1.576   4.216  0.3283 -0.3140  0.0284
 6713SOL    HW121038   0.159   1.596   4.278  0.8417  2.5076 -0.1397
 6713SOL    HW221039   0.200   1.573   4.122  0.1808 -0.6505  0.0913
 6714SOL     OW21040   3.671   0.649   1.620 -0.3274  0.3844 -0.0436
 6714SOL    HW121041   3.633   0.663   1.529 -1.0469 -1.3065 -0.0437
 6714SOL    HW221042   3.609   0.592   1.674  0.7573  0.1650  1.0284
 6715SOL     OW21043   0.671   5.455   4.939  0.5248 -0.0937  0.4822
 6715SOL    HW121044   0.720   5.385   4.991  0.1470 -0.9236 -0.2366
 6715SOL    HW221045   0.615   5.411   4.869  2.3827  0.9880 -1.8557
 6716SOL     OW21046   4.906   1.527   3.426  0.2288  0.5054 -0.3428
 6716SOL    HW121047   4.900   1.505   3.329  1.0068 -0.9211 -0.0826
 6716SOL    HW221048   4.838   1.597   3.448 -1.7888 -1.0229 -1.3892
 6717SOL     OW21049   0.929   3.914   5.477  0.2822 -0.2957 -0.0221
 6717SOL    HW121050   1.013   3.907   5.423  0.7089 -0.1864  0.6197
 6717SOL    HW221051   0.855   3.948   5.419  0.1295 -2.3816 -1.1642
 6718SOL     OW21052   0.139   0.085   5.955  0.1583  0.0785 -0.8020
 6718SOL    HW121053   0.149   0.009   5.891 -0.5730 -0.4939 -0.2691
 6718SOL    HW221054   0.173   0.169   5.914  0.3867 -0.4182 -1.6512
 6719SOL     OW21055   1.100   3.354   1.269 -0.3804  0.7621 -0.7344
 6719SOL    HW121056   1.005   3.380   1.257 -0.9917 -1.0799 -0.2023
 6719SOL    HW221057   1.143   3.341   1.179 -1.5817 -1.4855 -1.0589
 6720SOL     OW21058   6.262   3.740   2.123  0.4553 -0.2987  0.3171
 6720SOL    HW121059   6.206   3.681   2.182  0.2685 -0.6084 -0.1574
 6720SOL    HW221060   6.225   3.737   2.029  0.8643  0.0286  0.1445
 6721SOL     OW21061   2.261   5.056   5.376  0.1466 -0.4327  0.4253
 6721SOL    HW121062   2.325   5.006   5.434 -0.8697  0.7180  2.7030
 6721SOL    HW221063   2.205   5.117   5.434 -2.3048 -0.6440 -1.5503
 6722SOL     OW21064   1.384   4.147   0.085  0.2338  0.4299  0.8088
 6722SOL    HW121065   1.375   4.073   0.019  0.4406  0.6532  0.5259
 6722SOL    HW221066   1.480   4.158   0.111  0.0871 -0.0086  1.5600
 6723SOL     OW21067   2.350   0.667   3.206  0.1379 -0.3064  0.6567
 6723SOL    HW121068   2.374   0.713   3.120  2.7023 -1.3534  0.7468
 6723SOL    HW221069   2.353   0.733   3.281  1.0971 -0.0314  0.3905
 6724SOL     OW21070   6.182   5.210   0.260 -0.0223  0.6056 -0.1616
 6724SOL    HW121071   6.274   5.173   0.265  0.1348  0.8585 -1.0002
 6724SOL    HW221072   6.185   5.309   0.278  0.0823  0.8820 -1.6103
 6725SOL     OW21073   6.468   1.355   2.527  0.4022 -0.5921 -0.0795
 6725SOL    HW121074   6.496   1.304   2.609  0.5179 -0.8915 -0.3016
 6725SOL    HW221075   6.501   1.307   2.445 -1.0500 -1.1597 -0.3651
 6726SOL     OW21076   1.765   2.543   4.753 -0.6273  0.0331 -0.0483
 6726SOL    HW121077   1.760   2.633   4.710 -2.7367  0.7371  1.5027
 6726SOL    HW221078   1.680   2.493   4.737 -0.7031 -0.4401  1.6283
 6727SOL     OW21079   4.505   2.414   1.562 -0.1598 -0.0678  0.3768
 6727SOL    HW121080   4.439   2.354   1.516  0.3400  0.8743 -1.7128
 6727SOL    HW221081   4.521   2.381   1.655 -1.7236 -1.7200  0.1246
 6728SOL     OW21082   5.077   0.784   0.630  0.3786 -0.2806  0.5448
 6728SOL    HW121083   5.079   0.881   0.653 -1.2293 -0.1018  0.0554
 6728SOL    HW221084   5.035   0.733   0.704 -0.3434 -0.3545  0.0992
 6729SOL     OW21085   4.806   2.921   3.066 -0.0656 -0.0107  0.1901
 6729SOL    HW121086   4.723   2.920   3.122  0.4549 -0.0682  0.9682
 6729SOL    HW221087   4.814   2.834   3.017 -0.8560  0.2794 -0.4936
 6730SOL     OW21088   5.269   0.322   0.835 -0.0221  0.3304 -0.1962
 6730SOL    HW121089   5.226   0.243   0.880  0.3848 -0.0437 -0.4598
 6730SOL    HW221090   5.210   0.353   0.760 -0.9408  1.2650  0.8942
 6731SOL     OW21091   5.778   3.880   6.599 -0.3640  0.2446 -0.1971
 6731SOL    HW121092   5.767   3.909   6.694 -1.4567 -0.3742 -0.1125
 6731SOL    HW221093   5.793   3.781   6.595  1.3490  0.4832 -0.5953
 6732SOL     OW21094   0.495   2.069   6.637  0.2439 -0.3172  0.0352
 6732SOL    HW121095   0.400   2.076   6.606  0.4424 -2.5627 -1.2410
 6732SOL    HW221096   0.508   1.982   6.684  1.3609  0.6011  1.5052
 6733SOL     OW21097   1.095   4.282   6.535  0.1023 -0.2176  0.0967
 6733SOL    HW121098   1.113   4.187   6.509  0.9104 -0.4564  1.4285
 6733SOL    HW221099   1.151   4.343   6.480 -1.1689 -0.4111 -1.4878
 6734SOL     OW21100   0.162   6.479   1.798  0.9781  0.0297  0.5293
 6734SOL    HW121101   0.137   6.475   1.894 -0.2372 -1.3133  0.1877
 6734SOL    HW221102   0.221   6.402   1.775  1.3397  0.3932  0.2142
 6735SOL     OW21103   1.950   2.982   3.773 -0.7188  0.1754  0.8045
 6735SOL    HW121104   1.968   2.942   3.862  0.5252 -0.1004  0.4572
 6735SOL    HW221105   1.872   2.937   3.730 -0.3120 -0.8025  1.0764
 6736SOL     OW21106   5.854   2.258   2.357  0.1375  0.5848  0.2434
 6736SOL    HW121107   5.831   2.172   2.310 -1.3754  0.0014  1.9563
 6736SOL    HW221108   5.808   2.334   2.311 -1.2042  0.0473  0.6417
 6737SOL     OW21109   2.838   6.301   2.642  1.4085 -0.5462 -0.0234
 6737SOL    HW121110   2.879   6.391   2.628  2.0864 -0.4879  1.9361
 6737SOL    HW221111   2.861   6.269   2.734 -1.9862 -1.0266  0.7745
 6738SOL     OW21112   1.460   3.049   1.017  0.3838  0.2294 -0.2832
 6738SOL    HW121113   1.414   3.009   1.096  1.1125 -1.3424 -0.6321
 6738SOL    HW221114   1.412   3.023   0.933  1.4844 -0.8544 -0.5959
 6739SOL     OW21115   0.545   6.486   3.770 -0.4130  0.1320  0.2129
 6739SOL    HW121116   0.529   6.568   3.826  1.5100  2.2683 -2.0939
 6739SOL    HW221117   0.639   6.487   3.736 -0.5474 -2.7255 -0.5195
 6740SOL     OW21118   6.930   3.906   4.667 -0.2075 -0.2626 -0.4812
 6740SOL    HW121119   6.889   3.994   4.691 -0.1120 -0.3620  0.0554
 6740SOL    HW221120   6.872   3.832   4.702  0.3102 -0.4048  0.0952
 6741SOL     OW21121   4.133   6.703   0.142  0.3403 -0.0539  0.2858
 6741SOL    HW121122   4.081   6.708   0.228 -0.0923 -1.4798  0.1311
 6741SOL    HW221123   4.231   6.707   0.162  0.2485 -0.5643  0.8715
 6742SOL     OW21124   2.213   3.299   5.100 -0.4157  0.0165  0.2121
 6742SOL    HW121125   2.171   3.374   5.050  1.0625  0.5684 -0.2498
 6742SOL    HW221126   2.235   3.329   5.193 -0.3075 -0.0131  0.1962
 6743SOL     OW21127   0.714   6.788   3.306  0.7356  0.5272  0.3382
 6743SOL    HW121128   0.721   6.841   3.391  0.3818  0.9676  0.0980
 6743SOL    HW221129   0.802   6.789   3.259  0.5840  1.3869  0.0553
 6744SOL     OW21130   0.641   3.232   3.727  0.1499 -0.5512 -0.1114
 6744SOL    HW121131   0.710   3.179   3.775  1.5511  2.0183  0.8714
 6744SOL    HW221132   0.677   3.264   3.640  0.4098  1.1408  0.5844
 6745SOL     OW21133   4.463   3.114   6.189 -0.3812  0.2332  0.0744
 6745SOL    HW121134   4.460   3.047   6.263 -1.0472  0.1050 -0.0623
 6745SOL    HW221135   4.554   3.115   6.148 -0.3366 -0.5079  0.1513
 6746SOL     OW21136   3.486   5.985   2.954  0.0194 -0.0561 -0.8557
 6746SOL    HW121137   3.512   6.078   2.929  2.4348 -0.1866  0.8766
 6746SOL    HW221138   3.407   5.989   3.016 -0.1611  0.7881 -1.1189
 6747SOL     OW21139   6.958   5.379   4.333  1.4088 -0.1353  0.0999
 6747SOL    HW121140   7.007   5.352   4.250  1.1862  1.1155 -0.4641
 6747SOL    HW221141   6.977   5.475   4.353 -0.3276  0.2269  0.1934
 6748SOL     OW21142   1.831   2.992   6.055 -0.7881 -0.5434  0.0151
 6748SOL    HW121143   1.814   2.900   6.090 -0.4570 -1.4128 -1.9232
 6748SOL    HW221144   1.771   3.009   5.976  0.9022 -0.1238 -1.2489
 6749SOL     OW21145   1.833   2.934   4.195 -0.4639 -0.0837 -0.3630
 6749SOL    HW121146   1.878   3.019   4.223 -1.9877  0.5275  0.3616
 6749SOL    HW221147   1.888   2.856   4.224  0.5330  0.6294 -0.2694
 6750SOL     OW21148   4.603   5.747   3.156  0.1596  0.0594 -0.3426
 6750SOL    HW121149   4.619   5.701   3.244  0.3781 -0.2591 -0.5434
 6750SOL    HW221150   4.691   5.776   3.118  0.0411  0.4239 -0.3359
 6751SOL     OW21151   6.838   4.044   2.590 -0.1081 -0.0536  0.2266
 6751SOL    HW121152   6.773   4.078   2.658  0.3511  0.6703  0.3122
 6751SOL    HW221153   6.837   4.104   2.510  1.3742  0.7240  0.7554
 6752SOL     OW21154   2.386   5.119   1.206 -0.6564  0.1907  0.1048
 6752SOL    HW121155   2.462   5.115   1.271 -1.2837  1.4833  0.9661
 6752SOL    HW221156   2.417   5.163   1.122 -0.5627  1.3017  0.6874
 6753SOL     OW21157   6.776   0.197   4.562 -0.3299  0.0194 -0.1272
 6753SOL    HW121158   6.701   0.142   4.526 -2.0540  1.9115  0.3918
 6753SOL    HW221159   6.773   0.289   4.522  0.2060  0.8836  1.7045
 6754SOL     OW21160   5.486   1.396   6.945 -0.6529 -0.1680 -0.1076
 6754SOL    HW121161   5.527   1.369   7.032 -0.5837  1.7119  0.4855
 6754SOL    HW221162   5.533   1.348   6.870  2.1619  1.2943  0.6044
 6755SOL     OW21163   6.218   6.959   1.015 -0.0470  0.1870  0.3215
 6755SOL    HW121164   6.161   7.040   1.002  0.6083  0.4215 -1.4162
 6755SOL    HW221165   6.304   6.985   1.058  0.1056  0.4111 -0.1106
 6756SOL     OW21166   6.538   3.445   1.785 -0.0328  0.0682  0.0396
 6756SOL    HW121167   6.565   3.531   1.828  0.2624 -0.7088  1.4691
 6756SOL    HW221168   6.619   3.392   1.762 -0.2128  0.1357 -0.7696
 6757SOL     OW21169   6.795   3.706   4.811  0.5336  0.6314 -0.7770
 6757SOL    HW121170   6.841   3.619   4.790  0.6518  1.3149 -3.9487
 6757SOL    HW221171   6.696   3.694   4.802  0.2847  0.1360  1.9771
 6758SOL     OW21172   3.712   5.281   4.672  0.1782  0.1130 -0.0431
 6758SOL    HW121173   3.716   5.186   4.705  3.3806  0.7583  1.8541
 6758SOL    HW221174   3.785   5.296   4.606 -0.5005  1.2003 -0.5647
 6759SOL     OW21175   6.613   2.592   5.441  0.1101  0.1421 -0.3150
 6759SOL    HW121176   6.630   2.575   5.344 -0.2953  1.7510 -0.6958
 6759SOL    HW221177   6.567   2.680   5.452 -0.3063 -0.2428  1.3095
 6760SOL     OW21178   6.925   5.822   4.524  0.3294  0.0950  0.5496
 6760SOL    HW121179   6.981   5.903   4.542  0.6252 -0.5386  2.6959
 6760SOL    HW221180   6.846   5.849   4.468  1.3735  1.4871 -0.3222
 6761SOL     OW21181   3.802   0.303   1.443  0.6389  0.1675  0.2444
 6761SOL    HW121182   3.863   0.382   1.450 -0.5248  1.1257 -0.1324
 6761SOL    HW221183   3.849   0.229   1.396  0.7965  1.6675 -2.0941
 6762SOL     OW21184   1.857   1.244   0.807 -0.3196 -0.2622  0.0187
 6762SOL    HW121185   1.872   1.196   0.893 -2.1583 -1.0011 -0.0296
 6762SOL    HW221186   1.887   1.187   0.731 -0.8811 -0.6026  0.0515
 6763SOL     OW21187   0.864   0.419   4.581  0.0413  0.0488  0.2409
 6763SOL    HW121188   0.954   0.418   4.624  0.6601 -1.1447 -0.9972
 6763SOL    HW221189   0.827   0.512   4.582  0.2699  0.1995  2.7320
 6764SOL     OW21190   3.423   5.939   4.221 -0.1136  0.3249 -0.5189
 6764SOL    HW121191   3.418   5.850   4.266 -0.2172  0.9438  0.7302
 6764SOL    HW221192   3.516   5.975   4.228 -0.0430  0.2830 -1.1225
 6765SOL     OW21193   0.679   6.271   3.099  0.4216  0.2295 -0.8965
 6765SOL    HW121194   0.592   6.258   3.051  0.3663 -1.0369 -0.5053
 6765SOL    HW221195   0.705   6.367   3.096 -2.3555  1.1805  1.2956
 6766SOL     OW21196   0.219   1.511   2.405  1.1616  0.2781  0.2516
 6766SOL    HW121197   0.169   1.424   2.403 -1.2226  1.5128  1.8121
 6766SOL    HW221198   0.210   1.557   2.318  3.3709 -1.4031 -0.9996
 6767SOL     OW21199   4.372   6.154   6.165 -0.7462 -0.3393  0.0176
 6767SOL    HW121200   4.374   6.069   6.112  1.0738 -1.3490  1.5631
 6767SOL    HW221201   4.456   6.206   6.147 -0.4831 -0.3106  1.2375
 6768SOL     OW21202   2.197   2.969   2.629 -0.2840 -0.1325 -0.3798
 6768SOL    HW121203   2.129   3.013   2.570  0.6750  1.8730 -0.0709
 6768SOL    HW221204   2.288   2.985   2.592  0.1713 -0.8865  0.3953
 6769SOL     OW21205   1.812   5.582   6.539 -1.0281  0.7955  0.6848
 6769SOL    HW121206   1.869   5.612   6.463  0.0545 -2.0529  0.2447
 6769SOL    HW221207   1.780   5.662   6.590 -0.7289  2.7312 -1.9502
 6770SOL     OW21208   0.885   3.350   0.547 -0.1969 -1.0925 -0.1074
 6770SOL    HW121209   0.864   3.445   0.525 -0.8414 -0.4019  2.9598
 6770SOL    HW221210   0.822   3.290   0.499  0.7979 -0.1199 -2.8218
 6771SOL     OW21211   3.839   3.157   0.391 -0.1786 -0.1525  0.1782
 6771SOL    HW121212   3.859   3.060   0.376 -0.2452 -0.0517 -0.6498
 6771SOL    HW221213   3.780   3.167   0.470 -0.1812 -0.7938  0.2645
 6772SOL     OW21214   3.641   1.103   5.760  0.3442  0.2959 -0.2485
 6772SOL    HW121215   3.717   1.159   5.791  0.6556 -0.5352  0.5425
 6772SOL    HW221216   3.554   1.141   5.793  0.5199  0.5214 -0.0487
 6773SOL     OW21217   1.159   5.581   0.454 -0.0710 -0.2353 -0.2882
 6773SOL    HW121218   1.120   5.548   0.368 -0.7452 -0.0604 -0.0597
 6773SOL    HW221219   1.186   5.676   0.443 -1.7489  0.3339  0.1635
 6774SOL     OW21220   2.125   3.429   3.335 -0.3130  0.1015 -0.3213
 6774SOL    HW121221   2.140   3.497   3.264  2.0422 -0.2240 -0.2183
 6774SOL    HW221222   2.027   3.414   3.347 -0.8137  1.6580 -2.0365
 6775SOL     OW21223   4.043   3.149   6.679  0.6775 -0.1865 -0.5681
 6775SOL    HW121224   3.983   3.120   6.604  0.0132 -1.1953  0.3043
 6775SOL    HW221225   3.991   3.207   6.742  0.6852 -0.7913  0.0175
 6776SOL     OW21226   0.703   6.383   6.944  0.3272 -0.1068  0.0992
 6776SOL    HW121227   0.605   6.372   6.959  0.3497  0.0847  0.3861
 6776SOL    HW221228   0.735   6.466   6.990  0.8874 -0.9054  1.2034
 6777SOL     OW21229   1.755   6.142   2.200  0.0374  0.3213 -0.3586
 6777SOL    HW121230   1.814   6.206   2.250 -0.6892  0.6665  0.0606
 6777SOL    HW221231   1.687   6.194   2.147  0.5264 -0.0505 -1.3877
 6778SOL     OW21232   3.254   0.671   6.697 -0.0083 -0.4021  0.9635
 6778SOL    HW121233   3.251   0.659   6.797 -0.5735 -1.1041  0.8673
 6778SOL    HW221234   3.182   0.616   6.655 -0.0869  0.2726  0.2001
 6779SOL     OW21235   0.033   1.199   6.996 -0.4469  0.7397 -0.0050
 6779SOL    HW121236  -0.065   1.201   6.978 -0.8148 -0.3132  1.6438
 6779SOL    HW221237   0.072   1.115   6.960  0.1710  1.8003 -1.9379
 6780SOL     OW21238   3.952   0.407   0.222 -0.4059 -0.2194 -0.0492
 6780SOL    HW121239   3.921   0.320   0.259  0.8010 -1.5866 -2.0955
 6780SOL    HW221240   3.948   0.477   0.294 -0.5426 -2.1305  1.8862
 6781SOL     OW21241   0.293   0.740   1.249 -0.0524 -0.8386  0.1058
 6781SOL    HW121242   0.231   0.681   1.197 -1.2111  1.2397 -0.9953
 6781SOL    HW221243   0.357   0.784   1.186 -0.8023  0.9250  0.5035
 6782SOL     OW21244   2.905   0.014   4.794 -0.4390  0.0029  0.2473
 6782SOL    HW121245   2.851   0.000   4.711  2.4912  0.8092 -1.9686
 6782SOL    HW221246   2.887   0.106   4.830 -1.3117 -0.1222  0.1314
 6783SOL     OW21247   5.055   2.648   2.296 -0.3612  0.1338  0.0532
 6783SOL    HW121248   5.075   2.692   2.384 -0.1798 -0.7226  0.4565
 6783SOL    HW221249   5.026   2.553   2.312  0.2273 -0.2117 -0.8473
 6784SOL     OW21250   5.714   4.194   3.670 -0.1709  0.1879  0.2165
 6784SOL    HW121251   5.722   4.199   3.770  0.7409 -1.0829  0.2218
 6784SOL    HW221252   5.779   4.257   3.628  0.5044 -0.3655  0.4166
 6785SOL     OW21253   0.884   3.321   4.439 -0.3228 -0.0249 -0.4848
 6785SOL    HW121254   0.921   3.326   4.532  0.0074 -0.6997 -0.5729
 6785SOL    HW221255   0.880   3.225   4.409 -0.6108  0.1686 -1.0920
 6786SOL     OW21256   5.245   1.945   6.678 -0.6659 -0.0253  0.0450
 6786SOL    HW121257   5.166   2.002   6.653 -0.9065  0.0095  0.8510
 6786SOL    HW221258   5.321   2.004   6.705 -0.2733 -0.0527 -0.9559
 6787SOL     OW21259   2.729   5.683   6.486  0.3983 -0.2099  0.4072
 6787SOL    HW121260   2.822   5.700   6.520  1.3120  0.2924 -2.1005
 6787SOL    HW221261   2.663   5.697   6.560  2.1857  1.0352  1.8541
 6788SOL     OW21262   1.782   5.852   5.693 -0.1509  0.2135 -0.4119
 6788SOL    HW121263   1.712   5.832   5.624  0.1473 -0.1545 -0.6078
 6788SOL    HW221264   1.796   5.950   5.699 -0.8187  0.3037 -0.2427
 6789SOL     OW21265   4.598   0.721   2.675  0.5977  0.6983 -0.1186
 6789SOL    HW121266   4.675   0.750   2.733  0.5840 -0.5052  0.5243
 6789SOL    HW221267   4.583   0.623   2.687 -0.9552  0.8948 -0.3461
 6790SOL     OW21268   6.851   1.540   5.044 -0.1635  0.5700  0.6561
 6790SOL    HW121269   6.915   1.495   5.106 -1.9394  0.8853  2.8304
 6790SOL    HW221270   6.902   1.588   4.973  1.9263 -0.5555  1.3212
 6791SOL     OW21271   6.856   3.777   2.119  0.2432  0.1837 -0.5554
 6791SOL    HW121272   6.767   3.796   2.159  0.0243  0.2941 -1.0848
 6791SOL    HW221273   6.846   3.710   2.045  0.6703 -0.1858 -0.2884
 6792SOL     OW21274   6.187   3.858   0.498 -0.4403 -0.4169 -0.5975
 6792SOL    HW121275   6.172   3.882   0.403  0.2324  1.3606 -0.2982
 6792SOL    HW221276   6.154   3.932   0.557  0.1667 -0.9824  0.4986
 6793SOL     OW21277   3.974   3.844   2.595  0.3828 -0.6601  0.2602
 6793SOL    HW121278   3.994   3.805   2.685 -1.1820 -0.7519  0.6092
 6793SOL    HW221279   3.892   3.901   2.601  1.0333  0.4408 -0.8449
 6794SOL     OW21280   4.168   2.551   1.239 -0.1354  0.5479  0.1601
 6794SOL    HW121281   4.161   2.612   1.318 -0.3525  2.5057 -1.2888
 6794SOL    HW221282   4.254   2.567   1.192  1.5379 -2.9002  1.6845
 6795SOL     OW21283   3.028   3.660   3.179  0.1790  0.6065  0.1955
 6795SOL    HW121284   2.962   3.592   3.148 -0.0050  0.5609  0.6811
 6795SOL    HW221285   3.097   3.615   3.236  0.1874  0.7873  0.3271
 6796SOL     OW21286   2.691   4.101   0.493  0.3924  1.1708 -0.2234
 6796SOL    HW121287   2.658   4.033   0.427 -1.1733  2.0211 -0.3648
 6796SOL    HW221288   2.735   4.055   0.570  0.4720  0.0694 -0.9122
 6797SOL     OW21289   4.037   6.187   5.977 -1.2088 -0.5800  0.4083
 6797SOL    HW121290   3.937   6.179   5.976 -1.2259 -0.4035 -0.5455
 6797SOL    HW221291   4.066   6.220   6.067 -2.1045  0.3952  0.3707
 6798SOL     OW21292   0.482   3.892   5.752  0.0278 -0.2924 -0.0673
 6798SOL    HW121293   0.433   3.947   5.685 -0.8716 -1.5821 -0.4885
 6798SOL    HW221294   0.580   3.892   5.730 -0.3348 -1.2854 -1.8286
 6799SOL     OW21295   0.664   1.926   1.860  0.1135 -0.3812  0.6278
 6799SOL    HW121296   0.610   2.010   1.858  2.1512  1.0153 -0.5025
 6799SOL    HW221297   0.721   1.922   1.778  2.9025 -0.9057  2.4629
 6800SOL     OW21298   0.674   3.546   4.478 -0.9231  0.3547  0.2066
 6800SOL    HW121299   0.646   3.630   4.431  0.3708 -0.3278 -1.9239
 6800SOL    HW221300   0.773   3.547   4.492 -0.7976 -1.0419 -0.3986
 6801SOL     OW21301   3.542   5.691   3.571 -0.1651  0.0815  0.6683
 6801SOL    HW121302   3.457   5.682   3.519 -0.9992 -0.1051  2.0001
 6801SOL    HW221303   3.574   5.785   3.566 -0.1195  0.0173 -0.3408
 6802SOL     OW21304   5.673   3.063   1.631 -0.3731 -0.3704  0.1168
 6802SOL    HW121305   5.762   3.030   1.662  0.7594  1.3187 -1.1179
 6802SOL    HW221306   5.648   3.145   1.683 -1.3111 -0.9318  0.5706
 6803SOL     OW21307   4.093   6.045   4.766 -0.0562 -0.5580 -0.0076
 6803SOL    HW121308   4.007   6.081   4.803 -0.9447 -2.3368 -0.2381
 6803SOL    HW221309   4.093   6.053   4.667  0.9927  1.3485  0.0921
 6804SOL     OW21310   0.347   2.442   4.700  0.5477 -0.2659  0.0442
 6804SOL    HW121311   0.365   2.349   4.731  1.1230 -0.4779 -0.8910
 6804SOL    HW221312   0.431   2.482   4.663  0.3065  0.6238  0.4219
 6805SOL     OW21313   0.145   0.520   1.138 -0.1653 -0.6166  0.3739
 6805SOL    HW121314   0.183   0.434   1.171  0.7248 -0.3151  0.1549
 6805SOL    HW221315   0.077   0.502   1.067 -1.7279 -1.2523  1.9530
 6806SOL     OW21316   6.535   0.611   6.616 -0.4669 -0.6069 -0.5129
 6806SOL    HW121317   6.471   0.614   6.539  1.2081 -0.4059 -1.9392
 6806SOL    HW221318   6.586   0.526   6.614 -0.7234 -0.7978  0.6568
 6807SOL     OW21319   2.969   5.158   6.483 -0.0159  0.0794 -0.4659
 6807SOL    HW121320   3.061   5.187   6.511 -0.5270  2.2294 -0.8357
 6807SOL    HW221321   2.964   5.156   6.383 -0.7507  1.3548 -0.4674
 6808SOL     OW21322   1.394   4.817   0.139  0.1099 -0.0888  0.1477
 6808SOL    HW121323   1.352   4.849   0.224  1.1545  0.8836  0.3194
 6808SOL    HW221324   1.323   4.784   0.077 -0.6348 -1.4709  1.6415
 6809SOL     OW21325   2.733   1.456   0.434 -0.2216 -0.0273 -0.2634
 6809SOL    HW121326   2.726   1.371   0.487 -1.0985  0.6396  0.7239
 6809SOL    HW221327   2.826   1.466   0.401  0.1112 -0.9544  0.3369
 6810SOL     OW21328   3.224   3.850   1.197 -0.4448 -0.1797  0.1021
 6810SOL    HW121329   3.244   3.914   1.272 -0.8022  0.2106 -0.1331
 6810SOL    HW221330   3.280   3.874   1.118  1.0404 -1.4940  0.6962
 6811SOL     OW21331   0.529   4.511   3.647 -0.1346 -0.6510  0.6583
 6811SOL    HW121332   0.455   4.516   3.580 -0.2985  1.8183  0.9052
 6811SOL    HW221333   0.494   4.535   3.737  0.8380  0.0244  0.8753
 6812SOL     OW21334   0.701   3.576   5.087  0.0815 -0.3730 -0.2390
 6812SOL    HW121335   0.750   3.630   5.018  0.1369  0.0561  0.1301
 6812SOL    HW221336   0.742   3.486   5.095 -1.1622 -1.1879 -2.2188
 6813SOL     OW21337   6.617   0.983   4.328 -0.6836 -0.3971  0.3276
 6813SOL    HW121338   6.591   1.074   4.294  0.1359  0.9190  2.9442
 6813SOL    HW221339   6.689   0.946   4.270  0.4861  1.6032  0.3970
 6814SOL     OW21340   6.207   1.411   4.810  0.8059 -0.3643 -0.5136
 6814SOL    HW121341   6.235   1.492   4.759 -1.5479  2.2171  1.9284
 6814SOL    HW221342   6.138   1.361   4.758  0.7949  0.3762 -1.2232
 6815SOL     OW21343   3.437   1.583   4.578 -0.2810 -0.0280  0.0697
 6815SOL    HW121344   3.515   1.644   4.567 -0.6260  0.8790  2.1975
 6815SOL    HW221345   3.361   1.633   4.619 -1.7516 -1.0820 -1.2869
 6816SOL     OW21346   4.251   4.740   4.570 -0.1577 -0.0888  0.3686
 6816SOL    HW121347   4.211   4.703   4.486 -0.3365 -0.3101  0.5508
 6816SOL    HW221348   4.302   4.824   4.548  0.1278 -0.3562 -0.0228
 6817SOL     OW21349   0.863   4.729   4.079  0.3188 -0.1741 -0.0826
 6817SOL    HW121350   0.954   4.689   4.070  0.1667 -1.0779  1.9265
 6817SOL    HW221351   0.797   4.673   4.028  0.4813 -1.1684  0.7552
 6818SOL     OW21352   2.521   0.190   6.713  0.1480 -0.0068 -0.5024
 6818SOL    HW121353   2.611   0.231   6.696 -0.2701  0.8848 -0.6120
 6818SOL    HW221354   2.533   0.100   6.756  1.0759  0.5898  0.5570
 6819SOL     OW21355   3.505   0.312   6.793 -0.0120  0.1738 -0.6846
 6819SOL    HW121356   3.439   0.238   6.810  0.1433 -0.1319 -1.3845
 6819SOL    HW221357   3.462   0.382   6.736 -0.1093  0.5565 -0.1470
 6820SOL     OW21358   4.653   0.807   4.116  0.3105 -0.2028  0.1597
 6820SOL    HW121359   4.579   0.850   4.064  1.3911  0.3438 -1.0038
 6820SOL    HW221360   4.618   0.727   4.165 -1.0205 -0.0178 -0.4435
 6821SOL     OW21361   0.138   0.348   4.409 -0.0718 -0.2026  0.1723
 6821SOL    HW121362   0.139   0.263   4.462  0.2503 -0.0704  0.3782
 6821SOL    HW221363   0.072   0.411   4.448 -0.9929 -0.7028 -0.5296
 6822SOL     OW21364   5.013   3.456   6.265  0.5265  0.4367 -0.6664
 6822SOL    HW121365   5.034   3.465   6.167  1.2032 -1.5806 -0.7333
 6822SOL    HW221366   5.085   3.405   6.311 -1.6490 -2.2029  0.0856
 6823SOL     OW21367   2.228   5.733   0.665 -0.3370 -0.3004 -0.0048
 6823SOL    HW121368   2.313   5.784   0.677 -1.4171  2.0690 -1.5978
 6823SOL    HW221369   2.231   5.685   0.577 -0.9420  0.5031 -0.4781
 6824SOL     OW21370   5.210   4.259   0.089  0.1798  0.1971  0.3340
 6824SOL    HW121371   5.128   4.232   0.141  0.8222  2.0315  2.4750
 6824SOL    HW221372   5.207   4.218  -0.002 -1.8006 -1.9207  1.2571
 6825SOL     OW21373   3.246   0.445   6.317 -0.5382 -0.2787 -0.4479
 6825SOL    HW121374   3.211   0.360   6.278 -2.7036  0.7273 -0.8528
 6825SOL    HW221375   3.297   0.494   6.247 -0.6323 -0.5215 -0.6899
 6826SOL     OW21376   5.964   5.488   5.336 -0.1781 -0.3758  0.0818
 6826SOL    HW121377   5.991   5.541   5.256  0.9017 -1.4648 -0.3050
 6826SOL    HW221378   5.996   5.534   5.419 -0.2928  0.1690 -0.1712
 6827SOL     OW21379   2.989   6.585   6.045  1.4443  0.1156  0.2302
 6827SOL    HW121380   2.928   6.512   6.077  0.8103  0.0123 -1.1685
 6827SOL    HW221381   3.038   6.623   6.124 -0.2494  0.0479  1.3803
 6828SOL     OW21382   5.598   1.838   1.703  0.4625 -0.0947 -0.2788
 6828SOL    HW121383   5.685   1.880   1.679 -0.1631  1.4081 -0.0365
 6828SOL    HW221384   5.600   1.807   1.798  0.8782 -0.5031 -0.4175
 6829SOL     OW21385   4.499   5.176   4.119 -0.5552  0.1484 -0.4230
 6829SOL    HW121386   4.493   5.114   4.197  1.3730 -0.9070 -1.0545
 6829SOL    HW221387   4.437   5.145   4.047 -1.2180  0.2539  0.0900
 6830SOL     OW21388   0.198   6.290   4.678  0.3536 -0.1905  0.8037
 6830SOL    HW121389   0.298   6.295   4.682  0.3298  1.9312  0.1927
 6830SOL    HW221390   0.166   6.334   4.594 -1.1357 -0.2180  1.3268
 6831SOL     OW21391   6.096   2.710   6.383 -0.2013  0.3175  0.4603
 6831SOL    HW121392   6.173   2.667   6.429 -0.3898 -0.4928  0.0282
 6831SOL    HW221393   6.014   2.701   6.439 -0.1682  0.4050  0.5222
 6832SOL     OW21394   5.370   0.854   3.277  0.5722 -0.2091 -0.4678
 6832SOL    HW121395   5.372   0.869   3.375  2.4998 -1.3103 -0.2972
 6832SOL    HW221396   5.286   0.805   3.252  0.2970 -0.3327  0.6709
 6833SOL     OW21397   0.253   4.966   0.680 -0.0797  0.4644  0.0239
 6833SOL    HW121398   0.218   4.930   0.767 -2.0191 -0.7156 -1.1574
 6833SOL    HW221399   0.183   4.955   0.609  1.6370  0.8797 -1.8268
 6834SOL     OW21400   1.051   2.325   2.523  0.2793  0.4611  0.1469
 6834SOL    HW121401   1.052   2.289   2.430  0.2106 -0.5119  0.5174
 6834SOL    HW221402   1.119   2.278   2.578  0.6024  1.3117  0.4967
 6835SOL     OW21403   0.764   5.634   1.022  0.2315  0.0816  0.4334
 6835SOL    HW121404   0.704   5.646   0.944 -0.3094  0.8004  0.9471
 6835SOL    HW221405   0.853   5.677   1.003  0.1283  0.1880  0.1904
 6836SOL     OW21406   0.029   4.040   5.053  0.5451 -0.1215 -0.4358
 6836SOL    HW121407  -0.033   3.965   5.074  2.5283 -1.4804  0.8916
 6836SOL    HW221408  -0.024   4.123   5.037 -1.5913 -1.0700  1.1815
 6837SOL     OW21409   0.032   0.579   2.873  0.4494  0.3926  0.3719
 6837SOL    HW121410   0.100   0.542   2.810  0.2363 -2.1574  1.5370
 6837SOL    HW221411   0.071   0.585   2.965 -0.0858  1.4904  0.5511
 6838SOL     OW21412   2.133   6.053   3.398 -0.3520  0.4575  0.4340
 6838SOL    HW121413   2.097   5.961   3.415  0.5621  0.0060 -0.0063
 6838SOL    HW221414   2.218   6.047   3.346 -0.8490  1.5977 -0.5715
 6839SOL     OW21415   1.276   5.113   4.914 -0.0251 -0.0021 -0.1275
 6839SOL    HW121416   1.248   5.028   4.957  2.4292  0.1617  2.0867
 6839SOL    HW221417   1.373   5.129   4.933  0.3096  1.9246 -2.8558
 6840SOL     OW21418   5.502   5.244   1.687 -0.2428  0.4915  0.1485
 6840SOL    HW121419   5.485   5.293   1.772 -1.8911  2.1287 -1.0386
 6840SOL    HW221420   5.417   5.205   1.652  0.6965 -1.6035  0.0482
 6841SOL     OW21421   6.320   3.239   0.661 -0.4080 -0.5903  0.0273
 6841SOL    HW121422   6.251   3.234   0.733 -0.9720  0.2872 -0.4243
 6841SOL    HW221423   6.307   3.324   0.609  0.9708 -0.4510 -0.1189
 6842SOL     OW21424   2.805   0.245   1.638  0.6824 -0.0007 -0.3948
 6842SOL    HW121425   2.716   0.245   1.593  0.7236  0.5657 -0.4811
 6842SOL    HW221426   2.800   0.192   1.723  0.1714  0.3262 -0.2227
 6843SOL     OW21427   5.735   5.017   1.014 -0.2571 -0.3093 -0.7659
 6843SOL    HW121428   5.750   4.918   1.014 -0.3984 -0.3463  0.6032
 6843SOL    HW221429   5.676   5.042   0.938 -0.4482 -1.3133 -0.9560
 6844SOL     OW21430   0.743   3.868   5.685 -0.8863 -0.2145  1.1058
 6844SOL    HW121431   0.802   3.869   5.604 -2.4433 -0.9084 -0.1064
 6844SOL    HW221432   0.782   3.926   5.756 -0.0991  1.4685 -0.6129
 6845SOL     OW21433   3.237   4.544   0.992  0.3810  0.1018 -0.0566
 6845SOL    HW121434   3.297   4.469   1.017 -1.2581 -1.4678 -0.6595
 6845SOL    HW221435   3.196   4.582   1.075  2.9805  1.9850  0.4922
 6846SOL     OW21436   6.366   2.345   4.134  0.5314  0.0987 -0.2652
 6846SOL    HW121437   6.293   2.335   4.067  1.6832  1.1870 -1.7802
 6846SOL    HW221438   6.418   2.260   4.140 -0.6767 -0.6029  0.6465
 6847SOL     OW21439   2.356   1.458   4.751  0.8420 -0.0445  0.2218
 6847SOL    HW121440   2.309   1.534   4.795  0.3277 -0.8716  1.1416
 6847SOL    HW221441   2.405   1.405   4.820  0.2224 -1.2307 -0.2258
 6848SOL     OW21442   6.626   3.584   3.716  0.2921  1.2056  0.0204
 6848SOL    HW121443   6.721   3.609   3.733  0.5255  0.3617  0.0170
 6848SOL    HW221444   6.618   3.539   3.627  0.3041 -0.7199  0.9226
 6849SOL     OW21445   5.197   4.946   2.318 -0.2997 -0.3144  0.2249
 6849SOL    HW121446   5.294   4.938   2.343  0.0695  0.5101 -0.8572
 6849SOL    HW221447   5.189   4.957   2.219 -1.4767  0.0550  0.3474
 6850SOL     OW21448   0.237   1.522   6.135  0.2181 -0.0486  0.2747
 6850SOL    HW121449   0.137   1.517   6.140  0.2820 -0.1294  2.0070
 6850SOL    HW221450   0.273   1.559   6.220  1.5881  1.7393 -1.0092
 6851SOL     OW21451   1.868   0.178   2.268 -0.2481  0.2357  0.2343
 6851SOL    HW121452   1.812   0.251   2.308 -0.0701  1.7331 -2.0444
 6851SOL    HW221453   1.957   0.214   2.243  0.7526 -1.4284  1.2454
 6852SOL     OW21454   1.375   1.744   6.918 -0.3082  0.4935  0.5419
 6852SOL    HW121455   1.364   1.657   6.871 -2.0084  1.5229 -1.1296
 6852SOL    HW221456   1.397   1.728   7.015 -1.1153 -1.7613  0.4015
 6853SOL     OW21457   1.798   1.656   3.528  0.1263 -0.4045 -0.2638
 6853SOL    HW121458   1.786   1.609   3.441  0.8020  0.6626 -0.9575
 6853SOL    HW221459   1.728   1.625   3.592  0.3334 -2.0661 -0.7966
 6854SOL     OW21460   0.130   0.586   3.146 -0.3892  0.1460  0.1600
 6854SOL    HW121461   0.132   0.640   3.230 -2.4744 -1.1274  1.0813
 6854SOL    HW221462   0.201   0.516   3.150  0.8282  1.3087 -0.0633
 6855SOL     OW21463   5.390   6.573   3.651 -0.3616  0.0205 -0.5604
 6855SOL    HW121464   5.297   6.574   3.615 -0.8599  1.2275  0.6903
 6855SOL    HW221465   5.410   6.660   3.696  1.0975 -0.5087 -0.1156
 6856SOL     OW21466   6.320   6.794   3.953  0.1856  0.4438 -0.2032
 6856SOL    HW121467   6.279   6.712   3.992 -0.3764  1.0462  0.5003
 6856SOL    HW221468   6.361   6.772   3.864  1.0601 -0.8398  0.4828
 6857SOL     OW21469   2.775   4.582   6.791 -0.0478  0.2647 -0.0701
 6857SOL    HW121470   2.854   4.574   6.852 -0.1696 -1.1588 -0.0503
 6857SOL    HW221471   2.698   4.621   6.841 -1.1024 -3.6709  1.7699
 6858SOL     OW21472   6.924   0.795   3.538  0.0317 -0.9893 -0.0921
 6858SOL    HW121473   6.904   0.803   3.636  1.1635 -1.7836  0.2335
 6858SOL    HW221474   6.839   0.782   3.487 -0.8897  2.2029  0.4112
 6859SOL     OW21475   2.646   1.864   3.439  0.4709 -0.1702 -0.2439
 6859SOL    HW121476   2.643   1.928   3.362  1.0225 -0.8132 -0.8263
 6859SOL    HW221477   2.677   1.775   3.405  1.6940 -0.2040  0.9046
 6860SOL     OW21478   4.998   3.640   3.002  0.7168  0.4119 -0.0574
 6860SOL    HW121479   5.043   3.653   3.090  0.0461  0.9083  0.2274
 6860SOL    HW221480   4.948   3.724   2.977 -0.6342 -0.3451 -0.0061
 6861SOL     OW21481   2.857   0.125   1.241 -0.1019 -0.2502  0.7470
 6861SOL    HW121482   2.878   0.090   1.333  0.3473 -1.1506  0.3198
 6861SOL    HW221483   2.942   0.143   1.192 -0.3341 -0.2297  0.3486
 6862SOL     OW21484   0.281   0.651   6.346  0.6282 -0.1573  0.3784
 6862SOL    HW121485   0.262   0.717   6.274 -1.3081 -0.2304  0.7466
 6862SOL    HW221486   0.245   0.686   6.433 -0.9281 -1.8492  0.4873
 6863SOL     OW21487   2.313   0.042   0.366 -0.2334  0.2299  0.1965
 6863SOL    HW121488   2.303  -0.041   0.311 -0.2147 -0.6374  1.4583
 6863SOL    HW221489   2.327   0.017   0.462 -1.1215  1.7055  0.7477
 6864SOL     OW21490   5.374   5.776   2.432 -0.5515 -0.0040  0.1815
 6864SOL    HW121491   5.464   5.752   2.394 -0.8899 -0.8178 -0.1431
 6864SOL    HW221492   5.373   5.873   2.456  0.2885  0.1064 -0.1676
 6865SOL     OW21493   6.179   4.901   1.806 -0.5422 -0.4137 -0.0695
 6865SOL    HW121494   6.113   4.965   1.844 -1.3115 -1.2278 -0.0024
 6865SOL    HW221495   6.139   4.853   1.728  0.5348  0.2208 -1.0562
 6866SOL     OW21496   1.837   6.914   0.309 -0.2257  0.2625  0.9478
 6866SOL    HW121497   1.878   6.985   0.252 -1.4810  0.1398 -0.1684
 6866SOL    HW221498   1.847   6.825   0.264  1.0526 -0.2499  2.1796
 6867SOL     OW21499   6.661   0.568   3.391 -0.0956 -0.6517  0.5449
 6867SOL    HW121500   6.572   0.594   3.428 -0.7008 -1.9317  0.0425
 6867SOL    HW221501   6.706   0.649   3.352  0.0781  0.5203  3.0006
 6868SOL     OW21502   0.180   3.772   5.621  0.0437 -0.0503  0.3613
 6868SOL    HW121503   0.262   3.829   5.612  1.1488 -1.8858 -3.1285
 6868SOL    HW221504   0.192   3.708   5.697  3.2013 -2.0237 -1.5722
 6869SOL     OW21505   1.717   2.311   6.602  0.1750 -0.9491  0.0724
 6869SOL    HW121506   1.770   2.393   6.622  1.2394 -1.0497 -2.0831
 6869SOL    HW221507   1.739   2.240   6.669 -1.0311  0.5406  2.1927
 6870SOL     OW21508   0.003   4.326   0.481  0.2135 -0.5150 -0.1489
 6870SOL    HW121509  -0.070   4.258   0.490  1.5363 -1.8477  0.9982
 6870SOL    HW221510   0.090   4.280   0.467  1.0763  0.9842  0.0661
 6871SOL     OW21511   6.942   6.073   6.452 -0.0133  0.3176  0.3279
 6871SOL    HW121512   6.968   5.995   6.508  2.0960  1.2801  0.7723
 6871SOL    HW221513   7.024   6.118   6.416 -1.2181  1.4278 -1.1963
 6872SOL     OW21514   2.652   2.274   4.994 -0.0339 -0.6725 -0.3037
 6872SOL    HW121515   2.607   2.347   5.045 -0.0922 -1.3041  0.5677
 6872SOL    HW221516   2.737   2.309   4.954 -0.8129  0.2718 -1.1772
 6873SOL     OW21517   1.579   2.867   6.416 -0.0063  0.2383  0.1238
 6873SOL    HW121518   1.637   2.840   6.493  0.6842 -0.1799 -0.5313
 6873SOL    HW221519   1.567   2.788   6.355 -1.0614  0.3891  0.1129
 6874SOL     OW21520   6.304   0.482   0.011 -0.1184 -0.5076  0.1790
 6874SOL    HW121521   6.357   0.559  -0.024 -2.4972  1.0884 -0.2175
 6874SOL    HW221522   6.244   0.447  -0.061 -0.7005 -1.2148  0.9809
 6875SOL     OW21523   0.168   2.537   1.644  0.0181  0.4128  0.6392
 6875SOL    HW121524   0.244   2.534   1.578  0.6543 -0.2910  1.3852
 6875SOL    HW221525   0.122   2.448   1.646 -0.2011  0.5309  0.9124
 6876SOL     OW21526   2.870   3.953   5.735 -0.1274 -0.0000 -0.3101
 6876SOL    HW121527   2.788   3.956   5.679  1.5824  4.2058 -3.0358
 6876SOL    HW221528   2.899   4.045   5.757  3.4001 -1.3232  1.3180
 6877SOL     OW21529   4.226   0.513   4.800  0.2417 -0.5089  0.0625
 6877SOL    HW121530   4.147   0.456   4.820 -0.1081  0.2260  0.8233
 6877SOL    HW221531   4.255   0.498   4.705 -0.3420 -1.3312  0.0090
 6878SOL     OW21532   0.919   4.908   3.259  0.1556 -0.2765 -0.2492
 6878SOL    HW121533   1.014   4.894   3.230  0.7620 -0.5271  1.6933
 6878SOL    HW221534   0.912   4.889   3.357 -1.3650  2.2064  0.1953
 6879SOL     OW21535   6.030   5.927   5.155 -0.1034 -0.2116 -0.5072
 6879SOL    HW121536   6.125   5.938   5.128 -0.1713 -1.4394 -1.3423
 6879SOL    HW221537   5.975   6.002   5.117  0.3656 -0.0690 -0.9075
 6880SOL     OW21538   4.418   5.965   3.095  0.7048 -0.0949 -0.7950
 6880SOL    HW121539   4.441   6.062   3.101 -1.5349  0.5113 -1.0353
 6880SOL    HW221540   4.486   5.911   3.144  0.3120  1.8844  2.1502
 6881SOL     OW21541   5.323   1.488   6.138  0.5156 -0.5073  0.2083
 6881SOL    HW121542   5.304   1.586   6.149 -0.4980 -0.8532  1.9977
 6881SOL    HW221543   5.280   1.455   6.054  0.3568  0.4561 -0.1065
 6882SOL     OW21544   1.333   5.833   4.619 -0.3186  1.2365 -0.1928
 6882SOL    HW121545   1.288   5.758   4.570 -1.4298  2.3817 -0.9743
 6882SOL    HW221546   1.399   5.795   4.684 -1.3420 -0.4399 -0.0791
 6883SOL     OW21547   6.021   6.383   1.688  0.0586 -0.2976 -0.3060
 6883SOL    HW121548   6.012   6.473   1.731 -0.3652 -0.2511 -0.4907
 6883SOL    HW221549   6.043   6.315   1.757 -0.3172 -0.1709 -0.0609
 6884SOL     OW21550   2.733   0.953   2.230  0.4407  0.6613  0.2363
 6884SOL    HW121551   2.821   0.969   2.276  0.8463  1.3946 -0.7470
 6884SOL    HW221552   2.740   0.984   2.135 -0.4770 -0.5056 -0.2313
 6885SOL     OW21553   4.251   2.292   1.112  0.2856  0.0477  0.3645
 6885SOL    HW121554   4.259   2.325   1.018 -1.6327 -1.3788 -0.3661
 6885SOL    HW221555   4.210   2.363   1.169 -0.8821  0.0857 -0.4803
 6886SOL     OW21556   0.360   2.158   4.789  0.0394  0.1495  0.4066
 6886SOL    HW121557   0.346   2.158   4.888  1.1430 -0.9272  0.5891
 6886SOL    HW221558   0.306   2.085   4.747 -0.8984  0.9845  0.1140
 6887SOL     OW21559   3.018   4.174   0.721  0.3491  0.2163 -0.3813
 6887SOL    HW121560   3.095   4.212   0.670 -0.8491  2.0923 -0.9002
 6887SOL    HW221561   2.975   4.246   0.776  0.0223 -1.1842  1.2905
 6888SOL     OW21562   0.730   1.326   4.993 -0.0690 -0.1523  0.0427
 6888SOL    HW121563   0.702   1.360   5.082 -0.7871 -0.5570 -0.0214
 6888SOL    HW221564   0.749   1.228   4.999  0.9732  0.0296 -0.0074
 6889SOL     OW21565   0.025   0.188   2.721 -0.4679  0.2180 -0.1036
 6889SOL    HW121566   0.006   0.273   2.671  0.0717 -0.0717 -0.8040
 6889SOL    HW221567   0.068   0.122   2.660 -0.1648 -0.2858  0.6447
 6890SOL     OW21568   3.262   6.897   3.970 -0.0431  0.7098  0.0583
 6890SOL    HW121569   3.186   6.839   4.002  1.0700 -0.6273  0.3725
 6890SOL    HW221570   3.273   6.886   3.871 -0.9477  1.7821 -0.1854
 6891SOL     OW21571   6.959   4.906   3.145  0.4364 -0.8919  0.5488
 6891SOL    HW121572   6.918   4.839   3.083 -0.4243 -1.2793  1.4985
 6891SOL    HW221573   7.054   4.883   3.162  0.5202 -1.0955 -0.1820
 6892SOL     OW21574   3.259   3.248   5.534  0.7787  0.5921  0.2938
 6892SOL    HW121575   3.319   3.172   5.508  1.6813  0.3044  2.9413
 6892SOL    HW221576   3.304   3.335   5.513  0.5389  0.4266 -1.0131
 6893SOL     OW21577   6.223   4.268   0.595  0.0526 -0.0441 -0.2713
 6893SOL    HW121578   6.304   4.263   0.653 -1.6156 -1.5397  2.1216
 6893SOL    HW221579   6.171   4.183   0.604 -0.8764  0.0812 -3.2373
 6894SOL     OW21580   1.533   1.838   1.719  0.2600  0.2422  0.0199
 6894SOL    HW121581   1.540   1.901   1.796 -1.1436 -0.7655  1.0292
 6894SOL    HW221582   1.596   1.762   1.732 -1.7028 -1.2222  1.5273
 6895SOL     OW21583   5.853   1.153   2.570 -0.3103  0.3681 -0.1184
 6895SOL    HW121584   5.827   1.186   2.479  0.4777  1.7877  0.1370
 6895SOL    HW221585   5.935   1.096   2.563  0.0949  0.9589 -0.2474
 6896SOL     OW21586   5.377   2.443   0.309 -0.3507 -0.4712 -0.4388
 6896SOL    HW121587   5.424   2.526   0.338 -1.0967 -0.5524  1.0966
 6896SOL    HW221588   5.346   2.392   0.389 -1.6888 -1.2079 -1.3783
 6897SOL     OW21589   4.657   0.687   7.012  0.3093  0.4424 -0.4323
 6897SOL    HW121590   4.656   0.606   7.071  0.8036 -0.0271 -1.0500
 6897SOL    HW221591   4.737   0.683   6.952  0.2911  1.3506 -0.5309
 6898SOL     OW21592   5.885   1.671   2.445  0.3872 -0.6512  0.4023
 6898SOL    HW121593   5.858   1.676   2.542  1.6024 -2.6030  0.8958
 6898SOL    HW221594   5.965   1.612   2.436 -0.2417 -1.2313 -1.9282
 6899SOL     OW21595   2.865   1.169   5.221  0.4632 -0.2776 -0.5016
 6899SOL    HW121596   2.955   1.199   5.252  0.1890  0.0674 -0.0300
 6899SOL    HW221597   2.841   1.218   5.137  0.9118 -0.7136 -0.8905
 6900SOL     OW21598   3.299   2.526   5.700 -0.1665 -0.5938  0.3154
 6900SOL    HW121599   3.255   2.494   5.616 -1.3352 -0.8776  1.0091
 6900SOL    HW221600   3.398   2.523   5.689 -0.2936 -0.2164 -1.1985
 6901SOL     OW21601   4.848   4.098   1.717 -0.7220  0.1648  0.0103
 6901SOL    HW121602   4.884   4.157   1.644 -0.9989  0.3321  0.0084
 6901SOL    HW221603   4.907   4.105   1.798 -0.9145  0.6667  0.1104
 6902SOL     OW21604   5.454   4.859   4.801  0.3858 -0.3096 -0.6751
 6902SOL    HW121605   5.396   4.836   4.879  1.7551  0.7123  0.7104
 6902SOL    HW221606   5.536   4.907   4.833  0.6523  0.8015 -2.8170
 6903SOL     OW21607   3.074   2.423   0.415 -0.0009  0.2463 -0.0862
 6903SOL    HW121608   3.030   2.333   0.419  1.3713 -0.5845 -1.8853
 6903SOL    HW221609   3.127   2.438   0.498  1.0987 -1.3954 -0.4387
 6904SOL     OW21610   3.090   0.946   3.919  0.2217 -0.2629  0.0953
 6904SOL    HW121611   3.177   0.973   3.879  0.4952 -1.1596  0.0786
 6904SOL    HW221612   3.061   1.016   3.985  0.5123  0.4649 -0.5296
 6905SOL     OW21613   3.513   5.785   4.626 -0.2258  0.6343 -0.2357
 6905SOL    HW121614   3.591   5.809   4.683  1.1461 -0.8899 -1.3927
 6905SOL    HW221615   3.457   5.716   4.673  0.0701  0.4738 -0.1197
 6906SOL     OW21616   3.977   2.678   1.708  0.3364  0.6490 -0.5942
 6906SOL    HW121617   4.034   2.756   1.681  0.6586 -0.1891 -2.5184
 6906SOL    HW221618   4.011   2.595   1.664 -0.9229 -0.3213  0.1772
 6907SOL     OW21619   0.834   4.984   0.622  0.2561 -0.0530 -0.8889
 6907SOL    HW121620   0.868   5.006   0.531  2.5466 -1.4839 -0.4661
 6907SOL    HW221621   0.911   4.970   0.685 -1.0925 -2.5234  0.4047
 6908SOL     OW21622   1.737   2.478   1.374  0.0909 -0.1720  0.5234
 6908SOL    HW121623   1.660   2.466   1.438 -1.6920 -1.4080 -1.7018
 6908SOL    HW221624   1.740   2.573   1.343 -1.9997 -0.5078 -0.9628
 6909SOL     OW21625   0.194   2.032   4.246  0.2037  0.1943 -0.5397
 6909SOL    HW121626   0.153   2.119   4.271  2.2493  0.6963  1.3395
 6909SOL    HW221627   0.142   1.991   4.171 -1.6812  2.2926 -0.4732
 6910SOL     OW21628   4.542   0.236   0.751  0.2174  0.0774  0.4210
 6910SOL    HW121629   4.597   0.245   0.668  2.4135  0.4093  1.8368
 6910SOL    HW221630   4.532   0.139   0.774  2.1155  0.0237  1.2694
 6911SOL     OW21631   0.132   5.276   5.814 -0.2811  0.3700 -0.0689
 6911SOL    HW121632   0.186   5.197   5.842 -0.4428  0.1094 -0.4882
 6911SOL    HW221633   0.039   5.246   5.791 -0.5193  0.7702  0.3558
 6912SOL     OW21634   5.571   6.131   6.793 -0.1280  0.4051  1.0516
 6912SOL    HW121635   5.553   6.045   6.746 -0.6259  0.7194  0.6486
 6912SOL    HW221636   5.585   6.115   6.890 -1.1413 -0.0332  1.1365
 6913SOL     OW21637   3.334   1.790   5.537 -0.2370 -0.1210  0.5002
 6913SOL    HW121638   3.347   1.735   5.455  2.6200 -0.8016  1.2949
 6913SOL    HW221639   3.255   1.849   5.525  0.6853  0.6223 -3.1813
 6914SOL     OW21640   5.655   4.950   3.541  0.2759  0.6117 -0.1714
 6914SOL    HW121641   5.610   5.040   3.543 -0.5530  0.1887  1.3133
 6914SOL    HW221642   5.623   4.895   3.618  2.7339 -0.0293  0.4751
 6915SOL     OW21643   5.684   5.881   2.680 -0.2245 -0.2149  0.1473
 6915SOL    HW121644   5.588   5.907   2.688 -0.5791 -0.4949 -2.4083
 6915SOL    HW221645   5.692   5.800   2.622  1.4276 -1.4978  2.0611
 6916SOL     OW21646   0.962   6.180   0.788  0.3842  0.3956  0.2718
 6916SOL    HW121647   1.028   6.248   0.757 -0.3130  0.7408 -0.4695
 6916SOL    HW221648   0.933   6.124   0.711  0.5604 -0.4242  0.7818
 6917SOL     OW21649   0.051   4.531   6.436  0.3292 -0.3240  0.2233
 6917SOL    HW121650   0.018   4.617   6.474 -2.0746 -0.7240 -0.8081
 6917SOL    HW221651   0.083   4.546   6.343  0.7945 -0.3864  0.3711
 6918SOL     OW21652   5.638   4.497   5.247  0.5228  0.6370 -0.0615
 6918SOL    HW121653   5.639   4.596   5.258  0.8011  0.4723  1.5891
 6918SOL    HW221654   5.674   4.453   5.329  0.6710 -0.8365 -0.8677
 6919SOL     OW21655   6.065   1.580   1.029  0.1295  0.2348 -0.0985
 6919SOL    HW121656   6.101   1.487   1.037  2.7656  1.2074  0.3803
 6919SOL    HW221657   6.011   1.602   1.111  0.4170 -0.4997  0.2989
 6920SOL     OW21658   3.251   5.221   5.469  0.1997 -0.1024 -0.5207
 6920SOL    HW121659   3.176   5.172   5.426 -1.0841  0.7617  0.6499
 6920SOL    HW221660   3.321   5.241   5.401 -0.2320 -1.6438 -1.4590
 6921SOL     OW21661   2.689   6.833   1.997 -0.4087 -0.2405 -0.1554
 6921SOL    HW121662   2.746   6.886   2.060 -1.5437 -1.1411  1.7342
 6921SOL    HW221663   2.736   6.747   1.974  0.2980  0.3833 -1.1239
 6922SOL     OW21664   2.455   4.690   0.157  0.1304 -0.3894  0.6568
 6922SOL    HW121665   2.429   4.614   0.217 -0.5781 -1.1922 -0.6173
 6922SOL    HW221666   2.550   4.716   0.176  0.0834 -0.9525  1.7581
 6923SOL     OW21667   5.296   3.272   4.722  0.0923 -0.8828  0.0449
 6923SOL    HW121668   5.245   3.211   4.783 -0.1236  0.3236  1.1051
 6923SOL    HW221669   5.231   3.323   4.665  0.2418 -1.2369 -0.4400
 6924SOL     OW21670   5.410   6.876   3.720 -0.4028  0.0298  0.4566
 6924SOL    HW121671   5.435   6.885   3.817  0.6561 -2.1057  0.4311
 6924SOL    HW221672   5.310   6.869   3.713 -0.4266 -1.4962  1.6140
 6925SOL     OW21673   5.601   2.839   6.327 -0.1269 -0.4218  0.6097
 6925SOL    HW121674   5.627   2.754   6.282  1.4131 -0.7052  1.9827
 6925SOL    HW221675   5.507   2.862   6.301 -1.1801 -3.3657  1.4502
 6926SOL     OW21676   2.468   5.523   5.092  0.2398  0.7521  0.5946
 6926SOL    HW121677   2.537   5.573   5.040  1.5141 -2.3064 -0.8895
 6926SOL    HW221678   2.402   5.482   5.030 -0.4345  0.1624  1.6669
 6927SOL     OW21679   4.899   3.756   6.584  0.3007  0.4695  0.3029
 6927SOL    HW121680   4.923   3.763   6.488  0.0194 -0.1745  0.1786
 6927SOL    HW221681   4.941   3.675   6.624 -0.7635 -0.0862  0.3435
 6928SOL     OW21682   5.039   6.341   3.741 -1.0369 -0.0128  0.3582
 6928SOL    HW121683   5.028   6.242   3.732 -0.6725 -0.0765  0.6034
 6928SOL    HW221684   4.949   6.384   3.748 -1.2930 -0.1527 -1.5219
 6929SOL     OW21685   5.115   3.069   5.481  0.0573 -1.0306 -0.0384
 6929SOL    HW121686   5.112   3.103   5.387  0.2489 -0.7705  0.0470
 6929SOL    HW221687   5.176   3.127   5.535 -0.8829 -0.5135  0.5076
 6930SOL     OW21688   0.901   0.986   1.396 -0.1217  0.1776 -0.3973
 6930SOL    HW121689   0.997   1.011   1.404  0.0293 -0.7468  0.9954
 6930SOL    HW221690   0.893   0.888   1.374 -0.7406  0.0477  0.3550
 6931SOL     OW21691   1.013   1.951   3.419 -0.6570 -0.1261  0.0139
 6931SOL    HW121692   0.938   1.967   3.485 -0.9227  0.2504 -0.3722
 6931SOL    HW221693   1.066   1.872   3.448 -1.5578 -0.7570 -0.0115
 6932SOL     OW21694   5.453   5.882   5.119 -0.4607  0.4527 -0.5918
 6932SOL    HW121695   5.362   5.858   5.153 -0.1666  0.6018  0.3304
 6932SOL    HW221696   5.471   5.979   5.137 -1.0726  1.0892 -2.9957
 6933SOL     OW21697   0.988   2.887   0.531  0.2802 -0.2784 -0.1176
 6933SOL    HW121698   0.912   2.882   0.596  0.9396 -1.7917  0.5603
 6933SOL    HW221699   1.012   2.983   0.516 -0.2874  0.1225  1.3695
 6934SOL     OW21700   0.650   1.380   6.052 -0.4061  0.5331  0.2788
 6934SOL    HW121701   0.743   1.377   6.017 -0.8442  0.2850 -0.8835
 6934SOL    HW221702   0.647   1.334   6.141  1.0086  2.4545  1.4000
 6935SOL     OW21703   4.958   5.103   5.898  0.4920  0.3667 -0.1962
 6935SOL    HW121704   4.991   5.042   5.970 -1.4339 -0.4373  0.0753
 6935SOL    HW221705   4.859   5.091   5.887  0.6254  0.9142 -2.5648
 6936SOL     OW21706   3.966   0.283   0.844 -0.2840 -0.0171 -0.4235
 6936SOL    HW121707   3.999   0.365   0.797 -0.0726 -0.8361 -1.7519
 6936SOL    HW221708   3.989   0.289   0.941 -0.9652  1.8465 -0.3308
 6937SOL     OW21709   6.115   1.146   1.601 -0.2314 -0.2925  0.0863
 6937SOL    HW121710   6.140   1.050   1.590  0.8175  0.2197 -2.6002
 6937SOL    HW221711   6.018   1.151   1.628 -0.8639 -2.0924 -1.5517
 6938SOL     OW21712   1.768   4.003   3.052  0.5439 -0.5152 -0.3032
 6938SOL    HW121713   1.868   4.012   3.050  0.6431 -1.6216 -1.1785
 6938SOL    HW221714   1.730   4.035   2.966  0.0702  0.4382  0.2419
 6939SOL     OW21715   2.685   4.815   3.262 -0.0325 -0.0103 -0.5845
 6939SOL    HW121716   2.772   4.815   3.213 -0.1806  0.3238 -0.8564
 6939SOL    HW221717   2.630   4.893   3.231 -0.6520 -0.5279 -0.8113
 6940SOL     OW21718   2.798   5.876   2.774  0.1192 -0.8672  0.3806
 6940SOL    HW121719   2.831   5.796   2.724  1.4546  0.3538 -0.7936
 6940SOL    HW221720   2.856   5.892   2.854 -0.9800 -1.8115  1.4255
 6941SOL     OW21721   5.669   4.786   5.159 -0.2462  0.1960  0.3483
 6941SOL    HW121722   5.758   4.796   5.115 -0.2547 -0.7971  0.0940
 6941SOL    HW221723   5.681   4.775   5.258 -0.0814 -0.0722  0.2982
 6942SOL     OW21724   4.507   6.427   6.532  0.4614  0.3102 -0.0553
 6942SOL    HW121725   4.450   6.344   6.531  0.2232  0.4504  0.7313
 6942SOL    HW221726   4.512   6.465   6.440  0.4050 -0.4637 -0.3919
 6943SOL     OW21727   3.996   1.108   6.564 -0.2659 -0.0820  0.4915
 6943SOL    HW121728   3.897   1.102   6.545 -0.5867  2.0628  1.1916
 6943SOL    HW221729   4.041   1.154   6.487 -0.0467  0.2020  0.7908
 6944SOL     OW21730   5.514   0.226   0.741 -0.0158  0.0595 -0.0155
 6944SOL    HW121731   5.562   0.221   0.828  1.2212  1.9890 -0.5092
 6944SOL    HW221732   5.435   0.286   0.749  1.2843  1.9709 -0.6264
 6945SOL     OW21733   6.532   6.358   3.865 -0.1091 -0.0669  0.1143
 6945SOL    HW121734   6.434   6.351   3.845 -0.2193 -1.9197  1.1011
 6945SOL    HW221735   6.583   6.371   3.780 -1.1942  0.8084 -0.4200
 6946SOL     OW21736   4.708   4.135   3.558  0.7133 -0.0710  0.0921
 6946SOL    HW121737   4.684   4.182   3.643  1.2892 -1.8107  1.2684
 6946SOL    HW221738   4.632   4.079   3.527 -0.6864  2.8413 -2.3315
 6947SOL     OW21739   5.113   2.812   5.379 -0.7040 -0.2642  0.5429
 6947SOL    HW121740   5.104   2.910   5.390  2.0614 -0.1599  3.0045
 6947SOL    HW221741   5.024   2.772   5.356 -1.9116  2.7295 -0.3738
 6948SOL     OW21742   3.489   5.619   5.987 -0.1671 -0.4686 -0.5266
 6948SOL    HW121743   3.573   5.595   6.036 -0.0421 -0.0995 -0.5588
 6948SOL    HW221744   3.504   5.702   5.932 -1.5819  1.8632  2.3367
 6949SOL     OW21745   4.937   6.513   2.218 -0.6572 -0.0310 -0.5248
 6949SOL    HW121746   4.992   6.515   2.134  1.6251  1.2635  0.8836
 6949SOL    HW221747   4.918   6.607   2.247 -1.1295 -0.4551  0.5811
 6950SOL     OW21748   1.040   1.333   3.676  0.0210 -0.0277  0.2154
 6950SOL    HW121749   1.012   1.240   3.652  2.1626 -1.0716  1.4684
 6950SOL    HW221750   1.042   1.390   3.594  0.7453 -1.6771 -0.9526
 6951SOL     OW21751   6.846   0.435   5.115 -0.4362  0.4702 -0.0520
 6951SOL    HW121752   6.912   0.426   5.190 -2.1602 -1.4701  1.3429
 6951SOL    HW221753   6.757   0.462   5.152 -0.9988  0.8514 -1.6075
 6952SOL     OW21754   1.674   1.368   2.294  0.1632 -0.0513  0.6767
 6952SOL    HW121755   1.757   1.409   2.333 -0.2757  0.0605  1.5233
 6952SOL    HW221756   1.646   1.292   2.352 -0.7114  0.3412  0.7730
 6953SOL     OW21757   1.169   4.837   2.254  0.7425  0.1743 -0.2337
 6953SOL    HW121758   1.192   4.823   2.350 -0.2714  0.6565  0.0900
 6953SOL    HW221759   1.102   4.910   2.245  1.8188  1.0653 -1.4355
 6954SOL     OW21760   0.057   5.977   6.684  0.0678 -1.0136  0.3401
 6954SOL    HW121761  -0.001   5.961   6.764  0.9383  0.5542  1.3494
 6954SOL    HW221762   0.070   6.075   6.672  0.5658 -1.2580 -1.3026
 6955SOL     OW21763   2.016   5.602   6.050 -0.0959 -0.2669  0.3793
 6955SOL    HW121764   2.003   5.503   6.039  0.2618 -0.2973  0.2064
 6955SOL    HW221765   2.080   5.635   5.980 -0.0279  0.0454  0.5877
 6956SOL     OW21766   0.112   2.252   1.708 -0.4135 -0.3921  0.8040
 6956SOL    HW121767   0.209   2.247   1.685 -0.1533  2.1984  0.9966
 6956SOL    HW221768   0.101   2.251   1.807 -0.6933 -1.6829  0.7717
 6957SOL     OW21769   6.982   4.685   6.672  0.4584  0.0411  0.0791
 6957SOL    HW121770   6.906   4.620   6.684 -0.7855  1.5780  1.0483
 6957SOL    HW221771   7.027   4.698   6.760 -1.8743  3.3771  0.9998
 6958SOL     OW21772   3.091   6.394   2.162  0.1140  0.5548  0.1920
 6958SOL    HW121773   3.110   6.297   2.151  0.6195  0.4243  1.9395
 6958SOL    HW221774   3.176   6.446   2.149 -0.1431  0.7803 -0.6818
 6959SOL     OW21775   4.393   4.553   6.125 -0.5965 -0.1714  0.4277
 6959SOL    HW121776   4.312   4.500   6.101 -0.9631  0.6152 -0.1018
 6959SOL    HW221777   4.369   4.626   6.189 -0.0587 -0.7404  1.3062
 6960SOL     OW21778   1.251   5.418   5.746  0.4701 -0.2803  0.1577
 6960SOL    HW121779   1.179   5.479   5.779 -0.5254  0.7160 -3.4139
 6960SOL    HW221780   1.324   5.412   5.815 -1.7330  0.8277  2.7566
 6961SOL     OW21781   0.046   2.542   5.917 -0.3648 -1.2281 -0.8617
 6961SOL    HW121782   0.068   2.603   5.841 -0.8139 -0.3167 -0.2854
 6961SOL    HW221783   0.127   2.530   5.975 -0.4532 -0.6036 -0.5989
 6962SOL     OW21784   0.280   2.046   5.636  0.2053  0.4650  0.4669
 6962SOL    HW121785   0.275   2.127   5.695  0.7964  0.6447  0.2778
 6962SOL    HW221786   0.194   2.036   5.586 -0.4373  0.1302  1.5837
 6963SOL     OW21787   0.398   5.615   5.205  0.1380  0.3121 -0.7158
 6963SOL    HW121788   0.324   5.614   5.137  1.5096 -2.7978 -2.3830
 6963SOL    HW221789   0.483   5.644   5.162  1.1255 -2.1422 -0.5725
 6964SOL     OW21790   1.374   5.341   2.206  0.0693  0.2274 -0.7582
 6964SOL    HW121791   1.381   5.256   2.153 -3.4909 -0.9055  0.3344
 6964SOL    HW221792   1.293   5.338   2.265  1.9905  2.7602  2.3917
 6965SOL     OW21793   4.834   1.717   4.872 -0.0010 -0.0621  0.2412
 6965SOL    HW121794   4.844   1.716   4.772  2.2049 -0.7146  0.4181
 6965SOL    HW221795   4.803   1.627   4.903  0.2194 -0.1533  0.2026
 6966SOL     OW21796   5.166   4.396   6.251  0.5506 -0.5261  0.1751
 6966SOL    HW121797   5.093   4.346   6.205 -0.2351  0.2407  0.5792
 6966SOL    HW221798   5.159   4.493   6.229 -0.4586  0.0299  2.6763
 6967SOL     OW21799   3.585   0.711   1.371 -1.0597  0.7011 -0.0248
 6967SOL    HW121800   3.519   0.782   1.347 -0.2832  1.5912  0.4231
 6967SOL    HW221801   3.678   0.749   1.368 -0.5613 -0.5067 -0.5809
 6968SOL     OW21802   4.967   0.281   3.808 -0.3287  0.0489  0.1759
 6968SOL    HW121803   4.948   0.255   3.713  1.2014 -0.2512 -0.0664
 6968SOL    HW221804   5.047   0.341   3.811 -1.1193  1.0994  1.1720
 6969SOL     OW21805   0.177   1.102   2.848  0.0611  0.3065 -0.0763
 6969SOL    HW121806   0.094   1.071   2.802 -1.2799  1.4876  1.3937
 6969SOL    HW221807   0.214   1.181   2.800  0.7107 -0.5874 -1.0804
 6970SOL     OW21808   6.965   1.688   4.865 -0.1425  0.2536 -0.1890
 6970SOL    HW121809   6.998   1.661   4.774 -1.8091  1.3186 -1.1650
 6970SOL    HW221810   7.033   1.748   4.908 -0.4753  2.0389 -1.9559
 6971SOL     OW21811   6.365   5.737   0.794  0.2444  0.3447  0.0326
 6971SOL    HW121812   6.429   5.671   0.835  0.8834 -0.1888 -1.7275
 6971SOL    HW221813   6.278   5.733   0.842  0.1925 -1.9644 -0.1413
 6972SOL     OW21814   4.756   1.085   6.857 -0.0569 -0.4024 -0.7751
 6972SOL    HW121815   4.674   1.042   6.820  0.7758 -2.5739 -0.2461
 6972SOL    HW221816   4.803   1.136   6.785 -0.8798 -0.6920 -1.5328
 6973SOL     OW21817   2.705   2.103   4.617 -0.3376 -0.2612  0.8522
 6973SOL    HW121818   2.720   2.061   4.527 -0.1369 -0.5284  1.0063
 6973SOL    HW221819   2.757   2.188   4.623 -0.7305 -0.0028  0.5441
 6974SOL     OW21820   3.486   4.128   4.332  1.1575  0.1642 -0.2868
 6974SOL    HW121821   3.528   4.038   4.339  1.3950  0.2050 -1.1803
 6974SOL    HW221822   3.516   4.184   4.409  1.7446 -0.2094 -0.2378
 6975SOL     OW21823   6.813   1.301   2.913  0.4386  0.0221 -0.2581
 6975SOL    HW121824   6.879   1.349   2.971  1.3669 -0.3970 -0.9328
 6975SOL    HW221825   6.724   1.345   2.920  0.9927  1.1328  0.0070
 6976SOL     OW21826   5.875   1.633   0.828 -0.4685 -0.2812  0.1745
 6976SOL    HW121827   5.829   1.716   0.859 -0.2565  0.5057 -1.5022
 6976SOL    HW221828   5.948   1.610   0.892 -0.0581  1.2545  0.3053
 6977SOL     OW21829   1.344   1.832   0.183  0.3425 -0.0906  0.1617
 6977SOL    HW121830   1.332   1.925   0.149 -1.4700  0.2842  1.6587
 6977SOL    HW221831   1.418   1.830   0.250 -1.4999  1.0083  2.3810
 6978SOL     OW21832   0.325   0.697   0.779  0.5101  0.2022  0.0829
 6978SOL    HW121833   0.402   0.695   0.843  1.0196  0.8194 -0.5045
 6978SOL    HW221834   0.349   0.753   0.700  0.2496 -1.3262 -1.1212
 6979SOL     OW21835   2.030   0.605   3.513  0.1737  0.4178 -0.1839
 6979SOL    HW121836   2.054   0.553   3.431 -0.5417 -0.9004  0.4119
 6979SOL    HW221837   1.947   0.657   3.496 -2.3519 -2.9511  0.8219
 6980SOL     OW21838   4.796   6.325   4.991  0.3628 -0.7644  0.2073
 6980SOL    HW121839   4.732   6.287   5.059  0.5544 -1.2040  0.1442
 6980SOL    HW221840   4.833   6.412   5.025 -1.8375  0.5960 -0.6275
 6981SOL     OW21841   3.163   4.968   5.823 -0.4640  0.3790  0.0314
 6981SOL    HW121842   3.167   4.889   5.762 -0.0530 -0.6251  1.3065
 6981SOL    HW221843   3.216   5.043   5.784  0.0655 -0.3557 -0.6883
 6982SOL     OW21844   3.259   5.082   1.915  0.2907  0.0388  0.5317
 6982SOL    HW121845   3.182   5.089   1.978  0.0783  1.0437  0.1751
 6982SOL    HW221846   3.333   5.141   1.946 -0.6236  2.2955 -1.2643
 6983SOL     OW21847   1.147   4.666   5.675 -0.3222  0.2700  0.0709
 6983SOL    HW121848   1.050   4.670   5.650  0.0048 -0.0444 -1.3035
 6983SOL    HW221849   1.176   4.571   5.682  0.1415  0.3554 -0.5927
 6984SOL     OW21850   1.286   5.122   1.304  0.3893 -0.0936 -0.9154
 6984SOL    HW121851   1.192   5.103   1.333  0.9575 -1.1034  0.3358
 6984SOL    HW221852   1.310   5.215   1.332  0.8137 -0.9182  1.7738
 6985SOL     OW21853   0.458   2.427   5.693 -0.6194 -0.6382  0.1550
 6985SOL    HW121854   0.444   2.396   5.599 -0.0819 -1.3958  0.3173
 6985SOL    HW221855   0.552   2.460   5.704 -0.6536 -0.6399  0.4516
 6986SOL     OW21856   2.914   6.723   4.465 -0.5812 -0.3551  0.4658
 6986SOL    HW121857   2.971   6.737   4.546  1.1399 -0.3381 -0.7057
 6986SOL    HW221858   2.905   6.810   4.415 -1.9538 -0.2769  0.8115
 6987SOL     OW21859   5.271   1.698   4.380  0.5431  0.0917 -0.8581
 6987SOL    HW121860   5.187   1.678   4.430  0.6625 -0.9298 -1.0470
 6987SOL    HW221861   5.344   1.638   4.411  1.7854  2.2408  0.6859
 6988SOL     OW21862   5.208   2.868   2.434 -0.0146  0.6519 -0.3579
 6988SOL    HW121863   5.206   2.815   2.519 -1.2085 -2.1105 -1.9941
 6988SOL    HW221864   5.301   2.899   2.416  0.3727  0.7274  1.5808
 6989SOL     OW21865   6.886   5.202   0.463 -0.3758  0.3500  0.0209
 6989SOL    HW121866   6.867   5.114   0.419  0.2812  0.5753 -0.7220
 6989SOL    HW221867   6.823   5.215   0.540  0.1365 -1.2096  0.7458
 6990SOL     OW21868   1.732   1.706   5.161  0.2598 -0.0106  0.2726
 6990SOL    HW121869   1.720   1.802   5.137  2.0378 -0.4434 -2.8883
 6990SOL    HW221870   1.718   1.649   5.079  2.4371 -2.1551  1.2681
 6991SOL     OW21871   1.671   6.364   3.004  0.1555  1.1096 -0.4960
 6991SOL    HW121872   1.707   6.458   2.996 -0.6947  1.6716  1.5472
 6991SOL    HW221873   1.704   6.323   3.089 -1.4405  0.4724 -0.1449
 6992SOL     OW21874   4.922   3.444   4.302  0.4392  0.2730  0.0049
 6992SOL    HW121875   4.878   3.490   4.225 -1.1360 -1.3319 -0.1195
 6992SOL    HW221876   5.020   3.439   4.286  0.4512  2.0868 -0.7301
 6993SOL     OW21877   3.090   6.813   2.267 -0.5993  0.1479 -0.1051
 6993SOL    HW121878   3.132   6.876   2.332 -0.5098  0.5048 -0.5065
 6993SOL    HW221879   3.159   6.749   2.234 -0.5345  0.2750 -0.2168
 6994SOL     OW21880   1.699   0.048   5.743  0.2812  0.0790 -0.5149
 6994SOL    HW121881   1.763   0.103   5.797  0.8414 -1.5556  0.5411
 6994SOL    HW221882   1.740   0.027   5.655  0.1993  1.0415 -0.7965
 6995SOL     OW21883   4.097   2.742   5.359 -0.3670 -0.1558  0.3292
 6995SOL    HW121884   4.050   2.818   5.314 -0.2021  0.5994  1.4084
 6995SOL    HW221885   4.128   2.677   5.289  0.1592  1.1305 -0.6950
 6996SOL     OW21886   4.861   5.222   1.637 -0.2493  0.4379 -0.8077
 6996SOL    HW121887   4.807   5.274   1.703 -2.1020 -0.9599 -1.1344
 6996SOL    HW221888   4.842   5.124   1.648  0.0960  0.1005 -2.8008
 6997SOL     OW21889   1.123   6.324   0.322 -0.5384  0.0493  0.1209
 6997SOL    HW121890   1.118   6.422   0.300 -1.1205  0.3731  1.6043
 6997SOL    HW221891   1.192   6.281   0.264 -0.1504  1.3702 -0.4432
 6998SOL     OW21892   2.258   1.789   6.177  0.1729 -0.0601  0.3987
 6998SOL    HW121893   2.231   1.730   6.253  1.9583 -0.3300  0.8562
 6998SOL    HW221894   2.187   1.786   6.106 -0.4338 -1.6406  1.0362
 6999SOL     OW21895   1.031   6.041   2.072  0.5345  0.2849  0.0155
 6999SOL    HW121896   0.937   6.024   2.043  0.4399  2.9584 -1.5703
 6999SOL    HW221897   1.093   5.977   2.026 -0.4082 -0.9834  0.4719
 7000SOL     OW21898   4.812   0.426   1.436 -0.2565 -0.3373 -0.5723
 7000SOL    HW121899   4.839   0.447   1.342 -0.6935  0.6637 -0.4831
 7000SOL    HW221900   4.806   0.326   1.447  0.7531 -0.5007 -1.3258
 7001SOL     OW21901   4.961   4.406   4.693 -0.4894 -0.1609  0.0556
 7001SOL    HW121902   4.866   4.386   4.666  0.4453 -0.3241 -3.6155
 7001SOL    HW221903   5.014   4.321   4.693  0.1171  0.2075 -0.1816
 7002SOL     OW21904   6.656   3.706   0.853 -0.3656 -0.4145  0.5725
 7002SOL    HW121905   6.572   3.672   0.812  0.4686 -0.7196 -0.9853
 7002SOL    HW221906   6.687   3.787   0.803  0.0926 -0.1028  1.3360
 7003SOL     OW21907   0.463   6.723   5.359  0.2332  0.2207 -0.4069
 7003SOL    HW121908   0.411   6.658   5.414  0.5159  1.0985  0.9436
 7003SOL    HW221909   0.473   6.809   5.409  1.2783  0.7517 -1.4663
 7004SOL     OW21910   0.742   2.374   0.510 -0.2511 -0.5860  0.3604
 7004SOL    HW121911   0.656   2.407   0.550 -0.5874 -1.9181  0.7904
 7004SOL    HW221912   0.744   2.394   0.412 -1.4759 -1.3924  0.1654
 7005SOL     OW21913   1.717   5.814   6.643 -0.2742  0.4902  0.5272
 7005SOL    HW121914   1.688   5.835   6.550  0.7077  1.6686  0.4538
 7005SOL    HW221915   1.776   5.888   6.677 -0.0295 -0.2648  1.8209
 7006SOL     OW21916   2.378   4.406   0.292 -0.3067 -0.2055 -0.0312
 7006SOL    HW121917   2.464   4.411   0.343 -0.4464 -0.2606  0.2123
 7006SOL    HW221918   2.315   4.345   0.340 -0.5786  0.0508 -0.0614
 7007SOL     OW21919   4.238   1.584   0.565  0.2448  0.2385  0.1550
 7007SOL    HW121920   4.291   1.554   0.486  0.2344  1.1880 -0.2252
 7007SOL    HW221921   4.280   1.666   0.605  0.2976 -0.2752  1.1901
 7008SOL     OW21922   0.021   4.709   4.880 -0.1143  1.3775 -0.2113
 7008SOL    HW121923   0.049   4.803   4.900  0.2650  0.8007  2.1957
 7008SOL    HW221924  -0.020   4.668   4.961  1.7085 -1.2361 -0.4923
 7009SOL     OW21925   2.519   0.046   3.611 -0.4413  0.1911  0.5465
 7009SOL    HW121926   2.426   0.080   3.599 -0.7646 -0.3052  1.5547
 7009SOL    HW221927   2.571   0.062   3.528 -1.1517  1.3453  0.3021
 7010SOL     OW21928   6.415   2.684   2.533  0.6378  0.2184  0.1311
 7010SOL    HW121929   6.323   2.679   2.492 -0.3559  0.9943  2.1464
 7010SOL    HW221930   6.479   2.723   2.467 -0.8672  1.3144 -0.7300
 7011SOL     OW21931   6.502   2.367   1.494 -0.0946  0.7571  0.4244
 7011SOL    HW121932   6.517   2.278   1.535  0.3913  0.2971 -0.7137
 7011SOL    HW221933   6.588   2.418   1.492  0.0708  0.4677 -0.6856
 7012SOL     OW21934   1.880   5.774   2.827  0.5142  0.1545  0.3415
 7012SOL    HW121935   1.780   5.771   2.826  0.5385 -1.0719  0.2981
 7012SOL    HW221936   1.912   5.776   2.922  0.4622  0.5866  0.3551
 7013SOL     OW21937   1.465   5.454   6.946 -0.0830 -0.8623  0.5307
 7013SOL    HW121938   1.542   5.458   6.883  0.0440 -0.1679  0.7180
 7013SOL    HW221939   1.429   5.546   6.960  0.3842 -0.8903  2.0802
 7014SOL     OW21940   4.612   4.252   5.423 -0.8427  0.0490 -0.6109
 7014SOL    HW121941   4.575   4.165   5.456  0.8923 -1.7762 -3.0690
 7014SOL    HW221942   4.711   4.255   5.439 -0.8684  1.5672 -0.5933
 7015SOL     OW21943   7.012   3.428   2.080 -0.0535  0.2132 -0.0451
 7015SOL    HW121944   7.006   3.498   2.008 -0.0346 -1.5162 -1.8032
 7015SOL    HW221945   7.091   3.370   2.063  1.3074  1.0913  2.7068
 7016SOL     OW21946   5.888   1.820   3.541  0.0499 -0.4454 -0.0975
 7016SOL    HW121947   5.921   1.780   3.626  1.5212  1.5485  0.3312
 7016SOL    HW221948   5.909   1.758   3.465 -0.4148 -1.8032  0.8260
 7017SOL     OW21949   6.101   6.800   6.202  0.0919 -0.4130 -0.3308
 7017SOL    HW121950   6.153   6.719   6.229  0.5653 -0.5279 -1.5418
 7017SOL    HW221951   6.018   6.806   6.258 -0.0872 -1.8887 -0.3987
 7018SOL     OW21952   1.530   1.583   0.816  0.4459 -0.2926 -0.0719
 7018SOL    HW121953   1.516   1.485   0.804 -0.0614 -0.2547  0.1593
 7018SOL    HW221954   1.452   1.621   0.866  0.2212  0.3705 -0.9044
 7019SOL     OW21955   5.440   6.620   2.259  0.5548  0.3134 -0.2305
 7019SOL    HW121956   5.395   6.695   2.211 -0.4215 -0.3260 -0.3368
 7019SOL    HW221957   5.371   6.556   2.293  0.9960  1.5803  3.5404
 7020SOL     OW21958   3.846   0.904   2.216  0.5101  0.0455 -0.1998
 7020SOL    HW121959   3.788   0.834   2.259  0.0901  1.6298  1.9926
 7020SOL    HW221960   3.826   0.993   2.257  1.7126  1.3166 -2.2308
 7021SOL     OW21961   6.224   1.592   6.801  0.0136 -0.2416 -0.0504
 7021SOL    HW121962   6.295   1.533   6.762  0.0962 -1.6633  2.0796
 7021SOL    HW221963   6.204   1.667   6.737  2.7196 -0.3369 -1.1471
 7022SOL     OW21964   6.670   3.897   2.947 -0.5073 -0.1177 -0.3283
 7022SOL    HW121965   6.574   3.883   2.923 -0.9185 -2.0235  2.0043
 7022SOL    HW221966   6.678   3.971   3.014 -0.4000 -0.1706 -0.2821
 7023SOL     OW21967   6.351   1.824   0.520 -0.2660  0.1442 -0.0746
 7023SOL    HW121968   6.432   1.869   0.559 -0.9075  0.7812  0.5571
 7023SOL    HW221969   6.366   1.725   0.519  0.5927  0.2668 -0.1290
 7024SOL     OW21970   6.726   5.092   3.993 -0.0874  0.3871 -0.0639
 7024SOL    HW121971   6.735   5.013   4.053 -1.2316 -0.2593 -0.7053
 7024SOL    HW221972   6.698   5.172   4.046 -1.7481 -0.3356  0.2061
 7025SOL     OW21973   0.401   1.424   4.337 -0.2947  0.2963 -0.0474
 7025SOL    HW121974   0.354   1.401   4.423  1.7212  0.4748  1.1620
 7025SOL    HW221975   0.343   1.485   4.283 -2.0869 -0.7093  0.6476
 7026SOL     OW21976   0.441   1.971   1.520  0.4103  0.2751 -0.4134
 7026SOL    HW121977   0.347   1.947   1.497  0.2550 -0.5416  0.9498
 7026SOL    HW221978   0.498   1.967   1.438 -0.3878 -0.9975 -0.9219
 7027SOL     OW21979   5.703   1.278   2.991 -0.2996  0.2339 -0.4091
 7027SOL    HW121980   5.712   1.182   3.020 -0.0562  0.5144  0.4643
 7027SOL    HW221981   5.609   1.308   3.006  0.4949  1.3206  3.1723
 7028SOL     OW21982   4.407   3.425   6.767 -0.1165 -0.0757 -0.1223
 7028SOL    HW121983   4.350   3.373   6.830 -0.7492 -0.9139 -1.3589
 7028SOL    HW221984   4.429   3.369   6.687 -0.9174  1.5576 -1.5609
 7029SOL     OW21985   3.260   0.993   4.288 -0.1282 -0.6363  0.5052
 7029SOL    HW121986   3.309   1.060   4.344 -0.1035  0.0601 -0.3223
 7029SOL    HW221987   3.325   0.926   4.251  0.2002  0.2093 -0.4857
 7030SOL     OW21988   2.073   2.413   1.110 -0.2373 -0.1819 -0.8752
 7030SOL    HW121989   2.143   2.485   1.110  0.3982 -0.6600  2.3326
 7030SOL    HW221990   1.984   2.454   1.132 -0.1510 -0.1514 -0.5744
 7031SOL     OW21991   2.923   6.454   4.370  0.4821 -0.1938  0.0598
 7031SOL    HW121992   2.888   6.547   4.361  0.3100 -0.3236 -0.7298
 7031SOL    HW221993   2.937   6.433   4.466  0.4783  0.6311  0.2522
 7032SOL     OW21994   6.464   1.164   2.771  0.2683  0.0274  0.0062
 7032SOL    HW121995   6.531   1.139   2.840  2.0003  1.7383 -0.9688
 7032SOL    HW221996   6.421   1.081   2.734  0.1113 -0.9606  2.2799
 7033SOL     OW21997   1.996   5.092   6.626 -0.2324  0.1125  0.2416
 7033SOL    HW121998   1.990   5.010   6.569  0.5092 -0.2468  0.6658
 7033SOL    HW221999   1.972   5.173   6.572  1.4043 -0.0977 -0.8499
 7034SOL     OW22000   5.166   2.545   5.691  0.2134  0.3138 -0.0535
 7034SOL    HW122001   5.164   2.562   5.789  1.0677 -1.4198  0.3052
 7034SOL    HW222002   5.203   2.454   5.674  3.6141  1.8835 -2.1343
 7035SOL     OW22003   2.404   4.121   1.065  0.0970 -0.1082  0.2578
 7035SOL    HW122004   2.459   4.138   0.983 -2.1166 -0.0419 -1.2906
 7035SOL    HW222005   2.345   4.041   1.050  0.2340 -0.6229  2.1368
 7036SOL     OW22006   0.955   5.513   5.219 -0.4204 -0.3481  0.2074
 7036SOL    HW122007   0.915   5.423   5.235 -1.5289  0.1407  0.3118
 7036SOL    HW222008   1.049   5.503   5.188  0.8074 -1.4514  3.8190
 7037SOL     OW22009   4.699   1.186   3.470 -0.0441 -0.5010 -0.0038
 7037SOL    HW122010   4.666   1.142   3.553  0.1510 -0.6700 -0.0138
 7037SOL    HW222011   4.797   1.202   3.478 -0.1822  0.2935  0.1603
 7038SOL     OW22012   3.056   6.563   1.211  0.2021 -0.5653 -0.0468
 7038SOL    HW122013   3.012   6.636   1.262 -0.9957 -1.4192  0.1836
 7038SOL    HW222014   3.070   6.592   1.116 -0.0895  0.0275  0.0886
 7039SOL     OW22015   0.349   5.571   0.545 -0.2497 -0.7910 -0.0091
 7039SOL    HW122016   0.321   5.533   0.456 -2.5404 -1.4424  0.9312
 7039SOL    HW222017   0.269   5.583   0.603  1.0953  0.4773  1.6853
 7040SOL     OW22018   4.088   2.931   1.657  0.1395  0.1492  0.2912
 7040SOL    HW122019   3.999   2.974   1.645  0.6682  1.0745 -0.4468
 7040SOL    HW222020   4.152   2.998   1.695  1.0794  0.1365 -1.2174
 7041SOL     OW22021   0.121   3.256   6.177 -0.2023 -0.5239  0.4420
 7041SOL    HW122022   0.155   3.187   6.114  0.0585 -1.0795  1.1856
 7041SOL    HW222023   0.102   3.341   6.127  1.0105 -0.6222 -0.1952
 7042SOL     OW22024   3.464   4.182   5.904  0.1974  0.5345 -0.9766
 7042SOL    HW122025   3.414   4.263   5.873 -0.6397 -0.3751 -2.1216
 7042SOL    HW222026   3.408   4.133   5.971  0.5693  0.7254 -0.5205
 7043SOL     OW22027   1.462   0.441   3.159  0.0406  0.4047  0.5022
 7043SOL    HW122028   1.484   0.412   3.066  0.3990  1.6107  0.2053
 7043SOL    HW222029   1.490   0.369   3.223  1.9866  0.5534 -0.1263
 7044SOL     OW22030   5.213   3.736   6.141  0.3044  0.0326 -0.0828
 7044SOL    HW122031   5.297   3.726   6.088  0.1119  0.1290 -0.4150
 7044SOL    HW222032   5.146   3.788   6.087  1.1620  2.9535  1.4377
 7045SOL     OW22033   3.287   3.409   0.001 -0.2376  0.4070  0.3687
 7045SOL    HW122034   3.380   3.377  -0.018 -1.3309 -3.1220  0.2002
 7045SOL    HW222035   3.233   3.404  -0.083 -1.1455  0.1064  0.9556
 7046SOL     OW22036   4.480   1.732   0.131  0.3232  0.5095  0.1301
 7046SOL    HW122037   4.518   1.825   0.138 -0.1993  0.6864  0.7926
 7046SOL    HW222038   4.499   1.695   0.040 -0.5149  1.7334 -0.5743
 7047SOL     OW22039   0.905   0.935   3.054  0.5929  0.5139  0.0300
 7047SOL    HW122040   0.832   0.978   3.105  0.5455 -1.6083  1.9210
 7047SOL    HW222041   0.984   0.920   3.114  0.2360 -2.8206 -0.1593
 7048SOL     OW22042   0.475   4.634   0.535 -0.1403  0.0301  0.1670
 7048SOL    HW122043   0.481   4.537   0.511  1.5218  0.5372 -1.7428
 7048SOL    HW222044   0.415   4.645   0.614 -1.1640 -2.4358 -0.1626
 7049SOL     OW22045   0.409   5.416   6.079 -0.4645  0.3803 -0.7721
 7049SOL    HW122046   0.369   5.326   6.094 -0.2325  0.7036  2.6224
 7049SOL    HW222047   0.345   5.473   6.027 -2.5333 -0.4837  0.6695
 7050SOL     OW22048   3.087   0.771   1.723 -0.0200  0.2888  0.1246
 7050SOL    HW122049   3.185   0.761   1.707 -0.0411 -0.8087  0.5860
 7050SOL    HW222050   3.040   0.783   1.636  0.3571 -0.8997 -0.2671
 7051SOL     OW22051   6.804   4.145   4.643  0.1190  0.2033  0.6289
 7051SOL    HW122052   6.726   4.142   4.707 -0.7417  1.7298 -0.2876
 7051SOL    HW222053   6.776   4.192   4.559  1.7517 -0.1691 -0.1549
 7052SOL     OW22054   2.548   6.507   5.947  0.1781 -0.9247 -0.2578
 7052SOL    HW122055   2.562   6.540   6.040 -1.1974 -0.4323 -0.2052
 7052SOL    HW222056   2.584   6.574   5.882  1.4392 -1.4182 -0.1030
 7053SOL     OW22057   5.751   5.262   0.584 -0.2468  0.0454 -0.1765
 7053SOL    HW122058   5.840   5.270   0.628 -0.5181 -0.9080  0.5792
 7053SOL    HW222059   5.713   5.354   0.570  0.2167  0.4045  0.8365
 7054SOL     OW22060   3.845   0.554   6.199 -0.0487  0.1888  0.8833
 7054SOL    HW122061   3.928   0.531   6.252  0.1122  0.1823  0.6303
 7054SOL    HW222062   3.776   0.484   6.215 -0.6651  1.1127  2.5055
 7055SOL     OW22063   2.697   6.007   0.881 -0.5971  0.1053 -0.1725
 7055SOL    HW122064   2.739   6.025   0.793 -1.0522  0.6588 -0.2801
 7055SOL    HW222065   2.759   5.951   0.937  0.0510  0.4719 -0.5172
 7056SOL     OW22066   1.397   3.556   2.229 -0.0922 -0.1073  0.6625
 7056SOL    HW122067   1.305   3.565   2.266  0.5951 -1.7797  3.0690
 7056SOL    HW222068   1.393   3.534   2.132 -2.4594 -3.8563  1.4189
 7057SOL     OW22069   0.353   2.263   6.389 -0.2311 -0.7219 -0.0187
 7057SOL    HW122070   0.293   2.222   6.457 -0.7956 -1.0224 -0.6857
 7057SOL    HW222071   0.343   2.363   6.391 -1.8953 -0.8253 -1.1304
 7058SOL     OW22072   0.404   2.208   1.984 -0.4007 -0.3417  0.3191
 7058SOL    HW122073   0.402   2.300   2.025 -0.8809 -0.3717  0.3719
 7058SOL    HW222074   0.484   2.199   1.926 -0.0499 -0.0776  0.7578
 7059SOL     OW22075   2.943   2.217   2.913 -0.4829 -0.0263 -0.4044
 7059SOL    HW122076   2.996   2.186   2.835 -1.1560  0.6992 -1.1716
 7059SOL    HW222077   3.003   2.224   2.993 -0.0574 -1.9639 -0.5261
 7060SOL     OW22078   5.640   4.599   3.659 -0.3206  0.4575  0.7249
 7060SOL    HW122079   5.587   4.519   3.633  0.5789 -0.0899  0.5064
 7060SOL    HW222080   5.648   4.602   3.759  1.0285 -0.6923  0.6887
 7061SOL     OW22081   4.218   6.263   6.362  0.0680  0.2062  0.3279
 7061SOL    HW122082   4.276   6.222   6.291  1.1451 -0.4302  1.5439
 7061SOL    HW222083   4.158   6.193   6.400 -2.3553  1.0530 -1.6233
 7062SOL     OW22084   6.238   6.337   0.723 -0.5208  0.3524 -0.3949
 7062SOL    HW122085   6.206   6.304   0.811 -0.6863  0.2919 -0.4756
 7062SOL    HW222086   6.172   6.404   0.687 -1.0673 -0.5002 -1.0103
 7063SOL     OW22087   2.560   4.691   1.263 -0.3688  0.1583 -0.1874
 7063SOL    HW122088   2.513   4.739   1.337 -0.3937 -0.2990  0.1003
 7063SOL    HW222089   2.632   4.749   1.226 -0.6758  0.5784 -0.1317
 7064SOL     OW22090   0.331   1.940   0.017  0.2687  0.6449  0.5460
 7064SOL    HW122091   0.246   1.989  -0.005  0.0748  0.0095 -0.1387
 7064SOL    HW222092   0.369   1.900  -0.066  0.8152  0.2489  0.9846
 7065SOL     OW22093   4.997   6.748   1.845 -0.2063 -0.4765  0.2412
 7065SOL    HW122094   5.041   6.818   1.789 -0.7089 -0.0848  0.3168
 7065SOL    HW222095   5.035   6.658   1.824 -0.4183 -0.3457 -0.7641
 7066SOL     OW22096   4.601   0.606   2.941  0.7761  0.0429 -0.1354
 7066SOL    HW122097   4.580   0.669   3.016  0.2204 -1.2088  0.7906
 7066SOL    HW222098   4.520   0.594   2.884  0.7009 -0.2870  0.0389
 7067SOL     OW22099   3.210   0.317   0.960 -0.6140  0.4116  0.3753
 7067SOL    HW122100   3.194   0.407   0.919  0.8884  0.2529 -0.6151
 7067SOL    HW222101   3.307   0.306   0.980 -0.5959 -1.4487 -0.6115
 7068SOL     OW22102   5.901   0.787   2.174  0.1909  1.0522  0.1191
 7068SOL    HW122103   5.947   0.728   2.240  0.2975  0.3612 -0.5588
 7068SOL    HW222104   5.895   0.880   2.210  3.5269  1.5759 -0.3857
 7069SOL     OW22105   5.429   3.050   4.129 -0.1642  0.5491  0.3401
 7069SOL    HW122106   5.483   2.980   4.082 -1.0762 -0.2539  0.4685
 7069SOL    HW222107   5.383   3.107   4.062  0.5217  0.9980  0.2365
 7070SOL     OW22108   0.520   1.237   1.845 -0.1576 -0.2655 -0.0942
 7070SOL    HW122109   0.527   1.169   1.917 -0.9203  0.7519  0.9813
 7070SOL    HW222110   0.582   1.313   1.864 -1.4426  0.7149  0.3370
 7071SOL     OW22111   5.811   5.141   3.230 -0.6269  0.8138 -0.6800
 7071SOL    HW122112   5.776   5.072   3.166 -1.9133  1.3852 -0.6360
 7071SOL    HW222113   5.846   5.095   3.312 -0.1380  0.1461 -1.2461
 7072SOL     OW22114   3.688   5.557   5.567  0.4436  0.2479 -0.5764
 7072SOL    HW122115   3.599   5.532   5.607 -0.0993  0.9454 -1.3125
 7072SOL    HW222116   3.752   5.580   5.640 -0.9674  3.0154 -0.0753
 7073SOL     OW22117   1.853   2.717   6.104 -0.3224  0.2532 -0.3520
 7073SOL    HW122118   1.942   2.732   6.061  0.1124 -0.0962  0.3970
 7073SOL    HW222119   1.858   2.636   6.163 -1.8285 -1.2917 -2.1922
 7074SOL     OW22120   3.667   3.681   3.203  0.1688 -0.1337  0.1388
 7074SOL    HW122121   3.578   3.724   3.187  0.3896  0.4131  0.3299
 7074SOL    HW222122   3.658   3.610   3.273  0.6142  2.9009  3.6122
 7075SOL     OW22123   1.253   3.331   1.036 -0.0845 -0.0272  0.2471
 7075SOL    HW122124   1.227   3.394   0.963  0.5996 -1.0292 -0.9006
 7075SOL    HW222125   1.352   3.329   1.045 -0.0290 -1.6253 -0.4073
 7076SOL     OW22126   2.981   5.723   6.616 -0.0632  0.2444 -0.0119
 7076SOL    HW122127   3.031   5.809   6.605 -0.5335  0.5480  0.2291
 7076SOL    HW222128   2.987   5.692   6.711 -1.2868  0.8763  0.2878
 7077SOL     OW22129   5.475   5.108   6.242  0.4538  0.4941 -0.0932
 7077SOL    HW122130   5.573   5.097   6.260  1.4903  2.9372 -3.2770
 7077SOL    HW222131   5.441   5.030   6.190  1.1473  0.4016 -0.4125
 7078SOL     OW22132   2.291   4.545   6.857  0.2284 -0.3526 -0.0442
 7078SOL    HW122133   2.277   4.626   6.913  2.7987  0.6352 -0.7247
 7078SOL    HW222134   2.311   4.466   6.916 -1.8115 -0.4571  0.5873
 7079SOL     OW22135   0.639   3.519   3.075  0.6667  0.2149  0.2931
 7079SOL    HW122136   0.551   3.472   3.064  0.3459  0.5122  1.5041
 7079SOL    HW222137   0.666   3.518   3.171  2.2952 -0.3801 -0.1478
 7080SOL     OW22138   0.311   4.904   2.129  0.3691 -0.5013 -0.2017
 7080SOL    HW122139   0.392   4.950   2.167  0.8291 -0.2621 -1.4414
 7080SOL    HW222140   0.314   4.807   2.152 -0.2084 -0.1011  1.7730
 7081SOL     OW22141   3.950   1.842   0.369 -0.5647 -0.1558 -0.3530
 7081SOL    HW122142   4.025   1.865   0.306 -2.1776 -0.7706 -2.6572
 7081SOL    HW222143   3.960   1.747   0.399 -0.3215 -0.1839 -0.5141
 7082SOL     OW22144   5.615   1.476   4.356 -0.3893 -0.2525  0.4173
 7082SOL    HW122145   5.650   1.568   4.372 -2.2681  0.4372  0.7115
 7082SOL    HW222146   5.540   1.457   4.418 -2.1851 -0.7441 -1.7678
 7083SOL     OW22147   2.157   5.521   1.668 -0.4327  0.1512  0.4418
 7083SOL    HW122148   2.133   5.426   1.691 -0.2251 -0.1415 -0.5066
 7083SOL    HW222149   2.117   5.582   1.736 -0.5110 -0.6190  1.1091
 7084SOL     OW22150   2.160   0.706   5.118  0.7025 -0.4584  0.5475
 7084SOL    HW122151   2.074   0.656   5.130  0.6869 -0.2467  1.4359
 7084SOL    HW222152   2.200   0.725   5.208 -0.1233  2.5684  0.4026
 7085SOL     OW22153   4.195   6.700   0.716  0.0786  0.0350  0.0257
 7085SOL    HW122154   4.233   6.646   0.640 -0.1279  0.4716 -0.3960
 7085SOL    HW222155   4.262   6.706   0.789 -0.4326 -2.0602  0.7322
 7086SOL     OW22156   2.538   2.138   2.714  0.2217 -0.0765  0.0660
 7086SOL    HW122157   2.547   2.226   2.668  0.8678 -1.0237 -1.7023
 7086SOL    HW222158   2.473   2.081   2.665  1.4079 -1.3503 -0.0869
 7087SOL     OW22159   5.682   5.813   5.901  0.5989  0.2935 -0.0688
 7087SOL    HW122160   5.590   5.840   5.872  0.4469 -0.1082  0.0224
 7087SOL    HW222161   5.739   5.894   5.910 -0.0885  0.6736  1.0818
 7088SOL     OW22162   6.913   3.617   5.518  0.6045  0.4151  1.3773
 7088SOL    HW122163   7.013   3.613   5.522  0.7907  1.0585 -0.9424
 7088SOL    HW222164   6.878   3.536   5.472  0.0803  0.3648  1.8539
 7089SOL     OW22165   0.841   1.646   0.600 -0.1852 -0.4455  0.4302
 7089SOL    HW122166   0.923   1.643   0.656  0.1655  4.7038  0.7155
 7089SOL    HW222167   0.849   1.721   0.534 -4.5706  0.2863  0.4260
 7090SOL     OW22168   0.392   5.816   0.418  0.2978 -0.3062 -0.1158
 7090SOL    HW122169   0.482   5.837   0.378 -0.1870  1.3183 -0.4386
 7090SOL    HW222170   0.399   5.732   0.472  2.1031 -0.0345  0.1674
 7091SOL     OW22171   2.230   4.138   5.225 -0.0876 -0.1721  0.5804
 7091SOL    HW122172   2.293   4.075   5.181  0.4108  1.2520 -0.8391
 7091SOL    HW222173   2.150   4.153   5.166 -0.0798  0.6971  0.7655
 7092SOL     OW22174   1.153   0.876   2.176  0.2710 -0.0615  0.5393
 7092SOL    HW122175   1.178   0.783   2.202 -0.4154 -0.2320  0.6033
 7092SOL    HW222176   1.181   0.893   2.082 -0.8198 -0.8115  0.0506
 7093SOL     OW22177   2.970   5.693   2.376 -0.1484  0.0270  0.5068
 7093SOL    HW122178   2.986   5.663   2.469  0.4212 -2.4187 -0.3093
 7093SOL    HW222179   2.872   5.705   2.361 -0.3869 -1.1876  0.9859
 7094SOL     OW22180   3.921   1.889   3.891  0.5587  0.4543 -0.6295
 7094SOL    HW122181   4.003   1.839   3.919  0.9738  0.6845 -1.4109
 7094SOL    HW222182   3.906   1.966   3.954 -0.1496 -0.6826  0.6487
 7095SOL     OW22183   0.942   3.977   0.865  0.7581  0.1729  0.2083
 7095SOL    HW122184   0.864   3.982   0.928 -0.7402  2.5575 -1.6612
 7095SOL    HW222185   1.023   3.945   0.915 -0.8769 -0.3436  2.7315
 7096SOL     OW22186   0.150   2.789   5.310  0.3685  0.1917 -0.4787
 7096SOL    HW122187   0.122   2.866   5.253  0.5081  1.5173  1.1690
 7096SOL    HW222188   0.154   2.818   5.406  0.1804 -1.9353  0.2297
 7097SOL     OW22189   4.684   4.613   5.699  0.3299 -0.1820  0.4919
 7097SOL    HW122190   4.606   4.620   5.637  0.1764  0.6215  0.7734
 7097SOL    HW222191   4.668   4.669   5.780  1.4495  0.4413  0.2934
 7098SOL     OW22192   0.157   4.449   2.445 -0.2453 -0.4363 -0.0915
 7098SOL    HW122193   0.191   4.406   2.361 -0.5868  0.4873 -0.7095
 7098SOL    HW222194   0.182   4.392   2.523 -0.1765 -1.4584 -0.8395
 7099SOL     OW22195   0.865   5.982   3.436  0.0039  0.0456 -0.3380
 7099SOL    HW122196   0.826   5.992   3.344  0.5794  1.0796 -0.4910
 7099SOL    HW222197   0.798   6.014   3.504 -0.0696  0.1841 -0.4737
 7100SOL     OW22198   3.421   5.343   5.292  0.0396  0.2724 -0.0643
 7100SOL    HW122199   3.378   5.394   5.218 -1.9758 -1.6584 -0.3511
 7100SOL    HW222200   3.519   5.362   5.294 -0.2096  2.0716 -1.7627
 7101SOL     OW22201   6.218   2.660   6.135 -0.0313  0.1373 -0.6268
 7101SOL    HW122202   6.172   2.676   6.048  0.8206  0.3870 -1.0389
 7101SOL    HW222203   6.150   2.658   6.209 -0.7464  0.0242 -1.2765
 7102SOL     OW22204   1.554   0.558   2.727  0.5806 -0.0727  0.2000
 7102SOL    HW122205   1.511   0.622   2.791  2.1252 -0.9131  2.1743
 7102SOL    HW222206   1.653   0.570   2.730  0.7018 -0.0010 -2.2564
 7103SOL     OW22207   1.172   5.365   2.457 -0.1818  1.0756  0.4193
 7103SOL    HW122208   1.128   5.351   2.368 -0.2907  1.9621  0.3291
 7103SOL    HW222209   1.221   5.281   2.482 -0.5171  0.6565 -0.2612
 7104SOL     OW22210   5.509   0.140   0.402 -0.5248 -0.0523 -0.2339
 7104SOL    HW122211   5.458   0.188   0.474  2.0475  1.0272  1.0426
 7104SOL    HW222212   5.539   0.051   0.437  1.4796  0.8371  0.4687
 7105SOL     OW22213   0.307   2.076   6.035  0.8448 -0.6884  0.0414
 7105SOL    HW122214   0.329   2.063   6.132  1.5188  0.8847  0.1389
 7105SOL    HW222215   0.216   2.041   6.017  1.4071 -2.7260  0.7991
 7106SOL     OW22216   5.437   2.789   2.895 -0.5807 -0.3624  0.2025
 7106SOL    HW122217   5.402   2.844   2.971 -2.3315 -0.2274 -0.6478
 7106SOL    HW222218   5.441   2.845   2.812 -1.3763 -1.1898 -0.4257
 7107SOL     OW22219   6.422   6.556   5.976  0.0291  0.1287  0.1166
 7107SOL    HW122220   6.464   6.484   6.032  0.1342 -1.1267 -1.5139
 7107SOL    HW222221   6.457   6.552   5.883 -1.9967  0.5083 -0.7253
 7108SOL     OW22222   1.302   0.067   5.847  0.0924  0.0870  0.2581
 7108SOL    HW122223   1.215   0.116   5.840 -0.1155 -0.5403 -2.9280
 7108SOL    HW222224   1.377   0.134   5.853 -0.3409  0.8361 -1.8183
 7109SOL     OW22225   5.779   2.550   0.093 -0.1282 -0.7608 -0.2621
 7109SOL    HW122226   5.749   2.470   0.146 -2.0363  1.0302  1.5278
 7109SOL    HW222227   5.752   2.538  -0.003 -2.7714 -1.1694  0.4683
 7110SOL     OW22228   5.614   6.444   2.507  0.1883  0.1661  0.1173
 7110SOL    HW122229   5.536   6.428   2.446  0.9203  1.5159 -1.2382
 7110SOL    HW222230   5.686   6.377   2.488 -0.8404 -1.5244  1.8444
 7111SOL     OW22231   0.129   3.224   1.707  0.0206  0.1499  0.6348
 7111SOL    HW122232   0.052   3.174   1.667  2.7339 -1.0872 -3.6793
 7111SOL    HW222233   0.179   3.163   1.769 -0.2980 -0.2659  0.4896
 7112SOL     OW22234   0.518   0.774   3.833  0.3239  0.0267 -0.5178
 7112SOL    HW122235   0.501   0.675   3.838 -0.6315  0.0377 -2.3949
 7112SOL    HW222236   0.443   0.823   3.877  0.4757 -0.0768 -0.1434
 7113SOL     OW22237   5.354   3.896   1.489 -0.4441  0.0983  0.3194
 7113SOL    HW122238   5.446   3.921   1.458 -0.4793 -0.0601  0.0886
 7113SOL    HW222239   5.347   3.912   1.587  0.3297 -1.3824  0.6451
 7114SOL     OW22240   0.912   4.167   6.155  0.3703 -0.8016  0.1503
 7114SOL    HW122241   1.004   4.131   6.170  1.0111  0.6143 -0.2974
 7114SOL    HW222242   0.882   4.216   6.237  0.0506 -1.1619  0.2523
 7115SOL     OW22243   0.987   3.309   0.789 -0.0508 -0.0213  0.0909
 7115SOL    HW122244   0.922   3.285   0.861  2.1706 -1.2993  1.7850
 7115SOL    HW222245   0.939   3.314   0.701 -2.5965  0.2666  1.4045
 7116SOL     OW22246   5.489   6.555   4.346  0.3051  0.4178  0.1427
 7116SOL    HW122247   5.443   6.576   4.260 -1.3437 -0.2347  0.8149
 7116SOL    HW222248   5.489   6.456   4.361 -0.6664  0.5793  1.4917
 7117SOL     OW22249   4.780   0.581   0.662 -0.5078 -0.1169 -0.2149
 7117SOL    HW122250   4.850   0.568   0.732 -0.9070 -0.6593  0.0878
 7117SOL    HW222251   4.722   0.659   0.687  0.5115  0.8929 -0.9077
 7118SOL     OW22252   6.427   0.759   0.628 -0.3350 -0.1590 -0.1915
 7118SOL    HW122253   6.363   0.715   0.566 -1.1097 -0.8748  1.0864
 7118SOL    HW222254   6.436   0.705   0.711  0.6218  0.8269  0.3743
 7119SOL     OW22255   2.384   2.604   3.552  0.3478  0.3934  0.2218
 7119SOL    HW122256   2.376   2.680   3.617  0.3342  0.6286 -0.0552
 7119SOL    HW222257   2.365   2.637   3.460 -4.8651 -0.9000  0.5292
 7120SOL     OW22258   2.929   4.595   6.245  0.0065  0.2913 -0.3683
 7120SOL    HW122259   2.929   4.498   6.223 -0.8453  0.5422 -1.5496
 7120SOL    HW222260   2.857   4.614   6.313 -0.8442  0.3100 -1.2481
 7121SOL     OW22261   3.356   1.646   6.150  0.0149 -0.1017 -0.4143
 7121SOL    HW122262   3.309   1.723   6.191 -0.4480 -1.4420  1.7689
 7121SOL    HW222263   3.291   1.571   6.136  1.0345 -1.2338  0.6543
 7122SOL     OW22264   2.144   2.805   5.979 -0.0560  0.3434 -0.0282
 7122SOL    HW122265   2.150   2.762   5.889  1.4041 -1.0109  0.6706
 7122SOL    HW222266   2.197   2.890   5.980 -0.7606  0.8028 -0.6591
 7123SOL     OW22267   6.845   6.227   5.567  0.0790  0.2419 -0.1397
 7123SOL    HW122268   6.835   6.319   5.529 -0.2601  0.0564 -0.4959
 7123SOL    HW222269   6.938   6.217   5.604  0.3616  0.4803 -0.7667
 7124SOL     OW22270   1.597   4.536   6.232 -0.0199 -0.0053 -0.0744
 7124SOL    HW122271   1.677   4.594   6.215  1.9581 -2.9383 -1.7561
 7124SOL    HW222272   1.602   4.500   6.325  0.2133  0.3701  0.0626
 7125SOL     OW22273   0.449   6.607   4.429 -0.5369  0.3378 -0.1302
 7125SOL    HW122274   0.388   6.661   4.487 -0.8551 -1.2115  1.0348
 7125SOL    HW222275   0.494   6.537   4.483 -0.0636 -0.5222 -1.5709
 7126SOL     OW22276   3.089   0.444   6.570 -0.8248 -0.2235  0.3342
 7126SOL    HW122277   3.024   0.377   6.535  0.4962 -2.1108  1.2994
 7126SOL    HW222278   3.171   0.444   6.511 -0.1099 -0.7542  1.2991
 7127SOL     OW22279   6.623   5.695   6.930  0.9810 -0.2510  0.3857
 7127SOL    HW122280   6.592   5.776   6.880 -0.1639 -0.5299  0.6129
 7127SOL    HW222281   6.582   5.613   6.889  2.3092 -0.7539  0.0097
 7128SOL     OW22282   3.632   1.092   6.676  0.5920 -0.7778  0.4468
 7128SOL    HW122283   3.538   1.123   6.662  1.2862  0.6695 -1.4090
 7128SOL    HW222284   3.688   1.168   6.706  1.5039 -1.1983 -0.1286
 7129SOL     OW22285   1.718   2.835   5.181 -0.0855  0.0192  0.1266
 7129SOL    HW122286   1.648   2.772   5.214  0.5471 -1.5147 -1.2958
 7129SOL    HW222287   1.678   2.899   5.116 -0.5607  0.5534  0.9238
 7130SOL     OW22288   6.410   2.406   5.069 -0.1698  0.3691  0.3918
 7130SOL    HW122289   6.399   2.338   5.141  1.0951 -0.6205 -0.2961
 7130SOL    HW222290   6.469   2.369   4.997  0.8218  2.2982  0.1296
 7131SOL     OW22291   3.525   4.115   4.063  0.2966 -0.1840 -0.6454
 7131SOL    HW122292   3.536   4.143   4.158  2.0399 -0.6942 -0.6671
 7131SOL    HW222293   3.438   4.066   4.053 -0.9787  1.8054  0.1749
 7132SOL     OW22294   1.504   0.232   3.313 -0.4428 -0.6660 -0.5959
 7132SOL    HW122295   1.458   0.187   3.389  0.5480 -1.0924 -0.2204
 7132SOL    HW222296   1.538   0.163   3.248  0.0776 -0.4017 -0.6146
 7133SOL     OW22297   1.309   2.896   1.239 -0.2720 -0.1434 -0.2535
 7133SOL    HW122298   1.216   2.867   1.217 -1.1948  2.8366 -0.6900
 7133SOL    HW222299   1.308   2.952   1.322  0.8678  1.1915 -1.1013
 7134SOL     OW22300   0.790   4.861   0.259  0.1484  0.4438 -0.3569
 7134SOL    HW122301   0.828   4.768   0.264  0.6705  0.6818  0.2436
 7134SOL    HW222302   0.696   4.860   0.292  0.5142  0.3143  0.7305
 7135SOL     OW22303   1.115   0.077   0.297 -0.4243 -0.4004 -0.2526
 7135SOL    HW122304   1.195   0.080   0.356 -1.5455  0.4654  1.3166
 7135SOL    HW222305   1.068   0.165   0.300  0.5317  0.3807 -4.0738
 7136SOL     OW22306   1.629   5.772   2.728  0.2087  0.0858  0.5349
 7136SOL    HW122307   1.576   5.852   2.699  1.2734  0.1658 -1.3331
 7136SOL    HW222308   1.581   5.688   2.701  0.8942  0.1552 -0.9587
 7137SOL     OW22309   6.957   3.887   5.902  0.4168  0.1185  0.0004
 7137SOL    HW122310   6.892   3.926   5.967  1.2566 -1.1744  1.7032
 7137SOL    HW222311   6.922   3.799   5.869  1.7614 -1.1621  1.8411
 7138SOL     OW22312   4.836   6.518   1.931  0.2792 -0.4556 -0.1908
 7138SOL    HW122313   4.805   6.610   1.906 -1.6847 -1.5424 -2.1468
 7138SOL    HW222314   4.777   6.481   2.003  0.7819 -0.3523  0.2751
 7139SOL     OW22315   2.093   1.136   0.647  0.4043 -0.0255 -0.6208
 7139SOL    HW122316   2.117   1.055   0.701 -1.1117 -0.8322 -1.0995
 7139SOL    HW222317   2.095   1.114   0.550 -3.8011 -0.7687 -0.7302
 7140SOL     OW22318   3.474   1.650   2.660 -0.2006  0.0018  0.4090
 7140SOL    HW122319   3.402   1.720   2.661 -0.2768 -0.0666  1.9165
 7140SOL    HW222320   3.490   1.621   2.566 -1.6853  0.4844 -0.0306
 7141SOL     OW22321   5.040   5.710   3.880  0.2131 -0.3126  0.4503
 7141SOL    HW122322   4.995   5.629   3.844  1.0818 -0.7876  0.4121
 7141SOL    HW222323   5.122   5.684   3.931  0.5787  0.5371  0.3283
 7142SOL     OW22324   6.605   1.313   3.226  0.4487 -0.0821  0.2990
 7142SOL    HW122325   6.704   1.326   3.221  0.2432  1.6572  0.1579
 7142SOL    HW222326   6.562   1.351   3.144 -0.1811 -3.1704 -0.9390
 7143SOL     OW22327   5.856   4.102   1.286  0.0007  0.1090 -0.3769
 7143SOL    HW122328   5.920   4.153   1.343 -0.0923  0.6593 -0.7534
 7143SOL    HW222329   5.765   4.142   1.293 -1.1107 -2.5187  2.6189
 7144SOL     OW22330   3.536   4.143   2.012  0.6108 -0.2996  0.0319
 7144SOL    HW122331   3.553   4.223   2.070  1.6325 -2.3418  2.7992
 7144SOL    HW222332   3.454   4.096   2.044  0.8573 -1.1589 -0.5656
 7145SOL     OW22333   4.586   1.473   3.374 -0.3951 -0.5418  0.2300
 7145SOL    HW122334   4.606   1.438   3.282  1.7090 -1.6770  1.0390
 7145SOL    HW222335   4.670   1.471   3.429 -1.3698  1.0912  1.8843
 7146SOL     OW22336   0.223   0.153   2.906 -0.1193  0.1284 -0.1043
 7146SOL    HW122337   0.306   0.206   2.885 -0.5814  1.0721  0.3905
 7146SOL    HW222338   0.146   0.191   2.856 -0.5061  0.0812  0.4437
 7147SOL     OW22339   6.226   3.109   0.239  0.7385  0.1107 -0.1905
 7147SOL    HW122340   6.300   3.150   0.292  1.5383 -1.5045  0.0182
 7147SOL    HW222341   6.160   3.179   0.213  1.7177  1.3833  0.6532
 7148SOL     OW22342   0.752   3.264   6.991  0.2496 -0.2584 -0.1890
 7148SOL    HW122343   0.692   3.183   6.991  1.8730 -1.5054 -0.2787
 7148SOL    HW222344   0.806   3.265   7.075 -0.6231  1.4529  0.4006
 7149SOL     OW22345   6.995   3.840   1.788  0.3005 -0.0397 -0.7239
 7149SOL    HW122346   7.015   3.804   1.697 -1.1407 -0.7833 -0.7789
 7149SOL    HW222347   7.080   3.868   1.832  1.0953 -0.3146 -2.0230
 7150SOL     OW22348   0.773   0.238   1.409  0.6960 -0.2510  0.3578
 7150SOL    HW122349   0.807   0.328   1.381  0.9996 -0.4873 -0.0445
 7150SOL    HW222350   0.809   0.215   1.499 -2.2452  1.6162  2.1907
 7151SOL     OW22351   2.266   4.204   3.921 -0.0779 -0.4774 -0.3810
 7151SOL    HW122352   2.337   4.229   3.855  2.5956 -0.8901  2.1457
 7151SOL    HW222353   2.222   4.286   3.957  2.2845  0.1792  1.2150
 7152SOL     OW22354   5.601   5.393   6.435  0.2429 -0.4044 -0.0602
 7152SOL    HW122355   5.571   5.354   6.522  2.2286 -2.3932 -0.2041
 7152SOL    HW222356   5.522   5.435   6.389 -1.2525 -1.0728  1.7629
 7153SOL     OW22357   2.628   3.831   5.624  0.0234 -0.7751  0.9089
 7153SOL    HW122358   2.682   3.772   5.565  0.3561 -0.2423  0.6710
 7153SOL    HW222359   2.572   3.775   5.686  0.8858 -1.3371  1.2019
 7154SOL     OW22360   1.248   5.001   6.833 -0.2137  0.3476 -0.4124
 7154SOL    HW122361   1.268   5.096   6.807 -1.3039  1.1123  1.3792
 7154SOL    HW222362   1.331   4.946   6.823  0.3683  1.3871 -1.7646
 7155SOL     OW22363   4.189   5.182   2.949  0.4895 -0.0555 -0.6178
 7155SOL    HW122364   4.202   5.281   2.955  0.7516 -0.0395 -1.3165
 7155SOL    HW222365   4.277   5.138   2.931  0.0239 -0.1581 -3.0141
 7156SOL     OW22366   6.875   6.222   0.056 -0.3049  0.4155  0.3863
 7156SOL    HW122367   6.845   6.211   0.151  0.0245 -0.2349  0.4214
 7156SOL    HW222368   6.892   6.318   0.038 -2.1199  0.7820  0.4427
 7157SOL     OW22369   6.073   4.651   4.709  0.2005  0.7037  0.5193
 7157SOL    HW122370   6.123   4.722   4.660  1.2028 -0.5359 -0.3466
 7157SOL    HW222371   6.127   4.566   4.709 -0.9232 -0.0545  1.5588
 7158SOL     OW22372   2.455   1.847   3.948  0.3361  0.0856 -0.1434
 7158SOL    HW122373   2.464   1.786   3.869 -1.1784 -2.6669  1.6550
 7158SOL    HW222374   2.374   1.905   3.935 -0.6195 -1.1991 -0.1531
 7159SOL     OW22375   4.129   6.587   3.964  0.0142  0.2179 -0.0009
 7159SOL    HW122376   4.174   6.674   3.946  0.8716 -0.6976 -2.8492
 7159SOL    HW222377   4.185   6.532   4.025  0.2372  1.0292  0.5425
 7160SOL     OW22378   0.567   0.447   4.418  1.0771 -0.0939 -0.1774
 7160SOL    HW122379   0.599   0.368   4.366  0.9594  1.3770 -2.6363
 7160SOL    HW222380   0.604   0.531   4.378 -2.6787  1.4483 -0.8303
 7161SOL     OW22381   3.758   4.014   2.629  0.2927  0.3945 -0.6395
 7161SOL    HW122382   3.672   4.014   2.681  1.4621  0.1655  1.3839
 7161SOL    HW222383   3.781   4.108   2.603 -1.6382  0.2841 -3.2105
 7162SOL     OW22384   3.445   5.074   0.038  0.3278 -0.0984 -0.0598
 7162SOL    HW122385   3.391   5.147  -0.003  1.1069  1.0039  0.8140
 7162SOL    HW222386   3.536   5.109   0.063  1.7127 -2.0245 -2.0237
 7163SOL     OW22387   6.419   5.355   4.096  0.4287 -0.2326 -0.3140
 7163SOL    HW122388   6.370   5.335   4.011  0.1964 -0.5282 -0.1120
 7163SOL    HW222389   6.494   5.418   4.077 -1.2842  1.9040 -0.2799
 7164SOL     OW22390   6.583   1.702   6.097 -0.0143  0.1899 -0.0157
 7164SOL    HW122391   6.616   1.634   6.162 -1.6745 -1.8565 -1.1909
 7164SOL    HW222392   6.651   1.715   6.025  0.0236 -0.7881 -0.1667
 7165SOL     OW22393   3.073   4.867   0.864 -0.2049  0.0033  0.3688
 7165SOL    HW122394   3.076   4.797   0.793 -1.7239 -0.0961  0.3753
 7165SOL    HW222395   3.166   4.901   0.882  0.4454 -1.4150 -0.2017
 7166SOL     OW22396   0.372   0.333   1.640 -0.3443  0.2350 -0.1500
 7166SOL    HW122397   0.369   0.411   1.704 -0.4082  1.0682 -1.1486
 7166SOL    HW222398   0.418   0.256   1.685 -1.8572  0.2239  1.4949
 7167SOL     OW22399   4.508   4.452   2.109  0.0932  0.0057 -0.1984
 7167SOL    HW122400   4.423   4.496   2.079 -0.2498 -0.3349  0.2631
 7167SOL    HW222401   4.523   4.368   2.057 -0.5500 -0.6338  0.6428
 7168SOL     OW22402   5.390   3.963   0.116  0.5872 -0.4357 -0.1864
 7168SOL    HW122403   5.474   3.909   0.107  0.1279 -1.4962  1.3743
 7168SOL    HW222404   5.339   3.961   0.031  1.3498 -1.1572 -0.6394
 7169SOL     OW22405   1.817   6.789   1.360  0.3515 -0.1595 -0.5824
 7169SOL    HW122406   1.756   6.814   1.285  1.3386 -1.2776 -1.8019
 7169SOL    HW222407   1.795   6.698   1.393 -0.4167  0.5167  0.8993
 7170SOL     OW22408   0.141   2.539   1.906 -0.3785  0.3962 -0.3192
 7170SOL    HW122409   0.164   2.542   1.809 -0.7140 -0.0412 -0.4123
 7170SOL    HW222410   0.224   2.517   1.959 -0.1373  0.9141 -0.4800
 7171SOL     OW22411   5.313   1.131   3.240 -0.3655 -0.3018  0.8383
 7171SOL    HW122412   5.346   1.037   3.250  1.1902  0.2893  1.5935
 7171SOL    HW222413   5.291   1.148   3.143  1.2307 -0.8465  0.3540
 7172SOL     OW22414   5.358   4.364   1.682  0.2213 -0.0876 -0.0086
 7172SOL    HW122415   5.448   4.390   1.716 -0.1837 -0.5668  1.5109
 7172SOL    HW222416   5.345   4.266   1.693 -0.0141 -0.2466 -1.4443
 7173SOL     OW22417   6.104   0.469   0.621  0.3719 -0.3228  0.0864
 7173SOL    HW122418   6.094   0.419   0.534 -0.3797 -0.8372  0.4616
 7173SOL    HW222419   6.091   0.567   0.605  0.5164 -0.3823 -0.4232
 7174SOL     OW22420   0.525   1.464   2.341  0.3316 -0.3435 -0.1013
 7174SOL    HW122421   0.453   1.527   2.368 -1.2654 -2.6751  1.4535
 7174SOL    HW222422   0.486   1.373   2.323  2.5654 -1.0762 -1.8202
 7175SOL     OW22423   3.951   5.381   6.027 -0.1628 -0.2479 -0.4934
 7175SOL    HW122424   3.982   5.325   6.104  1.4486 -2.3398 -2.5471
 7175SOL    HW222425   3.899   5.326   5.963 -0.5593  1.1945 -1.4693
 7176SOL     OW22426   0.177   5.980   2.380  0.0183 -0.3030 -0.7154
 7176SOL    HW122427   0.158   6.054   2.315 -0.2031 -0.2931 -0.6407
 7176SOL    HW222428   0.220   5.904   2.332 -0.9140 -0.6408 -1.0491
 7177SOL     OW22429   5.444   4.353   0.773  0.1273 -0.0049  0.2104
 7177SOL    HW122430   5.362   4.402   0.742 -0.1269 -0.5128  0.0583
 7177SOL    HW222431   5.491   4.314   0.694  0.0589 -0.4161  0.3703
 7178SOL     OW22432   0.976   1.426   6.777 -0.2316 -0.1325 -0.1802
 7178SOL    HW122433   0.976   1.332   6.810  0.1138 -0.4281 -0.9845
 7178SOL    HW222434   1.068   1.464   6.782 -0.2232 -0.0980 -0.5647
 7179SOL     OW22435   2.299   3.724   5.352 -0.1953  0.4555  0.3300
 7179SOL    HW122436   2.326   3.668   5.431  0.6865  0.4176  0.0143
 7179SOL    HW222437   2.369   3.793   5.334 -0.1021  0.1043 -0.7585
 7180SOL     OW22438   6.842   1.335   1.015 -0.4077  0.2935  0.0669
 7180SOL    HW122439   6.877   1.248   0.981 -0.3979  0.2723  0.1300
 7180SOL    HW222440   6.863   1.343   1.113  1.7459  1.4414 -0.4248
 7181SOL     OW22441   4.715   2.912   0.427  0.7637 -0.0965 -0.0923
 7181SOL    HW122442   4.676   2.987   0.481 -2.2824 -2.1502  0.8076
 7181SOL    HW222443   4.686   2.920   0.332 -0.5078 -0.6873  0.2302
 7182SOL     OW22444   2.876   5.697   0.281  0.2662  0.2572 -0.4546
 7182SOL    HW122445   2.951   5.638   0.253  0.1313 -0.3093  0.3411
 7182SOL    HW222446   2.795   5.641   0.300  0.4294  0.5528  1.2975
 7183SOL     OW22447   6.908   2.954   4.304 -0.4918 -0.4764 -0.2552
 7183SOL    HW122448   6.883   2.867   4.263  0.2242 -0.1560 -1.4379
 7183SOL    HW222449   6.994   2.944   4.354  0.0452 -0.2817 -1.1112
 7184SOL     OW22450   3.131   5.256   3.443 -0.2275 -0.6099 -0.1519
 7184SOL    HW122451   3.225   5.288   3.442 -1.0766  2.3516  1.8761
 7184SOL    HW222452   3.080   5.300   3.369 -0.6443  0.1050  0.5485
 7185SOL     OW22453   1.180   6.202   6.211  0.5121  0.1276  0.0882
 7185SOL    HW122454   1.203   6.133   6.142  1.9893 -0.5866  1.2185
 7185SOL    HW222455   1.225   6.178   6.298 -2.2757  0.3126  1.6889
 7186SOL     OW22456   2.040   2.193   6.181 -0.6130 -0.3642 -0.0583
 7186SOL    HW122457   2.033   2.096   6.156  0.4007  0.1385 -2.6305
 7186SOL    HW222458   2.103   2.239   6.119 -3.1800  2.5329 -0.7663
 7187SOL     OW22459   0.569   4.941   5.230  0.2487 -0.0679 -0.2034
 7187SOL    HW122460   0.515   4.964   5.149  0.3388 -1.0072 -0.5313
 7187SOL    HW222461   0.634   4.869   5.208 -0.6601 -1.3165  1.0381
 7188SOL     OW22462   5.638   1.090   0.512  0.3162 -0.3140 -0.4868
 7188SOL    HW122463   5.668   1.061   0.602 -0.3665  3.4129  1.1471
 7188SOL    HW222464   5.716   1.129   0.462  0.3678 -0.8688 -0.8436
 7189SOL     OW22465   5.626   1.980   5.624  0.2759  0.1445  0.0935
 7189SOL    HW122466   5.610   1.998   5.527  1.0111  1.2379  0.1544
 7189SOL    HW222467   5.714   1.935   5.636  0.3570  0.3442  0.2721
 7190SOL     OW22468   2.330   1.677   3.283 -0.0678  0.3351 -0.7230
 7190SOL    HW122469   2.272   1.662   3.203  0.3669  1.9745 -1.3807
 7190SOL    HW222470   2.322   1.772   3.313  2.6811  0.8284 -1.2151
 7191SOL     OW22471   2.828   6.461   3.786  0.3266 -0.1959 -0.4558
 7191SOL    HW122472   2.855   6.434   3.878 -0.2028  0.0717 -0.2143
 7191SOL    HW222473   2.769   6.391   3.746  0.5544 -0.3111 -0.5888
 7192SOL     OW22474   1.420   4.257   5.823 -0.4612  0.1881  0.6003
 7192SOL    HW122475   1.360   4.210   5.889  0.4505 -1.0650  0.5709
 7192SOL    HW222476   1.480   4.190   5.779 -0.7123  1.0729 -1.1729
 7193SOL     OW22477   3.864   2.377   0.066 -0.2284 -0.5061  0.2070
 7193SOL    HW122478   3.876   2.367  -0.033  0.2648 -0.1013  0.2227
 7193SOL    HW222479   3.770   2.352   0.091 -0.5171 -0.0772 -0.4357
 7194SOL     OW22480   1.878   5.434   5.418  0.2657  0.0785  0.1294
 7194SOL    HW122481   1.894   5.382   5.334 -0.9425  0.9726 -0.7045
 7194SOL    HW222482   1.819   5.513   5.397 -0.6198 -0.0526  1.9394
 7195SOL     OW22483   5.445   0.744   2.678 -0.5786 -0.0792 -0.1255
 7195SOL    HW122484   5.417   0.813   2.611  0.1200 -0.1982 -0.5527
 7195SOL    HW222485   5.471   0.790   2.764 -1.4182  0.0779  0.0501
 7196SOL     OW22486   3.218   6.131   1.083 -0.3621  0.1209 -0.0916
 7196SOL    HW122487   3.200   6.168   0.992 -2.1165 -2.0742 -0.7210
 7196SOL    HW222488   3.136   6.088   1.119  0.4920  0.3214  2.2639
 7197SOL     OW22489   2.316   6.859   5.408  0.2127 -0.0104  0.5381
 7197SOL    HW122490   2.335   6.804   5.326  1.7810  0.8132  0.3091
 7197SOL    HW222491   2.238   6.918   5.391  0.4840  0.1052 -0.3518
 7198SOL     OW22492   1.098   6.806   4.659 -0.0048  0.5475  0.0394
 7198SOL    HW122493   1.183   6.753   4.655  0.3231  1.1329 -2.6783
 7198SOL    HW222494   1.093   6.854   4.746  2.1568  0.0119  0.5216
 7199SOL     OW22495   0.000   1.748   5.611  0.3974 -0.0663 -0.2517
 7199SOL    HW122496   0.055   1.674   5.652 -1.1573 -1.0498  0.1484
 7199SOL    HW222497  -0.007   1.823   5.677  2.7662  0.9193 -1.0070
 7200SOL     OW22498   3.416   6.987   4.471  0.0839  0.3129 -0.2847
 7200SOL    HW122499   3.381   6.995   4.378 -0.5908  0.6429 -0.0064
 7200SOL    HW222500   3.346   7.017   4.536  1.0929  1.6309  0.2538
 7201SOL     OW22501   4.001   1.093   0.447 -0.0685  0.2295 -0.3644
 7201SOL    HW122502   4.030   1.147   0.526 -1.4211  0.2093  0.1709
 7201SOL    HW222503   4.081   1.067   0.393  1.0347 -0.8475  1.6768
 7202SOL     OW22504   1.125   4.164   5.593 -0.5540 -0.3532  0.6231
 7202SOL    HW122505   1.081   4.231   5.534  1.6217 -0.7748 -1.6480
 7202SOL    HW222506   1.141   4.079   5.541 -0.2469 -1.4372  2.4011
 7203SOL     OW22507   1.059   5.511   1.153 -0.2308 -0.1639  0.1099
 7203SOL    HW122508   1.010   5.457   1.084  0.6683 -2.2895  1.0632
 7203SOL    HW222509   1.151   5.474   1.165  0.7761  2.1886  0.1693
 7204SOL     OW22510   5.466   0.955   5.188 -0.0408  0.8464 -0.6707
 7204SOL    HW122511   5.459   0.856   5.203 -2.9031  0.7013 -2.1536
 7204SOL    HW222512   5.411   1.003   5.256 -0.5423  1.2222 -1.3249
 7205SOL     OW22513   5.741   1.261   2.312 -0.2871  0.7358 -0.3701
 7205SOL    HW122514   5.646   1.291   2.320  0.0883  1.7317  0.6052
 7205SOL    HW222515   5.748   1.194   2.238 -1.6862  0.8739 -0.6677
 7206SOL     OW22516   3.988   0.134   1.353 -0.1257  0.4454 -0.0377
 7206SOL    HW122517   4.012   0.113   1.448 -0.2910 -0.0091 -0.0967
 7206SOL    HW222518   4.067   0.116   1.294  0.0516  0.9468  0.0393
 7207SOL     OW22519   1.508   3.848   1.483 -0.0648 -0.0619 -0.1694
 7207SOL    HW122520   1.524   3.945   1.470 -2.3147  0.1838 -1.8468
 7207SOL    HW222521   1.438   3.835   1.553 -0.9503 -0.3098 -1.0618
 7208SOL     OW22522   0.768   0.511   2.748  0.6102  0.0759  0.1151
 7208SOL    HW122523   0.682   0.473   2.713 -0.1163 -0.0041  1.8533
 7208SOL    HW222524   0.803   0.580   2.684 -0.9113  0.3324 -0.4814
 7209SOL     OW22525   3.987   0.697   0.237 -0.1187 -0.0613  0.0548
 7209SOL    HW122526   3.995   0.792   0.208  0.4144  0.0244  0.4659
 7209SOL    HW222527   3.904   0.658   0.199  0.3060  0.1847 -1.1753
 7210SOL     OW22528   4.268   4.913   3.844  0.2783  0.5480 -0.2915
 7210SOL    HW122529   4.262   5.000   3.893  0.2654  0.6406 -0.4581
 7210SOL    HW222530   4.205   4.913   3.767 -0.4398  0.0110  0.2798
 7211SOL     OW22531   0.293   1.929   2.085 -0.3964  0.3153 -0.1609
 7211SOL    HW122532   0.205   1.937   2.134 -0.5188  0.5551 -0.4154
 7211SOL    HW222533   0.329   2.021   2.070 -0.0841  0.2131 -0.0289
 7212SOL     OW22534   5.823   3.579   2.703  0.0380 -0.7108  0.6077
 7212SOL    HW122535   5.853   3.674   2.713  0.7230 -0.6843 -1.2944
 7212SOL    HW222536   5.738   3.576   2.650  0.9308 -1.1952 -0.8801
 7213SOL     OW22537   1.633   2.859   1.358  0.7750  0.4132 -0.0206
 7213SOL    HW122538   1.620   2.954   1.387  1.0232  0.0806  1.2410
 7213SOL    HW222539   1.582   2.798   1.418  2.6211 -0.4112  0.8172
 7214SOL     OW22540   4.211   5.755   1.531  0.2473 -0.3114 -0.3451
 7214SOL    HW122541   4.260   5.668   1.541 -0.5893 -0.8326 -0.6267
 7214SOL    HW222542   4.161   5.756   1.445  0.2418  0.4568 -0.3416
 7215SOL     OW22543   1.728   6.976   5.300  0.2929  0.3686  0.3261
 7215SOL    HW122544   1.706   6.879   5.302  1.1955  0.1591  0.7147
 7215SOL    HW222545   1.730   7.008   5.205  6.5783 -1.6371 -0.6922
 7216SOL     OW22546   5.019   1.757   0.701  0.1119  0.4683  0.3192
 7216SOL    HW122547   4.931   1.746   0.748  0.5065 -1.7550  0.6343
 7216SOL    HW222548   5.073   1.827   0.747 -0.5366  0.1414  1.6321
 7217SOL     OW22549   2.322   6.510   5.621  0.2318  0.0631  0.0921
 7217SOL    HW122550   2.352   6.467   5.536 -0.3156  1.1532 -0.6795
 7217SOL    HW222551   2.378   6.591   5.638 -0.0235  0.1598  0.4843
 7218SOL     OW22552   5.666   0.198   2.375 -0.7571 -0.2990 -0.3893
 7218SOL    HW122553   5.608   0.199   2.457 -1.1920 -1.1422 -0.6832
 7218SOL    HW222554   5.745   0.138   2.391  0.3786  1.2810  0.2205
 7219SOL     OW22555   5.674   5.915   4.249 -0.2902  0.3078  0.0142
 7219SOL    HW122556   5.769   5.892   4.231 -0.8748 -1.9411 -0.5815
 7219SOL    HW222557   5.645   5.873   4.335 -1.4503 -1.5011 -1.1806
 7220SOL     OW22558   2.256   4.707   4.467  0.2985  0.2367 -0.0821
 7220SOL    HW122559   2.212   4.618   4.458  1.6350 -0.3637 -0.9958
 7220SOL    HW222560   2.351   4.695   4.493 -0.0352  1.5142  1.9260
 7221SOL     OW22561   2.791   0.270   0.954 -0.2326 -0.8520 -0.5718
 7221SOL    HW122562   2.874   0.246   0.903 -0.5258 -0.3005 -1.3242
 7221SOL    HW222563   2.801   0.241   1.050 -0.1113 -2.8860 -1.1527
 7222SOL     OW22564   5.260   0.363   4.010 -0.3158 -1.0060  0.2676
 7222SOL    HW122565   5.201   0.291   4.046  0.5434 -1.2467  1.2425
 7222SOL    HW222566   5.323   0.394   4.082  0.2850 -0.2777 -0.5467
 7223SOL     OW22567   5.559   3.461   3.131 -0.0613  0.0998 -0.5417
 7223SOL    HW122568   5.604   3.519   3.200 -1.4237  1.2120 -0.5399
 7223SOL    HW222569   5.502   3.393   3.178  3.0066 -2.6343 -0.4748
 7224SOL     OW22570   0.961   5.595   0.188 -0.3691  0.3172  0.2666
 7224SOL    HW122571   0.931   5.522   0.250  0.6019 -0.9817 -0.7408
 7224SOL    HW222572   1.056   5.580   0.162 -0.5423  1.2210 -0.9774
 7225SOL     OW22573   6.870   5.020   0.229 -0.3810 -0.0362 -0.2068
 7225SOL    HW122574   6.836   5.111   0.206 -0.4726 -0.2363 -0.8764
 7225SOL    HW222575   6.891   4.969   0.145 -1.1141 -0.9295  0.1275
 7226SOL     OW22576   1.399   5.811   1.499  0.3683 -0.4447  0.3703
 7226SOL    HW122577   1.434   5.755   1.423 -0.5591 -2.1708  1.1372
 7226SOL    HW222578   1.308   5.777   1.525  0.2193  0.8013  1.5524
 7227SOL     OW22579   4.253   4.485   5.365 -0.1837  0.2400 -0.5441
 7227SOL    HW122580   4.328   4.500   5.430 -0.3777 -0.9921 -0.0011
 7227SOL    HW222581   4.290   4.454   5.278 -0.0748 -1.2402 -0.0028
 7228SOL     OW22582   0.060   0.618   0.715  0.4202  0.0071  0.1106
 7228SOL    HW122583   0.032   0.612   0.619 -1.7831 -3.3667  0.7842
 7228SOL    HW222584   0.156   0.648   0.719  0.4565  0.7432 -3.0695
 7229SOL     OW22585   2.867   3.208   0.671 -0.4552  0.1891  0.8301
 7229SOL    HW122586   2.892   3.136   0.606 -0.1085 -0.5519  1.7580
 7229SOL    HW222587   2.781   3.184   0.716 -1.2218  1.1915 -0.0658
 7230SOL     OW22588   2.547   2.517   5.126  0.1393  0.0418  0.4112
 7230SOL    HW122589   2.591   2.581   5.189 -0.5229  0.6733  0.2581
 7230SOL    HW222590   2.475   2.566   5.075  0.9031 -0.3519 -1.0940
 7231SOL     OW22591   3.272   2.878   3.550  0.2334 -0.7820  0.0605
 7231SOL    HW122592   3.280   2.855   3.453  2.6220  0.7154 -0.1796
 7231SOL    HW222593   3.203   2.950   3.561 -0.3205 -1.2225 -0.4705
 7232SOL     OW22594   4.810   3.663   0.554 -0.1526  0.2534  0.1696
 7232SOL    HW122595   4.748   3.741   0.558  0.5653  0.8678 -0.4789
 7232SOL    HW222596   4.850   3.647   0.645 -0.8716  0.1583  0.4747
 7233SOL     OW22597   0.682   2.951   1.481  0.0189  0.2432 -0.6871
 7233SOL    HW122598   0.624   3.016   1.530  0.3893  0.9894 -1.2126
 7233SOL    HW222599   0.778   2.975   1.497  0.1781 -0.6032 -0.3293
 7234SOL     OW22600   1.762   4.036   0.538 -0.3154  0.4618  0.1860
 7234SOL    HW122601   1.775   4.020   0.441 -0.3154  0.3748  0.1999
 7234SOL    HW222602   1.769   4.134   0.558  0.7270  0.3937  0.2472
 7235SOL     OW22603   2.072   4.887   2.700 -0.2043  0.2417 -0.1214
 7235SOL    HW122604   2.091   4.916   2.606  0.5823 -0.2489 -0.1231
 7235SOL    HW222605   2.158   4.866   2.746 -0.7086 -2.5540 -0.2780
 7236SOL     OW22606   4.084   1.680   4.195  0.6144  0.1859  0.4794
 7236SOL    HW122607   4.099   1.761   4.252  2.4647 -0.5550  1.1303
 7236SOL    HW222608   4.161   1.669   4.132  0.9838 -1.6508  1.1781
 7237SOL     OW22609   5.968   3.400   2.289 -0.4379  0.6093  0.0682
 7237SOL    HW122610   5.882   3.451   2.297 -0.6182  0.3479 -0.1955
 7237SOL    HW222611   5.958   3.310   2.331 -0.9797 -0.2670 -1.8234
 7238SOL     OW22612   6.560   0.246   3.548 -0.1380 -0.0699  0.0941
 7238SOL    HW122613   6.559   0.300   3.632 -0.4853 -0.4620  0.3458
 7238SOL    HW222614   6.650   0.252   3.505 -0.3759  1.2822 -0.2578
 7239SOL     OW22615   4.131   3.748   1.877  0.4301 -0.5644  0.7052
 7239SOL    HW122616   4.175   3.828   1.836  1.1452 -0.4435  1.6707
 7239SOL    HW222617   4.082   3.777   1.960  2.3186 -1.3809  2.1907
 7240SOL     OW22618   0.808   3.392   5.359 -0.1992  0.3858 -0.0945
 7240SOL    HW122619   0.835   3.488   5.350 -0.6312  0.4144 -1.3501
 7240SOL    HW222620   0.758   3.379   5.444  0.3422  1.1585  0.3532
 7241SOL     OW22621   4.320   3.699   5.638  0.2573  0.0139 -0.1160
 7241SOL    HW122622   4.299   3.727   5.732 -1.3167 -0.2532 -0.3670
 7241SOL    HW222623   4.247   3.640   5.604 -1.2426  3.0954 -2.8165
 7242SOL     OW22624   6.219   6.592   6.358 -0.4547  0.4016  0.0358
 7242SOL    HW122625   6.155   6.541   6.416  0.0774  0.6203  0.8309
 7242SOL    HW222626   6.285   6.640   6.416  1.6820 -1.3912 -0.8031
 7243SOL     OW22627   5.612   2.557   4.281 -0.2575  0.0345 -0.3011
 7243SOL    HW122628   5.603   2.529   4.185 -0.3873  1.5554 -0.7700
 7243SOL    HW222629   5.533   2.524   4.333  0.1701 -1.4240 -0.5393
 7244SOL     OW22630   2.186   1.889   0.027  0.1408 -0.1913  0.2693
 7244SOL    HW122631   2.186   1.824  -0.050 -0.5937  0.2035 -0.0773
 7244SOL    HW222632   2.091   1.904   0.056 -0.0039  2.6658 -1.3376
 7245SOL     OW22633   1.880   1.324   6.450  0.4654 -0.0136 -0.3578
 7245SOL    HW122634   1.942   1.260   6.404  0.2291  0.5543 -1.4824
 7245SOL    HW222635   1.854   1.397   6.387  0.9337  1.3618  0.9849
 7246SOL     OW22636   3.046   1.634   1.265 -0.1561 -0.5162 -0.0216
 7246SOL    HW122637   2.996   1.720   1.256 -0.7255 -0.7999  0.3284
 7246SOL    HW222638   2.984   1.558   1.244 -0.2646 -0.9506  1.6677
 7247SOL     OW22639   5.271   3.449   1.269 -0.1977  0.5357 -0.3492
 7247SOL    HW122640   5.293   3.541   1.236  0.8201  0.6197  0.5169
 7247SOL    HW222641   5.179   3.423   1.237 -0.8414  2.1691  0.0708
 7248SOL     OW22642   1.044   6.845   5.278 -0.2686  0.7169  0.0360
 7248SOL    HW122643   1.096   6.862   5.362  2.7671 -0.4333 -1.4512
 7248SOL    HW222644   1.107   6.818   5.205 -3.0661 -1.0352 -1.9120
 7249SOL     OW22645   2.889   1.454   1.165 -0.1071 -0.3531  0.1543
 7249SOL    HW122646   2.835   1.404   1.232  0.6935 -2.7134 -0.8477
 7249SOL    HW222647   2.829   1.493   1.096 -0.7668  0.2377  1.0381
 7250SOL     OW22648   3.332   0.463   3.022  0.0864 -0.3659  0.1138
 7250SOL    HW122649   3.407   0.477   3.087 -0.5462  1.4640  0.5233
 7250SOL    HW222650   3.271   0.392   3.056  1.9044 -2.3733 -0.5389
 7251SOL     OW22651   0.663   6.886   3.759  0.8513 -0.0637  0.1362
 7251SOL    HW122652   0.716   6.911   3.678  0.8510  0.0373  0.1666
 7251SOL    HW222653   0.687   6.947   3.834 -2.1398  2.6908 -0.9053
 7252SOL     OW22654   3.800   4.100   4.880  0.0050  0.1572  0.0595
 7252SOL    HW122655   3.895   4.085   4.856 -0.0314  0.7494 -0.4858
 7252SOL    HW222656   3.794   4.173   4.948 -0.1025  0.6414 -0.4610
 7253SOL     OW22657   6.874   1.999   6.976  0.5629  1.0741 -0.2755
 7253SOL    HW122658   6.845   2.089   7.008 -1.5679  0.3527 -0.0364
 7253SOL    HW222659   6.870   1.934   7.052  0.2601  0.3866 -0.8733
 7254SOL     OW22660   5.415   6.156   4.766  0.2761 -0.5987 -0.2918
 7254SOL    HW122661   5.478   6.085   4.799 -1.1669 -2.3050 -1.0158
 7254SOL    HW222662   5.321   6.130   4.789 -0.3582  0.7260 -1.2640
 7255SOL     OW22663   6.805   3.719   3.447  0.1628  0.3256 -0.7367
 7255SOL    HW122664   6.887   3.742   3.394  1.3229  0.5610  1.0829
 7255SOL    HW222665   6.728   3.706   3.384  1.1012  2.1057 -2.3798
 7256SOL     OW22666   2.878   3.930   0.005  0.0421 -0.5040 -0.3124
 7256SOL    HW122667   2.933   4.013   0.014 -1.7928  0.7343  0.1182
 7256SOL    HW222668   2.897   3.869   0.082 -0.3916  0.6866  0.7962
 7257SOL     OW22669   1.795   6.404   0.745 -0.1797 -0.5125  0.1566
 7257SOL    HW122670   1.827   6.309   0.749 -0.4875 -0.6404 -0.3001
 7257SOL    HW222671   1.695   6.405   0.756 -0.1251 -0.1972  0.6525
 7258SOL     OW22672   0.773   0.202   5.625 -0.1356 -0.3083  0.1308
 7258SOL    HW122673   0.726   0.166   5.706 -0.6632 -0.8401 -0.4034
 7258SOL    HW222674   0.870   0.179   5.630 -0.4184 -1.5844 -0.0690
 7259SOL     OW22675   0.459   5.914   3.192 -0.0193 -0.2666  0.0163
 7259SOL    HW122676   0.460   5.923   3.292 -1.7086  2.2443 -0.1048
 7259SOL    HW222677   0.376   5.868   3.163 -0.0592 -0.0165 -0.2772
 7260SOL     OW22678   3.776   5.521   2.186 -0.7245  0.6917 -0.8868
 7260SOL    HW122679   3.774   5.457   2.263 -0.1398  1.6767 -0.0171
 7260SOL    HW222680   3.864   5.513   2.139 -0.1954  1.6120 -0.0873
 7261SOL     OW22681   3.320   0.877   3.121  0.0036  0.0168  0.3281
 7261SOL    HW122682   3.412   0.911   3.144 -0.0629 -0.2275  0.9687
 7261SOL    HW222683   3.254   0.951   3.132 -0.0747 -0.1736  1.2812
 7262SOL     OW22684   0.531   3.644   4.255 -0.0271  0.2189  0.6564
 7262SOL    HW122685   0.623   3.683   4.258 -1.3157  3.7399 -0.5892
 7262SOL    HW222686   0.522   3.587   4.173  0.6098  1.1832 -0.1043
 7263SOL     OW22687   3.891   1.939   3.328 -0.3068 -0.1505 -0.6248
 7263SOL    HW122688   3.896   1.965   3.425 -0.4311  0.0078 -0.6603
 7263SOL    HW222689   3.836   1.856   3.318 -1.1130  0.3757 -0.6578
 7264SOL     OW22690   3.739   1.514   5.549  0.1265 -0.1688 -0.4250
 7264SOL    HW122691   3.786   1.592   5.509  1.1887 -1.4338 -1.7409
 7264SOL    HW222692   3.675   1.546   5.619 -0.2292  1.9517 -1.6305
 7265SOL     OW22693   4.725   6.169   3.843  0.3433 -0.2362 -0.1149
 7265SOL    HW122694   4.735   6.255   3.794 -1.4063  0.1631  0.1723
 7265SOL    HW222695   4.710   6.095   3.777 -1.0974  0.1568 -0.2515
 7266SOL     OW22696   3.936   2.630   5.573  0.2685  0.1799 -0.1937
 7266SOL    HW122697   4.013   2.644   5.511  0.8227  0.9500  0.6404
 7266SOL    HW222698   3.894   2.719   5.595 -0.0899 -0.1087  0.3157
 7267SOL     OW22699   5.582   1.493   0.516 -0.0169  0.0711 -0.1673
 7267SOL    HW122700   5.634   1.570   0.482  0.3036  0.5241  1.2600
 7267SOL    HW222701   5.623   1.460   0.601 -1.2521 -0.4444  0.2591
 7268SOL     OW22702   4.743   0.484   5.150 -0.9529  0.3774 -0.3336
 7268SOL    HW122703   4.702   0.575   5.141 -1.0879  0.3660  0.1401
 7268SOL    HW222704   4.682   0.416   5.110 -0.0474  0.6783 -2.3232
 7269SOL     OW22705   5.761   4.353   5.533 -0.2374 -0.5007  0.0589
 7269SOL    HW122706   5.818   4.332   5.613  1.1861  2.1212 -0.1760
 7269SOL    HW222707   5.818   4.359   5.452 -1.0532  0.7105 -0.4550
 7270SOL     OW22708   1.085   4.104   2.662 -0.0404 -0.0119  0.4341
 7270SOL    HW122709   1.178   4.104   2.700  0.1020 -0.0917  0.0947
 7270SOL    HW222710   1.022   4.064   2.728  0.4346 -1.4445  0.0490
 7271SOL     OW22711   5.675   5.050   1.710  0.0237  0.6808  0.2202
 7271SOL    HW122712   5.678   5.011   1.802  0.8403 -0.1189 -0.1237
 7271SOL    HW222713   5.605   5.121   1.706 -0.0749  0.6774  1.4332
 7272SOL     OW22714   6.370   3.398   3.643  0.3152 -0.1714 -0.1526
 7272SOL    HW122715   6.441   3.460   3.610 -1.9894  1.3382 -2.6996
 7272SOL    HW222716   6.413   3.315   3.679  3.3849  1.5797  0.6038
 7273SOL     OW22717   1.473   6.339   3.685  0.4205  0.0617  0.8788
 7273SOL    HW122718   1.426   6.253   3.666 -1.9088  1.3780  0.2190
 7273SOL    HW222719   1.447   6.407   3.617  3.0461  1.0451  0.7412
 7274SOL     OW22720   1.241   4.100   2.054 -0.4716  0.2538 -0.3651
 7274SOL    HW122721   1.272   4.007   2.035  1.8627  0.6714  0.9363
 7274SOL    HW222722   1.178   4.100   2.132 -0.4741 -0.2325 -0.3665
 7275SOL     OW22723   2.620   3.114   0.797  0.2719 -0.0050  0.4017
 7275SOL    HW122724   2.564   3.163   0.864  1.9174 -0.9788  2.6284
 7275SOL    HW222725   2.627   3.018   0.824 -0.6484 -0.9535 -2.3605
 7276SOL     OW22726   1.967   1.655   4.262  0.3621 -0.0355 -0.4919
 7276SOL    HW122727   1.944   1.709   4.343 -2.3773  0.2252 -1.3227
 7276SOL    HW222728   2.037   1.702   4.209  1.8137  0.0504  1.4122
 7277SOL     OW22729   0.117   0.840   4.692 -0.2435 -0.3336  0.4058
 7277SOL    HW122730   0.108   0.767   4.760  1.1289 -0.8611  0.0559
 7277SOL    HW222731   0.090   0.927   4.733  0.4347 -0.6633  1.6139
 7278SOL     OW22732   3.913   1.481   4.312  0.2841  0.0449  0.8986
 7278SOL    HW122733   3.830   1.526   4.345  1.9848  3.4015  1.0003
 7278SOL    HW222734   3.966   1.545   4.257  1.8130 -2.6740 -1.0273
 7279SOL     OW22735   5.154   6.905   6.858  0.0294  0.0523  0.0304
 7279SOL    HW122736   5.121   6.814   6.882 -0.3633 -0.1791 -1.3233
 7279SOL    HW222737   5.248   6.916   6.892  0.7478 -1.5379 -1.3204
 7280SOL     OW22738   0.419   1.009   4.857 -0.4793  0.1261  0.1852
 7280SOL    HW122739   0.377   0.934   4.907 -0.4010  0.8117  1.3280
 7280SOL    HW222740   0.463   0.974   4.774 -1.6039 -0.8740 -0.0166
 7281SOL     OW22741   0.668   5.208   0.358 -0.4891 -0.0949  0.0468
 7281SOL    HW122742   0.623   5.241   0.441  1.8327  2.5745  0.4172
 7281SOL    HW222743   0.721   5.126   0.378 -1.5254 -0.6147  0.6964
 7282SOL     OW22744   4.382   4.755   2.667 -0.6271 -0.2605  0.5381
 7282SOL    HW122745   4.464   4.698   2.662 -0.9116 -0.6810  0.6667
 7282SOL    HW222746   4.337   4.741   2.755 -0.1264  0.9601  1.0191
 7283SOL     OW22747   1.322   1.150   2.354 -0.2558  0.2871  0.6724
 7283SOL    HW122748   1.413   1.108   2.346 -0.9231 -1.1620  0.3936
 7283SOL    HW222749   1.303   1.203   2.272 -0.2910 -0.7112  0.0246
 7284SOL     OW22750   2.621   6.025   1.404  0.2465  0.0456 -0.3308
 7284SOL    HW122751   2.579   5.970   1.476  1.0874  2.1589  1.9368
 7284SOL    HW222752   2.560   6.101   1.381  0.8754  0.5808 -0.2766
 7285SOL     OW22753   2.136   4.609   0.378  0.0093  0.3376  0.6344
 7285SOL    HW122754   2.217   4.554   0.357 -0.3572  0.6336 -1.9188
 7285SOL    HW222755   2.164   4.703   0.399  0.4469 -0.0947  2.0623
 7286SOL     OW22756   5.922   2.925   5.974 -0.2936  0.7433 -0.3523
 7286SOL    HW122757   5.973   2.841   5.956 -1.0424 -0.0761  1.1364
 7286SOL    HW222758   5.983   3.004   5.970  0.8552 -0.0893  0.2512
 7287SOL     OW22759   3.288   0.044   5.201  0.0670 -0.3824 -0.6243
 7287SOL    HW122760   3.209   0.024   5.143 -0.2276 -0.1696 -0.3038
 7287SOL    HW222761   3.319  -0.040   5.246 -0.7720 -0.2540  0.2319
 7288SOL     OW22762   0.218   5.846   1.895  0.4501 -0.1419 -0.3145
 7288SOL    HW122763   0.268   5.765   1.865 -1.3302 -1.5569  0.3678
 7288SOL    HW222764   0.185   5.896   1.815 -1.4445 -2.0757 -0.8327
 7289SOL     OW22765   1.448   3.218   0.318 -0.6634  0.2683 -0.5179
 7289SOL    HW122766   1.547   3.231   0.323 -0.9870  3.8452 -1.1259
 7289SOL    HW222767   1.426   3.157   0.241  0.9956  0.0656 -0.8575
 7290SOL     OW22768   1.388   0.691   5.237 -0.6447  0.1402 -0.7235
 7290SOL    HW122769   1.355   0.714   5.146 -0.2566 -1.6728 -1.3664
 7290SOL    HW222770   1.477   0.647   5.230  1.2513  3.4045  0.8482
 7291SOL     OW22771   6.103   0.015   0.574 -0.1640 -0.4639  0.5383
 7291SOL    HW122772   6.202   0.028   0.565 -0.0020 -0.9382  1.4807
 7291SOL    HW222773   6.073  -0.055   0.509 -0.5605  2.2678 -2.4506
 7292SOL     OW22774   4.676   4.446   4.761  0.6255  0.1999 -0.0231
 7292SOL    HW122775   4.722   4.512   4.820  0.2083  3.1085 -2.6985
 7292SOL    HW222776   4.580   4.471   4.752  0.3686 -1.0053 -0.8215
 7293SOL     OW22777   3.288   1.067   6.551 -0.2660 -0.4954 -0.1982
 7293SOL    HW122778   3.321   1.050   6.459 -0.5274 -0.2177 -0.3440
 7293SOL    HW222779   3.296   0.983   6.606 -0.8934 -0.8906 -0.7063
 7294SOL     OW22780   1.799   3.932   2.747 -0.5301  0.1940  0.0505
 7294SOL    HW122781   1.727   3.863   2.747 -0.6594  0.2896  1.5760
 7294SOL    HW222782   1.888   3.888   2.738 -0.5623 -0.2640  1.7160
 7295SOL     OW22783   2.642   4.512   1.693 -0.7731 -0.0631 -0.4728
 7295SOL    HW122784   2.613   4.601   1.728  0.5622  0.0129  0.5157
 7295SOL    HW222785   2.738   4.497   1.716 -1.2251 -2.1706  0.2570
 7296SOL     OW22786   1.155   2.886   6.534  0.4233 -0.1771  0.1971
 7296SOL    HW122787   1.123   2.872   6.440 -1.2826  0.7004  0.6112
 7296SOL    HW222788   1.237   2.943   6.533 -0.3017  0.8890 -0.7165
 7297SOL     OW22789   2.313   6.414   1.222  0.0050  0.2982  0.4218
 7297SOL    HW122790   2.224   6.457   1.232  0.4550  1.4505 -0.3292
 7297SOL    HW222791   2.323   6.381   1.128 -0.0966 -0.9373  0.8265
 7298SOL     OW22792   0.336   2.749   0.044 -0.4334  0.1655  0.1503
 7298SOL    HW122793   0.279   2.679  -0.001  0.4465  0.2768 -1.1909
 7298SOL    HW222794   0.405   2.782  -0.021 -0.6426  2.0819  0.8477
 7299SOL     OW22795   3.035   6.125   3.693  0.1588 -0.5551  0.3279
 7299SOL    HW122796   3.069   6.050   3.637  1.1942 -0.0206  0.2186
 7299SOL    HW222797   3.082   6.125   3.782  0.0517 -0.1361  0.3875
 7300SOL     OW22798   3.653   3.672   3.809 -0.0513  0.1158 -0.3330
 7300SOL    HW122799   3.561   3.707   3.830 -1.4386 -2.5363 -1.4738
 7300SOL    HW222800   3.721   3.738   3.840 -2.2818  1.7903  1.4091
 7301SOL     OW22801   3.641   6.694   2.425  0.2431  0.4225  0.7175
 7301SOL    HW122802   3.559   6.717   2.477 -1.6989 -1.0234 -1.5073
 7301SOL    HW222803   3.699   6.633   2.480 -0.2668  1.2658  2.2440
 7302SOL     OW22804   5.354   6.742   1.081 -0.0238  0.1476  0.1821
 7302SOL    HW122805   5.282   6.674   1.096 -0.5107  0.4214 -0.7982
 7302SOL    HW222806   5.430   6.725   1.143  0.0462 -1.5545 -0.3285
 7303SOL     OW22807   0.136   4.678   3.769  0.1091  0.0636 -0.0988
 7303SOL    HW122808   0.059   4.656   3.709 -0.5478 -0.8852  1.0316
 7303SOL    HW222809   0.145   4.777   3.777 -2.4966  0.2633  1.5256
 7304SOL     OW22810   0.287   4.379   4.644 -0.5541  0.2246  0.3591
 7304SOL    HW122811   0.271   4.342   4.553  0.8318 -1.8207  0.8735
 7304SOL    HW222812   0.203   4.421   4.678 -1.9208 -1.4391 -0.7896
 7305SOL     OW22813   1.131   2.523   0.741 -0.4349  0.8240  0.3524
 7305SOL    HW122814   1.226   2.498   0.758 -1.2262 -0.5243  3.6835
 7305SOL    HW222815   1.091   2.461   0.674  1.1056  1.8016 -1.5691
 7306SOL     OW22816   0.976   6.433   4.791 -0.3943  0.3646  0.1346
 7306SOL    HW122817   1.019   6.461   4.705  0.1024 -2.7602 -0.7592
 7306SOL    HW222818   0.891   6.485   4.804  1.3306  3.5651 -0.2459
 7307SOL     OW22819   3.770   6.003   1.172 -0.3953 -0.8918  0.7530
 7307SOL    HW122820   3.867   6.017   1.191 -0.6966  0.6373  1.2839
 7307SOL    HW222821   3.716   6.032   1.251 -1.3438 -0.6336  0.0222
 7308SOL     OW22822   5.279   6.420   3.851  0.1423  0.2575  0.4081
 7308SOL    HW122823   5.200   6.383   3.803  0.3652 -0.5047  0.6083
 7308SOL    HW222824   5.342   6.463   3.786  0.3127 -0.5218  0.0444
 7309SOL     OW22825   0.850   5.827   6.529  0.6139 -0.1081 -0.0688
 7309SOL    HW122826   0.862   5.728   6.533 -0.2242 -0.4559 -3.2881
 7309SOL    HW222827   0.759   5.851   6.564  0.3182 -0.6373 -0.4709
 7310SOL     OW22828   6.496   1.120   3.448  0.3787  0.7844 -0.0819
 7310SOL    HW122829   6.590   1.149   3.465  1.5660 -2.4418 -0.4793
 7310SOL    HW222830   6.435   1.163   3.515  2.4135  1.4856  1.4070
 7311SOL     OW22831   6.749   0.102   6.315  0.0174  0.1433 -0.0361
 7311SOL    HW122832   6.769   0.011   6.278  0.8317  0.6915 -0.9833
 7311SOL    HW222833   6.813   0.169   6.277  0.1237  0.9481  1.4625
 7312SOL     OW22834   0.763   2.168   3.032  0.0954 -0.3435  0.1504
 7312SOL    HW122835   0.690   2.123   2.980  1.0905 -0.4053 -1.2843
 7312SOL    HW222836   0.835   2.101   3.052 -0.5692 -0.4904  2.2888
 7313SOL     OW22837   4.456   5.075   2.949 -0.0794  0.6320  0.1766
 7313SOL    HW122838   4.436   5.083   3.046 -0.0094  1.7728  0.1095
 7313SOL    HW222839   4.465   5.167   2.909  2.4447  0.2300 -0.3760
 7314SOL     OW22840   5.729   2.998   4.475  0.2400 -0.8266  0.1987
 7314SOL    HW122841   5.786   2.932   4.426  1.5786  1.2125 -1.2016
 7314SOL    HW222842   5.637   2.998   4.437  1.1588  0.4711 -2.2701
 7315SOL     OW22843   2.897   4.810   4.781  0.2993  0.1001 -0.0641
 7315SOL    HW122844   2.832   4.885   4.792  0.6650  0.3988  0.1054
 7315SOL    HW222845   2.887   4.745   4.856  0.2748  0.2069  0.0260
 7316SOL     OW22846   3.688   4.433   6.623  0.5539  0.3669  0.1441
 7316SOL    HW122847   3.637   4.356   6.661 -0.7579  0.3648 -1.4923
 7316SOL    HW222848   3.673   4.437   6.524  1.2042  2.2919  0.0809
 7317SOL     OW22849   0.642   1.447   4.477  0.2071  0.2272  0.1708
 7317SOL    HW122850   0.625   1.440   4.575  0.3837  1.7329  0.3329
 7317SOL    HW222851   0.555   1.450   4.428  0.1121 -0.1219  0.3173
 7318SOL     OW22852   3.255   6.828   1.227 -0.5944  0.0217  0.2045
 7318SOL    HW122853   3.287   6.902   1.286  0.6037 -1.0099  0.8936
 7318SOL    HW222854   3.202   6.763   1.280 -0.2714 -0.4488 -0.0447
 7319SOL     OW22855   1.990   6.898   4.086 -0.0487  0.5016 -0.6143
 7319SOL    HW122856   1.972   6.994   4.067 -1.7102  0.5411  0.9591
 7319SOL    HW222857   2.080   6.889   4.128 -0.7167  1.6703  1.1858
 7320SOL     OW22858   1.685   5.422   4.363 -0.0142 -0.2496  0.0494
 7320SOL    HW122859   1.589   5.449   4.348  0.2129 -0.5135 -2.2791
 7320SOL    HW222860   1.688   5.344   4.425 -1.5068 -1.3365 -1.1466
 7321SOL     OW22861   0.302   4.504   6.572 -0.0934  0.5317  0.1844
 7321SOL    HW122862   0.218   4.555   6.554 -0.1030  0.0567 -1.2267
 7321SOL    HW222863   0.369   4.525   6.501  0.6880  0.2615  0.8295
 7322SOL     OW22864   0.898   3.661   1.059  0.1548 -0.3772  0.1081
 7322SOL    HW122865   0.994   3.685   1.043  0.5517 -1.0110  1.3440
 7322SOL    HW222866   0.845   3.675   0.976  0.4052  4.0964  0.4589
 7323SOL     OW22867   6.429   4.552   5.200  0.3754  0.2196  0.4844
 7323SOL    HW122868   6.383   4.636   5.230  0.1112 -0.3163  1.6221
 7323SOL    HW222869   6.487   4.518   5.273 -0.4603 -1.2457  0.5085
 7324SOL     OW22870   5.274   4.681   4.262  0.0114  0.2336  0.3213
 7324SOL    HW122871   5.289   4.780   4.268 -1.8709  0.5033  1.1324
 7324SOL    HW222872   5.217   4.651   4.338 -1.2812 -1.1062 -1.1173
 7325SOL     OW22873   3.076   6.930   5.429  0.3505  0.2541 -0.0181
 7325SOL    HW122874   3.152   6.991   5.405 -1.1673  2.0489 -0.5777
 7325SOL    HW222875   2.992   6.966   5.388 -0.6226 -2.3378 -0.4698
 7326SOL     OW22876   6.628   0.065   6.038 -0.0471  0.0780  0.2810
 7326SOL    HW122877   6.617  -0.016   6.095 -0.3713 -0.3680 -0.4128
 7326SOL    HW222878   6.699   0.050   5.970 -1.0852 -0.1730 -0.7872
 7327SOL     OW22879   4.623   2.853   1.712 -0.1317  0.2630 -0.2738
 7327SOL    HW122880   4.665   2.915   1.778 -1.1333  1.8579 -1.0581
 7327SOL    HW222881   4.635   2.758   1.742 -1.4369  0.9297  2.7495
 7328SOL     OW22882   1.242   2.690   5.386  0.9354 -0.0227  1.0460
 7328SOL    HW122883   1.144   2.669   5.380  1.0571 -0.2722 -0.4009
 7328SOL    HW222884   1.288   2.621   5.442  0.6076 -1.1495 -0.0224
 7329SOL     OW22885   0.347   6.573   1.624  0.2160 -0.1837  0.0857
 7329SOL    HW122886   0.292   6.527   1.693 -1.7847 -0.0041 -1.3233
 7329SOL    HW222887   0.435   6.600   1.664  0.0123 -2.0145  1.9159
 7330SOL     OW22888   0.574   0.900   4.570 -0.3008  0.6704  0.2271
 7330SOL    HW122889   0.511   0.828   4.596 -0.2356 -0.3269 -2.1186
 7330SOL    HW222890   0.525   0.974   4.524  0.1520 -0.1896 -1.7671
 7331SOL     OW22891   2.594   1.517   6.138  0.6810 -0.4256  0.1698
 7331SOL    HW122892   2.577   1.615   6.130  0.0992 -0.5890 -0.8375
 7331SOL    HW222893   2.578   1.488   6.233  0.8968  0.4513  0.4856
 7332SOL     OW22894   4.498   5.455   3.459  0.2207 -0.5572  0.1260
 7332SOL    HW122895   4.510   5.413   3.549 -0.0782 -1.1211 -0.0904
 7332SOL    HW222896   4.422   5.520   3.463 -0.8635 -1.7576 -0.0945
 7333SOL     OW22897   0.025   2.896   2.210 -0.3079 -0.1262  0.0526
 7333SOL    HW122898   0.014   2.798   2.227  0.2973 -0.3758 -0.9016
 7333SOL    HW222899   0.029   2.912   2.111 -1.3972  0.9778  0.1558
 7334SOL     OW22900   5.014   1.196   3.840 -0.3309 -0.3305 -0.6031
 7334SOL    HW122901   5.103   1.214   3.883 -1.2393  0.4980  1.0127
 7334SOL    HW222902   4.989   1.275   3.784 -1.2151  0.6127  1.0555
 7335SOL     OW22903   1.902   2.047   3.227 -0.3078  0.2976  0.0620
 7335SOL    HW122904   1.998   2.049   3.256 -0.0354 -2.3459 -0.4144
 7335SOL    HW222905   1.887   2.116   3.157  1.4591  0.2920 -0.3831
 7336SOL     OW22906   2.410   1.673   2.671  0.4786  0.3905  0.1999
 7336SOL    HW122907   2.442   1.702   2.762  1.7142 -0.9390  0.2239
 7336SOL    HW222908   2.350   1.594   2.681  0.5599  0.2869 -0.1366
 7337SOL     OW22909   1.007   5.687   0.897 -0.1855 -0.5488 -0.8484
 7337SOL    HW122910   1.103   5.715   0.890 -0.4094 -0.0154 -2.0206
 7337SOL    HW222911   0.982   5.633   0.817 -1.0699  0.0183 -0.9720
 7338SOL     OW22912   6.260   5.380   0.979 -0.4201  0.2647 -0.4119
 7338SOL    HW122913   6.181   5.442   0.982 -0.1444  0.6135 -0.1801
 7338SOL    HW222914   6.228   5.286   0.966 -1.0231  0.1101  1.8258
 7339SOL     OW22915   5.728   5.020   5.921  1.0653 -0.4052  0.0248
 7339SOL    HW122916   5.751   4.966   5.840 -1.7950 -2.1094  0.2144
 7339SOL    HW222917   5.644   5.072   5.904  0.5493 -0.5866  1.7727
 7340SOL     OW22918   5.717   5.650   5.565 -0.1057 -0.1085  0.1095
 7340SOL    HW122919   5.792   5.710   5.538 -0.3090  0.1108  0.0274
 7340SOL    HW222920   5.727   5.561   5.521 -1.5678  0.8969 -2.4274
 7341SOL     OW22921   1.354   2.146   0.352  0.1104  0.2614 -0.6574
 7341SOL    HW122922   1.342   2.089   0.434 -1.3020  0.2580 -0.8489
 7341SOL    HW222923   1.345   2.242   0.377 -2.1106  0.2062 -1.0490
 7342SOL     OW22924   4.688   3.089   6.081 -0.6405 -0.2232 -0.3115
 7342SOL    HW122925   4.713   3.180   6.049  0.0178 -0.2204  0.2103
 7342SOL    HW222926   4.756   3.022   6.050  0.0393 -0.2155  1.0904
 7343SOL     OW22927   6.955   3.455   3.980 -0.4041 -0.6043  0.5114
 7343SOL    HW122928   6.873   3.401   3.959 -0.2461 -0.6635  0.0429
 7343SOL    HW222929   6.944   3.547   3.943 -0.5819 -0.3676  1.1226
 7344SOL     OW22930   0.264   3.337   5.519 -0.4709 -0.7105 -0.0026
 7344SOL    HW122931   0.235   3.425   5.480  0.0410 -0.6601 -0.2763
 7344SOL    HW222932   0.361   3.323   5.500 -0.6593 -1.5547 -0.3898
 7345SOL     OW22933   2.035   3.198   6.010 -0.4187  0.0353  0.0676
 7345SOL    HW122934   1.973   3.120   6.012  0.8641 -1.1339 -2.0808
 7345SOL    HW222935   2.080   3.207   6.099 -1.1415 -1.1981  0.5847
 7346SOL     OW22936   1.967   5.858   0.733  0.3225 -0.4373 -0.3101
 7346SOL    HW122937   2.043   5.819   0.681  0.3472 -0.9759  0.1197
 7346SOL    HW222938   1.974   5.831   0.828  0.0867  0.2642 -0.0851
 7347SOL     OW22939   1.821   1.396   2.954 -0.3648  0.0711  0.0134
 7347SOL    HW122940   1.806   1.384   2.856 -0.8890 -1.1400  0.2265
 7347SOL    HW222941   1.748   1.450   2.994 -0.6800 -0.2668 -0.1018
 7348SOL     OW22942   0.088   5.410   1.288 -0.1402 -0.0193 -0.0312
 7348SOL    HW122943   0.139   5.397   1.202 -0.7728 -0.1758 -0.3915
 7348SOL    HW222944   0.149   5.395   1.365  0.8134  1.5282 -0.4326
 7349SOL     OW22945   3.535   6.074   6.827  0.5679  0.7150  0.4532
 7349SOL    HW122946   3.540   6.173   6.812 -0.0650  0.4696 -1.6953
 7349SOL    HW222947   3.498   6.056   6.918 -0.0235  2.4710  0.5936
 7350SOL     OW22948   1.764   5.670   5.283 -0.1361  1.0407 -0.0101
 7350SOL    HW122949   1.845   5.729   5.283  0.5767  0.2024 -2.5990
 7350SOL    HW222950   1.718   5.676   5.194 -0.8092 -1.2363  0.1086
 7351SOL     OW22951   0.846   4.724   0.833 -0.0884 -0.1486 -0.8365
 7351SOL    HW122952   0.918   4.712   0.900  1.7850  0.2082 -2.6814
 7351SOL    HW222953   0.875   4.685   0.745 -2.7790 -1.3805 -1.2964
 7352SOL     OW22954   3.709   4.582   5.607  0.3656  0.0618 -0.4315
 7352SOL    HW122955   3.782   4.650   5.594  0.3504  0.0636 -0.5044
 7352SOL    HW222956   3.638   4.596   5.539 -0.4020  0.9856  0.5321
 7353SOL     OW22957   2.791   4.811   0.608  0.0509 -0.3056  0.2155
 7353SOL    HW122958   2.725   4.776   0.541  1.3716 -0.3159 -1.1280
 7353SOL    HW222959   2.827   4.899   0.577  0.8576 -0.4195  0.7934
 7354SOL     OW22960   6.633   1.861   5.508  0.9548  0.2412 -0.2914
 7354SOL    HW122961   6.699   1.867   5.434 -1.0220  0.4849 -2.1349
 7354SOL    HW222962   6.540   1.863   5.470 -0.1372  0.0216  2.1812
 7355SOL     OW22963   6.839   6.242   4.493  0.3536  0.1311  0.5833
 7355SOL    HW122964   6.761   6.298   4.464  0.8164  1.1368  1.2154
 7355SOL    HW222965   6.917   6.263   4.434  0.3845 -0.2408  0.4939
 7356SOL     OW22966   5.724   5.062   0.381  0.1445  0.4898 -0.7335
 7356SOL    HW122967   5.730   5.129   0.455 -1.9997  0.8744 -0.8504
 7356SOL    HW222968   5.782   5.091   0.305  1.8925  0.4135  0.5037
 7357SOL     OW22969   2.086   4.024   3.824 -0.3708 -0.0652 -0.0717
 7357SOL    HW122970   2.160   4.083   3.859  0.1951 -1.3530  0.9795
 7357SOL    HW222971   2.004   4.079   3.811  0.6998  1.3791 -1.1071
 7358SOL     OW22972   4.795   1.458   4.898  0.0759 -0.1480 -0.6143
 7358SOL    HW122973   4.870   1.417   4.847 -0.0886 -0.1405 -0.8679
 7358SOL    HW222974   4.729   1.387   4.924  0.1822 -0.1578 -0.3752
 7359SOL     OW22975   2.478   4.447   3.073  0.1192 -0.2272 -0.4643
 7359SOL    HW122976   2.544   4.434   2.999 -0.7884 -0.4546 -1.2654
 7359SOL    HW222977   2.403   4.382   3.062  0.7240 -1.3386  1.5786
 7360SOL     OW22978   6.182   3.425   0.015  0.2788 -0.0921  0.1555
 7360SOL    HW122979   6.245   3.381  -0.050 -1.5292  0.2175 -1.9270
 7360SOL    HW222980   6.096   3.374   0.017 -0.5729  1.3095  0.4675
 7361SOL     OW22981   4.172   5.264   1.713 -0.0542 -0.4658  0.2037
 7361SOL    HW122982   4.145   5.269   1.809 -1.1768 -0.8755 -0.0844
 7361SOL    HW222983   4.180   5.169   1.685 -0.6738 -0.3512 -0.3690
 7362SOL     OW22984   0.502   4.328   0.227 -0.0024  0.3426 -0.0168
 7362SOL    HW122985   0.422   4.279   0.194  0.0854  0.0911  0.1473
 7362SOL    HW222986   0.487   4.427   0.216 -0.4683  0.3100  0.3233
 7363SOL     OW22987   1.069   4.471   1.050  0.3041  0.0687 -0.1727
 7363SOL    HW122988   1.123   4.488   0.967 -0.9609  2.0942 -0.6706
 7363SOL    HW222989   1.056   4.557   1.099  2.5222 -1.3269  3.2071
 7364SOL     OW22990   2.988   3.383   4.660  0.0957 -0.3885 -0.3188
 7364SOL    HW122991   2.939   3.301   4.688 -1.0341 -0.4094 -2.2213
 7364SOL    HW222992   3.086   3.363   4.654  0.5655 -0.2609  3.8577
 7365SOL     OW22993   6.956   6.983   1.943 -0.4219  0.1965 -0.1363
 7365SOL    HW122994   6.989   6.985   2.038 -0.5224 -0.0425 -0.0969
 7365SOL    HW222995   6.965   7.075   1.903 -0.6480  0.3636  0.1957
 7366SOL     OW22996   2.991   1.533   4.685 -0.1342  0.6607  0.2015
 7366SOL    HW122997   2.923   1.468   4.718  0.2799  0.1908  0.1343
 7366SOL    HW222998   2.946   1.601   4.627 -0.1097 -1.4930 -2.5184
 7367SOL     OW22999   3.196   1.387   4.569  0.2667 -0.0945  0.6549
 7367SOL    HW123000   3.111   1.410   4.616 -0.1399  1.7216 -0.8413
 7367SOL    HW223001   3.270   1.444   4.603 -0.2142  1.8765 -1.3714
 7368SOL     OW23002   3.234   4.152   4.998  0.1585 -0.1684  0.0299
 7368SOL    HW123003   3.314   4.154   5.057 -0.8283 -0.1566  1.4193
 7368SOL    HW223004   3.182   4.237   5.008  0.6187  0.3769 -1.8260
 7369SOL     OW23005   3.903   6.663   1.488  0.4047 -0.1718  0.3139
 7369SOL    HW123006   3.940   6.589   1.544  0.5828 -0.4993 -0.2284
 7369SOL    HW223007   3.832   6.711   1.538  1.3085  0.2373  1.2460
 7370SOL     OW23008   1.607   4.959   0.055 -0.2295 -0.4849  0.8445
 7370SOL    HW123009   1.519   4.916   0.077 -0.8461  0.4284  0.2304
 7370SOL    HW223010   1.653   4.907  -0.017 -1.3139  0.2635 -0.4290
 7371SOL     OW23011   4.045   0.816   0.803  0.4074 -0.6784  0.3779
 7371SOL    HW123012   4.139   0.839   0.826  0.6379  0.2005 -1.2938
 7371SOL    HW223013   3.990   0.900   0.798  0.1802 -0.8993 -1.3036
 7372SOL     OW23014   0.290   4.776   4.689  0.5720  0.3993 -1.0148
 7372SOL    HW123015   0.235   4.743   4.766 -0.1739  1.1888 -1.1830
 7372SOL    HW223016   0.279   4.875   4.681 -0.8268  0.1349 -3.2148
 7373SOL     OW23017   2.155   6.181   2.222 -0.4163 -0.2480 -0.4989
 7373SOL    HW123018   2.100   6.250   2.175 -2.9740 -1.5647  0.3868
 7373SOL    HW223019   2.143   6.191   2.321  2.3920  0.4887 -0.1525
 7374SOL     OW23020   2.009   0.621   4.475 -0.2796 -0.0211 -0.1109
 7374SOL    HW123021   1.928   0.628   4.534  0.4642  0.9166  0.8288
 7374SOL    HW223022   2.042   0.712   4.452  0.4064 -0.3956 -0.6358
 7375SOL     OW23023   4.558   3.235   0.483  0.2587  0.5313 -0.7350
 7375SOL    HW123024   4.607   3.166   0.536 -0.5950  0.6716  0.2733
 7375SOL    HW223025   4.513   3.299   0.545 -1.8701 -0.0529 -1.5786
 7376SOL     OW23026   6.349   2.053   3.539 -0.9938  0.1161 -0.2938
 7376SOL    HW123027   6.414   2.004   3.597 -0.2230  2.7973  1.2887
 7376SOL    HW223028   6.273   2.087   3.594 -1.9158  0.0420 -1.4770
 7377SOL     OW23029   2.156   0.860   2.600 -0.1223  0.3409 -0.1194
 7377SOL    HW123030   2.118   0.940   2.646  0.8398 -0.0963  1.5097
 7377SOL    HW223031   2.178   0.884   2.505 -0.2589  1.8666  0.2077
 7378SOL     OW23032   1.966   4.822   6.566 -0.2017  0.6575 -0.9195
 7378SOL    HW123033   1.949   4.774   6.653 -0.0485  0.7326 -0.8477
 7378SOL    HW223034   2.047   4.784   6.522  0.0068  0.9502 -0.7904
 7379SOL     OW23035   1.665   1.928   7.001 -0.0549  0.3840  0.3809
 7379SOL    HW123036   1.600   1.987   7.049 -0.8862 -0.8738  0.8444
 7379SOL    HW223037   1.668   1.839   7.045  0.6405 -0.1616 -0.7351
 7380SOL     OW23038   4.931   4.743   6.359  0.0028  0.6555  0.6097
 7380SOL    HW123039   4.989   4.692   6.424  0.1341  0.2760  0.1943
 7380SOL    HW223040   4.835   4.722   6.376  0.1200 -1.2817 -0.8188
 7381SOL     OW23041   3.908   4.011   1.790  0.3185 -0.5273 -0.3948
 7381SOL    HW123042   3.995   4.059   1.778 -0.3130  0.3837 -1.5260
 7381SOL    HW223043   3.907   3.928   1.734  0.3366 -0.3631 -0.6384
 7382SOL     OW23044   1.701   4.590   2.225  0.2209  0.1224  0.1614
 7382SOL    HW123045   1.725   4.569   2.319  1.8061  1.3955  0.0815
 7382SOL    HW223046   1.775   4.643   2.182 -0.2926 -0.7425 -1.9154
 7383SOL     OW23047   1.236   1.290   3.188  0.2036  0.6539  0.3868
 7383SOL    HW123048   1.223   1.387   3.203  1.8449  0.9304  0.2734
 7383SOL    HW223049   1.278   1.275   3.098  1.4277 -0.0035  1.0396
 7384SOL     OW23050   1.958   6.977   2.000  0.6741  0.0600 -0.7600
 7384SOL    HW123051   2.032   7.040   1.979  3.0439 -2.6617 -1.1027
 7384SOL    HW223052   1.930   6.930   1.917 -0.2982 -0.1598 -0.3239
 7385SOL     OW23053   2.141   4.584   1.406 -0.1819  0.9212  0.8399
 7385SOL    HW123054   2.059   4.623   1.448 -0.5274  0.2220  0.8400
 7385SOL    HW223055   2.173   4.507   1.461 -0.1336  0.5386  0.2855
 7386SOL     OW23056   6.363   1.049   4.695  0.5049  0.4557 -0.0185
 7386SOL    HW123057   6.290   1.031   4.761 -0.6933  2.2464 -0.7951
 7386SOL    HW223058   6.442   1.089   4.743  0.5366 -0.3416  0.6295
 7387SOL     OW23059   1.387   5.470   3.413 -0.0701 -0.3834 -0.1797
 7387SOL    HW123060   1.407   5.517   3.499 -0.1335 -1.1598  0.2677
 7387SOL    HW223061   1.330   5.528   3.355 -0.5664 -0.1109  0.5731
 7388SOL     OW23062   0.485   2.988   5.763 -0.4076 -0.6818  0.0476
 7388SOL    HW123063   0.488   2.983   5.663 -0.0286  0.2583 -0.0029
 7388SOL    HW223064   0.548   3.059   5.795 -1.6788  0.1455  0.8450
 7389SOL     OW23065   1.822   2.506   5.537  0.0823  0.3376  0.0316
 7389SOL    HW123066   1.820   2.590   5.483  1.8862  0.7162  0.4814
 7389SOL    HW223067   1.742   2.451   5.516 -0.3633  1.4695 -1.4058
 7390SOL     OW23068   5.040   0.809   5.484 -0.4160  0.3839 -0.1705
 7390SOL    HW123069   4.988   0.792   5.568  0.6026  2.3688  0.9204
 7390SOL    HW223070   4.981   0.855   5.417 -1.5506 -2.1572 -1.0395
 7391SOL     OW23071   3.282   3.989   2.030 -0.5508  0.0851  0.6736
 7391SOL    HW123072   3.273   4.001   2.129 -1.2313  1.2551  0.4883
 7391SOL    HW223073   3.247   3.899   2.004 -0.1464 -0.3275  1.5149
 7392SOL     OW23074   1.626   2.169   1.132  0.5343  0.4900 -0.1864
 7392SOL    HW123075   1.561   2.241   1.109 -0.9404 -0.6340  0.2321
 7392SOL    HW223076   1.609   2.139   1.226  3.4536  1.9574  0.9232
 7393SOL     OW23077   6.054   2.120   6.542  0.3491 -0.8461  0.1349
 7393SOL    HW123078   6.088   2.133   6.449  1.3261  0.2758  0.6215
 7393SOL    HW223079   6.017   2.206   6.576  1.0970 -0.9220  1.2002
 7394SOL     OW23080   2.876   1.974   5.172 -0.2043 -0.2916 -0.0965
 7394SOL    HW123081   2.948   2.004   5.235 -4.2839  1.2830  4.3579
 7394SOL    HW223082   2.879   1.874   5.164  0.7003 -0.5389  2.4154
 7395SOL     OW23083   3.897   2.159   5.582 -0.1836 -0.8292 -0.5339
 7395SOL    HW123084   3.822   2.110   5.538 -1.0924 -1.9767  2.1485
 7395SOL    HW223085   3.902   2.252   5.544 -1.6547 -1.3432 -2.1329
 7396SOL     OW23086   2.685   5.526   2.525  0.2820 -0.0968 -0.0196
 7396SOL    HW123087   2.714   5.558   2.435 -2.7580 -0.9765 -1.4280
 7396SOL    HW223088   2.589   5.499   2.522  0.7836 -2.7713  2.8181
 7397SOL     OW23089   3.733   0.524   0.757  0.4397  0.1687  0.0342
 7397SOL    HW123090   3.666   0.458   0.791 -1.0131  0.8337 -1.4720
 7397SOL    HW223091   3.770   0.493   0.670 -1.0525  1.7802 -1.2456
 7398SOL     OW23092   0.872   4.081   0.615  0.0479 -0.0654 -0.7755
 7398SOL    HW123093   0.946   4.140   0.583  0.0833  0.3830  0.0833
 7398SOL    HW223094   0.906   4.023   0.689 -0.3982 -0.0332 -0.5447
 7399SOL     OW23095   2.980   6.045   2.928 -0.0119 -0.0489 -0.0265
 7399SOL    HW123096   3.073   6.072   2.951 -0.9705  2.6335  1.0463
 7399SOL    HW223097   2.926   6.034   3.011 -1.3864  1.4444 -0.6585
 7400SOL     OW23098   4.474   1.749   2.246 -0.2357 -0.3430 -0.1109
 7400SOL    HW123099   4.420   1.704   2.175  0.0901 -1.0392  0.0790
 7400SOL    HW223100   4.474   1.693   2.328  0.1029  0.0525  0.1600
 7401SOL     OW23101   1.755   3.425   4.931 -0.0033 -0.0976  0.3164
 7401SOL    HW123102   1.745   3.473   4.844  1.4991  0.9341  0.6768
 7401SOL    HW223103   1.783   3.330   4.913 -2.2425 -0.6995 -0.3705
 7402SOL     OW23104   6.191   3.379   4.115  0.8953 -0.7485 -0.2015
 7402SOL    HW123105   6.145   3.395   4.027 -1.0162 -0.7480  0.7386
 7402SOL    HW223106   6.144   3.304   4.163 -0.3871  1.5150  2.3246
 7403SOL     OW23107   3.035   5.685   5.072  0.3346 -0.1166 -0.1146
 7403SOL    HW123108   3.121   5.721   5.036  0.5815  0.6657  1.1839
 7403SOL    HW223109   3.010   5.736   5.155  0.3260 -2.4878  1.4341
 7404SOL     OW23110   4.830   3.336   6.542 -0.4569  0.4300  0.1585
 7404SOL    HW123111   4.741   3.298   6.566  0.1888 -0.6816  0.8699
 7404SOL    HW223112   4.829   3.366   6.447 -0.9271 -1.7020 -0.5664
 7405SOL     OW23113   4.760   0.673   6.635  0.4295 -0.6194  0.0193
 7405SOL    HW123114   4.711   0.697   6.551  0.0762  1.4538  0.7663
 7405SOL    HW223115   4.696   0.630   6.699 -0.1083  0.7499  0.4331
 7406SOL     OW23116   2.064   3.696   1.950 -0.8515 -0.2594  0.0552
 7406SOL    HW123117   2.120   3.755   1.891 -1.3100 -0.0345 -0.1638
 7406SOL    HW223118   2.120   3.622   1.986 -0.4952 -0.2355 -0.4402
 7407SOL     OW23119   3.336   6.110   5.360  0.5430  0.7139  0.1483
 7407SOL    HW123120   3.417   6.133   5.305  0.8333 -0.3296  0.1103
 7407SOL    HW223121   3.255   6.149   5.318  0.7370 -0.2266 -1.1423
 7408SOL     OW23122   1.294   6.561   5.578 -0.7261 -0.3903  0.0197
 7408SOL    HW123123   1.205   6.551   5.624 -0.5834 -0.5632  0.2569
 7408SOL    HW223124   1.327   6.655   5.591 -0.0872 -0.7675  1.3654
 7409SOL     OW23125   6.482   0.747   2.016  0.4154 -0.4648  0.1732
 7409SOL    HW123126   6.414   0.677   1.991 -0.0452  0.0016  0.1037
 7409SOL    HW223127   6.513   0.793   1.934  0.4352 -0.3295  0.2569
 7410SOL     OW23128   3.269   4.296   0.611  0.7541  0.3494  0.0184
 7410SOL    HW123129   3.351   4.341   0.646  1.4048 -0.5583 -0.2884
 7410SOL    HW223130   3.241   4.340   0.525  0.4050  1.2122  0.5680
 7411SOL     OW23131   1.029   3.128   2.387  0.0302 -0.6153  1.0478
 7411SOL    HW123132   1.082   3.211   2.407  0.0215 -0.2303 -0.4108
 7411SOL    HW223133   1.071   3.050   2.433  2.5520 -0.5262 -0.8682
 7412SOL     OW23134   6.543   1.071   5.250  0.8958 -0.4064  0.4581
 7412SOL    HW123135   6.590   1.073   5.161  1.2013  0.8687  0.6281
 7412SOL    HW223136   6.574   1.147   5.306  0.3257 -0.9004  1.4803
 7413SOL     OW23137   1.280   6.993   2.901 -0.6960  0.2083  0.2811
 7413SOL    HW123138   1.260   6.896   2.890  0.8957 -0.0565 -0.5195
 7413SOL    HW223139   1.320   7.029   2.817  2.1100  0.6490  1.6798
 7414SOL     OW23140   2.373   3.030   6.428  0.7879  0.3179  0.0816
 7414SOL    HW123141   2.406   2.951   6.376  0.8164  0.5218 -0.2085
 7414SOL    HW223142   2.404   3.114   6.384 -0.1297  0.5142 -0.1909
 7415SOL     OW23143   0.476   3.977   1.279 -0.0554  0.3952 -0.5770
 7415SOL    HW123144   0.425   4.044   1.332  1.0329  0.1878  0.7780
 7415SOL    HW223145   0.574   3.990   1.293  0.2005 -2.0527  0.5503
 7416SOL     OW23146   0.731   3.033   1.018 -0.7327  0.1025 -0.2115
 7416SOL    HW123147   0.797   2.983   0.961  0.1909  1.5634 -0.4767
 7416SOL    HW223148   0.640   3.023   0.978 -0.3892 -0.4392 -0.8974
 7417SOL     OW23149   6.994   3.066   1.244  0.0486 -0.0997  0.6365
 7417SOL    HW123150   6.923   3.124   1.285  1.0290 -0.0657  2.3568
 7417SOL    HW223151   6.973   3.052   1.147 -0.0945  3.3669  0.0319
 7418SOL     OW23152   1.459   5.236   5.889  0.2628  0.0191  0.5388
 7418SOL    HW123153   1.455   5.336   5.888  2.2086  0.1519 -1.6747
 7418SOL    HW223154   1.377   5.200   5.933 -1.4750  2.5231 -0.4479
 7419SOL     OW23155   0.370   0.176   0.955 -0.0034  0.3127 -0.6852
 7419SOL    HW123156   0.320   0.191   0.870 -0.8363 -2.4442 -0.7757
 7419SOL    HW223157   0.305   0.162   1.030  0.7111  1.4984  0.1795
 7420SOL     OW23158   5.388   4.840   2.492 -0.2127  0.9318  0.1319
 7420SOL    HW123159   5.407   4.791   2.577 -0.4372  0.4835 -0.0703
 7420SOL    HW223160   5.457   4.816   2.424 -2.2439 -1.9249 -1.1059
 7421SOL     OW23161   6.709   2.195   2.247 -0.1604  0.2174  0.5089
 7421SOL    HW123162   6.785   2.173   2.186 -0.7387  0.0014 -0.1518
 7421SOL    HW223163   6.735   2.272   2.306  0.2824  0.6893 -0.2729
 7422SOL     OW23164   1.987   5.990   0.998  0.1666  0.1032  0.2179
 7422SOL    HW123165   1.985   5.996   1.097 -0.1197 -2.4607  0.4446
 7422SOL    HW223166   1.916   6.048   0.959  0.4792  1.3662  1.4691
 7423SOL     OW23167   4.946   5.440   2.054 -0.2369 -0.5959  0.4901
 7423SOL    HW123168   4.904   5.485   1.975 -1.0848 -1.2001  0.5862
 7423SOL    HW223169   5.014   5.373   2.023  0.3540  0.0642  0.3227
 7424SOL     OW23170   2.495   0.773   3.670  0.1452  0.2324  0.0243
 7424SOL    HW123171   2.419   0.709   3.661  1.0982 -1.1722  1.4354
 7424SOL    HW223172   2.526   0.800   3.579  1.1287 -3.1237 -0.7996
 7425SOL     OW23173   6.643   0.754   5.844 -0.4771 -0.7880 -0.0550
 7425SOL    HW123174   6.576   0.763   5.771  0.7085 -1.4604 -1.2720
 7425SOL    HW223175   6.699   0.837   5.849 -1.6994 -0.0146  1.3055
 7426SOL     OW23176   6.375   1.589   3.999  0.0984  0.7682  0.0572
 7426SOL    HW123177   6.379   1.589   3.899  0.2493 -0.4527  0.0472
 7426SOL    HW223178   6.384   1.682   4.032  0.5802  1.1376 -1.0523
 7427SOL     OW23179   0.889   2.891   0.839 -0.3857 -0.1344  0.5335
 7427SOL    HW123180   0.948   2.819   0.875 -1.1816 -0.3398  1.4680
 7427SOL    HW223181   0.824   2.852   0.774 -0.3803 -0.1462  0.5352
 7428SOL     OW23182   1.413   2.617   1.216 -0.2142  0.3296  0.1573
 7428SOL    HW123183   1.398   2.709   1.251  1.1003  0.5003  0.2940
 7428SOL    HW223184   1.396   2.616   1.117 -0.3175  0.6862  0.1699
 7429SOL     OW23185   6.199   6.035   3.972  0.1028  0.0632 -0.2705
 7429SOL    HW123186   6.101   6.051   3.957  0.3566  2.3063  0.1432
 7429SOL    HW223187   6.210   5.961   4.038 -1.3796  0.5025  0.5356
 7430SOL     OW23188   2.259   3.070   0.544  0.3890 -0.0253  0.4505
 7430SOL    HW123189   2.195   2.998   0.571  0.8466  0.1231  1.9845
 7430SOL    HW223190   2.209   3.155   0.527  0.1957  0.2677  2.2768
 7431SOL     OW23191   1.876   6.786   3.278  0.5265  0.2278  0.1525
 7431SOL    HW123192   1.891   6.687   3.270  1.4011  0.2268  1.4067
 7431SOL    HW223193   1.837   6.806   3.368  0.3747  1.0212 -0.0846
 7432SOL     OW23194   0.018   5.108   0.780 -0.0445  0.2484  0.5468
 7432SOL    HW123195  -0.033   5.126   0.696  0.1038 -3.1757 -0.4064
 7432SOL    HW223196   0.102   5.162   0.780  0.6493 -0.6478 -2.2480
 7433SOL     OW23197   5.515   6.269   0.088 -0.4368  0.1386  0.2423
 7433SOL    HW123198   5.558   6.355   0.059 -1.7319  0.3857 -1.1001
 7433SOL    HW223199   5.579   6.194   0.076  0.2002  0.7200 -0.0555
 7434SOL     OW23200   5.711   0.876   1.535  0.1863  0.3299 -0.0096
 7434SOL    HW123201   5.724   0.779   1.554  1.9203  0.3728 -0.7296
 7434SOL    HW223202   5.690   0.889   1.438  0.1304  0.6855  0.0481
 7435SOL     OW23203   0.331   5.621   1.800 -0.2681  0.0093  0.0699
 7435SOL    HW123204   0.427   5.599   1.814 -0.5209 -0.7939  0.6235
 7435SOL    HW223205   0.274   5.565   1.860 -1.1195  0.0461 -0.6649
 7436SOL     OW23206   6.572   0.910   2.215 -0.3935  0.3540  0.4045
 7436SOL    HW123207   6.527   0.837   2.163  0.8456  0.9437 -1.6450
 7436SOL    HW223208   6.504   0.962   2.265 -1.4928 -1.1713  0.5629
 7437SOL     OW23209   1.126   3.397   2.915 -0.8171 -0.3563  0.1473
 7437SOL    HW123210   1.149   3.381   3.011 -0.9199  0.5896  0.3384
 7437SOL    HW223211   1.029   3.420   2.908 -0.6639  0.2049 -0.1120
 7438SOL     OW23212   5.668   3.268   0.259 -0.0888  0.3507  0.3782
 7438SOL    HW123213   5.713   3.278   0.171  1.3781  1.3910  1.2037
 7438SOL    HW223214   5.571   3.290   0.250  0.1660  1.0228 -0.8421
 7439SOL     OW23215   0.730   4.171   6.810 -0.1170 -0.4392 -0.2631
 7439SOL    HW123216   0.777   4.218   6.735  3.2830 -0.8824  1.4085
 7439SOL    HW223217   0.686   4.088   6.775 -0.5999  0.5243 -2.0944
 7440SOL     OW23218   5.507   1.739   5.434  0.0954  0.2346  0.0841
 7440SOL    HW123219   5.602   1.709   5.433  0.0311  0.0252 -0.4589
 7440SOL    HW223220   5.500   1.832   5.398  0.0379  0.0387 -0.4321
 7441SOL     OW23221   4.562   1.361   1.820 -0.6535 -0.0213 -0.3394
 7441SOL    HW123222   4.641   1.398   1.769  0.1949 -0.4246  0.6458
 7441SOL    HW223223   4.527   1.431   1.882  0.1238 -0.4251  0.5747
 7442SOL     OW23224   6.467   0.187   4.758 -0.5426 -0.5398 -0.2823
 7442SOL    HW123225   6.409   0.109   4.782  0.9041 -1.4302  0.4681
 7442SOL    HW223226   6.558   0.174   4.798  0.2666  0.6816 -1.6480
 7443SOL     OW23227   1.321   1.713   1.009 -0.1154 -0.2006  0.2382
 7443SOL    HW123228   1.256   1.723   1.084  0.4758 -1.4625  0.9511
 7443SOL    HW223229   1.408   1.756   1.034  0.1225 -0.7329  0.3259
 7444SOL     OW23230   3.226   0.137   4.284 -0.1768 -0.1062  0.2269
 7444SOL    HW123231   3.276   0.214   4.323 -0.0205 -0.1059  0.0279
 7444SOL    HW223232   3.180   0.087   4.357  0.2896 -0.2298  0.4416
 7445SOL     OW23233   3.169   4.682   0.441  0.5290 -0.1482  0.1832
 7445SOL    HW123234   3.255   4.733   0.444  0.4549  0.3565 -3.1244
 7445SOL    HW223235   3.188   4.587   0.416  0.2407 -0.6115  1.6064
 7446SOL     OW23236   4.660   6.575   4.862  0.5039 -0.4747  0.3967
 7446SOL    HW123237   4.744   6.520   4.863  0.0732 -1.4213 -2.8629
 7446SOL    HW223238   4.585   6.522   4.902  0.2118 -2.2518 -2.2177
 7447SOL     OW23239   6.554   4.051   0.929 -0.5047  0.1320  0.8678
 7447SOL    HW123240   6.496   4.128   0.904  1.0154  1.6923  1.9510
 7447SOL    HW223241   6.543   4.031   1.027  1.0701  0.7431  1.1942
 7448SOL     OW23242   0.405   5.716   6.475  0.2388  0.5002 -0.7493
 7448SOL    HW123243   0.454   5.673   6.551 -0.7660  0.5459 -0.0535
 7448SOL    HW223244   0.447   5.689   6.388  2.0309  1.2324 -0.1555
 7449SOL     OW23245   6.195   0.847   3.614 -0.7115  0.0483 -0.1003
 7449SOL    HW123246   6.204   0.794   3.699  1.7890  0.7997  0.1936
 7449SOL    HW223247   6.274   0.828   3.556 -1.0768  1.5124 -1.1125
 7450SOL     OW23248   0.581   2.442   4.937 -0.4309  0.3620  0.0326
 7450SOL    HW123249   0.520   2.490   4.999 -0.6057  3.3907 -2.2680
 7450SOL    HW223250   0.585   2.345   4.962 -3.8047  0.6160  2.0704
 7451SOL     OW23251   6.364   6.253   4.469  0.0457  0.2937 -0.0251
 7451SOL    HW123252   6.453   6.298   4.475  1.4039 -1.4629 -3.8725
 7451SOL    HW223253   6.296   6.320   4.438  0.5330  1.1314  0.6626
 7452SOL     OW23254   0.089   3.704   1.523  0.0259 -0.3243 -0.1999
 7452SOL    HW123255   0.068   3.626   1.465 -1.0764 -1.7506  1.9616
 7452SOL    HW223256   0.027   3.780   1.502 -1.5530 -1.4447  0.2645
 7453SOL     OW23257   1.702   4.949   3.323  0.1450  0.1780  0.2761
 7453SOL    HW123258   1.702   5.047   3.303  0.6222  0.0952 -0.1478
 7453SOL    HW223259   1.757   4.932   3.405 -1.8855  0.5289  1.8063
 7454SOL     OW23260   2.905   1.646   5.827  0.0426  0.3838  0.6861
 7454SOL    HW123261   2.982   1.702   5.798  0.0591  0.6917  1.3142
 7454SOL    HW223262   2.819   1.691   5.800  0.0404  0.9846  1.6312
 7455SOL     OW23263   3.224   0.017   6.686 -0.5910  0.5182  0.3806
 7455SOL    HW123264   3.251   0.061   6.772  1.7585 -0.8816  0.4480
 7455SOL    HW223265   3.257   0.071   6.609 -1.3637  0.9900  0.3739
 7456SOL     OW23266   1.852   6.645   0.862  0.4555 -0.6022  0.3105
 7456SOL    HW123267   1.831   6.547   0.859 -0.2982 -0.4822  1.1811
 7456SOL    HW223268   1.858   6.681   0.769  0.9378 -1.5083 -0.0222
 7457SOL     OW23269   6.360   5.858   6.005 -0.5056  0.5109 -0.0728
 7457SOL    HW123270   6.363   5.800   5.924 -1.2983 -0.9044  0.8668
 7457SOL    HW223271   6.369   5.954   5.977 -2.9705  0.2697 -2.0987
 7458SOL     OW23272   2.206   3.306   0.244  0.0393 -0.0471  0.1057
 7458SOL    HW123273   2.177   3.212   0.265  0.7800 -0.0355  1.3186
 7458SOL    HW223274   2.181   3.366   0.320 -0.6192  0.7855 -0.7609
 7459SOL     OW23275   4.389   6.465   6.005 -0.1788  0.3025 -0.0979
 7459SOL    HW123276   4.323   6.502   6.071 -1.5737  0.2498 -1.4037
 7459SOL    HW223277   4.443   6.393   6.049 -0.5263  0.7940  1.1947
 7460SOL     OW23278   3.776   1.621   3.528 -0.2293  0.6766 -0.0794
 7460SOL    HW123279   3.864   1.668   3.539 -0.4675  0.7884  1.6035
 7460SOL    HW223280   3.728   1.619   3.616 -1.2382 -0.7370 -0.6240
 7461SOL     OW23281   1.875   6.060   6.566 -0.0195  0.1637  0.0030
 7461SOL    HW123282   1.957   6.005   6.554  1.6381  1.7711  2.9718
 7461SOL    HW223283   1.875   6.135   6.500  1.1782  0.4408  0.3011
 7462SOL     OW23284   3.242   6.977   4.678  0.6244  0.3365 -0.2593
 7462SOL    HW123285   3.151   6.944   4.703 -0.3880  2.3606 -1.0809
 7462SOL    HW223286   3.310   6.937   4.741 -0.9753 -0.1140  1.2728
 7463SOL     OW23287   3.798   0.138   4.216  1.0199  0.6560 -0.4471
 7463SOL    HW123288   3.731   0.212   4.208 -0.0471 -0.3405 -1.0924
 7463SOL    HW223289   3.751   0.050   4.205  2.1848 -0.1449  0.7320
 7464SOL     OW23290   6.079   6.359   0.380 -0.5326  0.1279  0.0503
 7464SOL    HW123291   6.058   6.265   0.407 -0.4839 -0.1105 -0.7071
 7464SOL    HW223292   6.171   6.382   0.409 -1.0978  0.5003  1.6464
 7465SOL     OW23293   6.760   0.094   4.821 -0.1172  0.0948 -0.2542
 7465SOL    HW123294   6.768   0.141   4.733  1.2159 -0.1855 -0.2969
 7465SOL    HW223295   6.823   0.017   4.824 -0.4516 -0.1570  0.7927
 7466SOL     OW23296   1.155   0.045   6.138 -0.0994  0.0920 -0.0670
 7466SOL    HW123297   1.075   0.015   6.086 -0.0799 -0.4437  0.2081
 7466SOL    HW223298   1.137   0.036   6.236  0.1083  0.4649  0.0084
 7467SOL     OW23299   4.557   2.441   6.599  0.2222 -0.2463 -0.3767
 7467SOL    HW123300   4.575   2.464   6.503 -0.1987  1.4164 -0.0708
 7467SOL    HW223301   4.607   2.357   6.622  0.6531 -0.4516 -1.9287
 7468SOL     OW23302   0.624   5.963   0.458 -0.2171 -0.4950 -0.2077
 7468SOL    HW123303   0.645   6.044   0.403  1.2375 -0.8884 -0.2693
 7468SOL    HW223304   0.574   5.991   0.540  0.8857  0.5705  0.1275
 7469SOL     OW23305   0.646   3.694   1.954  0.0684 -0.5520 -0.1123
 7469SOL    HW123306   0.630   3.615   2.013  0.0397  0.1868  0.8744
 7469SOL    HW223307   0.710   3.668   1.881  0.2688 -1.4053  0.3524
 7470SOL     OW23308   6.802   0.767   4.270 -0.0413  0.0749 -0.7261
 7470SOL    HW123309   6.845   0.735   4.186  1.8058  0.7166 -0.0948
 7470SOL    HW223310   6.827   0.706   4.345 -1.1817 -0.1557 -0.5159
 7471SOL     OW23311   1.503   3.543   1.327 -0.4323  0.5856 -0.1215
 7471SOL    HW123312   1.458   3.544   1.416 -1.3852  1.8247 -0.5905
 7471SOL    HW223313   1.591   3.589   1.334  0.5197 -1.2439  0.6425
 7472SOL     OW23314   3.704   2.595   7.007 -0.2914 -0.1621 -0.4964
 7472SOL    HW123315   3.727   2.566   6.914  1.2685  1.7832 -0.7529
 7472SOL    HW223316   3.781   2.579   7.068  0.1837  2.2328 -0.3994
 7473SOL     OW23317   1.274   2.274   2.681  0.0336 -0.3319 -0.2226
 7473SOL    HW123318   1.340   2.211   2.641  0.3634  0.4198 -0.9001
 7473SOL    HW223319   1.316   2.364   2.693 -0.9653  0.2689 -1.0346
 7474SOL     OW23320   0.718   2.820   0.634 -0.4065 -0.1549  0.4903
 7474SOL    HW123321   0.632   2.847   0.676 -0.6397 -1.6660  1.0357
 7474SOL    HW223322   0.700   2.765   0.553  0.0347 -0.2327  0.4425
 7475SOL     OW23323   1.418   3.786   3.281  0.2941  0.4318  0.2231
 7475SOL    HW123324   1.369   3.715   3.229  2.2742 -1.8995  1.3419
 7475SOL    HW223325   1.457   3.853   3.217 -0.0035 -0.5623 -1.0541
 7476SOL     OW23326   5.628   2.196   1.066 -0.1309  0.3239 -0.6147
 7476SOL    HW123327   5.651   2.151   0.980  2.8531  0.1606  0.1379
 7476SOL    HW223328   5.556   2.145   1.113 -0.7907 -0.3846 -2.3303
 7477SOL     OW23329   3.676   2.348   6.406 -0.2472  0.2370  0.7992
 7477SOL    HW123330   3.655   2.367   6.502 -1.2584 -0.8852  0.8305
 7477SOL    HW223331   3.593   2.316   6.360  0.2506  0.6353 -0.4306
 7478SOL     OW23332   1.655   2.699   2.034 -0.2025 -0.2128 -0.1008
 7478SOL    HW123333   1.624   2.716   1.940  1.1234  0.2170 -0.4911
 7478SOL    HW223334   1.695   2.607   2.039 -1.3791 -0.7053  0.3553
 7479SOL     OW23335   0.176   0.407   3.496  0.5616 -0.5926  0.5837
 7479SOL    HW123336   0.251   0.393   3.431 -0.8710 -0.1608 -1.2810
 7479SOL    HW223337   0.136   0.497   3.482 -1.0639 -1.2628  0.6394
 7480SOL     OW23338   2.241   1.210   2.494  0.1889  0.1095  0.1362
 7480SOL    HW123339   2.319   1.155   2.524  0.7908 -0.3510 -2.1027
 7480SOL    HW223340   2.244   1.300   2.538 -0.6908 -1.4364  3.7206
 7481SOL     OW23341   0.928   5.869   4.016  0.4272 -0.1235  0.2111
 7481SOL    HW123342   0.855   5.935   4.032 -1.9034 -2.1599 -1.4254
 7481SOL    HW223343   0.979   5.895   3.934 -0.6283 -0.4476 -0.5603
 7482SOL     OW23344   0.074   4.971   4.923  0.4846  0.1688  0.3177
 7482SOL    HW123345   0.076   4.985   5.022 -0.5264  1.8784  0.1382
 7482SOL    HW223346  -0.000   5.026   4.884  0.6864 -0.7108 -1.3572
 7483SOL     OW23347   4.467   0.132   2.832 -0.3829 -0.2121 -0.5091
 7483SOL    HW123348   4.546   0.181   2.867 -0.5642 -0.3574  0.1061
 7483SOL    HW223349   4.442   0.059   2.895  0.0359 -1.2643 -1.5181
 7484SOL     OW23350   2.872   3.137   5.469  0.2331 -0.0068  0.5243
 7484SOL    HW123351   2.806   3.166   5.538  1.7751  0.2425  1.9441
 7484SOL    HW223352   2.868   3.201   5.392 -1.1866 -0.0291  0.5391
 7485SOL     OW23353   6.649   0.512   5.983 -0.3566  0.3115 -0.1062
 7485SOL    HW123354   6.677   0.598   5.940 -0.6502  1.6853  2.3117
 7485SOL    HW223355   6.730   0.454   5.995  0.1653  1.0151 -0.1186
 7486SOL     OW23356   3.996   3.445   2.350 -0.3726 -0.2347 -0.4939
 7486SOL    HW123357   3.990   3.404   2.441 -3.2322  0.2282 -0.4023
 7486SOL    HW223358   4.031   3.377   2.285  0.3413 -1.0077  0.6497
 7487SOL     OW23359   6.110   2.578   0.904 -0.6802  0.5764 -0.1374
 7487SOL    HW123360   6.184   2.616   0.849 -0.3166  0.3014  0.1531
 7487SOL    HW223361   6.055   2.516   0.847  0.4574 -0.7097  0.1037
 7488SOL     OW23362   6.637   3.503   5.945 -0.0111  0.0088 -0.0690
 7488SOL    HW123363   6.628   3.544   5.854  0.0880  1.0205  0.3708
 7488SOL    HW223364   6.640   3.403   5.936 -1.2978  0.0406 -1.0655
 7489SOL     OW23365   4.223   5.962   2.606 -0.1332 -0.3088  0.3889
 7489SOL    HW123366   4.287   5.955   2.682 -1.3472  0.8003  1.5867
 7489SOL    HW223367   4.242   5.890   2.539  0.6208 -1.6956  2.0070
 7490SOL     OW23368   0.479   6.319   0.634 -0.1230 -0.1728  0.6910
 7490SOL    HW123369   0.563   6.299   0.685  0.3068  1.0801  0.4964
 7490SOL    HW223370   0.447   6.235   0.590  0.9997 -0.6797  0.7974
 7491SOL     OW23371   5.161   0.500   1.406 -0.1432  0.3231 -0.0618
 7491SOL    HW123372   5.154   0.467   1.500  1.7845  1.8906  0.7146
 7491SOL    HW223373   5.151   0.599   1.404 -0.8780  0.2513 -1.6342
 7492SOL     OW23374   3.945   2.006   1.025 -0.3526  0.8483 -0.3671
 7492SOL    HW123375   3.858   1.984   1.069 -0.7937  0.6925 -1.2772
 7492SOL    HW223376   3.938   2.096   0.982 -1.0230 -0.2153 -2.6982
 7493SOL     OW23377   1.731   2.860   5.640 -0.0634  0.2321  0.0616
 7493SOL    HW123378   1.769   2.811   5.562  0.0912 -0.1383  0.3667
 7493SOL    HW223379   1.724   2.798   5.719  0.3431  0.7547  0.5178
 7494SOL     OW23380   5.716   3.176   4.951  0.0460  0.0670 -0.9655
 7494SOL    HW123381   5.739   3.254   4.893  0.5599  1.0966  0.5472
 7494SOL    HW223382   5.789   3.162   5.018 -0.9569 -0.4519  0.0554
 7495SOL     OW23383   2.358   4.639   2.612  0.2717 -0.6926 -0.0604
 7495SOL    HW123384   2.282   4.601   2.559 -0.4243 -2.9141  2.2758
 7495SOL    HW223385   2.345   4.737   2.625 -1.1936 -0.7023 -1.2686
 7496SOL     OW23386   0.227   3.517   5.739 -0.0541  0.3985 -0.0616
 7496SOL    HW123387   0.301   3.540   5.803  0.6132 -0.1337 -0.6215
 7496SOL    HW223388   0.260   3.449   5.673 -0.5084  1.4483 -1.4117
 7497SOL     OW23389   4.386   5.371   2.366 -0.4907  0.2771  0.2860
 7497SOL    HW123390   4.485   5.378   2.354 -0.4464  0.9484  0.9095
 7497SOL    HW223391   4.366   5.343   2.459 -0.8484 -3.1439 -0.7084
 7498SOL     OW23392   0.009   2.471   6.564 -0.1378  0.1243  0.5836
 7498SOL    HW123393   0.023   2.488   6.467 -0.8907 -2.4877 -0.0673
 7498SOL    HW223394   0.097   2.474   6.611  0.2302  1.4461 -0.1626
 7499SOL     OW23395   0.119   2.761   0.670 -0.0961  0.0680 -0.4358
 7499SOL    HW123396   0.149   2.701   0.743 -1.6200 -1.1535 -0.7681
 7499SOL    HW223397   0.192   2.769   0.601  0.2724 -1.0694 -0.1895
 7500SOL     OW23398   0.351   6.497   5.070  0.3624  0.4164 -0.4496
 7500SOL    HW123399   0.311   6.589   5.060  1.5061  1.1413  1.1605
 7500SOL    HW223400   0.449   6.506   5.090  0.2067 -1.1011  1.1652
 7501SOL     OW23401   4.830   2.338   1.400 -0.2918  0.1857 -0.2396
 7501SOL    HW123402   4.921   2.379   1.393  0.4205 -1.3963 -0.6174
 7501SOL    HW223403   4.837   2.239   1.389 -1.0729 -1.0257  6.1842
 7502SOL     OW23404   5.309   2.094   2.175 -0.1374  0.4796  1.0230
 7502SOL    HW123405   5.351   2.038   2.246  0.2727 -0.3482  0.1470
 7502SOL    HW223406   5.210   2.096   2.188 -0.0191  0.8594  1.9683
 7503SOL     OW23407   3.261   4.033   4.760 -0.1072  0.1262  0.5645
 7503SOL    HW123408   3.353   3.994   4.754 -1.1724 -2.3880 -0.6711
 7503SOL    HW223409   3.257   4.094   4.839  2.6383  0.4644  0.5592
 7504SOL     OW23410   5.002   5.784   0.142  1.1950 -0.2439 -0.2851
 7504SOL    HW123411   5.036   5.869   0.102  2.0254 -0.2256  0.4068
 7504SOL    HW223412   4.921   5.753   0.093  0.5662  1.2265 -0.2240
 7505SOL     OW23413   0.733   4.435   0.143 -0.3728 -0.1001 -0.4890
 7505SOL    HW123414   0.799   4.375   0.097 -0.7090 -1.8555  1.2014
 7505SOL    HW223415   0.659   4.380   0.180 -0.0014  1.1574  2.3416
 7506SOL     OW23416   2.578   2.438   4.019  0.0310  0.3610  0.5973
 7506SOL    HW123417   2.672   2.408   4.037 -0.0732 -0.5757 -0.3716
 7506SOL    HW223418   2.569   2.462   3.922 -1.2701 -1.6254  0.1896
 7507SOL     OW23419   4.647   5.803   5.917  0.1599  0.1598 -0.7274
 7507SOL    HW123420   4.631   5.704   5.919 -0.3706  0.2308 -1.1773
 7507SOL    HW223421   4.605   5.842   5.835 -0.6781  0.9336  0.0422
 7508SOL     OW23422   6.311   4.693   6.045 -0.4808  0.3389 -0.5430
 7508SOL    HW123423   6.362   4.771   6.010 -0.3929  0.8042  0.5780
 7508SOL    HW223424   6.226   4.683   5.993 -1.6815  2.6818  0.8154
 7509SOL     OW23425   4.668   2.697   3.260 -0.8821  0.4011  0.1192
 7509SOL    HW123426   4.617   2.630   3.313  0.1476  1.0320  2.0195
 7509SOL    HW223427   4.728   2.651   3.195 -0.3337 -0.5271  1.2559
 7510SOL     OW23428   0.020   3.800   2.313 -0.3832  0.4505  0.5034
 7510SOL    HW123429   0.039   3.702   2.326 -0.9829  0.3201  0.4087
 7510SOL    HW223430  -0.040   3.812   2.234 -1.2678  0.8039  1.2235
 7511SOL     OW23431   3.294   2.081   6.353 -0.0245  0.0650 -0.2349
 7511SOL    HW123432   3.298   2.025   6.435 -0.5268 -0.5238 -0.6028
 7511SOL    HW223433   3.268   2.175   6.378  2.0137  0.4888  0.5263
 7512SOL     OW23434   0.907   0.508   4.947 -0.2729 -0.9347 -0.2826
 7512SOL    HW123435   0.855   0.457   5.015  0.7120 -0.8651  0.5483
 7512SOL    HW223436   0.951   0.444   4.883 -1.3076 -0.9946 -0.9596
 7513SOL     OW23437   0.087   5.227   6.622 -0.4607  0.0118 -0.3524
 7513SOL    HW123438   0.131   5.214   6.534  1.5918  1.4484  0.4057
 7513SOL    HW223439   0.140   5.180   6.693  0.1038  2.0453  0.6282
 7514SOL     OW23440   4.061   5.063   4.157  0.4446  0.0150  0.4888
 7514SOL    HW123441   4.069   4.963   4.165 -0.1753 -0.0680  0.1842
 7514SOL    HW223442   3.965   5.089   4.168  0.5567  0.5437  0.2329
 7515SOL     OW23443   5.792   6.380   3.130  0.1411  0.2323 -0.0217
 7515SOL    HW123444   5.710   6.328   3.154  1.7428 -2.3100  0.3150
 7515SOL    HW223445   5.853   6.384   3.209  1.1628  0.4337 -0.8042
 7516SOL     OW23446   3.233   0.547   5.138 -0.1523  0.4476 -0.0183
 7516SOL    HW123447   3.172   0.468   5.148  0.8596 -0.7452 -2.5648
 7516SOL    HW223448   3.251   0.586   5.229 -1.8240 -1.3247  1.1623
 7517SOL     OW23449   2.102   6.879   0.638 -0.1618  0.3025  0.4934
 7517SOL    HW123450   2.020   6.826   0.618  0.4521 -0.6855  0.5210
 7517SOL    HW223451   2.158   6.831   0.706  0.4960  0.9043  0.4019
 7518SOL     OW23452   5.119   2.426   1.433  0.8271 -0.6038  0.2127
 7518SOL    HW123453   5.165   2.376   1.506  4.1189 -2.8553 -3.0054
 7518SOL    HW223454   5.185   2.485   1.386 -1.5402  2.0394 -0.0140
 7519SOL     OW23455   1.813   3.610   6.261  0.3438 -0.4260 -0.1952
 7519SOL    HW123456   1.828   3.639   6.355  2.3272  0.1108 -0.6211
 7519SOL    HW223457   1.814   3.510   6.256  2.2809 -0.4505  0.1003
 7520SOL     OW23458   4.842   5.904   6.092  0.2232  1.3262  0.4599
 7520SOL    HW123459   4.924   5.886   6.038  0.1032  3.2654 -0.4285
 7520SOL    HW223460   4.763   5.860   6.049  0.6566  0.0349  0.9419
 7521SOL     OW23461   1.991   6.334   5.739  0.3778  0.4968 -0.3340
 7521SOL    HW123462   1.942   6.403   5.685  2.1318  0.5029 -2.0226
 7521SOL    HW223463   2.079   6.371   5.770  0.7634 -0.5435 -0.1263
 7522SOL     OW23464   5.413   5.138   1.353  0.1372 -0.5043 -0.0879
 7522SOL    HW123465   5.504   5.108   1.379  0.1009  0.1899  0.8442
 7522SOL    HW223466   5.374   5.071   1.289  0.7928 -1.4675  0.4920
 7523SOL     OW23467   2.568   0.709   4.211 -0.1797 -0.2911  0.3941
 7523SOL    HW123468   2.506   0.732   4.137 -0.5292  1.9533  1.3187
 7523SOL    HW223469   2.660   0.743   4.190  0.0125 -0.7705  0.4409
 7524SOL     OW23470   0.128   2.626   3.030  0.1253  0.5936 -0.0550
 7524SOL    HW123471   0.126   2.726   3.021  0.5255  0.5692 -0.4658
 7524SOL    HW223472   0.059   2.597   3.096  1.0424  1.2595  1.2409
 7525SOL     OW23473   6.828   3.243   5.007  0.4400  0.1264 -0.8404
 7525SOL    HW123474   6.787   3.153   4.989 -0.6250  0.5542 -0.6595
 7525SOL    HW223475   6.878   3.239   5.094  0.1805 -0.2267 -0.7019
 7526SOL     OW23476   1.196   2.976   5.909  0.0463 -0.0840 -0.0668
 7526SOL    HW123477   1.184   3.058   5.965  0.2374 -0.5320  0.6529
 7526SOL    HW223478   1.254   2.911   5.958 -1.8462 -1.5471  0.3517
 7527SOL     OW23479   4.436   4.581   4.694 -0.4268  0.8144 -0.4188
 7527SOL    HW123480   4.357   4.618   4.645 -1.2228  0.4192  0.5297
 7527SOL    HW223481   4.412   4.568   4.791  1.2836  2.1390  0.2223
 7528SOL     OW23482   1.054   3.305   2.053 -0.1411 -0.0227 -0.3210
 7528SOL    HW123483   0.967   3.314   2.101 -1.2732 -1.0631 -2.1024
 7528SOL    HW223484   1.052   3.357   1.968  1.2712  0.5518 -0.0275
 7529SOL     OW23485   3.843   3.670   5.128  0.4306 -0.5788 -0.7357
 7529SOL    HW123486   3.815   3.729   5.053 -1.1095 -0.6023 -0.2049
 7529SOL    HW223487   3.875   3.582   5.091  0.7548 -0.1788 -1.4131
 7530SOL     OW23488   2.107   2.130   2.089  0.3311 -0.3829 -0.0065
 7530SOL    HW123489   2.143   2.040   2.065  1.6118  0.2678 -0.5888
 7530SOL    HW223490   2.081   2.179   2.005  0.3227  0.0730  0.2603
 7531SOL     OW23491   6.338   1.741   0.052 -1.2495 -0.1775 -0.1844
 7531SOL    HW123492   6.259   1.716  -0.003  0.2094 -0.5816 -2.2049
 7531SOL    HW223493   6.421   1.740  -0.005  0.1271  0.9464  1.6657
 7532SOL     OW23494   5.028   3.728   5.050 -0.6256  0.3696 -0.3195
 7532SOL    HW123495   4.955   3.696   4.990 -0.8608 -1.3813  0.8092
 7532SOL    HW223496   4.988   3.771   5.131 -0.4408 -0.7906  0.4055
 7533SOL     OW23497   5.681   6.063   6.007 -0.2343 -0.3819 -0.2852
 7533SOL    HW123498   5.603   6.002   6.019  1.1580 -2.5151 -1.3595
 7533SOL    HW223499   5.673   6.110   5.919 -1.4196  1.2263  0.6403
 7534SOL     OW23500   0.018   1.334   4.014 -0.1761 -0.4750  0.4324
 7534SOL    HW123501  -0.014   1.299   3.926 -0.2682 -2.7104  1.2749
 7534SOL    HW223502   0.114   1.310   4.027 -0.0632  0.1505  0.7928
 7535SOL     OW23503   6.081   6.825   0.368  0.0288  0.0274 -0.1612
 7535SOL    HW123504   5.998   6.789   0.411  0.6180  0.1576  1.1480
 7535SOL    HW223505   6.161   6.778   0.407  0.7211  1.6737  0.4710
 7536SOL     OW23506   6.893   2.700   4.680  0.1319 -0.2563  0.3396
 7536SOL    HW123507   6.835   2.619   4.675 -0.1606 -0.1373  1.4872
 7536SOL    HW223508   6.933   2.706   4.771 -1.1669  1.7938  0.8279
 7537SOL     OW23509   6.364   0.914   1.717  0.0670 -0.0373 -0.7658
 7537SOL    HW123510   6.289   0.880   1.660  0.3031  0.6807 -1.5425
 7537SOL    HW223511   6.447   0.921   1.661  0.7122 -0.8036  0.0801
 7538SOL     OW23512   1.970   5.310   5.959  0.1485  0.4985 -0.5710
 7538SOL    HW123513   2.049   5.252   5.940 -0.1373 -0.2872  0.5757
 7538SOL    HW223514   1.925   5.334   5.873  0.9314 -0.0466 -1.1419
 7539SOL     OW23515   4.863   4.114   1.108  1.0420  0.1064 -0.0436
 7539SOL    HW123516   4.959   4.125   1.084  1.0681 -1.3471 -0.7299
 7539SOL    HW223517   4.812   4.196   1.082  2.3774  1.6535  2.0173
 7540SOL     OW23518   5.410   6.823   6.959 -0.3520  0.1908 -0.5390
 7540SOL    HW123519   5.500   6.840   6.920 -0.7314  0.0363 -1.5116
 7540SOL    HW223520   5.404   6.727   6.988 -0.0790  0.2973 -0.1318
 7541SOL     OW23521   4.861   5.715   4.804 -0.5494  0.1140 -0.3971
 7541SOL    HW123522   4.764   5.714   4.828 -0.2928 -0.8808  0.6941
 7541SOL    HW223523   4.875   5.656   4.724 -0.9006  0.6783 -0.8908
 7542SOL     OW23524   3.371   4.430   5.908  0.1921  0.7643 -0.4262
 7542SOL    HW123525   3.328   4.471   5.988 -2.7467  2.4938 -2.6772
 7542SOL    HW223526   3.458   4.477   5.889  0.3205  1.1457  1.0266
 7543SOL     OW23527   0.098   0.852   2.627  0.1380  0.3827  0.3752
 7543SOL    HW123528   0.069   0.844   2.531  1.8885  0.6058 -0.2100
 7543SOL    HW223529   0.021   0.884   2.682 -0.8804  0.3454 -0.9710
 7544SOL     OW23530   2.960   0.393   6.127 -0.2424 -0.3837 -0.3482
 7544SOL    HW123531   3.020   0.328   6.175 -1.0565  0.5595  2.1027
 7544SOL    HW223532   2.870   0.393   6.170 -1.5114 -0.4274 -2.8111
 7545SOL     OW23533   5.115   1.284   0.351 -0.1940  0.0622  0.6950
 7545SOL    HW123534   5.201   1.334   0.363 -1.2376  2.0636  0.4417
 7545SOL    HW223535   5.095   1.276   0.253 -1.9420  2.8523  0.7023
 7546SOL     OW23536   2.260   2.961   4.196  0.6450  0.1600 -0.0765
 7546SOL    HW123537   2.342   3.008   4.228  0.2427  1.8232 -1.3873
 7546SOL    HW223538   2.193   3.027   4.163 -0.3314 -1.2777 -1.1403
 7547SOL     OW23539   4.442   1.082   0.666  0.0972 -0.0858  0.4837
 7547SOL    HW123540   4.396   1.003   0.707 -0.0259 -0.5217 -0.4686
 7547SOL    HW223541   4.531   1.095   0.709 -0.9239  0.8306  2.4392
 7548SOL     OW23542   0.240   2.191   2.593  0.5076  0.4284 -0.3458
 7548SOL    HW123543   0.284   2.160   2.678  0.0438 -0.3904 -0.3975
 7548SOL    HW223544   0.210   2.286   2.604 -1.3047 -0.2414  1.1364
 7549SOL     OW23545   1.707   2.145   4.428 -0.3429  0.1994 -1.0501
 7549SOL    HW123546   1.615   2.150   4.465 -0.1052  0.1115 -0.4256
 7549SOL    HW223547   1.773   2.159   4.502  0.1471 -0.2566 -1.3956
 7550SOL     OW23548   5.090   1.118   1.425  0.0899 -0.2509 -0.2744
 7550SOL    HW123549   5.105   1.057   1.503 -3.3025 -1.2853 -0.2707
 7550SOL    HW223550   4.996   1.108   1.393  0.3538  2.7176 -2.3458
 7551SOL     OW23551   1.651   4.217   5.395 -0.1119 -0.9880  0.1315
 7551SOL    HW123552   1.728   4.268   5.356  0.4168 -2.0437 -0.2398
 7551SOL    HW223553   1.619   4.264   5.478 -1.0848  1.1621 -1.3420
 7552SOL     OW23554   2.838   6.582   2.015  0.4251 -0.7055 -0.1189
 7552SOL    HW123555   2.918   6.537   1.975  1.1620 -0.7874  1.3905
 7552SOL    HW223556   2.854   6.599   2.112 -1.0677  0.0486  0.0248
 7553SOL     OW23557   6.328   3.273   4.456 -0.2342 -0.2025  0.8965
 7553SOL    HW123558   6.237   3.260   4.497  0.2427  1.2531  2.5476
 7553SOL    HW223559   6.332   3.224   4.369 -2.4219 -0.7273  1.0148
 7554SOL     OW23560   4.649   3.364   5.641  0.6432  0.3242 -0.2861
 7554SOL    HW123561   4.678   3.435   5.578  0.6545  0.5172 -0.0614
 7554SOL    HW223562   4.723   3.298   5.653  0.5103  0.0795 -0.7699
 7555SOL     OW23563   0.780   0.960   4.766 -0.0708  0.0029  0.2256
 7555SOL    HW123564   0.713   0.959   4.692 -0.9623  0.5517  1.0043
 7555SOL    HW223565   0.764   0.882   4.827 -0.5087  0.5874  0.8571
 7556SOL     OW23566   6.765   0.176   0.996 -0.2741 -0.5684 -0.0807
 7556SOL    HW123567   6.719   0.088   1.003 -0.3879 -0.5920 -0.9301
 7556SOL    HW223568   6.855   0.164   0.953 -0.2528 -0.2879 -0.1199
 7557SOL     OW23569   0.439   5.399   6.579  0.0078 -0.0606  0.3073
 7557SOL    HW123570   0.384   5.324   6.545 -0.2432  0.6937 -1.0078
 7557SOL    HW223571   0.522   5.408   6.524  2.4420 -2.2393  3.2344
 7558SOL     OW23572   3.417   4.235   1.393  0.1000  0.2686  0.3148
 7558SOL    HW123573   3.368   4.311   1.435  0.8137  1.8155 -1.5322
 7558SOL    HW223574   3.382   4.149   1.430 -1.6941  1.4140  1.4474
 7559SOL     OW23575   3.235   1.553   1.046 -0.1190 -0.3552  0.3096
 7559SOL    HW123576   3.324   1.595   1.026  0.2391 -2.0057 -1.9982
 7559SOL    HW223577   3.193   1.600   1.123  1.6254  2.1021 -0.1032
 7560SOL     OW23578   6.819   1.774   5.969 -0.5245 -0.6464 -0.4632
 7560SOL    HW123579   6.853   1.868   5.957 -0.2838 -0.6147  0.3972
 7560SOL    HW223580   6.786   1.740   5.881 -1.4486  0.5662 -0.6226
 7561SOL     OW23581   0.461   1.708   3.756 -0.1294 -0.0982  0.2061
 7561SOL    HW123582   0.444   1.683   3.852 -0.3988 -0.1509  0.1445
 7561SOL    HW223583   0.556   1.740   3.747  0.2018 -1.0047  0.3042
 7562SOL     OW23584   6.622   2.408   4.675  0.4089 -0.1452  0.4284
 7562SOL    HW123585   6.604   2.497   4.717  1.1681  0.5890 -0.7134
 7562SOL    HW223586   6.543   2.380   4.620  0.6864  0.5311 -0.3478
 7563SOL     OW23587   2.628   5.489   2.178  0.9461  0.0223  1.2612
 7563SOL    HW123588   2.687   5.417   2.142 -1.1542 -0.6928 -1.1156
 7563SOL    HW223589   2.577   5.454   2.257  1.0383 -0.5802  1.0573
 7564SOL     OW23590   6.828   5.788   5.511  0.1337  0.1370 -0.2559
 7564SOL    HW123591   6.781   5.831   5.588 -0.6925  0.2154 -0.7897
 7564SOL    HW223592   6.773   5.712   5.476  2.2920 -2.5048  1.6902
 7565SOL     OW23593   4.717   6.134   4.542  0.7946 -0.2029 -0.6105
 7565SOL    HW123594   4.698   6.156   4.447  0.7922 -1.3891 -0.9022
 7565SOL    HW223595   4.815   6.125   4.556  0.7527 -0.9143 -0.7225
 7566SOL     OW23596   5.782   1.164   3.807  0.0293  0.0229  0.3648
 7566SOL    HW123597   5.873   1.200   3.828 -0.0663  0.2418  0.4050
 7566SOL    HW223598   5.740   1.220   3.736  0.1118 -0.3562  0.0138
 7567SOL     OW23599   1.039   6.758   6.564  0.3026  0.4398 -0.0857
 7567SOL    HW123600   0.972   6.803   6.623 -0.5845  1.3891 -1.7445
 7567SOL    HW223601   1.069   6.673   6.608 -0.9714  0.6514  1.3129
 7568SOL     OW23602   2.895   3.798   6.218 -0.1509 -0.1037 -0.5839
 7568SOL    HW123603   2.817   3.735   6.221  0.1417 -0.4500 -0.1850
 7568SOL    HW223604   2.964   3.769   6.285 -0.6355  1.4814  0.6481
 7569SOL     OW23605   2.931   6.435   0.517 -0.0267 -0.0808 -0.3792
 7569SOL    HW123606   2.909   6.357   0.459  0.5594 -0.8202  0.3666
 7569SOL    HW223607   2.957   6.403   0.608 -1.3830  1.0683  0.4651
 7570SOL     OW23608   2.484   0.970   5.868 -0.0411  0.6894  0.2907
 7570SOL    HW123609   2.408   0.958   5.804 -1.9836 -0.2053  2.5985
 7570SOL    HW223610   2.536   1.051   5.843 -0.5130  0.2152 -2.5364
 7571SOL     OW23611   5.422   0.826   4.106  0.6133  0.4554 -0.0417
 7571SOL    HW123612   5.472   0.857   4.026 -0.4674 -0.0504 -0.9383
 7571SOL    HW223613   5.330   0.797   4.079 -0.1955  1.3760  1.5388
 7572SOL     OW23614   6.134   2.120   2.869 -0.1348 -0.1234  0.5059
 7572SOL    HW123615   6.193   2.201   2.862 -1.6996  0.9628 -1.2632
 7572SOL    HW223616   6.190   2.039   2.887  1.5699  1.2114  1.5186
 7573SOL     OW23617   2.211   3.123   1.812  1.0957  0.4059 -0.6926
 7573SOL    HW123618   2.260   3.048   1.857  1.0148  0.2733 -0.8252
 7573SOL    HW223619   2.277   3.181   1.764  1.3852  1.5217  0.9876
 7574SOL     OW23620   5.577   1.858   3.505 -0.2273 -0.1576 -0.7692
 7574SOL    HW123621   5.673   1.843   3.529  0.4731  1.0032 -2.5819
 7574SOL    HW223622   5.556   1.809   3.420 -1.6066 -1.3577  0.2180
 7575SOL     OW23623   1.646   3.262   1.069 -0.5502 -0.2684  0.3905
 7575SOL    HW123624   1.560   3.211   1.076 -0.7256  0.0595  0.6429
 7575SOL    HW223625   1.650   3.310   0.982 -0.1984 -1.0476 -0.0282
 7576SOL     OW23626   2.044   4.358   2.532  0.3425  0.6222 -0.7698
 7576SOL    HW123627   1.975   4.349   2.604  0.4924  0.6204 -0.6236
 7576SOL    HW223628   2.000   4.367   2.443  0.1630 -0.0074 -0.7501
 7577SOL     OW23629   3.965   1.580   0.463 -0.1344  0.0041 -0.2026
 7577SOL    HW123630   3.963   1.509   0.392 -2.5274 -0.5625  0.3197
 7577SOL    HW223631   4.054   1.579   0.509 -0.1303 -2.8601 -0.0557
 7578SOL     OW23632   3.427   0.103   1.023 -0.1800 -0.2180  0.0508
 7578SOL    HW123633   3.472   0.141   0.943  0.7517  0.5394  0.9066
 7578SOL    HW223634   3.403   0.007   1.005 -0.9872  0.2396 -1.4974
 7579SOL     OW23635   3.308   3.958   6.803 -0.2397  1.2745 -0.0780
 7579SOL    HW123636   3.293   3.948   6.705 -0.4001  1.3303 -0.0590
 7579SOL    HW223637   3.266   3.881   6.851  1.4106  0.2446 -0.1888
 7580SOL     OW23638   4.168   4.277   1.164 -0.1414  0.4666  0.1165
 7580SOL    HW123639   4.095   4.253   1.100  2.0861 -1.3192 -1.9446
 7580SOL    HW223640   4.158   4.373   1.192 -3.2265  0.2749 -0.0015
 7581SOL     OW23641   2.649   2.018   5.047 -0.1440 -0.4261 -0.1729
 7581SOL    HW123642   2.728   2.000   5.105 -0.8092 -2.4444  0.2026
 7581SOL    HW223643   2.643   2.116   5.028  0.9640  0.0987  1.8668
 7582SOL     OW23644   1.132   1.472   4.560 -0.5102 -0.2842  0.5284
 7582SOL    HW123645   1.061   1.452   4.493 -0.8135 -0.6284  0.9490
 7582SOL    HW223646   1.217   1.496   4.513 -0.6936 -0.6185  0.0249
 7583SOL     OW23647   2.301   4.611   1.821 -0.4443 -0.4931 -0.3098
 7583SOL    HW123648   2.341   4.655   1.741  1.3675 -0.8490  0.3605
 7583SOL    HW223649   2.329   4.515   1.824  1.5019  0.0517  1.9358
 7584SOL     OW23650   5.751   1.411   0.697  0.4975 -0.3347 -0.2017
 7584SOL    HW123651   5.811   1.351   0.644  0.7191 -0.0597 -0.2651
 7584SOL    HW223652   5.800   1.495   0.719  0.3360 -0.3639  0.2678
 7585SOL     OW23653   4.916   3.782   2.183  0.5870 -0.0632  0.5140
 7585SOL    HW123654   5.015   3.770   2.192  0.7383 -0.0475 -0.9950
 7585SOL    HW223655   4.877   3.706   2.132  0.1878  1.1048 -0.9864
 7586SOL     OW23656   2.159   2.304   4.947 -0.0821 -0.2528  0.2156
 7586SOL    HW123657   2.212   2.236   4.998 -0.4136 -2.3294 -2.0214
 7586SOL    HW223658   2.062   2.277   4.947 -0.5235  1.2401  0.7654
 7587SOL     OW23659   6.724   3.027   0.185  0.3759  0.2718 -0.1731
 7587SOL    HW123660   6.775   2.945   0.211  0.7235  1.1232  2.1226
 7587SOL    HW223661   6.628   3.003   0.173  0.6566 -0.6650 -0.6782
 7588SOL     OW23662   3.340   4.389   6.620  0.1190 -0.2689  0.6493
 7588SOL    HW123663   3.336   4.489   6.622  0.8542 -0.2218  0.1861
 7588SOL    HW223664   3.360   4.358   6.527 -0.9928 -0.8982  0.5978
 7589SOL     OW23665   4.333   0.641   0.561  0.3829 -0.4197 -0.6734
 7589SOL    HW123666   4.243   0.603   0.584  1.0285 -1.5909  0.0324
 7589SOL    HW223667   4.351   0.720   0.619 -0.2614 -0.0698 -0.9437
 7590SOL     OW23668   1.848   0.861   2.242 -0.2304 -0.0826 -0.2867
 7590SOL    HW123669   1.785   0.889   2.315 -1.2947  1.3455 -1.6711
 7590SOL    HW223670   1.797   0.812   2.171  0.5499 -0.4180 -0.6285
 7591SOL     OW23671   6.994   2.031   6.661  0.1607  0.0144  0.2363
 7591SOL    HW123672   6.909   2.064   6.621 -0.2146  1.9173  2.4132
 7591SOL    HW223673   6.975   1.952   6.720 -0.1203  0.4445  0.7285
 7592SOL     OW23674   2.467   6.719   2.486 -0.4053 -0.3023 -0.2772
 7592SOL    HW123675   2.481   6.668   2.571  0.7472 -1.6789 -1.2482
 7592SOL    HW223676   2.395   6.677   2.433  1.3781 -1.7859 -1.6531
 7593SOL     OW23677   0.743   6.502   2.464 -0.2186  0.5861  0.1296
 7593SOL    HW123678   0.691   6.420   2.489 -1.1394  0.7171 -1.2255
 7593SOL    HW223679   0.794   6.485   2.380  1.0677  0.8347  0.8309
 7594SOL     OW23680   2.115   0.023   0.086  0.4912  0.3242  0.1439
 7594SOL    HW123681   2.105   0.052  -0.010  0.7653 -0.1989 -0.0472
 7594SOL    HW223682   2.113   0.103   0.145 -0.9400  0.5711 -0.1900
 7595SOL     OW23683   0.159   4.106   5.898 -0.4166 -0.4081 -0.3024
 7595SOL    HW123684   0.099   4.038   5.857  2.2864 -1.7720 -2.2486
 7595SOL    HW223685   0.132   4.120   5.994 -3.3310 -1.3932 -0.8709
 7596SOL     OW23686   5.364   4.633   0.413  0.0771  0.3421 -0.0823
 7596SOL    HW123687   5.345   4.728   0.386  0.4745 -0.3257 -3.0184
 7596SOL    HW223688   5.293   4.573   0.375  1.4732 -0.8515 -0.8869
 7597SOL     OW23689   0.741   6.441   0.255  0.2453 -0.4855  0.3114
 7597SOL    HW123690   0.794   6.478   0.179 -0.4721  0.1597  0.1039
 7597SOL    HW223691   0.670   6.507   0.280 -1.1862 -1.7926 -0.1590
 7598SOL     OW23692   4.950   5.281   2.456 -0.5896  0.0150  0.2098
 7598SOL    HW123693   4.936   5.209   2.524 -1.7542  0.6669  0.6849
 7598SOL    HW223694   5.037   5.328   2.474 -1.8499  1.5840  2.5954
 7599SOL     OW23695   3.008   5.593   6.306  0.2972 -0.2303  0.3598
 7599SOL    HW123696   3.004   5.609   6.404 -0.8695 -1.9786  0.6406
 7599SOL    HW223697   3.103   5.604   6.274  0.4453  1.8242  1.3607
 7600SOL     OW23698   3.350   3.097   6.792 -0.0341 -0.0737  0.3394
 7600SOL    HW123699   3.446   3.097   6.818 -0.3057  1.6501  1.5628
 7600SOL    HW223700   3.295   3.063   6.868 -0.4391 -0.4751 -0.1277
 7601SOL     OW23701   5.900   1.558   3.801 -0.4302 -0.0407  0.2542
 7601SOL    HW123702   5.933   1.526   3.713  2.1895 -0.3925  1.2729
 7601SOL    HW223703   5.823   1.501   3.831 -0.4641 -0.7798 -1.1641
 7602SOL     OW23704   2.717   2.303   2.297  0.5510 -0.0064  0.4926
 7602SOL    HW123705   2.800   2.297   2.242 -0.4415 -2.1945 -0.9379
 7602SOL    HW223706   2.683   2.397   2.296  2.1372  0.5990 -0.2083
 7603SOL     OW23707   4.997   3.269   1.980 -0.3228  0.8337  0.1672
 7603SOL    HW123708   5.094   3.292   1.979  0.1702 -1.0410 -0.8010
 7603SOL    HW223709   4.961   3.279   2.072  0.8821  1.2158  0.6190
 7604SOL     OW23710   3.539   2.864   2.380  0.0168 -0.5901  0.5543
 7604SOL    HW123711   3.633   2.881   2.352 -0.3342  1.0847  0.2838
 7604SOL    HW223712   3.518   2.767   2.369  0.6895 -0.4700 -2.5716
 7605SOL     OW23713   5.359   0.043   4.968 -0.3679 -0.5401  0.1609
 7605SOL    HW123714   5.276  -0.012   4.974 -0.2343 -1.1567 -2.3691
 7605SOL    HW223715   5.351   0.109   4.893  1.5939 -0.9925 -0.5206
 7606SOL     OW23716   4.316   4.599   3.107 -0.3155  0.3475  0.3006
 7606SOL    HW123717   4.321   4.500   3.120 -1.8535  0.4260  1.7530
 7606SOL    HW223718   4.367   4.645   3.179 -0.2561  0.6451  0.0714
 7607SOL     OW23719   1.020   3.669   1.984 -0.6758 -0.5373  0.3544
 7607SOL    HW123720   0.986   3.740   1.923  2.0976  1.1725  0.6418
 7607SOL    HW223721   0.971   3.673   2.071 -1.0591  0.5136  0.0972
 7608SOL     OW23722   5.069   3.443   5.972  0.1447  0.2733 -0.0606
 7608SOL    HW123723   5.020   3.469   5.889  0.6873  0.2363 -0.3994
 7608SOL    HW223724   5.161   3.482   5.970 -0.0116  0.7059  0.7699
 7609SOL     OW23725   3.639   1.934   2.021 -0.4285  0.0993 -0.2869
 7609SOL    HW123726   3.633   2.030   2.046 -2.2569  0.0831 -0.5038
 7609SOL    HW223727   3.672   1.881   2.099 -0.0041  0.8079  0.0253
 7610SOL     OW23728   3.430   2.900   5.199 -0.0476  0.1499 -0.2317
 7610SOL    HW123729   3.382   2.822   5.240  0.1360  0.2154  0.1109
 7610SOL    HW223730   3.415   2.901   5.101  0.0891 -0.4160 -0.2584
 7611SOL     OW23731   2.639   2.221   0.806  0.4462 -0.1234 -0.4328
 7611SOL    HW123732   2.731   2.182   0.808  0.4685 -0.0763 -0.5253
 7611SOL    HW223733   2.600   2.218   0.898 -0.3294 -2.2006 -0.7721
 7612SOL     OW23734   6.065   2.694   4.218  0.1682 -0.2568  0.1603
 7612SOL    HW123735   5.986   2.698   4.280 -1.2675  1.2908 -1.6811
 7612SOL    HW223736   6.092   2.786   4.192  1.8528 -0.8168 -0.1971
 7613SOL     OW23737   6.179   6.636   1.881 -0.2070 -0.1399  0.1735
 7613SOL    HW123738   6.102   6.697   1.862 -0.5294 -0.7975 -0.6835
 7613SOL    HW223739   6.167   6.595   1.972 -0.5761  0.1868  0.2753
 7614SOL     OW23740   3.586   5.103   6.013  0.2529  0.1397 -0.2157
 7614SOL    HW123741   3.541   5.144   6.093  3.8228  0.3553  1.9079
 7614SOL    HW223742   3.605   5.174   5.946 -0.4149  0.4947 -0.0359
 7615SOL     OW23743   5.752   3.068   3.856  0.3963  0.4389  0.7064
 7615SOL    HW123744   5.791   2.998   3.915  0.8528  1.9920  2.3379
 7615SOL    HW223745   5.665   3.036   3.818  0.9083 -1.2296  0.8867
 7616SOL     OW23746   6.495   6.809   6.060 -0.4365  0.7394  0.1945
 7616SOL    HW123747   6.435   6.880   6.023 -0.0558  0.7415 -0.4271
 7616SOL    HW223748   6.462   6.719   6.031  1.7956  0.8414 -3.2083
 7617SOL     OW23749   0.146   5.542   2.921  0.0127  0.0519 -0.4274
 7617SOL    HW123750   0.115   5.638   2.923 -4.0720 -1.0802  0.3715
 7617SOL    HW223751   0.206   5.525   2.999 -1.2350  1.4661  0.9254
 7618SOL     OW23752   1.720   5.689   4.999 -0.1747  0.0735  0.5258
 7618SOL    HW123753   1.756   5.644   4.917 -2.5642 -1.2886  0.1476
 7618SOL    HW223754   1.752   5.783   5.002  2.3806 -0.6815 -0.3638
 7619SOL     OW23755   0.588   1.619   2.682  0.3401  0.1298 -0.2264
 7619SOL    HW123756   0.652   1.615   2.606  0.0344  0.3131 -0.4951
 7619SOL    HW223757   0.494   1.625   2.647  0.1385 -0.6239  0.1544
 7620SOL     OW23758   2.634   0.448   6.038 -0.3311 -0.1078  0.8940
 7620SOL    HW123759   2.666   0.356   6.014 -2.1251 -0.7637  0.9069
 7620SOL    HW223760   2.634   0.458   6.137  2.0956  0.7775  0.8732
 7621SOL     OW23761   6.119   0.894   2.534 -0.8183  0.2725  0.0562
 7621SOL    HW123762   6.133   0.800   2.565 -0.4731 -0.0046 -0.9029
 7621SOL    HW223763   6.123   0.956   2.612  1.3708 -0.2582  0.4285
 7622SOL     OW23764   5.662   3.442   2.278 -0.0244 -0.3515 -0.1951
 7622SOL    HW123765   5.601   3.391   2.340 -0.0944  0.8939  0.8097
 7622SOL    HW223766   5.639   3.539   2.282  0.4911 -0.1471 -1.6286
 7623SOL     OW23767   2.606   4.936   1.054 -0.2493 -0.4091  0.0568
 7623SOL    HW123768   2.546   4.891   0.987 -0.4004 -0.6226  0.3321
 7623SOL    HW223769   2.670   4.869   1.092 -0.5088 -0.4070  0.5050
 7624SOL     OW23770   4.895   1.335   4.392 -0.4310  0.5345 -0.1607
 7624SOL    HW123771   4.978   1.367   4.345 -0.3638  0.7513  0.1036
 7624SOL    HW223772   4.820   1.330   4.327  0.4680 -2.5023 -1.1201
 7625SOL     OW23773   0.988   1.177   6.880  1.0744 -0.1617 -0.3644
 7625SOL    HW123774   0.897   1.134   6.875  0.6835  0.7583 -3.1082
 7625SOL    HW223775   1.053   1.111   6.916 -1.0153 -0.0230  4.3622
 7626SOL     OW23776   6.108   2.439   1.147  0.2572 -0.1619  0.7595
 7626SOL    HW123777   6.208   2.442   1.137  0.2107 -0.4057  0.1782
 7626SOL    HW223778   6.065   2.482   1.068 -0.1011  0.4004  1.2466
 7627SOL     OW23779   5.266   2.740   7.006  1.1457  0.1400 -0.6529
 7627SOL    HW123780   5.216   2.782   7.081 -1.1757  0.0561 -2.0570
 7627SOL    HW223781   5.255   2.640   7.010  0.4398  0.1714 -1.4358
 7628SOL     OW23782   6.970   0.584   6.830 -0.6986  0.0513 -0.3269
 7628SOL    HW123783   6.995   0.669   6.878  1.2327 -1.3110  1.2376
 7628SOL    HW223784   7.039   0.564   6.761 -0.2492 -1.0335  0.4093
 7629SOL     OW23785   1.719   0.138   1.441  0.3221 -0.1132  1.1857
 7629SOL    HW123786   1.814   0.123   1.417 -0.2735 -1.1228 -0.6831
 7629SOL    HW223787   1.690   0.228   1.409 -0.1584 -1.0175 -1.1083
 7630SOL     OW23788   4.766   6.366   5.837 -0.5363  0.2297 -0.0169
 7630SOL    HW123789   4.781   6.286   5.895 -0.2815  0.8163  0.7526
 7630SOL    HW223790   4.846   6.380   5.778 -0.9851 -0.6325 -0.8489
 7631SOL     OW23791   1.693   4.671   1.466 -0.2502  0.4753  0.2077
 7631SOL    HW123792   1.702   4.718   1.554 -0.1734  1.8818 -0.5182
 7631SOL    HW223793   1.714   4.574   1.477 -1.7609  0.3011  2.0462
 7632SOL     OW23794   4.871   1.000   4.234 -1.0547  0.0237  0.5336
 7632SOL    HW123795   4.836   1.026   4.144  1.6035  0.2617 -0.5019
 7632SOL    HW223796   4.850   1.073   4.299 -0.7337  1.0628 -0.4970
 7633SOL     OW23797   4.474   5.967   4.416 -0.1214 -0.3481 -0.3439
 7633SOL    HW123798   4.412   5.959   4.494  0.6124  0.5294  0.3519
 7633SOL    HW223799   4.562   6.003   4.447  0.0731  0.3258 -1.6236
 7634SOL     OW23800   0.609   4.158   0.641  0.1305  0.3517 -0.4713
 7634SOL    HW123801   0.569   4.083   0.693  0.1937  0.5058 -0.1986
 7634SOL    HW223802   0.706   4.140   0.627  0.2296  0.5608 -0.0774
 7635SOL     OW23803   0.007   3.691   5.101  0.2517  0.0423 -0.4773
 7635SOL    HW123804   0.039   3.612   5.154  1.8984  0.0894 -1.3403
 7635SOL    HW223805  -0.048   3.659   5.024 -1.2970 -0.0825  0.6450
 7636SOL     OW23806   2.332   1.437   5.673 -0.5335  0.2893  0.1977
 7636SOL    HW123807   2.275   1.420   5.592 -0.4603 -0.1705  0.2366
 7636SOL    HW223808   2.281   1.491   5.740 -0.5149  0.8628 -0.2473
 7637SOL     OW23809   6.396   1.151   0.634 -0.0064 -0.4398 -0.2010
 7637SOL    HW123810   6.392   1.112   0.726 -0.5482 -1.6765 -0.7314
 7637SOL    HW223811   6.420   1.248   0.640  1.1333 -0.7761  1.1637
 7638SOL     OW23812   1.243   0.671   0.784  0.1559  0.1852  0.5957
 7638SOL    HW123813   1.269   0.696   0.691 -0.3234 -0.1826  0.3636
 7638SOL    HW223814   1.286   0.735   0.848  1.3104 -0.1532  0.1948
 7639SOL     OW23815   6.932   1.514   2.583 -0.9239 -0.5215 -0.4791
 7639SOL    HW123816   6.923   1.527   2.681 -2.7468 -1.0126 -0.5514
 7639SOL    HW223817   7.028   1.495   2.560 -0.6887 -1.7269  1.3463
 7640SOL     OW23818   5.320   5.662   6.603  0.2636  0.1146  0.0326
 7640SOL    HW123819   5.405   5.713   6.594  1.0097 -1.1289 -0.3072
 7640SOL    HW223820   5.325   5.602   6.683  0.3224 -1.0385 -0.8095
 7641SOL     OW23821   1.775   3.739   3.178  0.4414  0.4490 -0.4786
 7641SOL    HW123822   1.786   3.665   3.111 -0.2480 -1.3709  1.3214
 7641SOL    HW223823   1.749   3.823   3.131  0.9675 -0.5087 -2.5795
 7642SOL     OW23824   2.431   6.001   6.635 -0.6494  0.1181  0.0412
 7642SOL    HW123825   2.426   6.069   6.708  0.0319 -0.6156  0.7929
 7642SOL    HW223826   2.396   6.040   6.550 -2.1632  0.7644  0.9159
 7643SOL     OW23827   4.127   5.102   0.533 -0.4446 -1.1458 -0.1615
 7643SOL    HW123828   4.197   5.083   0.601 -1.8365 -1.5265  1.2119
 7643SOL    HW223829   4.167   5.096   0.441  1.3890 -0.9136  0.5976
 7644SOL     OW23830   6.678   6.835   3.977  0.2093 -0.1103 -0.3796
 7644SOL    HW123831   6.697   6.885   3.893 -0.3203 -0.1279 -0.5154
 7644SOL    HW223832   6.643   6.898   4.046 -0.0490 -0.2144 -0.4128
 7645SOL     OW23833   6.297   5.239   6.075  0.1698 -0.2141 -0.1559
 7645SOL    HW123834   6.331   5.295   6.151 -2.7292 -1.1443  2.0143
 7645SOL    HW223835   6.374   5.193   6.031  2.0346  0.5950  2.0251
 7646SOL     OW23836   4.396   2.371   2.049 -0.1519 -0.2569 -0.1328
 7646SOL    HW123837   4.363   2.344   1.958  1.0026  0.7523 -0.8729
 7646SOL    HW223838   4.464   2.443   2.040 -1.5402  1.3934  1.6646
 7647SOL     OW23839   0.046   4.473   0.709 -0.0368  0.0229 -0.2929
 7647SOL    HW123840  -0.013   4.552   0.724 -0.0510  0.4198 -2.1799
 7647SOL    HW223841   0.024   4.431   0.621  2.3399  0.0692 -0.9921
 7648SOL     OW23842   3.925   5.995   2.632  0.2049 -0.0979 -0.3630
 7648SOL    HW123843   3.947   5.953   2.543  1.1090 -3.0604  1.1171
 7648SOL    HW223844   3.959   6.089   2.633 -1.6544  0.8143 -3.8012
 7649SOL     OW23845   1.143   2.360   3.528 -0.2120  0.3521  0.0654
 7649SOL    HW123846   1.212   2.288   3.539 -1.2290 -0.9013 -1.3086
 7649SOL    HW223847   1.112   2.362   3.433 -0.8481  2.0561  0.2743
 7650SOL     OW23848   6.924   4.912   3.890  0.0867  0.4759  0.3715
 7650SOL    HW123849   6.866   4.992   3.906 -1.5223 -0.2747 -1.3142
 7650SOL    HW223850   6.987   4.932   3.815 -0.2543  0.2079  0.0108
 7651SOL     OW23851   1.582   4.513   0.838 -0.1525  0.2317 -0.6431
 7651SOL    HW123852   1.518   4.582   0.804 -0.2436  0.7646  0.5830
 7651SOL    HW223853   1.548   4.474   0.923  0.1374 -1.0004 -1.0739
 7652SOL     OW23854   6.424   6.196   5.058 -0.1886 -0.1120 -0.4874
 7652SOL    HW123855   6.512   6.150   5.069 -0.3821 -0.6900 -1.3026
 7652SOL    HW223856   6.366   6.142   4.998 -0.8503  0.6240 -0.5153
 7653SOL     OW23857   2.866   3.341   0.256 -0.0585  0.4247 -1.3961
 7653SOL    HW123858   2.820   3.256   0.282  0.2737  0.1044 -1.8325
 7653SOL    HW223859   2.877   3.400   0.336 -0.6821  0.2442 -1.1736
 7654SOL     OW23860   6.153   5.725   3.922  0.0728 -0.4786 -0.1958
 7654SOL    HW123861   6.149   5.779   3.838  0.9835  2.7643  1.6646
 7654SOL    HW223862   6.236   5.670   3.923  0.4866  0.1069 -1.0554
 7655SOL     OW23863   2.455   3.256   0.981  0.6796  0.3480  0.2067
 7655SOL    HW123864   2.494   3.242   1.072  1.6331  0.5999 -0.1519
 7655SOL    HW223865   2.468   3.352   0.953  0.7914  0.1686 -0.3748
 7656SOL     OW23866   3.523   1.246   6.377  0.2766  1.0071  0.2068
 7656SOL    HW123867   3.426   1.233   6.396  0.5089  0.2405  0.9514
 7656SOL    HW223868   3.567   1.291   6.455  0.7507  0.2164  0.4047
 7657SOL     OW23869   6.241   2.705   5.302  0.5220 -0.6075  0.4688
 7657SOL    HW123870   6.318   2.763   5.278  0.3890 -0.1651  1.0747
 7657SOL    HW223871   6.156   2.756   5.289  0.3765 -0.8220  0.5697
 7658SOL     OW23872   6.396   0.044   5.292 -0.2766  0.0472 -0.0282
 7658SOL    HW123873   6.435   0.063   5.382  1.5277 -0.2718 -0.6916
 7658SOL    HW223874   6.419   0.119   5.230 -1.1072  0.0448 -0.3431
 7659SOL     OW23875   3.412   5.463   6.367 -0.1743  0.0395  0.1494
 7659SOL    HW123876   3.392   5.534   6.299 -0.7245  0.5163  0.7940
 7659SOL    HW223877   3.471   5.502   6.438 -0.1534 -0.2687  0.3004
 7660SOL     OW23878   6.670   6.568   2.790  0.1650 -0.4360 -0.8149
 7660SOL    HW123879   6.761   6.583   2.828 -0.4293 -0.9521  0.8977
 7660SOL    HW223880   6.643   6.649   2.737  0.4117  1.0318  1.1832
 7661SOL     OW23881   3.937   1.697   6.513 -0.3215  0.5707 -0.0545
 7661SOL    HW123882   3.931   1.602   6.544  2.2442  0.5829  0.7789
 7661SOL    HW223883   4.000   1.747   6.573  0.8328  1.9677 -2.2844
 7662SOL     OW23884   1.189   5.395   0.654 -0.2342  0.2833  0.3582
 7662SOL    HW123885   1.173   5.458   0.578 -2.3446 -1.6967 -0.9521
 7662SOL    HW223886   1.128   5.418   0.730  1.5538  1.9724  1.3929
 7663SOL     OW23887   6.446   3.638   6.534 -0.4308  0.0909  0.3351
 7663SOL    HW123888   6.408   3.703   6.468  1.6431  0.7506 -0.2993
 7663SOL    HW223889   6.484   3.559   6.485 -0.6661 -0.3909  0.9147
 7664SOL     OW23890   1.104   4.618   2.082  0.7670 -0.5978 -0.0303
 7664SOL    HW123891   1.144   4.703   2.118 -0.6025 -0.3566  1.0424
 7664SOL    HW223892   1.169   4.543   2.094  2.0269  0.2860 -1.0493
 7665SOL     OW23893   2.417   2.509   2.831  0.4439  0.1703  0.2608
 7665SOL    HW123894   2.473   2.457   2.895  0.0445 -1.4213 -0.6208
 7665SOL    HW223895   2.335   2.541   2.878  2.0150  2.5606  1.5682
 7666SOL     OW23896   3.328   5.394   0.116  0.0785 -0.1730  0.3544
 7666SOL    HW123897   3.419   5.405   0.156 -0.4659  1.5395  1.2596
 7666SOL    HW223898   3.331   5.420   0.020  0.4792  0.3248  0.4924
 7667SOL     OW23899   1.247   4.238   0.886 -0.1628 -0.1309 -0.4361
 7667SOL    HW123900   1.223   4.145   0.914 -0.5901  0.0816 -0.0759
 7667SOL    HW223901   1.330   4.236   0.831  1.2115 -0.4935  1.5301
 7668SOL     OW23902   3.796   4.415   5.344 -0.2995 -0.3510  0.5299
 7668SOL    HW123903   3.753   4.500   5.376 -1.8701 -0.5914 -0.7662
 7668SOL    HW223904   3.847   4.373   5.418  1.1268  2.0698  1.0241
 7669SOL     OW23905   0.956   5.354   3.401  0.3819  0.6927 -0.1003
 7669SOL    HW123906   0.934   5.379   3.496  0.2123 -0.1931  0.1019
 7669SOL    HW223907   0.993   5.434   3.354  1.4666  0.8851  1.0198
 7670SOL     OW23908   3.127   1.281   5.217 -0.6598  0.2054  0.5762
 7670SOL    HW123909   3.175   1.210   5.166 -0.0875  0.3079  0.9605
 7670SOL    HW223910   3.109   1.359   5.158 -0.4471  0.1234  0.4032
 7671SOL     OW23911   2.407   2.338   6.191 -0.0374 -0.2665 -0.4618
 7671SOL    HW123912   2.321   2.383   6.213 -0.6898 -0.6403 -2.1535
 7671SOL    HW223913   2.391   2.241   6.175  1.0656 -0.8038  1.2815
 7672SOL     OW23914   1.566   1.869   3.333  0.0900  0.1602 -0.5648
 7672SOL    HW123915   1.647   1.867   3.392 -1.3501  0.8907  1.5600
 7672SOL    HW223916   1.583   1.931   3.256  0.6022  2.6424  1.4121
 7673SOL     OW23917   2.058   2.560   3.666  0.1916 -0.4705 -0.1093
 7673SOL    HW123918   2.091   2.577   3.759  1.7989 -0.5171 -0.6398
 7673SOL    HW223919   2.095   2.473   3.633  1.8596  0.7374 -1.7019
 7674SOL     OW23920   5.249   6.147   5.866  0.5419  0.7011 -0.0348
 7674SOL    HW123921   5.223   6.243   5.871  0.8233  0.7130  1.6671
 7674SOL    HW223922   5.253   6.119   5.770 -1.9164  1.7285 -0.5144
 7675SOL     OW23923   6.563   2.964   4.430  0.1273  0.2570  0.2512
 7675SOL    HW123924   6.544   2.877   4.385 -0.4314 -0.3244  1.5686
 7675SOL    HW223925   6.498   2.978   4.505  0.5899  1.5280  0.4383
 7676SOL     OW23926   2.488   1.285   6.694 -0.1660 -0.3379  1.1239
 7676SOL    HW123927   2.477   1.279   6.793 -1.5243 -0.0685  1.0047
 7676SOL    HW223928   2.580   1.319   6.673  0.0026 -0.0216  2.2927
 7677SOL     OW23929   3.444   0.156   4.952 -0.1317 -0.5655 -0.7083
 7677SOL    HW123930   3.437   0.256   4.951 -0.0872 -0.4887  1.5153
 7677SOL    HW223931   3.412   0.122   5.041  1.3563 -2.4045 -0.8273
 7678SOL     OW23932   4.363   4.961   6.682  0.1533  0.2670 -0.6956
 7678SOL    HW123933   4.357   5.059   6.703 -1.1510  0.3182 -1.1861
 7678SOL    HW223934   4.438   4.920   6.733 -0.2151  1.2319  0.6711
 7679SOL     OW23935   5.343   4.614   5.446 -0.0353 -0.5800  0.0273
 7679SOL    HW123936   5.382   4.522   5.438 -1.7634 -1.8813  3.9890
 7679SOL    HW223937   5.417   4.682   5.445  1.3529 -1.9764 -2.1756
 7680SOL     OW23938   5.103   5.939   4.418 -0.5507 -0.6358  0.2042
 7680SOL    HW123939   5.194   5.909   4.448 -0.8995 -1.1060  0.8215
 7680SOL    HW223940   5.047   5.859   4.396 -0.3754 -0.3102 -1.5718
 7681SOL     OW23941   0.761   6.972   4.964  0.1207 -0.6945 -0.1279
 7681SOL    HW123942   0.689   6.934   4.905 -0.0701 -0.4466 -0.0546
 7681SOL    HW223943   0.719   7.022   5.040  0.3704 -0.7050  0.0155
 7682SOL     OW23944   2.503   6.920   1.769 -0.1041 -0.1596 -0.0152
 7682SOL    HW123945   2.488   7.016   1.794  1.0471 -0.1808  0.9039
 7682SOL    HW223946   2.552   6.874   1.843  0.5528 -1.1125 -1.0016
 7683SOL     OW23947   2.643   3.368   6.970 -0.5571  0.1634 -0.1235
 7683SOL    HW123948   2.581   3.344   7.044 -0.7651  0.0687 -0.3278
 7683SOL    HW223949   2.712   3.432   7.004 -1.1640  0.8039 -0.0503
 7684SOL     OW23950   0.276   4.026   3.232  0.1430  0.0993 -0.2237
 7684SOL    HW123951   0.252   4.031   3.136  2.5077 -0.2407 -0.9034
 7684SOL    HW223952   0.317   4.113   3.261  1.7560 -0.6028 -0.2648
 7685SOL     OW23953   2.276   5.611   2.232  0.7523 -0.4273  0.2367
 7685SOL    HW123954   2.181   5.615   2.202  1.5445  1.4539 -2.4015
 7685SOL    HW223955   2.328   5.683   2.186  2.8222  0.8765  4.1615
 7686SOL     OW23956   3.387   6.305   5.681  1.0886 -0.0900 -0.0471
 7686SOL    HW123957   3.435   6.269   5.601  0.3344  1.2090 -1.1285
 7686SOL    HW223958   3.395   6.240   5.756  0.8068 -1.9174 -1.5254
 7687SOL     OW23959   3.036   2.817   0.806 -0.0822 -0.0434  0.3528
 7687SOL    HW123960   2.977   2.740   0.826 -1.0866  0.7880  0.6898
 7687SOL    HW223961   3.132   2.787   0.804 -0.3958 -1.1414  1.1928
 7688SOL     OW23962   4.032   5.852   5.343 -0.3673  0.3764  0.4736
 7688SOL    HW123963   4.088   5.802   5.409  0.0053 -0.2401 -0.2892
 7688SOL    HW223964   4.022   5.797   5.260 -0.1918  1.4444 -0.2763
 7689SOL     OW23965   3.179   6.528   0.594 -0.5621  0.1399  0.6907
 7689SOL    HW123966   3.137   6.474   0.521 -1.2580  0.0105  1.1758
 7689SOL    HW223967   3.211   6.615   0.557  2.1736 -1.2271 -0.5181
 7690SOL     OW23968   0.390   0.459   0.646 -0.1138  0.5141 -0.2730
 7690SOL    HW123969   0.473   0.405   0.658 -0.1878  0.5996  0.6820
 7690SOL    HW223970   0.392   0.537   0.708 -0.6462  0.8300 -0.6507
 7691SOL     OW23971   3.799   4.360   5.894  0.0783  0.0555  0.3385
 7691SOL    HW123972   3.759   4.344   5.804  0.3399 -1.1413  0.4273
 7691SOL    HW223973   3.822   4.273   5.937 -0.3830  0.5788  1.7260
 7692SOL     OW23974   1.325   6.708   2.518 -0.1759  0.2911  0.0739
 7692SOL    HW123975   1.288   6.617   2.502 -1.7661  0.6592  1.3183
 7692SOL    HW223976   1.415   6.701   2.559  1.3043 -0.6470 -3.0191
 7693SOL     OW23977   1.355   5.609   5.545  0.2734 -0.6886 -0.8615
 7693SOL    HW123978   1.324   5.550   5.620 -1.1852  1.4861  0.3478
 7693SOL    HW223979   1.304   5.586   5.461 -1.8546  0.1560  0.1197
 7694SOL     OW23980   6.727   2.970   5.261 -0.0404  0.3391 -0.0501
 7694SOL    HW123981   6.755   2.953   5.355 -1.6177  0.1073  0.4015
 7694SOL    HW223982   6.658   3.042   5.259 -1.2500 -0.7940 -0.8422
 7695SOL     OW23983   0.840   4.334   1.141 -0.5748  1.2541  0.2928
 7695SOL    HW123984   0.792   4.377   1.064  0.7953  0.6092 -0.9667
 7695SOL    HW223985   0.936   4.360   1.139 -0.5654  1.4430  1.9783
 7696SOL     OW23986   4.727   5.893   0.335  0.6674 -0.0719 -0.2120
 7696SOL    HW123987   4.742   5.915   0.239  2.0265 -0.9178 -0.2312
 7696SOL    HW223988   4.816   5.879   0.380  0.1003  1.0550  1.3553
 7697SOL     OW23989   5.479   0.456   1.803 -0.1171  0.5606 -0.1027
 7697SOL    HW123990   5.558   0.509   1.770 -0.6583  0.0629 -2.3570
 7697SOL    HW223991   5.511   0.369   1.841  0.4627  0.5553 -0.5829
 7698SOL     OW23992   2.553   6.755   3.503 -0.6019 -0.0324 -0.3356
 7698SOL    HW123993   2.610   6.754   3.422 -0.1395  1.1149 -0.0358
 7698SOL    HW223994   2.461   6.788   3.479  0.2165  2.6980 -0.0001
 7699SOL     OW23995   5.477   0.993   1.374  0.1872 -0.1180  0.1959
 7699SOL    HW123996   5.451   1.052   1.451 -0.4984  0.8528 -0.7563
 7699SOL    HW223997   5.449   0.899   1.394  0.4592  0.0278  1.3357
 7700SOL     OW23998   0.739   6.006   2.031 -0.0294  0.0841 -0.3919
 7700SOL    HW123999   0.759   5.924   1.978 -1.5778 -0.8223  0.3407
 7700SOL    HW224000   0.693   6.074   1.973 -0.8156 -0.5023 -0.4716
 7701SOL     OW24001   5.530   6.297   4.363  0.3072 -0.7919  0.3707
 7701SOL    HW124002   5.542   6.229   4.436  0.3754 -2.0689 -0.7871
 7701SOL    HW224003   5.513   6.250   4.276 -3.9370  0.6816  0.1756
 7702SOL     OW24004   2.608   1.187   2.322 -0.5003 -0.3976 -0.2055
 7702SOL    HW124005   2.663   1.104   2.312 -0.8004 -0.6334  0.0741
 7702SOL    HW224006   2.668   1.264   2.345 -0.0481 -0.2430 -1.8242
 7703SOL     OW24007   4.664   4.536   3.050 -0.9375  0.1047 -0.4566
 7703SOL    HW124008   4.599   4.524   2.976 -0.0481  0.5148 -1.3235
 7703SOL    HW224009   4.644   4.471   3.123 -2.9300  0.8754 -0.2401
 7704SOL     OW24010   4.956   2.492   4.934  0.1108 -0.8489 -0.0596
 7704SOL    HW124011   4.912   2.403   4.942 -0.8755 -0.4763 -0.9763
 7704SOL    HW224012   5.003   2.498   4.846  0.1652 -0.4717 -0.0065
 7705SOL     OW24013   3.888   1.980   6.017 -0.1563  0.1811 -0.2357
 7705SOL    HW124014   3.788   1.976   6.010 -0.2174  1.8897 -0.6836
 7705SOL    HW224015   3.914   2.041   6.091  0.5143  1.8502 -1.7697
 7706SOL     OW24016   1.472   1.752   2.993  0.3608 -0.1942 -0.4642
 7706SOL    HW124017   1.512   1.829   2.943  0.2882  0.7632  0.9246
 7706SOL    HW224018   1.437   1.783   3.081  0.5222 -1.8565  0.2209
 7707SOL     OW24019   2.041   1.353   1.266  0.2636  0.4009 -0.2099
 7707SOL    HW124020   2.036   1.257   1.294 -1.0313  0.3562 -0.5347
 7707SOL    HW224021   1.951   1.383   1.235  0.8487  1.4785 -0.9236
 7708SOL     OW24022   5.687   1.739   2.685  0.3725  0.1223 -0.7375
 7708SOL    HW124023   5.721   1.833   2.685 -1.5764  0.8797 -1.0784
 7708SOL    HW224024   5.674   1.707   2.779  0.6688  0.3322 -0.6268
 7709SOL     OW24025   6.712   1.812   1.369 -0.0611 -0.2531 -0.2959
 7709SOL    HW124026   6.680   1.891   1.317  0.0318  0.4967  0.7404
 7709SOL    HW224027   6.638   1.779   1.428 -0.1613 -1.0833 -0.8645
 7710SOL     OW24028   5.859   0.071   5.733 -0.2689  0.3255  0.3132
 7710SOL    HW124029   5.923   0.146   5.716 -0.5981  0.4308 -0.5346
 7710SOL    HW224030   5.816   0.084   5.822 -1.1848  1.8138 -0.3033
 7711SOL     OW24031   0.604   1.232   5.586  0.0580  0.2401 -0.0189
 7711SOL    HW124032   0.701   1.253   5.571  0.9971 -2.1381  1.9776
 7711SOL    HW224033   0.577   1.155   5.528 -1.1614  1.8980 -1.7450
 7712SOL     OW24034   5.211   1.042   5.579  0.1361  0.1697 -0.1734
 7712SOL    HW124035   5.171   0.956   5.546  1.2269 -0.1294 -0.7640
 7712SOL    HW224036   5.286   1.022   5.642 -0.2291  0.7193  0.4584
 7713SOL     OW24037   2.843   2.479   6.144  0.0326 -0.5716 -0.6529
 7713SOL    HW124038   2.759   2.527   6.119 -1.0428 -2.9551 -1.8714
 7713SOL    HW224039   2.844   2.463   6.243 -1.7995 -1.9232 -0.8097
 7714SOL     OW24040   3.947   0.684   1.743  0.3889  0.7038  0.4828
 7714SOL    HW124041   3.998   0.598   1.745  0.5150  0.7060 -1.3847
 7714SOL    HW224042   3.853   0.667   1.714  0.4283  1.1950  0.0540
 7715SOL     OW24043   4.660   0.297   2.930 -0.0669  0.1147 -0.8347
 7715SOL    HW124044   4.672   0.371   2.864 -3.7945 -0.0524 -1.9398
 7715SOL    HW224045   4.669   0.333   3.022  0.0923  1.5279 -1.3810
 7716SOL     OW24046   4.709   2.053   1.972 -0.5317  0.4605 -0.1648
 7716SOL    HW124047   4.674   1.993   1.901  0.7339  0.0233 -0.4372
 7716SOL    HW224048   4.691   2.013   2.062  1.0624 -0.7923 -0.3657
 7717SOL     OW24049   2.131   0.474   1.025  0.1273  0.1049 -0.3311
 7717SOL    HW124050   2.229   0.494   1.027 -0.3383  3.2621 -1.7866
 7717SOL    HW224051   2.099   0.455   1.118  1.6252  2.1964  0.7026
 7718SOL     OW24052   4.268   1.132   2.474 -0.3425  0.0371  0.0106
 7718SOL    HW124053   4.288   1.115   2.378  1.0183 -0.8516  0.4197
 7718SOL    HW224054   4.300   1.055   2.529  0.2415  1.1622  1.3100
 7719SOL     OW24055   5.597   1.760   4.893  0.5895  0.0780  0.0274
 7719SOL    HW124056   5.665   1.704   4.847 -1.4092 -1.3304 -1.3672
 7719SOL    HW224057   5.568   1.834   4.832 -0.6008 -0.5888 -0.2560
 7720SOL     OW24058   5.200   1.714   4.105 -0.1100 -0.1477  0.0565
 7720SOL    HW124059   5.228   1.698   4.199  0.1681 -0.3253 -0.0564
 7720SOL    HW224060   5.241   1.645   4.045 -1.1466 -0.7117 -0.0478
 7721SOL     OW24061   1.284   6.723   2.874 -0.0070  0.0986  0.1324
 7721SOL    HW124062   1.356   6.713   2.805  0.1075  1.6338 -0.0146
 7721SOL    HW224063   1.292   6.650   2.941  1.1271 -0.2815 -0.3861
 7722SOL     OW24064   6.602   6.698   6.347  0.2991  0.6002 -0.0697
 7722SOL    HW124065   6.654   6.740   6.273  0.1573  0.0548 -0.4852
 7722SOL    HW224066   6.560   6.613   6.315 -1.4322  1.3676  0.0313
 7723SOL     OW24067   4.094   1.228   5.933  0.3651 -0.3746 -0.4207
 7723SOL    HW124068   4.061   1.286   6.007  0.7424  0.4162 -0.8653
 7723SOL    HW224069   4.158   1.279   5.876  1.4981 -1.5270 -0.2396
 7724SOL     OW24070   2.689   6.822   5.393  0.4189 -0.4512 -0.2032
 7724SOL    HW124071   2.760   6.814   5.463  0.9768  2.0246 -0.4220
 7724SOL    HW224072   2.692   6.913   5.352 -1.1417 -1.2010 -2.1369
 7725SOL     OW24073   0.335   1.419   0.366 -0.0652  0.0718 -0.2419
 7725SOL    HW124074   0.403   1.422   0.293  0.0398  0.2176 -0.1371
 7725SOL    HW224075   0.258   1.361   0.338  0.9813 -1.7192  0.3901
 7726SOL     OW24076   0.823   2.515   4.534  0.1801  0.8667  0.2081
 7726SOL    HW124077   0.729   2.547   4.545 -0.2826 -0.2497 -0.4206
 7726SOL    HW224078   0.885   2.577   4.584 -1.0515  0.4752  2.3176
 7727SOL     OW24079   5.262   0.241   2.114 -0.5221 -0.5186  0.0111
 7727SOL    HW124080   5.181   0.285   2.075 -0.0317  0.8651  0.4761
 7727SOL    HW224081   5.252   0.234   2.213  0.7457  1.6399  0.3708
 7728SOL     OW24082   3.341   3.817   0.344 -0.2001  0.6915  0.2172
 7728SOL    HW124083   3.311   3.900   0.296 -1.4560  0.3367  0.3527
 7728SOL    HW224084   3.397   3.762   0.282 -0.0787  1.2254 -0.1575
 7729SOL     OW24085   5.764   4.834   6.611  0.1332 -0.5998  0.2156
 7729SOL    HW124086   5.858   4.802   6.608  0.2523 -0.2318  0.0097
 7729SOL    HW224087   5.708   4.769   6.663  0.0664 -1.9062 -1.4078
 7730SOL     OW24088   3.483   4.088   0.630 -0.5018  0.2650  0.1929
 7730SOL    HW124089   3.461   4.132   0.544 -1.3827  1.1182  0.8402
 7730SOL    HW224090   3.420   4.118   0.701 -0.8237 -1.6590  0.7867
 7731SOL     OW24091   2.257   2.976   4.760 -0.0945  0.2812 -0.2868
 7731SOL    HW124092   2.280   3.003   4.853 -0.0928  0.0775 -0.2268
 7731SOL    HW224093   2.331   3.002   4.698  1.0643 -1.7443  0.1248
 7732SOL     OW24094   6.515   4.493   6.032 -0.0844  0.3575  1.0142
 7732SOL    HW124095   6.446   4.566   6.032 -1.0518 -0.5240  0.1466
 7732SOL    HW224096   6.542   4.472   5.939  2.4291  1.5960  1.3671
 7733SOL     OW24097   5.944   5.690   3.375 -1.2503 -0.3647  0.1670
 7733SOL    HW124098   5.985   5.765   3.323  1.3580  1.5176  4.3484
 7733SOL    HW224099   5.856   5.720   3.414 -0.9902 -0.0373  0.5129
 7734SOL     OW24100   5.191   5.191   3.225 -0.7411 -0.0578 -0.4631
 7734SOL    HW124101   5.282   5.160   3.252 -0.3047  1.6456  0.2042
 7734SOL    HW224102   5.122   5.135   3.270 -0.0096 -0.4611  0.1943
 7735SOL     OW24103   5.536   3.913   6.874 -0.0434  0.0006 -0.1845
 7735SOL    HW124104   5.551   3.996   6.929  0.4344  0.4409 -0.9555
 7735SOL    HW224105   5.513   3.940   6.780 -0.4817 -0.7421 -0.2915
 7736SOL     OW24106   0.870   3.585   3.690 -0.0631  0.4639 -0.1815
 7736SOL    HW124107   0.933   3.604   3.765 -0.7170  3.4256 -0.2526
 7736SOL    HW224108   0.873   3.488   3.667  0.6054 -0.4231  3.2133
 7737SOL     OW24109   5.309   6.365   1.291  0.0014  0.2950  0.0789
 7737SOL    HW124110   5.280   6.303   1.218  0.9871  0.7231 -0.7214
 7737SOL    HW224111   5.344   6.313   1.368 -0.4554 -0.1632 -0.0248
 7738SOL     OW24112   3.063   5.305   0.122  0.3701  0.6557 -0.0454
 7738SOL    HW124113   3.020   5.321   0.033  0.3986 -1.9423 -0.6038
 7738SOL    HW224114   3.162   5.317   0.114  0.2912  1.2844 -0.1254
 7739SOL     OW24115   1.161   3.756   6.092 -0.5641  0.1108  0.6119
 7739SOL    HW124116   1.171   3.745   6.191 -1.6415 -0.3491  0.6762
 7739SOL    HW224117   1.070   3.791   6.071  0.0304  1.2838 -0.1528
 7740SOL     OW24118   3.213   1.782   0.327 -0.0647 -0.0270  0.0769
 7740SOL    HW124119   3.306   1.787   0.365 -0.0965 -0.5567  0.2373
 7740SOL    HW224120   3.167   1.701   0.363  0.5134 -1.5719 -2.4506
 7741SOL     OW24121   6.902   2.667   6.920 -0.0552 -0.0793  0.0491
 7741SOL    HW124122   6.819   2.691   6.971 -0.5863 -0.7356 -0.4901
 7741SOL    HW224123   6.937   2.580   6.954 -1.1558 -1.2059 -1.5221
 7742SOL     OW24124   1.528   0.879   2.248  0.0802  0.3529  0.5972
 7742SOL    HW124125   1.440   0.927   2.244  0.1231  0.5684  1.8753
 7742SOL    HW224126   1.581   0.899   2.166 -1.0660  0.2096 -0.1920
 7743SOL     OW24127   3.729   0.316   4.893  0.1616 -0.4273  0.3832
 7743SOL    HW124128   3.651   0.338   4.835 -0.2076  1.3152  1.4791
 7743SOL    HW224129   3.717   0.224   4.931 -0.9408 -0.5141 -0.1298
 7744SOL     OW24130   1.562   6.837   5.651  0.4958  0.4685 -0.0998
 7744SOL    HW124131   1.607   6.919   5.687  1.0248  0.1509 -0.0199
 7744SOL    HW224132   1.474   6.825   5.696  1.1705  0.0462  1.1832
 7745SOL     OW24133   1.092   0.570   5.908 -0.4604 -1.0148  0.0005
 7745SOL    HW124134   1.133   0.576   5.999  0.2530 -1.5351 -0.2849
 7745SOL    HW224135   1.072   0.662   5.874  1.5667 -0.6622 -0.3507
 7746SOL     OW24136   3.836   6.876   2.920 -0.1747 -0.2703 -0.1736
 7746SOL    HW124137   3.761   6.939   2.899 -0.3883 -1.2153 -2.5134
 7746SOL    HW224138   3.804   6.782   2.913  0.9680 -0.6742 -0.1531
 7747SOL     OW24139   5.008   4.321   6.568 -0.7708  0.2198  0.3390
 7747SOL    HW124140   5.007   4.259   6.646  3.0542 -1.2090 -0.5425
 7747SOL    HW224141   5.001   4.269   6.483  1.0436  1.0674 -0.3896
 7748SOL     OW24142   4.004   2.146   4.482  0.1331  0.3964 -0.0730
 7748SOL    HW124143   3.956   2.155   4.569  0.3399 -0.3253  0.1224
 7748SOL    HW224144   3.938   2.137   4.407 -0.0409  0.3029  0.0923
 7749SOL     OW24145   5.432   5.659   3.182  0.3870 -0.1215  0.3932
 7749SOL    HW124146   5.434   5.564   3.149  1.6487 -0.7381  2.1120
 7749SOL    HW224147   5.351   5.704   3.146  0.4951 -1.3927 -1.6461
 7750SOL     OW24148   0.072   5.208   3.879 -0.4799  0.9108 -0.2596
 7750SOL    HW124149   0.053   5.194   3.976  0.3415  1.9643  0.0739
 7750SOL    HW224150   0.010   5.277   3.842 -0.0177  1.3748 -0.1815
 7751SOL     OW24151   1.205   2.716   0.488  0.4920 -0.1650 -0.1302
 7751SOL    HW124152   1.179   2.673   0.401 -0.4765  1.7215 -0.8118
 7751SOL    HW224153   1.124   2.751   0.534  1.3070  1.6822 -0.0097
 7752SOL     OW24154   1.227   3.639   4.337  0.7963 -0.3471 -0.3109
 7752SOL    HW124155   1.163   3.563   4.334 -0.3695  0.4074  2.4017
 7752SOL    HW224156   1.190   3.716   4.285  0.6540 -0.7023 -0.7370
 7753SOL     OW24157   2.009   4.425   2.253 -0.1464  0.0694 -0.7811
 7753SOL    HW124158   1.998   4.513   2.206 -1.1346  0.4740  0.1797
 7753SOL    HW224159   2.073   4.368   2.201  0.9362  1.5461 -1.1330
 7754SOL     OW24160   0.536   1.006   2.511 -0.0817 -0.3310  0.8585
 7754SOL    HW124161   0.438   1.013   2.523 -0.2965  0.0158 -0.7738
 7754SOL    HW224162   0.558   0.918   2.468 -0.2270  1.2210 -2.7936
 7755SOL     OW24163   1.942   6.252   3.430  0.5766  0.0175 -0.2196
 7755SOL    HW124164   1.919   6.240   3.527  0.6098 -0.7263 -0.2984
 7755SOL    HW224165   2.026   6.201   3.410 -1.0104 -2.3092 -1.3022
 7756SOL     OW24166   3.067   3.653   1.789  0.3171 -0.8461  0.1854
 7756SOL    HW124167   3.003   3.641   1.864  1.5683 -0.3029  1.3909
 7756SOL    HW224168   3.067   3.749   1.760  0.5190 -0.8600  0.1341
 7757SOL     OW24169   4.163   1.911   4.815 -0.3357  0.5295 -0.3792
 7757SOL    HW124170   4.191   1.857   4.893 -1.0300  0.3899 -0.2165
 7757SOL    HW224171   4.225   1.988   4.803  0.0243  0.3054  0.0445
 7758SOL     OW24172   5.942   0.690   7.013  0.3338 -0.0511 -0.3544
 7758SOL    HW124173   5.858   0.640   7.030  0.0077  0.7178  0.3402
 7758SOL    HW224174   5.924   0.764   6.948  0.8893 -1.0162 -1.6569
 7759SOL     OW24175   4.124   0.646   1.448  0.3716 -0.2571  0.5514
 7759SOL    HW124176   4.160   0.738   1.467 -0.7111  0.1361  0.8214
 7759SOL    HW224177   4.087   0.643   1.355  0.2454 -0.3648  0.6049
 7760SOL     OW24178   5.954   4.278   4.789 -0.7932  0.1563 -0.2389
 7760SOL    HW124179   5.974   4.191   4.744 -1.8776  0.8858 -2.2835
 7760SOL    HW224180   5.919   4.343   4.721 -2.3831  1.4043  1.6617
 7761SOL     OW24181   0.785   4.124   4.097 -0.4453  0.5738  0.1803
 7761SOL    HW124182   0.701   4.093   4.140  0.0548 -0.6226  0.3360
 7761SOL    HW224183   0.863   4.073   4.133 -0.1558 -1.8016 -3.2799
 7762SOL     OW24184   1.839   2.238   4.064 -0.0162  0.0047  0.2484
 7762SOL    HW124185   1.887   2.152   4.084 -0.1696  0.1824  1.3999
 7762SOL    HW224186   1.903   2.302   4.022  0.9312  0.4234  2.2258
 7763SOL     OW24187   2.845   3.326   5.284 -0.2870  0.0974 -0.0916
 7763SOL    HW124188   2.747   3.328   5.266 -0.2480  0.9363 -0.2578
 7763SOL    HW224189   2.893   3.288   5.204 -0.6958 -3.7074  1.2425
 7764SOL     OW24190   5.199   0.275   0.348  0.0955 -0.5706 -0.4586
 7764SOL    HW124191   5.149   0.199   0.306 -1.1877  1.1003 -2.1193
 7764SOL    HW224192   5.153   0.302   0.433  0.0205 -1.0471 -0.3436
 7765SOL     OW24193   3.823   5.701   3.796 -0.5852 -0.4104 -0.0957
 7765SOL    HW124194   3.894   5.769   3.811 -1.7820  0.6383  1.0256
 7765SOL    HW224195   3.760   5.699   3.874 -2.2628 -0.7004 -1.3872
 7766SOL     OW24196   6.918   3.117   0.499  0.5061  0.0180 -0.0123
 7766SOL    HW124197   6.882   3.209   0.488 -1.3371 -0.7949 -1.2815
 7766SOL    HW224198   6.988   3.099   0.429  2.3710  1.0575  1.4743
 7767SOL     OW24199   5.687   5.815   3.505  0.5283  0.0350 -0.1064
 7767SOL    HW124200   5.640   5.839   3.420  0.3270 -0.3771 -0.1130
 7767SOL    HW224201   5.631   5.751   3.557 -0.0025  1.3528  1.0063
 7768SOL     OW24202   5.024   2.385   2.430  0.0770 -0.3432  0.2691
 7768SOL    HW124203   5.070   2.370   2.518 -0.3054 -0.6867  0.4152
 7768SOL    HW224204   4.929   2.357   2.437 -0.5974  1.8641  0.4315
 7769SOL     OW24205   2.668   3.657   1.749 -0.0123  0.5280 -0.0732
 7769SOL    HW124206   2.579   3.616   1.730  0.2215 -0.0299  0.0386
 7769SOL    HW224207   2.664   3.755   1.728 -0.9843  0.7497  1.0294
 7770SOL     OW24208   5.918   0.869   4.807  0.9250 -0.5089  0.2189
 7770SOL    HW124209   5.824   0.847   4.781  0.9839 -0.0469 -0.4276
 7770SOL    HW224210   5.974   0.877   4.724  1.0705  1.3187  0.4536
 7771SOL     OW24211   4.904   2.406   2.109  0.3165 -0.3417 -0.1017
 7771SOL    HW124212   4.895   2.505   2.097 -1.6811 -0.4957 -0.2793
 7771SOL    HW224213   4.816   2.368   2.137  0.7199 -2.2480 -1.2459
 7772SOL     OW24214   2.013   6.654   5.334  0.1763  0.1820  0.0834
 7772SOL    HW124215   2.047   6.694   5.419  2.3045 -0.4211 -0.4155
 7772SOL    HW224216   2.065   6.570   5.314 -0.6101  0.0519 -1.5624
 7773SOL     OW24217   4.349   0.160   4.033  0.0934  0.2150 -0.2556
 7773SOL    HW124218   4.265   0.193   4.076  1.1247  1.4525  0.8710
 7773SOL    HW224219   4.356   0.198   3.941 -0.0349  0.9999  0.0548
 7774SOL     OW24220   2.842   0.579   5.870  0.0261  0.4953  0.4603
 7774SOL    HW124221   2.843   0.498   5.929 -0.8638  1.0994  1.3421
 7774SOL    HW224222   2.860   0.660   5.925 -0.3665  1.0272 -0.1792
 7775SOL     OW24223   5.747   6.879   1.179 -0.5796 -0.4510 -0.1270
 7775SOL    HW124224   5.832   6.927   1.200 -0.8690 -0.3677  0.9120
 7775SOL    HW224225   5.672   6.944   1.176 -0.7520 -0.6478 -0.1183
 7776SOL     OW24226   1.025   2.973   4.835  0.7977  0.5886  0.2674
 7776SOL    HW124227   1.094   2.930   4.777  1.4572  1.1160  0.6463
 7776SOL    HW224228   0.950   3.006   4.778  0.1971 -1.1619 -0.0170
 7777SOL     OW24229   4.858   1.845   0.094 -0.6323  0.1841  0.3797
 7777SOL    HW124230   4.865   1.762   0.150 -0.9557 -1.2104 -1.5510
 7777SOL    HW224231   4.810   1.916   0.146  0.2392 -0.5776  2.3240
 7778SOL     OW24232   5.926   5.684   6.144 -0.4174 -0.0962  0.4643
 7778SOL    HW124233   5.953   5.777   6.120 -0.4499 -0.4790 -1.1279
 7778SOL    HW224234   5.839   5.661   6.101 -1.5608 -0.1357  2.6439
 7779SOL     OW24235   0.344   0.059   4.967 -0.0417  0.6205  0.1370
 7779SOL    HW124236   0.428   0.113   4.965 -0.2782  0.9966  0.2734
 7779SOL    HW224237   0.314   0.046   5.062  0.9160 -1.1750  0.2440
 7780SOL     OW24238   2.834   5.983   0.236  0.7155  0.5802 -0.1309
 7780SOL    HW124239   2.757   5.970   0.299  1.5113 -0.6155  0.6289
 7780SOL    HW224240   2.883   5.897   0.225  1.2400  1.0336 -1.5695
 7781SOL     OW24241   0.220   1.629   5.733 -0.0500 -0.6064 -0.6724
 7781SOL    HW124242   0.292   1.575   5.691  0.2444 -0.2377 -0.6461
 7781SOL    HW224243   0.259   1.688   5.804 -0.2174  0.3009 -1.3200
 7782SOL     OW24244   4.726   0.957   0.083 -0.0092  0.3415  0.6879
 7782SOL    HW124245   4.669   0.877   0.064 -0.1582  0.7115 -0.4948
 7782SOL    HW224246   4.701   1.031   0.021  0.0955  1.3399  1.7934
 7783SOL     OW24247   3.937   6.761   2.411  0.6571 -0.2322 -0.3536
 7783SOL    HW124248   3.848   6.716   2.403  1.6068 -2.7633  1.8873
 7783SOL    HW224249   3.951   6.790   2.506  2.5430 -0.7289 -0.4438
 7784SOL     OW24250   0.568   4.728   4.265 -0.1518 -0.0247 -0.2077
 7784SOL    HW124251   0.538   4.718   4.360  1.0816  0.3260  0.2474
 7784SOL    HW224252   0.591   4.823   4.247  2.6488 -0.5216  0.1697
 7785SOL     OW24253   2.478   6.125   6.873 -0.4958  0.2386  0.1774
 7785SOL    HW124254   2.561   6.087   6.914 -1.0077 -0.1780  0.8242
 7785SOL    HW224255   2.417   6.158   6.944 -1.3379 -0.3796 -0.2372
 7786SOL     OW24256   2.948   1.166   6.234  0.1936 -0.1806  0.3532
 7786SOL    HW124257   2.916   1.102   6.303 -0.1901  0.5708  0.8896
 7786SOL    HW224258   2.890   1.160   6.153  0.6955 -1.1239  0.0555
 7787SOL     OW24259   5.969   0.153   4.682  0.3453 -0.0404  0.6440
 7787SOL    HW124260   6.060   0.182   4.713  0.2141 -0.7130  1.7268
 7787SOL    HW224261   5.941   0.208   4.604  2.5677 -1.2099 -1.0926
 7788SOL     OW24262   1.293   5.064   1.634  0.5123 -0.5669 -0.4731
 7788SOL    HW124263   1.353   5.055   1.713 -0.9425 -2.2760  0.5330
 7788SOL    HW224264   1.327   5.136   1.574  0.3860  2.6203  2.8829
 7789SOL     OW24265   1.397   3.471   4.435 -0.3304  0.3052 -0.5388
 7789SOL    HW124266   1.349   3.389   4.466  0.7030 -0.6060 -1.2627
 7789SOL    HW224267   1.331   3.535   4.394 -0.7885 -1.5941 -2.9577
 7790SOL     OW24268   1.575   6.870   0.130  0.7251  0.3669  0.5979
 7790SOL    HW124269   1.573   6.959   0.084  0.9530 -0.0303 -0.1939
 7790SOL    HW224270   1.669   6.836   0.132  0.8554  0.7213  2.0669
 7791SOL     OW24271   4.618   1.816   3.729 -0.7146 -0.1791  0.3362
 7791SOL    HW124272   4.675   1.769   3.797  2.4550  1.1974 -1.1328
 7791SOL    HW224273   4.534   1.847   3.772 -0.7771 -2.9448  2.5133
 7792SOL     OW24274   1.629   3.464   5.334  0.2411 -0.0042  0.2175
 7792SOL    HW124275   1.649   3.512   5.419 -1.6454  0.4264  0.4576
 7792SOL    HW224276   1.604   3.530   5.263 -2.8272 -0.5179  0.6713
 7793SOL     OW24277   1.702   3.267   0.411 -0.6478  0.2525  0.0930
 7793SOL    HW124278   1.787   3.236   0.370 -1.4089 -1.7616 -0.0527
 7793SOL    HW224279   1.711   3.268   0.511 -0.9790 -1.7095  0.1701
 7794SOL     OW24280   0.502   5.834   5.580  0.2895 -0.0152 -0.2814
 7794SOL    HW124281   0.431   5.764   5.575 -2.0353  2.1953 -0.1523
 7794SOL    HW224282   0.520   5.856   5.676 -0.6365  1.0994 -0.3490
 7795SOL     OW24283   6.436   2.221   2.212  0.0503 -0.1120  0.0093
 7795SOL    HW124284   6.401   2.133   2.180  1.8214 -0.3729 -1.3660
 7795SOL    HW224285   6.536   2.218   2.216  0.1357  1.7233  0.2906
 7796SOL     OW24286   4.222   3.746   5.131 -0.2230  0.3229 -0.3006
 7796SOL    HW124287   4.177   3.672   5.181  0.0772 -0.0397 -0.5660
 7796SOL    HW224288   4.298   3.781   5.186  0.0735 -0.0399 -0.4746
 7797SOL     OW24289   5.821   2.332   6.292  0.5629 -0.6905 -0.5210
 7797SOL    HW124290   5.823   2.381   6.378 -1.7061 -1.9153  0.3126
 7797SOL    HW224291   5.904   2.352   6.240  2.1708 -0.2149  2.0747
 7798SOL     OW24292   0.137   3.374   0.978 -0.1232  0.3269  0.8778
 7798SOL    HW124293   0.039   3.358   0.986 -0.0658  0.0134  0.9584
 7798SOL    HW224294   0.153   3.470   0.954 -0.5677 -0.0903 -1.3987
 7799SOL     OW24295   0.063   3.034   3.375  0.8728 -0.2585 -0.4830
 7799SOL    HW124296   0.031   2.943   3.403  1.4344 -0.0876  0.7822
 7799SOL    HW224297  -0.004   3.077   3.315  0.4379 -1.3593 -0.8095
 7800SOL     OW24298   3.235   6.305   0.862 -1.1280  0.3910 -1.0634
 7800SOL    HW124299   3.291   6.388   0.859 -0.2507 -0.1506 -0.2082
 7800SOL    HW224300   3.278   6.234   0.807  0.6524 -0.9597  1.8849
 7801SOL     OW24301   2.617   5.976   0.408 -0.3239  0.2952 -0.3549
 7801SOL    HW124302   2.658   5.944   0.494 -0.9119  0.6452  0.0656
 7801SOL    HW224303   2.538   5.919   0.385 -0.5617  0.5994 -0.3117
 7802SOL     OW24304   5.380   6.617   6.107  0.1664  0.2149  0.0106
 7802SOL    HW124305   5.370   6.518   6.119 -1.7438  0.5647  1.7852
 7802SOL    HW224306   5.400   6.637   6.011  1.6956 -1.9195 -0.2004
 7803SOL     OW24307   1.365   2.215   4.240  0.3594 -0.1938 -0.1794
 7803SOL    HW124308   1.312   2.172   4.313 -0.7176 -1.8475 -1.8285
 7803SOL    HW224309   1.322   2.301   4.213  0.2451 -0.0340  0.4991
 7804SOL     OW24310   5.397   5.170   6.656  0.1299 -0.0622 -0.2926
 7804SOL    HW124311   5.383   5.139   6.750  1.4718 -0.0136 -0.0572
 7804SOL    HW224312   5.491   5.152   6.629 -0.2875 -0.2593 -1.7103
 7805SOL     OW24313   4.439   6.665   4.184  0.5521 -0.3661  0.2280
 7805SOL    HW124314   4.512   6.648   4.250  0.1936 -0.6559  0.5571
 7805SOL    HW224315   4.412   6.761   4.187  0.4509 -0.4039  0.5981
 7806SOL     OW24316   6.536   1.412   0.992  0.4508  0.2261  0.1164
 7806SOL    HW124317   6.620   1.363   1.013  0.7999  0.2501 -1.1719
 7806SOL    HW224318   6.529   1.493   1.051  0.6102 -0.5205  1.1989
 7807SOL     OW24319   2.092   6.658   2.092 -0.3991  0.1427  0.2239
 7807SOL    HW124320   2.002   6.696   2.113 -0.6268 -0.9528  1.3844
 7807SOL    HW224321   2.157   6.732   2.076 -1.6562  0.9667 -1.4761
 7808SOL     OW24322   2.406   0.664   2.301  0.1742 -0.2211  0.5171
 7808SOL    HW124323   2.498   0.675   2.262 -0.0635 -0.2222 -0.0504
 7808SOL    HW224324   2.410   0.596   2.375  0.9788  1.1289  1.7581
 7809SOL     OW24325   2.504   6.096   4.447 -0.6272 -0.0372 -0.6843
 7809SOL    HW124326   2.412   6.135   4.456 -0.1965  0.8649  0.0514
 7809SOL    HW224327   2.571   6.162   4.480  0.6406  0.8097 -4.4596
 7810SOL     OW24328   5.913   0.024   0.794  0.1952 -0.1635 -0.5861
 7810SOL    HW124329   5.967   0.003   0.712 -1.0298  1.0588 -1.7565
 7810SOL    HW224330   5.876  -0.060   0.832  1.2915 -0.8132 -0.9218
 7811SOL     OW24331   1.320   5.195   2.750  0.2437 -0.0272 -0.5201
 7811SOL    HW124332   1.276   5.128   2.810  0.3041 -0.3947 -0.8811
 7811SOL    HW224333   1.287   5.182   2.656 -1.1775  1.6760 -0.2952
 7812SOL     OW24334   1.265   5.112   6.345  0.0654 -0.0665 -0.1801
 7812SOL    HW124335   1.356   5.153   6.356  0.0598  1.3162 -3.8524
 7812SOL    HW224336   1.265   5.052   6.265 -2.1013 -0.5241  0.1051
 7813SOL     OW24337   3.866   3.449   3.618  0.1334 -0.4388 -0.1494
 7813SOL    HW124338   3.803   3.437   3.695  1.2889  0.5751  0.9908
 7813SOL    HW224339   3.905   3.360   3.594 -1.9152 -1.1488 -1.0956
 7814SOL     OW24340   6.656   6.799   4.909  0.0920 -0.1786 -0.5998
 7814SOL    HW124341   6.613   6.856   4.979  0.3994  0.4341 -0.9053
 7814SOL    HW224342   6.701   6.721   4.952 -0.4611 -0.2782 -0.1923
 7815SOL     OW24343   2.769   1.450   5.009 -0.1908  0.1889 -0.1935
 7815SOL    HW124344   2.741   1.471   4.916  0.7895  1.1125 -0.3014
 7815SOL    HW224345   2.711   1.499   5.074 -0.7225 -0.2670 -0.3258
 7816SOL     OW24346   4.393   6.786   3.366  0.1422  0.0935 -0.8268
 7816SOL    HW124347   4.348   6.871   3.340 -2.7176 -1.3148 -0.9095
 7816SOL    HW224348   4.426   6.740   3.283  1.4784  0.9602 -0.8021
 7817SOL     OW24349   5.449   6.133   5.564 -0.5605  0.1022  0.4128
 7817SOL    HW124350   5.503   6.109   5.484 -0.8397 -0.6471  0.4369
 7817SOL    HW224351   5.382   6.061   5.582 -0.4577  0.2199  1.3567
 7818SOL     OW24352   5.718   2.717   2.157  0.3383 -0.5841  0.1030
 7818SOL    HW124353   5.736   2.751   2.249 -1.5048 -4.1591  1.9966
 7818SOL    HW224354   5.620   2.727   2.137  0.5803 -0.6012 -1.1833
 7819SOL     OW24355   2.657   3.397   6.042  0.0640 -0.5055  0.0296
 7819SOL    HW124356   2.624   3.480   5.996  1.1862  0.1936  0.4553
 7819SOL    HW224357   2.735   3.360   5.993 -0.0223 -0.9399  0.2141
 7820SOL     OW24358   1.934   3.103   2.211  0.0072  0.1162 -0.4876
 7820SOL    HW124359   2.008   3.153   2.167 -0.2207  0.0865 -0.9170
 7820SOL    HW224360   1.905   3.027   2.152  0.1504 -0.3438  0.0212
 7821SOL     OW24361   4.943   1.127   5.150 -0.0738 -0.5493  0.4623
 7821SOL    HW124362   5.042   1.113   5.139 -0.0491 -0.1393  0.1309
 7821SOL    HW224363   4.897   1.104   5.064 -0.3008 -0.9890  0.6951
 7822SOL     OW24364   0.773   5.192   2.944 -0.2019  0.1259  0.2302
 7822SOL    HW124365   0.747   5.117   2.885 -2.2538  1.1407 -0.2294
 7822SOL    HW224366   0.778   5.160   3.039  2.5091 -1.3621 -0.3073
 7823SOL     OW24367   3.680   3.978   2.972  1.1575  0.5593  0.7171
 7823SOL    HW124368   3.757   3.994   3.034  0.8125  2.8285  0.6290
 7823SOL    HW224369   3.607   4.043   2.991 -0.7009 -1.3576  0.6203
 7824SOL     OW24370   0.017   4.502   4.001  0.3205 -0.4230 -0.1421
 7824SOL    HW124371  -0.039   4.585   4.008 -1.6976 -1.4943 -2.3515
 7824SOL    HW224372   0.078   4.510   3.922  0.0302 -1.0880 -0.4362
 7825SOL     OW24373   1.913   6.281   3.158  0.0633 -0.6806  0.1834
 7825SOL    HW124374   1.901   6.272   3.257 -0.0686  0.1067  0.2412
 7825SOL    HW224375   1.974   6.209   3.125  0.4209 -0.7042  0.8948
 7826SOL     OW24376   5.306   4.565   4.757  0.2707  0.0602  0.2510
 7826SOL    HW124377   5.356   4.567   4.843  0.2214  1.2892  0.2656
 7826SOL    HW224378   5.211   4.591   4.773 -0.2376 -1.5468  0.1040
 7827SOL     OW24379   0.123   6.391   2.057  0.2760  0.0165 -0.6715
 7827SOL    HW124380   0.052   6.457   2.080  1.9183  1.4022  0.7555
 7827SOL    HW224381   0.107   6.307   2.108 -0.3327  0.3157 -0.3521
 7828SOL     OW24382   2.381   6.995   4.867  1.0388 -0.2803 -0.4740
 7828SOL    HW124383   2.417   7.086   4.845 -2.1747  1.1901 -0.1698
 7828SOL    HW224384   2.285   6.989   4.839  0.2200 -2.4697  2.3557
 7829SOL     OW24385   5.676   4.562   6.999  0.2097  0.1255 -0.8918
 7829SOL    HW124386   5.580   4.545   6.975 -0.0251 -0.1489  0.1726
 7829SOL    HW224387   5.691   4.536   7.094  1.5609 -0.6832 -1.3031
 7830SOL     OW24388   0.117   1.087   5.621  0.1282 -0.4796  0.4582
 7830SOL    HW124389   0.036   1.146   5.611  0.1771 -0.5343 -0.2618
 7830SOL    HW224390   0.100   0.999   5.577  0.3203 -0.7567  0.9268
 7831SOL     OW24391   3.495   0.485   1.074  0.2913  0.7860 -0.2839
 7831SOL    HW124392   3.540   0.572   1.056  0.0533  0.5004 -2.4799
 7831SOL    HW224393   3.477   0.477   1.173  0.5841  3.0595  0.0136
 7832SOL     OW24394   2.233   1.152   2.880  0.0469 -0.0922  0.4576
 7832SOL    HW124395   2.326   1.187   2.891 -0.2375  1.1919 -0.9194
 7832SOL    HW224396   2.210   1.094   2.959  2.0211 -0.5322  0.7811
 7833SOL     OW24397   1.032   6.417   5.320  0.0894  0.5145  0.0318
 7833SOL    HW124398   1.050   6.386   5.414  0.6800 -0.0452 -0.2657
 7833SOL    HW224399   1.019   6.338   5.260 -2.0795  0.8516 -0.0453
 7834SOL     OW24400   2.238   1.349   1.952  0.2417 -0.1379 -0.5499
 7834SOL    HW124401   2.218   1.364   1.855 -1.4916  1.1863 -0.0236
 7834SOL    HW224402   2.337   1.356   1.967  0.3572  1.9044 -1.8668
 7835SOL     OW24403   1.609   0.386   1.419  0.4287  0.0963 -0.0705
 7835SOL    HW124404   1.519   0.395   1.461  0.4666  0.0053  0.0311
 7835SOL    HW224405   1.605   0.415   1.323  0.4573  0.7947  0.1376
 7836SOL     OW24406   6.403   3.567   0.997 -0.3065  0.1719  0.1046
 7836SOL    HW124407   6.391   3.562   1.096 -0.4466  0.8543  0.1219
 7836SOL    HW224408   6.443   3.481   0.965  0.1831  0.1222  0.8139
 7837SOL     OW24409   0.166   2.938   0.857 -0.2113  0.1073  0.0487
 7837SOL    HW124410   0.144   2.888   0.774 -0.2865 -0.4228  0.3890
 7837SOL    HW224411   0.184   3.034   0.834  0.6868 -0.2265 -0.7046
 7838SOL     OW24412   3.597   1.851   4.218 -0.1946 -0.9220  0.4190
 7838SOL    HW124413   3.586   1.832   4.121 -0.9956 -2.6274  0.8078
 7838SOL    HW224414   3.524   1.914   4.248 -0.9789 -1.7390  0.2542
 7839SOL     OW24415   6.955   0.749   1.157  0.7143  0.3113  0.3172
 7839SOL    HW124416   6.985   0.654   1.168 -0.0789 -0.2848 -2.0288
 7839SOL    HW224417   6.970   0.778   1.062 -0.5362  1.9818  0.5798
 7840SOL     OW24418   2.592   3.740   1.183  0.2190  0.3317 -0.4037
 7840SOL    HW124419   2.600   3.826   1.234 -2.4556 -0.0784  0.8809
 7840SOL    HW224420   2.614   3.663   1.243 -0.2789 -0.0219 -0.6654
 7841SOL     OW24421   2.649   2.511   5.523 -0.4049  0.0341  0.4101
 7841SOL    HW124422   2.577   2.579   5.534 -1.3627 -0.4163 -2.2930
 7841SOL    HW224423   2.704   2.532   5.443  1.0610 -0.8852  1.1235
 7842SOL     OW24424   4.384   6.459   4.902  0.1903 -0.1050  0.3247
 7842SOL    HW124425   4.376   6.506   4.813 -1.2138  0.7050  0.8440
 7842SOL    HW224426   4.375   6.361   4.888 -0.0181  0.0107 -0.4373
 7843SOL     OW24427   6.104   1.956   3.143 -0.6608 -0.0480 -0.0861
 7843SOL    HW124428   6.004   1.950   3.150 -0.8157  1.0503 -0.9644
 7843SOL    HW224429   6.146   1.877   3.188 -1.8451  0.5124  2.1665
 7844SOL     OW24430   1.809   4.177   6.239  0.5189  0.2839 -0.5469
 7844SOL    HW124431   1.873   4.121   6.187 -0.0320 -0.4153 -0.4948
 7844SOL    HW224432   1.773   4.250   6.181 -0.0431 -0.4525 -1.1431
 7845SOL     OW24433   2.284   1.716   2.379  0.4000  0.1559 -0.1474
 7845SOL    HW124434   2.236   1.647   2.325 -1.0167  1.2386 -0.3338
 7845SOL    HW224435   2.311   1.676   2.467 -1.1190 -0.4393  0.0811
 7846SOL     OW24436   6.699   4.895   6.138 -0.3336 -0.1216  0.7305
 7846SOL    HW124437   6.798   4.911   6.134 -0.2361 -0.5792  1.1667
 7846SOL    HW224438   6.682   4.797   6.149 -0.8330 -0.0363  0.7306
 7847SOL     OW24439   0.862   6.647   4.499  0.0060 -0.2766  0.3739
 7847SOL    HW124440   0.917   6.568   4.525  2.2044 -1.1860 -5.5448
 7847SOL    HW224441   0.912   6.731   4.521  2.6527 -1.0194 -2.1921
 7848SOL     OW24442   5.429   3.285   3.273 -0.1114 -0.2999 -0.4215
 7848SOL    HW124443   5.332   3.263   3.262 -0.6518  0.7118  1.8156
 7848SOL    HW224444   5.475   3.210   3.321  0.5099 -1.2650 -2.4229
 7849SOL     OW24445   5.001   1.424   2.069  0.0966  0.5107 -0.2396
 7849SOL    HW124446   4.936   1.357   2.107 -0.5490  2.0948  1.6040
 7849SOL    HW224447   4.956   1.474   1.995 -0.4447  0.9123  0.3531
 7850SOL     OW24448   3.531   4.617   5.425 -0.1858  0.4013 -0.3424
 7850SOL    HW124449   3.481   4.532   5.406  0.1954 -0.4671  2.1758
 7850SOL    HW224450   3.489   4.692   5.373  0.1536 -1.4352 -3.5122
 7851SOL     OW24451   4.860   6.501   5.223 -0.2894 -0.1254  0.2053
 7851SOL    HW124452   4.775   6.552   5.223  0.5669  1.3537 -0.1468
 7851SOL    HW224453   4.937   6.564   5.234  1.0379 -0.9215 -3.2216
 7852SOL     OW24454   3.624   2.868   1.098 -0.0601  0.7763 -0.2716
 7852SOL    HW124455   3.704   2.907   1.144  0.7669  0.4843 -1.3940
 7852SOL    HW224456   3.634   2.768   1.095 -0.3655  0.7563 -0.6077
 7853SOL     OW24457   4.376   0.369   3.865  0.0402 -0.0206  0.3960
 7853SOL    HW124458   4.294   0.373   3.808 -1.7099 -2.3354  2.5311
 7853SOL    HW224459   4.379   0.448   3.926 -0.4641  0.1994  0.1381
 7854SOL     OW24460   4.647   1.817   5.324  0.3698 -0.5137 -1.0151
 7854SOL    HW124461   4.615   1.731   5.285 -0.2527  0.3433 -2.4706
 7854SOL    HW224462   4.694   1.870   5.254  0.8334  0.2977 -0.1146
 7855SOL     OW24463   2.722   1.116   2.001  0.0212 -0.2197 -0.3072
 7855SOL    HW124464   2.624   1.127   2.014  0.0666  0.7565 -0.7468
 7855SOL    HW224465   2.741   1.081   1.909  0.0531 -1.1495  0.0406
 7856SOL     OW24466   1.072   2.062   2.740 -0.0186 -0.1116 -0.3451
 7856SOL    HW124467   1.044   2.019   2.654 -0.6165  2.4724 -1.5416
 7856SOL    HW224468   1.118   2.149   2.721 -1.0713  1.0449  1.9333
 7857SOL     OW24469   3.009   6.845   3.521  0.3501 -0.2407 -0.2172
 7857SOL    HW124470   2.951   6.790   3.580  1.1415  0.5183  1.3323
 7857SOL    HW224471   2.955   6.921   3.483  0.4080  0.7975  1.6682
 7858SOL     OW24472   1.761   1.525   6.597  0.0339  0.0253  0.4462
 7858SOL    HW124473   1.815   1.444   6.572 -1.0160 -0.7223  0.5560
 7858SOL    HW224474   1.812   1.579   6.664  0.8530 -0.3983  0.1826
 7859SOL     OW24475   1.788   2.984   2.534  0.1155 -0.5469 -0.0086
 7859SOL    HW124476   1.792   2.962   2.631  0.5837 -2.3839 -0.4120
 7859SOL    HW224477   1.809   2.903   2.480  1.7354  0.8469 -1.6399
 7860SOL     OW24478   6.921   0.171   1.779  0.3860 -0.1950  0.4863
 7860SOL    HW124479   6.827   0.160   1.747  0.6719 -1.9366  0.1738
 7860SOL    HW224480   6.981   0.188   1.701  0.6580 -1.5242  0.3809
 7861SOL     OW24481   3.625   5.727   3.984 -0.6518  0.1744 -0.0129
 7861SOL    HW124482   3.588   5.789   3.916  1.9450  1.4274 -0.4217
 7861SOL    HW224483   3.638   5.776   4.070 -0.3836 -0.3390  0.2456
 7862SOL     OW24484   6.380   5.349   5.048  0.0085 -0.2142 -0.3907
 7862SOL    HW124485   6.351   5.321   4.956 -0.9559 -2.9685  0.6542
 7862SOL    HW224486   6.477   5.374   5.045  0.0051 -0.2245 -2.1291
 7863SOL     OW24487   0.101   4.996   4.385 -0.6404  0.3593  0.0147
 7863SOL    HW124488   0.078   4.922   4.449 -0.9952  0.4118 -0.0521
 7863SOL    HW224489   0.198   5.018   4.394  0.0330 -1.6350 -1.5407
 7864SOL     OW24490   6.347   2.820   4.893 -0.2870 -0.6593 -0.3978
 7864SOL    HW124491   6.318   2.735   4.937  1.2850 -0.7651  0.5399
 7864SOL    HW224492   6.373   2.886   4.963 -2.9693  1.2286 -1.0430
 7865SOL     OW24493   2.185   3.843   5.657 -0.0072  0.0077  0.3747
 7865SOL    HW124494   2.158   3.917   5.596  1.9138 -0.0520 -0.6389
 7865SOL    HW224495   2.169   3.870   5.752 -1.5995  0.7204 -0.0609
 7866SOL     OW24496   6.361   1.048   6.954  0.5056 -0.3950  0.2034
 7866SOL    HW124497   6.340   1.035   7.051 -1.2698  0.8052  0.0244
 7866SOL    HW224498   6.326   0.970   6.902 -0.7635  0.1185  0.2676
 7867SOL     OW24499   1.930   1.071   1.299  0.1573  0.2614 -0.5558
 7867SOL    HW124500   1.915   1.050   1.203  0.9703 -3.6270  0.0161
 7867SOL    HW224501   1.867   1.018   1.355  0.7402  1.2754  1.1410
 7868SOL     OW24502   5.289   2.909   1.337 -0.6808  0.5472 -0.1876
 7868SOL    HW124503   5.213   2.973   1.327 -2.7289 -1.9650 -2.1036
 7868SOL    HW224504   5.361   2.932   1.272 -1.8680  0.3365 -1.6126
 7869SOL     OW24505   6.995   4.023   0.368 -0.1246  0.3346  0.6339
 7869SOL    HW124506   6.940   4.042   0.450 -2.9483 -1.3527 -0.6986
 7869SOL    HW224507   6.941   4.043   0.287  2.6885  2.2193 -0.9400
 7870SOL     OW24508   6.060   0.331   2.403 -0.0344 -0.2167  0.0672
 7870SOL    HW124509   6.155   0.307   2.383  1.1482  3.5995  0.3359
 7870SOL    HW224510   6.049   0.343   2.501 -0.0411  1.7155 -0.1236
 7871SOL     OW24511   5.213   3.598   1.697  0.3542 -0.1484 -0.3749
 7871SOL    HW124512   5.260   3.512   1.675 -0.0393 -0.0178 -1.8247
 7871SOL    HW224513   5.128   3.604   1.645  1.8786  2.5245 -2.8928
 7872SOL     OW24514   6.531   2.788   2.977  0.8091 -0.1079 -0.1348
 7872SOL    HW124515   6.497   2.715   2.918  2.3582 -1.4061  0.4928
 7872SOL    HW224516   6.628   2.805   2.956  0.9245  0.5757  0.8793
 7873SOL     OW24517   5.393   4.913   6.049  0.1560 -0.0975  0.2842
 7873SOL    HW124518   5.436   4.829   6.082 -0.1413 -0.3843 -0.0460
 7873SOL    HW224519   5.442   4.947   5.969  1.1723  0.8670  1.2872
 7874SOL     OW24520   1.618   3.280   4.567 -0.1611 -0.5108 -0.1246
 7874SOL    HW124521   1.554   3.347   4.606  2.1238  0.5540  2.0975
 7874SOL    HW224522   1.663   3.319   4.487 -0.4664 -0.3024 -0.1983
 7875SOL     OW24523   5.098   5.361   0.388 -0.0708 -0.1947 -0.2928
 7875SOL    HW124524   5.164   5.419   0.342  0.4068 -0.3447  0.2002
 7875SOL    HW224525   5.093   5.384   0.485  0.6617 -1.4421  0.0676
 7876SOL     OW24526   3.861   1.804   4.531 -0.5304 -0.7684  0.5394
 7876SOL    HW124527   3.953   1.786   4.567 -0.0666  1.5199  0.6408
 7876SOL    HW224528   3.857   1.898   4.496 -1.7806 -1.9504 -2.8828
 7877SOL     OW24529   5.201   2.577   1.819  0.1861 -0.2870  0.4991
 7877SOL    HW124530   5.180   2.590   1.722 -0.1874  0.6086  0.6900
 7877SOL    HW224531   5.158   2.493   1.851  1.1271 -1.1171 -0.3385
 7878SOL     OW24532   1.432   5.336   1.401  0.0365 -0.2679  0.0734
 7878SOL    HW124533   1.478   5.424   1.387 -0.9622  0.4624  1.1192
 7878SOL    HW224534   1.492   5.275   1.453  0.3549  0.1845  0.2435
 7879SOL     OW24535   4.103   5.842   2.861 -0.2882 -0.6802  0.2608
 7879SOL    HW124536   4.113   5.911   2.789  2.6383 -0.6869  0.5498
 7879SOL    HW224537   4.114   5.886   2.950 -3.2400 -0.7865  0.7663
 7880SOL     OW24538   3.538   5.777   5.095 -0.3129  0.0887  0.4440
 7880SOL    HW124539   3.537   5.787   5.195  0.7964 -0.1226  0.4802
 7880SOL    HW224540   3.584   5.856   5.054  1.0493 -0.8015  0.2268
 7881SOL     OW24541   6.007   3.336   5.911  0.0114 -0.0973 -0.4621
 7881SOL    HW124542   6.065   3.387   5.976  0.4047  1.4454 -1.9540
 7881SOL    HW224543   6.054   3.251   5.885  1.6355  1.0635 -1.5513
 7882SOL     OW24544   1.573   0.957   5.433  0.1253  0.3428 -0.6850
 7882SOL    HW124545   1.598   1.003   5.518 -0.5871  0.2198 -0.4102
 7882SOL    HW224546   1.477   0.975   5.411  0.3893  0.6635 -1.6482
 7883SOL     OW24547   0.416   6.417   6.977  0.2313  0.1335 -0.0327
 7883SOL    HW124548   0.347   6.345   6.971 -0.1275  0.3942  0.8245
 7883SOL    HW224549   0.416   6.455   7.070  0.1563  1.4885 -0.5672
 7884SOL     OW24550   6.886   0.758   2.084  0.1908  0.2763  0.4688
 7884SOL    HW124551   6.834   0.704   2.018  0.4508 -1.3065  1.4842
 7884SOL    HW224552   6.982   0.730   2.081  0.6167  1.7163  0.0441
 7885SOL     OW24553   4.195   1.793   5.652 -0.1475 -0.0784  0.7546
 7885SOL    HW124554   4.123   1.729   5.625 -0.2844  0.2956  0.2269
 7885SOL    HW224555   4.284   1.755   5.629 -0.2068 -0.2702  0.8394
 7886SOL     OW24556   4.021   3.657   4.554  0.6906 -0.0215  0.4768
 7886SOL    HW124557   4.030   3.579   4.492 -0.8282 -0.6900  1.0455
 7886SOL    HW224558   4.108   3.671   4.602  1.0121 -1.3563  0.3384
 7887SOL     OW24559   4.824   2.902   2.309 -0.5090 -0.4932 -0.6520
 7887SOL    HW124560   4.917   2.932   2.326 -0.7738  0.3387 -0.6608
 7887SOL    HW224561   4.780   2.963   2.243 -1.5491  0.0254  0.4818
 7888SOL     OW24562   2.510   5.092   0.017  0.3152 -0.1537  0.0893
 7888SOL    HW124563   2.500   5.192   0.017  0.0769 -0.1489  1.5764
 7888SOL    HW224564   2.576   5.066   0.088 -1.3079 -1.1686  1.2834
 7889SOL     OW24565   0.610   4.961   2.834 -0.6910  0.4832 -0.5767
 7889SOL    HW124566   0.592   5.031   2.765  0.1848  0.3216 -0.9869
 7889SOL    HW224567   0.524   4.916   2.859 -1.4709  2.4432  0.5390
 7890SOL     OW24568   2.192   2.598   2.954  0.1351  0.2153 -0.1639
 7890SOL    HW124569   2.221   2.685   2.916  0.4910  0.2542  0.1874
 7890SOL    HW224570   2.145   2.613   3.041 -0.8342  0.1411 -0.6606
 7891SOL     OW24571   0.893   4.127   3.454  0.4254  0.6671 -0.2867
 7891SOL    HW124572   0.912   4.207   3.512  0.2949 -0.1555  0.9281
 7891SOL    HW224573   0.806   4.141   3.406  0.0025  0.9303  0.5333
 7892SOL     OW24574   1.338   4.384   2.121 -0.2191  0.6004  0.3196
 7892SOL    HW124575   1.353   4.362   2.217  0.8974 -0.1727 -0.0133
 7892SOL    HW224576   1.300   4.304   2.073 -1.4064  1.1837  0.2318
 7893SOL     OW24577   6.432   0.513   2.922  0.2654  0.1554  0.1002
 7893SOL    HW124578   6.435   0.445   2.849 -0.5509  1.0486 -0.7827
 7893SOL    HW224579   6.346   0.563   2.918  0.7054  1.0194  0.9585
 7894SOL     OW24580   0.120   0.099   0.520  0.1817  0.2779 -0.6204
 7894SOL    HW124581   0.046   0.083   0.455 -0.7704 -1.5272  0.8125
 7894SOL    HW224582   0.171   0.014   0.534  0.7817  0.7933  0.5117
 7895SOL     OW24583   4.123   0.280   0.553  0.4322  0.2094  0.5839
 7895SOL    HW124584   4.131   0.186   0.587  1.3776  0.5700  1.4128
 7895SOL    HW224585   4.140   0.282   0.455 -0.3140 -0.5818  0.4337
 7896SOL     OW24586   4.084   2.341   6.760  0.4198 -0.0349  0.0769
 7896SOL    HW124587   4.157   2.333   6.692 -0.7550  1.7672 -1.4750
 7896SOL    HW224588   4.121   2.380   6.844  1.2579  0.7752 -0.6592
 7897SOL     OW24589   5.333   0.676   6.380 -0.3482  0.2012  0.2687
 7897SOL    HW124590   5.240   0.703   6.402  0.1118  0.5126  1.9628
 7897SOL    HW224591   5.392   0.757   6.377 -0.2447  0.1094 -1.5932
 7898SOL     OW24592   4.435   6.780   6.037  0.1770  0.1827  0.9844
 7898SOL    HW124593   4.351   6.730   6.057  0.7180 -0.6022  1.3722
 7898SOL    HW224594   4.448   6.785   5.938 -0.5018  0.6279  0.9101
 7899SOL     OW24595   3.799   5.004   2.229  0.2808 -0.0393 -0.1564
 7899SOL    HW124596   3.789   5.003   2.130  1.6632 -0.1883 -0.3113
 7899SOL    HW224597   3.730   4.944   2.270 -1.8339  1.7807 -0.8353
 7900SOL     OW24598   1.574   5.051   5.303 -0.4825 -0.4457 -0.0510
 7900SOL    HW124599   1.546   5.147   5.306 -3.9298 -1.2956 -0.6048
 7900SOL    HW224600   1.674   5.045   5.304 -0.1169  2.9934  2.7972
 7901SOL     OW24601   0.587   1.354   4.752  0.3644  0.1747 -0.2773
 7901SOL    HW124602   0.622   1.362   4.845  1.6371 -1.7759 -0.5115
 7901SOL    HW224603   0.651   1.300   4.697  0.1535  2.1066 -2.5933
 7902SOL     OW24604   3.999   4.507   1.243  0.5841 -0.3172 -0.2670
 7902SOL    HW124605   3.913   4.485   1.289 -0.1201  0.0008 -1.3796
 7902SOL    HW224606   3.982   4.577   1.173  1.7496 -0.2636 -0.5113
 7903SOL     OW24607   4.993   6.311   1.313 -0.3633  0.1581  0.1804
 7903SOL    HW124608   5.029   6.356   1.395 -0.2586  0.0828  0.1762
 7903SOL    HW224609   4.894   6.319   1.311 -0.2969  1.0093 -0.1759
 7904SOL     OW24610   1.125   2.673   1.439 -0.1474 -0.3316 -0.6550
 7904SOL    HW124611   1.071   2.590   1.423  0.1671 -0.5005 -0.8317
 7904SOL    HW224612   1.077   2.751   1.399  0.1578 -0.6080 -1.5692
 7905SOL     OW24613   5.676   4.745   5.439  0.3341 -0.5275  0.6256
 7905SOL    HW124614   5.601   4.774   5.499  1.1014  0.1394  1.2901
 7905SOL    HW224615   5.738   4.685   5.489 -0.2180 -1.8101 -0.1888
 7906SOL     OW24616   2.919   4.221   6.542 -0.6885 -0.4204 -0.0158
 7906SOL    HW124617   2.828   4.186   6.517 -0.6240 -0.4173 -0.2572
 7906SOL    HW224618   2.981   4.144   6.556 -1.1801 -0.5154  1.9654
 7907SOL     OW24619   5.956   6.001   4.221 -0.0602  0.2151  0.5450
 7907SOL    HW124620   5.930   6.060   4.297  0.7692  0.2037  0.8463
 7907SOL    HW224621   5.975   6.057   4.140 -1.9936  0.1589  0.0059
 7908SOL     OW24622   5.627   6.009   5.393 -0.4889 -0.4567  0.1057
 7908SOL    HW124623   5.726   6.019   5.398 -0.6252  1.1287  0.0710
 7908SOL    HW224624   5.596   6.032   5.301 -1.0045  0.2139  0.4436
 7909SOL     OW24625   2.263   5.635   4.398  0.1614  0.5323  0.2593
 7909SOL    HW124626   2.217   5.604   4.481  0.1286 -0.5089 -0.1314
 7909SOL    HW224627   2.323   5.712   4.419  0.6717 -0.1561  1.3753
 7910SOL     OW24628   6.366   6.716   6.546  0.0851 -0.2132 -0.0890
 7910SOL    HW124629   6.437   6.649   6.525  1.3605  0.9487  0.4006
 7910SOL    HW224630   6.408   6.802   6.574 -1.5151  0.7918 -0.6322
 7911SOL     OW24631   4.056   0.454   5.186 -0.2194 -0.1690  0.2376
 7911SOL    HW124632   4.149   0.418   5.194 -0.2642 -0.6241 -1.0530
 7911SOL    HW224633   4.025   0.445   5.092 -0.6519  2.2793  0.0771
 7912SOL     OW24634   1.984   1.317   5.626 -0.0245 -0.1726  0.4263
 7912SOL    HW124635   2.013   1.231   5.666 -0.6985 -0.8290 -0.4424
 7912SOL    HW224636   1.896   1.304   5.580 -0.1089  0.9643  0.2335
 7913SOL     OW24637   2.408   6.383   5.060  0.3600 -0.0954  0.1659
 7913SOL    HW124638   2.433   6.410   4.967  0.0244 -0.3556  0.0015
 7913SOL    HW224639   2.376   6.289   5.061  1.0382 -0.3293  0.6653
 7914SOL     OW24640   5.765   3.073   5.330 -0.0355 -0.7363  0.0899
 7914SOL    HW124641   5.811   3.032   5.409 -0.1336  1.0984  1.1451
 7914SOL    HW224642   5.666   3.069   5.343 -0.0759 -1.1498 -0.3290
 7915SOL     OW24643   6.089   2.552   1.444 -0.1239 -0.2010 -0.1378
 7915SOL    HW124644   6.143   2.617   1.392  0.4350 -1.5510 -1.3309
 7915SOL    HW224645   6.006   2.529   1.392  0.1966 -1.1955 -0.2385
 7916SOL     OW24646   0.322   3.194   0.520  0.1981 -0.1648 -0.3718
 7916SOL    HW124647   0.298   3.289   0.542 -0.0225 -0.3433  0.1581
 7916SOL    HW224648   0.239   3.143   0.498  0.0346 -0.8363  1.6648
 7917SOL     OW24649   3.630   2.912   2.020  0.2660 -0.2057  0.2070
 7917SOL    HW124650   3.681   2.913   2.106  0.7815  1.9128 -0.0709
 7917SOL    HW224651   3.691   2.889   1.945  0.3484  0.2536  0.1309
 7918SOL     OW24652   2.330   2.498   1.706 -0.5056  0.4993 -0.1216
 7918SOL    HW124653   2.395   2.533   1.774  0.6752 -2.5589  0.4759
 7918SOL    HW224654   2.237   2.521   1.733  0.0262  0.5756  1.7636
 7919SOL     OW24655   6.164   4.343   5.551 -0.4351  0.8666 -0.3552
 7919SOL    HW124656   6.185   4.428   5.599 -1.3081 -0.7131  3.1100
 7919SOL    HW224657   6.085   4.357   5.491 -0.0842  2.6425 -0.4584
 7920SOL     OW24658   4.318   5.055   4.899 -0.6753 -0.7383 -0.0564
 7920SOL    HW124659   4.278   5.075   4.988  1.0357 -1.0865  0.8388
 7920SOL    HW224660   4.296   4.961   4.873  0.0025 -1.1094  0.6848
 7921SOL     OW24661   1.758   5.213   3.285 -0.0284  0.4859  0.1544
 7921SOL    HW124662   1.826   5.261   3.230 -0.9281  0.5262 -0.9424
 7921SOL    HW224663   1.666   5.229   3.248 -0.6048  0.0601  1.3352
 7922SOL     OW24664   0.297   0.772   3.593  0.0155 -0.0606  0.1815
 7922SOL    HW124665   0.349   0.850   3.629  1.4890 -1.9501  2.4891
 7922SOL    HW224666   0.354   0.690   3.594 -2.2452 -1.7551  0.4756
 7923SOL     OW24667   1.631   2.777   0.254  0.0924  0.0149 -0.3786
 7923SOL    HW124668   1.655   2.683   0.227  1.0064  0.4249 -1.0551
 7923SOL    HW224669   1.537   2.796   0.226  0.1525 -0.4511 -0.9264
 7924SOL     OW24670   6.388   0.613   3.265 -0.3737  0.2550  0.1309
 7924SOL    HW124671   6.414   0.517   3.272  0.3550  0.4043 -0.4258
 7924SOL    HW224672   6.356   0.633   3.172 -1.0940  0.4204  0.4033
 7925SOL     OW24673   1.908   4.440   6.404 -0.6976 -0.1412 -0.2438
 7925SOL    HW124674   1.813   4.428   6.435 -1.5570  2.9244 -1.3734
 7925SOL    HW224675   1.967   4.449   6.484 -1.7467  0.3280  0.5078
 7926SOL     OW24676   0.568   3.250   1.322  0.1410  0.2739 -0.2695
 7926SOL    HW124677   0.626   3.169   1.321  1.0133  0.8835 -0.3358
 7926SOL    HW224678   0.482   3.230   1.274 -0.4939 -1.1783  1.3629
 7927SOL     OW24679   1.953   0.590   0.807  0.1324 -0.4295  0.4500
 7927SOL    HW124680   1.983   0.496   0.821  0.1583 -0.4693  0.1475
 7927SOL    HW224681   1.876   0.591   0.743  0.1575 -0.2436  0.4212
 7928SOL     OW24682   5.742   1.137   4.424  0.2285 -0.2049  0.9875
 7928SOL    HW124683   5.811   1.065   4.426  1.0998  0.5263 -0.7663
 7928SOL    HW224684   5.748   1.190   4.509  0.9406 -0.9448  1.4161
 7929SOL     OW24685   1.472   0.529   6.653 -0.2917 -0.1410 -0.1146
 7929SOL    HW124686   1.434   0.559   6.740 -0.5409  0.3874 -0.3972
 7929SOL    HW224687   1.400   0.532   6.583  0.3031  1.1209 -0.7145
 7930SOL     OW24688   2.404   2.280   1.947 -0.4070 -0.1889 -0.0138
 7930SOL    HW124689   2.436   2.232   2.029  0.5135  0.9360  0.3179
 7930SOL    HW224690   2.438   2.234   1.866 -1.9014 -1.7205  0.1894
 7931SOL     OW24691   3.903   6.873   5.799  0.2030 -0.1433 -0.1773
 7931SOL    HW124692   3.873   6.964   5.769  0.2988  0.9549  2.6769
 7931SOL    HW224693   3.912   6.813   5.720  1.2013  2.6097 -2.3463
 7932SOL     OW24694   1.133   2.891   0.020 -0.3138  0.1933  0.2922
 7932SOL    HW124695   1.059   2.898   0.088  0.1164  0.0476  0.7815
 7932SOL    HW224696   1.136   2.976  -0.033 -0.5646  0.3727  0.5560
 7933SOL     OW24697   1.815   0.299   1.137  0.5828 -0.1317 -0.6257
 7933SOL    HW124698   1.845   0.204   1.142  0.4608 -0.2266 -1.5204
 7933SOL    HW224699   1.886   0.358   1.175  0.3977 -0.6143  0.5280
 7934SOL     OW24700   0.400   3.443   2.402  0.5139 -0.0134  0.3169
 7934SOL    HW124701   0.492   3.405   2.411  0.2843 -0.9986 -1.0774
 7934SOL    HW224702   0.383   3.508   2.476  3.2079  2.0944 -0.7268
 7935SOL     OW24703   4.440   0.922   2.531 -0.3270  0.3143  0.4828
 7935SOL    HW124704   4.441   0.845   2.468  0.3018  0.2457  0.5739
 7935SOL    HW224705   4.533   0.943   2.561 -0.3043  2.0241 -0.6540
 7936SOL     OW24706   6.189   4.861   4.567  0.2358  0.0180 -0.2562
 7936SOL    HW124707   6.225   4.821   4.483 -1.3882 -0.4617 -0.7659
 7936SOL    HW224708   6.209   4.959   4.568  0.9952 -0.1261 -0.8066
 7937SOL     OW24709   3.991   6.383   6.223  0.1163 -0.3965  0.2929
 7937SOL    HW124710   3.983   6.469   6.273 -0.8782 -1.1901  1.5557
 7937SOL    HW224711   4.071   6.333   6.257  1.3939  0.4991 -1.2523
 7938SOL     OW24712   1.881   0.416   3.228  0.2587 -0.1256  0.1483
 7938SOL    HW124713   1.967   0.465   3.236 -0.6572  1.3798  1.4838
 7938SOL    HW224714   1.808   0.481   3.206 -0.8886 -0.9806  1.2983
 7939SOL     OW24715   5.718   5.250   5.645  0.6383 -0.0844  0.0907
 7939SOL    HW124716   5.651   5.312   5.603  1.6094 -0.0786 -1.5189
 7939SOL    HW224717   5.719   5.163   5.595  2.3918  0.2013 -0.4113
 7940SOL     OW24718   3.788   3.430   5.530  0.3067 -0.1345 -0.3706
 7940SOL    HW124719   3.705   3.385   5.498 -0.6043 -1.1345  3.0240
 7940SOL    HW224720   3.868   3.388   5.486 -0.8191 -0.4284 -2.2646
 7941SOL     OW24721   5.050   4.132   0.742  0.0108 -0.0961  0.0633
 7941SOL    HW124722   4.954   4.115   0.763 -0.1629  0.4629 -0.2632
 7941SOL    HW224723   5.107   4.103   0.819 -0.3311 -1.4004 -0.1601
 7942SOL     OW24724   1.029   0.656   3.515 -0.0692  0.1820  0.3506
 7942SOL    HW124725   1.121   0.662   3.555 -0.4801 -0.4559  1.4438
 7942SOL    HW224726   1.009   0.560   3.492 -0.7014  0.2151  0.7351
 7943SOL     OW24727   3.278   6.339   2.857 -0.3496 -0.4746  0.3368
 7943SOL    HW124728   3.257   6.303   2.767  0.2188 -1.0018  0.4023
 7943SOL    HW224729   3.377   6.356   2.864 -0.4064 -0.3101  0.8079
 7944SOL     OW24730   0.358   3.282   6.323  0.1977 -0.0815 -0.3269
 7944SOL    HW124731   0.405   3.214   6.380 -0.4358  0.6838  1.1641
 7944SOL    HW224732   0.264   3.254   6.307  0.5750 -0.6454 -1.6358
 7945SOL     OW24733   6.528   3.674   6.987 -0.2677  0.1928 -0.3579
 7945SOL    HW124734   6.545   3.591   7.040 -0.4437  0.4934  0.1758
 7945SOL    HW224735   6.457   3.657   6.919  0.9661 -0.6046 -1.4862
 7946SOL     OW24736   0.578   5.912   0.883 -0.2273  0.1563  0.3204
 7946SOL    HW124737   0.664   5.943   0.923  0.5802 -0.3097 -0.9801
 7946SOL    HW224738   0.595   5.830   0.828 -1.5671 -0.1289  0.2968
 7947SOL     OW24739   2.350   2.076   6.131  0.3525  0.0004 -0.2751
 7947SOL    HW124740   2.389   2.066   6.040  0.3928 -0.0652 -0.2511
 7947SOL    HW224741   2.322   1.986   6.165  2.3092 -0.3256  0.6504
 7948SOL     OW24742   1.323   3.599   5.090 -0.6712 -0.6698  0.3026
 7948SOL    HW124743   1.288   3.581   5.182 -0.5555 -2.5506  0.0249
 7948SOL    HW224744   1.398   3.535   5.071 -2.2787 -1.9878 -1.9716
 7949SOL     OW24745   0.638   0.934   3.569  0.3366 -0.1831  0.0950
 7949SOL    HW124746   0.666   0.844   3.534  0.7948 -0.6168  1.5023
 7949SOL    HW224747   0.552   0.961   3.525  0.5619 -0.9788 -0.8709
 7950SOL     OW24748   5.925   5.821   0.303  0.0641 -0.3384  0.3829
 7950SOL    HW124749   5.991   5.887   0.339  0.8435 -1.7246  1.5787
 7950SOL    HW224750   5.900   5.756   0.374 -1.0993 -1.0331 -0.6201
 7951SOL     OW24751   5.783   5.387   3.858 -0.1503  0.1888  0.0200
 7951SOL    HW124752   5.789   5.446   3.778 -0.1316 -0.9103 -0.8238
 7951SOL    HW224753   5.756   5.441   3.937 -0.2525  1.2945 -0.7366
 7952SOL     OW24754   0.085   1.219   6.353  0.1228  0.2574  0.4256
 7952SOL    HW124755   0.154   1.174   6.296 -0.8096  0.1987 -0.6977
 7952SOL    HW224756   0.108   1.207   6.449  2.3634  1.3466  0.0765
 7953SOL     OW24757   6.890   3.744   6.747  0.2354  0.1475  0.0888
 7953SOL    HW124758   6.792   3.760   6.748  0.2748  0.5241 -0.8722
 7953SOL    HW224759   6.935   3.809   6.808  0.0482  1.3022 -0.9498
 7954SOL     OW24760   0.440   0.046   0.154 -0.3734 -0.1431  1.0681
 7954SOL    HW124761   0.532   0.082   0.137 -0.7924  0.4018 -0.2163
 7954SOL    HW224762   0.372   0.111   0.118 -1.2433 -0.7847  1.5132
 7955SOL     OW24763   0.815   6.245   1.750  0.8049  0.3360  0.1252
 7955SOL    HW124764   0.797   6.307   1.674  1.4289  0.6684  0.2489
 7955SOL    HW224765   0.858   6.162   1.716  0.4595  0.1918  0.0313
 7956SOL     OW24766   3.254   6.382   4.824 -0.3068  0.2348 -0.0094
 7956SOL    HW124767   3.253   6.479   4.800 -1.3151  0.9099  2.4516
 7956SOL    HW224768   3.254   6.327   4.740 -0.9140  2.3335 -1.4737
 7957SOL     OW24769   2.175   0.538   6.529  0.5323 -0.0588  0.3600
 7957SOL    HW124770   2.168   0.637   6.515  0.8208  0.0305  0.8361
 7957SOL    HW224771   2.084   0.499   6.541  0.3158 -0.0263 -0.9547
 7958SOL     OW24772   0.906   1.172   6.477 -0.2984 -0.2611  0.1138
 7958SOL    HW124773   0.990   1.118   6.476 -0.2232 -0.1464  0.2093
 7958SOL    HW224774   0.923   1.261   6.435 -0.6566 -0.6552 -0.8722
 7959SOL     OW24775   4.642   0.085   4.190  0.4253  0.2448  0.1481
 7959SOL    HW124776   4.595   0.021   4.251 -0.5581  2.1271  1.4597
 7959SOL    HW224777   4.595   0.086   4.102 -1.3688  1.2252  1.0603
 7960SOL     OW24778   2.602   6.174   1.811  0.1011 -0.2134 -0.0949
 7960SOL    HW124779   2.577   6.081   1.784 -1.4423  0.5865 -1.5643
 7960SOL    HW224780   2.533   6.210   1.875  0.0061  0.3608 -0.5167
 7961SOL     OW24781   3.057   5.612   3.351  0.5360 -0.2139 -0.5596
 7961SOL    HW124782   3.043   5.526   3.302 -1.7897  0.0780 -0.5514
 7961SOL    HW224783   2.980   5.673   3.332  0.5368  0.6477  1.8844
 7962SOL     OW24784   1.548   2.687   3.110 -0.0639 -0.1817  0.4360
 7962SOL    HW124785   1.501   2.605   3.078 -0.1516  0.5424 -1.4167
 7962SOL    HW224786   1.481   2.757   3.133  0.0206 -0.5115  1.7865
 7963SOL     OW24787   3.278   1.068   0.749  0.2804  0.3390  0.7032
 7963SOL    HW124788   3.264   1.057   0.651  1.2684  0.7981  0.4974
 7963SOL    HW224789   3.325   0.987   0.785 -0.3322  0.0470  0.8566
 7964SOL     OW24790   2.377   6.114   2.977  0.5734  0.4794 -0.4364
 7964SOL    HW124791   2.333   6.204   2.974 -1.1932 -0.3676 -0.9477
 7964SOL    HW224792   2.440   6.105   2.900  0.0056  0.9026 -0.9548
 7965SOL     OW24793   3.684   5.365   5.307 -0.5065  0.0070 -0.1495
 7965SOL    HW124794   3.763   5.360   5.247 -2.2692 -0.5338 -2.5875
 7965SOL    HW224795   3.696   5.440   5.372  1.1642  1.1604 -1.6960
 7966SOL     OW24796   2.066   3.391   4.774  0.1134 -0.5760  0.2465
 7966SOL    HW124797   2.054   3.450   4.854 -0.2325 -0.7883  0.3563
 7966SOL    HW224798   2.093   3.299   4.804 -0.6733 -0.8431  0.1736
 7967SOL     OW24799   6.177   2.658   3.161 -0.0870 -0.1162 -0.6757
 7967SOL    HW124800   6.095   2.617   3.121 -0.9124 -0.9947  1.6888
 7967SOL    HW224801   6.220   2.592   3.223  0.9840  1.1696  0.0047
 7968SOL     OW24802   5.592   6.454   3.501 -0.0746 -0.0132 -0.0812
 7968SOL    HW124803   5.607   6.356   3.505  0.0641 -0.0576 -1.3094
 7968SOL    HW224804   5.502   6.475   3.540 -0.8652 -0.8463 -1.3733
 7969SOL     OW24805   6.146   4.157   2.844 -0.6161 -0.7485 -0.1046
 7969SOL    HW124806   6.056   4.183   2.880 -0.2643  0.0010  0.2731
 7969SOL    HW224807   6.200   4.114   2.916 -1.0146 -2.1029 -0.5989
 7970SOL     OW24808   2.173   6.211   4.691  0.6843 -0.4966  0.2764
 7970SOL    HW124809   2.125   6.237   4.775  1.5372 -0.1644  0.6701
 7970SOL    HW224810   2.224   6.289   4.656 -1.1850 -0.0339 -1.6515
 7971SOL     OW24811   6.409   1.315   1.681  0.1413  0.2231  0.5472
 7971SOL    HW124812   6.335   1.326   1.747  0.8143 -0.9129  1.5110
 7971SOL    HW224813   6.471   1.243   1.711 -0.1422 -1.1493 -1.8609
 7972SOL     OW24814   4.687   0.901   4.419  0.3615  0.2463 -0.3506
 7972SOL    HW124815   4.684   0.923   4.322  1.8253  0.8027 -0.3050
 7972SOL    HW224816   4.777   0.927   4.456  0.8562 -2.4535  0.5428
 7973SOL     OW24817   0.161   3.271   1.397 -0.2923  0.5821  0.6018
 7973SOL    HW124818   0.068   3.247   1.423 -0.1432 -0.5563  0.1731
 7973SOL    HW224819   0.216   3.288   1.479  0.0745 -2.5554  1.1651
 7974SOL     OW24820   5.346   0.473   5.522  0.4350 -0.6228 -0.3794
 7974SOL    HW124821   5.443   0.494   5.522  0.1608  0.6834 -0.6400
 7974SOL    HW224822   5.321   0.433   5.610  1.0841 -0.3920 -0.0834
 7975SOL     OW24823   5.253   0.552   1.996 -0.0365  0.3103  0.2178
 7975SOL    HW124824   5.325   0.526   1.932 -0.1720  0.6854 -0.0907
 7975SOL    HW224825   5.218   0.642   1.972  0.0499  0.5415  0.9468
 7976SOL     OW24826   3.393   3.435   6.148 -0.1529 -0.2164  0.3120
 7976SOL    HW124827   3.313   3.413   6.204 -0.8101 -1.5630 -1.0913
 7976SOL    HW224828   3.466   3.369   6.166 -0.9310 -1.6512 -1.4817
 7977SOL     OW24829   0.752   6.551   4.903  0.2061  0.0594  0.2067
 7977SOL    HW124830   0.768   6.642   4.941  2.0812  0.4722 -1.4383
 7977SOL    HW224831   0.736   6.486   4.978  1.8362  1.1906  1.6011
 7978SOL     OW24832   4.781   2.882   1.008 -0.1521  0.0575  0.0872
 7978SOL    HW124833   4.879   2.866   1.000  0.0122 -0.7353  2.5784
 7978SOL    HW224834   4.731   2.800   0.981 -0.1576  0.4998 -1.2899
 7979SOL     OW24835   1.276   1.852   3.183 -0.0706 -0.6653  0.0436
 7979SOL    HW124836   1.217   1.883   3.109 -0.7672  1.0963  1.2532
 7979SOL    HW224837   1.278   1.921   3.255  0.2721 -2.4560  1.8544
 7980SOL     OW24838   1.627   0.987   2.020  0.5489  0.8877 -0.4243
 7980SOL    HW124839   1.623   1.085   2.041  1.9892  0.9675 -0.3668
 7980SOL    HW224840   1.677   0.973   1.935  0.2386  0.2130 -0.5005
 7981SOL     OW24841   5.951   6.173   5.084 -0.6979 -0.1050  0.6572
 7981SOL    HW124842   6.026   6.217   5.036 -0.3334 -2.5793 -1.2384
 7981SOL    HW224843   5.864   6.215   5.056 -0.2616  0.5789  0.3139
 7982SOL     OW24844   0.782   1.579   6.590 -0.6522  0.2468  0.1945
 7982SOL    HW124845   0.815   1.605   6.499 -0.9134  0.6440  0.2131
 7982SOL    HW224846   0.852   1.525   6.637 -0.2002  0.7124  0.0649
 7983SOL     OW24847   0.683   4.841   1.053  0.2904 -0.2671 -0.4777
 7983SOL    HW124848   0.760   4.800   1.004 -0.2525 -2.4963  0.4161
 7983SOL    HW224849   0.625   4.890   0.988  1.3105 -0.3853 -1.5158
 7984SOL     OW24850   1.955   1.590   5.700  0.1009  0.1520  0.2681
 7984SOL    HW124851   1.902   1.526   5.645  0.4470 -0.0642  0.1863
 7984SOL    HW224852   1.895   1.664   5.732 -0.1609  0.1254 -0.1556
 7985SOL     OW24853   3.858   1.656   2.093 -0.3668 -0.0150  0.1340
 7985SOL    HW124854   3.776   1.616   2.050  1.0322 -2.7619 -0.1837
 7985SOL    HW224855   3.911   1.705   2.024  0.1753 -1.5534 -0.5781
 7986SOL     OW24856   5.141   4.078   1.374  0.3041 -0.6989  0.7127
 7986SOL    HW124857   5.216   4.032   1.421 -0.3227 -0.4626  2.0135
 7986SOL    HW224858   5.091   4.135   1.440  0.0444  0.5151 -0.4938
 7987SOL     OW24859   1.405   6.075   3.669 -0.6051  0.2688 -0.3636
 7987SOL    HW124860   1.356   6.034   3.592 -1.8078  0.9425  0.0236
 7987SOL    HW224861   1.383   6.024   3.753  1.7678 -1.3414 -0.6026
 7988SOL     OW24862   5.610   3.611   4.854  0.1830  0.2283 -0.3608
 7988SOL    HW124863   5.600   3.590   4.951 -2.2044 -1.1992 -0.8466
 7988SOL    HW224864   5.608   3.710   4.841 -0.5060  0.4016  0.9535
 7989SOL     OW24865   1.921   3.835   0.844 -0.4192 -0.2763  0.0495
 7989SOL    HW124866   1.870   3.915   0.875 -0.3073 -0.7504  1.5382
 7989SOL    HW224867   1.875   3.752   0.876  0.4539 -0.7514  0.0992
 7990SOL     OW24868   5.376   2.295   2.858 -0.0208 -0.3970  0.3037
 7990SOL    HW124869   5.369   2.244   2.772 -1.5329 -0.1929  0.2713
 7990SOL    HW224870   5.472   2.308   2.881  0.4134 -1.6982 -0.6121
 7991SOL     OW24871   6.855   0.947   5.791 -0.1465 -0.7509  0.2838
 7991SOL    HW124872   6.834   0.996   5.876  0.0842  1.4517 -0.8632
 7991SOL    HW224873   6.881   1.012   5.721 -0.9770 -2.4519 -1.7083
 7992SOL     OW24874   5.599   6.485   5.758 -0.2883  0.2589  0.3087
 7992SOL    HW124875   5.609   6.386   5.762 -1.3612  0.1297  0.2394
 7992SOL    HW224876   5.642   6.527   5.838  1.6370 -0.1118 -0.4901
 7993SOL     OW24877   0.703   6.990   1.734  0.2470 -0.0702  0.5176
 7993SOL    HW124878   0.772   7.061   1.748 -1.2687  1.5046  0.3173
 7993SOL    HW224879   0.613   7.032   1.724 -0.5844 -1.9864 -0.5905
 7994SOL     OW24880   1.111   2.275   6.461 -0.0536 -0.1504  0.2133
 7994SOL    HW124881   1.172   2.268   6.381  0.0282 -0.0849  0.2695
 7994SOL    HW224882   1.163   2.253   6.543 -0.7174 -2.6894  0.0350
 7995SOL     OW24883   4.015   0.238   6.875  0.0945 -0.1156  0.4152
 7995SOL    HW124884   4.011   0.170   6.949  1.3451  0.4171  0.9969
 7995SOL    HW224885   3.934   0.297   6.880 -1.0267 -1.5398 -0.1147
 7996SOL     OW24886   2.152   4.817   4.128  0.2768 -0.1095 -0.6606
 7996SOL    HW124887   2.077   4.758   4.159  0.2297 -0.0458 -0.6531
 7996SOL    HW224888   2.204   4.849   4.206  0.5157 -0.4237 -0.6894
 7997SOL     OW24889   2.614   1.519   3.575 -0.4563 -0.0868  0.3271
 7997SOL    HW124890   2.517   1.511   3.552 -0.4222 -0.4390  0.3048
 7997SOL    HW224891   2.667   1.540   3.493 -0.1668 -2.6010 -0.2243
 7998SOL     OW24892   6.360   4.557   0.678 -0.5562  0.5164  0.1094
 7998SOL    HW124893   6.340   4.464   0.708  0.4594  0.1774 -0.2337
 7998SOL    HW224894   6.298   4.582   0.604  0.6070 -0.7449 -1.3587
 7999SOL     OW24895   0.602   3.710   4.786  0.1903  0.5179 -0.3077
 7999SOL    HW124896   0.663   3.631   4.777  1.9168  1.9383 -2.0261
 7999SOL    HW224897   0.515   3.691   4.742  0.4619 -0.5360 -0.4117
 8000SOL     OW24898   0.756   3.530   3.317  0.2011 -0.5206 -0.0340
 8000SOL    HW124899   0.745   3.434   3.345  1.2658 -0.4458  0.7005
 8000SOL    HW224900   0.853   3.551   3.310 -0.0298  0.3758 -0.7180
 8001SOL     OW24901   3.907   1.699   5.473  0.2135  0.2426 -0.3774
 8001SOL    HW124902   3.896   1.768   5.401  1.3235  0.7098 -0.1217
 8001SOL    HW224903   3.916   1.745   5.562  0.9923 -0.2183 -0.2063
 8002SOL     OW24904   3.303   6.246   4.594 -0.4663 -0.5295 -0.2644
 8002SOL    HW124905   3.331   6.325   4.540 -2.3720 -0.2900 -1.0021
 8002SOL    HW224906   3.343   6.163   4.555  1.5410  0.0318  0.5095
 8003SOL     OW24907   4.934   6.406   0.114 -0.5603 -0.1507  0.3200
 8003SOL    HW124908   5.025   6.448   0.120  0.1390 -1.4122 -0.8340
 8003SOL    HW224909   4.893   6.428   0.026 -1.4425  0.4948  0.8772
 8004SOL     OW24910   2.001   5.156   6.882 -0.2672 -0.7396  0.1315
 8004SOL    HW124911   2.006   5.140   6.783 -1.7885  0.4320 -0.1710
 8004SOL    HW224912   1.914   5.200   6.904  0.8350  0.7697  1.7417
 8005SOL     OW24913   6.456   0.902   6.486  0.2088 -0.5280 -0.2977
 8005SOL    HW124914   6.398   0.983   6.490  1.9291  0.7292  0.9970
 8005SOL    HW224915   6.400   0.820   6.495 -1.7375  0.3820 -2.9591
 8006SOL     OW24916   2.074   6.740   6.232 -0.3472 -0.1948  0.0548
 8006SOL    HW124917   2.028   6.710   6.315 -1.2804  0.1665 -0.3191
 8006SOL    HW224918   2.068   6.840   6.224  1.1863 -0.0541  0.3921
 8007SOL     OW24919   3.083   5.429   1.389 -0.0308  0.6477  0.4336
 8007SOL    HW124920   3.010   5.494   1.368 -0.1850  0.4928  0.4853
 8007SOL    HW224921   3.134   5.461   1.469  0.1921  0.9441  0.1742
 8008SOL     OW24922   2.287   3.041   0.964  0.3755  0.3870  1.0582
 8008SOL    HW124923   2.328   2.971   0.904 -0.5676  1.1295 -0.5078
 8008SOL    HW224924   2.346   3.121   0.967 -0.4841  1.1190 -0.5070
 8009SOL     OW24925   6.817   4.700   4.190  0.3393 -0.3710  0.1616
 8009SOL    HW124926   6.905   4.742   4.165  0.3601 -0.3087  0.3370
 8009SOL    HW224927   6.834   4.625   4.254  0.2038  0.1079  0.7655
 8010SOL     OW24928   3.447   2.295   5.327 -0.0489 -0.5033 -0.0025
 8010SOL    HW124929   3.425   2.276   5.423  0.0120  1.6086  0.4656
 8010SOL    HW224930   3.367   2.333   5.281  0.1319 -0.8514 -0.6211
 8011SOL     OW24931   4.612   0.811   5.380  0.2099  0.0656  0.5489
 8011SOL    HW124932   4.607   0.773   5.473  1.2695 -0.3280  0.4651
 8011SOL    HW224933   4.554   0.757   5.319 -2.2957  1.6695  1.3603
 8012SOL     OW24934   5.074   6.256   6.875 -0.3369  0.6057 -0.1202
 8012SOL    HW124935   5.081   6.213   6.785  0.8234  0.4321  0.0378
 8012SOL    HW224936   4.989   6.307   6.880 -0.8155 -0.0599 -1.0185
 8013SOL     OW24937   0.922   5.683   2.101  0.2845  0.3560  0.4738
 8013SOL    HW124938   0.940   5.696   2.199 -0.7962 -0.1252  0.7600
 8013SOL    HW224939   1.004   5.702   2.049  0.8105  0.8726  1.4615
 8014SOL     OW24940   2.945   0.696   4.596  0.7367 -0.0026 -0.1340
 8014SOL    HW124941   2.942   0.654   4.686  1.1484  1.3751  0.5494
 8014SOL    HW224942   2.869   0.760   4.585  1.2321  0.5718 -0.3613
 8015SOL     OW24943   0.096   0.609   2.019  0.1200  0.1867 -0.4169
 8015SOL    HW124944   0.123   0.615   1.923 -0.3661 -0.8392 -0.6341
 8015SOL    HW224945   0.057   0.518   2.037 -0.6094  0.6678  0.5374
 8016SOL     OW24946   0.296   2.022   5.280 -0.4087  0.6180  0.1763
 8016SOL    HW124947   0.233   1.951   5.312 -0.5780  0.0149 -1.3953
 8016SOL    HW224948   0.271   2.050   5.187  2.7041 -1.0747 -1.3479
 8017SOL     OW24949   4.268   0.283   6.543  0.3209  0.1989 -0.1187
 8017SOL    HW124950   4.241   0.241   6.630 -0.8796 -0.1252 -0.6297
 8017SOL    HW224951   4.365   0.307   6.546  0.4359 -0.3628  1.0838
 8018SOL     OW24952   1.848   2.219   4.656  0.3461 -0.0932  0.0265
 8018SOL    HW124953   1.789   2.264   4.722  0.7349 -0.8651  0.9109
 8018SOL    HW224954   1.928   2.277   4.638 -0.2408  0.5593 -0.5229
 8019SOL     OW24955   0.708   3.323   4.171  0.1195  0.7040 -0.1082
 8019SOL    HW124956   0.703   3.332   4.270 -2.9376 -0.7181 -0.0199
 8019SOL    HW224957   0.799   3.289   4.145  0.5099 -0.3460  2.3388
 8020SOL     OW24958   0.012   4.929   3.430  0.1374 -0.2845  0.1961
 8020SOL    HW124959   0.027   4.952   3.334  2.1898 -0.6639  0.3826
 8020SOL    HW224960   0.022   5.012   3.486  2.6062 -0.6438  0.3896
 8021SOL     OW24961   4.499   5.692   2.229 -0.0021  0.5741 -0.6242
 8021SOL    HW124962   4.577   5.734   2.275  0.1026 -0.7284  0.4606
 8021SOL    HW224963   4.532   5.625   2.162 -0.1761  1.2117 -1.3518
 8022SOL     OW24964   0.427   2.983   5.094  0.1683  0.0176 -0.1609
 8022SOL    HW124965   0.449   2.890   5.123 -0.2083 -0.0262 -0.0110
 8022SOL    HW224966   0.383   3.032   5.168  0.4755  0.3584 -0.2010
 8023SOL     OW24967   6.801   3.389   0.508 -0.3155  0.7611 -0.0121
 8023SOL    HW124968   6.717   3.434   0.539 -0.2290  1.3511 -0.6083
 8023SOL    HW224969   6.880   3.434   0.550 -0.3179 -0.3426  1.2271
 8024SOL     OW24970   3.476   6.005   6.489  0.8194 -0.5934  0.0792
 8024SOL    HW124971   3.398   6.019   6.551  0.0267 -1.1135 -0.7779
 8024SOL    HW224972   3.533   5.930   6.523  0.2780 -1.0121  0.0644
 8025SOL     OW24973   3.957   0.461   4.288 -0.4089 -0.1335 -0.0894
 8025SOL    HW124974   3.931   0.433   4.380 -2.5518  0.2713 -0.5090
 8025SOL    HW224975   3.874   0.477   4.234  0.7157 -2.6593 -2.8230
 8026SOL     OW24976   4.838   4.594   4.165 -0.3423 -0.5930 -0.4862
 8026SOL    HW124977   4.789   4.595   4.077  0.5502  1.0051 -1.0055
 8026SOL    HW224978   4.871   4.686   4.185  0.1991 -1.1153  1.1379
 8027SOL     OW24979   0.923   6.121   2.955 -0.1529 -0.7905  0.3268
 8027SOL    HW124980   0.833   6.147   2.992  0.6996  0.5948  1.5669
 8027SOL    HW224981   0.911   6.064   2.874 -2.1522 -0.3066  0.2346
 8028SOL     OW24982   6.065   6.027   3.498 -0.1079  0.4828 -0.0627
 8028SOL    HW124983   6.133   6.030   3.424 -0.0632 -0.9000 -0.1173
 8028SOL    HW224984   6.106   5.981   3.577 -0.4406  1.1732  0.5142
 8029SOL     OW24985   2.176   6.980   2.453  0.5130  1.1407  0.1135
 8029SOL    HW124986   2.130   7.040   2.518  0.6174  1.8095 -0.4153
 8029SOL    HW224987   2.275   6.991   2.462  0.5901 -0.1519  1.1154
 8030SOL     OW24988   2.010   5.550   0.126  0.2099  0.4852 -0.0978
 8030SOL    HW124989   2.055   5.471   0.084 -2.3775 -1.2990  0.2290
 8030SOL    HW224990   1.910   5.539   0.119 -0.2558  2.9572  1.4277
 8031SOL     OW24991   4.864   0.972   2.863 -0.1008  0.4569  0.2880
 8031SOL    HW124992   4.902   0.946   2.951 -0.2900 -1.5785 -0.1937
 8031SOL    HW224993   4.867   1.072   2.853  0.9885  0.6290  2.0844
 8032SOL     OW24994   0.418   4.165   1.816 -0.5872  0.7499  0.0653
 8032SOL    HW124995   0.453   4.097   1.751 -0.1405  0.7265  0.3278
 8032SOL    HW224996   0.319   4.153   1.826 -0.1577 -1.8833  2.3944
 8033SOL     OW24997   0.957   3.646   5.411 -0.6589 -0.0519 -0.2047
 8033SOL    HW124998   1.032   3.643   5.345 -0.8216  0.2939 -0.4066
 8033SOL    HW224999   0.935   3.741   5.433 -0.0045 -0.1604  1.0393
 8034SOL     OW25000   0.651   3.418   5.620 -0.2543  0.3693 -0.1973
 8034SOL    HW125001   0.638   3.378   5.710 -0.5070  0.1546 -0.3266
 8034SOL    HW225002   0.626   3.515   5.622  1.6529  0.8892  0.4477
 8035SOL     OW25003   5.311   0.077   1.183 -0.0421  0.4676  0.2170
 8035SOL    HW125004   5.244   0.139   1.224  1.2912  0.6503  2.2471
 8035SOL    HW225005   5.319  -0.006   1.239  1.5186  0.5142  0.1105
 8036SOL     OW25006   4.299   2.837   1.153  0.3456  0.5753  0.4490
 8036SOL    HW125007   4.361   2.758   1.159  0.1883  0.5013  1.2587
 8036SOL    HW225008   4.267   2.860   1.244 -1.2769  0.2543 -0.0064
 8037SOL     OW25009   0.929   2.936   5.429  0.6834 -0.2899  0.0220
 8037SOL    HW125010   0.939   3.017   5.371 -1.9145  1.0784  1.2825
 8037SOL    HW225011   1.001   2.936   5.498  1.0810  0.6273 -0.3726
 8038SOL     OW25012   3.936   4.617   0.757 -0.7274  0.4982  0.1553
 8038SOL    HW125013   3.979   4.532   0.788  0.2047  0.6992 -0.5468
 8038SOL    HW225014   3.938   4.621   0.657 -1.8926  0.7766  0.1318
 8039SOL     OW25015   2.323   2.790   3.736 -0.1007 -0.5110  0.2369
 8039SOL    HW125016   2.306   2.794   3.834  0.9482 -2.4083  0.5410
 8039SOL    HW225017   2.325   2.883   3.699 -0.1934  0.2595  2.0562
 8040SOL     OW25018   3.488   3.146   0.400  0.2266 -0.8081 -0.0540
 8040SOL    HW125019   3.398   3.141   0.442 -0.3515 -0.8497 -1.2568
 8040SOL    HW225020   3.558   3.148   0.471 -0.7451 -0.0804  0.9163
 8041SOL     OW25021   3.017   5.856   5.277 -0.3196 -0.1100  0.1391
 8041SOL    HW125022   3.005   5.873   5.374  0.1577  1.5183 -0.0576
 8041SOL    HW225023   2.955   5.914   5.224  1.3368  1.0906 -0.5757
 8042SOL     OW25024   2.834   6.245   5.427 -0.5233  0.5859 -0.0987
 8042SOL    HW125025   2.912   6.264   5.487  0.4146 -1.7256 -0.4544
 8042SOL    HW225026   2.850   6.158   5.379 -2.3599  1.1314 -1.8375
 8043SOL     OW25027   0.145   5.315   5.316 -0.5903 -0.0854  0.4927
 8043SOL    HW125028   0.052   5.311   5.353 -0.4896  1.1431  0.9430
 8043SOL    HW225029   0.184   5.406   5.334  0.3981 -0.3083 -0.4183
 8044SOL     OW25030   0.756   1.531   5.525 -0.6767 -0.8111  0.4556
 8044SOL    HW125031   0.802   1.444   5.546 -0.4082 -0.8073 -0.1244
 8044SOL    HW225032   0.768   1.594   5.602 -0.4513 -1.1131  0.6708
 8045SOL     OW25033   2.024   1.083   6.738 -0.3309  0.1896 -0.5860
 8045SOL    HW125034   2.079   1.009   6.700  0.4743  0.9376 -0.9052
 8045SOL    HW225035   1.927   1.057   6.734 -0.0367 -1.0345 -0.2408
 8046SOL     OW25036   3.657   6.396   3.217  0.0846 -0.1775 -0.5099
 8046SOL    HW125037   3.721   6.412   3.142  0.6078  0.8881  0.1481
 8046SOL    HW225038   3.703   6.409   3.304 -0.3378 -2.0991  0.0493
 8047SOL     OW25039   2.546   1.904   2.016 -0.1761 -0.0162 -0.6133
 8047SOL    HW125040   2.578   1.920   1.923  1.6614  2.2464  0.3289
 8047SOL    HW225041   2.545   1.990   2.067  0.0887 -1.3680  1.8315
 8048SOL     OW25042   1.841   2.852   2.130 -0.1886 -0.8608 -0.0520
 8048SOL    HW125043   1.830   2.825   2.225 -1.1989 -0.4580 -0.0451
 8048SOL    HW225044   1.776   2.802   2.073 -0.7498  0.1063 -0.2926
 8049SOL     OW25045   4.632   5.447   0.670  0.0166 -0.1516 -0.1013
 8049SOL    HW125046   4.698   5.375   0.650  0.9127  0.7458 -0.5026
 8049SOL    HW225047   4.668   5.535   0.637 -0.1793  0.7911  2.0450
 8050SOL     OW25048   2.554   6.265   5.833  0.5425  0.7291  0.4263
 8050SOL    HW125049   2.518   6.244   5.742 -0.0557  1.4022  0.5010
 8050SOL    HW225050   2.541   6.362   5.853 -0.4738  0.3622  1.7255
 8051SOL     OW25051   3.968   3.692   4.094  0.0464 -0.0051  0.6836
 8051SOL    HW125052   4.025   3.638   4.033  1.1787  0.1667  1.5482
 8051SOL    HW225053   3.921   3.763   4.042  2.5786  1.4830  0.2293
 8052SOL     OW25054   5.717   2.739   6.829  0.0981  0.5390 -0.2602
 8052SOL    HW125055   5.718   2.797   6.748 -0.9977  2.4617  1.0130
 8052SOL    HW225056   5.626   2.701   6.842  0.6260 -0.9095 -0.6675
 8053SOL     OW25057   0.260   6.830   3.269 -0.3626 -0.5338 -0.2406
 8053SOL    HW125058   0.347   6.877   3.256 -1.0174  1.4227  1.7838
 8053SOL    HW225059   0.276   6.742   3.314  0.6030 -0.6315 -0.7433
 8054SOL     OW25060   5.075   4.552   2.691 -0.1571  0.6016 -0.1605
 8054SOL    HW125061   5.104   4.642   2.661  0.9936  0.5664  0.7686
 8054SOL    HW225062   5.061   4.493   2.612 -1.9514  1.8532 -0.8423
 8055SOL     OW25063   2.663   5.664   3.721  0.4692  0.1593 -0.2584
 8055SOL    HW125064   2.610   5.674   3.806 -0.4227  0.9676 -0.8911
 8055SOL    HW225065   2.667   5.567   3.696  1.7127 -0.2256  1.2898
 8056SOL     OW25066   4.023   0.051   1.642 -0.0967  0.4689 -0.0020
 8056SOL    HW125067   3.934   0.007   1.651 -0.4281  0.9981 -0.6256
 8056SOL    HW225068   4.092  -0.004   1.689 -0.8533  0.3847  1.0437
 8057SOL     OW25069   1.312   3.764   1.681  0.3103  0.1258 -0.6788
 8057SOL    HW125070   1.342   3.671   1.658 -1.3606 -1.8301  3.9668
 8057SOL    HW225071   1.225   3.783   1.637  0.2918 -0.8116 -1.0693
 8058SOL     OW25072   0.119   0.219   4.884 -0.0430 -0.2838  0.7012
 8058SOL    HW125073   0.074   0.199   4.971  0.1596 -2.2449  0.3945
 8058SOL    HW225074   0.215   0.193   4.890 -0.2462 -1.3559 -0.3955
 8059SOL     OW25075   1.611   6.752   3.932 -0.2199 -0.2022  0.3876
 8059SOL    HW125076   1.657   6.841   3.927  1.3446 -1.0109  0.0125
 8059SOL    HW225077   1.523   6.758   3.883  0.8324  0.5599 -1.5163
 8060SOL     OW25078   5.537   3.328   2.504  0.1676 -0.0239  0.1861
 8060SOL    HW125079   5.626   3.288   2.481  0.3787  0.4338  0.1889
 8060SOL    HW225080   5.512   3.301   2.597 -0.9008 -2.2561 -0.6818
 8061SOL     OW25081   3.702   2.882   2.668  0.1310 -0.6546 -0.1237
 8061SOL    HW125082   3.692   2.848   2.761  0.3373 -2.1799 -0.6278
 8061SOL    HW225083   3.611   2.897   2.628  0.0286  1.1165  0.6659
 8062SOL     OW25084   4.491   0.572   6.731  0.3139 -0.4942 -0.1096
 8062SOL    HW125085   4.498   0.535   6.824  3.8262 -3.0272 -1.1480
 8062SOL    HW225086   4.470   0.497   6.667  0.6342  0.6752 -1.6477
 8063SOL     OW25087   0.703   1.035   3.266 -0.5677  0.0345 -0.4605
 8063SOL    HW125088   0.611   1.055   3.234 -0.7393 -1.0275 -0.6657
 8063SOL    HW225089   0.699   0.976   3.347 -0.0692 -1.2060 -1.3068
 8064SOL     OW25090   1.761   2.285   0.216 -0.1095  0.2875  0.3368
 8064SOL    HW125091   1.858   2.262   0.224  0.0018  0.3206 -0.7287
 8064SOL    HW225092   1.713   2.208   0.173  0.0691  1.4908 -2.2483
 8065SOL     OW25093   6.843   6.454   4.150 -0.6735  0.6438  0.2081
 8065SOL    HW125094   6.923   6.497   4.109 -0.2887 -1.2869 -1.2061
 8065SOL    HW225095   6.871   6.376   4.206 -1.5381 -0.5394 -0.9296
 8066SOL     OW25096   6.987   5.860   6.116  0.0936 -0.2329  0.1636
 8066SOL    HW125097   6.968   5.809   6.032  0.1583 -0.1619  0.1055
 8066SOL    HW225098   7.049   5.808   6.174  1.9479  0.7044 -0.8631
 8067SOL     OW25099   5.976   3.536   0.391 -0.0340  0.4372 -0.1799
 8067SOL    HW125100   6.058   3.566   0.342  1.1048 -1.3162  0.5232
 8067SOL    HW225101   5.966   3.590   0.475  1.3848 -0.3496  0.5493
 8068SOL     OW25102   5.593   4.740   6.375  0.5043  0.6061  0.4773
 8068SOL    HW125103   5.504   4.786   6.376  0.7775  1.3597 -2.0338
 8068SOL    HW225104   5.662   4.801   6.414  0.4496  1.3819 -0.5949
 8069SOL     OW25105   4.077   6.894   6.691  0.2093  0.0822  0.0978
 8069SOL    HW125106   4.172   6.915   6.717  0.2823 -1.1572  0.9104
 8069SOL    HW225107   4.043   6.966   6.630  2.1287 -0.1236 -1.3090
 8070SOL     OW25108   0.919   0.359   2.388  0.2484 -0.1482  0.1178
 8070SOL    HW125109   0.915   0.424   2.464 -2.5895 -2.2373  1.9286
 8070SOL    HW225110   0.987   0.288   2.409  0.1174 -0.2300  0.2644
 8071SOL     OW25111   6.562   5.691   1.164 -0.0054 -0.5190 -0.2282
 8071SOL    HW125112   6.521   5.602   1.185  0.2806 -0.6852 -0.3649
 8071SOL    HW225113   6.509   5.763   1.208 -0.2645 -0.7531 -0.1498
 8072SOL     OW25114   3.355   5.011   1.469  0.3483 -0.3625  0.0934
 8072SOL    HW125115   3.294   4.978   1.541  0.1084 -0.8551 -0.3255
 8072SOL    HW225116   3.337   5.108   1.452  1.2936  0.0982  1.5703
 8073SOL     OW25117   0.537   3.134   4.048  0.3490  0.0950 -0.2290
 8073SOL    HW125118   0.599   3.131   4.127  0.8467 -2.1288 -0.6439
 8073SOL    HW225119   0.588   3.155   3.965  0.2599 -0.1241 -0.3396
 8074SOL     OW25120   6.325   1.690   5.989  0.0607 -0.3128 -0.0054
 8074SOL    HW125121   6.333   1.748   5.908 -0.4948  1.7161  1.3075
 8074SOL    HW225122   6.411   1.695   6.041 -0.7383  1.1568  1.2326
 8075SOL     OW25123   6.014   5.199   6.000 -0.1458 -0.3402 -0.2270
 8075SOL    HW125124   6.080   5.247   6.057 -0.8455  1.8598 -1.1599
 8075SOL    HW225125   5.921   5.223   6.029 -0.5078  0.3113 -1.8199
 8076SOL     OW25126   1.489   1.482   6.706  0.1353  0.5074 -0.7626
 8076SOL    HW125127   1.442   1.424   6.640 -0.4486 -0.3669  0.3899
 8076SOL    HW225128   1.575   1.513   6.667 -0.2959  0.2097 -2.0167
 8077SOL     OW25129   2.621   2.682   6.039 -0.2658 -0.2695 -0.5249
 8077SOL    HW125130   2.690   2.736   5.991  0.0068 -0.6030 -0.5111
 8077SOL    HW225131   2.593   2.605   5.982 -1.3046  0.3779 -0.9130
 8078SOL     OW25132   6.092   5.467   2.635  0.7876 -0.1656 -0.0042
 8078SOL    HW125133   6.069   5.559   2.603  0.3231 -0.7600 -1.4402
 8078SOL    HW225134   6.128   5.473   2.728 -0.7541  1.2969  0.5531
 8079SOL     OW25135   6.057   4.464   2.622 -0.7205 -0.3172 -0.1344
 8079SOL    HW125136   6.142   4.428   2.663 -0.1019  0.5327 -0.6407
 8079SOL    HW225137   6.069   4.561   2.601 -2.1526  0.0560  0.6454
 8080SOL     OW25138   2.174   1.802   4.113  0.6420 -0.4218 -0.1984
 8080SOL    HW125139   2.192   1.893   4.075  0.1304  0.6234  1.8904
 8080SOL    HW225140   2.222   1.793   4.201 -1.2729 -1.2346  0.8125
 8081SOL     OW25141   6.041   4.538   5.175 -0.1101 -0.0485 -0.0601
 8081SOL    HW125142   6.125   4.510   5.128 -1.1814  0.9479 -2.7753
 8081SOL    HW225143   5.961   4.513   5.120 -1.4812  1.1727  1.2580
 8082SOL     OW25144   5.266   5.944   5.620  0.1576 -0.1230  0.3033
 8082SOL    HW125145   5.339   5.876   5.613 -1.3408 -1.9262  1.1776
 8082SOL    HW225146   5.191   5.906   5.674 -1.3022  1.7857 -0.2788
 8083SOL     OW25147   1.262   4.864   1.970 -0.1539 -0.0763 -0.8976
 8083SOL    HW125148   1.269   4.903   2.062  1.2149  1.2436 -1.5258
 8083SOL    HW225149   1.341   4.806   1.953 -1.0849 -1.4252 -0.7807
 8084SOL     OW25150   1.934   3.163   2.925  0.0948 -0.6226  0.0080
 8084SOL    HW125151   1.955   3.080   2.977  0.6077 -0.1174  0.6226
 8084SOL    HW225152   2.013   3.224   2.926 -0.4728  0.1244  0.0430
 8085SOL     OW25153   5.672   2.128   4.322  0.0998 -0.8809  0.6181
 8085SOL    HW125154   5.713   2.201   4.268 -1.3468 -0.1719  0.4365
 8085SOL    HW225155   5.709   2.131   4.415  1.6335 -1.2959  0.0556
 8086SOL     OW25156   3.275   5.521   5.524  0.6002  0.3566  0.4280
 8086SOL    HW125157   3.268   5.590   5.451 -2.1983  0.6497  0.8686
 8086SOL    HW225158   3.238   5.434   5.491  0.8476  0.0317  0.9975
 8087SOL     OW25159   6.933   1.404   6.465  0.1724 -0.3557  0.5788
 8087SOL    HW125160   7.009   1.459   6.499  1.0919  0.2342 -2.1734
 8087SOL    HW225161   6.967   1.336   6.401 -1.6277  0.5952 -1.5532
 8088SOL     OW25162   3.463   4.744   0.353  0.6540  0.5844 -0.3941
 8088SOL    HW125163   3.444   4.775   0.260 -1.7317  0.7877  0.1089
 8088SOL    HW225164   3.493   4.649   0.351 -0.8133  0.1084 -1.2968
 8089SOL     OW25165   6.490   4.005   2.374 -0.0490  0.5321 -0.5706
 8089SOL    HW125166   6.502   3.948   2.292 -0.3337 -0.2986 -0.0525
 8089SOL    HW225167   6.493   3.947   2.455 -1.1013  1.1541 -0.0675
 8090SOL     OW25168   3.290   0.689   5.402 -0.2959  0.5264 -0.5558
 8090SOL    HW125169   3.230   0.649   5.471  1.5250 -0.7884  0.3467
 8090SOL    HW225170   3.273   0.788   5.397 -0.1295  0.7925  2.2179
 8091SOL     OW25171   6.073   1.092   3.749 -0.2109 -0.6693  0.0008
 8091SOL    HW125172   6.116   1.180   3.771 -1.0156  0.0111 -1.0413
 8091SOL    HW225173   6.136   1.018   3.772  1.4581  0.2771 -1.2826
 8092SOL     OW25174   5.666   4.084   0.058  0.1759 -0.2302  0.1417
 8092SOL    HW125175   5.577   4.097   0.100 -0.5753 -1.5525 -0.9431
 8092SOL    HW225176   5.735   4.068   0.130 -0.6180 -0.0743  0.9513
 8093SOL     OW25177   2.277   6.673   2.769 -0.1737  0.1931 -0.0042
 8093SOL    HW125178   2.249   6.699   2.861  0.7366 -0.6915  0.5462
 8093SOL    HW225179   2.368   6.632   2.773 -0.3082 -0.2492 -1.2427
 8094SOL     OW25180   0.822   6.394   2.213  0.0933 -0.2596 -0.5027
 8094SOL    HW125181   0.882   6.360   2.140  0.8155 -1.7298  0.7312
 8094SOL    HW225182   0.741   6.336   2.219 -0.3751  0.3656 -0.6668
 8095SOL     OW25183   6.062   0.450   6.549  0.3981 -0.2726  0.2638
 8095SOL    HW125184   5.967   0.478   6.551  0.4876  0.0608 -0.0233
 8095SOL    HW225185   6.120   0.529   6.528  0.5837 -0.8015 -1.4110
 8096SOL     OW25186   6.873   2.694   6.651  0.0602  0.5173 -0.2780
 8096SOL    HW125187   6.892   2.597   6.637 -1.9598  0.0873 -0.2840
 8096SOL    HW225188   6.878   2.715   6.749 -1.5971 -0.1151 -0.0245
 8097SOL     OW25189   1.938   2.101   4.961 -0.1038 -0.0313 -0.5625
 8097SOL    HW125190   1.852   2.056   4.985 -0.0192  0.7527  1.3588
 8097SOL    HW225191   2.000   2.034   4.919 -1.1655 -0.9096 -0.7756
 8098SOL     OW25192   4.322   0.855   6.436 -0.1942  0.4108 -0.1472
 8098SOL    HW125193   4.278   0.852   6.347  1.8858  1.0088 -1.2405
 8098SOL    HW225194   4.334   0.762   6.471 -0.9395  0.1763 -0.4844
 8099SOL     OW25195   3.767   5.802   0.945 -0.0530  0.2054 -0.4199
 8099SOL    HW125196   3.776   5.703   0.943  0.4021  0.1409  1.8516
 8099SOL    HW225197   3.741   5.831   1.038  0.1606  2.2295 -0.9515
 8100SOL     OW25198   6.092   6.576   0.684  0.2627 -0.1527 -0.4036
 8100SOL    HW125199   6.078   6.650   0.751 -0.8723 -1.1024  0.4525
 8100SOL    HW225200   6.176   6.593   0.633 -0.5075  2.2995 -0.9810
 8101SOL     OW25201   4.061   0.887   4.955 -0.3033 -0.2390 -0.4658
 8101SOL    HW125202   4.016   0.967   4.915 -2.6030 -1.0559  0.3193
 8101SOL    HW225203   4.104   0.834   4.883 -1.1002  0.3019 -1.3726
 8102SOL     OW25204   0.301   0.037   5.233  0.0154  0.3251  0.0189
 8102SOL    HW125205   0.305   0.133   5.259  0.7847  0.3725 -0.2512
 8102SOL    HW225206   0.354  -0.018   5.299 -1.0578 -0.0206  0.6177
 8103SOL     OW25207   0.912   5.069   0.371  0.1810 -0.2737 -0.1775
 8103SOL    HW125208   0.988   5.109   0.320  2.3915 -1.7689  1.6994
 8103SOL    HW225209   0.884   4.984   0.328  0.6731 -0.5172 -0.0271
 8104SOL     OW25210   5.987   4.678   5.405 -0.1878 -0.6009  0.3129
 8104SOL    HW125211   6.027   4.768   5.414  0.2106 -0.6470 -0.9103
 8104SOL    HW225212   6.019   4.634   5.321 -0.8291 -1.6458  0.5854
 8105SOL     OW25213   5.469   3.564   1.063  0.4372  0.2391  0.3795
 8105SOL    HW125214   5.389   3.584   1.006  2.5723  1.6100 -2.3452
 8105SOL    HW225215   5.509   3.476   1.035  0.4622  0.0262  1.0661
 8106SOL     OW25216   6.598   4.522   5.397  0.2776  0.5810 -0.8525
 8106SOL    HW125217   6.632   4.606   5.354  0.8224 -0.5257 -2.7404
 8106SOL    HW225218   6.675   4.461   5.416  0.0506  1.0612  1.9016
 8107SOL     OW25219   2.801   6.037   5.797  0.3416 -0.4671  0.1705
 8107SOL    HW125220   2.759   6.126   5.781  2.8283  0.6101 -0.9821
 8107SOL    HW225221   2.750   5.966   5.749 -0.3062  0.7137 -0.9226
 8108SOL     OW25222   1.737   0.011   6.601 -0.2792 -0.1515 -0.0161
 8108SOL    HW125223   1.675  -0.002   6.523 -0.7604 -0.1425  0.3640
 8108SOL    HW225224   1.713  -0.053   6.673 -0.9997  1.0630  0.8524
 8109SOL     OW25225   5.924   5.873   6.570 -0.4307 -0.2604  0.2672
 8109SOL    HW125226   6.018   5.895   6.594 -0.1774  0.0843 -0.9967
 8109SOL    HW225227   5.866   5.880   6.652  0.7547 -1.2714  1.2322
 8110SOL     OW25228   5.562   4.193   3.362  0.4153  0.0253  0.0451
 8110SOL    HW125229   5.640   4.141   3.397  0.3656  0.4717  0.8385
 8110SOL    HW225230   5.542   4.269   3.424 -0.3433  0.2066 -0.4086
 8111SOL     OW25231   6.541   3.627   1.349  0.4776 -0.0833  0.1341
 8111SOL    HW125232   6.606   3.610   1.423  1.6163 -2.6776 -1.3135
 8111SOL    HW225233   6.591   3.650   1.266 -0.4567 -1.5277 -0.8656
 8112SOL     OW25234   2.278   6.521   6.915 -0.3186  0.5417  0.9306
 8112SOL    HW125235   2.270   6.621   6.918 -0.8109  0.5372  0.0549
 8112SOL    HW225236   2.189   6.480   6.930 -0.5851  0.3072 -1.0056
 8113SOL     OW25237   2.244   6.463   4.582  0.1217 -0.3144  0.8054
 8113SOL    HW125238   2.216   6.525   4.655  0.4931  1.7105 -0.6785
 8113SOL    HW225239   2.342   6.473   4.564  0.0820 -0.9300  0.1579
 8114SOL     OW25240   0.728   1.585   2.914 -0.2369  0.0249 -0.0409
 8114SOL    HW125241   0.672   1.596   2.832  1.9548  0.4092 -1.5796
 8114SOL    HW225242   0.781   1.669   2.930 -0.1937 -0.2485  1.4516
 8115SOL     OW25243   6.614   0.539   5.257 -0.0657  0.0468 -0.1245
 8115SOL    HW125244   6.519   0.549   5.230 -0.2433 -2.8219 -0.8965
 8115SOL    HW225245   6.634   0.600   5.334 -1.9977  1.9573 -1.0550
 8116SOL     OW25246   3.998   5.034   1.432 -0.2318 -0.3711 -0.1910
 8116SOL    HW125247   4.056   5.004   1.507  1.8810 -0.0541 -1.6168
 8116SOL    HW225248   3.928   4.965   1.414 -0.5025 -0.6450  1.7500
 8117SOL     OW25249   1.792   5.459   3.815  0.2312  0.2707  0.0154
 8117SOL    HW125250   1.793   5.436   3.913  1.6481  1.2765  0.2653
 8117SOL    HW225251   1.785   5.375   3.762  1.9569 -0.5188  0.9573
 8118SOL     OW25252   2.533   0.431   3.796 -0.4534 -0.2057 -0.2411
 8118SOL    HW125253   2.498   0.376   3.720 -0.6750 -0.8385  0.3039
 8118SOL    HW225254   2.547   0.372   3.875 -4.3603  1.0935  1.6418
 8119SOL     OW25255   0.702   0.507   3.263  0.8010  0.1425  0.5148
 8119SOL    HW125256   0.703   0.424   3.319 -0.5629  1.3167  2.4381
 8119SOL    HW225257   0.762   0.496   3.184  1.0925 -2.4294  1.0224
 8120SOL     OW25258   4.825   5.115   4.113 -0.2947  0.0799 -0.2441
 8120SOL    HW125259   4.888   5.180   4.154 -0.2713 -1.2857  2.0337
 8120SOL    HW225260   4.734   5.156   4.107  0.4350  1.5244 -2.1646
 8121SOL     OW25261   6.808   2.943   2.584  0.6246  0.3191 -0.3038
 8121SOL    HW125262   6.829   3.008   2.511 -0.2028  1.5737  0.5387
 8121SOL    HW225263   6.769   2.992   2.662  1.5617 -0.9746  1.0242
 8122SOL     OW25264   4.774   0.642   3.504  0.2006 -0.3976 -0.4687
 8122SOL    HW125265   4.850   0.624   3.566  0.0119  0.2458 -0.0398
 8122SOL    HW225266   4.800   0.616   3.411  0.4137 -1.5550 -0.1030
 8123SOL     OW25267   1.921   1.710   5.359  0.3319  0.6585 -0.1527
 8123SOL    HW125268   1.846   1.690   5.296  0.1778 -1.6333  0.6788
 8123SOL    HW225269   1.884   1.729   5.450  0.7409 -1.7834  0.5821
 8124SOL     OW25270   4.487   5.162   5.990  0.1100  0.2977  0.1318
 8124SOL    HW125271   4.392   5.132   5.985 -0.1022  0.8555  0.6432
 8124SOL    HW225272   4.491   5.261   5.998  0.6105  0.1478  2.5901
 8125SOL     OW25273   5.161   0.911   6.360 -0.1119 -0.0470 -0.5990
 8125SOL    HW125274   5.062   0.921   6.371  0.0658  0.9062  0.2707
 8125SOL    HW225275   5.201   0.878   6.446  0.2718 -0.9572 -1.1118
 8126SOL     OW25276   2.628   2.165   5.363  0.0083 -0.0587  0.6411
 8126SOL    HW125277   2.557   2.235   5.369  0.7909  0.7514  0.7690
 8126SOL    HW225278   2.676   2.175   5.276 -0.0809 -0.6486  0.5231
 8127SOL     OW25279   2.198   1.633   5.814 -1.1575 -0.0501 -0.4399
 8127SOL    HW125280   2.123   1.603   5.754 -2.4122 -0.6278  1.3513
 8127SOL    HW225281   2.162   1.693   5.885  0.3553  0.8535 -0.4104
 8128SOL     OW25282   0.891   4.905   4.486  0.2127 -0.2034 -0.1540
 8128SOL    HW125283   0.934   4.815   4.480 -0.0088 -0.3753  0.6964
 8128SOL    HW225284   0.957   4.972   4.520 -0.1100 -0.4329  0.9852
 8129SOL     OW25285   4.037   0.235   4.136  0.3068 -0.0082  0.2425
 8129SOL    HW125286   4.049   0.314   4.196  1.0571 -0.1892  0.3464
 8129SOL    HW225287   3.961   0.179   4.168  1.1849 -0.5168  1.4996
 8130SOL     OW25288   1.054   2.657   2.935  0.1274  0.3845 -0.1947
 8130SOL    HW125289   1.080   2.663   2.839 -1.3434  0.0070 -0.6383
 8130SOL    HW225290   1.056   2.748   2.977  0.9072  0.5267 -0.5336
 8131SOL     OW25291   1.302   1.003   3.863 -0.0769  0.7698  0.0309
 8131SOL    HW125292   1.240   1.032   3.935 -0.8800  1.3722 -0.8748
 8131SOL    HW225293   1.343   0.915   3.887 -0.3869  0.9225  1.1673
 8132SOL     OW25294   1.881   6.271   2.409 -0.0242 -0.0514 -0.5863
 8132SOL    HW125295   1.942   6.268   2.488  0.3141  2.7454 -0.6552
 8132SOL    HW225296   1.787   6.258   2.440  0.2837 -1.1490 -0.0509
 8133SOL     OW25297   4.860   2.996   6.603  0.3414  0.8405  0.7100
 8133SOL    HW125298   4.821   3.044   6.524  1.5944  0.5761 -0.1122
 8133SOL    HW225299   4.867   2.898   6.582 -0.0895  0.6426  1.4807
 8134SOL     OW25300   3.777   6.857   0.690  0.2391 -0.2401  0.2933
 8134SOL    HW125301   3.804   6.768   0.654 -0.4969 -0.4441  0.2372
 8134SOL    HW225302   3.858   6.915   0.697  0.4613 -0.2828 -1.4259
 8135SOL     OW25303   6.496   5.826   2.072 -0.3935  0.6654  0.8922
 8135SOL    HW125304   6.465   5.913   2.033  0.9727  0.2825 -1.2526
 8135SOL    HW225305   6.520   5.763   1.998 -1.1650 -1.5140  2.3843
 8136SOL     OW25306   3.041   3.091   1.578  0.8032  0.4805  0.0047
 8136SOL    HW125307   3.120   3.031   1.565 -0.0467 -0.4086 -1.1331
 8136SOL    HW225308   3.054   3.175   1.524  1.7552  1.1486  1.2069
 8137SOL     OW25309   6.176   4.657   3.420  0.1309 -0.3735  0.2398
 8137SOL    HW125310   6.077   4.654   3.435  0.2144 -2.9877  0.7220
 8137SOL    HW225311   6.222   4.673   3.508  0.1577 -0.6475  0.2785
 8138SOL     OW25312   5.034   6.185   2.064  0.5206  0.0085  0.2414
 8138SOL    HW125313   5.028   6.127   1.983  0.5621  0.0705  0.1929
 8138SOL    HW225314   5.013   6.132   2.146  0.4607 -0.0503  0.1877
 8139SOL     OW25315   1.090   6.446   6.128 -0.1666  0.5367  0.2287
 8139SOL    HW125316   1.147   6.370   6.160 -0.6077  0.8388  1.8381
 8139SOL    HW225317   1.097   6.521   6.193 -0.7678  1.3763 -0.6631
 8140SOL     OW25318   4.384   5.106   5.700 -0.2871 -0.2651 -0.4822
 8140SOL    HW125319   4.471   5.152   5.717  0.0752 -1.2561  0.4624
 8140SOL    HW225320   4.399   5.008   5.687 -1.4173 -0.8408  1.9273
 8141SOL     OW25321   3.493   5.241   2.495  0.3701  0.5966 -0.5911
 8141SOL    HW125322   3.503   5.141   2.504  0.0349  0.6847  1.2133
 8141SOL    HW225323   3.396   5.264   2.489  0.2581  0.9158  1.5091
 8142SOL     OW25324   2.372   6.084   0.628 -0.1344  0.1042 -0.4254
 8142SOL    HW125325   2.321   6.150   0.683 -0.7821 -0.8299  0.1231
 8142SOL    HW225326   2.406   6.011   0.687 -1.1760 -1.1290 -1.2839
 8143SOL     OW25327   2.085   3.409   5.565 -0.2293  0.1659  0.0358
 8143SOL    HW125328   2.034   3.484   5.607  0.6866  1.9190 -1.7781
 8143SOL    HW225329   2.176   3.404   5.607  0.8866  2.2741 -1.8879
 8144SOL     OW25330   0.699   0.141   0.175  0.1868 -0.3892  0.0711
 8144SOL    HW125331   0.750   0.064   0.216  0.5930 -0.1766 -0.0261
 8144SOL    HW225332   0.649   0.189   0.247  1.4415  0.3975  0.4460
 8145SOL     OW25333   2.203   1.937   2.729  0.2276 -0.4476  0.7252
 8145SOL    HW125334   2.282   1.969   2.678 -0.7794  0.2239 -0.4741
 8145SOL    HW225335   2.190   1.839   2.712 -0.2852 -0.1707 -0.6277
 8146SOL     OW25336   5.964   4.015   5.800  0.0568  0.0014  0.1920
 8146SOL    HW125337   5.959   3.984   5.705  0.0824  1.5894 -0.3456
 8146SOL    HW225338   5.875   4.049   5.829  0.4494  1.0303  0.2033
 8147SOL     OW25339   1.234   0.458   4.530  0.2272  0.1058 -0.0460
 8147SOL    HW125340   1.203   0.363   4.532 -0.8873  0.4565  0.1006
 8147SOL    HW225341   1.283   0.476   4.445 -1.0618 -0.1622 -0.8757
 8148SOL     OW25342   4.397   3.035   0.331 -0.1654  0.8226 -0.3236
 8148SOL    HW125343   4.467   3.074   0.391  0.1194 -0.3217  0.1171
 8148SOL    HW225344   4.308   3.040   0.377  0.3788 -2.0722  1.2385
 8149SOL     OW25345   1.413   1.158   4.226 -0.2374 -0.1850 -0.4420
 8149SOL    HW125346   1.440   1.236   4.169  2.0088  0.0166  0.7803
 8149SOL    HW225347   1.318   1.170   4.256 -0.3936  1.3445 -1.4095
 8150SOL     OW25348   2.574   4.261   1.596 -0.3952  0.0717 -0.0014
 8150SOL    HW125349   2.519   4.233   1.517 -3.4609  0.8715  1.6710
 8150SOL    HW225350   2.577   4.361   1.601  3.1640  0.1699 -1.1585
 8151SOL     OW25351   3.289   2.103   2.927 -0.5822  0.7456  0.0821
 8151SOL    HW125352   3.286   2.180   2.991 -1.3444  0.1132  0.8121
 8151SOL    HW225353   3.228   2.122   2.850 -1.1924  0.6321  0.5361
 8152SOL     OW25354   1.778   2.097   2.580 -0.4133  0.0643 -0.3552
 8152SOL    HW125355   1.856   2.092   2.643 -0.9657  3.7283  0.9070
 8152SOL    HW225356   1.811   2.114   2.487  0.3248  0.0844 -0.0931
 8153SOL     OW25357   1.053   1.069   5.302 -0.0058  0.1600  0.3423
 8153SOL    HW125358   1.019   1.154   5.262  0.2935  0.0281 -0.2023
 8153SOL    HW225359   1.028   1.066   5.399 -1.0509  0.3269  0.0963
 8154SOL     OW25360   6.137   6.278   0.966  0.1614  0.2147  0.0941
 8154SOL    HW125361   6.198   6.346   1.007  0.3087 -0.1067  0.4090
 8154SOL    HW225362   6.043   6.295   0.995  0.3049 -0.2023  0.8303
 8155SOL     OW25363   2.201   0.851   4.506  0.0768 -0.1687 -0.1400
 8155SOL    HW125364   2.276   0.784   4.503  1.2589  1.1247 -0.3840
 8155SOL    HW225365   2.180   0.873   4.601  0.7846  0.2875 -0.0799
 8156SOL     OW25366   6.041   0.240   1.514  0.4296  0.0225 -0.0313
 8156SOL    HW125367   6.116   0.263   1.451 -0.0634 -1.3163 -1.1567
 8156SOL    HW225368   5.955   0.276   1.478  0.4705  1.4253  1.1834
 8157SOL     OW25369   5.143   5.126   3.586  0.7707  0.1781  0.1574
 8157SOL    HW125370   5.136   5.140   3.685  2.3258 -0.1977  0.3432
 8157SOL    HW225371   5.237   5.105   3.562  0.4803  0.5791 -1.4616
 8158SOL     OW25372   1.194   3.088   0.856 -0.0614  0.1352  0.6320
 8158SOL    HW125373   1.104   3.106   0.818  0.2545  1.7163  0.5450
 8158SOL    HW225374   1.207   3.143   0.938  1.0355  0.3888  0.3066
 8159SOL     OW25375   1.229   5.371   3.956  0.9278 -0.9689  0.2509
 8159SOL    HW125376   1.280   5.296   3.915  0.9596 -1.9990  2.0723
 8159SOL    HW225377   1.292   5.444   3.982  1.0586 -0.8622 -0.3461
 8160SOL     OW25378   1.133   1.411   2.547 -0.3374 -0.6275 -0.1735
 8160SOL    HW125379   1.098   1.318   2.558 -0.9117 -0.5904 -1.5031
 8160SOL    HW225380   1.199   1.413   2.472  0.8112 -0.2362  0.8151
 8161SOL     OW25381   0.148   6.722   5.319  0.0795  0.3835 -0.0164
 8161SOL    HW125382   0.118   6.757   5.408  2.2562  1.6165  0.3118
 8161SOL    HW225383   0.195   6.635   5.331  1.8181  1.3263  0.3273
 8162SOL     OW25384   3.966   0.885   1.548  0.6050 -0.1459  0.2900
 8162SOL    HW125385   3.901   0.858   1.478  0.1526 -0.2567  0.7486
 8162SOL    HW225386   3.981   0.808   1.610  2.3297 -0.6481 -0.6667
 8163SOL     OW25387   5.684   3.739   0.036 -0.0536  0.2558  1.0518
 8163SOL    HW125388   5.632   3.779  -0.039  1.6757  0.4575 -0.1140
 8163SOL    HW225389   5.630   3.667   0.080 -0.8864 -0.3372 -0.8354
 8164SOL     OW25390   6.718   0.025   2.631  0.2041 -0.4917 -0.1262
 8164SOL    HW125391   6.808  -0.007   2.600  1.3275  1.4331  0.9419
 8164SOL    HW225392   6.727   0.061   2.724 -1.8278 -0.7970  0.2246
 8165SOL     OW25393   5.993   5.712   0.079  0.0839  0.2569  0.4999
 8165SOL    HW125394   5.914   5.700   0.019  0.8935 -1.0438 -0.3593
 8165SOL    HW225395   5.964   5.750   0.166 -1.3517  0.6646 -0.1291
 8166SOL     OW25396   3.746   6.746   5.991 -0.0451 -0.1140 -0.0415
 8166SOL    HW125397   3.792   6.807   5.925 -0.1370  1.0369  0.9229
 8166SOL    HW225398   3.806   6.669   6.012  0.9785  0.7454  0.3003
 8167SOL     OW25399   5.059   5.861   0.879  0.2174 -0.8038 -0.6554
 8167SOL    HW125400   5.124   5.824   0.813  0.9180 -2.5642  0.9263
 8167SOL    HW225401   5.001   5.788   0.915  0.2362 -0.0424  1.0589
 8168SOL     OW25402   5.816   0.537   3.678  0.6491 -0.1166  0.1738
 8168SOL    HW125403   5.732   0.590   3.687 -0.8543 -2.4329  0.6163
 8168SOL    HW225404   5.811   0.456   3.736  1.7975 -1.9660 -2.1169
 8169SOL     OW25405   4.608   1.814   2.789 -0.4030  0.3189  0.3961
 8169SOL    HW125406   4.565   1.778   2.872  0.5501 -1.1592  0.2872
 8169SOL    HW225407   4.558   1.895   2.758 -1.5354  0.1533  1.6908
 8170SOL     OW25408   3.694   5.217   6.369 -0.2055  0.0971 -0.2328
 8170SOL    HW125409   3.720   5.131   6.412 -0.0642  1.0816  1.7678
 8170SOL    HW225410   3.653   5.199   6.280  1.0128 -1.9337 -0.4421
 8171SOL     OW25411   4.438   3.486   5.768  0.0785  0.1447 -0.1283
 8171SOL    HW125412   4.509   3.434   5.720  0.5815  2.0209 -1.5527
 8171SOL    HW225413   4.389   3.543   5.702 -2.7812 -1.0294  0.8191
 8172SOL     OW25414   1.767   5.712   5.935 -0.2563  0.1744 -0.1178
 8172SOL    HW125415   1.839   5.642   5.944 -1.3111 -0.9956 -0.4306
 8172SOL    HW225416   1.787   5.769   5.855 -0.0486 -0.6238 -0.6551
 8173SOL     OW25417   5.735   6.250   0.800  0.1858  0.1903 -0.0402
 8173SOL    HW125418   5.637   6.267   0.793 -0.1461 -1.6114 -0.3146
 8173SOL    HW225419   5.784   6.311   0.737 -0.6462  1.7138  0.7337
 8174SOL     OW25420   4.526   1.366   4.721  0.3005 -0.8430  0.0720
 8174SOL    HW125421   4.575   1.338   4.804  1.9123  0.7386 -0.2669
 8174SOL    HW225422   4.563   1.317   4.643  2.2009  1.0865 -0.3333
 8175SOL     OW25423   3.386   1.128   2.071  0.0929 -0.1165  0.0975
 8175SOL    HW125424   3.413   1.174   1.987  0.8586 -1.5839 -0.5007
 8175SOL    HW225425   3.327   1.188   2.125  0.9420  1.4932 -0.6825
 8176SOL     OW25426   1.378   1.220   0.972  0.4814  0.2900  0.2236
 8176SOL    HW125427   1.339   1.310   0.993 -2.1681 -0.5064 -0.9058
 8176SOL    HW225428   1.358   1.156   1.046  0.6088  0.1446  0.1339
 8177SOL     OW25429   5.514   3.833   3.594 -0.1601  0.4744 -0.1103
 8177SOL    HW125430   5.599   3.783   3.578 -0.4256  0.3613 -1.2722
 8177SOL    HW225431   5.519   3.880   3.682  0.3623 -1.0381  0.6929
 8178SOL     OW25432   4.421   5.399   6.399  0.2565 -0.4214  0.3212
 8178SOL    HW125433   4.364   5.353   6.466 -1.9813 -0.7325 -1.6394
 8178SOL    HW225434   4.512   5.356   6.396 -0.0062 -1.1845  2.1961
 8179SOL     OW25435   1.484   0.495   2.333  0.3545  0.3251  0.8410
 8179SOL    HW125436   1.548   0.456   2.267 -0.0429 -1.5109  1.4851
 8179SOL    HW225437   1.535   0.546   2.402  0.8675  1.2037 -0.1492
 8180SOL     OW25438   2.215   6.659   1.549 -0.4545 -0.3029 -0.1447
 8180SOL    HW125439   2.169   6.687   1.633  0.8294 -0.4447  0.6404
 8180SOL    HW225440   2.257   6.738   1.505  0.5525 -0.4941  0.4291
 8181SOL     OW25441   5.251   4.678   2.167 -0.0215  0.2341  0.3360
 8181SOL    HW125442   5.251   4.587   2.124 -1.1789  0.1383  0.4978
 8181SOL    HW225443   5.187   4.679   2.244 -0.0851  1.2090  0.2868
 8182SOL     OW25444   4.992   1.563   2.387  0.2275  0.0134 -0.6290
 8182SOL    HW125445   4.973   1.660   2.374 -1.3036 -0.0819  0.5822
 8182SOL    HW225446   4.922   1.509   2.339  0.0139 -0.4391  0.1709
 8183SOL     OW25447   3.412   1.793   1.906 -0.5216  0.5894  0.2078
 8183SOL    HW125448   3.487   1.841   1.951  0.9929 -2.1017  0.7523
 8183SOL    HW225449   3.442   1.758   1.818 -1.4473  0.3460 -0.0249
 8184SOL     OW25450   3.036   4.907   3.338 -0.1275  0.3815  0.0008
 8184SOL    HW125451   3.101   4.892   3.264  0.7662  1.1443  0.6044
 8184SOL    HW225452   2.946   4.874   3.311  0.4134 -0.2972 -1.0171
 8185SOL     OW25453   4.202   5.288   6.592 -0.1462  0.3520 -0.2738
 8185SOL    HW125454   4.124   5.346   6.617 -0.9039 -0.6233 -0.3162
 8185SOL    HW225455   4.169   5.198   6.563  0.9925 -0.0239 -0.4633
 8186SOL     OW25456   4.045   3.833   3.085 -0.3652  0.4738  0.0652
 8186SOL    HW125457   4.000   3.887   3.156  2.5908  1.0486  1.6595
 8186SOL    HW225458   4.074   3.745   3.122 -0.3891  0.0077 -0.9814
 8187SOL     OW25459   0.686   4.161   2.385  0.1433  0.2220  0.3414
 8187SOL    HW125460   0.714   4.234   2.323 -2.1059  1.0019  0.1441
 8187SOL    HW225461   0.587   4.148   2.379  0.4305 -2.8155  0.4478
 8188SOL     OW25462   1.941   5.526   6.826  0.5465 -0.4245  0.4589
 8188SOL    HW125463   2.030   5.570   6.829  0.8123 -0.9505  0.5551
 8188SOL    HW225464   1.948   5.435   6.868  0.2047 -0.8875 -0.4497
 8189SOL     OW25465   1.263   0.550   3.943 -0.2986  0.7066 -0.2177
 8189SOL    HW125466   1.271   0.451   3.936  1.5745  0.9333 -2.5534
 8189SOL    HW225467   1.211   0.585   3.865  1.1665  1.6994 -0.8005
 8190SOL     OW25468   5.811   1.567   6.380 -0.5124  0.4017  0.0219
 8190SOL    HW125469   5.753   1.544   6.302 -0.6719  1.4622 -0.1940
 8190SOL    HW225470   5.759   1.626   6.443 -0.1441  0.1529  0.5611
 8191SOL     OW25471   0.087   1.575   6.588 -0.1493  0.3973  0.2952
 8191SOL    HW125472   0.105   1.504   6.656  1.6784  0.9571  0.4575
 8191SOL    HW225473   0.041   1.652   6.631 -1.0888 -0.1984  0.3723
 8192SOL     OW25474   3.547   1.774   6.534 -0.5009 -0.7114  0.2827
 8192SOL    HW125475   3.561   1.709   6.459 -0.2033 -0.8052  0.4173
 8192SOL    HW225476   3.611   1.850   6.524  1.0722 -1.7957  1.6372
 8193SOL     OW25477   4.913   0.176   0.464  0.0631 -0.2355  0.0864
 8193SOL    HW125478   4.853   0.237   0.516  0.5607 -0.1329  0.5501
 8193SOL    HW225479   4.900   0.192   0.366 -1.2039 -0.7396  0.1572
 8194SOL     OW25480   2.595   0.157   1.887  0.2127 -0.1869 -0.3348
 8194SOL    HW125481   2.675   0.202   1.925 -1.0980  2.2710 -0.2590
 8194SOL    HW225482   2.520   0.223   1.879 -1.7040 -2.2652 -0.7722
 8195SOL     OW25483   4.788   2.515   0.769  0.0394  0.1156  0.6981
 8195SOL    HW125484   4.872   2.519   0.823  0.2791  0.7028  0.2968
 8195SOL    HW225485   4.752   2.422   0.771  0.3109  0.0151  1.4567
 8196SOL     OW25486   6.871   1.035   1.643  0.4153 -0.4036 -0.1670
 8196SOL    HW125487   6.893   1.111   1.703  1.8474 -0.6114 -0.3970
 8196SOL    HW225488   6.809   1.066   1.571 -1.0882 -0.0900  1.2036
 8197SOL     OW25489   3.615   0.122   0.818  0.2889  0.1335 -0.5450
 8197SOL    HW125490   3.685   0.054   0.841 -0.1783 -0.6735 -1.4661
 8197SOL    HW225491   3.569   0.095   0.734 -0.3208  1.2869 -0.5904
 8198SOL     OW25492   6.453   6.435   2.842  0.3106 -0.1464 -0.0358
 8198SOL    HW125493   6.420   6.436   2.747 -0.4408  0.8876  0.2135
 8198SOL    HW225494   6.547   6.469   2.844  0.2709  0.0009 -0.4001
 8199SOL     OW25495   6.588   4.171   2.990 -0.6018 -0.0196 -0.4967
 8199SOL    HW125496   6.606   4.143   3.084 -2.9676  0.1391  0.0676
 8199SOL    HW225497   6.626   4.263   2.975  0.2158 -0.2428  0.1274
 8200SOL     OW25498   2.585   5.055   5.801 -0.1731  0.2807  0.1525
 8200SOL    HW125499   2.674   5.030   5.764  0.4304  1.9194  0.4233
 8200SOL    HW225500   2.570   5.009   5.889  0.1773 -0.3752 -0.1267
 8201SOL     OW25501   2.670   2.632   0.475 -0.2138 -0.2137 -0.4589
 8201SOL    HW125502   2.607   2.701   0.510  0.4995 -0.1334  0.7392
 8201SOL    HW225503   2.692   2.568   0.548 -1.0748 -1.9083 -1.6180
 8202SOL     OW25504   4.703   3.076   6.380 -0.4099 -0.1734 -0.0813
 8202SOL    HW125505   4.709   3.111   6.286  0.7263  1.7836  0.6752
 8202SOL    HW225506   4.615   3.029   6.392 -1.1756  0.7647 -1.7158
 8203SOL     OW25507   5.566   1.762   3.266  0.0974 -0.4542  0.3199
 8203SOL    HW125508   5.595   1.670   3.239  0.8935 -0.4346  1.0414
 8203SOL    HW225509   5.597   1.828   3.197  0.9073 -0.5584  0.5688
 8204SOL     OW25510   1.083   4.661   3.012 -0.0837  1.1263 -0.3731
 8204SOL    HW125511   0.993   4.684   2.973 -0.9328 -2.5740 -1.0425
 8204SOL    HW225512   1.140   4.620   2.941  0.8946  0.4405  0.7754
 8205SOL     OW25513   3.284   6.763   5.577 -0.1015 -0.2083  0.4049
 8205SOL    HW125514   3.229   6.833   5.623 -5.8033 -2.5062 -1.9545
 8205SOL    HW225515   3.301   6.687   5.640 -0.3849  0.2101  0.9929
 8206SOL     OW25516   1.626   6.868   1.179  0.2186  0.2979 -0.3017
 8206SOL    HW125517   1.597   6.956   1.218 -1.0797 -0.1527 -0.2167
 8206SOL    HW225518   1.565   6.796   1.211  1.4031 -0.6804 -0.1998
 8207SOL     OW25519   3.494   3.261   2.450 -0.3267 -0.0365  0.1293
 8207SOL    HW125520   3.490   3.355   2.417  0.2285  0.3968  1.2476
 8207SOL    HW225521   3.582   3.221   2.427 -0.6347 -0.3588 -0.5151
 8208SOL     OW25522   3.850   0.501   2.413  0.6653  0.4481 -0.0364
 8208SOL    HW125523   3.782   0.531   2.346  0.6576 -0.9546 -0.7001
 8208SOL    HW225524   3.805   0.465   2.494  0.6050  0.0549 -0.2378
 8209SOL     OW25525   4.308   2.277   1.448  0.8281  0.7396  0.1046
 8209SOL    HW125526   4.224   2.232   1.418  0.6979  0.7607  0.4359
 8209SOL    HW225527   4.387   2.227   1.413  0.7180  2.2827 -2.6507
 8210SOL     OW25528   2.331   1.253   4.192 -0.0883 -0.2856  0.2060
 8210SOL    HW125529   2.290   1.325   4.248 -1.0308 -1.3096  0.8811
 8210SOL    HW225530   2.310   1.163   4.232  0.7158 -0.9662 -0.8304
 8211SOL     OW25531   6.072   0.408   5.394  0.7903 -0.0460  0.2820
 8211SOL    HW125532   6.091   0.312   5.416 -2.2595 -0.6546  0.7514
 8211SOL    HW225533   6.098   0.466   5.471  0.6249 -0.7781  0.9020
 8212SOL     OW25534   6.473   3.906   6.031 -0.3064 -0.7361 -0.2582
 8212SOL    HW125535   6.515   3.901   5.941 -0.3563  0.1777 -0.3391
 8212SOL    HW225536   6.379   3.872   6.026 -0.5281 -0.0635 -0.6960
 8213SOL     OW25537   4.680   0.884   0.628 -0.0049 -0.0495  0.2208
 8213SOL    HW125538   4.673   0.959   0.695 -2.9875  0.1988 -0.2558
 8213SOL    HW225539   4.686   0.922   0.536  2.1099 -0.4286  0.1445
 8214SOL     OW25540   1.659   5.601   3.076  0.1330 -0.0595  0.4628
 8214SOL    HW125541   1.570   5.586   3.119  0.9211 -0.3956  2.0494
 8214SOL    HW225542   1.648   5.604   2.977 -1.6107 -0.2877  0.6192
 8215SOL     OW25543   6.035   2.320   5.660 -0.1393 -0.4896  0.1977
 8215SOL    HW125544   6.080   2.251   5.604 -0.5694  0.0643 -0.8540
 8215SOL    HW225545   6.039   2.293   5.756  3.2086 -0.0874  0.2891
 8216SOL     OW25546   0.509   2.496   3.435 -0.6363  0.5024 -0.0169
 8216SOL    HW125547   0.527   2.406   3.394  0.6738  0.6252  0.2441
 8216SOL    HW225548   0.418   2.527   3.407 -1.4397 -1.2322  0.4951
 8217SOL     OW25549   0.284   2.278   4.052 -0.3217 -0.4611 -0.2799
 8217SOL    HW125550   0.196   2.321   4.029  1.5751  3.2183 -1.5404
 8217SOL    HW225551   0.318   2.317   4.138  0.8177 -0.5900 -0.6608
 8218SOL     OW25552   4.455   5.439   0.180 -0.3045 -0.6144  0.3034
 8218SOL    HW125553   4.432   5.470   0.273 -1.3294 -0.1544 -0.0885
 8218SOL    HW225554   4.486   5.344   0.184 -0.5998 -0.6911  1.0849
 8219SOL     OW25555   4.830   6.223   6.374  0.2264 -0.1370  0.3393
 8219SOL    HW125556   4.913   6.278   6.359 -0.4775  1.6668  2.5048
 8219SOL    HW225557   4.856   6.130   6.400  1.5790  0.2509  0.4599
 8220SOL     OW25558   0.315   2.896   2.814 -0.6562 -0.6028  0.2354
 8220SOL    HW125559   0.316   2.804   2.853 -0.7751 -1.1450 -0.9865
 8220SOL    HW225560   0.289   2.891   2.717 -4.7905  1.0397  1.0259
 8221SOL     OW25561   4.543   0.379   6.949 -0.1643  0.0568  0.1358
 8221SOL    HW125562   4.568   0.380   7.046 -0.2432  0.6586  0.1521
 8221SOL    HW225563   4.624   0.355   6.895 -0.0478  0.0001  0.3340
 8222SOL     OW25564   5.903   1.292   3.395 -0.3577  0.4322  0.6368
 8222SOL    HW125565   5.931   1.197   3.408 -0.5005  0.4398  1.0073
 8222SOL    HW225566   5.972   1.340   3.340 -1.1563 -0.3607 -1.1673
 8223SOL     OW25567   3.202   3.334   6.734  0.0536 -0.3706 -0.7696
 8223SOL    HW125568   3.240   3.241   6.740 -1.6454 -1.1040 -0.9064
 8223SOL    HW225569   3.109   3.330   6.700 -0.7210  1.2440  0.9610
 8224SOL     OW25570   4.259   2.293   1.813 -0.2801  0.0962 -0.2715
 8224SOL    HW125571   4.314   2.230   1.759  0.1106 -1.7081  2.0517
 8224SOL    HW225572   4.162   2.281   1.791 -0.4559 -3.0989  1.6650
 8225SOL     OW25573   5.143   6.508   6.717  0.7773 -0.2558  0.0943
 8225SOL    HW125574   5.216   6.552   6.664  0.4989 -0.1581 -0.2132
 8225SOL    HW225575   5.156   6.409   6.717 -0.9941 -0.5980 -2.9324
 8226SOL     OW25576   3.475   2.892   4.417 -0.4237  0.1995  0.3579
 8226SOL    HW125577   3.552   2.886   4.480 -0.1612 -1.3144 -0.0628
 8226SOL    HW225578   3.390   2.906   4.468 -0.0009  0.8759  0.8934
 8227SOL     OW25579   5.439   6.477   2.714  0.3359  0.1140 -0.1206
 8227SOL    HW125580   5.392   6.389   2.727  0.8955 -0.0772  0.6973
 8227SOL    HW225581   5.504   6.469   2.639  1.1557 -0.5068  0.6373
 8228SOL     OW25582   0.567   2.891   0.250 -0.5744  0.2481 -0.2744
 8228SOL    HW125583   0.532   2.960   0.314 -2.2021 -1.5567  0.8841
 8228SOL    HW225584   0.617   2.821   0.301 -1.0005 -0.6800 -1.1070
 8229SOL     OW25585   3.755   4.030   3.615  0.1196 -0.1991 -0.3168
 8229SOL    HW125586   3.694   4.072   3.682  0.6177 -0.4060  0.2680
 8229SOL    HW225587   3.723   4.053   3.523 -1.4633 -1.1693 -0.0573
 8230SOL     OW25588   0.060   5.679   4.801  0.1238  0.8498 -0.0427
 8230SOL    HW125589  -0.003   5.715   4.733 -0.9520 -0.4043  0.2542
 8230SOL    HW225590   0.116   5.754   4.838  0.2188  1.6574 -1.7478
 8231SOL     OW25591   0.425   4.728   2.431 -0.4740  0.7045  0.2361
 8231SOL    HW125592   0.342   4.744   2.485  0.5333  1.8347  1.5333
 8231SOL    HW225593   0.400   4.689   2.342 -2.3035  0.1171  0.9550
 8232SOL     OW25594   5.165   4.871   6.982  0.0506 -0.1198  0.2544
 8232SOL    HW125595   5.079   4.893   6.936 -0.1534 -0.8046  0.3094
 8232SOL    HW225596   5.147   4.851   7.079 -0.1643 -3.0945 -0.3078
 8233SOL     OW25597   0.289   0.835   5.912 -0.4597 -0.3012 -0.1730
 8233SOL    HW125598   0.286   0.931   5.884 -1.0286  0.2623  1.6664
 8233SOL    HW225599   0.224   0.782   5.858 -0.8533  0.5466 -0.5474
 8234SOL     OW25600   5.089   2.521   2.946 -0.2364  0.7721 -0.6199
 8234SOL    HW125601   5.127   2.580   3.018  1.5593 -1.6962  0.5794
 8234SOL    HW225602   5.132   2.543   2.859  2.0968 -0.1235  0.2170
 8235SOL     OW25603   3.244   2.155   4.001  0.0351 -0.1412  0.0660
 8235SOL    HW125604   3.322   2.115   3.953 -0.7955 -3.0229  0.9033
 8235SOL    HW225605   3.160   2.134   3.951 -0.4054  0.9982  0.3104
 8236SOL     OW25606   2.535   3.291   1.291 -0.2175  0.1193 -0.2257
 8236SOL    HW125607   2.561   3.215   1.351 -0.6730 -0.2912 -0.5398
 8236SOL    HW225608   2.576   3.376   1.325  3.0764 -0.7247 -1.6584
 8237SOL     OW25609   4.076   5.771   5.744 -0.3689 -0.4417 -0.1694
 8237SOL    HW125610   4.121   5.848   5.790 -0.6960 -0.1348 -0.3549
 8237SOL    HW225611   4.138   5.733   5.676 -0.1399 -0.4553  0.0440
 8238SOL     OW25612   3.155   3.157   3.545  0.4581  0.1087  0.0277
 8238SOL    HW125613   3.093   3.165   3.467 -0.0357  0.6473  0.4644
 8238SOL    HW225614   3.247   3.183   3.517  0.4506 -0.4983 -0.5772
 8239SOL     OW25615   2.567   5.772   6.952  0.5362  0.2962 -0.1942
 8239SOL    HW125616   2.647   5.729   6.993  0.0861 -1.2726 -0.9090
 8239SOL    HW225617   2.592   5.863   6.918  1.9933 -0.1292 -0.3165
 8240SOL     OW25618   4.039   3.828   2.115 -0.1183  0.0325 -0.4295
 8240SOL    HW125619   4.089   3.817   2.200 -0.6736  0.5882 -0.0227
 8240SOL    HW225620   4.073   3.909   2.066  0.5263 -0.5581 -0.9723
 8241SOL     OW25621   0.036   4.597   2.130  0.7356 -0.0750 -0.6252
 8241SOL    HW125622  -0.011   4.624   2.046  2.7470 -0.5130 -1.9614
 8241SOL    HW225623  -0.029   4.597   2.206 -0.9729  1.1104 -2.0005
 8242SOL     OW25624   2.654   6.389   5.568 -0.5050 -0.4949 -0.4719
 8242SOL    HW125625   2.715   6.335   5.510  0.0009 -0.3368 -0.0893
 8242SOL    HW225626   2.561   6.350   5.564 -0.0240 -1.7646  0.2817
 8243SOL     OW25627   5.750   0.538   0.077  0.4291 -0.9561  0.2345
 8243SOL    HW125628   5.681   0.520   0.146 -0.0640  1.2286  0.3713
 8243SOL    HW225629   5.777   0.452   0.034 -1.1725 -2.0377  1.2893
 8244SOL     OW25630   3.458   1.110   0.276 -0.0859 -0.2268 -0.4335
 8244SOL    HW125631   3.435   1.146   0.186 -0.7439  0.7173  0.0878
 8244SOL    HW225632   3.437   1.012   0.280  0.3151 -0.3567 -1.4156
 8245SOL     OW25633   1.076   4.026   3.069 -0.3105  0.3338 -0.2315
 8245SOL    HW125634   1.077   3.996   3.165  1.7923 -2.5137 -0.9917
 8245SOL    HW225635   0.984   4.013   3.031 -1.0509  1.0568  1.2268
 8246SOL     OW25636   3.211   3.061   0.866 -0.8621  0.3975 -0.1739
 8246SOL    HW125637   3.126   3.009   0.877  0.0601 -1.4624 -1.3654
 8246SOL    HW225638   3.194   3.138   0.806 -1.9949  0.8489  0.6742
 8247SOL     OW25639   3.152   2.931   6.041 -0.1333 -0.3347  0.5403
 8247SOL    HW125640   3.170   2.836   6.015  1.4790 -0.5492  2.2063
 8247SOL    HW225641   3.211   2.992   5.988  1.1319 -0.5529  1.6363
 8248SOL     OW25642   5.677   3.988   4.362  0.3833 -0.5473 -0.5530
 8248SOL    HW125643   5.588   3.947   4.382 -1.3043  2.3511 -1.6462
 8248SOL    HW225644   5.686   4.075   4.410  3.4422 -1.5182  0.9170
 8249SOL     OW25645   0.431   6.893   0.358  0.0467  0.0674 -0.2551
 8249SOL    HW125646   0.345   6.845   0.371 -0.1250  0.2317 -0.7582
 8249SOL    HW225647   0.434   6.932   0.266  0.8345 -0.2981 -0.3938
 8250SOL     OW25648   6.423   3.216   0.391  0.5283  0.8580 -0.3150
 8250SOL    HW125649   6.492   3.151   0.422  0.3793  0.2028 -1.3164
 8250SOL    HW225650   6.378   3.258   0.470  0.9221  0.0626  0.3424
 8251SOL     OW25651   0.667   5.203   0.966  0.0189 -0.3599  0.5158
 8251SOL    HW125652   0.577   5.164   0.987  0.7116 -0.5826  3.3411
 8251SOL    HW225653   0.705   5.246   1.047  2.4425 -0.1578 -0.6433
 8252SOL     OW25654   5.544   0.492   0.229 -0.0936 -0.7825 -0.1133
 8252SOL    HW125655   5.537   0.576   0.282  1.5402 -0.2336 -0.6963
 8252SOL    HW225656   5.459   0.439   0.238 -0.7970  0.4772  0.9917
 8253SOL     OW25657   4.143   5.562   2.508 -0.5051  0.0747  0.0482
 8253SOL    HW125658   4.175   5.593   2.597  1.4301 -0.5519 -0.3789
 8253SOL    HW225659   4.160   5.464   2.499  3.1212  0.7353 -2.4194
 8254SOL     OW25660   3.276   6.145   1.761  0.1166  0.5046 -0.8120
 8254SOL    HW125661   3.270   6.198   1.676  0.5162  1.9823  0.0281
 8254SOL    HW225662   3.287   6.208   1.838 -0.5640 -0.7833  0.3800
 8255SOL     OW25663   4.550   0.976   5.088 -0.5238 -0.2453  0.4891
 8255SOL    HW125664   4.450   0.971   5.097 -0.3320 -1.8601  2.4607
 8255SOL    HW225665   4.588   1.020   5.169  0.4100 -0.4266  0.1519
 8256SOL     OW25666   0.392   4.517   5.388 -0.1361  0.0392  0.0771
 8256SOL    HW125667   0.440   4.560   5.312 -0.7067 -2.1349 -1.6084
 8256SOL    HW225668   0.442   4.436   5.419 -0.7176 -0.0063  0.9683
 8257SOL     OW25669   6.813   1.551   3.240 -0.1096  0.2104  0.0912
 8257SOL    HW125670   6.842   1.536   3.335 -2.0574 -1.6491  0.4586
 8257SOL    HW225671   6.738   1.617   3.238 -0.7068 -0.4550 -0.0151
 8258SOL     OW25672   0.945   6.307   3.830 -0.7650  0.0173  0.5942
 8258SOL    HW125673   0.990   6.388   3.868  0.2886  0.0764 -0.7313
 8258SOL    HW225674   0.931   6.320   3.732  1.9870 -2.4600 -0.2633
 8259SOL     OW25675   2.537   4.226   1.329 -0.1258 -0.2937  0.0652
 8259SOL    HW125676   2.604   4.239   1.256  0.5755 -0.8267  0.5992
 8259SOL    HW225677   2.445   4.239   1.292  0.2379 -0.0435 -0.7898
 8260SOL     OW25678   2.742   4.748   0.304  0.4861 -0.2860  0.3801
 8260SOL    HW125679   2.763   4.666   0.251  0.2528  1.8335 -3.3821
 8260SOL    HW225680   2.826   4.801   0.317  0.0525  0.7796 -0.9207
 8261SOL     OW25681   1.092   0.593   3.105 -0.2404 -0.0403  0.3620
 8261SOL    HW125682   1.107   0.691   3.115 -0.2298 -0.2415  3.2382
 8261SOL    HW225683   0.996   0.576   3.084 -0.5415  0.5721  1.1741
 8262SOL     OW25684   5.703   0.429   4.145 -0.7133  0.1662  0.1529
 8262SOL    HW125685   5.730   0.348   4.092  0.8456 -0.6336  2.0591
 8262SOL    HW225686   5.614   0.413   4.188 -1.4124  0.3495 -1.1468
 8263SOL     OW25687   3.907   2.270   0.374 -0.1578  0.1006 -0.1740
 8263SOL    HW125688   3.998   2.277   0.415 -0.6517  2.4485  0.6629
 8263SOL    HW225689   3.903   2.188   0.316  2.6985  0.3137 -0.8168
 8264SOL     OW25690   0.920   5.768   5.921 -0.3906 -0.2268 -0.2479
 8264SOL    HW125691   0.841   5.729   5.970  0.8593 -0.3033  1.8443
 8264SOL    HW225692   0.888   5.839   5.858 -2.0328  1.2711  2.0752
 8265SOL     OW25693   4.349   0.206   2.584 -0.4483 -0.4545  0.4688
 8265SOL    HW125694   4.409   0.200   2.504 -0.6019  0.3287  0.2816
 8265SOL    HW225695   4.388   0.153   2.659  1.3729  1.3810  0.8998
 8266SOL     OW25696   4.254   4.781   4.854 -0.1020 -0.4627 -0.1839
 8266SOL    HW125697   4.241   4.758   4.758  0.8075 -0.0290 -0.4289
 8266SOL    HW225698   4.286   4.700   4.904  0.8963 -0.3253 -0.5737
 8267SOL     OW25699   3.560   6.140   0.955 -0.0820 -0.1314 -1.1893
 8267SOL    HW125700   3.535   6.181   0.867 -1.6887 -1.7142 -1.5245
 8267SOL    HW225701   3.510   6.185   1.029 -0.9370 -0.6746 -1.4243
 8268SOL     OW25702   6.936   1.711   1.479  0.0965  0.0950 -0.6243
 8268SOL    HW125703   6.979   1.667   1.400 -0.2523  0.1321 -0.8348
 8268SOL    HW225704   6.855   1.762   1.449 -0.5377 -0.6007 -0.1228
 8269SOL     OW25705   2.531   2.044   6.384  0.0099 -0.5679  0.3744
 8269SOL    HW125706   2.456   2.019   6.322 -0.0539 -2.5523  1.1760
 8269SOL    HW225707   2.618   2.033   6.337 -0.1040 -0.3080  0.0950
 8270SOL     OW25708   5.464   0.884   2.286 -0.2956  0.3854  0.3185
 8270SOL    HW125709   5.533   0.861   2.355 -0.2180 -0.5683 -0.0769
 8270SOL    HW225710   5.436   0.980   2.299  1.1328  0.8066  0.4417
 8271SOL     OW25711   2.328   3.623   5.604  0.1954  0.3217  0.2403
 8271SOL    HW125712   2.306   3.538   5.652  1.5200  0.0754  0.4558
 8271SOL    HW225713   2.271   3.697   5.640  0.8037  0.0411  1.8752
 8272SOL     OW25714   4.909   0.162   2.397  0.3719  0.6793 -0.0070
 8272SOL    HW125715   4.843   0.129   2.329  0.8500  2.3668 -1.3423
 8272SOL    HW225716   4.922   0.091   2.467 -2.4558  0.0869  0.0520
 8273SOL     OW25717   1.985   0.636   1.425  0.1786  0.2869  0.2567
 8273SOL    HW125718   2.002   0.707   1.357  2.0488 -0.5109 -0.1769
 8273SOL    HW225719   2.044   0.650   1.504  0.6095 -0.7668  0.1435
 8274SOL     OW25720   1.418   2.289   3.535  0.1577 -0.0752  0.6028
 8274SOL    HW125721   1.485   2.344   3.485  0.2342 -0.3484  0.4031
 8274SOL    HW225722   1.464   2.210   3.577 -0.2959 -1.2292 -0.9551
 8275SOL     OW25723   4.140   5.040   0.093 -0.4098 -0.5582 -0.8158
 8275SOL    HW125724   4.204   5.102   0.047 -0.3322  0.6425  0.8234
 8275SOL    HW225725   4.073   5.006   0.027 -1.8726  3.0620 -1.4412
 8276SOL     OW25726   1.654   2.196   3.320 -0.4410  0.2337 -0.8465
 8276SOL    HW125727   1.679   2.121   3.258  0.1282 -0.4640  0.1866
 8276SOL    HW225728   1.624   2.157   3.407  1.0648  1.2272  0.1479
 8277SOL     OW25729   6.876   5.746   1.773  0.0454  0.0212 -0.3389
 8277SOL    HW125730   6.858   5.683   1.849 -0.4088  0.0351 -0.4308
 8277SOL    HW225731   6.907   5.695   1.693 -0.3549 -0.0895 -0.4236
 8278SOL     OW25732   5.650   6.954   5.393 -0.2344  0.5124 -0.8747
 8278SOL    HW125733   5.639   6.888   5.468  0.9019  1.0280 -0.2323
 8278SOL    HW225734   5.591   6.927   5.317 -0.4422 -0.7632 -0.3010
 8279SOL     OW25735   3.363   2.084   4.928 -0.0179 -0.2218  0.2791
 8279SOL    HW125736   3.312   2.154   4.978  0.1835 -0.3501  0.6664
 8279SOL    HW225737   3.410   2.024   4.993  0.9930  0.1638 -0.0789
 8280SOL     OW25738   4.019   6.318   3.555  0.0637 -0.4858 -0.0542
 8280SOL    HW125739   4.101   6.360   3.594 -0.7958  0.3803  0.8794
 8280SOL    HW225740   4.041   6.276   3.467  0.8857  2.4383 -1.3614
 8281SOL     OW25741   1.181   3.483   0.505 -0.2098 -0.1243  0.4254
 8281SOL    HW125742   1.232   3.489   0.420 -1.7587 -0.6263 -0.5831
 8281SOL    HW225743   1.222   3.414   0.564 -1.0472 -2.2638 -1.3594
 8282SOL     OW25744   6.537   4.386   3.416 -0.7431 -0.6744 -0.0824
 8282SOL    HW125745   6.525   4.411   3.512  0.8683  1.5203 -0.3764
 8282SOL    HW225746   6.448   4.382   3.370 -1.3203  1.9604  0.6679
 8283SOL     OW25747   1.086   0.284   3.470 -0.3917 -0.4082 -0.4115
 8283SOL    HW125748   1.044   0.330   3.548 -1.6210 -0.1434 -1.2037
 8283SOL    HW225749   1.136   0.351   3.414 -1.6906 -0.0980 -1.2444
 8284SOL     OW25750   6.805   1.248   6.849  0.0021  0.8135 -0.4004
 8284SOL    HW125751   6.716   1.205   6.862  0.4866  0.1703  1.0392
 8284SOL    HW225752   6.815   1.325   6.913  0.9944 -0.0093  0.4829
 8285SOL     OW25753   6.046   2.583   6.925  0.4889 -0.8284 -0.2494
 8285SOL    HW125754   5.960   2.617   6.962  1.3322  0.8197  0.2685
 8285SOL    HW225755   6.089   2.522   6.992  0.2424 -0.8075 -0.0701
 8286SOL     OW25756   2.827   2.815   5.887  0.0386 -0.2442 -0.4514
 8286SOL    HW125757   2.861   2.909   5.891  2.6589 -1.1203  2.9901
 8286SOL    HW225758   2.882   2.763   5.822 -0.3567  0.2148 -1.1666
 8287SOL     OW25759   0.449   1.253   7.004 -0.4388  0.5329 -0.1737
 8287SOL    HW125760   0.499   1.300   7.076 -0.5016  1.0154 -0.4390
 8287SOL    HW225761   0.381   1.315   6.964 -0.3048  0.3182 -0.7489
 8288SOL     OW25762   6.495   3.392   2.701  0.4104  0.2914 -0.4866
 8288SOL    HW125763   6.484   3.365   2.605 -0.5248 -1.2261  0.0073
 8288SOL    HW225764   6.445   3.477   2.717 -0.4662 -0.1012 -1.0694
 8289SOL     OW25765   1.152   1.605   4.828 -0.0031 -0.0384  0.7957
 8289SOL    HW125766   1.163   1.689   4.775 -2.1795 -0.5125 -0.5073
 8289SOL    HW225767   1.146   1.527   4.766 -0.5131 -0.8735  1.8568
 8290SOL     OW25768   1.689   3.564   3.860  0.5461 -0.4034 -0.0167
 8290SOL    HW125769   1.767   3.529   3.808  0.5107  0.6090 -0.7752
 8290SOL    HW225770   1.658   3.650   3.820  0.4853  0.3965  1.6564
 8291SOL     OW25771   0.443   6.198   3.413  0.2110  0.1289 -0.5695
 8291SOL    HW125772   0.452   6.239   3.504  0.7874  1.9655 -1.3913
 8291SOL    HW225773   0.431   6.099   3.421  0.1278  0.2731  1.4923
 8292SOL     OW25774   2.588   5.461   0.579  0.6046 -0.1038 -0.1831
 8292SOL    HW125775   2.488   5.453   0.580  0.6986 -1.3912  0.2042
 8292SOL    HW225776   2.616   5.536   0.639 -0.1402  0.6469 -0.7407
 8293SOL     OW25777   4.591   0.445   2.476  0.2716 -0.1948 -0.0648
 8293SOL    HW125778   4.552   0.354   2.456  0.7339 -0.8805  1.9626
 8293SOL    HW225779   4.690   0.441   2.465  0.2522  0.1943 -0.3859
 8294SOL     OW25780   1.920   1.773   1.642 -0.2480 -0.4605 -1.0012
 8294SOL    HW125781   1.897   1.688   1.595  0.2300 -0.5912 -1.0054
 8294SOL    HW225782   1.964   1.836   1.578 -0.1095 -0.4231 -0.8715
 8295SOL     OW25783   5.540   2.500   1.168  0.1123 -0.7933  0.5225
 8295SOL    HW125784   5.614   2.433   1.172 -0.1214 -1.2765 -1.7123
 8295SOL    HW225785   5.577   2.592   1.158  0.4218 -0.8945  0.7547
 8296SOL     OW25786   3.154   5.582   5.997  0.0011  0.4876 -0.1803
 8296SOL    HW125787   3.074   5.638   6.022  0.4400  0.9435  0.2341
 8296SOL    HW225788   3.229   5.601   6.061  0.7800  0.8254 -1.1540
 8297SOL     OW25789   6.023   4.655   5.942  0.2763  0.0658 -0.0815
 8297SOL    HW125790   5.974   4.728   5.990  0.0493  0.0784 -0.3268
 8297SOL    HW225791   6.041   4.683   5.847  1.1595  0.2382  0.1292
 8298SOL     OW25792   6.365   4.388   1.437  0.0782 -0.3946  0.1419
 8298SOL    HW125793   6.386   4.336   1.520 -0.7537 -0.5243  0.2708
 8298SOL    HW225794   6.451   4.413   1.392  0.6521  1.3088  2.0390
 8299SOL     OW25795   5.897   5.458   4.570 -0.2619  0.4501  0.8435
 8299SOL    HW125796   5.890   5.404   4.654 -0.9909  0.7446  0.9831
 8299SOL    HW225797   5.836   5.419   4.501  1.7736 -1.0105 -0.2689
 8300SOL     OW25798   4.642   1.651   4.111 -0.2311  0.1538  0.2299
 8300SOL    HW125799   4.740   1.632   4.122  0.0875  0.8613 -1.1271
 8300SOL    HW225800   4.608   1.698   4.193  0.3550 -0.8308  1.0667
 8301SOL     OW25801   5.716   4.590   3.033  0.3120 -1.1549  0.3408
 8301SOL    HW125802   5.628   4.544   3.024 -0.2933  0.0311 -0.1134
 8301SOL    HW225803   5.752   4.611   2.942  0.8320 -1.2174  0.5328
 8302SOL     OW25804   6.412   3.118   2.913 -0.4312 -0.5291 -0.0868
 8302SOL    HW125805   6.437   3.139   2.819 -0.4904 -2.0175 -0.4599
 8302SOL    HW225806   6.316   3.090   2.916 -0.2072 -1.2652  0.2909
 8303SOL     OW25807   2.212   1.329   6.989 -0.5078 -0.6375  0.5486
 8303SOL    HW125808   2.211   1.234   7.022 -0.9273 -1.1198 -0.7622
 8303SOL    HW225809   2.305   1.364   6.989  0.3762 -2.5381 -2.8351
 8304SOL     OW25810   4.271   3.350   0.430 -0.8195 -0.5000 -0.0282
 8304SOL    HW125811   4.332   3.397   0.366 -1.1408  1.2754  0.9010
 8304SOL    HW225812   4.190   3.318   0.381 -1.9899  2.5323 -0.2951
 8305SOL     OW25813   5.885   2.652   0.330 -0.2163  0.8657  0.1227
 8305SOL    HW125814   5.882   2.750   0.346 -0.3617  0.7744  0.6677
 8305SOL    HW225815   5.844   2.632   0.241  1.2592  1.4419 -0.7283
 8306SOL     OW25816   3.136   1.139   3.468  0.3000  0.2773 -0.7510
 8306SOL    HW125817   3.134   1.236   3.444 -0.7846  0.3343 -0.4755
 8306SOL    HW225818   3.114   1.128   3.565 -1.1099 -0.3254 -1.1099
 8307SOL     OW25819   4.983   4.990   2.534 -0.6482 -0.0584 -0.6523
 8307SOL    HW125820   5.052   4.978   2.463  0.3128  0.0097  0.2496
 8307SOL    HW225821   4.989   4.916   2.600 -0.8960  0.3770 -0.1310
 8308SOL     OW25822   4.418   2.390   4.677  0.2377  0.1104  0.0602
 8308SOL    HW125823   4.392   2.418   4.585 -0.8731  0.9668  0.6081
 8308SOL    HW225824   4.410   2.468   4.739  0.9993 -0.4444  0.8731
 8309SOL     OW25825   5.008   5.465   4.787 -0.2059  0.2358  0.2943
 8309SOL    HW125826   4.918   5.425   4.770  1.1583 -3.2243  0.4378
 8309SOL    HW225827   5.017   5.488   4.884 -0.3068 -1.2692  0.6851
 8310SOL     OW25828   5.182   6.210   1.112  0.5250  0.1185  0.5057
 8310SOL    HW125829   5.105   6.241   1.168 -0.4746 -1.2648 -0.0142
 8310SOL    HW225830   5.148   6.187   1.020  1.5197 -0.6887  0.3171
 8311SOL     OW25831   4.525   6.493   3.507  0.3593  0.2208  0.2099
 8311SOL    HW125832   4.553   6.587   3.487 -0.6538  0.1613 -1.6869
 8311SOL    HW225833   4.438   6.494   3.558  1.4102  0.3007  2.1139
 8312SOL     OW25834   2.835   5.029   6.135 -0.6454  0.2132  0.1887
 8312SOL    HW125835   2.765   4.976   6.183 -0.0450 -0.8731 -0.0976
 8312SOL    HW225836   2.814   5.127   6.143 -1.4363 -0.0195  1.2785
 8313SOL     OW25837   4.423   1.805   6.023 -0.5692 -0.1598  0.2439
 8313SOL    HW125838   4.453   1.863   5.947 -0.4373 -2.0888 -1.2541
 8313SOL    HW225839   4.422   1.858   6.107  2.7768  1.2004 -0.4118
 8314SOL     OW25840   4.393   4.941   2.258  0.4701  0.1177  0.1223
 8314SOL    HW125841   4.449   4.868   2.296  0.2882 -1.6431 -2.7306
 8314SOL    HW225842   4.442   4.985   2.183 -1.4822 -0.8474 -1.8420
 8315SOL     OW25843   2.933   1.157   6.866 -0.0644 -0.8706 -0.2962
 8315SOL    HW125844   2.949   1.170   6.768 -1.2183 -1.5987 -0.6008
 8315SOL    HW225845   2.852   1.101   6.879 -1.8966  1.8835  1.1267
 8316SOL     OW25846   6.617   4.535   0.522  0.7266 -0.5132  0.1034
 8316SOL    HW125847   6.543   4.564   0.582 -0.8730 -0.6384 -1.7242
 8316SOL    HW225848   6.640   4.608   0.459  1.1678 -0.9907 -0.3011
 8317SOL     OW25849   1.206   5.824   6.164  0.3677  0.0415  0.5374
 8317SOL    HW125850   1.231   5.914   6.127  1.2012  0.7515  2.6670
 8317SOL    HW225851   1.121   5.832   6.215 -0.6731 -0.8893 -0.9505
 8318SOL     OW25852   1.700   6.928   4.427 -0.1889 -0.3398 -0.1357
 8318SOL    HW125853   1.776   6.865   4.411 -0.2159 -0.4972  0.3562
 8318SOL    HW225854   1.641   6.892   4.499 -0.0625  0.3735  0.3375
 8319SOL     OW25855   2.899   0.443   5.638 -0.6011  0.0070 -0.0896
 8319SOL    HW125856   2.884   0.490   5.725  0.6233  0.0064  0.1330
 8319SOL    HW225857   2.871   0.502   5.562  1.1776  1.2461  0.1728
 8320SOL     OW25858   3.910   4.291   0.281 -0.1020 -0.3487  0.0940
 8320SOL    HW125859   3.997   4.299   0.328 -0.7715 -1.3502  1.5687
 8320SOL    HW225860   3.862   4.380   0.283  0.1762 -0.2113  0.6943
 8321SOL     OW25861   2.844   2.778   0.059  0.4190 -0.0660 -0.0804
 8321SOL    HW125862   2.930   2.762   0.011  0.8158  0.6514  0.3758
 8321SOL    HW225863   2.835   2.712   0.134  0.1460 -0.7048 -0.6567
 8322SOL     OW25864   0.615   6.684   0.374  0.3108  0.0544 -0.5073
 8322SOL    HW125865   0.554   6.754   0.336  1.1880  0.3638 -1.3910
 8322SOL    HW225866   0.654   6.718   0.460 -1.3722 -0.4875  0.5151
 8323SOL     OW25867   1.170   0.329   6.609 -0.4507  0.1873 -0.2609
 8323SOL    HW125868   1.251   0.291   6.565 -1.0405  0.2378 -1.4221
 8323SOL    HW225869   1.094   0.264   6.602 -0.5590  0.1918  0.7082
 8324SOL     OW25870   6.119   4.540   1.613 -0.1860  0.2997  0.3143
 8324SOL    HW125871   6.114   4.638   1.591 -1.6363  0.5278  1.4258
 8324SOL    HW225872   6.197   4.524   1.673  0.8941  0.5040 -0.9933
 8325SOL     OW25873   0.048   3.526   1.302 -0.4298 -0.3903  0.0297
 8325SOL    HW125874   0.146   3.511   1.312  0.0794 -0.0792 -3.3286
 8325SOL    HW225875  -0.000   3.439   1.304 -0.1927 -0.5224  2.0161
 8326SOL     OW25876   4.896   3.187   4.890 -0.1302 -0.6035  0.0449
 8326SOL    HW125877   4.953   3.255   4.936  0.9043 -1.2658 -0.2216
 8326SOL    HW225878   4.897   3.102   4.943 -1.6627 -0.3416  0.5388
 8327SOL     OW25879   0.366   3.066   4.576  0.5560  0.2602 -0.4254
 8327SOL    HW125880   0.429   3.140   4.552  0.9811  0.0724  0.0891
 8327SOL    HW225881   0.364   3.054   4.675  0.4438 -0.3777 -0.4960
 8328SOL     OW25882   4.876   5.581   5.802 -0.2653 -0.1227 -0.2989
 8328SOL    HW125883   4.827   5.515   5.858 -0.0288 -0.7340 -0.7930
 8328SOL    HW225884   4.819   5.608   5.724 -0.8913  1.2967  0.6064
 8329SOL     OW25885   2.463   4.650   4.776  0.2649  0.3478 -0.1978
 8329SOL    HW125886   2.504   4.684   4.861 -0.8963  2.9066 -0.5558
 8329SOL    HW225887   2.401   4.574   4.796  0.1517  0.7899  1.2181
 8330SOL     OW25888   5.735   1.105   1.153 -0.2404  0.2791 -0.0925
 8330SOL    HW125889   5.740   1.201   1.124  0.5270  1.0105  2.2228
 8330SOL    HW225890   5.640   1.080   1.168 -0.5350  0.3181 -1.7305
 8331SOL     OW25891   3.754   5.760   4.261 -0.1975  0.4533 -0.3794
 8331SOL    HW125892   3.750   5.842   4.319 -1.4462  0.3861 -0.3342
 8331SOL    HW225893   3.677   5.700   4.283 -0.3811  0.1636 -1.7166
 8332SOL     OW25894   2.687   3.134   5.672  0.5120 -0.2501  0.4303
 8332SOL    HW125895   2.605   3.118   5.727 -0.9900 -0.5754 -1.7777
 8332SOL    HW225896   2.768   3.132   5.732 -1.0373 -0.0124  2.6641
 8333SOL     OW25897   1.865   2.982   0.000  0.0830  0.0331  0.4844
 8333SOL    HW125898   1.929   3.056  -0.018  0.9544 -0.6651  0.6517
 8333SOL    HW225899   1.890   2.902  -0.055 -1.5467  0.2206 -0.5986
 8334SOL     OW25900   0.217   5.899   2.856 -0.3533  0.1330 -0.0373
 8334SOL    HW125901   0.311   5.863   2.852 -0.7826 -1.0368  0.1204
 8334SOL    HW225902   0.192   5.937   2.767 -0.0422 -0.3653 -0.3442
 8335SOL     OW25903   1.434   6.784   0.809  0.0412 -0.2035  0.7854
 8335SOL    HW125904   1.516   6.798   0.864 -0.2270 -1.8617  1.6621
 8335SOL    HW225905   1.361   6.845   0.842  1.0495  1.7272 -0.3991
 8336SOL     OW25906   2.092   1.138   6.362 -0.2835 -0.0474 -0.3678
 8336SOL    HW125907   2.050   1.059   6.407 -3.3027  1.3903 -0.4447
 8336SOL    HW225908   2.162   1.177   6.422 -1.1591 -0.7465  1.1606
 8337SOL     OW25909   2.632   6.955   6.513  0.0915 -0.6743  0.0210
 8337SOL    HW125910   2.556   6.924   6.572  0.9125  2.8551  3.3241
 8337SOL    HW225911   2.604   6.948   6.417 -3.1990 -2.3923  0.9286
 8338SOL     OW25912   0.943   3.735   2.224  0.2829  0.4141 -0.6338
 8338SOL    HW125913   0.854   3.766   2.256  0.3022  0.2169 -0.3881
 8338SOL    HW225914   1.015   3.789   2.267  0.2521  1.2082 -1.5452
 8339SOL     OW25915   5.642   2.432   1.546 -0.1042  0.6227 -0.4773
 8339SOL    HW125916   5.632   2.530   1.559  1.7228  0.9087 -0.9202
 8339SOL    HW225917   5.576   2.383   1.603  0.1621  2.0602  1.1134
 8340SOL     OW25918   4.217   5.112   5.146  0.2806 -0.0979 -0.0764
 8340SOL    HW125919   4.240   5.020   5.178  0.4336 -0.2911 -0.7293
 8340SOL    HW225920   4.120   5.116   5.123  0.4044 -0.2781 -0.6429
 8341SOL     OW25921   0.818   3.144   4.714  0.5283 -0.0886 -0.1868
 8341SOL    HW125922   0.879   3.204   4.766 -1.0158  1.1663  0.2462
 8341SOL    HW225923   0.747   3.109   4.774 -1.0102  0.9957 -1.3040
 8342SOL     OW25924   1.810   1.101   2.835 -0.4338  0.1590 -0.2611
 8342SOL    HW125925   1.893   1.078   2.784 -0.0280  2.4754 -0.7793
 8342SOL    HW225926   1.764   1.178   2.790 -0.3561  1.9651  2.4888
 8343SOL     OW25927   2.849   6.411   4.062  0.0151 -0.3745 -0.3072
 8343SOL    HW125928   2.754   6.424   4.091 -0.1351 -2.6566  0.3945
 8343SOL    HW225929   2.903   6.375   4.138  1.7284  1.7307 -0.4098
 8344SOL     OW25930   2.111   5.152   4.820  0.5597 -0.2431  0.1892
 8344SOL    HW125931   2.178   5.085   4.787  0.0157 -0.5443 -0.3401
 8344SOL    HW225932   2.156   5.240   4.836  0.8721 -0.0910 -1.3671
 8345SOL     OW25933   3.506   4.042   5.663  0.3348 -0.3677 -0.4338
 8345SOL    HW125934   3.421   4.025   5.612  0.8663  2.0869 -2.3266
 8345SOL    HW225935   3.489   4.111   5.734  1.0602  1.6182 -2.1019
 8346SOL     OW25936   5.070   3.754   5.440 -0.4534 -0.1360 -0.4885
 8346SOL    HW125937   5.043   3.783   5.348 -0.6968  1.6059  0.0847
 8346SOL    HW225938   5.138   3.818   5.476 -0.9666 -0.3016  0.8385
 8347SOL     OW25939   4.260   1.373   6.826  0.0729  0.0646  0.6204
 8347SOL    HW125940   4.305   1.373   6.916  0.2017 -1.1181  0.5766
 8347SOL    HW225941   4.185   1.307   6.827 -0.3704  0.5535  0.0644
 8348SOL     OW25942   3.180   4.928   3.729 -0.2266 -0.1822  0.5995
 8348SOL    HW125943   3.093   4.900   3.770  0.1912 -5.2332 -1.1586
 8348SOL    HW225944   3.255   4.909   3.792 -0.0740 -1.4296  0.0767
 8349SOL     OW25945   0.509   2.834   6.855 -0.0991  0.1268 -0.1918
 8349SOL    HW125946   0.558   2.748   6.839  0.4866  0.3996  0.0950
 8349SOL    HW225947   0.429   2.839   6.794 -1.3088 -1.5252  1.1840
 8350SOL     OW25948   3.579   3.900   6.285  0.1257 -0.4733 -0.6538
 8350SOL    HW125949   3.601   3.954   6.204 -0.3398 -0.5958 -0.8633
 8350SOL    HW225950   3.524   3.955   6.348 -0.5826 -0.7861 -0.9911
 8351SOL     OW25951   6.734   1.799   4.407  0.1904 -0.7146  0.3004
 8351SOL    HW125952   6.708   1.870   4.473  0.6175 -1.9374  1.8386
 8351SOL    HW225953   6.654   1.773   4.353 -0.3910 -0.3145  0.9557
 8352SOL     OW25954   6.907   5.176   3.106  0.0865  0.6247  0.1379
 8352SOL    HW125955   6.896   5.078   3.124 -0.9494  0.9904  1.6612
 8352SOL    HW225956   6.836   5.207   3.042  1.2423  0.1473 -1.4375
 8353SOL     OW25957   1.554   1.822   0.346 -0.0896  0.5187 -0.1965
 8353SOL    HW125958   1.595   1.912   0.364  0.3349  0.2313  0.2751
 8353SOL    HW225959   1.614   1.770   0.285 -0.5667  0.7282 -0.8654
 8354SOL     OW25960   1.785   4.045   2.337 -0.6113 -0.0748  0.0062
 8354SOL    HW125961   1.883   4.041   2.318 -0.3682  2.1204  0.6184
 8354SOL    HW225962   1.738   4.093   2.263 -1.4121 -1.8565 -0.7194
 8355SOL     OW25963   3.995   2.445   0.668 -0.5803  0.1435  0.0562
 8355SOL    HW125964   4.064   2.476   0.603  1.0320 -3.9770 -0.5416
 8355SOL    HW225965   3.926   2.390   0.620 -1.5838  0.2722  1.3003
 8356SOL     OW25966   6.958   3.944   6.908 -0.0089 -0.2847 -0.2350
 8356SOL    HW125967   6.993   3.891   6.985 -1.3397  1.6555  1.8449
 8356SOL    HW225968   6.875   3.993   6.936 -0.5301  0.5364 -2.9189
 8357SOL     OW25969   6.204   6.877   6.882  0.5411  0.1849  0.1144
 8357SOL    HW125970   6.301   6.866   6.864  0.6598  0.3904  0.5992
 8357SOL    HW225971   6.191   6.905   6.977  0.0037  0.0829  0.0755
 8358SOL     OW25972   6.066   0.197   0.108 -0.0405 -0.3451 -0.5068
 8358SOL    HW125973   5.998   0.222   0.039  2.1333 -2.2490 -3.5767
 8358SOL    HW225974   6.034   0.228   0.198 -4.1879  0.1761 -1.9170
 8359SOL     OW25975   0.076   4.616   5.471  0.4740 -0.2317 -0.0647
 8359SOL    HW125976   0.086   4.556   5.391 -1.4092  0.1496 -0.6348
 8359SOL    HW225977   0.150   4.597   5.536  0.6295 -2.3156 -0.7603
 8360SOL     OW25978   2.870   1.248   2.176  0.2264 -0.0481 -0.2583
 8360SOL    HW125979   2.835   1.181   2.110 -1.3650  0.9492 -0.4859
 8360SOL    HW225980   2.815   1.331   2.172 -0.1190 -0.0330  2.5198
 8361SOL     OW25981   2.185   3.030   1.376  0.2216  0.6827 -0.2802
 8361SOL    HW125982   2.118   3.102   1.391 -1.1020 -0.1816 -1.6890
 8361SOL    HW225983   2.213   2.991   1.464 -1.3439  0.8915  0.3390
 8362SOL     OW25984   2.098   3.738   5.985 -0.0512  0.7982  0.0462
 8362SOL    HW125985   2.154   3.820   5.973  0.7411  0.1131 -1.1143
 8362SOL    HW225986   2.002   3.764   5.996  0.2823  1.9073  0.4588
 8363SOL     OW25987   5.705   6.320   5.481 -0.1858  0.0923 -0.8283
 8363SOL    HW125988   5.622   6.337   5.428 -0.2858 -0.0006 -0.7005
 8363SOL    HW225989   5.682   6.311   5.578  0.3064  3.1377 -0.3328
 8364SOL     OW25990   5.002   1.176   5.742  0.4044 -0.5498  0.6022
 8364SOL    HW125991   5.031   1.126   5.660  0.1973 -0.0445  0.2211
 8364SOL    HW225992   4.978   1.110   5.814  0.8559 -0.9940  0.3580
 8365SOL     OW25993   5.671   1.553   1.151 -0.4561 -0.6391  0.2904
 8365SOL    HW125994   5.704   1.483   1.215 -0.9711  0.7658  2.1754
 8365SOL    HW225995   5.671   1.516   1.058  1.4433 -2.3788  0.9157
 8366SOL     OW25996   0.614   0.254   0.710 -0.3372 -0.5179 -0.0339
 8366SOL    HW125997   0.676   0.195   0.659  0.5068  0.0139  0.3592
 8366SOL    HW225998   0.649   0.266   0.803 -0.8243  0.1125  0.0717
 8367SOL     OW25999   0.464   2.293   6.810  0.6350 -0.5619  0.1434
 8367SOL    HW126000   0.487   2.205   6.768  0.6075 -0.3741 -0.2639
 8367SOL    HW226001   0.533   2.315   6.880  2.5276  0.6354 -1.9649
 8368SOL     OW26002   5.894   4.487   1.407 -0.0738 -0.0391 -0.2681
 8368SOL    HW126003   5.826   4.508   1.337  0.7764  1.3870 -0.7095
 8368SOL    HW226004   5.980   4.533   1.385  0.5072 -0.3729  1.1932
 8369SOL     OW26005   6.777   0.370   2.302  0.5066 -0.2116 -0.3977
 8369SOL    HW126006   6.700   0.309   2.284 -0.2645  0.6913 -0.2457
 8369SOL    HW226007   6.745   0.464   2.306  1.1898 -0.0184  2.2162
 8370SOL     OW26008   0.346   1.654   6.452 -0.3909  0.2713  0.0954
 8370SOL    HW126009   0.409   1.594   6.501 -0.0708 -1.3195 -2.0994
 8370SOL    HW226010   0.252   1.635   6.482 -0.0781  0.7252  1.4348
 8371SOL     OW26011   0.144   6.138   1.891 -0.2547  0.0663  0.3800
 8371SOL    HW126012   0.244   6.148   1.889 -0.3464  1.3436  1.1949
 8371SOL    HW226013   0.101   6.228   1.883 -1.3814 -0.5453 -0.9341
 8372SOL     OW26014   1.818   6.173   0.209  0.1369 -0.0185 -0.3596
 8372SOL    HW126015   1.794   6.227   0.128  0.3435  0.0687 -0.3636
 8372SOL    HW226016   1.734   6.138   0.252  0.0381 -0.2206 -0.7145
 8373SOL     OW26017   4.313   0.610   3.544  0.4736  0.7295 -0.3383
 8373SOL    HW126018   4.392   0.589   3.601 -0.0235  1.7371  0.7644
 8373SOL    HW226019   4.342   0.661   3.463  0.9710  0.8994 -0.0541
 8374SOL     OW26020   0.355   3.866   0.073  0.5941 -0.2391  0.2778
 8374SOL    HW126021   0.422   3.811   0.123  0.2485 -0.1247  0.8809
 8374SOL    HW226022   0.263   3.831   0.092  0.5164 -0.8484 -1.1086
 8375SOL     OW26023   4.645   2.551   0.284 -0.1518 -0.2628 -0.1624
 8375SOL    HW126024   4.676   2.473   0.339  0.8460 -0.8670 -1.5185
 8375SOL    HW226025   4.724   2.607   0.259 -0.6234  0.1534 -0.7484
 8376SOL     OW26026   4.733   2.625   2.803 -0.3559 -0.7511 -1.0641
 8376SOL    HW126027   4.644   2.584   2.824 -0.4293  0.1388  0.5284
 8376SOL    HW226028   4.724   2.687   2.725 -0.5844 -2.4662 -2.4562
 8377SOL     OW26029   3.934   5.549   4.316 -0.1764 -0.1559  0.3235
 8377SOL    HW126030   3.867   5.622   4.303  0.1726 -0.0039 -0.7927
 8377SOL    HW226031   3.954   5.506   4.228  1.4889  0.0905  0.5354
 8378SOL     OW26032   6.533   1.626   6.889 -0.2509 -0.1329 -0.6036
 8378SOL    HW126033   6.526   1.568   6.807 -0.7748  1.0595 -1.4419
 8378SOL    HW226034   6.574   1.713   6.864 -3.0708  1.4159 -0.2881
 8379SOL     OW26035   1.691   2.592   2.581 -0.4336  0.5187 -0.6538
 8379SOL    HW126036   1.664   2.520   2.518 -2.0726  0.7855 -0.3088
 8379SOL    HW226037   1.767   2.560   2.638 -1.1529 -0.9628 -0.4782
 8380SOL     OW26038   6.566   0.987   1.522  0.0171  0.4203  0.1720
 8380SOL    HW126039   6.552   0.888   1.517  3.1022 -0.0661 -0.8327
 8380SOL    HW226040   6.563   1.026   1.430  2.1942  0.6299  0.1319
 8381SOL     OW26041   5.899   5.796   1.310  0.3327 -0.1506  0.5988
 8381SOL    HW126042   5.985   5.754   1.340 -0.0031 -0.3434  1.2883
 8381SOL    HW226043   5.838   5.806   1.388  0.2290  1.1997  0.3628
 8382SOL     OW26044   0.378   5.601   0.993 -0.1689 -0.0643 -0.1552
 8382SOL    HW126045   0.301   5.621   1.054 -0.2437  0.2815 -0.3602
 8382SOL    HW226046   0.380   5.668   0.919  0.3467 -0.0552 -0.1367
 8383SOL     OW26047   4.338   5.911   4.634  0.5769  1.2904 -0.0733
 8383SOL    HW126048   4.253   5.907   4.686  0.1568  1.1579 -0.7684
 8383SOL    HW226049   4.416   5.913   4.698  0.0609  1.3875  0.5598
 8384SOL     OW26050   2.376   2.383   2.303  0.1509  0.2203 -0.4980
 8384SOL    HW126051   2.453   2.416   2.249 -0.6366  0.1566 -1.6932
 8384SOL    HW226052   2.295   2.438   2.284 -0.6237 -1.0113 -0.8508
 8385SOL     OW26053   5.676   1.375   0.185 -0.4344 -0.3788  0.0920
 8385SOL    HW126054   5.630   1.455   0.224 -0.4298  0.0994 -0.8495
 8385SOL    HW226055   5.725   1.327   0.257 -0.0736  0.7105  0.6036
 8386SOL     OW26056   6.497   0.065   2.272 -0.4639  0.1637  0.5426
 8386SOL    HW126057   6.504  -0.034   2.278 -0.5723  0.1872  1.1489
 8386SOL    HW226058   6.533   0.096   2.184  1.3783 -0.2499  1.0923
 8387SOL     OW26059   3.482   4.114   6.958  0.2878  0.1287 -0.5617
 8387SOL    HW126060   3.520   4.072   7.040  0.8113  1.6020 -0.0064
 8387SOL    HW226061   3.445   4.044   6.898 -0.4143 -0.9777  1.0897
 8388SOL     OW26062   6.079   1.869   5.356  0.0410  0.7610 -0.2801
 8388SOL    HW126063   6.041   1.960   5.339  0.0146  1.3080  2.3210
 8388SOL    HW226064   6.010   1.811   5.399  0.5733  0.0544 -0.3487
 8389SOL     OW26065   3.444   1.973   0.897  0.2200 -0.2591 -0.1611
 8389SOL    HW126066   3.401   1.955   0.809 -0.1616 -2.2246  0.3761
 8389SOL    HW226067   3.449   1.888   0.950  0.7068  0.8076  1.5968
 8390SOL     OW26068   4.016   1.719   3.066  0.4046  0.1574  0.4620
 8390SOL    HW126069   4.066   1.774   2.998  0.6419  0.2099  0.6795
 8390SOL    HW226070   4.079   1.691   3.138 -0.0046  0.7035  1.0368
 8391SOL     OW26071   0.818   4.039   2.987 -0.4513  0.2897 -0.2380
 8391SOL    HW126072   0.755   3.966   2.961 -0.5133  0.7291 -1.3439
 8391SOL    HW226073   0.794   4.123   2.939 -0.2792  1.0070  0.8956
 8392SOL     OW26074   2.036   3.684   3.580  0.2565  0.1129  0.4096
 8392SOL    HW126075   1.946   3.692   3.537  0.3459  2.5328  0.5369
 8392SOL    HW226076   2.085   3.606   3.541 -1.6301 -0.8630 -0.1164
 8393SOL     OW26077   4.347   6.984   0.186 -0.2869 -0.3675 -0.1815
 8393SOL    HW126078   4.422   7.050   0.186  0.9487 -1.7158 -1.2274
 8393SOL    HW226079   4.306   6.980   0.094  0.1387 -1.5631 -0.3323
 8394SOL     OW26080   1.176   2.317   5.824 -0.1379 -0.2584 -0.1839
 8394SOL    HW126081   1.184   2.417   5.816 -1.3852 -0.2963 -3.2863
 8394SOL    HW226082   1.205   2.289   5.916 -1.2945  3.0982  1.3913
 8395SOL     OW26083   1.120   2.296   0.969  0.6503 -0.5954  0.1095
 8395SOL    HW126084   1.087   2.203   0.987 -0.9842 -0.2504 -0.9191
 8395SOL    HW226085   1.059   2.342   0.905  0.7391  1.6136  1.4769
 8396SOL     OW26086   6.083   0.789   1.927 -0.0541  0.1846 -0.0499
 8396SOL    HW126087   6.158   0.725   1.909 -0.8235 -0.7038 -0.1823
 8396SOL    HW226088   6.048   0.774   2.020  0.4250  1.1181  0.2901
 8397SOL     OW26089   1.412   0.279   0.117  1.1189  0.2681  0.0357
 8397SOL    HW126090   1.414   0.247   0.212  1.4427  1.5737  0.4902
 8397SOL    HW226091   1.411   0.200   0.055  1.9136 -0.6079  1.0978
 8398SOL     OW26092   0.562   4.881   0.420  0.0554  0.1589  0.3595
 8398SOL    HW126093   0.542   4.807   0.484 -0.2441  0.5410  0.7127
 8398SOL    HW226094   0.542   4.969   0.463  2.7156  0.6229  0.8302
 8399SOL     OW26095   6.005   3.054   5.036  0.8574 -0.3643  0.3344
 8399SOL    HW126096   5.984   2.995   4.959 -0.6261 -0.4292  0.7558
 8399SOL    HW226097   6.103   3.069   5.041  1.0530 -1.0631 -1.0378
 8400SOL     OW26098   5.972   4.419   6.064  0.6856 -0.0996 -0.3371
 8400SOL    HW126099   6.048   4.365   6.100  1.1059  2.4363  3.0249
 8400SOL    HW226100   6.008   4.496   6.011  0.3827  0.0942 -0.2619
 8401SOL     OW26101   3.372   1.256   1.833  0.2646  0.2819  0.1806
 8401SOL    HW126102   3.341   1.176   1.782 -0.1178  0.9673 -0.6855
 8401SOL    HW226103   3.435   1.309   1.776  2.8250 -0.8767  1.7509
 8402SOL     OW26104   3.187   5.892   2.242  0.1657  0.2489  0.4300
 8402SOL    HW126105   3.108   5.863   2.295 -1.1198  2.1005 -0.3715
 8402SOL    HW226106   3.252   5.816   2.235 -0.8105 -0.8432  2.3826
 8403SOL     OW26107   4.199   6.182   0.423 -0.2611  0.2735 -0.2753
 8403SOL    HW126108   4.108   6.171   0.463  0.8653 -2.2839  1.8915
 8403SOL    HW226109   4.246   6.094   0.423  2.7835  1.7859  0.1120
 8404SOL     OW26110   2.188   2.549   6.112  0.4689  0.4632  0.2639
 8404SOL    HW126111   2.192   2.640   6.070  2.4388  0.7881  1.0677
 8404SOL    HW226112   2.205   2.479   6.042 -0.3743  0.7372 -0.2286
 8405SOL     OW26113   5.755   4.198   3.950  0.1320 -0.1477 -0.0051
 8405SOL    HW126114   5.843   4.226   3.988 -0.0779 -1.2371  1.3563
 8405SOL    HW226115   5.745   4.099   3.958 -0.5694 -0.2515 -1.6025
 8406SOL     OW26116   4.030   4.601   5.260 -0.6360  0.4209  0.0268
 8406SOL    HW126117   3.962   4.531   5.284  1.7129 -1.9181  0.2405
 8406SOL    HW226118   4.120   4.573   5.293  0.8326  2.4596 -1.9458
 8407SOL     OW26119   6.483   2.336   3.775 -0.5065 -0.0320 -0.6972
 8407SOL    HW126120   6.467   2.309   3.680 -0.9149  1.5820 -1.1240
 8407SOL    HW226121   6.396   2.348   3.822 -0.3036 -0.9943 -0.0568
 8408SOL     OW26122   0.942   6.887   3.170 -0.4792 -0.4817  0.2436
 8408SOL    HW126123   0.895   6.859   3.087  1.8669 -1.1848 -0.9271
 8408SOL    HW226124   1.034   6.848   3.172  0.5003  1.6612  1.9017
 8409SOL     OW26125   0.967   6.904   5.727  0.2023  0.3356 -0.3600
 8409SOL    HW126126   0.987   6.956   5.810 -0.4205  0.7795 -0.4833
 8409SOL    HW226127   1.026   6.935   5.653  0.7536 -0.0546 -0.0987
 8410SOL     OW26128   5.065   3.341   0.896 -0.0330 -0.8765 -0.2087
 8410SOL    HW126129   5.116   3.263   0.933  2.0996  0.3394 -0.4551
 8410SOL    HW226130   5.063   3.334   0.796  1.0639 -0.1236 -0.3000
 8411SOL     OW26131   0.579   6.691   5.760 -0.3551 -0.2189 -0.4528
 8411SOL    HW126132   0.651   6.716   5.696 -0.0290 -1.0693 -0.4376
 8411SOL    HW226133   0.584   6.593   5.779 -1.5327 -0.3042 -0.4840
 8412SOL     OW26134   3.442   4.897   3.265  0.1059 -0.0314 -0.1609
 8412SOL    HW126135   3.475   4.903   3.359  1.5310  4.7181 -0.7426
 8412SOL    HW226136   3.508   4.846   3.210  0.2762 -1.0820  0.9716
 8413SOL     OW26137   3.884   0.440   0.546 -0.2448  0.0559  0.5373
 8413SOL    HW126138   3.946   0.369   0.578  0.4130 -0.1014 -0.9992
 8413SOL    HW226139   3.930   0.529   0.550 -0.3961  0.1317  0.6352
 8414SOL     OW26140   0.221   1.760   3.201 -0.0328  0.3088 -0.0707
 8414SOL    HW126141   0.161   1.825   3.153 -0.3201  0.3470  0.3368
 8414SOL    HW226142   0.206   1.767   3.299  1.2939  0.9643  0.1081
 8415SOL     OW26143   6.736   3.555   1.548 -0.3391 -0.1068  0.0496
 8415SOL    HW126144   6.809   3.609   1.591  0.6495 -1.0249 -0.4041
 8415SOL    HW226145   6.752   3.458   1.565 -1.6139 -0.3185  0.1420
 8416SOL     OW26146   1.093   0.804   5.571 -0.6096 -0.6189  0.2866
 8416SOL    HW126147   1.054   0.798   5.479 -0.7709  0.3381  0.2832
 8416SOL    HW226148   1.186   0.767   5.570 -0.6566 -0.7307 -0.2290
 8417SOL     OW26149   4.725   0.600   3.905  0.3971  0.3094  0.2485
 8417SOL    HW126150   4.728   0.500   3.898  0.0879  0.3668 -0.9144
 8417SOL    HW226151   4.662   0.626   3.979  0.4933 -0.3477  0.5761
 8418SOL     OW26152   5.167   5.286   1.966  0.6990  0.3606 -0.7348
 8418SOL    HW126153   5.162   5.277   1.866 -0.2561 -0.6919 -0.6201
 8418SOL    HW226154   5.181   5.196   2.006 -1.3938  0.3742  0.1814
 8419SOL     OW26155   6.332   5.080   5.794  0.1585  0.5591  0.3215
 8419SOL    HW126156   6.372   5.057   5.706 -0.2699 -0.3796  0.3574
 8419SOL    HW226157   6.351   5.007   5.860 -1.4860  0.1037  0.3601
 8420SOL     OW26158   2.919   3.572   2.788 -0.0286 -0.0338  0.3189
 8420SOL    HW126159   2.934   3.517   2.870  0.9638  0.1934  0.3044
 8420SOL    HW226160   2.918   3.513   2.708  0.3726 -0.1136  0.3692
 8421SOL     OW26161   1.713   1.130   6.182  0.2377 -0.6056 -0.2294
 8421SOL    HW126162   1.789   1.065   6.183  1.7700  1.0878  1.6186
 8421SOL    HW226163   1.661   1.123   6.266  1.7156  1.8326  1.0287
 8422SOL     OW26164   0.732   4.482   5.940  1.0361 -0.6684  0.4187
 8422SOL    HW126165   0.731   4.481   6.040 -0.9682  2.8037  0.6221
 8422SOL    HW226166   0.647   4.442   5.905  0.2407  1.0251  0.3314
 8423SOL     OW26167   5.003   4.806   2.724  0.3071 -0.1823 -0.3260
 8423SOL    HW126168   5.092   4.807   2.769  1.4489  0.6645 -2.4597
 8423SOL    HW226169   4.940   4.750   2.777  1.4435  0.9296  2.4109
 8424SOL     OW26170   1.481   0.027   1.515  0.1781 -0.2681 -0.1396
 8424SOL    HW126171   1.466  -0.072   1.514  1.6346 -0.5157  1.0848
 8424SOL    HW226172   1.577   0.047   1.497 -0.5125  1.0785 -2.9061
 8425SOL     OW26173   0.768   2.228   5.403  0.6156 -0.4461  0.2166
 8425SOL    HW126174   0.688   2.172   5.383  0.5371 -0.0009 -0.7724
 8425SOL    HW226175   0.829   2.179   5.465 -0.5618 -0.6645  1.2358
 8426SOL     OW26176   5.723   5.624   1.162  0.0005  0.0562  0.7292
 8426SOL    HW126177   5.635   5.669   1.178  0.7209  2.1354 -0.7212
 8426SOL    HW226178   5.797   5.689   1.180  1.2865 -1.5822  1.7105
 8427SOL     OW26179   3.152   5.179   4.393  0.0494 -0.5909  0.0782
 8427SOL    HW126180   3.203   5.200   4.476 -0.6991  2.4354 -0.1106
 8427SOL    HW226181   3.060   5.150   4.416  0.0444 -0.3879  0.3089
 8428SOL     OW26182   2.270   0.479   4.657  0.1591  0.2787 -0.1665
 8428SOL    HW126183   2.370   0.469   4.663  0.1970  0.5055 -0.4475
 8428SOL    HW226184   2.243   0.566   4.699 -0.0664 -0.4288  1.2448
 8429SOL     OW26185   0.171   6.006   0.527  0.0675  0.3556 -0.3315
 8429SOL    HW126186   0.117   6.060   0.462  2.6675  0.8311 -2.2623
 8429SOL    HW226187   0.240   5.954   0.477  2.1533  0.6687  2.0490
 8430SOL     OW26188   3.606   6.128   1.676  0.0654  0.5780  0.8523
 8430SOL    HW126189   3.642   6.047   1.722 -0.3132 -0.6420 -0.8814
 8430SOL    HW226190   3.615   6.117   1.577 -1.3220  2.0303  0.5107
 8431SOL     OW26191   1.924   1.936   6.165  0.0235 -0.1751 -0.4139
 8431SOL    HW126192   1.843   1.986   6.197 -0.6981 -1.5739  0.0521
 8431SOL    HW226193   1.976   1.904   6.243  0.8712  0.4374 -0.7160
 8432SOL     OW26194   6.781   4.332   1.730 -0.3260  0.2816 -0.3681
 8432SOL    HW126195   6.777   4.233   1.743 -2.2008  0.3321 -0.3075
 8432SOL    HW226196   6.859   4.355   1.672 -1.0442 -1.4535 -2.1394
 8433SOL     OW26197   1.063   3.690   0.637  0.0490  0.3997 -0.4873
 8433SOL    HW126198   1.115   3.775   0.625  3.9062 -1.3366  2.0364
 8433SOL    HW226199   1.106   3.616   0.586  0.6794 -1.2809  2.2384
 8434SOL     OW26200   5.038   6.770   0.182 -0.1222  0.0502  0.2952
 8434SOL    HW126201   5.058   6.734   0.091 -2.0967  1.0177 -0.5753
 8434SOL    HW226202   4.951   6.735   0.214  1.0166 -1.1137  2.3366
 8435SOL     OW26203   6.284   4.698   1.976 -0.7196 -0.2546  0.5243
 8435SOL    HW126204   6.342   4.669   1.900  1.5362  0.8150  1.7333
 8435SOL    HW226205   6.236   4.783   1.951 -0.5252 -0.2764  0.0688
 8436SOL     OW26206   6.962   2.752   3.344 -0.2762 -0.1239 -0.1220
 8436SOL    HW126207   6.965   2.693   3.263  0.6961 -1.6769  0.9868
 8436SOL    HW226208   7.055   2.769   3.376 -0.6231  0.8888  0.4032
 8437SOL     OW26209   6.424   3.026   6.759 -0.4295  0.6836  0.1174
 8437SOL    HW126210   6.433   2.930   6.786  3.1109  1.1329  1.0064
 8437SOL    HW226211   6.477   3.042   6.676 -1.6736  1.7269 -0.4894
 8438SOL     OW26212   0.376   0.538   5.848  0.3475  0.3270  0.0333
 8438SOL    HW126213   0.394   0.592   5.766  2.7035 -2.3243 -1.3672
 8438SOL    HW226214   0.426   0.575   5.925 -1.1362  2.2911  0.1226
 8439SOL     OW26215   6.615   1.485   4.869  0.1324  0.6946  0.4346
 8439SOL    HW126216   6.557   1.567   4.872 -2.2964 -0.9203  2.7823
 8439SOL    HW226217   6.687   1.493   4.938  0.1698  1.0041  0.3650
 8440SOL     OW26218   6.827   3.125   6.642 -0.1568 -0.0053  0.1794
 8440SOL    HW126219   6.898   3.134   6.573 -0.6907  0.5896 -0.2993
 8440SOL    HW226220   6.869   3.109   6.731  0.5198 -1.9453 -0.4328
 8441SOL     OW26221   3.883   0.975   6.871 -0.0706 -0.2930 -0.7744
 8441SOL    HW126222   3.788   0.969   6.841 -0.0862 -0.2501 -0.7327
 8441SOL    HW226223   3.942   0.933   6.802 -0.3123 -2.5411  0.2895
 8442SOL     OW26224   5.990   6.463   0.103  0.0106  0.5505 -0.1621
 8442SOL    HW126225   5.989   6.453   0.202  0.8779 -0.0759 -0.2114
 8442SOL    HW226226   5.966   6.377   0.060 -0.9279  0.9713 -0.5001
 8443SOL     OW26227   4.661   5.317   1.799 -0.1123 -0.0464  0.7642
 8443SOL    HW126228   4.691   5.259   1.875  0.5069  0.7895  1.1782
 8443SOL    HW226229   4.638   5.408   1.834 -0.8298  0.0371  0.0904
 8444SOL     OW26230   2.502   2.162   4.775 -0.4009  0.2584  0.0459
 8444SOL    HW126231   2.578   2.131   4.718 -1.3199 -1.3610 -0.3603
 8444SOL    HW226232   2.538   2.203   4.859  0.9372 -0.5607 -0.0977
 8445SOL     OW26233   6.887   5.498   3.032 -0.0826 -0.2085  0.9190
 8445SOL    HW126234   6.884   5.591   2.994  0.7880 -0.6694 -0.3669
 8445SOL    HW226235   6.971   5.453   3.002 -1.1453 -1.8991  0.3438
 8446SOL     OW26236   5.614   5.587   1.574 -0.2264  0.3067  0.4677
 8446SOL    HW126237   5.554   5.568   1.496  0.5449 -0.5069  0.0484
 8446SOL    HW226238   5.701   5.539   1.562 -0.3926 -0.5407  2.2285
 8447SOL     OW26239   1.642   0.378   2.129  0.5700 -0.2533  0.1099
 8447SOL    HW126240   1.643   0.287   2.088  2.3417  0.1841 -0.9045
 8447SOL    HW226241   1.727   0.426   2.107 -0.6562  1.9710 -0.0874
 8448SOL     OW26242   5.752   5.741   5.079  0.1788 -0.6535  0.0521
 8448SOL    HW126243   5.830   5.684   5.107  0.9296 -0.2621 -1.1518
 8448SOL    HW226244   5.781   5.802   5.005 -1.8984 -2.1989 -2.1642
 8449SOL     OW26245   0.402   6.433   2.112 -0.4704  0.0112  0.0835
 8449SOL    HW126246   0.447   6.361   2.164  0.3783 -1.0532 -2.0180
 8449SOL    HW226247   0.304   6.415   2.107 -0.4776 -0.1788  0.7799
 8450SOL     OW26248   0.158   4.196   1.908 -0.2062 -0.0768  0.3524
 8450SOL    HW126249   0.076   4.149   1.941 -0.3292 -1.4763 -1.7333
 8450SOL    HW226250   0.132   4.281   1.862 -0.1745  0.9941  2.2134
 8451SOL     OW26251   0.734   4.299   4.916  0.1566 -0.7909  0.0755
 8451SOL    HW126252   0.653   4.313   4.860  0.5467  1.1961 -0.0541
 8451SOL    HW226253   0.816   4.321   4.864  0.7816 -2.3072  0.3595
 8452SOL     OW26254   4.533   5.893   4.041  0.1534  0.2229  0.0204
 8452SOL    HW126255   4.623   5.864   4.074  0.7211  2.3018  0.4191
 8452SOL    HW226256   4.469   5.896   4.118  0.1916  0.3757  0.0463
 8453SOL     OW26257   2.670   2.265   0.396  0.6558 -0.4400  0.3940
 8453SOL    HW126258   2.632   2.217   0.317  0.5311  2.2946 -1.3387
 8453SOL    HW226259   2.597   2.284   0.461 -0.0723  0.7151 -0.7231
 8454SOL     OW26260   3.491   4.949   1.830 -0.1471  0.2939  0.1614
 8454SOL    HW126261   3.503   4.865   1.883  0.2439 -0.2556 -0.7692
 8454SOL    HW226262   3.395   4.976   1.833 -0.0748  0.4441  1.3890
 8455SOL     OW26263   3.383   3.169   4.338 -0.5468  0.5518 -0.1352
 8455SOL    HW126264   3.324   3.249   4.328  0.8068  1.6627  0.5912
 8455SOL    HW226265   3.327   3.086   4.327 -2.0118  1.5610 -0.6752
 8456SOL     OW26266   1.662   2.950   3.101  0.3966  0.1411 -0.9161
 8456SOL    HW126267   1.652   2.859   3.141 -0.8527  0.9331  0.6582
 8456SOL    HW226268   1.600   2.959   3.023 -0.8743  0.2445  0.0780
 8457SOL     OW26269   1.675   6.620   5.438 -0.3635  0.0093 -0.0644
 8457SOL    HW126270   1.656   6.673   5.520  0.7205  1.0022 -0.4299
 8457SOL    HW226271   1.623   6.656   5.361  1.3526  1.4525 -0.6134
 8458SOL     OW26272   0.273   2.479   6.696 -0.9572 -0.2903 -0.0070
 8458SOL    HW126273   0.309   2.546   6.631  0.0803  0.7974  1.6048
 8458SOL    HW226274   0.345   2.414   6.719 -1.4818 -0.9978 -0.3263
 8459SOL     OW26275   5.763   5.530   3.641 -0.1332  0.2404  0.2104
 8459SOL    HW126276   5.805   5.501   3.555  0.2667 -1.1859  0.8707
 8459SOL    HW226277   5.674   5.571   3.621 -0.0608 -0.0821 -0.8793
 8460SOL     OW26278   5.946   1.694   1.692  0.2116  0.3237 -0.2840
 8460SOL    HW126279   5.880   1.625   1.661  1.3069  0.3502 -2.9615
 8460SOL    HW226280   5.906   1.785   1.680 -0.9185  0.3065  2.4836
 8461SOL     OW26281   3.921   5.350   4.526 -0.0464  0.5159 -0.2661
 8461SOL    HW126282   3.995   5.346   4.594 -0.8936  0.0437  0.6537
 8461SOL    HW226283   3.916   5.442   4.488 -0.3899  1.1495  1.2643
 8462SOL     OW26284   6.240   4.526   0.013 -0.4325  0.0530 -0.2782
 8462SOL    HW126285   6.272   4.611  -0.029  1.6549 -0.2361  0.5815
 8462SOL    HW226286   6.167   4.546   0.078 -0.9738  0.9898 -1.1546
 8463SOL     OW26287   0.620   4.013   3.782  0.3448  0.1152  0.3202
 8463SOL    HW126288   0.572   4.097   3.810 -1.2517 -0.4417 -0.6066
 8463SOL    HW226289   0.564   3.964   3.715  2.0348 -0.8361 -0.4438
 8464SOL     OW26290   2.197   4.860   0.392  0.1266 -0.1397 -0.1948
 8464SOL    HW126291   2.163   4.953   0.407 -0.0883 -0.3011  0.3495
 8464SOL    HW226292   2.280   4.863   0.336 -0.1743  0.3370 -0.6223
 8465SOL     OW26293   4.248   6.138   1.031  0.7233 -0.4439 -0.1456
 8465SOL    HW126294   4.228   6.119   0.935 -0.7893 -0.9325  0.2299
 8465SOL    HW226295   4.344   6.119   1.050  1.6203  1.7226 -2.0290
 8466SOL     OW26296   2.294   6.874   3.428 -0.2295  0.3749 -0.3167
 8466SOL    HW126297   2.285   6.972   3.446 -0.1363 -0.0991  3.0279
 8466SOL    HW226298   2.207   6.838   3.393 -1.5335  1.1147  1.9105
 8467SOL     OW26299   4.643   2.549   4.408 -0.3462  0.0669  0.2349
 8467SOL    HW126300   4.646   2.641   4.446 -1.7010 -0.8988  2.9489
 8467SOL    HW226301   4.702   2.489   4.463 -0.7942 -1.0147 -0.4293
 8468SOL     OW26302   0.058   4.241   4.843 -0.3116 -0.5553 -0.1555
 8468SOL    HW126303   0.113   4.193   4.774  0.1283 -0.8992  0.4150
 8468SOL    HW226304  -0.032   4.198   4.850 -0.0416 -1.0921  0.1070
 8469SOL     OW26305   3.715   7.010   0.455  0.7550  0.8562  0.1073
 8469SOL    HW126306   3.738   6.949   0.531 -0.3933  0.3312  0.0461
 8469SOL    HW226307   3.695   6.957   0.373 -0.1954  1.3048  0.0367
 8470SOL     OW26308   2.332   1.444   1.299  0.1877  0.1412  0.4031
 8470SOL    HW126309   2.254   1.400   1.345 -1.2819  1.9288 -0.2217
 8470SOL    HW226310   2.355   1.528   1.348  0.2358  0.7791 -0.6867
 8471SOL     OW26311   2.875   6.929   0.539 -0.0313 -0.2066  0.0575
 8471SOL    HW126312   2.889   6.847   0.594 -0.3841 -1.9704 -2.3141
 8471SOL    HW226313   2.815   6.993   0.588 -1.3792 -2.2218  1.1619
 8472SOL     OW26314   3.644   2.080   3.185 -0.5769  0.0138  0.2782
 8472SOL    HW126315   3.669   2.144   3.113 -0.7492  0.8319  0.9199
 8472SOL    HW226316   3.725   2.056   3.238 -0.8694  1.6304  1.5387
 8473SOL     OW26317   3.176   6.883   1.528 -1.2734 -0.2437  0.1496
 8473SOL    HW126318   3.109   6.944   1.571 -0.8327 -0.4703  1.1873
 8473SOL    HW226319   3.167   6.791   1.568  0.5843  0.0469  1.3617
 8474SOL     OW26320   6.471   0.391   0.470  0.3270  0.1519 -0.2286
 8474SOL    HW126321   6.441   0.405   0.376 -0.1749  2.9305  0.2697
 8474SOL    HW226322   6.392   0.385   0.530  0.6523 -1.4300  0.0818
 8475SOL     OW26323   1.488   2.131   0.689 -0.0337 -0.2817  0.1885
 8475SOL    HW126324   1.564   2.093   0.741  0.2320 -0.5808 -0.4083
 8475SOL    HW226325   1.523   2.181   0.609 -0.4832 -1.4904 -0.7977
 8476SOL     OW26326   0.706   3.971   5.277 -0.7238 -0.2042 -0.3257
 8476SOL    HW126327   0.727   3.971   5.179  0.6373 -0.5143 -0.0648
 8476SOL    HW226328   0.631   3.908   5.296  0.4822 -1.9109 -0.9242
 8477SOL     OW26329   3.098   3.256   6.050 -0.2477 -0.1320  0.4247
 8477SOL    HW126330   3.186   3.288   6.013 -1.6039  3.0774 -0.3840
 8477SOL    HW226331   3.101   3.260   6.150  0.6483 -0.3972  0.4191
 8478SOL     OW26332   4.376   5.289   2.626  0.4910 -0.0163 -0.1722
 8478SOL    HW126333   4.420   5.313   2.713  0.3275  1.0292 -0.3654
 8478SOL    HW226334   4.391   5.192   2.607  0.8527 -0.1711  0.8338
 8479SOL     OW26335   5.512   3.678   6.485 -0.3704  0.1010  0.7193
 8479SOL    HW126336   5.546   3.734   6.560  1.1747 -0.4123  0.4377
 8479SOL    HW226337   5.416   3.699   6.468 -0.2432  1.5128  1.6410
 8480SOL     OW26338   1.511   2.107   0.140  0.2806  0.0103 -0.0191
 8480SOL    HW126339   1.455   2.110   0.223  0.9813  1.9803  0.4147
 8480SOL    HW226340   1.466   2.159   0.068  0.8017  0.2849 -0.1498
 8481SOL     OW26341   0.256   3.123   2.973  0.0803 -0.4886 -0.3275
 8481SOL    HW126342   0.283   3.069   3.052  1.1219  1.7028  0.9241
 8481SOL    HW226343   0.263   3.068   2.890 -2.3411 -3.2859  1.1487
 8482SOL     OW26344   6.095   1.712   3.858 -0.1815  0.3308  0.8304
 8482SOL    HW126345   6.173   1.652   3.841 -0.4785 -0.2144  1.3533
 8482SOL    HW226346   6.010   1.660   3.847 -0.4831  0.9847  0.0148
 8483SOL     OW26347   3.075   6.637   1.600 -0.2094 -0.0617 -0.6122
 8483SOL    HW126348   3.054   6.568   1.669 -1.2307 -0.0056 -0.8381
 8483SOL    HW226349   3.110   6.593   1.518  2.4747 -0.0140  0.4327
 8484SOL     OW26350   4.993   1.848   3.511  0.1311 -0.3722  0.7649
 8484SOL    HW126351   5.048   1.873   3.431 -0.7290  0.0707  0.3054
 8484SOL    HW226352   5.022   1.904   3.589 -0.4696  0.7145  0.2232
 8485SOL     OW26353   0.393   1.404   5.649 -0.7305  0.0423  0.3568
 8485SOL    HW126354   0.391   1.412   5.748  0.1707 -1.2648  0.5051
 8485SOL    HW226355   0.475   1.354   5.621 -0.3691  1.3931 -1.1362
 8486SOL     OW26356   5.298   5.112   6.913  0.1549 -0.3113  0.2237
 8486SOL    HW126357   5.282   5.023   6.956 -1.6067 -1.3551 -2.3560
 8486SOL    HW226358   5.229   5.177   6.945  0.9839 -0.0166  1.5254
 8487SOL     OW26359   6.320   3.326   5.256  0.1858  0.0118  0.1959
 8487SOL    HW126360   6.240   3.363   5.209  0.6063  0.8421  0.1121
 8487SOL    HW226361   6.338   3.380   5.338 -0.2376 -1.1089  1.0599
 8488SOL     OW26362   5.761   1.903   6.156  0.1142 -0.6444  0.9138
 8488SOL    HW126363   5.768   1.979   6.091 -0.4588 -0.0071  1.5663
 8488SOL    HW226364   5.731   1.939   6.245 -1.8804 -1.8558  0.7760
 8489SOL     OW26365   1.591   4.367   3.402  0.2109  0.0121 -0.3213
 8489SOL    HW126366   1.555   4.274   3.401 -0.1530  0.1397  0.5376
 8489SOL    HW226367   1.524   4.429   3.362  0.1454  0.0150 -0.2063
 8490SOL     OW26368   1.586   5.665   3.855 -0.0260  0.1266  0.0090
 8490SOL    HW126369   1.654   5.603   3.816 -0.6896 -1.5288  1.3365
 8490SOL    HW226370   1.588   5.658   3.955 -0.9412  1.3811  0.1378
 8491SOL     OW26371   4.040   6.187   3.294 -0.0915 -0.1349 -0.2206
 8491SOL    HW126372   4.087   6.245   3.227 -2.4049  0.8991 -1.0492
 8491SOL    HW226373   4.017   6.099   3.252  0.1646 -0.2433 -0.1385
 8492SOL     OW26374   2.238   3.867   1.832  0.5801  0.3108 -0.3084
 8492SOL    HW126375   2.239   3.945   1.895 -2.7574  1.2274 -1.1995
 8492SOL    HW226376   2.309   3.880   1.763  1.2654  1.6337  0.5893
 8493SOL     OW26377   6.728   4.048   3.790 -0.5563  0.0642  0.0436
 8493SOL    HW126378   6.647   4.108   3.791 -2.4717 -2.2394 -2.2965
 8493SOL    HW226379   6.709   3.965   3.841  0.0538 -0.8114 -1.1094
 8494SOL     OW26380   1.368   0.489   0.508  0.2908 -0.2505  0.1480
 8494SOL    HW126381   1.420   0.501   0.593 -0.4962 -1.7022  0.8755
 8494SOL    HW226382   1.414   0.423   0.450  0.8749  0.8078 -0.6286
 8495SOL     OW26383   5.706   2.062   0.014  0.4529 -0.6051 -0.1220
 8495SOL    HW126384   5.698   2.057  -0.085 -1.9605  2.0882 -0.1921
 8495SOL    HW226385   5.781   2.123   0.039 -0.3414  0.5152 -0.3997
 8496SOL     OW26386   6.876   4.602   0.381 -0.2372 -0.0506 -0.5999
 8496SOL    HW126387   6.857   4.510   0.347 -1.2918  0.4898 -1.5632
 8496SOL    HW226388   6.974   4.617   0.382 -0.0089 -1.4204  0.2524
 8497SOL     OW26389   4.852   1.200   6.643  0.5431 -0.1741  0.2988
 8497SOL    HW126390   4.798   1.195   6.559  1.4432 -3.1000 -0.2329
 8497SOL    HW226391   4.935   1.254   6.626 -0.4032  1.2728  0.0759
 8498SOL     OW26392   4.213   6.731   3.566 -0.1908 -0.4008  0.1951
 8498SOL    HW126393   4.203   6.820   3.611 -0.8593 -0.8597  0.9886
 8498SOL    HW226394   4.285   6.736   3.497  0.0683  0.6370  0.5259
 8499SOL     OW26395   2.257   2.087   0.203  0.0502 -0.8087 -0.4736
 8499SOL    HW126396   2.251   2.022   0.279  0.6230 -1.6311 -1.1122
 8499SOL    HW226397   2.249   2.037   0.116 -0.7960  0.1339 -0.9627
 8500SOL     OW26398   5.164   6.713   3.092  0.3125  0.4168 -0.0253
 8500SOL    HW126399   5.244   6.678   3.043  0.8493  1.4674  0.0866
 8500SOL    HW226400   5.098   6.750   3.026 -0.7701 -1.7322 -0.2445
 8501SOL     OW26401   0.578   3.997   4.201  0.8142  0.3309 -0.5747
 8501SOL    HW126402   0.604   3.918   4.256  0.7791  0.6754 -0.0531
 8501SOL    HW226403   0.539   3.966   4.114  1.0145 -0.2165 -0.4741
 8502SOL     OW26404   3.421   0.274   6.079 -0.6318  0.6008 -0.1560
 8502SOL    HW126405   3.357   0.223   6.135 -0.1485  0.2611  0.0910
 8502SOL    HW226406   3.385   0.281   5.986 -1.3294  0.9794  0.1352
 8503SOL     OW26407   2.856   2.085   0.161 -0.0575 -0.2942 -0.0709
 8503SOL    HW126408   2.757   2.084   0.148 -0.0146  1.2428 -0.6902
 8503SOL    HW226409   2.880   2.024   0.237 -1.4431 -0.8608 -0.0582
 8504SOL     OW26410   2.805   6.069   6.335 -0.5195 -0.0224  0.1960
 8504SOL    HW126411   2.835   5.994   6.276  1.4400  0.9809 -0.1957
 8504SOL    HW226412   2.745   6.130   6.283 -1.8512 -1.1184  0.4166
 8505SOL     OW26413   2.343   4.773   5.724  0.0868  0.1076  0.3799
 8505SOL    HW126414   2.309   4.790   5.817  1.5999 -0.1932  1.0147
 8505SOL    HW226415   2.359   4.860   5.678 -0.6801  0.2580  0.3784
 8506SOL     OW26416   2.541   3.143   0.546 -0.0872 -0.4706 -0.7525
 8506SOL    HW126417   2.444   3.116   0.545  0.1544 -1.5244  0.9444
 8506SOL    HW226418   2.580   3.126   0.637  1.8983 -0.7954 -1.6108
 8507SOL     OW26419   2.280   4.423   2.824  0.2399  0.2121  0.2679
 8507SOL    HW126420   2.319   4.490   2.761 -2.3276  0.8545 -0.7446
 8507SOL    HW226421   2.243   4.470   2.904 -2.2798  0.2014 -0.8068
 8508SOL     OW26422   6.058   3.820   4.474 -0.0773 -0.1517  0.0113
 8508SOL    HW126423   6.088   3.731   4.508  0.9916  0.6464  1.2628
 8508SOL    HW226424   6.124   3.855   4.408  0.0258  0.1208  0.2508
 8509SOL     OW26425   2.805   5.675   0.028 -0.0130 -0.0850  0.2851
 8509SOL    HW126426   2.876   5.687  -0.041 -0.0471  0.3794  0.3280
 8509SOL    HW226427   2.841   5.701   0.118 -0.2268  0.1217  0.3113
 8510SOL     OW26428   3.655   6.998   4.595 -0.3450 -0.0009 -0.3316
 8510SOL    HW126429   3.596   6.993   4.515 -0.4518  2.6157 -0.4792
 8510SOL    HW226430   3.606   6.965   4.675 -0.9837 -0.5850 -0.9536
 8511SOL     OW26431   6.948   5.857   2.292  0.4846 -0.3815 -0.2476
 8511SOL    HW126432   6.942   5.851   2.192  0.3678 -0.3336 -0.2427
 8511SOL    HW226433   7.027   5.914   2.317 -1.0744  1.9234 -0.3401
 8512SOL     OW26434   0.927   5.641   6.191 -0.1596  0.3337  0.0479
 8512SOL    HW126435   0.922   5.740   6.209 -1.4381  0.0901  1.1622
 8512SOL    HW226436   1.011   5.621   6.140 -0.0385  2.0322 -0.4871
 8513SOL     OW26437   3.865   2.109   3.632  0.1238 -0.0422  0.5166
 8513SOL    HW126438   3.772   2.144   3.647  0.7064  0.8355  2.5320
 8513SOL    HW226439   3.868   2.012   3.656 -0.0253  0.2290  1.7049
 8514SOL     OW26440   5.283   1.431   3.479  0.2671  0.1665  0.0185
 8514SOL    HW126441   5.376   1.425   3.513  0.5159  0.4081 -0.5926
 8514SOL    HW226442   5.234   1.347   3.499 -0.0228  0.7725  2.1424
 8515SOL     OW26443   1.109   1.159   4.025 -0.1909  0.0646 -0.1042
 8515SOL    HW126444   1.135   1.255   4.020  0.1639  0.0158  0.6936
 8515SOL    HW226445   1.100   1.131   4.120 -0.5514 -0.6294 -0.3300
 8516SOL     OW26446   6.321   5.424   5.510 -0.1407  0.6909 -0.2056
 8516SOL    HW126447   6.298   5.343   5.456 -0.4970  0.9390 -0.4260
 8516SOL    HW226448   6.302   5.406   5.606  2.1111 -0.3752  0.1052
 8517SOL     OW26449   0.540   2.076   0.208 -0.3811  0.0041 -0.1096
 8517SOL    HW126450   0.446   2.042   0.210  0.1515 -1.5307  0.3018
 8517SOL    HW226451   0.575   2.074   0.115 -0.8618  0.9361 -0.3221
 8518SOL     OW26452   4.334   1.240   5.064 -0.0667 -0.9024  0.0739
 8518SOL    HW126453   4.330   1.158   5.121 -0.5669 -0.7270  0.2897
 8518SOL    HW226454   4.251   1.294   5.076  1.8323  1.6980  3.0035
 8519SOL     OW26455   4.852   6.866   2.031 -0.6412  0.6608 -0.1065
 8519SOL    HW126456   4.757   6.872   2.002 -0.8204 -2.8379 -0.5822
 8519SOL    HW226457   4.905   6.814   1.964  1.1772  0.8699  1.0822
 8520SOL     OW26458   1.092   0.482   0.525  0.1576  0.5073 -0.7818
 8520SOL    HW126459   1.191   0.472   0.530  0.2050  1.3062  0.2235
 8520SOL    HW226460   1.067   0.576   0.548 -0.9041  0.0578 -0.0162
 8521SOL     OW26461   6.453   1.937   6.562 -0.1631 -0.3758  0.1891
 8521SOL    HW126462   6.378   1.953   6.498  0.7150  1.6668 -0.3981
 8521SOL    HW226463   6.432   1.981   6.649  0.5501  0.6596 -0.1473
 8522SOL     OW26464   1.285   1.270   5.120 -0.0760  0.0491 -0.0705
 8522SOL    HW126465   1.233   1.192   5.155  1.6970 -1.7862 -1.3094
 8522SOL    HW226466   1.376   1.240   5.093  0.9794  2.7475  0.1418
 8523SOL     OW26467   3.752   6.369   2.513 -0.2367 -0.2422 -0.2884
 8523SOL    HW126468   3.778   6.449   2.567  0.4453 -0.8937  0.3714
 8523SOL    HW226469   3.697   6.308   2.569 -0.7672 -0.2391 -0.7979
 8524SOL     OW26470   5.369   5.851   2.949  0.6385 -0.4906  0.5541
 8524SOL    HW126471   5.277   5.884   2.929  0.4423 -0.9183  0.7410
 8524SOL    HW226472   5.432   5.928   2.952  0.1480 -0.0995  1.2005
 8525SOL     OW26473   3.755   1.279   2.644 -0.1242 -0.1230 -0.2870
 8525SOL    HW126474   3.785   1.184   2.630  0.6939 -0.1386  1.2457
 8525SOL    HW226475   3.721   1.289   2.738 -0.0852  1.1268 -0.3928
 8526SOL     OW26476   6.722   5.744   0.958  0.1738 -0.3800  0.5486
 8526SOL    HW126477   6.791   5.816   0.952  1.3142 -1.5194 -1.1557
 8526SOL    HW226478   6.670   5.754   1.042  0.8605  1.9032  0.7721
 8527SOL     OW26479   4.131   1.740   6.045 -0.0609  0.0597  0.2176
 8527SOL    HW126480   4.062   1.809   6.022  0.3245  0.4875  0.3150
 8527SOL    HW226481   4.222   1.777   6.024  0.1201 -0.6114 -0.1966
 8528SOL     OW26482   0.979   3.557   5.832  0.1012 -0.1925 -0.6829
 8528SOL    HW126483   0.964   3.508   5.746 -1.5168 -0.6413 -0.1831
 8528SOL    HW226484   1.027   3.642   5.814  0.5036 -0.6629 -1.9261
 8529SOL     OW26485   0.647   2.312   3.256  0.2757  0.2400 -0.0457
 8529SOL    HW126486   0.683   2.258   3.179  0.2498  0.5902 -0.3030
 8529SOL    HW226487   0.711   2.307   3.333  0.2539 -0.1951 -0.0527
 8530SOL     OW26488   4.108   0.122   3.506 -0.1696 -0.4797  0.1556
 8530SOL    HW126489   4.010   0.140   3.494  0.2228  2.1165  0.4395
 8530SOL    HW226490   4.151   0.199   3.551  1.6951 -2.4166  1.9222
 8531SOL     OW26491   6.776   4.268   4.395 -1.0539 -0.1242  0.2491
 8531SOL    HW126492   6.847   4.302   4.334 -0.6584 -0.5053  0.4908
 8531SOL    HW226493   6.687   4.272   4.348 -0.8959  0.4731 -0.0044
 8532SOL     OW26494   0.275   6.059   5.542 -0.1176 -0.3648  0.7984
 8532SOL    HW126495   0.232   5.971   5.525 -2.6225  1.0698 -1.0561
 8532SOL    HW226496   0.219   6.112   5.606 -0.8474  1.3005 -1.1231
 8533SOL     OW26497   0.879   4.598   0.306  0.2684  0.1046 -0.0358
 8533SOL    HW126498   0.967   4.551   0.311  0.4876  0.6006  1.4963
 8533SOL    HW226499   0.813   4.540   0.259  0.6420 -1.5856  1.3929
 8534SOL     OW26500   5.042   4.401   0.468  0.0538  0.2517  0.2095
 8534SOL    HW126501   4.947   4.384   0.495 -0.7993  1.3206 -1.8854
 8534SOL    HW226502   5.091   4.314   0.465 -1.2013 -0.4860  0.1180
 8535SOL     OW26503   4.673   0.185   1.843  0.2527 -0.2543  0.0067
 8535SOL    HW126504   4.746   0.168   1.910  1.8704  2.0814 -1.0076
 8535SOL    HW226505   4.621   0.266   1.870 -0.2366 -0.3396 -0.6570
 8536SOL     OW26506   5.927   1.870   4.942  0.0345 -0.0929  0.6771
 8536SOL    HW126507   5.855   1.897   5.006  0.1349 -0.4866  0.9588
 8536SOL    HW226508   5.901   1.784   4.899  0.1495 -0.0256  0.4747
 8537SOL     OW26509   4.067   5.891   1.816  0.0783 -0.8594  0.1073
 8537SOL    HW126510   4.020   5.822   1.761  0.2629  0.2433 -1.5016
 8537SOL    HW226511   4.127   5.945   1.758  0.3213  0.3366  1.4083
 8538SOL     OW26512   0.174   1.033   3.926 -0.0698  0.3116  0.5223
 8538SOL    HW126513   0.250   0.982   3.965 -0.3183  0.0829  0.7130
 8538SOL    HW226514   0.134   0.981   3.850  0.8605  1.0679 -0.5333
 8539SOL     OW26515   4.100   6.049   4.100 -0.4660  0.1421  0.3174
 8539SOL    HW126516   4.037   6.117   4.139 -0.7881 -0.6257  1.1720
 8539SOL    HW226517   4.164   6.094   4.038 -0.9667  1.1511  0.5180
 8540SOL     OW26518   2.108   3.380   3.893 -0.6238  0.1872 -0.6932
 8540SOL    HW126519   2.138   3.472   3.917 -1.5442  0.2063  0.4752
 8540SOL    HW226520   2.163   3.346   3.816  1.2792  0.8149  0.3293
 8541SOL     OW26521   0.455   6.073   1.249  0.2142  0.4568  0.0947
 8541SOL    HW126522   0.495   6.124   1.325 -0.8055 -0.3337  1.2059
 8541SOL    HW226523   0.383   6.013   1.284  0.8008 -1.1145 -1.2720
 8542SOL     OW26524   5.188   0.804   2.224  0.3036 -0.3474  0.0022
 8542SOL    HW126525   5.285   0.825   2.241  0.4677 -1.5266  0.5777
 8542SOL    HW226526   5.177   0.773   2.130 -0.0518  2.8016 -1.1121
 8543SOL     OW26527   2.910   1.524   0.059 -0.2527 -0.7120  0.9099
 8543SOL    HW126528   2.960   1.464  -0.004  1.0998  0.2028  1.0640
 8543SOL    HW226529   2.892   1.611   0.014 -1.8089 -1.0315  0.8424
 8544SOL     OW26530   4.633   0.757   5.642 -0.1695  0.2700 -0.2433
 8544SOL    HW126531   4.693   0.677   5.634 -1.0345 -0.3121 -1.2534
 8544SOL    HW226532   4.552   0.732   5.695 -1.6519 -0.3397 -2.6141
 8545SOL     OW26533   3.948   4.672   0.480  0.3910  0.7088 -0.0938
 8545SOL    HW126534   3.951   4.770   0.498  1.4019  0.5146  0.9607
 8545SOL    HW226535   3.906   4.655   0.391  2.1252  2.2428 -1.2960
 8546SOL     OW26536   5.512   1.345   5.336  0.0703  0.0575  0.0409
 8546SOL    HW126537   5.502   1.436   5.296 -0.1687  0.5044  1.0819
 8546SOL    HW226538   5.458   1.339   5.419  1.7240 -0.3263  1.1419
 8547SOL     OW26539   4.586   1.355   2.861 -0.5039  0.2048 -0.1500
 8547SOL    HW126540   4.563   1.258   2.858  0.5713 -0.0888  0.7445
 8547SOL    HW226541   4.589   1.391   2.768  0.7131 -1.0174 -0.6065
 8548SOL     OW26542   3.392   0.894   6.719  0.3431 -0.2991  0.4084
 8548SOL    HW126543   3.390   0.802   6.681  0.1091 -0.4029  0.6681
 8548SOL    HW226544   3.485   0.931   6.712  0.4452 -0.5671  0.3397
 8549SOL     OW26545   6.133   0.745   6.231 -0.6119  0.5552  0.4821
 8549SOL    HW126546   6.092   0.661   6.197  1.4193 -0.6484  0.8468
 8549SOL    HW226547   6.206   0.774   6.169 -1.1942  2.0171  0.4264
 8550SOL     OW26548   4.684   3.505   1.114 -0.0647  0.4760 -0.3122
 8550SOL    HW126549   4.690   3.498   1.014  2.0587 -1.8074 -0.1088
 8550SOL    HW226550   4.747   3.576   1.146  0.6315 -0.0545 -0.4874
 8551SOL     OW26551   3.458   6.835   2.758 -0.2581 -0.0621 -0.6775
 8551SOL    HW126552   3.411   6.778   2.690 -2.6946 -0.8871  1.5227
 8551SOL    HW226553   3.479   6.780   2.839  0.0130  1.4808  0.3428
 8552SOL     OW26554   1.586   5.491   2.826 -0.1425 -0.1322  0.3159
 8552SOL    HW126555   1.492   5.502   2.792  0.6266  0.8543 -1.5822
 8552SOL    HW226556   1.609   5.394   2.831 -0.7918 -0.3375 -0.5392
 8553SOL     OW26557   2.560   6.998   2.459  0.0033 -0.0559  0.3654
 8553SOL    HW126558   2.506   7.059   2.401 -0.2670 -0.1621  0.4995
 8553SOL    HW226559   2.529   6.904   2.445 -0.7547  0.0151  1.4009
 8554SOL     OW26560   4.051   2.249   3.402 -0.2197 -0.1102 -0.1304
 8554SOL    HW126561   4.007   2.196   3.329 -2.6399  0.6542  0.6772
 8554SOL    HW226562   4.022   2.214   3.491  1.3795  0.0410  0.4821
 8555SOL     OW26563   0.790   6.791   2.554 -0.3197  0.0772  0.8395
 8555SOL    HW126564   0.759   6.698   2.537 -1.5018  0.5454  0.3334
 8555SOL    HW226565   0.873   6.809   2.501 -0.2056 -0.6098  0.7731
 8556SOL     OW26566   0.555   3.972   2.077 -0.5515  0.0168 -0.8821
 8556SOL    HW126567   0.570   3.885   2.028 -1.0689 -0.5476 -0.0511
 8556SOL    HW226568   0.459   3.981   2.101 -0.4239  0.6314 -0.5899
 8557SOL     OW26569   3.010   5.304   1.882 -0.1228 -0.1809  0.0316
 8557SOL    HW126570   2.996   5.242   1.805 -0.1103 -1.4155  0.9800
 8557SOL    HW226571   3.065   5.382   1.853 -0.1532 -0.6042 -1.2074
 8558SOL     OW26572   1.362   1.642   5.892 -0.4052 -0.5128 -0.0913
 8558SOL    HW126573   1.336   1.683   5.804  1.0037  1.7528  0.4482
 8558SOL    HW226574   1.462   1.645   5.901 -0.4529 -1.7406  1.1343
 8559SOL     OW26575   2.324   5.233   5.145 -0.1336 -0.0034 -0.0519
 8559SOL    HW126576   2.266   5.315   5.151  0.1746  0.2546 -0.5718
 8559SOL    HW226577   2.322   5.185   5.233  0.4785  1.1058  0.5947
 8560SOL     OW26578   5.171   1.631   1.114  0.0107 -0.4103  0.4676
 8560SOL    HW126579   5.210   1.722   1.104 -0.8920 -0.2961 -3.8769
 8560SOL    HW226580   5.224   1.566   1.060 -1.6740 -1.6663  0.2533
 8561SOL     OW26581   6.763   2.452   1.407 -0.1527 -0.3053 -0.0427
 8561SOL    HW126582   6.793   2.470   1.313 -0.2260 -0.2575 -0.0570
 8561SOL    HW226583   6.771   2.536   1.461 -0.4726 -0.2356 -0.1034
 8562SOL     OW26584   2.426   1.971   2.541 -0.0416  0.6851  0.0584
 8562SOL    HW126585   2.380   1.987   2.453  0.7693  1.3848 -0.2476
 8562SOL    HW226586   2.472   1.882   2.538 -1.4678 -0.1040  0.4265
 8563SOL     OW26587   2.826   1.749   4.557 -0.4319  0.1539  0.5890
 8563SOL    HW126588   2.800   1.831   4.507 -0.8811 -0.5768 -0.4097
 8563SOL    HW226589   2.745   1.703   4.592 -0.7528 -2.3458 -2.8799
 8564SOL     OW26590   4.958   1.347   4.670 -0.7016 -0.1761 -0.0523
 8564SOL    HW126591   4.935   1.355   4.573  3.8477 -2.4026 -1.6256
 8564SOL    HW226592   4.959   1.250   4.695 -0.0595  0.2596  1.6940
 8565SOL     OW26593   3.122   5.470   0.632  0.0479  0.3149  0.2968
 8565SOL    HW126594   3.181   5.427   0.563 -0.0283  0.9563 -0.1791
 8565SOL    HW226595   3.097   5.402   0.701 -1.0362 -0.7220 -1.0715
 8566SOL     OW26596   1.275   4.039   5.110 -0.1624 -0.5990 -0.1933
 8566SOL    HW126597   1.367   4.077   5.099 -0.1970 -0.2320  0.6931
 8566SOL    HW226598   1.208   4.113   5.104 -0.2906 -0.6403  0.6780
 8567SOL     OW26599   1.990   2.154   0.414  0.2158  0.4070  0.9872
 8567SOL    HW126600   2.004   2.084   0.483 -0.9692  0.6299  1.4739
 8567SOL    HW226601   2.065   2.221   0.419  0.0698  0.5039  2.1632
 8568SOL     OW26602   4.098   5.282   2.683 -0.8101 -0.3979  0.7822
 8568SOL    HW126603   4.118   5.242   2.772  0.8583  1.4592  1.3084
 8568SOL    HW226604   4.168   5.252   2.617 -1.2542 -0.6737  0.4303
 8569SOL     OW26605   4.738   2.734   3.970  0.1908  0.2045  0.2496
 8569SOL    HW126606   4.650   2.706   3.933  0.2909  0.0096  0.1505
 8569SOL    HW226607   4.770   2.665   4.035  0.7828 -0.2969 -0.5483
 8570SOL     OW26608   4.333   1.400   2.178 -0.2036  0.2819  0.0736
 8570SOL    HW126609   4.251   1.446   2.212  0.3400  2.4062 -1.3186
 8570SOL    HW226610   4.363   1.443   2.093  1.3208 -1.6412 -0.4335
 8571SOL     OW26611   3.876   3.830   6.718  0.0474  0.2175  0.1884
 8571SOL    HW126612   3.902   3.771   6.642  1.4650 -0.0392  0.8312
 8571SOL    HW226613   3.868   3.925   6.686  0.8208  0.1392 -0.2575
 8572SOL     OW26614   0.657   6.546   4.635  0.4553 -0.4204 -0.6211
 8572SOL    HW126615   0.738   6.569   4.581  1.5546 -1.8843  0.3197
 8572SOL    HW226616   0.682   6.541   4.732 -0.5725 -1.6451 -0.3921
 8573SOL     OW26617   1.822   6.833   2.728  1.0213 -0.7068 -0.3067
 8573SOL    HW126618   1.761   6.783   2.666  0.2304 -0.7485  0.4937
 8573SOL    HW226619   1.915   6.830   2.692  0.5579 -0.6298 -1.5583
 8574SOL     OW26620   0.103   0.483   5.475  0.3693 -0.0885 -0.1358
 8574SOL    HW126621   0.186   0.530   5.446 -0.1654  0.4149 -0.8814
 8574SOL    HW226622   0.073   0.420   5.404  1.5021 -2.2190  1.1469
 8575SOL     OW26623   3.940   5.735   0.560 -0.3478  0.7226 -0.2531
 8575SOL    HW126624   3.869   5.775   0.503  1.1740  2.0611 -1.2984
 8575SOL    HW226625   3.985   5.806   0.614 -0.8505 -0.3335  1.6864
 8576SOL     OW26626   2.833   2.543   1.741 -0.5375  0.3802  0.8065
 8576SOL    HW126627   2.781   2.497   1.669 -1.6446  0.5053  1.5040
 8576SOL    HW226628   2.832   2.487   1.824 -2.3769  1.8273  1.8479
 8577SOL     OW26629   4.879   0.906   5.310  0.4906 -0.4711 -0.4617
 8577SOL    HW126630   4.873   0.997   5.269  0.3040 -0.3672 -0.2112
 8577SOL    HW226631   4.788   0.868   5.321  0.5712 -0.7042 -0.5966
 8578SOL     OW26632   6.834   0.457   4.119 -0.2387 -0.8441  0.1269
 8578SOL    HW126633   6.904   0.387   4.109  0.4290 -0.1904  0.1504
 8578SOL    HW226634   6.863   0.541   4.072  0.4978  0.5016  2.7784
 8579SOL     OW26635   1.496   2.950   2.885 -0.5398 -0.1900 -0.1124
 8579SOL    HW126636   1.472   3.019   2.816 -0.2941 -0.0461 -0.0520
 8579SOL    HW226637   1.414   2.925   2.936 -0.4274  0.8602  0.6046
 8580SOL     OW26638   3.576   4.729   6.361  0.6200 -0.5136 -0.0165
 8580SOL    HW126639   3.539   4.765   6.276 -0.0624  2.2199  1.3032
 8580SOL    HW226640   3.660   4.678   6.343  0.7676  0.4353 -2.2529
 8581SOL     OW26641   1.658   5.887   1.297 -0.1637  0.2720 -0.1338
 8581SOL    HW126642   1.719   5.824   1.249 -1.2355 -0.0451 -1.1210
 8581SOL    HW226643   1.673   5.980   1.264  2.1801  0.8010  2.0785
 8582SOL     OW26644   3.356   6.701   4.527 -0.3121 -0.1608  0.3068
 8582SOL    HW126645   3.374   6.791   4.488  0.9946 -0.9263 -0.9391
 8582SOL    HW226646   3.332   6.711   4.624  0.7164  1.4639  0.4305
 8583SOL     OW26647   6.292   5.683   5.800  0.0976  0.4166 -0.6444
 8583SOL    HW126648   6.247   5.636   5.876  2.5719  1.7497  1.8085
 8583SOL    HW226649   6.352   5.618   5.752 -0.3563 -0.1022 -0.5208
 8584SOL     OW26650   5.836   3.801   2.104  0.4451 -0.3050  0.4047
 8584SOL    HW126651   5.834   3.720   2.046 -0.1478 -0.2199  0.2993
 8584SOL    HW226652   5.856   3.881   2.048 -0.7751 -0.1306  0.1907
 8585SOL     OW26653   0.177   4.616   4.360  0.1468 -0.1927 -0.2782
 8585SOL    HW126654   0.192   4.668   4.277 -0.8459  0.8442  0.1754
 8585SOL    HW226655   0.081   4.592   4.368  0.3992 -1.1467  0.0873
 8586SOL     OW26656   0.314   3.058   4.849  0.9182 -0.9661  0.1294
 8586SOL    HW126657   0.375   3.014   4.915  1.7657  0.4869  0.3787
 8586SOL    HW226658   0.220   3.027   4.864  0.9986 -0.3095  2.4250
 8587SOL     OW26659   6.434   5.465   1.212 -0.0794 -0.0338  0.4345
 8587SOL    HW126660   6.497   5.390   1.232 -0.0011  0.1648  0.9546
 8587SOL    HW226661   6.368   5.436   1.144  0.5204 -0.2785 -0.0569
 8588SOL     OW26662   3.042   5.299   6.063 -0.3612  0.1651 -0.1435
 8588SOL    HW126663   3.082   5.385   6.093  1.1472 -0.3416 -0.5676
 8588SOL    HW226664   2.944   5.299   6.080 -0.0859  1.1796  1.6913
 8589SOL     OW26665   1.007   6.493   4.039  0.5666  0.5080 -0.3503
 8589SOL    HW126666   0.949   6.536   4.108  1.0238  1.5434 -0.6013
 8589SOL    HW226667   1.017   6.395   4.061 -2.5370 -0.1136 -1.1482
 8590SOL     OW26668   1.820   0.539   0.551  0.1372  0.2646  0.1697
 8590SOL    HW126669   1.917   0.521   0.538 -0.3224 -0.8481 -2.2610
 8590SOL    HW226670   1.792   0.615   0.492 -0.3591  1.0933  1.4210
 8591SOL     OW26671   6.117   3.304   2.055 -0.5638  0.1108  0.1449
 8591SOL    HW126672   6.210   3.329   2.083 -0.5293 -0.5058  0.6021
 8591SOL    HW226673   6.054   3.322   2.130 -0.9296  1.1586 -0.3965
 8592SOL     OW26674   3.543   1.265   1.367 -0.1191  0.4835 -0.2104
 8592SOL    HW126675   3.545   1.362   1.392  0.6106  0.1284  1.2320
 8592SOL    HW226676   3.469   1.249   1.301 -1.2347  1.7516  0.6691
 8593SOL     OW26677   0.407   4.100   4.411  0.1869 -0.0064 -0.1023
 8593SOL    HW126678   0.451   4.035   4.351  0.0204 -1.4954  1.3176
 8593SOL    HW226679   0.354   4.165   4.357  1.2917 -0.3080 -1.6146
 8594SOL     OW26680   0.983   1.034   2.301 -0.2992  0.3873  0.4001
 8594SOL    HW126681   1.057   0.980   2.262  2.2265  2.8713  1.4409
 8594SOL    HW226682   0.895   0.998   2.269  1.3253 -2.1765 -1.5526
 8595SOL     OW26683   0.152   1.870   1.479 -0.0420 -0.2287  0.3086
 8595SOL    HW126684   0.091   1.945   1.452 -0.6737 -0.6001  0.6637
 8595SOL    HW226685   0.098   1.798   1.524  0.1743 -1.8625 -1.8795
 8596SOL     OW26686   5.404   0.125   6.755 -0.0589  0.0296 -0.0151
 8596SOL    HW126687   5.468   0.058   6.719  1.0295  1.9103 -1.8017
 8596SOL    HW226688   5.372   0.184   6.680 -0.2158  2.0948  1.5902
 8597SOL     OW26689   6.154   5.530   4.242  0.4250 -0.1118  0.5605
 8597SOL    HW126690   6.102   5.506   4.159 -0.5687 -0.5933  1.2954
 8597SOL    HW226691   6.246   5.559   4.216  0.3615 -0.9008 -0.6701
 8598SOL     OW26692   4.985   0.871   3.111 -0.1517 -0.1031 -0.0439
 8598SOL    HW126693   5.057   0.813   3.150 -0.2268 -0.2011 -0.0504
 8598SOL    HW226694   4.973   0.953   3.167  0.0367 -0.0374 -0.1004
 8599SOL     OW26695   0.534   0.193   3.128  0.2426  0.1251 -0.3778
 8599SOL    HW126696   0.603   0.179   3.058  0.8516  1.6682 -0.1188
 8599SOL    HW226697   0.456   0.242   3.089  0.3827  0.5745 -0.1070
 8600SOL     OW26698   5.533   0.941   5.486  0.0502  0.4340 -0.2437
 8600SOL    HW126699   5.595   1.010   5.448  0.2003 -0.1718 -1.1219
 8600SOL    HW226700   5.543   0.856   5.435  0.2798 -0.4225  1.1900
 8601SOL     OW26701   5.959   0.961   5.447 -0.6120 -0.1388 -0.3461
 8601SOL    HW126702   6.055   0.938   5.429 -1.1768 -2.3672 -0.7813
 8601SOL    HW226703   5.950   0.989   5.543  0.7639  2.0626 -0.7987
 8602SOL     OW26704   3.902   4.418   1.584  0.4126  0.2872  0.3647
 8602SOL    HW126705   3.855   4.367   1.512  0.3078 -0.4733  0.9667
 8602SOL    HW226706   3.835   4.456   1.647  0.5854 -0.9602  1.3347
 8603SOL     OW26707   4.477   4.481   2.867 -0.5213 -0.5324  0.0803
 8603SOL    HW126708   4.501   4.442   2.778  0.0231  0.4189 -0.2004
 8603SOL    HW226709   4.380   4.465   2.885 -0.2512 -2.3296  0.1536
 8604SOL     OW26710   4.573   2.983   1.205  0.3917 -0.3502 -0.1646
 8604SOL    HW126711   4.632   2.956   1.129 -1.0237 -0.7761 -1.1564
 8604SOL    HW226712   4.560   2.906   1.267  2.3899  0.2852  1.1479
 8605SOL     OW26713   4.683   0.823   2.168 -0.2215 -0.0698 -0.4536
 8605SOL    HW126714   4.663   0.900   2.228 -0.6940  0.5251 -1.3512
 8605SOL    HW226715   4.773   0.786   2.189 -0.0760  0.6048  0.1211
 8606SOL     OW26716   3.874   6.447   3.016  0.0695 -0.0616 -0.0374
 8606SOL    HW126717   3.958   6.502   3.013  0.9540 -1.4122 -2.3738
 8606SOL    HW226718   3.896   6.352   2.993 -2.1621 -0.3991 -0.9446
 8607SOL     OW26719   5.107   1.791   6.105 -0.3133  0.1450  0.0984
 8607SOL    HW126720   5.120   1.796   6.204  1.2007 -2.6422  0.1366
 8607SOL    HW226721   5.183   1.836   6.059 -0.8353  1.1264  0.1603
 8608SOL     OW26722   6.750   1.627   2.870 -0.3894  0.5368  1.0149
 8608SOL    HW126723   6.834   1.670   2.903  2.1948 -2.1390 -1.4831
 8608SOL    HW226724   6.741   1.642   2.771 -2.1758 -0.3530  0.9963
 8609SOL     OW26725   2.978   5.403   5.307  0.0130  0.3197 -0.4139
 8609SOL    HW126726   2.954   5.311   5.336  1.5738  0.7959  2.9137
 8609SOL    HW226727   2.909   5.438   5.245 -1.4692 -2.4748 -0.4833
 8610SOL     OW26728   4.226   3.237   1.436 -0.0532  0.2356 -0.4155
 8610SOL    HW126729   4.127   3.240   1.450 -0.1081 -0.8948 -0.4777
 8610SOL    HW226730   4.246   3.204   1.344  0.3673  3.3478 -1.5626
 8611SOL     OW26731   1.875   0.641   2.965 -0.1297  0.1588 -0.6602
 8611SOL    HW126732   1.858   0.581   2.886 -2.7056  2.1079 -1.7792
 8611SOL    HW226733   1.798   0.634   3.028  0.7277  0.4733  0.4401
 8612SOL     OW26734   6.466   2.983   2.273 -0.3182  0.0668  0.1282
 8612SOL    HW126735   6.367   2.977   2.260 -0.6218 -0.2354  2.2708
 8612SOL    HW226736   6.492   3.079   2.283 -0.5267  0.0898  0.4629
 8613SOL     OW26737   0.608   4.966   4.539 -0.0813  0.1726  0.0393
 8613SOL    HW126738   0.701   4.955   4.506 -0.4783 -0.1242 -1.0149
 8613SOL    HW226739   0.604   4.942   4.636  0.4346 -2.4927 -0.5286
 8614SOL     OW26740   3.451   1.747   1.115 -0.2396 -0.2210 -0.2128
 8614SOL    HW126741   3.541   1.705   1.118  0.6967  1.5765 -1.2110
 8614SOL    HW226742   3.416   1.758   1.208  1.1297  0.1704  0.2804
 8615SOL     OW26743   4.800   2.987   2.724  0.3342 -0.4770  0.0650
 8615SOL    HW126744   4.751   3.022   2.804  3.3668  0.0215  1.8489
 8615SOL    HW226745   4.815   3.061   2.658  0.1114 -0.2528  0.2667
 8616SOL     OW26746   5.361   6.034   2.536 -0.6409 -0.6266 -0.0958
 8616SOL    HW126747   5.287   6.098   2.516  0.9824  1.2274 -0.4461
 8616SOL    HW226748   5.400   6.054   2.625 -0.3411 -1.3846 -0.0443
 8617SOL     OW26749   6.805   4.238   5.023 -0.3074 -0.1568  0.0375
 8617SOL    HW126750   6.802   4.338   5.027 -1.4145 -0.1818  0.2589
 8617SOL    HW226751   6.747   4.201   5.096  0.4170 -0.9697  0.2136
 8618SOL     OW26752   3.045   1.769   3.698  0.7024  0.1536 -0.0579
 8618SOL    HW126753   3.021   1.688   3.751  0.2437  0.2759 -0.0778
 8618SOL    HW226754   3.117   1.746   3.632 -1.3235 -0.9647 -2.0181
 8619SOL     OW26755   1.984   6.479   6.990 -0.0695  0.1198 -0.2225
 8619SOL    HW126756   1.955   6.416   6.918  0.9566 -0.0389 -0.5193
 8619SOL    HW226757   1.986   6.431   7.077 -0.6587  0.1288 -0.2011
 8620SOL     OW26758   4.016   1.884   0.754 -0.3448 -0.5682 -0.0487
 8620SOL    HW126759   4.012   1.932   0.841 -0.4651 -3.1173  1.4541
 8620SOL    HW226760   3.936   1.907   0.699 -0.1581  1.2425  0.3993
 8621SOL     OW26761   5.686   3.306   6.445 -0.2460  0.6939 -0.3035
 8621SOL    HW126762   5.677   3.267   6.354  0.6146  1.2482 -0.6396
 8621SOL    HW226763   5.745   3.387   6.441  0.1371  0.4886  0.8121
 8622SOL     OW26764   3.385   0.332   2.378  0.8349  0.2056  0.6243
 8622SOL    HW126765   3.440   0.261   2.334  1.4678  0.7029  0.6031
 8622SOL    HW226766   3.329   0.291   2.450  2.3535 -0.0915  1.6783
 8623SOL     OW26767   1.799   2.688   2.960  0.2976 -0.1396 -0.3897
 8623SOL    HW126768   1.711   2.648   2.985  0.7679 -1.1032 -0.2254
 8623SOL    HW226769   1.796   2.787   2.972  0.4026 -0.4606  3.2434
 8624SOL     OW26770   2.055   5.887   1.900  0.6023 -0.0687  0.5008
 8624SOL    HW126771   2.029   5.921   1.990  0.2744 -0.4677  0.5611
 8624SOL    HW226772   2.154   5.895   1.888  0.9304 -1.8573  1.7040
 8625SOL     OW26773   1.548   2.950   6.836  0.5596 -0.0674 -0.0053
 8625SOL    HW126774   1.607   2.916   6.763  0.3544 -0.4470 -0.0003
 8625SOL    HW226775   1.547   2.884   6.911  0.3421  0.0656  0.1095
 8626SOL     OW26776   3.585   3.874   2.412 -0.4457  0.1612  0.3822
 8626SOL    HW126777   3.587   3.952   2.474  2.0153 -0.3634  1.0718
 8626SOL    HW226778   3.640   3.894   2.331 -0.0157 -0.7339  0.4375
 8627SOL     OW26779   1.665   0.555   5.930 -0.1031 -0.0869  0.4418
 8627SOL    HW126780   1.591   0.562   5.998  0.6403  0.7154  1.1924
 8627SOL    HW226781   1.735   0.623   5.950 -0.8623  1.7124 -2.4196
 8628SOL     OW26782   4.314   0.717   3.294 -0.1020  0.3106 -0.3372
 8628SOL    HW126783   4.249   0.664   3.240  0.0369 -0.6000  0.3670
 8628SOL    HW226784   4.276   0.808   3.312 -0.9854 -0.0573 -0.3028
 8629SOL     OW26785   6.461   1.789   0.857  0.3069 -0.0115  0.4077
 8629SOL    HW126786   6.501   1.759   0.943 -2.0181  0.1852  1.6143
 8629SOL    HW226787   6.362   1.783   0.861  0.0748 -3.2093 -3.4442
 8630SOL     OW26788   1.574   6.226   5.822  0.3921  0.3100  0.5584
 8630SOL    HW126789   1.528   6.144   5.790  0.2993  0.9366 -0.9907
 8630SOL    HW226790   1.670   6.224   5.794 -0.0081  1.4950 -1.0526
 8631SOL     OW26791   6.475   1.758   5.039 -0.6329  0.2736  0.7386
 8631SOL    HW126792   6.441   1.724   4.952  0.3717 -0.3733  0.5778
 8631SOL    HW226793   6.401   1.762   5.106 -1.4274  0.8696 -0.1690
 8632SOL     OW26794   1.260   0.938   6.383  0.1080 -0.2956  0.5338
 8632SOL    HW126795   1.217   0.852   6.355  0.0333 -0.3738  0.8875
 8632SOL    HW226796   1.234   1.010   6.319  0.2612 -0.5606  0.1709
 8633SOL     OW26797   0.263   0.619   2.268 -0.3310  0.2845 -0.4164
 8633SOL    HW126798   0.229   0.525   2.279 -1.4920  0.7304 -0.0004
 8633SOL    HW226799   0.247   0.649   2.174 -0.1901  0.1511 -0.4833
 8634SOL     OW26800   0.371   4.505   4.923 -0.4608 -0.0051 -0.6194
 8634SOL    HW126801   0.358   4.495   4.824 -2.2760  1.2567 -0.5673
 8634SOL    HW226802   0.333   4.425   4.970 -0.6068 -0.0961 -0.8918
 8635SOL     OW26803   1.770   1.001   1.758 -0.1752  0.3919  0.1621
 8635SOL    HW126804   1.833   0.931   1.792 -0.4098  0.0612 -0.0692
 8635SOL    HW226805   1.745   0.980   1.663  0.8140  1.5400 -0.3739
 8636SOL     OW26806   6.467   4.807   2.895 -0.6305 -0.2184  0.4282
 8636SOL    HW126807   6.411   4.781   2.973 -0.2050 -0.0922  0.7809
 8636SOL    HW226808   6.549   4.854   2.927 -1.3209  1.4904 -0.1722
 8637SOL     OW26809   0.003   4.184   6.785 -0.5428  0.3788 -0.2205
 8637SOL    HW126810   0.018   4.217   6.878 -1.4752  1.1689 -0.3405
 8637SOL    HW226811  -0.039   4.093   6.788  1.6952 -0.7040  0.1102
 8638SOL     OW26812   1.820   4.667   6.237  0.1337 -0.1992 -0.3724
 8638SOL    HW126813   1.890   4.704   6.177  0.8841 -0.4487  0.3356
 8638SOL    HW226814   1.862   4.608   6.306 -1.0528 -2.9345 -1.8253
 8639SOL     OW26815   2.502   4.743   5.214 -0.1025 -0.2515 -0.2125
 8639SOL    HW126816   2.409   4.779   5.205  0.1210  0.4718  0.2300
 8639SOL    HW226817   2.547   4.744   5.125 -0.1333  0.5039 -0.2279
 8640SOL     OW26818   0.121   1.826   3.443  0.1299 -0.6974  0.2969
 8640SOL    HW126819   0.050   1.885   3.405 -2.6101 -2.9620  1.5556
 8640SOL    HW226820   0.164   1.872   3.521  0.8433  1.0932 -1.0709
 8641SOL     OW26821   4.276   5.540   2.188 -0.0743 -0.2667  0.2309
 8641SOL    HW126822   4.359   5.597   2.191  1.4362 -2.0469 -2.7546
 8641SOL    HW226823   4.289   5.460   2.246  1.0331 -1.2754 -1.3067
 8642SOL     OW26824   2.200   0.515   5.748  0.1248  0.0660 -0.4065
 8642SOL    HW126825   2.218   0.457   5.828  0.8718  0.3475 -0.3646
 8642SOL    HW226826   2.257   0.485   5.672 -1.2334 -0.7826 -1.1320
 8643SOL     OW26827   1.219   1.956   2.333 -0.0473  0.3451  0.0028
 8643SOL    HW126828   1.293   1.945   2.267  1.1277 -1.5197  1.5095
 8643SOL    HW226829   1.196   1.866   2.372 -1.7180  1.1791  1.0550
 8644SOL     OW26830   5.360   4.950   3.499  0.2922 -0.8379  0.1668
 8644SOL    HW126831   5.363   4.852   3.518  0.1402 -0.8944 -0.0976
 8644SOL    HW226832   5.399   4.968   3.409 -0.8460 -0.8026 -0.3404
 8645SOL     OW26833   6.462   0.486   2.526 -0.2845  0.0207  0.0918
 8645SOL    HW126834   6.515   0.401   2.529  1.5949  1.1399  0.7510
 8645SOL    HW226835   6.438   0.507   2.431 -0.0511 -0.8280 -0.1627
 8646SOL     OW26836   6.663   4.981   5.049  0.3259 -0.5927 -0.1673
 8646SOL    HW126837   6.606   4.984   5.131 -0.7264 -0.4907 -0.8772
 8646SOL    HW226838   6.679   4.885   5.024  1.4821 -0.6479  0.6931
 8647SOL     OW26839   0.174   6.159   6.322 -0.1536 -0.7331  0.0428
 8647SOL    HW126840   0.223   6.087   6.372 -2.2702 -2.0370  0.3675
 8647SOL    HW226841   0.181   6.245   6.372  1.5207 -0.9480  0.2215
 8648SOL     OW26842   3.446   0.243   3.592  0.2409 -0.1712 -0.5820
 8648SOL    HW126843   3.349   0.241   3.616  0.6060  2.0632  1.3659
 8648SOL    HW226844   3.501   0.215   3.671  1.2361 -2.1251 -1.8655
 8649SOL     OW26845   3.914   6.138   0.535  0.3606  0.1928 -0.2091
 8649SOL    HW126846   3.871   6.058   0.577  1.0463  0.1142  0.3508
 8649SOL    HW226847   3.863   6.221   0.559  0.7833  0.1566  0.8331
 8650SOL     OW26848   6.612   1.571   3.686 -0.1723 -1.6048 -0.5574
 8650SOL    HW126849   6.652   1.519   3.761 -0.3229 -2.4418 -1.0434
 8650SOL    HW226850   6.622   1.519   3.601 -1.6187 -1.4961 -0.8183
 8651SOL     OW26851   6.076   0.237   5.693 -0.0503  0.2462 -0.6667
 8651SOL    HW126852   6.088   0.204   5.599 -0.1946  0.6099 -0.8142
 8651SOL    HW226853   6.156   0.212   5.747  0.8610  1.5843 -1.3416
 8652SOL     OW26854   3.029   1.715   2.240  0.6215  0.2181  0.1356
 8652SOL    HW126855   2.934   1.748   2.241  0.6009  0.1468  0.7976
 8652SOL    HW226856   3.075   1.750   2.158  0.4671  1.5124  0.5816
 8653SOL     OW26857   1.449   4.532   3.233  0.4862  0.1566  0.4654
 8653SOL    HW126858   1.456   4.625   3.271 -0.1165  0.5880 -0.4256
 8653SOL    HW226859   1.445   4.538   3.133 -0.1042 -0.8073  0.4242
 8654SOL     OW26860   5.319   2.351   6.772  0.5204 -0.3831 -0.9826
 8654SOL    HW126861   5.235   2.393   6.739 -0.3320 -0.9803  0.3759
 8654SOL    HW226862   5.315   2.340   6.871  2.3716 -0.0640 -0.8277
 8655SOL     OW26863   1.965   0.910   0.028  0.5154 -0.4198  0.9468
 8655SOL    HW126864   1.959   0.819  -0.013  0.4772  0.1612 -0.4060
 8655SOL    HW226865   1.915   0.975  -0.030  1.3323  0.6211  1.3884
 8656SOL     OW26866   0.505   1.703   3.035 -0.0430 -0.2539 -0.4945
 8656SOL    HW126867   0.525   1.731   3.128 -0.0093 -1.9816  0.0447
 8656SOL    HW226868   0.590   1.701   2.982 -0.1646  1.5274 -0.8416
 8657SOL     OW26869   3.635   5.361   0.779 -0.1595  1.2921  0.4301
 8657SOL    HW126870   3.641   5.443   0.723 -0.1943  2.0584  1.5195
 8657SOL    HW226871   3.548   5.359   0.828 -1.1992 -0.5856 -1.3303
 8658SOL     OW26872   2.000   6.299   4.947 -0.1337  0.3180 -0.0892
 8658SOL    HW126873   1.917   6.267   4.902  0.4668  0.5044 -1.3832
 8658SOL    HW226874   2.002   6.399   4.946  1.1819  0.3527 -2.2700
 8659SOL     OW26875   0.867   0.214   1.951 -0.3616  0.2827 -0.0370
 8659SOL    HW126876   0.855   0.225   1.852 -1.5183  1.9157  0.2486
 8659SOL    HW226877   0.886   0.118   1.971 -2.8391 -0.6486 -1.6117
 8660SOL     OW26878   2.072   1.104   6.084  0.0390  0.3319 -0.6510
 8660SOL    HW126879   2.069   1.127   6.181 -0.6856 -0.6928 -0.4177
 8660SOL    HW226880   2.068   1.188   6.030  0.3264  0.9030  0.1976
 8661SOL     OW26881   0.010   0.113   5.112 -0.3462  0.4752  0.2415
 8661SOL    HW126882   0.028   0.017   5.090  2.1638  0.9092  0.1295
 8661SOL    HW226883  -0.085   0.123   5.142 -1.3269 -1.6275 -1.8931
 8662SOL     OW26884   2.133   6.770   0.100 -0.0024  0.5908  0.5913
 8662SOL    HW126885   2.132   6.870   0.093  1.7437  0.6758  0.8658
 8662SOL    HW226886   2.161   6.744   0.193  0.5059 -0.1237  0.2531
 8663SOL     OW26887   2.881   6.569   3.289  0.3528  0.7589 -0.0874
 8663SOL    HW126888   2.976   6.584   3.317  0.2184  1.1479  0.1575
 8663SOL    HW226889   2.848   6.483   3.328  1.2058 -0.3712 -1.7002
 8664SOL     OW26890   3.555   3.301   3.266  0.4890 -0.0789 -0.6585
 8664SOL    HW126891   3.607   3.376   3.307  0.5306  0.7705 -2.2301
 8664SOL    HW226892   3.618   3.227   3.241  0.4383 -0.7146  0.9544
 8665SOL     OW26893   1.700   1.859   2.085  0.6668  0.3233  0.3872
 8665SOL    HW126894   1.746   1.883   2.000  0.6413  1.3814  0.6577
 8665SOL    HW226895   1.602   1.876   2.076  0.6056  0.0336  0.4922
 8666SOL     OW26896   2.273   5.589   4.126  0.0778  0.0286  0.1994
 8666SOL    HW126897   2.257   5.609   4.223  1.4633  1.7359  0.1164
 8666SOL    HW226898   2.203   5.633   4.070 -0.3758 -0.4660  0.3629
 8667SOL     OW26899   1.639   5.205   0.229  0.6414  0.0863  0.1911
 8667SOL    HW126900   1.653   5.116   0.186 -0.9788  0.2380 -0.7385
 8667SOL    HW226901   1.700   5.272   0.188  3.4396 -0.9360  2.3577
 8668SOL     OW26902   4.109   1.977   5.846  0.6598 -0.5580 -0.2625
 8668SOL    HW126903   4.020   1.978   5.892  1.1133 -1.1728  0.6750
 8668SOL    HW226904   4.116   1.896   5.787  1.2474 -1.5268  1.0712
 8669SOL     OW26905   4.465   5.131   1.746  0.4969  0.2508 -0.2684
 8669SOL    HW126906   4.531   5.205   1.757  2.1545 -1.3538  1.3528
 8669SOL    HW226907   4.373   5.163   1.768  1.2146  1.7353  0.6735
 8670SOL     OW26908   2.784   4.228   5.620  0.4530  0.1987 -0.0229
 8670SOL    HW126909   2.690   4.225   5.654  0.3619 -2.3496 -0.3218
 8670SOL    HW226910   2.824   4.317   5.642 -1.8990  1.2341  0.3929
 8671SOL     OW26911   5.563   4.625   0.796  0.3976  0.0856 -0.4288
 8671SOL    HW126912   5.609   4.639   0.709  0.9852 -0.7826 -0.2768
 8671SOL    HW226913   5.519   4.536   0.797 -2.5419  1.4229 -1.0859
 8672SOL     OW26914   6.053   2.163   1.979  0.7320 -0.2591  0.0651
 8672SOL    HW126915   6.085   2.249   2.020 -0.0408  0.1412 -0.1391
 8672SOL    HW226916   6.071   2.087   2.041 -0.3142  0.3213  1.1233
 8673SOL     OW26917   3.817   2.432   6.780 -0.1408 -0.1767  0.2624
 8673SOL    HW126918   3.900   2.398   6.737 -0.2936 -0.8065  0.4475
 8673SOL    HW226919   3.754   2.466   6.710 -0.4029 -1.2191 -0.0208
 8674SOL     OW26920   6.325   1.448   2.022  0.6754  0.3269  0.4726
 8674SOL    HW126921   6.408   1.497   2.049  0.5933  0.1060  1.1370
 8674SOL    HW226922   6.301   1.473   1.928  2.3806 -0.7954 -0.3127
 8675SOL     OW26923   0.877   0.490   1.504 -0.5782  0.2853  0.2834
 8675SOL    HW126924   0.922   0.539   1.429 -1.7842  0.3457 -0.4364
 8675SOL    HW226925   0.794   0.541   1.531 -0.9630 -0.5139  0.6283
 8676SOL     OW26926   0.708   1.060   1.578 -0.3795 -0.0612 -0.0052
 8676SOL    HW126927   0.658   1.133   1.531 -0.9186  0.0942  0.7962
 8676SOL    HW226928   0.799   1.050   1.537 -0.0279  1.5370  0.3384
 8677SOL     OW26929   6.069   2.826   0.637  0.5717  0.0512  0.5627
 8677SOL    HW126930   6.069   2.910   0.582  0.8077  0.9504  1.9092
 8677SOL    HW226931   5.979   2.782   0.629  0.1538  0.8836  0.5284
 8678SOL     OW26932   4.862   4.097   4.569  0.4897 -0.0155  0.6433
 8678SOL    HW126933   4.919   4.093   4.651  2.4163 -0.6478 -0.6695
 8678SOL    HW226934   4.801   4.017   4.568 -0.2645  0.5071  1.9097
 8679SOL     OW26935   4.511   5.697   0.126 -0.3394  0.3035  0.3575
 8679SOL    HW126936   4.513   5.599   0.146 -2.0821 -0.4959 -2.7201
 8679SOL    HW226937   4.605   5.731   0.122  0.4151 -1.6791 -0.3157
 8680SOL     OW26938   5.617   4.628   6.732  0.3609 -0.2381 -0.0735
 8680SOL    HW126939   5.622   4.538   6.688  1.5004  0.7081 -2.0200
 8680SOL    HW226940   5.645   4.620   6.828  0.7861 -1.8987 -0.3062
 8681SOL     OW26941   6.554   6.364   6.149 -0.3689  0.2353 -0.4097
 8681SOL    HW126942   6.460   6.346   6.179  0.1337 -0.1845  0.9983
 8681SOL    HW226943   6.617   6.306   6.201  0.6177 -0.0928 -1.9192
 8682SOL     OW26944   1.572   0.621   0.962  0.0471 -0.3516  0.3179
 8682SOL    HW126945   1.507   0.687   1.000 -0.6487 -0.8518  0.0247
 8682SOL    HW226946   1.556   0.611   0.864 -0.9465 -2.1183  0.6121
 8683SOL     OW26947   5.413   2.844   3.908 -0.6239 -0.2846 -0.1422
 8683SOL    HW126948   5.315   2.830   3.925 -0.3301 -2.3612  0.1294
 8683SOL    HW226949   5.451   2.762   3.865  1.2512 -0.0447  0.9765
 8684SOL     OW26950   2.389   2.844   0.783  0.9474  0.6194 -0.5934
 8684SOL    HW126951   2.405   2.827   0.686  0.4678  0.5496 -0.6640
 8684SOL    HW226952   2.469   2.817   0.836  0.8209 -0.3093 -0.8663
 8685SOL     OW26953   3.299   5.400   4.068 -0.4036 -0.0257  0.6870
 8685SOL    HW126954   3.373   5.426   4.006 -1.2959  0.1257 -0.3467
 8685SOL    HW226955   3.325   5.317   4.117  0.7149  0.3876  0.8334
 8686SOL     OW26956   5.853   0.261   2.809 -0.1335 -0.0473  0.0769
 8686SOL    HW126957   5.868   0.163   2.801  0.5436  0.1394 -1.2812
 8686SOL    HW226958   5.755   0.281   2.803 -0.1586 -0.5257 -1.2984
 8687SOL     OW26959   3.544   1.557   2.000  0.4833 -0.5022 -0.5099
 8687SOL    HW126960   3.563   1.504   1.917  0.0163 -1.5533  0.0257
 8687SOL    HW226961   3.491   1.638   1.976  1.0626 -0.3399 -1.3297
 8688SOL     OW26962   0.795   2.406   1.859 -0.6363  0.1916  0.1073
 8688SOL    HW126963   0.846   2.419   1.944  1.4166 -0.0687 -1.0203
 8688SOL    HW226964   0.835   2.462   1.787 -0.5258 -1.6905 -1.3763
 8689SOL     OW26965   2.800   5.740   3.318  0.0980 -0.6153 -0.2477
 8689SOL    HW126966   2.754   5.773   3.401 -0.4905 -2.3638  0.1687
 8689SOL    HW226967   2.733   5.730   3.245  0.1658 -1.3329 -0.2162
 8690SOL     OW26968   3.171   0.089   3.284  0.0347  0.5090 -0.6693
 8690SOL    HW126969   3.187   0.142   3.367 -1.3536  1.0565 -0.7295
 8690SOL    HW226970   3.083   0.042   3.290 -0.1760  0.6915 -1.8908
 8691SOL     OW26971   0.934   0.483   1.916 -0.3960  0.1620 -0.3315
 8691SOL    HW126972   0.961   0.388   1.935  0.5633  0.2365 -1.2160
 8691SOL    HW226973   0.909   0.528   2.001  1.2819 -0.2455  0.4192
 8692SOL     OW26974   3.359   2.080   2.335  0.2618 -0.1878 -0.6580
 8692SOL    HW126975   3.341   2.016   2.410 -1.8674 -1.1586 -1.8746
 8692SOL    HW226976   3.274   2.094   2.283  0.4696  4.0428 -0.2195
 8693SOL     OW26977   4.663   5.140   3.290 -0.1912 -0.3000  0.4580
 8693SOL    HW126978   4.591   5.083   3.250 -1.4500  0.3538  1.7208
 8693SOL    HW226979   4.630   5.180   3.375  1.1580  1.2291  0.2991
 8694SOL     OW26980   6.367   2.169   6.209 -0.1781 -0.0421 -1.1382
 8694SOL    HW126981   6.427   2.248   6.204  1.9513 -1.4820  0.0752
 8694SOL    HW226982   6.400   2.098   6.146 -0.1400 -1.1132  0.0444
 8695SOL     OW26983   3.353   4.704   5.264 -0.2823  0.3799  0.3032
 8695SOL    HW126984   3.362   4.604   5.260 -1.3179  0.2167  1.4072
 8695SOL    HW226985   3.266   4.730   5.222  0.3413  0.9089 -0.6931
 8696SOL     OW26986   4.676   0.431   3.168  0.3763  0.0776 -0.1542
 8696SOL    HW126987   4.587   0.475   3.163 -0.1891 -1.1378 -1.6355
 8696SOL    HW226988   4.746   0.500   3.186 -0.7232  1.2323 -0.1650
 8697SOL     OW26989   1.114   0.144   4.177 -0.1189 -0.1536  0.0605
 8697SOL    HW126990   1.113   0.211   4.102  0.0993 -0.6504 -0.3940
 8697SOL    HW226991   1.047   0.072   4.158  0.9365 -1.0512 -0.3860
 8698SOL     OW26992   3.613   2.577   1.441  0.3131  0.4045 -0.4818
 8698SOL    HW126993   3.608   2.506   1.511  0.1031 -0.2027 -1.0945
 8698SOL    HW226994   3.617   2.667   1.484  0.6584  0.0172  0.3086
 8699SOL     OW26995   5.159   1.262   1.689  0.7739  0.2815  0.2722
 8699SOL    HW126996   5.102   1.229   1.615 -1.1148  0.4574  1.5819
 8699SOL    HW226997   5.129   1.220   1.775  0.8934  2.3626  1.3804
 8700SOL     OW26998   5.065   0.767   5.137 -0.7709 -0.0834  0.3458
 8700SOL    HW126999   5.003   0.837   5.171 -0.2807  0.0097  1.0784
 8700SOL    HW227000   5.108   0.720   5.214 -1.1547 -1.2582 -0.1223
 8701SOL     OW27001   3.994   6.265   5.578 -0.2073 -0.5257  0.0532
 8701SOL    HW127002   4.092   6.284   5.577 -0.0070 -1.3590  1.5286
 8701SOL    HW227003   3.957   6.284   5.669 -1.4917  0.0751 -0.5671
 8702SOL     OW27004   0.340   1.080   1.153  0.4326 -0.0295 -0.5905
 8702SOL    HW127005   0.363   1.120   1.242  0.2624 -0.3028 -0.4257
 8702SOL    HW227006   0.388   0.993   1.142 -0.7724 -0.7682 -0.1091
 8703SOL     OW27007   2.769   0.758   0.507 -0.1231  0.0270  0.3845
 8703SOL    HW127008   2.757   0.708   0.420 -1.4925  1.6965 -0.4526
 8703SOL    HW227009   2.713   0.714   0.577 -0.0688 -0.5498  0.0805
 8704SOL     OW27010   3.806   6.350   2.235 -0.7548 -0.0811  0.3107
 8704SOL    HW127011   3.779   6.357   2.331 -1.3013  0.8775  0.0998
 8704SOL    HW227012   3.737   6.297   2.185 -0.4798 -0.5637  0.4391
 8705SOL     OW27013   6.968   5.869   0.196  0.0401 -0.0902  0.1292
 8705SOL    HW127014   7.066   5.853   0.189  0.0581 -0.7122  1.5377
 8705SOL    HW227015   6.918   5.788   0.164 -0.0240  0.1081 -0.2880
 8706SOL     OW27016   1.230   3.774   6.356 -0.3281  0.0091  0.8648
 8706SOL    HW127017   1.214   3.872   6.373 -0.9871  0.3155 -1.1981
 8706SOL    HW227018   1.328   3.756   6.355  0.1892  1.7409 -3.4108
 8707SOL     OW27019   0.705   6.171   5.369 -0.8495 -0.0376  0.0754
 8707SOL    HW127020   0.704   6.073   5.391  0.4319  0.5360  3.3143
 8707SOL    HW227021   0.764   6.187   5.291 -0.9468 -1.8137 -0.4064
 8708SOL     OW27022   2.273   2.377   0.694 -0.5347 -0.7327 -0.5807
 8708SOL    HW127023   2.192   2.403   0.746 -0.6369 -0.1224 -1.0322
 8708SOL    HW227024   2.265   2.411   0.600  0.2960 -0.5483 -0.5950
 8709SOL     OW27025   0.641   4.960   4.839 -0.1000 -0.4675  0.2416
 8709SOL    HW127026   0.570   4.962   4.908 -0.2885  1.2078  0.0471
 8709SOL    HW227027   0.717   5.019   4.867 -0.2829  0.4363 -1.0415
 8710SOL     OW27028   2.535   6.838   0.111  0.1922 -0.4837  0.2006
 8710SOL    HW127029   2.550   6.740   0.095  1.7325 -0.1785 -0.3680
 8710SOL    HW227030   2.622   6.886   0.108 -0.6008  0.9971 -0.0566
 8711SOL     OW27031   4.147   5.397   1.466  0.2491  0.2214  0.5642
 8711SOL    HW127032   4.120   5.349   1.550  1.0338  0.0154  0.7041
 8711SOL    HW227033   4.224   5.350   1.424 -0.6204 -0.1050 -0.6884
 8712SOL     OW27034   4.269   2.424   0.523 -0.1650 -0.3439  0.2461
 8712SOL    HW127035   4.358   2.418   0.567  1.6191  0.5663 -2.8999
 8712SOL    HW227036   4.263   2.509   0.471 -1.0530 -2.2227 -3.0713
 8713SOL     OW27037   3.241   5.233   6.508 -0.1900  0.0295 -0.3145
 8713SOL    HW127038   3.292   5.315   6.484  1.1146 -0.9890 -1.1571
 8713SOL    HW227039   3.253   5.164   6.436 -0.1288 -1.3853  0.9995
 8714SOL     OW27040   3.951   0.580   2.886 -0.5801 -0.0594 -0.1000
 8714SOL    HW127041   3.955   0.480   2.885  0.1196 -0.0349 -0.6750
 8714SOL    HW227042   4.039   0.617   2.858 -0.4266  0.7360  1.3362
 8715SOL     OW27043   1.476   1.052   6.842  0.1769 -0.0866 -0.2554
 8715SOL    HW127044   1.399   1.077   6.900  0.3205 -0.9503  0.3120
 8715SOL    HW227045   1.442   1.011   6.757  0.0094 -1.7902  0.5957
 8716SOL     OW27046   6.655   0.749   3.644 -0.6415 -0.2068 -0.1780
 8716SOL    HW127047   6.662   0.649   3.636 -0.1022 -0.1179 -0.8413
 8716SOL    HW227048   6.577   0.782   3.591 -0.4340 -0.2040 -0.4776
 8717SOL     OW27049   1.140   0.503   5.259 -0.4310  0.1172 -0.1754
 8717SOL    HW127050   1.133   0.412   5.217  0.5939 -0.2966  0.5090
 8717SOL    HW227051   1.228   0.545   5.234 -0.4131  0.4448  0.4046
 8718SOL     OW27052   0.885   6.243   5.577 -0.4530  0.1854  1.0408
 8718SOL    HW127053   0.920   6.149   5.570  1.4597  0.9632 -0.7437
 8718SOL    HW227054   0.796   6.249   5.531  0.2622 -0.4113 -0.5102
 8719SOL     OW27055   0.325   1.623   4.654  0.1804  0.0942  0.1591
 8719SOL    HW127056   0.323   1.684   4.574  0.3066  1.0034  0.8330
 8719SOL    HW227057   0.363   1.535   4.627  0.1761  0.3709 -0.8019
 8720SOL     OW27058   4.553   6.951   6.544 -0.0274 -0.2725  0.1483
 8720SOL    HW127059   4.543   6.919   6.450  1.0915 -1.3900  0.3871
 8720SOL    HW227060   4.462   6.958   6.586 -0.8168  2.5936 -1.6958
 8721SOL     OW27061   0.678   2.067   6.992  0.4409 -0.0069 -0.5823
 8721SOL    HW127062   0.681   2.166   7.003  1.1093 -0.1163  0.2632
 8721SOL    HW227063   0.769   2.028   7.007 -0.2853 -0.9936  1.6933
 8722SOL     OW27064   5.077   0.208   1.323 -0.1178 -0.1551  0.4110
 8722SOL    HW127065   5.077   0.292   1.270 -0.2455 -0.4519 -0.0645
 8722SOL    HW227066   5.106   0.228   1.417  1.9893  0.0802 -0.2392
 8723SOL     OW27067   3.292   3.837   6.525 -0.2231  0.1581  0.0243
 8723SOL    HW127068   3.312   3.776   6.601 -1.5172  2.8644  2.7675
 8723SOL    HW227069   3.365   3.905   6.517 -1.4635  1.6580  0.8947
 8724SOL     OW27070   2.522   1.232   6.961 -0.5692  0.6860  0.3559
 8724SOL    HW127071   2.567   1.300   7.020  0.7076  0.1264  0.0576
 8724SOL    HW227072   2.471   1.168   7.018  2.5195 -1.2590  1.1954
 8725SOL     OW27073   2.932   6.904   6.245  0.7430 -0.1353 -0.4074
 8725SOL    HW127074   3.004   6.835   6.243 -1.0009 -2.0765 -0.2317
 8725SOL    HW227075   2.913   6.930   6.339 -0.5470 -1.6629 -0.2039
 8726SOL     OW27076   1.145   6.883   1.507 -0.2022  0.3501 -0.3047
 8726SOL    HW127077   1.106   6.962   1.554 -0.0315  0.2876 -0.0560
 8726SOL    HW227078   1.094   6.866   1.422  0.8440  1.7994 -1.2747
 8727SOL     OW27079   6.659   6.624   0.186  0.0315 -0.2180  0.5490
 8727SOL    HW127080   6.699   6.537   0.212  4.5790  1.1437 -0.8275
 8727SOL    HW227081   6.639   6.623   0.088  0.9014  0.4606  0.3480
 8728SOL     OW27082   5.243   6.289   2.718  0.3322 -0.0109  0.4528
 8728SOL    HW127083   5.167   6.335   2.763  0.2654 -0.1694  0.5042
 8728SOL    HW227084   5.211   6.243   2.636  0.3527 -0.1600  0.5268
 8729SOL     OW27085   3.780   2.497   5.757  0.0601  0.6847  0.2133
 8729SOL    HW127086   3.865   2.535   5.722 -0.0187  0.2849 -0.4208
 8729SOL    HW227087   3.801   2.421   5.820  0.2161  1.7361  1.4709
 8730SOL     OW27088   5.148   3.082   4.133  0.1732  0.6380  0.2990
 8730SOL    HW127089   5.232   3.028   4.133  0.9068  1.7410  0.2162
 8730SOL    HW227090   5.078   3.035   4.187  1.3125  0.3989  1.6362
 8731SOL     OW27091   1.043   5.999   2.373  0.0105 -0.0086 -0.3786
 8731SOL    HW127092   0.973   6.016   2.304  0.6466 -0.4050 -1.1268
 8731SOL    HW227093   1.025   6.056   2.453 -0.5813  0.6455 -0.9693
 8732SOL     OW27094   5.622   4.364   1.821 -0.4287  0.4240  0.4353
 8732SOL    HW127095   5.652   4.411   1.738  1.2677  0.8168  1.2278
 8732SOL    HW227096   5.615   4.430   1.896 -0.4442 -0.1856  0.9782
 8733SOL     OW27097   1.425   5.966   3.936  0.1735  0.5922  0.0490
 8733SOL    HW127098   1.518   5.959   3.974  0.4513 -1.4906 -0.9207
 8733SOL    HW227099   1.378   6.043   3.980  2.1256  1.3250  1.0125
 8734SOL     OW27100   0.883   6.444   1.249  0.3382  0.7372 -0.6273
 8734SOL    HW127101   0.798   6.496   1.246 -0.0606  0.0919 -0.7779
 8734SOL    HW227102   0.918   6.432   1.156 -0.6304 -0.9363 -0.8237
 8735SOL     OW27103   6.710   1.014   3.673  0.3015 -0.7703  0.2550
 8735SOL    HW127104   6.711   0.924   3.631 -0.3787 -0.8225  0.3293
 8735SOL    HW227105   6.637   1.018   3.742  0.6482 -0.3212  0.6023
 8736SOL     OW27106   5.539   1.425   5.845  0.2533 -0.1294 -0.0970
 8736SOL    HW127107   5.471   1.352   5.851  0.1847  0.0433  1.5584
 8736SOL    HW227108   5.494   1.513   5.860  0.6419  0.1062 -0.2983
 8737SOL     OW27109   3.180   1.526   5.447 -0.2552  0.1741  0.0255
 8737SOL    HW127110   3.123   1.460   5.397 -1.0020  1.9384 -1.5607
 8737SOL    HW227111   3.129   1.610   5.461  1.3093  1.0987  0.3731
 8738SOL     OW27112   4.909   0.767   4.021 -0.7222  0.3010  0.0478
 8738SOL    HW127113   4.853   0.700   3.972  0.2921  0.2447 -1.0587
 8738SOL    HW227114   4.852   0.814   4.089 -1.8000 -0.6354 -0.1773
 8739SOL     OW27115   1.990   5.265   1.483  0.5209  0.3492  0.2310
 8739SOL    HW127116   2.080   5.255   1.525  1.0765  0.5492 -0.8722
 8739SOL    HW227117   1.947   5.348   1.517 -1.0072 -1.6685  3.8259
 8740SOL     OW27118   4.780   5.460   1.345  0.4653  0.1395 -0.3838
 8740SOL    HW127119   4.693   5.456   1.394 -0.0137  0.9233 -1.1306
 8740SOL    HW227120   4.839   5.386   1.375  0.1978  0.6005  1.3662
 8741SOL     OW27121   5.238   0.843   6.973 -0.1629 -0.2565  0.2124
 8741SOL    HW127122   5.211   0.747   6.976  0.0544 -0.3376 -0.2418
 8741SOL    HW227123   5.172   0.895   6.918 -0.4860 -0.0691  0.7652
 8742SOL     OW27124   1.117   3.682   3.509 -0.5374  0.1573 -0.2538
 8742SOL    HW127125   1.092   3.652   3.417 -1.5801 -0.1238  0.1170
 8742SOL    HW227126   1.042   3.732   3.550  0.7840  2.4348 -0.4510
 8743SOL     OW27127   3.325   3.726   6.175 -0.3631 -0.4795 -0.5039
 8743SOL    HW127128   3.337   3.639   6.127  0.6875 -1.3684  1.2767
 8743SOL    HW227129   3.412   3.774   6.180 -0.1812 -0.9318  1.3993
 8744SOL     OW27130   2.440   0.153   5.218  0.4744 -0.8127  0.1564
 8744SOL    HW127131   2.504   0.109   5.155  0.2634 -1.5421  0.4463
 8744SOL    HW227132   2.347   0.130   5.192  0.1987  1.5334 -1.2501
 8745SOL     OW27133   1.325   4.845   5.626  0.6178 -0.5280 -0.5907
 8745SOL    HW127134   1.286   4.888   5.544 -0.5762 -1.0880 -0.3439
 8745SOL    HW227135   1.271   4.764   5.649 -0.4871  0.8547  2.0585
 8746SOL     OW27136   4.896   0.057   4.527  0.9222 -0.2268 -0.0648
 8746SOL    HW127137   4.985   0.069   4.570  0.2941  0.6849  1.0103
 8746SOL    HW227138   4.879   0.132   4.463  0.2687  0.4813  0.9163
 8747SOL     OW27139   6.320   0.876   3.035  0.3214 -0.0266 -0.0291
 8747SOL    HW127140   6.411   0.871   3.077  1.4429 -0.2011 -2.3151
 8747SOL    HW227141   6.255   0.912   3.102  1.7005 -1.3838  2.1898
 8748SOL     OW27142   0.164   0.815   4.219 -0.7658  0.0474  0.8948
 8748SOL    HW127143   0.238   0.784   4.278 -0.8324 -0.4649  0.7158
 8748SOL    HW227144   0.080   0.766   4.243 -1.4359  1.7537  2.1634
 8749SOL     OW27145   0.097   3.414   5.106 -0.3882  0.0819 -0.0788
 8749SOL    HW127146   0.034   3.353   5.155 -0.0105 -0.2833 -0.0447
 8749SOL    HW227147   0.128   3.370   5.022  0.5935 -0.1652  0.3931
 8750SOL     OW27148   2.933   6.661   4.941 -0.0135  0.0687 -0.0290
 8750SOL    HW127149   2.901   6.723   5.012  0.3065 -0.4333  0.5661
 8750SOL    HW227150   2.959   6.573   4.982  1.0526  0.0787 -0.6402
 8751SOL     OW27151   0.531   3.027   0.513 -0.3488  0.1781 -0.0287
 8751SOL    HW127152   0.461   3.098   0.504 -1.3953 -0.7300  0.5938
 8751SOL    HW227153   0.620   3.064   0.486 -0.7455  1.8890  0.8585
 8752SOL     OW27154   5.746   1.105   2.055  0.1776  0.2753  0.1084
 8752SOL    HW127155   5.819   1.066   1.998 -0.1053  1.0746 -0.8303
 8752SOL    HW227156   5.663   1.049   2.045 -0.5437  1.6116 -2.0583
 8753SOL     OW27157   3.737   4.994   4.703 -0.0168 -0.2662 -0.1123
 8753SOL    HW127158   3.796   4.957   4.774 -0.6582  1.9667  1.7242
 8753SOL    HW227159   3.788   5.001   4.617  1.3403 -1.3912  0.5671
 8754SOL     OW27160   2.728   5.324   5.640 -0.0066  0.5021 -0.3257
 8754SOL    HW127161   2.774   5.235   5.641  2.8317  1.8525 -1.1021
 8754SOL    HW227162   2.662   5.326   5.566 -0.2272 -0.9920 -0.2062
 8755SOL     OW27163   0.717   6.869   1.120 -0.1572  0.2023 -0.7222
 8755SOL    HW127164   0.661   6.802   1.071 -0.7283  0.8363 -0.9566
 8755SOL    HW227165   0.661   6.916   1.188  0.0864  0.8346 -0.9479
 8756SOL     OW27166   2.872   5.869   6.191 -0.1922  0.3878  0.5907
 8756SOL    HW127167   2.805   5.841   6.123 -0.0936  0.5481  0.4231
 8756SOL    HW227168   2.901   5.791   6.245 -0.1010  0.2115  0.2920
 8757SOL     OW27169   3.908   3.219   1.552  0.0143  0.0580 -0.0976
 8757SOL    HW127170   3.913   3.318   1.541  0.6900  0.3812  2.3363
 8757SOL    HW227171   3.827   3.195   1.605  0.9944 -0.4116  1.2635
 8758SOL     OW27172   0.073   4.557   3.067 -0.3408  0.2800  0.6659
 8758SOL    HW127173   0.015   4.513   3.135  0.5134 -0.5236  0.8961
 8758SOL    HW227174   0.020   4.626   3.018 -1.7435 -1.0579  0.2199
 8759SOL     OW27175   1.637   6.666   4.996  0.5674  0.4164 -0.4959
 8759SOL    HW127176   1.730   6.687   5.026  0.6620 -0.9952  0.3014
 8759SOL    HW227177   1.587   6.623   5.072 -0.4330  0.2839 -1.2126
 8760SOL     OW27178   1.725   1.157   5.882 -0.1316 -0.4222 -0.0488
 8760SOL    HW127179   1.815   1.198   5.873  1.0512 -2.7981  0.3141
 8760SOL    HW227180   1.694   1.166   5.977 -0.1721  0.1044 -0.1049
 8761SOL     OW27181   0.341   5.408   0.033 -1.4018  0.3572  0.4395
 8761SOL    HW127182   0.424   5.447   0.072 -0.8062 -0.7150  0.2835
 8761SOL    HW227183   0.309   5.466  -0.042 -1.1785  1.1306  0.9301
 8762SOL     OW27184   0.639   4.697   6.454 -0.0744  0.2134  0.4243
 8762SOL    HW127185   0.737   4.695   6.476  0.3506 -1.3605 -1.3433
 8762SOL    HW227186   0.627   4.688   6.355 -2.0319 -2.0130  0.7769
 8763SOL     OW27187   6.756   1.747   6.430 -0.1559  0.3808  0.0776
 8763SOL    HW127188   6.763   1.691   6.512  1.7528 -0.2693 -0.4806
 8763SOL    HW227189   6.769   1.690   6.349 -2.3891  0.9264 -0.7707
 8764SOL     OW27190   0.533   3.279   4.568  0.6466 -0.2478 -0.4674
 8764SOL    HW127191   0.624   3.309   4.537  0.3630  1.6595  0.4133
 8764SOL    HW227192   0.463   3.336   4.525 -0.0508 -0.6940  0.0645
 8765SOL     OW27193   1.507   2.155   2.573  0.2261  0.7093  0.2266
 8765SOL    HW127194   1.603   2.128   2.580  0.6526  2.3869  1.3260
 8765SOL    HW227195   1.497   2.225   2.503 -0.7974 -1.7409 -2.2682
 8766SOL     OW27196   4.921   0.429   1.190  0.5049 -0.1253  0.3509
 8766SOL    HW127197   4.879   0.425   1.099  0.8266  0.8654  0.1514
 8766SOL    HW227198   4.985   0.505   1.195  0.3793 -0.0638  1.4571
 8767SOL     OW27199   5.651   4.232   3.094 -0.5159 -0.4029 -0.2419
 8767SOL    HW127200   5.599   4.220   3.178 -1.1666  0.9003 -0.4342
 8767SOL    HW227201   5.691   4.324   3.092 -1.0998 -0.1557 -1.6579
 8768SOL     OW27202   0.942   3.300   3.708 -0.2344  0.0854 -0.8217
 8768SOL    HW127203   0.913   3.266   3.798 -1.3073 -0.0608 -1.1984
 8768SOL    HW227204   1.036   3.331   3.712  0.2506 -1.3963 -0.0325
 8769SOL     OW27205   2.290   5.053   6.500  0.0038 -0.0317 -0.2541
 8769SOL    HW127206   2.237   5.011   6.426 -0.3174 -1.3578  0.6971
 8769SOL    HW227207   2.333   4.981   6.555  0.2265  0.9303  0.8614
 8770SOL     OW27208   0.359   6.815   4.012  0.0678 -0.4036 -0.4756
 8770SOL    HW127209   0.382   6.823   3.915 -1.5986 -0.6697 -0.9229
 8770SOL    HW227210   0.261   6.798   4.021 -0.1562  1.5048  1.3416
 8771SOL     OW27211   4.221   2.864   6.244 -0.1801  0.3329  0.0583
 8771SOL    HW127212   4.254   2.785   6.193  0.1518 -0.0176  0.8003
 8771SOL    HW227213   4.153   2.914   6.189  0.8062  0.4738 -1.0606
 8772SOL     OW27214   5.708   0.685   1.967 -0.6557 -0.3362 -0.0315
 8772SOL    HW127215   5.777   0.734   2.020 -0.2597  1.2026 -1.8602
 8772SOL    HW227216   5.687   0.598   2.012  0.6798  0.2462  1.8389
 8773SOL     OW27217   3.529   1.534   2.294 -0.0137 -0.3146  0.2875
 8773SOL    HW127218   3.534   1.497   2.202 -0.9616 -0.7275  0.3901
 8773SOL    HW227219   3.479   1.621   2.293  0.6283  0.0602  0.3094
 8774SOL     OW27220   3.642   3.320   5.092  0.6111  0.1822 -0.3732
 8774SOL    HW127221   3.589   3.396   5.053 -1.8626 -1.4470 -0.3685
 8774SOL    HW227222   3.736   3.325   5.058 -0.0615  1.9035 -2.2162
 8775SOL     OW27223   3.691   6.908   4.187  0.6392  0.0243  0.3585
 8775SOL    HW127224   3.619   6.843   4.211  0.6311  0.7276  2.4228
 8775SOL    HW227225   3.780   6.868   4.211  0.6657  0.5286  1.1585
 8776SOL     OW27226   1.282   0.499   6.443  0.0787  0.0553 -0.3021
 8776SOL    HW127227   1.210   0.441   6.482 -0.6325  0.8698 -0.3518
 8776SOL    HW227228   1.240   0.566   6.382  0.9323  0.3147 -0.6120
 8777SOL     OW27229   6.687   5.647   5.877  0.2712 -0.2861  0.0636
 8777SOL    HW127230   6.786   5.660   5.873  0.3689 -0.9384  0.2515
 8777SOL    HW227231   6.664   5.553   5.851 -0.2482 -0.3076  0.5658
 8778SOL     OW27232   1.421   5.271   5.555 -0.4219 -0.2969  0.5110
 8778SOL    HW127233   1.356   5.298   5.626  0.8969  0.3877  1.5156
 8778SOL    HW227234   1.502   5.230   5.598 -0.0981 -0.9587 -0.6837
 8779SOL     OW27235   3.797   1.796   0.133 -0.2485 -0.3185  1.0643
 8779SOL    HW127236   3.848   1.866   0.181  0.4217 -0.4302  0.5260
 8779SOL    HW227237   3.779   1.719   0.195  1.0883 -0.7065  0.9992
 8780SOL     OW27238   3.640   0.187   2.174 -0.3356 -0.2067  0.3388
 8780SOL    HW127239   3.710   0.161   2.108 -0.5594 -1.4525  0.5747
 8780SOL    HW227240   3.603   0.105   2.217 -1.4586  0.4825  0.7152
 8781SOL     OW27241   3.453   5.228   6.203 -0.1945  0.4893 -0.0501
 8781SOL    HW127242   3.453   5.313   6.257 -0.5254  1.8194 -2.0345
 8781SOL    HW227243   3.360   5.195   6.192  0.0689 -1.3806  2.4455
 8782SOL     OW27244   4.470   0.005   1.774  0.2963 -0.5492 -0.1797
 8782SOL    HW127245   4.541   0.071   1.796  0.7530 -1.0025 -0.2531
 8782SOL    HW227246   4.445   0.013   1.677  0.9877 -1.0631 -0.4144
 8783SOL     OW27247   5.439   2.622   3.751  0.2334  0.1961 -0.8070
 8783SOL    HW127248   5.416   2.662   3.662  0.6635  0.1134 -0.9559
 8783SOL    HW227249   5.388   2.537   3.763 -3.3593  2.3272  0.9196
 8784SOL     OW27250   5.453   2.020   1.184  0.5450 -0.5716  0.0123
 8784SOL    HW127251   5.391   2.012   1.262  1.3469 -1.7562  0.5670
 8784SOL    HW227252   5.419   1.963   1.108 -0.7804  1.3706 -0.9242
 8785SOL     OW27253   1.330   6.751   6.733  0.4062  0.3411 -0.1092
 8785SOL    HW127254   1.394   6.753   6.656 -1.0468 -1.1083 -1.4203
 8785SOL    HW227255   1.257   6.818   6.718 -1.0855 -1.4267 -1.1661
 8786SOL     OW27256   2.733   0.660   3.885 -0.1729  0.1448  0.2252
 8786SOL    HW127257   2.681   0.724   3.828 -0.8013 -1.8310 -1.5357
 8786SOL    HW227258   2.690   0.570   3.881  1.6747 -0.8311  1.2093
 8787SOL     OW27259   5.852   3.531   1.629  0.6158  0.2119 -0.4744
 8787SOL    HW127260   5.918   3.568   1.564  0.5393  1.2192  0.0051
 8787SOL    HW227261   5.877   3.559   1.721 -1.1310  1.6256 -0.3879
 8788SOL     OW27262   2.166   1.550   2.213 -0.3149  0.0991 -0.1254
 8788SOL    HW127263   2.072   1.515   2.210 -1.0292  1.9567 -2.2199
 8788SOL    HW227264   2.202   1.558   2.120  0.0333  4.0349  0.1817
 8789SOL     OW27265   3.987   6.779   4.549  0.3156  0.5403  0.0727
 8789SOL    HW127266   4.078   6.795   4.588  0.2523  0.3507  0.2938
 8789SOL    HW227267   3.941   6.867   4.536  0.8468  0.7097 -0.8075
 8790SOL     OW27268   3.943   6.541   5.983 -0.2582  0.1496 -0.2343
 8790SOL    HW127269   3.898   6.511   5.899 -0.3684  1.2940 -0.5971
 8790SOL    HW227270   3.947   6.465   6.047 -1.4829 -0.3594 -0.7262
 8791SOL     OW27271   1.810   5.809   0.156 -0.3977 -0.2347 -0.3132
 8791SOL    HW127272   1.788   5.753   0.077 -0.8031  0.8522 -0.9912
 8791SOL    HW227273   1.866   5.887   0.127 -2.1918  1.2855  0.0981
 8792SOL     OW27274   5.098   0.228   1.625 -0.4185  0.0141  0.1347
 8792SOL    HW127275   5.188   0.194   1.653  0.6129  0.3546 -2.4532
 8792SOL    HW227276   5.085   0.321   1.659  1.0942  0.6903 -0.9948
 8793SOL     OW27277   2.695   0.074   2.680  0.4278 -0.3049 -0.3676
 8793SOL    HW127278   2.629   0.033   2.617 -2.9436 -1.0073  3.1605
 8793SOL    HW227279   2.646   0.110   2.760  4.2013  1.8366  1.2659
 8794SOL     OW27280   6.503   6.429   0.824 -0.5305 -0.3212 -0.3521
 8794SOL    HW127281   6.427   6.382   0.780 -0.4433 -1.4065  0.6068
 8794SOL    HW227282   6.470   6.479   0.904 -0.6111  1.2477 -1.3272
 8795SOL     OW27283   5.212   6.453   2.320 -0.7775 -0.1334  0.0755
 8795SOL    HW127284   5.180   6.365   2.353 -0.8265  0.2705  1.1563
 8795SOL    HW227285   5.150   6.487   2.250 -2.3278  0.2725  1.5661
 8796SOL     OW27286   5.543   0.702   5.310  0.0271  0.2618  0.6042
 8796SOL    HW127287   5.634   0.742   5.317  1.2585 -2.1678 -0.4778
 8796SOL    HW227288   5.536   0.624   5.372 -1.2636  0.2905  0.5167
 8797SOL     OW27289   3.363   0.969   3.817 -0.2157 -0.3541 -0.8462
 8797SOL    HW127290   3.436   1.032   3.789  0.2171 -1.1746 -1.6207
 8797SOL    HW227291   3.385   0.877   3.784 -1.3046 -0.7253 -0.5521
 8798SOL     OW27292   1.543   4.526   2.014  0.3089 -0.5647  0.3794
 8798SOL    HW127293   1.597   4.544   2.097 -1.7598  2.6828  1.2394
 8798SOL    HW227294   1.457   4.482   2.040 -1.6548  3.0177  0.6058
 8799SOL     OW27295   2.068   5.862   6.488  0.4676 -0.2165 -0.2860
 8799SOL    HW127296   2.073   5.825   6.581  0.8639  0.2643 -0.1147
 8799SOL    HW227297   2.044   5.788   6.424 -1.2016 -0.2854  0.3722
 8800SOL     OW27298   5.237   1.378   5.900 -0.4112 -0.0099  0.3042
 8800SOL    HW127299   5.285   1.291   5.890  0.8486  0.7353 -0.5388
 8800SOL    HW227300   5.166   1.385   5.831 -0.5240 -0.3805  0.3838
 8801SOL     OW27301   0.836   2.240   3.467  0.1477 -0.2279 -0.4617
 8801SOL    HW127302   0.831   2.149   3.509  1.5220 -1.1828 -2.2475
 8801SOL    HW227303   0.889   2.301   3.526 -0.9766 -0.4752  0.8636
 8802SOL     OW27304   1.502   0.668   4.179  0.2043  0.1417 -0.2670
 8802SOL    HW127305   1.493   0.739   4.249  0.0429 -1.4456  1.3818
 8802SOL    HW227306   1.412   0.632   4.155  0.4621 -1.3130  0.8643
 8803SOL     OW27307   6.597   3.670   3.274 -0.0534 -0.2291  0.1360
 8803SOL    HW127308   6.641   3.686   3.186 -1.7498  1.4400 -0.4604
 8803SOL    HW227309   6.504   3.635   3.259 -0.4467  0.3008  1.2411
 8804SOL     OW27310   0.542   6.703   2.329 -0.1263 -0.1666  0.1456
 8804SOL    HW127311   0.585   6.793   2.340 -0.1424 -0.2724  1.1793
 8804SOL    HW227312   0.589   6.636   2.387  0.8699 -1.1894 -1.7591
 8805SOL     OW27313   5.254   4.799   2.799 -0.2553 -0.1555  0.1319
 8805SOL    HW127314   5.326   4.729   2.796 -1.3006 -1.2886  0.7513
 8805SOL    HW227315   5.297   4.889   2.808  1.0880 -0.9183  2.2235
 8806SOL     OW27316   4.086   2.994   0.164  0.4484  0.6529 -0.4326
 8806SOL    HW127317   4.085   2.964   0.068 -0.2161  0.8482 -0.4917
 8806SOL    HW227318   4.167   2.958   0.209  2.2336  2.7425 -1.7516
 8807SOL     OW27319   6.030   6.695   2.492 -0.2868 -0.3257 -0.3424
 8807SOL    HW127320   6.000   6.776   2.443 -1.6646  0.8182  2.1513
 8807SOL    HW227321   5.957   6.665   2.554  0.9463 -2.2543  0.2799
 8808SOL     OW27322   2.326   2.254   4.541 -0.0018 -0.6694 -0.4867
 8808SOL    HW127323   2.345   2.280   4.446  0.4989  2.5795  0.3980
 8808SOL    HW227324   2.411   2.224   4.585  0.5613  1.4135 -0.0861
 8809SOL     OW27325   5.076   3.326   1.576 -0.0406  0.1358  0.4369
 8809SOL    HW127326   4.991   3.277   1.593 -0.0507  0.0757  0.2088
 8809SOL    HW227327   5.057   3.409   1.525 -0.0956  0.6726  1.3091
 8810SOL     OW27328   2.965   6.580   2.634  0.2489 -0.3285 -0.1662
 8810SOL    HW127329   2.936   6.672   2.607 -1.3591 -0.8742 -0.3871
 8810SOL    HW227330   3.030   6.587   2.709 -0.1298  0.9825  0.0676
 8811SOL     OW27331   3.768   1.341   5.342 -0.3269  0.1478  0.0528
 8811SOL    HW127332   3.817   1.399   5.277 -0.6094  0.7946  0.4028
 8811SOL    HW227333   3.766   1.386   5.431  0.8456 -1.1372  0.7622
 8812SOL     OW27334   5.428   5.412   1.425 -0.0848 -0.2453 -0.6946
 8812SOL    HW127335   5.345   5.429   1.477  1.1329 -0.1268  1.2981
 8812SOL    HW227336   5.444   5.313   1.419  1.0164 -0.2407  1.3250
 8813SOL     OW27337   5.322   0.960   2.527 -0.1322 -0.2133 -0.2007
 8813SOL    HW127338   5.348   1.008   2.444  0.3604  0.4691  0.3348
 8813SOL    HW227339   5.251   1.011   2.575 -1.6582 -1.4445 -1.0200
 8814SOL     OW27340   5.964   0.399   1.052 -0.0179 -0.1454 -0.0322
 8814SOL    HW127341   5.963   0.463   0.975  1.3340  0.7627  0.6737
 8814SOL    HW227342   5.884   0.414   1.109  0.4590  1.1865  0.3157
 8815SOL     OW27343   3.417   0.003   1.543 -0.6431  0.1879 -0.7696
 8815SOL    HW127344   3.455  -0.022   1.631  1.4787 -1.6044 -2.0803
 8815SOL    HW227345   3.325  -0.035   1.534 -0.4281 -0.5905  0.2178
 8816SOL     OW27346   5.928   3.527   4.885  0.2790  0.0841 -0.0415
 8816SOL    HW127347   5.846   3.470   4.894 -0.7439  1.8278  3.6550
 8816SOL    HW227348   5.980   3.497   4.805 -1.7287 -3.8881 -0.1309
 8817SOL     OW27349   2.533   6.563   1.130  0.1778 -0.1218 -0.0543
 8817SOL    HW127350   2.468   6.500   1.172 -1.4891  0.5038 -1.5488
 8817SOL    HW227351   2.485   6.623   1.067  1.4147  3.6215  2.2238
 8818SOL     OW27352   5.379   3.342   3.645  0.3670 -0.2971  0.4476
 8818SOL    HW127353   5.349   3.437   3.636 -0.8936 -0.8352 -1.7245
 8818SOL    HW227354   5.468   3.331   3.601  0.2176 -0.2313  0.1219
 8819SOL     OW27355   4.310   5.124   0.749 -0.2687  0.3998 -0.1566
 8819SOL    HW127356   4.404   5.125   0.716 -0.1872  2.4427  0.0078
 8819SOL    HW227357   4.308   5.102   0.846  0.2047  1.6769  0.1640
 8820SOL     OW27358   5.350   3.962   2.126 -0.4621 -0.6327  0.1886
 8820SOL    HW127359   5.420   4.029   2.149  0.9918 -2.1326  0.2769
 8820SOL    HW227360   5.261   4.008   2.122  0.6704  1.6265 -1.4081
 8821SOL     OW27361   1.312   6.041   2.316  0.6638  0.1401 -0.4479
 8821SOL    HW127362   1.218   6.019   2.344  1.0861 -1.6500 -0.2975
 8821SOL    HW227363   1.311   6.118   2.252 -0.9493 -0.0776 -0.7276
 8822SOL     OW27364   5.633   1.212   6.789  0.0845  0.6818  0.3943
 8822SOL    HW127365   5.570   1.144   6.752 -1.5139  2.3588 -0.1258
 8822SOL    HW227366   5.698   1.168   6.850 -0.1981 -1.4513 -0.7523
 8823SOL     OW27367   2.927   4.772   1.751 -0.4672 -0.2851  0.4460
 8823SOL    HW127368   2.880   4.712   1.816 -0.8382 -1.3120 -0.7331
 8823SOL    HW227369   2.937   4.725   1.664  1.1062  0.6222  0.1068
 8824SOL     OW27370   4.163   6.351   4.183  0.2986  0.2601 -0.6825
 8824SOL    HW127371   4.193   6.337   4.089  1.1884  1.9748 -0.6831
 8824SOL    HW227372   4.241   6.348   4.244  0.0896  1.6895 -0.3123
 8825SOL     OW27373   6.493   5.832   6.592  0.3619 -0.7691  0.1634
 8825SOL    HW127374   6.559   5.797   6.525  2.3366 -1.5402  2.3755
 8825SOL    HW227375   6.426   5.761   6.614 -0.3753 -0.4697 -1.0237
 8826SOL     OW27376   1.635   3.031   4.473  0.1659  0.0455  0.3131
 8826SOL    HW127377   1.612   3.127   4.485 -0.3495  0.0094 -0.3464
 8826SOL    HW227378   1.729   3.015   4.503  0.0484  0.6249  1.0158
 8827SOL     OW27379   5.383   4.134   6.388 -0.1570  0.0771  0.5083
 8827SOL    HW127380   5.438   4.145   6.305 -0.5830  0.4475  0.2727
 8827SOL    HW227381   5.337   4.220   6.410  1.6234  0.6487  2.3395
 8828SOL     OW27382   5.317   1.690   4.726  0.1236  0.1835  0.2276
 8828SOL    HW127383   5.325   1.767   4.662  1.0719  0.7836  1.0457
 8828SOL    HW227384   5.304   1.726   4.818  3.0333 -0.5300  1.0104
 8829SOL     OW27385   2.461   0.348   6.358 -0.6456 -0.0570 -0.1043
 8829SOL    HW127386   2.368   0.316   6.376 -0.7845  0.5111  0.2109
 8829SOL    HW227387   2.457   0.439   6.315 -0.2528 -0.2886 -0.6415
 8830SOL     OW27388   5.063   3.620   0.312 -0.2820 -0.4283  1.0200
 8830SOL    HW127389   4.969   3.653   0.327 -0.3138 -0.0017 -0.0531
 8830SOL    HW227390   5.127   3.697   0.320 -0.1688 -0.4511  0.3503
 8831SOL     OW27391   5.264   6.175   6.319 -0.1166 -0.5477 -0.2748
 8831SOL    HW127392   5.184   6.234   6.327 -0.7097 -1.5538  1.6485
 8831SOL    HW227393   5.347   6.230   6.331 -0.3138  0.7802 -3.7385
 8832SOL     OW27394   5.621   2.431   6.115  0.0572 -0.4312 -0.4357
 8832SOL    HW127395   5.680   2.378   6.177 -0.8129 -2.6926 -1.4348
 8832SOL    HW227396   5.526   2.419   6.141 -0.1149  1.6790  0.0265
 8833SOL     OW27397   1.957   5.735   2.542 -0.7260  0.2552 -0.2407
 8833SOL    HW127398   1.933   5.730   2.639  1.2656  1.6602  0.3906
 8833SOL    HW227399   1.882   5.778   2.492 -1.3896  0.4159  0.8565
 8834SOL     OW27400   6.597   5.344   5.812  0.2128 -0.1518  0.3996
 8834SOL    HW127401   6.498   5.356   5.807  0.5328  3.4535  0.0984
 8834SOL    HW227402   6.626   5.339   5.908 -0.1145  1.0248  0.5729
 8835SOL     OW27403   3.230   4.809   5.604 -0.3260 -0.2809  0.2859
 8835SOL    HW127404   3.154   4.748   5.624  0.0243 -0.7540  0.1911
 8835SOL    HW227405   3.310   4.755   5.577 -0.6847  0.2893 -2.1462
 8836SOL     OW27406   0.857   2.350   5.160  0.4175 -0.2892 -0.0957
 8836SOL    HW127407   0.854   2.295   5.077  1.4855  1.2338 -1.2030
 8836SOL    HW227408   0.836   2.293   5.239 -1.0498 -1.6872 -1.4387
 8837SOL     OW27409   3.916   6.631   4.104  0.1161  0.5228  0.1982
 8837SOL    HW127410   3.982   6.606   4.033 -1.8320 -3.2434 -0.5249
 8837SOL    HW227411   3.832   6.664   4.062  0.2161  1.8730  0.9843
 8838SOL     OW27412   0.986   4.274   0.254 -0.0433 -0.5214 -0.1710
 8838SOL    HW127413   0.999   4.315   0.164  1.1417 -1.9191 -0.6735
 8838SOL    HW227414   0.924   4.195   0.246 -0.8919  0.0614  0.4663
 8839SOL     OW27415   0.191   5.843   3.116  0.3510 -0.0341 -0.4143
 8839SOL    HW127416   0.169   5.856   3.020  1.0739 -0.7467 -0.6850
 8839SOL    HW227417   0.107   5.845   3.170 -0.2648 -1.3388 -1.2604
 8840SOL     OW27418   4.421   4.749   0.347 -0.2248  0.4475  0.2247
 8840SOL    HW127419   4.409   4.662   0.396  0.2704  0.4714  0.3966
 8840SOL    HW227420   4.338   4.770   0.297 -0.2485 -0.2823 -0.0595
 8841SOL     OW27421   5.249   6.010   5.331  0.3831  0.6751  0.1007
 8841SOL    HW127422   5.166   5.978   5.285  1.3001 -0.0370 -1.1358
 8841SOL    HW227423   5.255   5.969   5.422  0.2458 -0.6991 -0.4794
 8842SOL     OW27424   6.872   3.324   5.507  0.9128 -0.5236  0.6544
 8842SOL    HW127425   6.921   3.291   5.587 -1.0369  0.4831  2.3570
 8842SOL    HW227426   6.774   3.328   5.527  0.4978  0.9176 -1.3603
 8843SOL     OW27427   5.627   4.024   5.092  0.0662 -0.2941 -0.3569
 8843SOL    HW127428   5.530   4.001   5.080  0.1136  0.4967 -2.9139
 8843SOL    HW227429   5.678   3.991   5.013  1.5337  1.1293 -0.0321
 8844SOL     OW27430   5.010   4.336   1.800 -0.6447 -0.1721 -0.0722
 8844SOL    HW127431   4.926   4.338   1.854  0.2295  0.6461  1.3347
 8844SOL    HW227432   5.047   4.428   1.792  0.7035 -0.6553  0.3145
 8845SOL     OW27433   5.877   1.901   5.640 -0.1045  0.0801 -0.0240
 8845SOL    HW127434   5.934   1.973   5.600  0.0890 -0.6065 -1.0295
 8845SOL    HW227435   5.933   1.822   5.664 -0.2731  0.3633  1.3510
 8846SOL     OW27436   5.346   2.909   3.346  0.6597  0.1100  0.1951
 8846SOL    HW127437   5.361   2.911   3.247  1.0978  2.3546  0.2562
 8846SOL    HW227438   5.248   2.901   3.365  0.4908  0.6151 -0.4350
 8847SOL     OW27439   4.470   6.349   5.169 -0.6752 -0.3067  0.3197
 8847SOL    HW127440   4.407   6.401   5.111  0.3248  0.8258  0.1995
 8847SOL    HW227441   4.481   6.257   5.132 -0.8164  0.0828 -0.7321
 8848SOL     OW27442   1.082   0.139   1.604 -0.3906  0.3288  0.1218
 8848SOL    HW127443   1.170   0.131   1.651 -0.3650 -2.2743 -0.2420
 8848SOL    HW227444   1.096   0.171   1.511  0.1925 -0.1221  0.0519
 8849SOL     OW27445   6.298   6.784   2.524  0.3360  0.1298  0.2258
 8849SOL    HW127446   6.276   6.878   2.500  2.0237  0.2221 -1.1201
 8849SOL    HW227447   6.213   6.733   2.541 -0.5904  1.9497  1.3715
 8850SOL     OW27448   4.140   2.093   0.158 -0.2719 -0.0096 -0.3692
 8850SOL    HW127449   4.179   2.150   0.086  0.6413  0.6851  0.6458
 8850SOL    HW227450   4.184   2.114   0.245  0.1449 -2.3155  0.0503
 8851SOL     OW27451   6.770   4.271   3.546  0.7206 -0.4086 -0.4024
 8851SOL    HW127452   6.688   4.286   3.490  0.4078  0.5772  0.2841
 8851SOL    HW227453   6.831   4.206   3.500  0.0641 -0.3052 -1.4513
 8852SOL     OW27454   1.096   2.970   5.653 -0.3260  0.3338 -0.7136
 8852SOL    HW127455   1.167   3.005   5.591  0.6730 -0.8753 -0.3025
 8852SOL    HW227456   1.135   2.959   5.745 -0.5205 -1.9408 -0.8549
 8853SOL     OW27457   2.226   4.595   3.621  0.2042 -0.0866  0.1896
 8853SOL    HW127458   2.132   4.588   3.585  0.2809 -0.8299  0.1116
 8853SOL    HW227459   2.223   4.623   3.717  0.0154  2.4273 -0.4816
 8854SOL     OW27460   3.297   0.156   5.556  0.1288 -0.1436  0.2396
 8854SOL    HW127461   3.340   0.245   5.539  0.6752 -0.0203  2.0632
 8854SOL    HW227462   3.203   0.171   5.588  0.4118 -0.1723  1.1131
 8855SOL     OW27463   2.723   1.848   2.882 -0.7514  0.3189  0.0776
 8855SOL    HW127464   2.652   1.906   2.922  0.1133  1.6448 -0.2553
 8855SOL    HW227465   2.740   1.876   2.787 -0.3971 -0.5491 -0.1232
 8856SOL     OW27466   2.177   2.555   2.226 -0.3923  0.0579 -0.2553
 8856SOL    HW127467   2.136   2.612   2.297 -0.0404  0.2800 -0.2326
 8856SOL    HW227468   2.168   2.600   2.137  2.3230  1.4876  0.0975
 8857SOL     OW27469   3.117   0.188   1.192 -0.2801  0.1549 -0.0888
 8857SOL    HW127470   3.200   0.156   1.237 -0.6061 -0.5234  0.0533
 8857SOL    HW227471   3.140   0.248   1.116  0.3356 -0.0067 -0.0308
 8858SOL     OW27472   5.225   2.121   3.408  0.1996  0.1951  0.3666
 8858SOL    HW127473   5.211   2.028   3.374 -0.1087 -0.0786  1.1968
 8858SOL    HW227474   5.234   2.118   3.508  0.3349  1.0427  0.3836
 8859SOL     OW27475   2.057   1.794   5.975 -0.0134  0.5177 -0.2861
 8859SOL    HW127476   2.005   1.842   6.046 -0.0917 -0.6887  0.5055
 8859SOL    HW227477   2.075   1.856   5.899 -2.8400  0.8971 -0.7208
 8860SOL     OW27478   5.928   0.515   3.435 -0.1932  0.8438  0.0514
 8860SOL    HW127479   5.887   0.532   3.525  1.9130 -0.5298  1.3324
 8860SOL    HW227480   6.016   0.470   3.446 -0.6769 -1.0539 -2.7861
 8861SOL     OW27481   6.128   5.650   1.370 -0.4054  0.6248  0.0149
 8861SOL    HW127482   6.226   5.639   1.386 -0.1835 -2.2594 -2.3920
 8861SOL    HW227483   6.078   5.587   1.430 -0.6105  0.6314 -0.1487
 8862SOL     OW27484   2.665   6.905   3.800  0.1615  0.2095 -0.2667
 8862SOL    HW127485   2.727   6.839   3.758  0.6181  1.0797 -1.0032
 8862SOL    HW227486   2.590   6.924   3.737 -0.5911 -0.4646  0.4180
 8863SOL     OW27487   1.098   6.276   1.502 -0.5542  0.3066  0.0781
 8863SOL    HW127488   1.122   6.240   1.413 -2.9484 -1.2826 -0.0254
 8863SOL    HW227489   1.071   6.201   1.563  0.7854  1.3574  2.1012
 8864SOL     OW27490   5.019   0.409   3.086 -0.2945  0.0126  0.1504
 8864SOL    HW127491   4.979   0.320   3.066  1.6087 -0.5484 -1.6199
 8864SOL    HW227492   4.980   0.477   3.024  0.0798 -0.1408 -0.2623
 8865SOL     OW27493   5.866   2.839   2.360  0.5193  0.0921 -0.1006
 8865SOL    HW127494   5.895   2.931   2.384  1.5868  0.0606 -1.1627
 8865SOL    HW227495   5.852   2.785   2.444  0.0531  1.1462  0.5184
 8866SOL     OW27496   6.140   6.421   6.625  0.2933 -0.5269 -0.3827
 8866SOL    HW127497   6.167   6.336   6.669  0.5901  0.3525  1.2318
 8866SOL    HW227498   6.134   6.494   6.694  0.6584  0.9082 -1.8012
 8867SOL     OW27499   5.588   2.790   1.297 -0.1536  0.3998  0.3389
 8867SOL    HW127500   5.583   2.793   1.397  0.0513  2.0932  0.3305
 8867SOL    HW227501   5.575   2.882   1.260 -0.1122 -0.1799 -1.2004
 8868SOL     OW27502   4.715   6.994   5.840 -0.6935  0.6861 -0.5588
 8868SOL    HW127503   4.780   6.928   5.879 -0.5121  2.3360  2.1612
 8868SOL    HW227504   4.762   7.050   5.772  0.6149  1.4041  0.8679
 8869SOL     OW27505   4.839   2.877   3.395  0.2081 -0.1459  0.1075
 8869SOL    HW127506   4.832   2.967   3.352  2.2044 -0.8458 -1.8872
 8869SOL    HW227507   4.782   2.812   3.345 -0.2482 -0.2636  0.7677
 8870SOL     OW27508   0.127   1.651   2.178 -0.0053 -0.1686  0.2854
 8870SOL    HW127509   0.047   1.646   2.238 -0.7022  2.0599 -0.3703
 8870SOL    HW227510   0.168   1.742   2.185  0.5510 -0.2109 -1.7756
 8871SOL     OW27511   5.502   5.447   5.658  0.1256 -0.2217 -0.0780
 8871SOL    HW127512   5.569   5.515   5.627  0.3506 -0.6967 -0.6597
 8871SOL    HW227513   5.423   5.448   5.596 -0.9806  1.1848  1.2968
 8872SOL     OW27514   5.362   3.028   1.775 -0.2106 -0.6901 -0.0832
 8872SOL    HW127515   5.311   2.961   1.721 -0.2110 -0.9146  0.1887
 8872SOL    HW227516   5.396   3.101   1.716 -0.4080 -0.8116 -0.3458
 8873SOL     OW27517   5.935   1.256   6.186 -0.2058  0.4019  0.7108
 8873SOL    HW127518   5.989   1.191   6.132 -0.4137  2.4034 -2.1609
 8873SOL    HW227519   5.843   1.219   6.201 -0.3167 -0.0366 -0.8446
 8874SOL     OW27520   2.936   2.267   6.620  0.3373  0.4234 -0.5289
 8874SOL    HW127521   2.838   2.251   6.634  0.9041 -1.8123  1.7568
 8874SOL    HW227522   2.972   2.320   6.697  1.1502  0.1286 -0.6969
 8875SOL     OW27523   1.954   0.392   4.837  0.1014  0.2050  0.1254
 8875SOL    HW127524   1.927   0.416   4.744 -0.4637 -0.6625  0.0564
 8875SOL    HW227525   1.876   0.353   4.886  0.7702 -0.7535  0.4679
 8876SOL     OW27526   2.809   7.006   1.762  0.1772  0.6126 -0.5978
 8876SOL    HW127527   2.716   7.011   1.799  0.4838  0.8526  0.1611
 8876SOL    HW227528   2.822   6.919   1.715  0.0488 -0.0936  0.6292
 8877SOL     OW27529   5.184   4.176   0.490  0.4688  0.0877 -0.5173
 8877SOL    HW127530   5.136   4.141   0.570  0.0622  0.2043 -0.7088
 8877SOL    HW227531   5.176   4.111   0.415  0.4853  0.1743 -0.5944
 8878SOL     OW27532   1.798   4.708   5.602 -0.1111  0.0166  0.2816
 8878SOL    HW127533   1.721   4.769   5.585 -0.1226 -0.1497 -0.2800
 8878SOL    HW227534   1.842   4.685   5.515  1.0209  0.6919  0.6561
 8879SOL     OW27535   1.761   0.970   6.636 -0.2361 -0.1607 -0.0334
 8879SOL    HW127536   1.679   1.007   6.593 -0.0398 -1.0890 -1.2762
 8879SOL    HW227537   1.748   0.967   6.735 -2.2206 -1.4346 -0.2696
 8880SOL     OW27538   6.413   1.419   0.543 -0.1009  0.1247 -0.4774
 8880SOL    HW127539   6.356   1.439   0.623 -0.2525 -1.8166 -0.0586
 8880SOL    HW227540   6.504   1.390   0.574 -0.3567 -1.2491 -0.9686
 8881SOL     OW27541   4.009   0.097   0.330 -0.2732  0.3292 -0.5068
 8881SOL    HW127542   3.923   0.120   0.375  0.4015 -0.9024  1.5511
 8881SOL    HW227543   4.070   0.052   0.395  0.9838 -1.1499 -2.5694
 8882SOL     OW27544   4.781   5.256   0.526  0.2610 -0.2660 -0.8819
 8882SOL    HW127545   4.833   5.342   0.520 -0.3843  0.2668  0.6544
 8882SOL    HW227546   4.844   5.179   0.534  0.8565  0.0126 -2.4223
 8883SOL     OW27547   6.455   4.134   5.041 -0.9132  0.9983  0.5829
 8883SOL    HW127548   6.488   4.129   5.135  1.5481  0.8715 -0.2180
 8883SOL    HW227549   6.355   4.131   5.041 -0.9575 -0.8007  3.0591
 8884SOL     OW27550   2.098   5.310   0.897 -0.2925 -0.5571  0.2114
 8884SOL    HW127551   2.026   5.247   0.867 -0.2496 -0.5334  0.0597
 8884SOL    HW227552   2.128   5.284   0.988 -0.1702 -0.8469  0.0887
 8885SOL     OW27553   5.719   5.005   5.389  0.0150  0.3191  0.1840
 8885SOL    HW127554   5.666   5.028   5.307 -1.1660 -1.2538  0.4433
 8885SOL    HW227555   5.701   4.909   5.413  3.5785 -0.5479 -0.1335
 8886SOL     OW27556   6.948   5.741   1.487  0.2676  0.1030 -0.0378
 8886SOL    HW127557   7.016   5.693   1.541  0.0034 -0.0193  0.1876
 8886SOL    HW227558   6.910   5.680   1.418  0.6320  0.2691 -0.3893
 8887SOL     OW27559   5.006   6.435   4.020  0.2103 -0.2705 -0.2322
 8887SOL    HW127560   5.078   6.452   3.953  1.8378 -0.9451  1.2759
 8887SOL    HW227561   5.004   6.338   4.044 -0.7130 -0.1349  0.3118
 8888SOL     OW27562   4.154   3.497   5.578  0.8308 -0.0757  0.0299
 8888SOL    HW127563   4.166   3.398   5.565  2.3832  0.2645 -1.4105
 8888SOL    HW227564   4.057   3.516   5.593  0.3253 -1.7107 -0.8783
 8889SOL     OW27565   0.473   1.569   6.873  0.0312 -0.0947  0.8188
 8889SOL    HW127566   0.564   1.554   6.911  0.1581 -0.7920  0.2546
 8889SOL    HW227567   0.479   1.568   6.773 -0.7068 -0.8255  0.7757
 8890SOL     OW27568   1.031   1.847   6.241 -0.0461 -0.1635 -0.3051
 8890SOL    HW127569   0.947   1.870   6.192 -1.9612 -1.8498  1.9462
 8890SOL    HW227570   1.041   1.908   6.320  0.0846 -0.8528  0.2171
 8891SOL     OW27571   3.880   0.369   1.852  0.1810  0.2524  0.3002
 8891SOL    HW127572   3.790   0.363   1.809  0.9859 -1.3833 -1.3025
 8891SOL    HW227573   3.951   0.371   1.781  1.4618  0.4737  1.5348
 8892SOL     OW27574   6.722   2.194   0.305  0.4075 -0.4527 -0.0346
 8892SOL    HW127575   6.782   2.255   0.358  0.7816 -0.1896 -0.7421
 8892SOL    HW227576   6.710   2.108   0.354  0.2981 -0.0107  0.7356
 8893SOL     OW27577   4.824   2.859   6.935  0.8645  0.7183  0.2033
 8893SOL    HW127578   4.738   2.866   6.884  0.8013 -0.2738  0.1621
 8893SOL    HW227579   4.901   2.857   6.871  0.7746 -0.7256  0.1068
 8894SOL     OW27580   2.558   2.465   2.083 -0.0384  0.0551  0.2247
 8894SOL    HW127581   2.491   2.410   2.034  0.0131  2.0062 -2.2605
 8894SOL    HW227582   2.647   2.455   2.038  0.6417 -0.0775  1.5603
 8895SOL     OW27583   4.976   0.333   5.107  0.0616  0.3407 -0.3582
 8895SOL    HW127584   4.943   0.253   5.058  1.2409  0.1055 -0.7860
 8895SOL    HW227585   4.903   0.402   5.111 -1.6248 -1.4424  1.6739
 8896SOL     OW27586   2.117   0.704   5.969 -0.5315 -0.2302 -0.0212
 8896SOL    HW127587   2.150   0.638   5.902 -2.0615  1.5923 -2.7291
 8896SOL    HW227588   2.184   0.777   5.981  0.1583 -1.0359  1.2368
 8897SOL     OW27589   6.220   2.340   3.877 -0.1905  0.2319 -0.2922
 8897SOL    HW127590   6.164   2.421   3.860 -0.9704 -0.0272  0.9395
 8897SOL    HW227591   6.162   2.259   3.878  0.1529 -0.0240  1.1669
 8898SOL     OW27592   1.724   3.994   6.719  0.2129  0.1932 -0.4959
 8898SOL    HW127593   1.728   4.076   6.662  1.8276  1.4177  1.2531
 8898SOL    HW227594   1.807   3.988   6.775 -1.0577 -1.1909  1.3668
 8899SOL     OW27595   0.955   5.323   2.699  0.3568  0.0722 -0.2012
 8899SOL    HW127596   0.888   5.273   2.754  1.8753 -1.4987  0.3205
 8899SOL    HW227597   0.962   5.280   2.609  2.7461 -1.7188  0.7503
 8900SOL     OW27598   6.459   5.279   3.344 -0.1182  0.4966  0.5618
 8900SOL    HW127599   6.559   5.289   3.341 -0.0689 -0.2365 -1.3210
 8900SOL    HW227600   6.418   5.347   3.283 -0.7055  0.0743  0.4906
 8901SOL     OW27601   3.544   3.461   1.897  0.3748 -0.1696 -0.0474
 8901SOL    HW127602   3.553   3.555   1.866 -2.4842  0.5068  0.8213
 8901SOL    HW227603   3.552   3.458   1.997  0.7165 -0.8865 -0.0904
 8902SOL     OW27604   3.867   3.060   4.969 -0.2482  0.4318  0.0909
 8902SOL    HW127605   3.919   3.111   4.900  0.6102  0.1080  0.4795
 8902SOL    HW227606   3.779   3.032   4.931  0.5250 -0.4231 -1.1387
 8903SOL     OW27607   5.613   0.586   2.854  0.4220 -0.2530 -0.2765
 8903SOL    HW127608   5.675   0.524   2.804 -0.0214 -0.2175 -0.8849
 8903SOL    HW227609   5.589   0.663   2.795  0.3136  0.0718  0.1875
 8904SOL     OW27610   0.749   6.521   3.094 -0.2451 -0.0768  0.0492
 8904SOL    HW127611   0.741   6.616   3.125 -0.2120 -0.0059 -0.1573
 8904SOL    HW227612   0.845   6.501   3.073 -0.3202 -0.0062 -0.3756
 8905SOL     OW27613   3.677   4.132   0.182 -0.4411  0.2614 -0.3554
 8905SOL    HW127614   3.699   4.035   0.192 -0.0433  0.2251 -1.4384
 8905SOL    HW227615   3.755   4.187   0.211 -0.0709  0.2058 -1.2053
 8906SOL     OW27616   2.566   0.537   3.453 -0.6041  0.3550  0.2020
 8906SOL    HW127617   2.596   0.575   3.365 -1.2957 -0.0861 -0.2338
 8906SOL    HW227618   2.639   0.547   3.520  1.0394 -1.7563 -1.1245
 8907SOL     OW27619   5.559   4.905   3.979  0.4647  0.1072  0.7547
 8907SOL    HW127620   5.492   4.904   4.053 -0.6689 -0.5160 -0.2532
 8907SOL    HW227621   5.606   4.994   3.977 -2.6202  1.8839 -0.5053
 8908SOL     OW27622   3.141   1.917   4.864  0.8605  0.0785 -0.2040
 8908SOL    HW127623   3.204   1.991   4.890 -0.5451  1.0263  0.6689
 8908SOL    HW227624   3.051   1.956   4.847  0.0912 -1.4498  0.2764
 8909SOL     OW27625   0.461   0.762   5.216  0.3998 -0.8337  0.1722
 8909SOL    HW127626   0.546   0.722   5.183  0.5242 -0.5697  0.1705
 8909SOL    HW227627   0.400   0.779   5.139  0.1773 -1.4141  0.2187
 8910SOL     OW27628   4.812   0.345   6.758  0.3708  0.4793 -0.0181
 8910SOL    HW127629   4.830   0.348   6.660 -0.9215 -0.0837 -0.2945
 8910SOL    HW227630   4.848   0.427   6.801  0.9907  0.7155 -0.9597
 8911SOL     OW27631   1.165   3.490   0.832 -0.2023 -0.3691  0.8616
 8911SOL    HW127632   1.126   3.573   0.794  1.6122 -0.7963 -2.2866
 8911SOL    HW227633   1.104   3.413   0.815 -0.3003 -0.2302  0.5821
 8912SOL     OW27634   3.852   2.993   2.474  0.2945  0.2458 -0.5488
 8912SOL    HW127635   3.933   3.042   2.504  1.1724 -0.9020 -0.9431
 8912SOL    HW227636   3.814   2.940   2.550 -0.5799  1.4034 -0.1560
 8913SOL     OW27637   6.081   4.680   1.229 -0.0178  0.5816  0.0800
 8913SOL    HW127638   6.053   4.607   1.168  0.5741  1.8070 -1.7632
 8913SOL    HW227639   6.001   4.733   1.258 -0.4978 -0.9725  1.7660
 8914SOL     OW27640   0.966   3.608   4.577  0.0782 -0.0457  0.2820
 8914SOL    HW127641   1.001   3.517   4.601 -1.7441 -0.7349  0.4606
 8914SOL    HW227642   0.930   3.652   4.659 -4.0726 -1.4725 -0.5639
 8915SOL     OW27643   1.900   0.540   3.763 -0.4043  0.3826 -0.0984
 8915SOL    HW127644   1.947   0.603   3.702 -0.9435  1.0687  0.1743
 8915SOL    HW227645   1.855   0.592   3.836 -0.4651 -0.3588  0.3992
 8916SOL     OW27646   6.036   1.982   1.006  0.1084 -0.3334  0.4411
 8916SOL    HW127647   6.097   1.950   1.078  0.0153  0.3402  0.8253
 8916SOL    HW227648   6.039   2.082   1.001 -1.0683 -0.2771  0.5590
 8917SOL     OW27649   0.030   2.230   6.023  0.1941 -0.1768 -0.1499
 8917SOL    HW127650   0.108   2.270   5.974 -0.8102  1.6057 -0.3718
 8917SOL    HW227651   0.012   2.283   6.105 -1.5433  0.2273 -0.7490
 8918SOL     OW27652   6.403   0.478   5.958  0.4583  0.1685 -0.5347
 8918SOL    HW127653   6.357   0.563   5.984 -0.8857 -0.8077  0.4440
 8918SOL    HW227654   6.502   0.492   5.961  0.2673  1.7633 -0.6857
 8919SOL     OW27655   1.779   0.463   6.478 -0.2792 -0.3285  0.2208
 8919SOL    HW127656   1.825   0.494   6.394 -0.3576 -1.9621 -0.4566
 8919SOL    HW227657   1.689   0.426   6.455 -1.5581  1.8202  1.4048
 8920SOL     OW27658   2.911   0.249   6.453 -0.3001  0.3718 -0.3136
 8920SOL    HW127659   2.934   0.152   6.444  0.6638  0.5580 -0.0373
 8920SOL    HW227660   2.832   0.271   6.396 -0.6239 -0.6070 -0.2545
 8921SOL     OW27661   5.003   6.137   4.562 -0.1227 -0.1627 -0.2581
 8921SOL    HW127662   5.006   6.224   4.512 -0.6190 -0.3613 -0.6352
 8921SOL    HW227663   5.026   6.062   4.500  1.0188 -0.2460  0.2328
 8922SOL     OW27664   2.532   2.139   2.152 -0.5822  0.1606  0.3498
 8922SOL    HW127665   2.486   2.131   2.241 -0.0049 -0.4236  0.6056
 8922SOL    HW227666   2.621   2.184   2.166 -0.4612  0.0032  0.0804
 8923SOL     OW27667   0.346   6.273   1.739 -0.0114  0.4109 -0.1092
 8923SOL    HW127668   0.421   6.276   1.804  0.2604 -1.0928 -0.3165
 8923SOL    HW227669   0.382   6.260   1.646 -0.4526  1.1921 -0.3978
 8924SOL     OW27670   0.563   6.152   6.788  0.1380  0.1708  0.3044
 8924SOL    HW127671   0.616   6.205   6.722  0.4213 -1.1093 -0.5450
 8924SOL    HW227672   0.614   6.144   6.874 -0.0696  1.5380  0.5739
 8925SOL     OW27673   5.884   4.096   0.271  0.1816 -0.0894 -0.4768
 8925SOL    HW127674   5.920   4.005   0.251 -0.1810 -0.5619  0.8953
 8925SOL    HW227675   5.857   4.101   0.367 -0.0943  1.3785 -0.6037
 8926SOL     OW27676   3.194   3.871   0.817 -0.6700 -0.3710  0.7945
 8926SOL    HW127677   3.291   3.880   0.840 -0.3552  0.3608 -0.6510
 8926SOL    HW227678   3.186   3.834   0.724 -1.7705 -0.2296  0.8256
 8927SOL     OW27679   2.986   0.768   6.076 -0.0564 -0.0349 -0.0062
 8927SOL    HW127680   2.920   0.837   6.105  0.7057  0.9904 -0.6565
 8927SOL    HW227681   3.024   0.722   6.156  2.2675  2.9613  0.8089
 8928SOL     OW27682   4.452   2.621   1.195 -0.1915 -0.3036  0.3784
 8928SOL    HW127683   4.483   2.584   1.108  1.0225  1.3835  0.0296
 8928SOL    HW227684   4.515   2.593   1.267  0.7044  0.9335  0.1209
 8929SOL     OW27685   0.648   1.113   2.241 -0.0003  0.4044  0.2948
 8929SOL    HW127686   0.709   1.192   2.254 -1.0661  1.5619 -1.3094
 8929SOL    HW227687   0.575   1.117   2.309 -0.1663  0.9471  0.0960
 8930SOL     OW27688   2.696   5.450   1.376  0.3649 -0.0710 -0.0102
 8930SOL    HW127689   2.722   5.512   1.302  0.3829 -0.4244 -0.3042
 8930SOL    HW227690   2.747   5.472   1.459  0.5504  0.1472 -0.1848
 8931SOL     OW27691   4.376   5.937   6.008 -0.1699 -0.1115 -0.7070
 8931SOL    HW127692   4.475   5.930   5.997 -0.1938 -0.6033 -0.6395
 8931SOL    HW227693   4.339   5.848   6.033 -0.6730 -0.0070 -1.0622
 8932SOL     OW27694   2.915   4.903   5.919 -0.4587  0.1595 -0.5353
 8932SOL    HW127695   2.865   4.929   6.001  0.4111 -0.6873  0.2914
 8932SOL    HW227696   3.007   4.942   5.922  0.3927 -1.7761  0.0614
 8933SOL     OW27697   0.910   0.879   0.911 -0.4043 -0.0530  0.1871
 8933SOL    HW127698   0.839   0.887   0.982 -0.7066 -1.8054  0.1432
 8933SOL    HW227699   0.866   0.875   0.821 -0.4670 -2.6919  0.2446
 8934SOL     OW27700   3.355   5.643   2.490 -0.4645 -0.2347  0.4466
 8934SOL    HW127701   3.438   5.598   2.522 -0.6944 -0.5579  0.5898
 8934SOL    HW227702   3.339   5.726   2.544 -1.7746 -1.6545  2.3604
 8935SOL     OW27703   1.088   6.175   4.810 -0.4083 -0.0263 -0.0265
 8935SOL    HW127704   1.036   6.095   4.838  0.3095 -0.5335 -0.1179
 8935SOL    HW227705   1.033   6.257   4.824 -0.8433 -0.4577  0.8688
 8936SOL     OW27706   5.663   5.642   2.537 -0.4200  0.4563 -0.1905
 8936SOL    HW127707   5.618   5.634   2.448 -1.3797  1.3140  0.1896
 8936SOL    HW227708   5.670   5.552   2.579 -1.9072  0.2945 -0.2286
 8937SOL     OW27709   5.348   0.944   6.165  0.2224 -0.5530 -1.0860
 8937SOL    HW127710   5.282   0.909   6.232  2.0691 -1.8637  0.1587
 8937SOL    HW227711   5.386   1.030   6.199  0.0826 -0.4557 -1.1764
 8938SOL     OW27712   5.285   5.793   3.536 -0.0380 -0.1586 -0.2032
 8938SOL    HW127713   5.256   5.799   3.440  0.0688 -0.6318 -0.2699
 8938SOL    HW227714   5.212   5.826   3.595 -0.9256 -1.7509 -0.3472
 8939SOL     OW27715   5.878   2.424   3.374  0.3639  0.3593 -0.2848
 8939SOL    HW127716   5.944   2.427   3.449 -0.1696  1.9942  0.1499
 8939SOL    HW227717   5.841   2.516   3.357 -2.7296 -0.6318  0.3298
 8940SOL     OW27718   6.159   0.744   5.379 -0.2466 -0.0201 -0.1536
 8940SOL    HW127719   6.137   0.690   5.461  1.0892 -2.4544 -1.2862
 8940SOL    HW227720   6.256   0.734   5.358 -0.8637 -0.9789 -3.0123
 8941SOL     OW27721   6.862   4.270   5.978  0.3297 -0.1241  0.2106
 8941SOL    HW127722   6.844   4.173   5.992 -1.7577  0.1226 -0.4237
 8941SOL    HW227723   6.932   4.300   6.043 -0.2028 -1.6786  1.5925
 8942SOL     OW27724   5.807   1.008   6.617  0.1642 -0.4182 -0.0104
 8942SOL    HW127725   5.767   1.092   6.580  0.1805  0.3304  1.6025
 8942SOL    HW227726   5.860   1.030   6.699  0.4944 -1.9687  0.2137
 8943SOL     OW27727   2.323   2.159   5.783  0.4384  0.4426 -0.1939
 8943SOL    HW127728   2.418   2.161   5.815  0.8520  0.6494 -1.3915
 8943SOL    HW227729   2.317   2.198   5.691 -0.6657 -0.3569 -0.4942
 8944SOL     OW27730   1.474   1.631   5.345  0.0229  0.1897  0.3357
 8944SOL    HW127731   1.553   1.572   5.330 -0.3900  0.1066 -1.8468
 8944SOL    HW227732   1.398   1.577   5.381  0.0353 -0.3722 -0.4567
 8945SOL     OW27733   2.954   0.923   3.374 -0.3002  0.5426  0.4178
 8945SOL    HW127734   2.996   0.843   3.418 -0.5237 -0.0110 -0.3601
 8945SOL    HW227735   2.992   1.007   3.414 -0.4257  0.0563  1.5943
 8946SOL     OW27736   2.566   0.182   2.879  0.0516 -0.6026  0.1073
 8946SOL    HW127737   2.651   0.214   2.922  0.3025 -0.2021 -0.6682
 8946SOL    HW227738   2.526   0.109   2.935 -0.6739  1.2140  2.0684
 8947SOL     OW27739   1.016   1.369   6.332  0.1491  0.1729 -0.4411
 8947SOL    HW127740   0.964   1.452   6.315 -0.2653 -0.1524 -0.7709
 8947SOL    HW227741   1.111   1.382   6.302 -0.0762  0.3027 -1.0945
 8948SOL     OW27742   0.521   2.147   4.405 -0.9389 -0.1418 -0.1750
 8948SOL    HW127743   0.489   2.239   4.426  0.1238  0.2997 -0.3899
 8948SOL    HW227744   0.546   2.143   4.308  0.8164 -0.0683  0.2355
 8949SOL     OW27745   4.583   5.596   6.871  0.1443  0.2768  0.0242
 8949SOL    HW127746   4.536   5.681   6.894 -1.4863 -1.2269  2.8167
 8949SOL    HW227747   4.647   5.572   6.944  0.7426 -0.7689 -0.8193
 8950SOL     OW27748   3.640   1.387   4.656  0.1356  0.3374  0.4791
 8950SOL    HW127749   3.572   1.451   4.619 -0.2402 -0.4165 -0.1683
 8950SOL    HW227750   3.617   1.294   4.627  1.5393  0.0889  0.1077
 8951SOL     OW27751   3.420   0.684   2.088  0.2041  0.2589 -0.0281
 8951SOL    HW127752   3.485   0.672   2.163  1.6964 -0.3514 -1.3575
 8951SOL    HW227753   3.469   0.717   2.007 -1.1179 -0.3946 -1.1251
 8952SOL     OW27754   1.997   5.979   2.167 -0.0768  0.1094  0.2075
 8952SOL    HW127755   2.077   6.028   2.200 -1.4639  1.3755  1.8817
 8952SOL    HW227756   1.914   6.031   2.189 -1.4506 -1.6982 -0.4061
 8953SOL     OW27757   5.643   5.596   6.064 -0.3846 -0.0303  0.7907
 8953SOL    HW127758   5.650   5.654   5.983  0.3380 -1.3118 -0.0999
 8953SOL    HW227759   5.575   5.524   6.048  1.3356 -1.6376  0.4135
 8954SOL     OW27760   2.982   1.694   0.573 -0.1961 -0.3689  0.1999
 8954SOL    HW127761   3.006   1.649   0.658  0.7213 -1.6756 -0.7150
 8954SOL    HW227762   2.968   1.626   0.501  1.6015  0.7653 -1.3319
 8955SOL     OW27763   6.810   6.404   5.806 -0.1960  0.2740  0.0296
 8955SOL    HW127764   6.896   6.442   5.772  0.7506 -0.3951  1.5737
 8955SOL    HW227765   6.809   6.409   5.906 -2.6946  1.8071  0.0040
 8956SOL     OW27766   0.063   4.541   0.116  0.3133 -0.4966 -0.6255
 8956SOL    HW127767   0.092   4.451   0.085 -0.7141 -1.5103  1.2282
 8956SOL    HW227768   0.118   4.569   0.194 -2.2304 -1.6228  1.7417
 8957SOL     OW27769   1.899   1.307   3.914 -0.1564  0.2474 -0.5306
 8957SOL    HW127770   1.933   1.317   3.820  0.0316 -0.6924 -0.5665
 8957SOL    HW227771   1.973   1.328   3.978  0.0448 -0.2268 -0.6033
 8958SOL     OW27772   1.799   0.073   1.726  0.0496 -0.4929  0.5520
 8958SOL    HW127773   1.828   0.021   1.645  2.8429  1.7899 -0.1041
 8958SOL    HW227774   1.715   0.123   1.705  0.7608  0.1088 -1.0438
 8959SOL     OW27775   0.127   5.290   2.781 -0.4878  0.0222  0.5114
 8959SOL    HW127776   0.162   5.307   2.689 -0.2378 -1.1969  0.3711
 8959SOL    HW227777   0.110   5.378   2.827  0.6600  0.6359 -0.2011
 8960SOL     OW27778   4.274   4.515   1.823  0.0799  0.4053  0.4331
 8960SOL    HW127779   4.239   4.505   1.916  0.3292  0.1994  0.5073
 8960SOL    HW227780   4.220   4.583   1.774 -0.0100  0.5642  0.7495
 8961SOL     OW27781   5.550   6.615   4.594  0.4555 -0.4221 -0.2975
 8961SOL    HW127782   5.494   6.542   4.633  0.3916 -0.5787 -0.6785
 8961SOL    HW227783   5.553   6.605   4.495  0.6012 -0.0141 -0.3348
 8962SOL     OW27784   5.482   2.615   6.835  0.1528  0.0914  0.2837
 8962SOL    HW127785   5.499   2.520   6.860 -0.6504  0.1653  1.1671
 8962SOL    HW227786   5.422   2.657   6.903 -0.1252  1.0059 -0.5039
 8963SOL     OW27787   3.259   6.807   6.904  0.4144  0.3284  0.1533
 8963SOL    HW127788   3.263   6.847   6.812 -0.5762 -1.4116 -0.7016
 8963SOL    HW227789   3.232   6.878   6.970  0.9098  1.5570 -0.9090
 8964SOL     OW27790   1.801   0.213   5.200  0.1008 -0.1995 -0.3390
 8964SOL    HW127791   1.757   0.260   5.123  0.1962 -0.0953 -0.3302
 8964SOL    HW227792   1.892   0.251   5.215  0.6070 -1.1180 -1.0158
 8965SOL     OW27793   4.099   3.736   4.882 -0.7136  0.0280 -0.0290
 8965SOL    HW127794   4.147   3.724   4.969 -0.3523 -0.9507 -0.3402
 8965SOL    HW227795   4.023   3.800   4.893 -0.0472  0.6907  0.7530
 8966SOL     OW27796   3.687   2.013   5.449 -0.0680  0.3449  0.3622
 8966SOL    HW127797   3.680   1.924   5.405  2.7741  0.6943 -1.0090
 8966SOL    HW227798   3.694   2.084   5.379 -1.1701  1.5735  1.4417
 8967SOL     OW27799   7.001   1.644   0.237  0.1541 -0.3793  0.0961
 8967SOL    HW127800   7.016   1.548   0.260  0.7469 -0.5631 -0.9815
 8967SOL    HW227801   7.090   1.690   0.227 -0.0995 -0.0434 -0.6728
 8968SOL     OW27802   6.643   4.579   3.763  0.1336  0.0379  0.0302
 8968SOL    HW127803   6.631   4.668   3.806  0.8196 -0.2447  0.8369
 8968SOL    HW227804   6.741   4.565   3.743  0.8128 -2.3339  4.0154
 8969SOL     OW27805   0.516   4.308   2.032  0.1138 -0.2881 -0.5571
 8969SOL    HW127806   0.494   4.272   2.122  0.5336  1.0472  0.1050
 8969SOL    HW227807   0.472   4.252   1.962  0.9224 -2.1793  0.3888
 8970SOL     OW27808   1.820   6.570   6.090 -0.0222 -0.1273 -0.3121
 8970SOL    HW127809   1.755   6.598   6.019  0.5527  0.2842 -0.6931
 8970SOL    HW227810   1.910   6.608   6.068  0.1902 -0.1073  0.5740
 8971SOL     OW27811   4.696   5.251   5.670 -0.2587 -0.6079  0.1978
 8971SOL    HW127812   4.722   5.299   5.754  0.0486 -0.0105 -0.2258
 8971SOL    HW227813   4.730   5.157   5.673 -0.3126 -0.6145  0.7673
 8972SOL     OW27814   3.270   3.231   4.620  0.0407  0.0530 -0.5042
 8972SOL    HW127815   3.208   3.169   4.572 -1.0189  0.7122 -0.0460
 8972SOL    HW227816   3.283   3.314   4.565  1.6195 -0.6275 -1.2121
 8973SOL     OW27817   2.729   3.420   5.635  0.2229 -0.1029 -0.4943
 8973SOL    HW127818   2.826   3.423   5.612  0.7832  0.9882  1.7591
 8973SOL    HW227819   2.708   3.333   5.680 -0.1861 -0.9014 -2.1451
 8974SOL     OW27820   3.605   1.345   6.121  0.0370 -0.8941 -0.1638
 8974SOL    HW127821   3.524   1.321   6.068  0.4618 -2.5955 -0.0989
 8974SOL    HW227822   3.598   1.305   6.212  0.3363  0.1201  0.3178
 8975SOL     OW27823   0.328   2.461   2.121  0.0432  0.1565 -0.6802
 8975SOL    HW127824   0.304   2.410   2.204 -0.9935  0.5931 -0.6909
 8975SOL    HW227825   0.417   2.506   2.133 -0.6870  1.3205  0.7390
 8976SOL     OW27826   1.864   1.268   0.261 -0.3443 -0.2139  0.1043
 8976SOL    HW127827   1.765   1.256   0.259 -0.1868 -1.7284 -1.0415
 8976SOL    HW227828   1.895   1.306   0.174  0.1277 -0.2866  0.2337
 8977SOL     OW27829   2.678   1.052   6.841 -0.1283  0.2844  1.1248
 8977SOL    HW127830   2.621   1.126   6.879  0.3713  0.7020  1.0641
 8977SOL    HW227831   2.659   0.968   6.892 -2.6813 -0.2413 -0.4939
 8978SOL     OW27832   0.931   6.737   3.818  0.2331  0.5403 -0.1028
 8978SOL    HW127833   0.950   6.829   3.784  1.0063  0.0402 -1.0814
 8978SOL    HW227834   0.935   6.737   3.918 -2.3224  2.0931  0.0963
 8979SOL     OW27835   3.158   5.255   4.892 -0.1426 -0.1234 -0.4834
 8979SOL    HW127836   3.238   5.199   4.913 -0.3254 -0.3161 -0.2903
 8979SOL    HW227837   3.089   5.199   4.845 -1.1932 -0.6504  1.5630
 8980SOL     OW27838   2.539   2.781   5.744  0.2780  0.1253 -0.0428
 8980SOL    HW127839   2.629   2.772   5.786 -0.8643  0.3773  2.6588
 8980SOL    HW227840   2.510   2.876   5.747 -1.5286 -0.4076  2.5734
 8981SOL     OW27841   3.985   3.871   3.513 -0.1698 -0.0949  0.3575
 8981SOL    HW127842   3.968   3.793   3.573 -1.3781 -0.8587 -0.9087
 8981SOL    HW227843   3.972   3.956   3.564 -1.2733 -0.7185  1.1753
 8982SOL     OW27844   0.405   6.974   4.297 -0.2948  0.4993  0.4130
 8982SOL    HW127845   0.374   6.946   4.206 -0.3325  0.6811  0.3689
 8982SOL    HW227846   0.325   6.987   4.357 -0.2640  0.2760  0.5024
 8983SOL     OW27847   5.984   0.028   3.001  0.2058  0.2926  0.0729
 8983SOL    HW127848   6.024   0.118   3.019 -1.6045  1.4265 -1.2223
 8983SOL    HW227849   6.030  -0.015   2.923  0.5581  0.4566  0.1919
 8984SOL     OW27850   0.528   4.877   5.777 -0.0659 -0.2537 -0.2924
 8984SOL    HW127851   0.483   4.849   5.862 -1.3164  0.0341 -0.8325
 8984SOL    HW227852   0.515   4.806   5.708  1.6547 -0.8675 -0.0356
 8985SOL     OW27853   4.926   5.880   3.554 -0.5267 -0.3514 -0.0057
 8985SOL    HW127854   4.942   5.790   3.513 -1.0597 -0.4789  0.0583
 8985SOL    HW227855   5.013   5.919   3.585  0.2854  0.7245 -3.2546
 8986SOL     OW27856   1.222   3.825   4.961  0.0241  0.0043 -0.4876
 8986SOL    HW127857   1.268   3.746   5.002  3.6141  0.8227 -2.4562
 8986SOL    HW227858   1.240   3.906   5.016  2.2150  0.5420 -1.8515
 8987SOL     OW27859   3.993   5.340   3.617  0.4218  0.2079 -0.8386
 8987SOL    HW127860   4.009   5.260   3.559 -0.7186  1.2062 -2.6228
 8987SOL    HW227861   3.950   5.412   3.563 -1.3672  0.9678  1.4238
 8988SOL     OW27862   3.334   1.252   1.191  0.0772 -0.0638  0.3761
 8988SOL    HW127863   3.290   1.217   1.108 -1.9091  0.5369  1.1180
 8988SOL    HW227864   3.264   1.279   1.257  1.5459 -2.0007  2.9312
 8989SOL     OW27865   5.012   4.939   6.545 -0.3884  0.5992 -0.4061
 8989SOL    HW127866   5.092   4.990   6.512 -1.4622  2.1447 -0.7553
 8989SOL    HW227867   4.983   4.874   6.476  0.9306 -0.4398 -0.0142
 8990SOL     OW27868   4.901   2.791   1.847  0.2656  0.5517  0.2712
 8990SOL    HW127869   4.826   2.736   1.809  0.6401  0.1282  0.1383
 8990SOL    HW227870   4.979   2.790   1.785  0.1134  1.6389  0.0404
 8991SOL     OW27871   2.506   0.469   0.140  0.1751  0.0803  0.2864
 8991SOL    HW127872   2.517   0.464   0.040 -1.9010  1.4925 -0.0908
 8991SOL    HW227873   2.494   0.377   0.177 -0.3856 -0.3760 -0.9686
 8992SOL     OW27874   6.899   5.460   1.693  0.1869 -0.3747  0.6671
 8992SOL    HW127875   6.997   5.478   1.699  0.3416 -1.0538  0.2468
 8992SOL    HW227876   6.864   5.442   1.785  0.2361  0.8985  0.9641
 8993SOL     OW27877   0.967   1.238   1.249  0.3297 -0.1628  0.1376
 8993SOL    HW127878   0.971   1.291   1.164 -0.4914 -2.8089 -1.6890
 8993SOL    HW227879   0.875   1.244   1.288  0.3467  0.0358  0.1489
 8994SOL     OW27880   1.314   5.259   4.670 -0.2440  0.1074 -0.0329
 8994SOL    HW127881   1.232   5.226   4.624  0.0688  0.0182 -0.5296
 8994SOL    HW227882   1.316   5.223   4.764 -0.8445  0.2331  0.0318
 8995SOL     OW27883   1.009   4.486   1.872 -0.1180 -0.4597  0.2738
 8995SOL    HW127884   1.040   4.533   1.955  1.5312 -2.1933  0.7126
 8995SOL    HW227885   0.946   4.413   1.898 -3.0581  1.6524 -0.4393
 8996SOL     OW27886   5.586   4.340   1.489  0.3266 -0.8575 -0.2573
 8996SOL    HW127887   5.629   4.428   1.510  0.3206 -1.0574  0.6193
 8996SOL    HW227888   5.619   4.270   1.553 -0.2835 -1.3172 -0.4338
 8997SOL     OW27889   3.082   6.049   5.780  0.4946 -0.2042 -0.5111
 8997SOL    HW127890   2.988   6.030   5.811  0.6153 -0.8168 -0.5102
 8997SOL    HW227891   3.142   5.976   5.811  0.9016 -0.0224 -0.8711
 8998SOL     OW27892   1.219   1.443   2.841 -0.3564 -1.1310 -0.0195
 8998SOL    HW127893   1.228   1.457   2.742  0.3307 -2.7959 -0.2328
 8998SOL    HW227894   1.122   1.440   2.865 -0.6256  2.9482  0.0066
 8999SOL     OW27895   2.036   4.311   4.073 -0.1669  0.1777 -0.0723
 8999SOL    HW127896   1.979   4.334   4.152 -0.5801  1.4429 -0.7068
 8999SOL    HW227897   2.066   4.216   4.080 -0.6044  0.1199  1.3466
 9000SOL     OW27898   3.621   3.210   4.453 -0.4238 -0.1747 -0.1377
 9000SOL    HW127899   3.602   3.165   4.541 -1.4485  0.5575  0.0374
 9000SOL    HW227900   3.556   3.177   4.384  0.8238 -1.2715 -0.8290
 9001SOL     OW27901   5.065   3.470   4.536  0.0330  0.1098  0.7602
 9001SOL    HW127902   5.018   3.465   4.448 -0.0075 -1.0441  0.8249
 9001SOL    HW227903   4.997   3.467   4.610  0.0644  1.1131  0.8402
 9002SOL     OW27904   1.739   5.699   6.926 -0.3485 -0.3466  0.5685
 9002SOL    HW127905   1.813   5.641   6.893  2.7792  3.4771  0.1118
 9002SOL    HW227906   1.697   5.747   6.848 -1.9413 -0.9069  1.0406
 9003SOL     OW27907   1.319   6.642   4.671  0.0989 -0.3256 -0.1767
 9003SOL    HW127908   1.418   6.647   4.683 -0.0994 -1.6194  2.7207
 9003SOL    HW227909   1.296   6.568   4.607  0.9597 -0.3707 -0.4388
 9004SOL     OW27910   0.442   3.003   3.731 -0.3005  0.9443 -0.0200
 9004SOL    HW127911   0.529   3.051   3.735  1.3005 -1.7479  0.1844
 9004SOL    HW227912   0.407   3.004   3.638  2.5895 -2.0103 -1.3510
 9005SOL     OW27913   4.310   0.821   3.814 -0.0665 -0.0055 -0.0537
 9005SOL    HW127914   4.235   0.770   3.775 -0.1593  0.0235  0.0860
 9005SOL    HW227915   4.292   0.919   3.805  0.0133  0.0018 -0.1337
 9006SOL     OW27916   0.393   4.270   4.130  0.5284  0.1209 -0.3681
 9006SOL    HW127917   0.368   4.174   4.119  0.8326 -0.0515  0.4214
 9006SOL    HW227918   0.315   4.321   4.166  0.8079 -0.1198  0.6106
 9007SOL     OW27919   5.487   5.191   5.818  0.3880  0.3911 -0.2446
 9007SOL    HW127920   5.572   5.232   5.785  1.3419 -1.6116 -0.3871
 9007SOL    HW227921   5.429   5.167   5.740  1.0243 -0.9732 -0.3138
 9008SOL     OW27922   0.070   0.155   4.586 -0.5890 -0.3765  0.7235
 9008SOL    HW127923   0.109   0.154   4.678  0.8853 -1.6052  0.1354
 9008SOL    HW227924  -0.029   0.166   4.591 -0.5183 -0.2927  2.4387
 9009SOL     OW27925   5.612   3.585   1.493 -0.4591 -0.1973  0.1651
 9009SOL    HW127926   5.692   3.555   1.544  0.0091  1.3499  0.3908
 9009SOL    HW227927   5.555   3.644   1.551 -1.4099 -0.7298 -0.2066
 9010SOL     OW27928   3.550   5.807   5.372  0.4609  0.3858 -0.3807
 9010SOL    HW127929   3.528   5.711   5.354  1.1215  0.5148 -2.0371
 9010SOL    HW227930   3.490   5.843   5.444  0.5116 -1.3736  0.5886
 9011SOL     OW27931   6.429   3.457   3.266  0.0302  0.4415 -0.0236
 9011SOL    HW127932   6.376   3.400   3.330  0.7502  0.3544  0.5024
 9011SOL    HW227933   6.478   3.397   3.203  0.0812  0.5029 -0.0413
 9012SOL     OW27934   1.185   3.645   2.760  0.3459  0.4276 -0.4716
 9012SOL    HW127935   1.252   3.702   2.808 -0.9918  0.1451  1.8893
 9012SOL    HW227936   1.217   3.551   2.757 -0.5226 -0.0239  2.0636
 9013SOL     OW27937   3.378   4.013   1.010 -0.3582  0.2414 -0.3034
 9013SOL    HW127938   3.458   4.072   0.997 -0.4152  0.4906  0.4222
 9013SOL    HW227939   3.295   4.066   0.993 -0.3682 -0.2600 -1.9885
 9014SOL     OW27940   4.163   3.448   0.656  0.3218  0.3959  0.3260
 9014SOL    HW127941   4.071   3.461   0.619  0.2684  0.3757  0.4485
 9014SOL    HW227942   4.220   3.399   0.590  0.3610  0.7623  0.0864
 9015SOL     OW27943   1.322   5.157   3.797 -0.1040  0.1687  0.0177
 9015SOL    HW127944   1.342   5.209   3.714 -1.4610 -1.8967 -1.7065
 9015SOL    HW227945   1.403   5.105   3.825 -0.3232 -1.1442 -1.6143
 9016SOL     OW27946   2.232   4.222   1.265  0.6889 -0.2632  0.4836
 9016SOL    HW127947   2.148   4.265   1.232  0.6070 -0.5540  0.3051
 9016SOL    HW227948   2.288   4.194   1.186  0.4463 -1.0563  0.5769
 9017SOL     OW27949   2.861   2.902   1.397  0.3508 -0.3796  0.0835
 9017SOL    HW127950   2.950   2.935   1.429  0.5617 -0.0463 -0.8113
 9017SOL    HW227951   2.850   2.806   1.421  0.2631 -0.0182  1.6186
 9018SOL     OW27952   4.794   5.014   2.322  0.1826  0.0226 -0.2352
 9018SOL    HW127953   4.709   4.982   2.364  0.5505 -1.1317 -0.3440
 9018SOL    HW227954   4.869   5.003   2.387  0.3972  0.1836 -0.4571
 9019SOL     OW27955   5.031   1.942   4.560 -0.6312 -0.2305 -0.1609
 9019SOL    HW127956   5.051   1.991   4.645  2.2505 -2.1571  0.4322
 9019SOL    HW227957   4.971   1.865   4.580 -1.3768  0.3192 -0.2356
 9020SOL     OW27958   5.314   6.440   5.029 -0.0021 -0.7174  0.2084
 9020SOL    HW127959   5.286   6.359   5.079  0.0028 -0.4005  0.7317
 9020SOL    HW227960   5.233   6.490   4.998 -0.1341  1.0628  3.1095
 9021SOL     OW27961   2.328   6.665   0.637 -0.0140 -0.1966  0.3351
 9021SOL    HW127962   2.233   6.654   0.664 -0.1611 -0.7575 -0.3666
 9021SOL    HW227963   2.385   6.599   0.686 -0.2970 -1.2980 -0.7726
 9022SOL     OW27964   4.091   4.197   0.643  0.5764  0.4349 -0.1155
 9022SOL    HW127965   4.167   4.202   0.578 -0.3849 -1.1811 -1.4386
 9022SOL    HW227966   4.042   4.111   0.631 -1.5805  1.4897  0.5856
 9023SOL     OW27967   4.949   5.015   5.333  0.0800 -0.1884 -0.6644
 9023SOL    HW127968   5.044   4.990   5.350  0.8217  3.0071  0.5226
 9023SOL    HW227969   4.890   4.973   5.404  0.9013 -0.3584 -0.0683
 9024SOL     OW27970   1.812   6.866   3.536  0.6671  0.2971 -0.1025
 9024SOL    HW127971   1.764   6.933   3.593  2.4929  2.4343 -0.9093
 9024SOL    HW227972   1.831   6.784   3.589 -1.7668  0.3026  0.8917
 9025SOL     OW27973   5.296   4.465   1.964 -0.0313  0.0009 -0.1361
 9025SOL    HW127974   5.277   4.448   1.868 -0.0164  0.2304 -0.1802
 9025SOL    HW227975   5.352   4.391   2.001  3.0549  1.5974 -1.2220
 9026SOL     OW27976   2.057   3.319   1.461  0.2842  0.2079  0.2004
 9026SOL    HW127977   2.085   3.313   1.557  2.3713  0.9747 -0.3020
 9026SOL    HW227978   2.135   3.350   1.405 -0.6889 -0.8126 -1.8420
 9027SOL     OW27979   3.747   3.680   6.312 -0.2794 -0.3357 -0.0058
 9027SOL    HW127980   3.684   3.749   6.277 -0.8449 -0.6129  0.4403
 9027SOL    HW227981   3.739   3.674   6.411 -0.2299 -1.0244 -0.0326
 9028SOL     OW27982   5.334   4.746   0.934  0.9032  0.0752 -0.1132
 9028SOL    HW127983   5.426   4.708   0.931  0.3228 -1.4068  0.1541
 9028SOL    HW227984   5.267   4.672   0.935 -0.2747  1.1100  0.8425
 9029SOL     OW27985   2.829   6.912   0.066  0.1481 -0.6374 -0.1189
 9029SOL    HW127986   2.872   6.977   0.128  0.9873 -0.1341 -1.1952
 9029SOL    HW227987   2.899   6.866   0.011 -0.3559 -2.9840  1.0611
 9030SOL     OW27988   1.601   4.315   4.065 -0.3923  0.3488  0.1791
 9030SOL    HW127989   1.654   4.243   4.020 -2.2719 -0.7904 -0.3310
 9030SOL    HW227990   1.577   4.384   3.997 -0.8589  0.0651  0.0510
 9031SOL     OW27991   0.196   2.486   2.593 -0.2498 -0.5458  0.0970
 9031SOL    HW127992   0.226   2.514   2.684  1.5146 -0.5601 -0.4377
 9031SOL    HW227993   0.144   2.560   2.551  0.0721 -0.0237  0.5998
 9032SOL     OW27994   0.506   5.037   6.359  0.2229 -0.4045 -0.0915
 9032SOL    HW127995   0.537   4.982   6.282  0.3421 -0.2864 -0.1278
 9032SOL    HW227996   0.556   5.011   6.442 -0.9716 -1.6044  0.2858
 9033SOL     OW27997   4.147   1.883   1.176 -0.2257  0.1057  0.4691
 9033SOL    HW127998   4.231   1.937   1.169  0.2317 -0.7878 -1.8198
 9033SOL    HW227999   4.072   1.934   1.135  0.2329 -0.9308 -1.8181
 9034SOL     OW28000   5.544   1.669   6.847  0.2393  0.0585 -0.2338
 9034SOL    HW128001   5.619   1.712   6.898  1.9754 -0.4323 -2.2341
 9034SOL    HW228002   5.545   1.570   6.864 -0.3530  0.1217  0.1936
 9035SOL     OW28003   2.378   0.544   3.996 -0.1400 -0.0737 -0.3195
 9035SOL    HW128004   2.427   0.538   3.908  0.3203  1.6429 -0.2135
 9035SOL    HW228005   2.425   0.487   4.063  1.8847  1.5959 -0.1936
 9036SOL     OW28006   0.859   3.093   3.546  0.2075 -0.4318 -0.4321
 9036SOL    HW128007   0.906   3.172   3.585  1.6297 -1.1955 -0.5070
 9036SOL    HW228008   0.858   3.019   3.612  0.1031 -0.7891 -0.8310
 9037SOL     OW28009   3.673   5.359   5.884 -0.3328 -0.3961  0.0234
 9037SOL    HW128010   3.626   5.386   5.800  1.3627  0.6254 -0.6366
 9037SOL    HW228011   3.640   5.415   5.960 -1.4664 -0.9417 -0.0495
 9038SOL     OW28012   5.180   3.367   4.225 -0.4060  0.3561  0.1727
 9038SOL    HW128013   5.276   3.384   4.243 -0.7983  1.8184  1.1109
 9038SOL    HW228014   5.164   3.269   4.214  0.7907 -0.2022  2.6859
 9039SOL     OW28015   4.597   2.314   4.262 -0.7931  0.2601  0.0129
 9039SOL    HW128016   4.499   2.297   4.267 -0.7782 -0.0463 -0.7376
 9039SOL    HW228017   4.614   2.413   4.261 -1.0902  0.3131  0.1221
 9040SOL     OW28018   0.458   0.391   3.401 -0.0205 -0.5897 -0.2600
 9040SOL    HW128019   0.551   0.354   3.402  2.2699  4.1716 -1.7032
 9040SOL    HW228020   0.419   0.382   3.309  1.2248  1.5699 -1.0975
 9041SOL     OW28021   2.330   0.468   3.015  0.2359 -0.2188  0.2146
 9041SOL    HW128022   2.275   0.528   2.956  1.9143  1.1562 -0.0358
 9041SOL    HW228023   2.390   0.523   3.073  1.5208 -1.6418  0.3184
 9042SOL     OW28024   2.554   1.187   0.344 -0.0777 -0.0079 -0.3655
 9042SOL    HW128025   2.594   1.096   0.332 -1.1969 -0.4494 -0.9387
 9042SOL    HW228026   2.571   1.219   0.437  0.6126 -0.6600 -0.2568
 9043SOL     OW28027   0.638   6.543   1.980  0.2161 -0.5997 -0.2975
 9043SOL    HW128028   0.721   6.515   2.029  0.6976 -1.2701 -1.4568
 9043SOL    HW228029   0.560   6.491   2.015  0.0662  0.6917  1.4487
 9044SOL     OW28030   0.779   5.514   3.738  0.0967  0.5148 -0.1799
 9044SOL    HW128031   0.721   5.470   3.806 -0.6350 -0.3309 -1.3127
 9044SOL    HW228032   0.875   5.490   3.756 -0.1627 -0.4170  0.0475
 9045SOL     OW28033   3.500   2.011   5.662  0.1743 -0.0039 -0.3318
 9045SOL    HW128034   3.576   2.013   5.597  1.3976 -0.0254  1.0454
 9045SOL    HW228035   3.446   1.928   5.649 -0.1691  0.4413 -1.9111
 9046SOL     OW28036   2.106   4.401   0.621  0.2334  0.4482  0.1360
 9046SOL    HW128037   2.148   4.359   0.540 -2.0728  0.7025 -1.2874
 9046SOL    HW228038   2.098   4.332   0.693  1.5945  0.0006 -0.0965
 9047SOL     OW28039   4.366   1.548   4.594 -0.1749 -0.2075  0.3419
 9047SOL    HW128040   4.354   1.524   4.497 -2.0906  1.1443  0.1904
 9047SOL    HW228041   4.435   1.489   4.634  1.3335 -0.2270 -2.0665
 9048SOL     OW28042   6.803   6.015   3.746 -0.3861 -0.1905 -0.1968
 9048SOL    HW128043   6.818   5.989   3.842  0.6337  1.0621  0.0193
 9048SOL    HW228044   6.810   5.934   3.688 -4.3836 -1.6437  1.0209
 9049SOL     OW28045   0.425   6.891   2.965 -0.1281 -0.5913 -0.2511
 9049SOL    HW128046   0.366   6.939   2.900 -0.9009 -1.1929 -0.0123
 9049SOL    HW228047   0.520   6.920   2.952 -0.6974  2.1005  0.8498
 9050SOL     OW28048   5.146   1.902   3.279  0.4681  0.4516 -0.5244
 9050SOL    HW128049   5.176   1.808   3.258 -1.1575 -0.2935  0.2762
 9050SOL    HW228050   5.141   1.954   3.194 -0.7110 -0.8651 -1.3167
 9051SOL     OW28051   1.320   2.438   3.979  0.0892 -0.2988  0.7175
 9051SOL    HW128052   1.242   2.424   3.918 -1.0984  1.5740  1.7128
 9051SOL    HW228053   1.391   2.371   3.958 -0.1647  0.3470 -2.7993
 9052SOL     OW28054   6.638   1.960   0.435  0.3873 -0.2631  0.5134
 9052SOL    HW128055   6.724   1.908   0.442 -0.1045 -1.3499 -1.0200
 9052SOL    HW228056   6.577   1.914   0.371 -1.4250  0.4137  1.6920
 9053SOL     OW28057   6.044   5.915   4.509  0.1303 -0.1886 -0.2253
 9053SOL    HW128058   6.138   5.943   4.487  0.4097 -0.6666  0.3461
 9053SOL    HW228059   6.031   5.820   4.481 -0.2564 -0.0555 -0.5017
 9054SOL     OW28060   1.000   5.565   6.897 -0.0715  0.4947  0.2156
 9054SOL    HW128061   1.014   5.484   6.840  3.0304  0.5869  0.6856
 9054SOL    HW228062   0.965   5.536   6.987 -0.6385 -0.1152 -0.1902
 9055SOL     OW28063   3.172   2.069   5.235  0.0971 -0.2975  0.1604
 9055SOL    HW128064   3.266   2.036   5.239  0.1948  0.0241  0.5550
 9055SOL    HW228065   3.171   2.162   5.197 -0.1794 -0.7436 -0.9858
 9056SOL     OW28066   1.518   4.974   1.758  0.4807 -0.0033 -0.1543
 9056SOL    HW128067   1.540   5.001   1.664  0.5471 -1.6211 -0.6481
 9056SOL    HW228068   1.571   4.892   1.781 -0.4669 -0.3505  0.8477
 9057SOL     OW28069   4.088   6.607   3.029  0.1110  0.0038  0.3641
 9057SOL    HW128070   4.161   6.583   2.966  1.1866 -0.6312  1.7982
 9057SOL    HW228071   4.120   6.678   3.092 -0.7390  0.2027  0.5954
 9058SOL     OW28072   6.807   5.964   5.732 -1.2610 -0.5513 -0.0641
 9058SOL    HW128073   6.780   5.978   5.827 -1.9976  1.4574 -0.5223
 9058SOL    HW228074   6.836   6.051   5.692 -0.0837 -1.5216 -1.4395
 9059SOL     OW28075   2.273   0.615   0.254 -0.0653 -0.2168 -0.3756
 9059SOL    HW128076   2.207   0.574   0.190 -0.9057 -0.3553  0.5638
 9059SOL    HW228077   2.366   0.587   0.228 -0.4057 -0.4128 -1.4287
 9060SOL     OW28078   5.546   4.820   1.565  0.2856 -0.2242 -0.1348
 9060SOL    HW128079   5.459   4.836   1.519  0.2359  0.7230  0.2532
 9060SOL    HW228080   5.571   4.902   1.616  2.3097  0.1990 -1.6959
 9061SOL     OW28081   0.327   6.662   6.100  0.3680 -0.2026 -0.4061
 9061SOL    HW128082   0.374   6.636   6.184 -0.1260 -0.3743 -0.1791
 9061SOL    HW228083   0.349   6.757   6.078  0.5146 -0.1615 -0.0921
 9062SOL     OW28084   2.611   3.878   0.324 -0.3973 -0.1971 -0.3077
 9062SOL    HW128085   2.595   3.780   0.312 -1.9529 -0.0436  0.2438
 9062SOL    HW228086   2.570   3.928   0.247 -0.5451  0.0867 -0.0448
 9063SOL     OW28087   2.720   6.664   6.493 -0.3281  0.2004 -0.2323
 9063SOL    HW128088   2.710   6.755   6.532 -1.9689 -1.1013  2.7086
 9063SOL    HW228089   2.635   6.638   6.446 -0.2388 -0.2076 -0.1705
 9064SOL     OW28090   3.930   3.808   1.611 -0.5503 -0.3229  0.5630
 9064SOL    HW128091   3.977   3.796   1.524  1.0458  1.0250  1.1725
 9064SOL    HW228092   3.981   3.762   1.684 -1.5118 -0.8870  0.9060
 9065SOL     OW28093   2.120   5.608   4.892  0.2866 -0.4656  0.3803
 9065SOL    HW128094   2.082   5.597   4.800 -0.0750  1.6566  0.2287
 9065SOL    HW228095   2.190   5.678   4.891  1.5000 -1.6056  1.4403
 9066SOL     OW28096   5.681   5.532   0.633 -0.0663  0.2065 -0.7215
 9066SOL    HW128097   5.673   5.514   0.731 -0.7225  2.0576 -0.3923
 9066SOL    HW228098   5.598   5.500   0.587 -0.5660  0.9967 -0.3837
 9067SOL     OW28099   4.919   6.497   2.671 -0.6999 -0.3037  0.2238
 9067SOL    HW128100   4.976   6.476   2.750 -0.7202  0.5156  0.4741
 9067SOL    HW228101   4.974   6.542   2.601 -1.0796  0.7817  0.5971
 9068SOL     OW28102   0.958   3.201   1.737 -0.0437 -0.2053  0.8126
 9068SOL    HW128103   0.977   3.294   1.766  2.6373  0.2219 -1.8370
 9068SOL    HW228104   1.017   3.138   1.788  0.6131 -0.0472  0.2676
 9069SOL     OW28105   2.283   2.128   5.146  0.0227  0.2702 -0.2210
 9069SOL    HW128106   2.258   2.034   5.166  0.4183  0.1333 -0.3538
 9069SOL    HW228107   2.360   2.156   5.204 -0.8532  0.9083  0.6595
 9070SOL     OW28108   2.990   5.919   4.459 -0.2350 -0.1008 -0.1964
 9070SOL    HW128109   3.023   5.836   4.504  1.9834  2.0915  2.6107
 9070SOL    HW228110   3.054   5.945   4.386 -1.3574 -1.1642 -1.6305
 9071SOL     OW28111   2.145   1.040   4.301  0.3242  0.4194  0.6354
 9071SOL    HW128112   2.095   1.115   4.343 -3.5230 -1.4832 -0.1053
 9071SOL    HW228113   2.161   0.968   4.369  1.8086  0.8405  0.7652
 9072SOL     OW28114   6.969   5.154   4.542  0.4664 -0.1490 -0.2349
 9072SOL    HW128115   7.008   5.090   4.475  1.3215  0.3013 -0.1764
 9072SOL    HW228116   6.936   5.236   4.495  1.4081  0.3308 -0.0800
 9073SOL     OW28117   0.365   6.225   4.313 -0.4902  0.1609  0.3850
 9073SOL    HW128118   0.381   6.261   4.405 -1.1825  1.1915  0.1243
 9073SOL    HW228119   0.348   6.301   4.250  1.9297 -0.3668 -1.0398
 9074SOL     OW28120   5.902   6.792   4.379  0.1884 -0.2709 -0.4707
 9074SOL    HW128121   5.854   6.705   4.373  0.6400 -0.5352 -0.2627
 9074SOL    HW228122   5.892   6.830   4.471 -0.3615  0.1037 -0.6811
 9075SOL     OW28123   6.228   0.913   6.749  0.1828  0.0567  0.4504
 9075SOL    HW128124   6.189   0.896   6.658 -0.2080  0.8981  0.4514
 9075SOL    HW228125   6.277   0.831   6.779 -0.0927 -0.4077 -0.3074
 9076SOL     OW28126   3.484   6.926   4.797 -0.1228  0.5595 -0.3719
 9076SOL    HW128127   3.465   7.011   4.845 -1.8062 -0.0254  0.0726
 9076SOL    HW228128   3.544   6.869   4.853 -1.0218  0.4293  0.4889
 9077SOL     OW28129   2.060   2.708   1.999  0.0907  0.3422  0.0766
 9077SOL    HW128130   1.983   2.757   2.040 -0.1012  1.0882 -1.1144
 9077SOL    HW228131   2.029   2.657   1.919  0.6895  0.0035  0.0542
 9078SOL     OW28132   2.654   6.540   0.286 -0.0794 -0.5501 -0.1219
 9078SOL    HW128133   2.720   6.466   0.278  1.6619  0.9763 -0.4616
 9078SOL    HW228134   2.629   6.552   0.382  0.5716 -0.8018  0.0840
 9079SOL     OW28135   0.863   5.924   2.742 -0.2368  0.3146  0.3904
 9079SOL    HW128136   0.890   5.859   2.672  1.6224  1.1806  0.2365
 9079SOL    HW228137   0.847   5.875   2.828  1.8071 -0.3286  0.4605
 9080SOL     OW28138   2.736   5.379   6.549  0.0802 -0.0486  0.5247
 9080SOL    HW128139   2.833   5.371   6.526 -0.2363 -0.5957 -0.6930
 9080SOL    HW228140   2.681   5.372   6.466 -1.0151  0.2256  1.2015
 9081SOL     OW28141   4.004   5.199   5.513 -0.1241  0.4941 -0.0354
 9081SOL    HW128142   4.100   5.225   5.523 -0.4108  0.9572  1.9560
 9081SOL    HW228143   3.953   5.229   5.593 -2.2020  1.3242 -1.5780
 9082SOL     OW28144   1.515   5.448   4.795  0.1710  0.5513 -0.4867
 9082SOL    HW128145   1.453   5.395   4.737 -1.8084  1.1191  0.9939
 9082SOL    HW228146   1.530   5.400   4.881 -0.3857  1.6140  0.2334
 9083SOL     OW28147   3.343   6.337   0.188  0.4338  0.1190 -0.0871
 9083SOL    HW128148   3.316   6.311   0.281  0.8692  1.5619  0.4712
 9083SOL    HW228149   3.343   6.437   0.180 -0.4481  0.0076 -1.9087
 9084SOL     OW28150   0.116   3.681   0.110 -0.4220  0.3829  0.4554
 9084SOL    HW128151   0.026   3.642   0.092 -0.2747 -0.2006  0.9401
 9084SOL    HW228152   0.186   3.626   0.065 -0.3972  1.7595 -1.2913
 9085SOL     OW28153   0.467   1.090   6.599 -0.0671 -0.0492 -0.1158
 9085SOL    HW128154   0.523   1.147   6.660 -1.3331  0.7067  0.3946
 9085SOL    HW228155   0.525   1.026   6.550  1.5249  2.0851 -1.1725
 9086SOL     OW28156   6.444   2.806   6.161  0.4825 -0.2777  1.2207
 9086SOL    HW128157   6.425   2.880   6.226 -1.3572  0.2771  0.1407
 9086SOL    HW228158   6.364   2.746   6.155  0.9181 -0.7688  0.0628
 9087SOL     OW28159   4.510   2.128   1.384 -0.0750 -0.5581  0.3280
 9087SOL    HW128160   4.485   2.080   1.300  1.8299  0.5225 -0.9130
 9087SOL    HW228161   4.606   2.157   1.380  0.8174 -2.4231  3.8340
 9088SOL     OW28162   0.421   6.614   3.029 -0.2515 -0.0304 -0.0473
 9088SOL    HW128163   0.383   6.627   3.120  0.5165 -0.6699  0.3704
 9088SOL    HW228164   0.443   6.704   2.989  2.9247  0.1927  1.9119
 9089SOL     OW28165   6.124   3.426   2.941 -0.3907 -0.0091  0.0044
 9089SOL    HW128166   6.158   3.332   2.941 -0.9664 -0.3689 -3.8892
 9089SOL    HW228167   6.049   3.434   3.007  0.9027 -1.6992  1.7882
 9090SOL     OW28168   6.024   1.022   6.066 -0.0418 -0.6839 -0.6630
 9090SOL    HW128169   6.019   0.950   6.135  2.0120 -1.0589 -0.8334
 9090SOL    HW228170   6.078   0.990   5.988  0.0759  0.7158 -1.1805
 9091SOL     OW28171   2.121   6.105   3.854  0.5821 -0.3209  0.3661
 9091SOL    HW128172   2.029   6.115   3.816  0.0539  0.9661  1.8422
 9091SOL    HW228173   2.121   6.033   3.923  0.5669 -0.0630  0.6397
 9092SOL     OW28174   2.796   6.397   6.445  0.3002  0.3837 -0.4824
 9092SOL    HW128175   2.773   6.351   6.531 -0.1994  0.1854 -0.7163
 9092SOL    HW228176   2.772   6.494   6.451  0.3319  0.3844 -0.3702
 9093SOL     OW28177   6.355   2.382   0.346 -0.2941 -0.1138  0.4748
 9093SOL    HW128178   6.351   2.285   0.371 -0.4494 -1.1020 -2.9049
 9093SOL    HW228179   6.448   2.415   0.359  0.0531 -1.0613  0.5103
 9094SOL     OW28180   2.480   1.177   1.579 -0.7506 -0.3211 -0.0668
 9094SOL    HW128181   2.532   1.144   1.657 -0.9648 -0.8711 -0.1570
 9094SOL    HW228182   2.400   1.227   1.612 -1.1307 -1.0126  0.0662
 9095SOL     OW28183   0.912   5.008   3.815  0.0094  0.8549 -0.7351
 9095SOL    HW128184   0.860   4.934   3.772 -0.6046  1.1293 -0.4713
 9095SOL    HW228185   0.919   5.085   3.751 -0.1577  0.9296 -0.6637
 9096SOL     OW28186   1.592   1.261   2.038 -0.4665 -0.2276  0.0400
 9096SOL    HW128187   1.623   1.323   2.110  0.9378 -0.6880 -0.1271
 9096SOL    HW228188   1.635   1.287   1.951  0.1362 -1.3844 -0.0331
 9097SOL     OW28189   3.293   4.422   5.641 -0.0944  0.7105 -0.5710
 9097SOL    HW128190   3.333   4.435   5.732 -1.1140 -1.7497  0.3302
 9097SOL    HW228191   3.363   4.389   5.578 -0.0663 -1.0363  0.3089
 9098SOL     OW28192   1.074   3.965   3.895  0.4689  0.3101 -0.1223
 9098SOL    HW128193   1.092   4.058   3.862 -0.2127 -0.0432 -1.6043
 9098SOL    HW228194   0.975   3.953   3.905  0.4665 -0.6005 -1.0989
 9099SOL     OW28195   0.698   2.476   6.514  0.2812 -0.3878 -0.3014
 9099SOL    HW128196   0.688   2.469   6.415  1.1635  1.8085 -0.6188
 9099SOL    HW228197   0.790   2.507   6.536 -0.6926  1.8334  0.9964
 9100SOL     OW28198   3.243   1.489   4.288 -0.5078  0.3972  0.2044
 9100SOL    HW128199   3.220   1.435   4.369 -0.8939  0.8865  0.4230
 9100SOL    HW228200   3.342   1.500   4.282 -0.2275 -2.0437 -0.9426
 9101SOL     OW28201   2.035   5.619   4.605 -0.4285  0.8375 -0.2495
 9101SOL    HW128202   1.994   5.534   4.571  0.3384  0.1216  0.5572
 9101SOL    HW228203   2.016   5.693   4.541  0.5439 -0.3401 -1.9959
 9102SOL     OW28204   0.942   1.757   5.940  0.2690 -0.3914  0.2010
 9102SOL    HW128205   0.875   1.750   6.014  0.0756  1.2103  0.2094
 9102SOL    HW228206   0.896   1.740   5.853  0.3105 -1.3631  0.3484
 9103SOL     OW28207   1.571   6.572   1.944 -0.0276 -0.2383 -0.2207
 9103SOL    HW128208   1.664   6.609   1.957  0.5462 -1.2059 -1.4018
 9103SOL    HW228209   1.551   6.507   2.017  0.3316 -0.2349 -0.1152
 9104SOL     OW28210   4.691   1.007   5.734 -0.1936 -0.2307  0.4071
 9104SOL    HW128211   4.680   0.919   5.686 -1.9178 -0.1368  0.5456
 9104SOL    HW228212   4.602   1.052   5.739  0.6530  1.4987  0.4250
 9105SOL     OW28213   1.167   5.004   4.263  0.3818 -0.1984 -0.3229
 9105SOL    HW128214   1.136   5.044   4.177 -0.9680  0.8322  0.5984
 9105SOL    HW228215   1.197   4.910   4.247  1.4272  0.3976 -2.1312
 9106SOL     OW28216   3.218   5.436   5.136 -0.0385 -0.0047  0.7041
 9106SOL    HW128217   3.214   5.360   5.071  0.9517 -2.0296  2.9051
 9106SOL    HW228218   3.144   5.427   5.203 -1.6535  2.5932 -0.5338
 9107SOL     OW28219   1.447   3.113   5.264  0.4199  0.4040 -0.6840
 9107SOL    HW128220   1.528   3.072   5.306  0.8792  0.8866 -1.0815
 9107SOL    HW228221   1.366   3.061   5.290  0.6697  0.7227  0.8550
 9108SOL     OW28222   4.069   1.452   1.027  0.3344 -0.0818  0.3237
 9108SOL    HW128223   4.142   1.439   0.960 -0.2531 -2.9685  0.1262
 9108SOL    HW228224   3.993   1.501   0.984  1.0148  0.4687 -0.2857
 9109SOL     OW28225   4.922   6.621   6.267 -0.0242  0.0847  0.2891
 9109SOL    HW128226   4.966   6.648   6.182  1.8327 -1.3645  0.7114
 9109SOL    HW228227   4.918   6.699   6.330 -2.6093  1.5400 -1.4805
 9110SOL     OW28228   5.597   3.274   5.626  0.0579  0.1442 -0.4769
 9110SOL    HW128229   5.555   3.278   5.536 -0.2086 -0.5856 -0.3963
 9110SOL    HW228230   5.695   3.294   5.618 -0.3649  2.4012 -0.5829
 9111SOL     OW28231   6.340   1.874   4.100  0.1238  0.1442  0.2777
 9111SOL    HW128232   6.242   1.882   4.118  0.1757  0.5060  0.3969
 9111SOL    HW228233   6.376   1.963   4.071  0.6877  0.3485  1.5617
 9112SOL     OW28234   5.809   0.340   1.942  0.1938  0.9333 -0.4691
 9112SOL    HW128235   5.841   0.256   1.985  0.9998  1.5675  0.1964
 9112SOL    HW228236   5.769   0.400   2.011 -3.3360 -0.1614 -1.3541
 9113SOL     OW28237   1.035   4.555   5.058 -0.3794  0.7738  0.2279
 9113SOL    HW128238   1.068   4.608   4.980  0.8539 -3.4168 -2.3845
 9113SOL    HW228239   0.944   4.519   5.039  0.6296 -1.7459 -0.2144
 9114SOL     OW28240   5.091   4.958   1.318  0.1426 -0.6010 -0.3197
 9114SOL    HW128241   5.167   4.975   1.256 -0.3626  1.2598 -0.4749
 9114SOL    HW228242   5.064   5.043   1.363 -0.8641 -1.5152  0.8895
 9115SOL     OW28243   6.460   5.078   0.233  0.1635 -0.4440  0.1768
 9115SOL    HW128244   6.529   5.091   0.161  0.3874 -2.3726 -0.0202
 9115SOL    HW228245   6.496   5.111   0.320 -0.2061  2.1674 -0.5792
 9116SOL     OW28246   5.763   1.015   3.039  0.0392  0.2474 -0.1518
 9116SOL    HW128247   5.853   0.977   3.016 -0.9173 -1.5786 -1.1237
 9116SOL    HW228248   5.708   0.943   3.083 -0.4611  1.7637  1.8354
 9117SOL     OW28249   4.971   1.651   5.664  0.3536  0.4117  0.1143
 9117SOL    HW128250   4.931   1.582   5.725 -1.2312  1.0941 -0.1084
 9117SOL    HW228251   5.013   1.723   5.718 -1.2534  1.1357  0.4716
 9118SOL     OW28252   6.342   5.525   4.687 -0.4770  0.2584 -0.0183
 9118SOL    HW128253   6.384   5.537   4.596 -1.2482  0.4578 -0.3518
 9118SOL    HW228254   6.275   5.451   4.682 -0.2724  0.0379  0.4829
 9119SOL     OW28255   1.333   3.189   3.252  0.1835  0.7296  0.2304
 9119SOL    HW128256   1.432   3.193   3.239  0.4799 -2.0418  1.0687
 9119SOL    HW228257   1.309   3.230   3.340  0.7004  0.6109  0.4287
 9120SOL     OW28258   4.325   0.750   2.156 -0.0489 -0.1400 -0.2519
 9120SOL    HW128259   4.230   0.723   2.170 -1.0908  2.8595 -0.7293
 9120SOL    HW228260   4.379   0.726   2.237 -2.1582  1.6898  1.8538
 9121SOL     OW28261   1.963   1.490   0.829  0.1799 -0.1049 -0.6977
 9121SOL    HW128262   1.942   1.394   0.807 -2.1960  0.1542  0.0885
 9121SOL    HW228263   1.981   1.540   0.744 -1.2038 -0.7263 -1.4059
 9122SOL     OW28264   4.197   0.383   0.106  0.1072  0.0369  0.3042
 9122SOL    HW128265   4.221   0.478   0.089  1.0912 -0.5852 -2.2470
 9122SOL    HW228266   4.099   0.376   0.127  0.1412  1.6220  1.1275
 9123SOL     OW28267   4.984   0.465   2.689  0.0486  0.3805 -0.7428
 9123SOL    HW128268   5.019   0.545   2.639 -0.9362  0.4622 -1.3118
 9123SOL    HW228269   4.993   0.482   2.788  1.1574  0.5944 -0.8658
 9124SOL     OW28270   6.263   0.434   3.761  0.0514 -0.2266  0.3328
 9124SOL    HW128271   6.266   0.375   3.843  0.1177  0.9009  1.1685
 9124SOL    HW228272   6.216   0.385   3.687 -0.0203 -1.2736  1.0424
 9125SOL     OW28273   5.932   6.039   1.717 -0.3142 -0.1997  0.0952
 9125SOL    HW128274   5.929   5.977   1.795  0.5027  1.3781  1.4396
 9125SOL    HW228275   5.992   6.001   1.647  1.4213 -0.2657  1.5484
 9126SOL     OW28276   1.707   1.052   4.674  0.2788 -0.4638 -0.1347
 9126SOL    HW128277   1.724   1.018   4.582  0.0012 -1.7494  0.2755
 9126SOL    HW228278   1.793   1.085   4.714  0.1655  1.4830 -1.3557
 9127SOL     OW28279   0.434   1.731   2.242  0.5275 -0.4855 -0.6590
 9127SOL    HW128280   0.370   1.753   2.168 -0.0325  1.5304  0.3825
 9127SOL    HW228281   0.514   1.790   2.235 -0.2903  0.9443  1.2702
 9128SOL     OW28282   3.732   6.809   2.028  0.2208 -0.6977  0.0116
 9128SOL    HW128283   3.649   6.766   1.992  0.8772 -1.1838 -0.9755
 9128SOL    HW228284   3.810   6.748   2.014  0.4967 -1.0211  2.5469
 9129SOL     OW28285   6.687   0.442   0.140 -0.6153 -0.2528 -0.1523
 9129SOL    HW128286   6.614   0.511   0.131  1.2589  1.7892 -0.4567
 9129SOL    HW228287   6.680   0.397   0.229 -1.2499  1.1109  0.5162
 9130SOL     OW28288   3.977   5.194   4.938  0.3063  0.3370 -0.1854
 9130SOL    HW128289   3.960   5.105   4.896 -0.1382  0.6515 -0.6876
 9130SOL    HW228290   4.008   5.259   4.868  0.4935  0.6176  0.1517
 9131SOL     OW28291   1.143   1.556   3.152  0.0688 -0.0690  0.0898
 9131SOL    HW128292   1.115   1.533   3.059  0.9136 -2.0085  0.2676
 9131SOL    HW228293   1.202   1.637   3.149 -1.2484  0.9117 -0.8337
 9132SOL     OW28294   4.259   2.563   6.595 -0.5206  0.2419 -0.6621
 9132SOL    HW128295   4.179   2.508   6.575 -1.5312  2.3103 -2.7816
 9132SOL    HW228296   4.338   2.528   6.544  0.5986 -2.9154  2.7977
 9133SOL     OW28297   4.028   0.327   2.942 -0.0106 -0.1076  0.1069
 9133SOL    HW128298   4.098   0.276   2.994  0.6647  0.6112 -0.0819
 9133SOL    HW228299   4.033   0.300   2.846 -0.6364 -0.7505  0.2476
 9134SOL     OW28300   3.585   3.156   3.686 -0.4936 -0.4768 -0.1642
 9134SOL    HW128301   3.527   3.207   3.623 -1.9884 -0.8434  0.8790
 9134SOL    HW228302   3.579   3.058   3.666  0.9479 -0.4350 -0.9824
 9135SOL     OW28303   5.878   5.859   4.865  0.3194  0.4701 -0.8829
 9135SOL    HW128304   5.940   5.937   4.856  1.0764  0.0635  0.5577
 9135SOL    HW228305   5.931   5.774   4.859  0.1871  0.1247  1.8324
 9136SOL     OW28306   2.117   0.093   4.773  0.1876  0.2108 -0.3427
 9136SOL    HW128307   2.043   0.061   4.713  1.8920  1.1684 -3.1678
 9136SOL    HW228308   2.128   0.192   4.762  0.4487  0.4689  1.8098
 9137SOL     OW28309   1.730   5.234   6.936  0.0459 -0.6285 -0.4273
 9137SOL    HW128310   1.705   5.310   6.876  0.0044  1.5843  2.1804
 9137SOL    HW228311   1.647   5.188   6.967 -0.0314 -0.7866 -0.8680
 9138SOL     OW28312   3.490   1.367   2.513 -0.1635  0.5100  0.0533
 9138SOL    HW128313   3.533   1.424   2.442 -1.2948  1.4576  0.0884
 9138SOL    HW228314   3.559   1.336   2.578  0.7976  0.1555 -1.0921
 9139SOL     OW28315   7.007   0.438   0.916 -0.1908 -0.0338  0.4078
 9139SOL    HW128316   7.033   0.507   0.849 -3.2012  1.2247  0.3291
 9139SOL    HW228317   7.045   0.349   0.890  1.4300  1.0311 -1.0910
 9140SOL     OW28318   2.785   5.899   3.560  1.0073 -0.0277  0.3587
 9140SOL    HW128319   2.712   5.898   3.627  0.1728  0.4080 -0.5227
 9140SOL    HW228320   2.848   5.823   3.577  0.6513 -0.0836  1.4462
 9141SOL     OW28321   1.110   1.731   1.173 -0.3959 -0.1405 -0.6172
 9141SOL    HW128322   1.094   1.810   1.234  2.0973 -0.4483  0.5781
 9141SOL    HW228323   1.063   1.651   1.210 -0.1671  0.0342  0.0804
 9142SOL     OW28324   1.414   4.725   5.166 -0.2312  0.1295  0.1768
 9142SOL    HW128325   1.509   4.755   5.153  0.3514 -1.5471  0.3808
 9142SOL    HW228326   1.354   4.782   5.110  1.0236  0.4431 -0.9076
 9143SOL     OW28327   1.376   5.909   4.972 -0.1426  0.4652  0.1008
 9143SOL    HW128328   1.404   5.833   4.913  0.6087  0.8130 -0.0042
 9143SOL    HW228329   1.441   5.985   4.962  0.1651  0.4303  1.5856
 9144SOL     OW28330   0.841   0.226   0.916  0.5711 -0.0700 -0.3340
 9144SOL    HW128331   0.828   0.205   1.013  0.0534 -0.8381 -0.5589
 9144SOL    HW228332   0.824   0.144   0.862 -2.1590  1.0178 -1.2948
 9145SOL     OW28333   6.175   2.164   4.584 -0.0832 -0.0401 -0.7505
 9145SOL    HW128334   6.167   2.177   4.683  3.0781  0.6190 -0.4727
 9145SOL    HW228335   6.162   2.251   4.538 -1.5715 -0.3503 -0.9558
 9146SOL     OW28336   5.712   5.548   6.708 -0.7886 -0.2343  0.7195
 9146SOL    HW128337   5.624   5.513   6.676 -1.0214 -0.8323  1.9784
 9146SOL    HW228338   5.768   5.573   6.629 -2.4528  1.1151 -0.1019
 9147SOL     OW28339   2.534   5.182   0.966  0.3697 -0.6242 -0.0430
 9147SOL    HW128340   2.513   5.164   0.870  1.6987  1.4614 -0.8004
 9147SOL    HW228341   2.562   5.097   1.010  0.1991 -1.5500 -1.6184
 9148SOL     OW28342   0.535   3.113   2.790 -0.0355  0.4475 -0.1246
 9148SOL    HW128343   0.586   3.083   2.709 -1.1525 -0.7331 -0.4275
 9148SOL    HW228344   0.522   3.035   2.851 -1.6127  0.6777 -0.1371
 9149SOL     OW28345   1.579   0.262   6.700  0.1847  0.2799 -0.1932
 9149SOL    HW128346   1.562   0.360   6.707  2.1781  0.7536 -0.9939
 9149SOL    HW228347   1.620   0.242   6.611 -2.5089 -1.7078 -1.1117
 9150SOL     OW28348   6.758   5.471   1.949 -0.4079  0.1187 -0.7156
 9150SOL    HW128349   6.808   5.398   1.994 -3.6880 -1.3141  0.9736
 9150SOL    HW228350   6.775   5.557   1.997 -1.9126 -0.9308  1.9252
 9151SOL     OW28351   1.203   4.456   4.671  0.4156  0.6523  0.1219
 9151SOL    HW128352   1.181   4.525   4.740 -0.7424 -1.3695  1.8824
 9151SOL    HW228353   1.302   4.440   4.670  0.4313  0.6346  1.3965
 9152SOL     OW28354   4.248   0.063   5.973  0.0593 -0.2119  0.2068
 9152SOL    HW128355   4.329   0.081   6.029  0.3258  1.3440 -0.5958
 9152SOL    HW228356   4.276   0.021   5.886  0.0385  0.3989 -0.1037
 9153SOL     OW28357   3.372   0.448   4.911  0.7308  0.2065 -0.6744
 9153SOL    HW128358   3.356   0.492   4.999  1.3845 -2.1019  0.6781
 9153SOL    HW228359   3.441   0.499   4.860  1.4524  0.7646  0.8052
 9154SOL     OW28360   4.835   2.547   5.592  0.2652  0.2418 -0.8921
 9154SOL    HW128361   4.769   2.621   5.579 -0.6962 -0.5208 -0.4666
 9154SOL    HW228362   4.917   2.583   5.637 -0.3201  0.9952 -0.3942
 9155SOL     OW28363   2.361   3.031   5.576 -0.0872  0.2691 -0.9235
 9155SOL    HW128364   2.407   3.003   5.491  0.3266 -1.5787 -0.1453
 9155SOL    HW228365   2.309   2.954   5.612 -2.9338  1.9573 -1.1297
 9156SOL     OW28366   6.835   0.610   2.658  0.3141  0.6519 -0.7282
 9156SOL    HW128367   6.891   0.593   2.577  0.3380 -1.3277 -0.3598
 9156SOL    HW228368   6.894   0.629   2.737  0.3466  1.2587 -0.8975
 9157SOL     OW28369   3.660   5.233   2.855  0.0892 -0.4730  0.3570
 9157SOL    HW128370   3.677   5.144   2.812  0.4779 -0.6530  0.8731
 9157SOL    HW228371   3.706   5.305   2.804 -0.2938 -0.5546 -0.1111
 9158SOL     OW28372   2.770   1.077   6.596  0.6216 -0.4804  0.5480
 9158SOL    HW128373   2.706   1.071   6.673 -1.1494  1.0017 -0.7240
 9158SOL    HW228374   2.863   1.059   6.628 -0.4234 -3.4072  2.3610
 9159SOL     OW28375   4.736   2.335   2.421  0.3625 -0.8413 -0.7939
 9159SOL    HW128376   4.730   2.285   2.335 -2.0272 -1.4316 -0.3598
 9159SOL    HW228377   4.675   2.415   2.417  2.5419  0.9086 -0.7183
 9160SOL     OW28378   1.651   6.229   1.769  0.1675 -0.5033  0.0964
 9160SOL    HW128379   1.730   6.290   1.774  1.1041 -1.6586  0.1011
 9160SOL    HW228380   1.568   6.282   1.758  0.9946  0.7381 -0.4267
 9161SOL     OW28381   0.964   3.452   2.618  0.8510  0.0058  0.3872
 9161SOL    HW128382   0.906   3.531   2.601  0.9287 -0.1234 -0.5253
 9161SOL    HW228383   1.060   3.479   2.612  0.8834  0.0084  0.8853
 9162SOL     OW28384   0.838   3.433   1.245 -0.0832  0.4158  0.0783
 9162SOL    HW128385   0.873   3.521   1.214  1.5712 -0.0899  0.4008
 9162SOL    HW228386   0.753   3.446   1.295  0.4278  1.9008  0.6040
 9163SOL     OW28387   1.637   3.447   2.619  0.0200 -0.1786 -0.1078
 9163SOL    HW128388   1.595   3.405   2.538 -1.8510  1.5710 -0.1081
 9163SOL    HW228389   1.704   3.383   2.658  0.1328 -1.5375 -2.3311
 9164SOL     OW28390   3.478   2.076   4.668  0.5262  0.1873  0.4187
 9164SOL    HW128391   3.455   2.081   4.765 -1.6014  0.5883 -0.0585
 9164SOL    HW228392   3.394   2.072   4.614  1.6351  1.0286 -1.4648
 9165SOL     OW28393   3.077   2.546   6.011 -0.6387  0.0635 -0.0696
 9165SOL    HW128394   3.004   2.537   6.078 -0.2563  1.0369  0.4908
 9165SOL    HW228395   3.038   2.577   5.924 -0.6232  3.5454  1.0094
 9166SOL     OW28396   1.396   3.027   6.542 -0.3516  0.2954  0.3155
 9166SOL    HW128397   1.426   3.121   6.559 -0.0482  0.1518  0.5671
 9166SOL    HW228398   1.469   2.977   6.496 -0.9607  0.5302 -0.9534
 9167SOL     OW28399   4.798   4.621   5.372 -0.1240 -0.1568 -0.1075
 9167SOL    HW128400   4.747   4.706   5.361  1.1711  0.5574 -0.8393
 9167SOL    HW228401   4.848   4.601   5.288  1.3853 -0.4396  0.8203
 9168SOL     OW28402   5.000   2.992   0.715 -0.3894 -0.2570  0.0155
 9168SOL    HW128403   4.908   2.986   0.678 -0.4736  0.4691  0.0922
 9168SOL    HW228404   5.065   3.010   0.642 -0.3759 -0.2247  0.0357
 9169SOL     OW28405   1.989   5.027   0.519 -0.0999 -0.3512  0.0847
 9169SOL    HW128406   1.942   5.013   0.432  0.6913  0.2887 -0.4523
 9169SOL    HW228407   1.985   4.943   0.573 -0.3665 -0.8283 -0.6697
 9170SOL     OW28408   4.131   4.071   1.429  0.1866  0.7723 -0.1307
 9170SOL    HW128409   4.135   4.121   1.343 -1.6562 -0.8641 -1.2640
 9170SOL    HW228410   4.083   4.126   1.498 -0.4554  1.1810 -0.8879
 9171SOL     OW28411   0.452   1.435   3.654  0.6126  0.0844  0.4645
 9171SOL    HW128412   0.454   1.530   3.684  1.2283 -0.6580  2.9798
 9171SOL    HW228413   0.487   1.429   3.560  1.0779  2.2377  0.4558
 9172SOL     OW28414   0.476   4.727   6.916 -0.1052  0.0773  0.7646
 9172SOL    HW128415   0.502   4.808   6.969  2.0876  0.2054 -0.3610
 9172SOL    HW228416   0.558   4.672   6.898 -0.3758  0.7376 -3.5714
 9173SOL     OW28417   1.648   6.301   0.005  0.0071 -0.2712 -0.0401
 9173SOL    HW128418   1.640   6.378  -0.058  0.3435  1.2139  1.6561
 9173SOL    HW228419   1.582   6.312   0.079 -0.5148 -2.0879 -0.1828
 9174SOL     OW28420   0.921   5.699   3.390 -0.3607  0.2507  0.3149
 9174SOL    HW128421   0.913   5.777   3.451 -0.8482 -0.4264  1.1425
 9174SOL    HW228422   0.835   5.647   3.390  0.4698 -1.1763  1.0333
 9175SOL     OW28423   0.882   1.597   6.326  0.1087  0.0095  0.6820
 9175SOL    HW128424   0.940   1.678   6.340  1.9955 -1.2638  0.5631
 9175SOL    HW228425   0.815   1.616   6.254  0.0063  1.6995  1.1791
 9176SOL     OW28426   6.470   4.318   1.032 -0.0474  0.1810 -0.3132
 9176SOL    HW128427   6.394   4.382   1.026  0.7613  1.4225  1.8679
 9176SOL    HW228428   6.523   4.336   1.114 -1.2355 -4.8569  1.9908
 9177SOL     OW28429   6.448   3.628   5.687  0.5342 -0.0289  0.2215
 9177SOL    HW128430   6.432   3.658   5.592  0.7341  0.7960  0.4351
 9177SOL    HW228431   6.374   3.663   5.745  1.1060  0.5980  0.5840
 9178SOL     OW28432   1.282   2.584   3.629  0.3360 -0.1471 -0.2394
 9178SOL    HW128433   1.217   2.656   3.605  0.3616 -0.2591 -0.6651
 9178SOL    HW228434   1.240   2.495   3.611 -0.1372 -0.2887  1.3938
 9179SOL     OW28435   2.933   2.231   4.923  0.0242 -0.6468 -0.0949
 9179SOL    HW128436   3.026   2.255   4.952  0.3491 -1.0457 -0.7658
 9179SOL    HW228437   2.928   2.132   4.909  0.5854 -0.3205 -3.5697
 9180SOL     OW28438   4.793   6.967   3.327 -0.2438 -0.1726 -0.1260
 9180SOL    HW128439   4.768   6.870   3.332 -0.0822 -0.1718  0.8097
 9180SOL    HW228440   4.759   7.005   3.241  1.6200 -1.5840 -1.5912
 9181SOL     OW28441   5.117   6.045   0.044  0.6402  0.0468  0.1801
 9181SOL    HW128442   5.116   6.122  -0.020 -3.4058  0.2503  0.2502
 9181SOL    HW228443   5.089   6.076   0.135  1.8515 -1.0444  0.9668
 9182SOL     OW28444   3.086   5.793   3.770  0.3103  0.0783  0.3541
 9182SOL    HW128445   3.077   5.741   3.855 -0.2045 -0.8231 -0.2363
 9182SOL    HW228446   3.009   5.773   3.709 -1.2956  3.3673  1.0304
 9183SOL     OW28447   1.230   5.481   1.739 -0.2361  0.7527 -0.0915
 9183SOL    HW128448   1.203   5.505   1.832 -0.8049  2.4496 -0.6424
 9183SOL    HW228449   1.310   5.422   1.741 -0.8715 -0.1179  1.4854
 9184SOL     OW28450   6.070   3.941   6.641 -0.1436  0.7568  0.0576
 9184SOL    HW128451   6.006   3.960   6.716  1.0159 -0.0801  1.3085
 9184SOL    HW228452   6.129   4.020   6.627  1.4827 -0.0437  1.9716
 9185SOL     OW28453   3.099   2.194   3.656 -0.3080 -0.4036  0.0221
 9185SOL    HW128454   3.097   2.142   3.741 -1.6056  0.8860  0.8330
 9185SOL    HW228455   3.006   2.205   3.620 -0.2977  2.3281  0.5772
 9186SOL     OW28456   1.913   0.930   3.323  0.2881 -0.1079  0.3336
 9186SOL    HW128457   1.852   0.901   3.397 -0.8863  0.1131 -0.5195
 9186SOL    HW228458   1.876   1.011   3.279  0.7644 -0.4558 -0.7471
 9187SOL     OW28459   5.865   1.311   1.925  0.0430  0.3117  0.4230
 9187SOL    HW128460   5.909   1.269   1.845  1.5715 -0.1745  1.4694
 9187SOL    HW228461   5.809   1.243   1.972 -1.5629  0.8218 -0.6744
 9188SOL     OW28462   5.074   5.406   5.120 -0.2449 -0.0555 -0.3675
 9188SOL    HW128463   5.025   5.477   5.171  1.0898 -1.9661  4.1469
 9188SOL    HW228464   5.023   5.320   5.125 -0.7647 -0.0677 -3.8090
 9189SOL     OW28465   6.502   3.126   4.874 -0.4856 -0.0713  0.6641
 9189SOL    HW128466   6.579   3.063   4.863 -0.2021  0.2071  1.0239
 9189SOL    HW228467   6.533   3.219   4.855 -1.4517 -0.2529 -2.3438
 9190SOL     OW28468   1.839   4.444   1.624  0.9482 -0.0135 -0.8985
 9190SOL    HW128469   1.884   4.395   1.698  0.4529  0.1618 -0.4789
 9190SOL    HW228470   1.887   4.531   1.608 -0.2777  1.0198  0.7615
 9191SOL     OW28471   5.298   4.414   6.493 -0.0838 -0.2257 -0.1525
 9191SOL    HW128472   5.334   4.464   6.415  0.8747 -1.0499 -0.2537
 9191SOL    HW228473   5.200   4.396   6.479  0.0965 -0.4533 -1.2064
 9192SOL     OW28474   1.856   3.311   5.813 -0.7957 -0.3555  0.2851
 9192SOL    HW128475   1.921   3.268   5.876 -1.1254  0.7281  1.3789
 9192SOL    HW228476   1.809   3.386   5.858 -1.9974 -0.3837 -0.8540
 9193SOL     OW28477   5.257   3.515   2.243  0.1597 -0.0245 -0.4324
 9193SOL    HW128478   5.271   3.441   2.177 -1.0395 -1.6475  1.0119
 9193SOL    HW228479   5.252   3.476   2.335 -1.6391  1.7141  0.2710
 9194SOL     OW28480   2.858   3.984   0.662 -0.2577  0.1940 -0.2353
 9194SOL    HW128481   2.924   4.057   0.679 -1.2422  1.1598 -0.4283
 9194SOL    HW228482   2.846   3.929   0.745 -0.2582  0.8953  0.2406
 9195SOL     OW28483   5.784   4.910   0.021  0.5703 -0.2981  0.0362
 9195SOL    HW128484   5.833   4.971   0.083  0.4395 -0.4874  0.3287
 9195SOL    HW228485   5.849   4.849  -0.024  0.9468  1.3345 -1.7403
 9196SOL     OW28486   5.919   5.432   3.429 -0.7187  0.2157  0.1786
 9196SOL    HW128487   5.931   5.517   3.378 -2.2088 -0.0070 -0.6113
 9196SOL    HW228488   5.909   5.356   3.364 -0.4797 -0.4040  0.8574
 9197SOL     OW28489   5.409   0.433   3.792 -0.1512  0.3243 -0.4323
 9197SOL    HW128490   5.415   0.347   3.742  0.6059  0.1768 -0.0940
 9197SOL    HW228491   5.347   0.421   3.870 -0.0802  0.0938 -0.4087
 9198SOL     OW28492   1.193   0.344   3.147  0.0379 -0.4204  0.0262
 9198SOL    HW128493   1.272   0.347   3.209 -0.2684  1.6326  0.3764
 9198SOL    HW228494   1.157   0.436   3.134 -1.3374 -1.1130 -1.4091
 9199SOL     OW28495   6.678   1.753   2.288 -0.5577 -0.2121  0.9165
 9199SOL    HW128496   6.592   1.785   2.249 -1.3942 -0.7378  2.2569
 9199SOL    HW228497   6.659   1.695   2.367  1.0276 -0.7289  0.9485
 9200SOL     OW28498   1.886   2.812   1.515  0.4448  0.0442 -0.0123
 9200SOL    HW128499   1.962   2.748   1.506  0.1617 -0.3499  0.3537
 9200SOL    HW228500   1.820   2.796   1.443 -0.5652 -1.3857  1.1588
 9201SOL     OW28501   3.752   1.067   6.447  0.5232 -0.0638  0.6407
 9201SOL    HW128502   3.694   1.114   6.380  1.0631  1.4095  1.1737
 9201SOL    HW228503   3.713   1.079   6.538  1.0313 -0.0748  0.8611
 9202SOL     OW28504   0.186   6.012   4.350  0.4589  0.3196  0.2019
 9202SOL    HW128505   0.267   6.068   4.332  0.1197  0.3172 -1.5174
 9202SOL    HW228506   0.185   5.985   4.446  3.0939 -0.6044  0.0547
 9203SOL     OW28507   1.855   4.468   0.821  0.1213 -0.6267  0.8005
 9203SOL    HW128508   1.920   4.543   0.832  1.6806 -1.2193 -2.8930
 9203SOL    HW228509   1.761   4.504   0.821  0.5863  0.7295  2.6786
 9204SOL     OW28510   1.215   4.724   6.958  0.5704 -0.6627 -0.9598
 9204SOL    HW128511   1.126   4.737   6.914  0.7007  0.2572 -0.9680
 9204SOL    HW228512   1.261   4.645   6.917  0.4743 -0.1251 -2.1367
 9205SOL     OW28513   5.136   2.132   2.503 -0.3977 -0.0794  0.1912
 9205SOL    HW128514   5.129   2.186   2.588  0.1961 -0.4630  0.4882
 9205SOL    HW228515   5.055   2.075   2.494 -0.5088  0.0311  0.4597
 9206SOL     OW28516   4.931   6.148   2.754  0.6420 -0.2625 -0.2556
 9206SOL    HW128517   4.936   6.184   2.848  1.1278  1.6836 -0.9777
 9206SOL    HW228518   4.838   6.161   2.719  0.5765 -0.5771 -0.1976
 9207SOL     OW28519   3.213   4.162   6.019 -0.2582  0.2791 -0.4479
 9207SOL    HW128520   3.200   4.071   6.060  1.0363  0.0145 -0.5637
 9207SOL    HW228521   3.136   4.182   5.958 -0.8464 -0.4979  0.0184
 9208SOL     OW28522   6.059   3.169   4.298 -0.0011  0.0808 -0.0870
 9208SOL    HW128523   5.963   3.182   4.273 -0.4837 -1.3744  0.8714
 9208SOL    HW228524   6.066   3.095   4.365  1.9794 -1.0080 -1.4145
 9209SOL     OW28525   2.460   0.574   6.222 -0.2167 -0.3093  0.1167
 9209SOL    HW128526   2.458   0.567   6.123  0.4505 -0.8022  0.1308
 9209SOL    HW228527   2.459   0.670   6.249  2.4285 -0.0403 -0.4587
 9210SOL     OW28528   1.357   3.347   3.476 -0.0121 -0.1230  0.3214
 9210SOL    HW128529   1.419   3.296   3.536  0.0960  1.2030  1.3878
 9210SOL    HW228530   1.408   3.420   3.430 -0.7718  1.1247  1.3734
 9211SOL     OW28531   5.262   4.308   3.610 -0.4989  0.2257  0.8817
 9211SOL    HW128532   5.194   4.258   3.557  1.1632 -0.7283 -0.4450
 9211SOL    HW228533   5.218   4.350   3.690 -2.5609 -0.5430  0.2111
 9212SOL     OW28534   2.751   1.635   3.335  0.1436  0.1948  0.0075
 9212SOL    HW128535   2.845   1.669   3.344  0.5302 -0.9550  0.4018
 9212SOL    HW228536   2.727   1.630   3.238  0.8334 -0.4096 -0.1384
 9213SOL     OW28537   3.778   0.104   5.694  0.6170 -0.1487  0.4503
 9213SOL    HW128538   3.691   0.111   5.646  0.3863  0.9176  0.9881
 9213SOL    HW228539   3.815   0.196   5.709  3.0211 -0.6180 -1.8727
 9214SOL     OW28540   0.979   1.000   3.821  0.4682 -0.5242  0.0272
 9214SOL    HW128541   0.881   0.994   3.840  0.6752 -1.3619  0.9229
 9214SOL    HW228542   1.022   1.065   3.883  0.1643  1.5235 -1.7974
 9215SOL     OW28543   0.916   5.827   4.690 -0.1155  0.3381 -0.0368
 9215SOL    HW128544   0.978   5.872   4.626 -1.7156  0.1421 -1.8240
 9215SOL    HW228545   0.897   5.888   4.767  1.1686  0.9388 -0.1669
 9216SOL     OW28546   5.820   3.700   5.639  0.3402 -0.4085 -0.5137
 9216SOL    HW128547   5.818   3.695   5.739 -0.6907 -0.2783 -0.5169
 9216SOL    HW228548   5.727   3.710   5.605  0.4004 -2.8306 -1.6067
 9217SOL     OW28549   5.198   4.226   4.322 -0.3337  0.4270 -0.1592
 9217SOL    HW128550   5.124   4.294   4.327  0.2299  0.9933  0.7470
 9217SOL    HW228551   5.170   4.152   4.261 -1.4007  0.9310 -0.3212
 9218SOL     OW28552   1.708   0.908   4.448 -0.1828  0.2834 -0.3196
 9218SOL    HW128553   1.756   0.947   4.370 -1.6693  1.8945 -0.5017
 9218SOL    HW228554   1.620   0.872   4.418  0.0294 -0.8030  0.3227
 9219SOL     OW28555   2.097   6.004   1.277 -0.2361 -0.4460 -0.2020
 9219SOL    HW128556   2.133   6.044   1.361 -0.1953 -2.7502  0.9621
 9219SOL    HW228557   2.156   5.929   1.247 -1.6282 -1.3445 -0.8108
 9220SOL     OW28558   6.134   6.439   2.499 -0.0602 -0.2449  0.7281
 9220SOL    HW128559   6.094   6.528   2.478 -0.4391 -0.4022  0.7662
 9220SOL    HW228560   6.103   6.372   2.431 -2.0586 -0.9732  2.2674
 9221SOL     OW28561   0.877   1.937   2.555 -0.5839 -0.0214  0.2625
 9221SOL    HW128562   0.916   1.845   2.566  1.0560  0.3347 -1.8872
 9221SOL    HW228563   0.777   1.931   2.559 -0.5366 -1.9846 -0.1682
 9222SOL     OW28564   2.077   3.667   6.509 -0.3690 -0.4184  0.7143
 9222SOL    HW128565   2.082   3.750   6.454 -2.6201  0.2913  1.4895
 9222SOL    HW228566   2.123   3.593   6.461 -1.8998  0.2564 -1.9623
 9223SOL     OW28567   4.060   4.746   6.437  0.4994 -0.2086 -0.4143
 9223SOL    HW128568   4.101   4.673   6.491  1.2255 -0.2583 -1.0118
 9223SOL    HW228569   4.125   4.776   6.367 -0.2046  0.2468 -0.8868
 9224SOL     OW28570   2.637   4.663   2.672 -0.1154  0.3883  0.0986
 9224SOL    HW128571   2.603   4.596   2.739 -0.8442 -0.0222 -0.6566
 9224SOL    HW228572   2.638   4.621   2.582  3.0754  0.1751  0.1358
 9225SOL     OW28573   4.269   0.324   6.243 -0.9655 -0.1660 -0.4610
 9225SOL    HW128574   4.227   0.275   6.319 -1.1851  0.8084  0.0694
 9225SOL    HW228575   4.228   0.415   6.235 -0.7156 -0.1331 -1.5408
 9226SOL     OW28576   5.242   4.028   3.130  0.3901  0.4586 -0.8269
 9226SOL    HW128577   5.320   4.022   3.191 -0.1476 -0.5401 -0.2214
 9226SOL    HW228578   5.224   3.939   3.087 -1.0762  0.3664 -0.0963
 9227SOL     OW28579   4.398   6.910   4.099 -0.3098 -0.9160 -0.0242
 9227SOL    HW128580   4.416   6.900   4.001  0.4354  2.5952 -0.3725
 9227SOL    HW228581   4.353   6.997   4.116 -1.4438 -1.9182  2.7226
 9228SOL     OW28582   3.159   4.074   3.112  0.2995  0.0321  0.0625
 9228SOL    HW128583   3.071   4.119   3.124  0.8797  0.6813  2.1743
 9228SOL    HW228584   3.144   3.979   3.085 -0.9647  0.7469 -2.0848
 9229SOL     OW28585   0.361   2.226   1.567 -0.0361  0.0747 -0.0949
 9229SOL    HW128586   0.365   2.289   1.491 -0.8922  1.4689  0.9750
 9229SOL    HW228587   0.391   2.135   1.537 -0.3800  0.5783 -2.0583
 9230SOL     OW28588   6.584   4.678   4.953  0.4066 -0.0410 -0.0092
 9230SOL    HW128589   6.536   4.670   4.866  1.0738  0.2491 -0.4142
 9230SOL    HW228590   6.521   4.662   5.029  0.3362 -2.7620 -0.5768
 9231SOL     OW28591   5.936   5.145   5.090 -0.0998 -0.1695  0.1735
 9231SOL    HW128592   5.837   5.143   5.104 -0.1980 -0.4144 -0.5255
 9231SOL    HW228593   5.959   5.222   5.030 -0.0125 -0.9101 -0.7509
 9232SOL     OW28594   6.209   3.354   1.441 -0.6317 -0.3232  0.8208
 9232SOL    HW128595   6.132   3.308   1.485 -1.0460 -1.3621 -0.8661
 9232SOL    HW228596   6.271   3.286   1.403 -1.3565  0.3903 -1.9071
 9233SOL     OW28597   1.210   2.618   3.255  0.3697 -0.4486 -0.4530
 9233SOL    HW128598   1.207   2.682   3.178 -0.8569 -0.3850 -0.3708
 9233SOL    HW228599   1.264   2.659   3.329  0.3368  0.1183 -0.7328
 9234SOL     OW28600   2.252   5.895   0.998  0.3258 -0.0281  0.3731
 9234SOL    HW128601   2.171   5.950   0.977  0.8048  1.0259  1.2361
 9234SOL    HW228602   2.228   5.828   1.069 -0.0889 -0.5484 -0.2371
 9235SOL     OW28603   6.772   3.723   6.325  0.0564 -0.0794 -0.2414
 9235SOL    HW128604   6.841   3.730   6.397  1.2121  0.6297 -1.3654
 9235SOL    HW228605   6.698   3.788   6.343 -0.2301 -0.6982  0.8691
 9236SOL     OW28606   1.552   5.430   2.391  0.0813  0.4030  0.9922
 9236SOL    HW128607   1.479   5.388   2.336  2.6912 -2.2606 -0.7923
 9236SOL    HW228608   1.576   5.519   2.353  0.7729 -0.7120 -1.3531
 9237SOL     OW28609   6.507   2.571   4.095 -0.3943  0.0596 -0.0853
 9237SOL    HW128610   6.591   2.559   4.043  2.1162 -2.3475  4.0133
 9237SOL    HW228611   6.458   2.483   4.101 -0.3897  0.1457  1.7970
 9238SOL     OW28612   0.124   2.237   3.309  0.3693 -0.2707 -0.3758
 9238SOL    HW128613   0.027   2.217   3.298  0.3744  0.1638 -1.3105
 9238SOL    HW228614   0.148   2.237   3.406 -0.7675  0.6203 -0.0811
 9239SOL     OW28615   1.783   1.956   1.839 -0.1484 -0.9904  0.2868
 9239SOL    HW128616   1.820   1.875   1.794  0.0826 -0.0655 -1.3019
 9239SOL    HW228617   1.783   2.032   1.774 -3.7429 -0.6032  0.5362
 9240SOL     OW28618   2.723   5.708   4.454 -0.1883  0.6746 -0.3045
 9240SOL    HW128619   2.813   5.746   4.479  0.6536 -2.7141  2.7227
 9240SOL    HW228620   2.736   5.631   4.392 -0.8641 -0.3887  0.8448
 9241SOL     OW28621   6.699   6.584   3.873  0.1220 -0.1545  0.2978
 9241SOL    HW128622   6.694   6.674   3.916  0.3494  0.2541 -0.4987
 9241SOL    HW228623   6.646   6.518   3.926  0.3987  0.3233  1.1931
 9242SOL     OW28624   4.951   1.951   2.124 -0.0239 -0.2258  0.2351
 9242SOL    HW128625   4.993   2.037   2.155 -1.3680 -0.5386  3.2073
 9242SOL    HW228626   4.853   1.953   2.143 -0.2254 -2.1215 -0.4068
 9243SOL     OW28627   3.384   4.353   1.129 -0.5120  0.1548 -0.2853
 9243SOL    HW128628   3.382   4.318   1.223 -2.6627 -0.3030 -0.4391
 9243SOL    HW228629   3.466   4.319   1.083  0.9711  0.9810  1.6076
 9244SOL     OW28630   3.438   0.709   3.743  0.3672  0.2755 -0.2885
 9244SOL    HW128631   3.525   0.704   3.695  0.2235 -1.0270 -0.4387
 9244SOL    HW228632   3.366   0.669   3.686 -0.2776  1.0338 -0.0290
 9245SOL     OW28633   2.388   6.690   4.875  0.2143  0.0727  0.4051
 9245SOL    HW128634   2.391   6.788   4.891  1.5048 -0.0009  0.7247
 9245SOL    HW228635   2.310   6.668   4.818  0.3981  1.4015 -0.4009
 9246SOL     OW28636   2.941   5.432   4.952 -0.0708 -0.7771  0.0772
 9246SOL    HW128637   2.977   5.514   4.996  0.6019 -1.9885  1.9110
 9246SOL    HW228638   3.016   5.371   4.927 -0.5244 -0.6211 -1.7740
 9247SOL     OW28639   2.493   6.239   1.311  0.3216  1.1269  0.7620
 9247SOL    HW128640   2.532   6.229   1.219 -3.5637 -3.1984 -0.7884
 9247SOL    HW228641   2.406   6.288   1.305  0.3186  1.3469  2.2858
 9248SOL     OW28642   3.223   4.398   6.149  0.4294 -0.4138 -0.1960
 9248SOL    HW128643   3.146   4.410   6.212  0.0903  0.3682 -0.7365
 9248SOL    HW228644   3.216   4.309   6.104 -0.1231 -0.3861 -0.1763
 9249SOL     OW28645   4.115   5.381   4.734 -0.1625  0.2125 -0.1463
 9249SOL    HW128646   4.125   5.475   4.702 -0.5678  0.9089  1.6345
 9249SOL    HW228647   4.202   5.348   4.770 -0.2697  0.3137  0.2162
 9250SOL     OW28648   2.419   4.401   4.214 -0.0436  0.0319 -0.4925
 9250SOL    HW128649   2.402   4.302   4.223  1.0183 -0.2116 -1.0284
 9250SOL    HW228650   2.440   4.439   4.303  1.2740 -0.5746 -0.5266
 9251SOL     OW28651   6.024   3.980   2.612 -0.1271  0.2603  0.3983
 9251SOL    HW128652   6.071   3.999   2.699 -0.6933  0.1369  0.7331
 9251SOL    HW228653   6.078   3.915   2.559 -1.1901 -2.0332  1.9625
 9252SOL     OW28654   1.870   4.123   3.702 -0.1451 -0.0572 -0.4512
 9252SOL    HW128655   1.805   4.066   3.651  0.8984 -0.9255 -0.8329
 9252SOL    HW228656   1.915   4.186   3.638  0.0377 -0.0794 -0.3433
 9253SOL     OW28657   6.817   1.122   1.333  0.1987  0.0937 -0.1120
 9253SOL    HW128658   6.830   1.202   1.392  0.2626 -0.5961  0.8378
 9253SOL    HW228659   6.906   1.089   1.302  0.1900  0.2306 -0.2831
 9254SOL     OW28660   0.327   1.995   6.317 -0.2189  0.5797  0.3376
 9254SOL    HW128661   0.238   1.957   6.345  0.1197 -0.7990 -0.3434
 9254SOL    HW228662   0.342   2.082   6.363 -1.5402  0.4218  1.1325
 9255SOL     OW28663   1.319   5.043   3.350  0.1554  0.2465 -0.2372
 9255SOL    HW128664   1.344   4.951   3.319  0.5722  0.1173  0.4525
 9255SOL    HW228665   1.357   5.111   3.288  0.0758 -0.0397 -0.5999
 9256SOL     OW28666   5.358   6.234   2.184 -0.8848  0.0593 -0.6063
 9256SOL    HW128667   5.301   6.315   2.194 -0.9986 -0.0238 -0.5870
 9256SOL    HW228668   5.447   6.251   2.228 -1.4593 -0.3950  0.7810
 9257SOL     OW28669   5.835   6.094   4.511 -0.2757 -0.1959 -0.2249
 9257SOL    HW128670   5.902   6.023   4.490 -0.4996 -0.2426 -0.8107
 9257SOL    HW228671   5.878   6.184   4.503  0.3553 -0.2780  1.7809
 9258SOL     OW28672   4.034   4.849   2.347  0.2631 -0.2515  0.1483
 9258SOL    HW128673   3.943   4.851   2.306  0.5655 -1.0300 -0.5785
 9258SOL    HW228674   4.087   4.927   2.316  0.5523 -0.9320 -1.1150
 9259SOL     OW28675   1.899   3.218   5.566 -0.2951  0.5845 -0.1352
 9259SOL    HW128676   1.981   3.275   5.560 -0.3565  0.7815  0.7819
 9259SOL    HW228677   1.849   3.239   5.650  0.1690 -1.4371  0.7246
 9260SOL     OW28678   2.325   4.256   2.522 -0.8175 -0.8354  0.3102
 9260SOL    HW128679   2.256   4.329   2.516  1.2866  1.2265 -0.5415
 9260SOL    HW228680   2.283   4.173   2.559 -2.9040  1.3951  3.5273
 9261SOL     OW28681   0.286   4.147   6.764 -0.6363  0.0562  0.1541
 9261SOL    HW128682   0.188   4.162   6.780 -0.7721 -0.4859 -0.1661
 9261SOL    HW228683   0.316   4.204   6.688 -1.1825 -1.3283 -1.1498
 9262SOL     OW28684   3.933   2.026   4.874  0.2531  0.3804 -0.0722
 9262SOL    HW128685   3.964   2.121   4.884  0.6066  0.4304 -1.4369
 9262SOL    HW228686   4.012   1.967   4.859 -0.0812  0.1376 -0.9798
 9263SOL     OW28687   0.458   2.355   0.718  0.1351 -0.1908  0.2718
 9263SOL    HW128688   0.488   2.427   0.780  1.7381  0.8432 -1.5797
 9263SOL    HW228689   0.478   2.266   0.758  1.9218  0.4515  0.9080
 9264SOL     OW28690   0.003   6.604   3.465 -0.2487 -0.0606  0.3010
 9264SOL    HW128691  -0.015   6.583   3.561  1.1936 -0.3134  0.5478
 9264SOL    HW228692   0.100   6.590   3.446 -0.2649  1.2132 -0.8855
 9265SOL     OW28693   0.327   0.117   3.789  0.1229 -0.1085  0.3043
 9265SOL    HW128694   0.421   0.151   3.783 -0.0956  0.6408  0.8890
 9265SOL    HW228695   0.311   0.050   3.717  0.2904  1.7543 -1.5542
 9266SOL     OW28696   0.465   5.358   3.617 -0.9025 -0.3504  0.0825
 9266SOL    HW128697   0.390   5.336   3.679 -1.7357  0.0531 -0.7688
 9266SOL    HW228698   0.544   5.301   3.639 -2.3249 -2.7838 -0.7730
 9267SOL     OW28699   4.064   6.211   2.613  0.1423 -0.2157  0.1919
 9267SOL    HW128700   4.152   6.164   2.613 -0.3162 -1.1345  1.7476
 9267SOL    HW228701   4.026   6.209   2.520  0.9879 -1.2986 -0.1555
 9268SOL     OW28702   2.833   2.631   0.834  0.3471 -0.3274 -0.7636
 9268SOL    HW128703   2.872   2.569   0.902 -0.5842  0.4736  0.5387
 9268SOL    HW228704   2.801   2.578   0.755  0.1089 -1.4415  0.0543
 9269SOL     OW28705   4.987   4.558   3.442 -0.2330 -0.5631  0.3923
 9269SOL    HW128706   4.952   4.579   3.350  0.3639 -0.5948  0.1497
 9269SOL    HW228707   4.967   4.463   3.465  2.2168 -1.4903 -0.9580
 9270SOL     OW28708   1.854   1.791   2.457 -0.3421  0.0074 -0.6019
 9270SOL    HW128709   1.767   1.825   2.421 -1.1469 -0.8971  0.4490
 9270SOL    HW228710   1.926   1.858   2.436 -1.6863  1.9250  0.5648
 9271SOL     OW28711   3.681   1.437   4.918 -0.6098 -0.7403 -0.2328
 9271SOL    HW128712   3.607   1.501   4.940  0.2497  0.0104  0.6203
 9271SOL    HW228713   3.691   1.429   4.819 -1.5404 -0.5061 -0.3495
 9272SOL     OW28714   2.484   1.110   6.403 -0.0047  0.0181  0.4791
 9272SOL    HW128715   2.423   1.111   6.482 -0.3694  0.0364  0.2033
 9272SOL    HW228716   2.565   1.055   6.423 -1.2408 -2.0525  0.0294
 9273SOL     OW28717   2.716   1.457   4.760  0.6412 -0.3229 -0.6819
 9273SOL    HW128718   2.626   1.502   4.754  0.6959  0.0614  0.9057
 9273SOL    HW228719   2.722   1.387   4.689 -0.6971  0.0033 -1.1691
 9274SOL     OW28720   6.719   0.312   0.518  0.0002 -0.7427  0.3772
 9274SOL    HW128721   6.723   0.253   0.599  0.7934  2.9338  3.3150
 9274SOL    HW228722   6.624   0.326   0.491 -0.2418 -2.5089  0.2222
 9275SOL     OW28723   5.089   2.858   3.441  0.0139 -0.2548  0.5534
 9275SOL    HW128724   5.115   2.891   3.532  1.1367  0.8757 -0.1584
 9275SOL    HW228725   4.989   2.848   3.437  0.0008 -1.2385  2.1899
 9276SOL     OW28726   5.723   2.206   5.202 -0.4191 -0.3838 -0.4184
 9276SOL    HW128727   5.694   2.266   5.276 -0.3857 -0.9727  0.0752
 9276SOL    HW228728   5.698   2.248   5.114 -1.1051 -0.0126 -0.0588
 9277SOL     OW28729   5.656   4.518   2.258 -0.8461 -0.0615  0.3556
 9277SOL    HW128730   5.627   4.425   2.236 -1.1525 -0.0604  0.7468
 9277SOL    HW228731   5.748   4.534   2.222 -0.5818 -0.6869  0.7307
 9278SOL     OW28732   2.384   0.925   4.150 -0.0311  0.1154  0.1478
 9278SOL    HW128733   2.291   0.950   4.177 -0.0219 -1.3013  1.6746
 9278SOL    HW228734   2.386   0.908   4.051 -1.5883 -0.6090  0.2013
 9279SOL     OW28735   5.172   5.497   2.805 -0.5326  0.1714 -0.1023
 9279SOL    HW128736   5.101   5.447   2.855 -1.4118 -0.0295 -1.5088
 9279SOL    HW228737   5.185   5.456   2.715  0.6317  0.8635 -0.2721
 9280SOL     OW28738   3.322   2.104   3.531 -0.4230 -0.6580 -0.3468
 9280SOL    HW128739   3.353   2.108   3.436 -0.7364 -2.5563 -0.5581
 9280SOL    HW228740   3.235   2.152   3.540  0.5607  1.2801 -0.5645
 9281SOL     OW28741   5.776   6.066   2.879  0.3213 -0.1469  0.0475
 9281SOL    HW128742   5.755   6.011   2.798  1.7066 -0.2203 -0.2792
 9281SOL    HW228743   5.872   6.057   2.901 -0.0437 -0.1397  1.7345
 9282SOL     OW28744   3.973   1.849   1.922  0.0992  0.2333 -0.3466
 9282SOL    HW128745   3.956   1.938   1.963 -0.1882  0.0016  0.0399
 9282SOL    HW228746   3.927   1.843   1.833  0.3198  0.5565 -0.4828
 9283SOL     OW28747   1.378   6.799   3.777 -0.2517  0.0365 -0.8276
 9283SOL    HW128748   1.290   6.764   3.747  0.2507 -0.2813 -1.9674
 9283SOL    HW228749   1.369   6.895   3.803 -0.6802  0.3658 -2.1422
 9284SOL     OW28750   0.192   5.193   6.177 -1.1931 -0.2208 -0.2012
 9284SOL    HW128751   0.123   5.264   6.165 -0.6908  0.2442 -0.3541
 9284SOL    HW228752   0.175   5.119   6.111 -1.3967  0.0089 -0.4091
 9285SOL     OW28753   0.062   3.591   3.133  0.5208 -0.6803  0.0045
 9285SOL    HW128754   0.041   3.506   3.083 -1.0902 -1.1665  1.4052
 9285SOL    HW228755   0.012   3.667   3.091 -0.1275 -0.9214  0.3340
 9286SOL     OW28756   0.488   6.113   2.968 -0.0436  0.2812 -0.3779
 9286SOL    HW128757   0.546   6.033   2.975 -0.2165  0.2336  0.5969
 9286SOL    HW228758   0.422   6.113   3.043  0.3884  1.6747  0.0284
 9287SOL     OW28759   1.863   6.709   5.745 -0.3069  0.2381  0.1350
 9287SOL    HW128760   1.918   6.690   5.826  1.0986 -0.8183 -1.0085
 9287SOL    HW228761   1.889   6.797   5.707  1.2019 -0.5696 -0.8114
 9288SOL     OW28762   5.648   0.031   2.157  0.2473 -0.3019  0.0338
 9288SOL    HW128763   5.739  -0.008   2.171  0.6251  0.6814  0.3936
 9288SOL    HW228764   5.621   0.083   2.238 -0.9555 -1.1728  0.2316
 9289SOL     OW28765   1.225   1.096   0.659  0.7325  0.1477  0.1836
 9289SOL    HW128766   1.275   1.015   0.628  1.6529 -0.9716  4.0658
 9289SOL    HW228767   1.290   1.165   0.690 -0.0951  1.9941 -1.8934
 9290SOL     OW28768   5.422   4.087   5.868 -0.0997 -0.5395 -0.2531
 9290SOL    HW128769   5.348   4.134   5.819  0.9304  1.2979 -0.1299
 9290SOL    HW228770   5.385   4.044   5.950 -0.6883  2.7737  1.3886
 9291SOL     OW28771   3.086   5.729   5.607 -0.4105  0.3431  0.2138
 9291SOL    HW128772   3.004   5.708   5.553 -0.7865  2.9080 -0.3019
 9291SOL    HW228773   3.145   5.648   5.609 -1.2728 -0.4764 -2.4395
 9292SOL     OW28774   3.878   3.135   0.772 -0.1187 -0.1463  0.2268
 9292SOL    HW128775   3.963   3.188   0.767 -1.0721  1.5619  1.3435
 9292SOL    HW228776   3.891   3.055   0.831  1.0350 -0.6016 -0.6121
 9293SOL     OW28777   4.851   2.388   1.689  0.4231  0.1422 -0.0674
 9293SOL    HW128778   4.813   2.360   1.601 -1.4038  1.4933  0.2468
 9293SOL    HW228779   4.891   2.308   1.735 -1.8339 -1.3382 -0.5435
 9294SOL     OW28780   4.807   5.794   4.500  0.2128 -0.2977 -0.3446
 9294SOL    HW128781   4.756   5.720   4.543  0.7094  1.1334  3.0253
 9294SOL    HW228782   4.905   5.784   4.521  0.6931 -0.1851 -2.2973
 9295SOL     OW28783   3.989   2.586   0.235  0.3981 -0.1622 -0.3087
 9295SOL    HW128784   3.909   2.586   0.294  0.3518 -0.1734 -0.3712
 9295SOL    HW228785   3.999   2.496   0.192  0.0794  0.0280 -0.7938
 9296SOL     OW28786   1.410   1.814   2.595  0.0494 -0.0023  0.0282
 9296SOL    HW128787   1.451   1.728   2.627  0.2229  0.7089  1.8230
 9296SOL    HW228788   1.363   1.859   2.671  0.4885  1.8029 -0.7216
 9297SOL     OW28789   5.552   2.810   1.575  0.0513 -0.6689  0.1799
 9297SOL    HW128790   5.619   2.879   1.603 -1.1427  1.2148 -1.3309
 9297SOL    HW228791   5.496   2.783   1.653 -0.3554  1.1285  0.5437
 9298SOL     OW28792   0.680   3.368   2.109 -0.2111  0.2816 -0.8858
 9298SOL    HW128793   0.734   3.402   2.186 -1.0467  0.8932 -0.5622
 9298SOL    HW228794   0.724   3.286   2.072  0.7257  0.5406 -0.3824
 9299SOL     OW28795   4.429   3.938   0.250 -0.2122  0.4214  0.4172
 9299SOL    HW128796   4.465   4.017   0.202 -1.5618  1.3728  0.8970
 9299SOL    HW228797   4.500   3.869   0.260  1.3607  2.0689  1.0706
 9300SOL     OW28798   3.780   6.851   5.520  0.2867 -0.2323  0.4426
 9300SOL    HW128799   3.851   6.836   5.451  0.8623 -0.4931  1.0818
 9300SOL    HW228800   3.768   6.949   5.536 -1.3581 -0.0321 -1.5583
 9301SOL     OW28801   5.178   0.655   0.396  0.0286  0.4655 -0.2208
 9301SOL    HW128802   5.153   0.717   0.470  2.3979  2.3180 -0.8706
 9301SOL    HW228803   5.108   0.659   0.324 -1.5415 -0.2461  1.1986
 9302SOL     OW28804   5.246   4.073   4.527 -0.2428 -0.0172 -0.1755
 9302SOL    HW128805   5.260   3.983   4.487 -2.5491  0.0446 -1.2940
 9302SOL    HW228806   5.215   4.137   4.456 -0.6877  1.1056  0.9874
 9303SOL     OW28807   1.641   0.660   6.938 -0.3493  0.0428  0.0942
 9303SOL    HW128808   1.541   0.673   6.937 -0.1195  2.8505  1.5570
 9303SOL    HW228809   1.666   0.604   7.017 -0.7755 -1.2438 -0.6587
 9304SOL     OW28810   6.310   1.345   3.531  0.0906  0.3582 -1.2871
 9304SOL    HW128811   6.392   1.397   3.508  1.6339 -2.0072 -1.4851
 9304SOL    HW228812   6.275   1.299   3.450  0.6607 -1.3910 -0.5971
 9305SOL     OW28813   5.733   5.150   2.059  0.3496 -1.1404  0.4726
 9305SOL    HW128814   5.698   5.061   2.029  1.2535 -1.2110 -0.4054
 9305SOL    HW228815   5.737   5.152   2.159 -4.6438 -0.1730  0.8923
 9306SOL     OW28816   5.042   6.907   0.434 -0.1003  0.3906  0.4368
 9306SOL    HW128817   5.016   7.003   0.433 -1.2743  0.0859  0.7796
 9306SOL    HW228818   5.059   6.876   0.340 -0.2060  0.7934  0.2842
 9307SOL     OW28819   4.435   5.646   6.613  0.6526 -0.1267  0.5169
 9307SOL    HW128820   4.419   5.568   6.552 -0.4925  1.1174 -0.8669
 9307SOL    HW228821   4.478   5.614   6.697 -0.1760 -2.3209  0.1913
 9308SOL     OW28822   2.012   2.270   6.489 -0.0616  0.2317  0.1801
 9308SOL    HW128823   2.049   2.358   6.460 -0.3280  0.8190  1.5083
 9308SOL    HW228824   1.924   2.254   6.444 -0.0105  0.6506 -0.0748
 9309SOL     OW28825   0.392   1.208   5.180 -0.4263  0.4391  0.2174
 9309SOL    HW128826   0.448   1.137   5.137 -1.0683  0.8943 -1.4845
 9309SOL    HW228827   0.298   1.176   5.188 -0.5488  0.7897  0.1920
 9310SOL     OW28828   1.726   5.858   2.431  0.5140  0.0969 -0.2703
 9310SOL    HW128829   1.676   5.854   2.518  1.0973 -2.9369  0.0224
 9310SOL    HW228830   1.662   5.872   2.356 -0.3541 -0.2046  0.4047
 9311SOL     OW28831   5.272   4.732   1.451 -0.4847  0.3403  0.4199
 9311SOL    HW128832   5.264   4.638   1.482 -0.4023 -0.0421 -0.6565
 9311SOL    HW228833   5.238   4.739   1.357 -0.5692  1.4045  0.5114
 9312SOL     OW28834   5.282   0.050   2.751  0.3024 -0.1216 -0.1878
 9312SOL    HW128835   5.352   0.035   2.681  0.7972 -2.3601  0.6929
 9312SOL    HW228836   5.204   0.098   2.711  1.2848  0.1924 -1.8173
 9313SOL     OW28837   6.737   4.606   6.190 -0.1267 -0.4945  0.0295
 9313SOL    HW128838   6.795   4.586   6.111  1.9372  1.4557  0.9293
 9313SOL    HW228839   6.670   4.532   6.203  2.0277 -2.8052 -1.1852
 9314SOL     OW28840   4.601   4.840   5.390  0.2171 -0.3600  0.1510
 9314SOL    HW128841   4.555   4.822   5.303 -1.2880 -1.0099  1.0486
 9314SOL    HW228842   4.534   4.868   5.458  1.0020 -2.0991  1.7264
 9315SOL     OW28843   1.639   4.287   4.462  0.0456  0.2566  0.0876
 9315SOL    HW128844   1.655   4.192   4.491 -0.0681  0.2686  0.1910
 9315SOL    HW228845   1.563   4.289   4.397  1.3465  0.0193 -1.5034
 9316SOL     OW28846   4.708   1.738   1.271  0.0490  0.2884  0.1653
 9316SOL    HW128847   4.668   1.804   1.334 -0.8861 -0.1806  0.0740
 9316SOL    HW228848   4.640   1.710   1.203  1.3983  1.7760 -1.8985
 9317SOL     OW28849   6.000   1.650   6.003 -0.5605 -0.2167 -0.3153
 9317SOL    HW128850   6.081   1.699   6.034 -0.3168  0.3938 -1.8184
 9317SOL    HW228851   5.918   1.694   6.041 -0.2699  0.3782 -0.3610
 9318SOL     OW28852   2.023   5.165   2.239  0.4338 -0.3233  0.3451
 9318SOL    HW128853   1.967   5.128   2.312 -1.6560 -1.3766 -1.6515
 9318SOL    HW228854   2.049   5.260   2.260 -0.2857 -0.5220  2.2766
 9319SOL     OW28855   0.747   5.316   1.972  0.0645  0.2400 -0.0830
 9319SOL    HW128856   0.820   5.311   1.904 -0.9364 -0.4178 -1.1570
 9319SOL    HW228857   0.666   5.358   1.931 -1.2050 -1.9064  0.0408
 9320SOL     OW28858   2.354   6.882   1.398 -0.3537  0.1026  0.3566
 9320SOL    HW128859   2.440   6.830   1.398 -0.3395  0.1259  0.4372
 9320SOL    HW228860   2.323   6.895   1.304  0.7102  1.7173  0.1848
 9321SOL     OW28861   3.405   1.320   5.009  0.1511 -0.1845  0.2433
 9321SOL    HW128862   3.416   1.418   4.992 -0.1752  0.2475  2.2190
 9321SOL    HW228863   3.319   1.289   4.968  1.3702 -0.2501 -2.4790
 9322SOL     OW28864   2.939   1.027   1.159 -0.8858 -0.0891 -0.2425
 9322SOL    HW128865   2.955   0.966   1.081  2.5085  1.1322 -0.7154
 9322SOL    HW228866   2.998   1.000   1.235 -1.0554  1.1682  0.3601
 9323SOL     OW28867   3.889   1.340   6.245 -0.3265  0.0933  0.0926
 9323SOL    HW128868   3.831   1.362   6.323 -0.2011  0.5953  0.0462
 9323SOL    HW228869   3.915   1.424   6.197  1.5321  0.0260  0.8891
 9324SOL     OW28870   1.497   3.557   3.390  0.5881 -0.2407 -0.3542
 9324SOL    HW128871   1.592   3.563   3.359  1.2735 -2.1620  1.1336
 9324SOL    HW228872   1.448   3.639   3.362  2.4277  0.4075 -1.9598
 9325SOL     OW28873   0.166   1.693   1.700  0.0731 -0.0427  0.2313
 9325SOL    HW128874   0.183   1.612   1.646 -0.7069 -0.2130  0.2193
 9325SOL    HW228875   0.245   1.714   1.757  0.2308 -0.8868  0.3266
 9326SOL     OW28876   6.265   0.586   1.898  0.0456  0.1695  0.4089
 9326SOL    HW128877   6.241   0.532   1.978  1.1663  0.5281  1.0147
 9326SOL    HW228878   6.268   0.527   1.817 -0.7275 -0.2678  0.6955
 9327SOL     OW28879   6.626   3.804   6.728 -0.2529  0.3731  0.0575
 9327SOL    HW128880   6.607   3.810   6.826  2.1746 -2.4011  0.8537
 9327SOL    HW228881   6.580   3.724   6.690  1.1028 -0.2446 -0.3527
 9328SOL     OW28882   1.727   1.258   5.512 -0.1839 -0.3831 -0.0651
 9328SOL    HW128883   1.721   1.354   5.483  2.0867  0.4989  2.0377
 9328SOL    HW228884   1.639   1.229   5.549 -0.1156  2.0012  2.2484
 9329SOL     OW28885   6.158   1.778   0.344  0.2851 -0.5403 -0.2960
 9329SOL    HW128886   6.212   1.731   0.275  0.9724  1.6952 -1.3651
 9329SOL    HW228887   6.217   1.805   0.420 -0.0522 -1.1524  0.1906
 9330SOL     OW28888   1.653   1.340   4.308 -0.4605  0.3741 -0.0351
 9330SOL    HW128889   1.662   1.433   4.273 -0.6042  0.6538  0.6528
 9330SOL    HW228890   1.568   1.300   4.276 -0.5608  0.6035 -0.0537
 9331SOL     OW28891   1.230   1.534   6.772  0.7598  0.0614  0.9845
 9331SOL    HW128892   1.318   1.488   6.765 -0.2022 -1.7581 -0.0230
 9331SOL    HW228893   1.233   1.621   6.723  2.0958  0.2628  1.3810
 9332SOL     OW28894   4.354   2.420   2.625 -0.2008 -0.1549 -0.1271
 9332SOL    HW128895   4.370   2.401   2.528 -0.1661  0.4445 -0.2426
 9332SOL    HW228896   4.261   2.392   2.650 -0.5810  0.6587 -0.5919
 9333SOL     OW28897   1.197   0.257   5.161 -0.0558  0.2760  0.1995
 9333SOL    HW128898   1.248   0.270   5.246 -0.0032 -0.8491  0.3558
 9333SOL    HW228899   1.185   0.159   5.144  0.4930  0.4643 -1.4222
 9334SOL     OW28900   0.097   3.528   2.321  0.2916 -0.8136 -0.9063
 9334SOL    HW128901   0.088   3.455   2.390 -0.0493 -0.0097 -0.0845
 9334SOL    HW228902   0.065   3.494   2.233 -0.6277 -1.4105 -0.3639
 9335SOL     OW28903   4.659   0.861   3.414  0.5529  0.2716 -0.6064
 9335SOL    HW128904   4.689   0.779   3.462  0.8769  1.1749  0.7716
 9335SOL    HW228905   4.693   0.942   3.461 -1.2757  1.2641 -0.9016
 9336SOL     OW28906   4.628   4.697   6.554 -0.2564  0.5086  0.2083
 9336SOL    HW128907   4.661   4.694   6.648  0.6332 -1.6776 -0.1056
 9336SOL    HW228908   4.670   4.623   6.501  0.0083  2.2583 -2.1926
 9337SOL     OW28909   5.908   0.472   4.999  0.2928 -0.1094 -0.0082
 9337SOL    HW128910   5.825   0.441   5.046 -0.9110  1.1263 -1.2553
 9337SOL    HW228911   5.982   0.408   5.020 -0.7083 -0.7737  1.8458
 9338SOL     OW28912   4.856   1.817   2.956  0.2419  0.2730 -0.2273
 9338SOL    HW128913   4.776   1.822   2.897  0.9658  0.9602 -1.1833
 9338SOL    HW228914   4.880   1.721   2.972 -0.6405  0.0725 -0.1017
 9339SOL     OW28915   5.884   0.027   1.952 -0.2552  0.0816 -0.0741
 9339SOL    HW128916   5.848   0.057   1.863  1.5699 -0.6484 -1.1259
 9339SOL    HW228917   5.970   0.073   1.970  2.2808 -3.6538 -1.4120
 9340SOL     OW28918   5.075   1.012   0.745  0.4913  0.2115 -0.1874
 9340SOL    HW128919   5.067   0.965   0.833 -1.1361 -1.1966 -1.0400
 9340SOL    HW228920   5.130   1.095   0.757  1.3573 -0.5922  1.8751
 9341SOL     OW28921   1.639   0.688   2.446  0.0996 -0.7104  0.2364
 9341SOL    HW128922   1.624   0.745   2.366  1.8435  0.0560  0.4335
 9341SOL    HW228923   1.694   0.737   2.513 -2.8723 -0.5671  2.8146
 9342SOL     OW28924   4.494   2.691   0.506  0.7164  0.0659  0.3849
 9342SOL    HW128925   4.491   2.785   0.540  0.3942  0.2158 -0.0474
 9342SOL    HW228926   4.574   2.680   0.446  0.2104  0.3457 -0.3563
 9343SOL     OW28927   4.487   6.605   0.881 -0.5823  0.0808  0.1916
 9343SOL    HW128928   4.548   6.636   0.809 -0.5207 -3.4471 -1.5221
 9343SOL    HW228929   4.540   6.584   0.963  0.1883 -0.6163 -0.4635
 9344SOL     OW28930   4.639   1.765   5.767  0.0336  0.0786 -0.3074
 9344SOL    HW128931   4.574   1.704   5.721 -0.1300 -0.4248  0.5684
 9344SOL    HW228932   4.685   1.715   5.841  0.6121  0.7459 -0.2050
 9345SOL     OW28933   1.307   1.045   1.212  0.1761 -0.2059 -0.0862
 9345SOL    HW128934   1.209   1.029   1.216  0.2509 -0.4686  1.0923
 9345SOL    HW228935   1.340   1.077   1.301  1.3147 -1.1200 -0.1482
 9346SOL     OW28936   2.941   2.210   0.494  0.0904 -0.1024  0.4613
 9346SOL    HW128937   2.850   2.200   0.455  1.0421 -0.3902 -1.8455
 9346SOL    HW228938   2.963   2.130   0.550  0.5533 -2.3480 -2.6543
 9347SOL     OW28939   3.243   3.941   3.518  0.8187  0.3739 -0.4419
 9347SOL    HW128940   3.275   4.029   3.551  1.4078  0.0398 -0.1061
 9347SOL    HW228941   3.321   3.883   3.495  0.6220 -1.1504  2.2562
 9348SOL     OW28942   6.667   5.673   2.748  0.1291  0.4865 -0.4467
 9348SOL    HW128943   6.624   5.746   2.694 -0.6526  1.8676  1.8642
 9348SOL    HW228944   6.727   5.714   2.817 -0.2709 -1.0271  0.8645
 9349SOL     OW28945   5.451   3.049   0.673  0.1395 -0.2165 -0.2066
 9349SOL    HW128946   5.488   3.135   0.638 -1.5305  1.0424  0.9454
 9349SOL    HW228947   5.525   2.993   0.709  1.1707  1.1985 -0.0254
 9350SOL     OW28948   0.469   0.125   1.760  1.1179 -0.4162 -0.3246
 9350SOL    HW128949   0.510   0.186   1.827 -1.0693  0.6432  0.1236
 9350SOL    HW228950   0.435   0.043   1.805  0.7617 -0.2740 -0.3317
 9351SOL     OW28951   1.848   5.269   4.773 -0.3689 -0.0026  0.4625
 9351SOL    HW128952   1.943   5.236   4.767 -1.0859 -2.2535  0.5000
 9351SOL    HW228953   1.848   5.366   4.797  1.9166 -0.3084  2.0592
 9352SOL     OW28954   3.944   5.543   2.966 -0.3249 -0.5162 -0.3271
 9352SOL    HW128955   3.877   5.561   3.038  0.0540  0.6509 -0.2500
 9352SOL    HW228956   3.901   5.488   2.894 -0.8718 -1.2019  0.5024
 9353SOL     OW28957   2.118   1.060   4.776  0.2646  0.2641  0.2646
 9353SOL    HW128958   2.097   1.138   4.835  0.1365 -0.8009  1.6856
 9353SOL    HW228959   2.216   1.060   4.755  0.4415  0.2828  1.0581
 9354SOL     OW28960   1.898   6.224   1.231  0.1723 -0.1229 -0.3612
 9354SOL    HW128961   1.831   6.208   1.158 -0.1241  0.0140 -0.1190
 9354SOL    HW228962   1.974   6.160   1.220 -0.6676 -1.2444  0.1810
 9355SOL     OW28963   6.559   2.669   4.820  0.2873 -0.5165 -0.2465
 9355SOL    HW128964   6.512   2.742   4.869  0.2388 -1.0291  0.4953
 9355SOL    HW228965   6.566   2.692   4.723 -1.4041 -0.3835 -0.3679
 9356SOL     OW28966   6.608   1.246   0.075  0.3223 -0.6298  0.1004
 9356SOL    HW128967   6.556   1.165   0.048 -0.6700 -0.1174  0.4233
 9356SOL    HW228968   6.546   1.324   0.081  1.5115  0.5449 -1.8288
 9357SOL     OW28969   2.537   5.059   4.559  0.1555 -0.1484  0.4475
 9357SOL    HW128970   2.452   5.038   4.607 -0.1548 -2.1553 -0.8827
 9357SOL    HW228971   2.578   4.975   4.524  1.2362  1.0538 -1.3736
 9358SOL     OW28972   0.490   4.369   0.512  0.0738  0.3635 -0.3303
 9358SOL    HW128973   0.550   4.321   0.576 -0.5034  0.8501  0.6064
 9358SOL    HW228974   0.480   4.314   0.429 -0.7622 -1.2968  0.7957
 9359SOL     OW28975   1.064   0.459   6.856  0.1410  0.2136  0.0561
 9359SOL    HW128976   1.062   0.403   6.939 -1.6417  0.1890  0.0320
 9359SOL    HW228977   1.074   0.400   6.776 -1.3011 -0.0775  0.0628
 9360SOL     OW28978   6.008   5.670   1.663 -0.0287  0.4605 -0.1852
 9360SOL    HW128979   5.960   5.748   1.623 -0.2919 -0.2388 -1.2505
 9360SOL    HW228980   6.101   5.698   1.687 -1.3337  2.3541  3.5342
 9361SOL     OW28981   2.269   5.373   4.824  0.2494  0.4708  0.2094
 9361SOL    HW128982   2.224   5.446   4.876  0.1040  0.9562 -0.5965
 9361SOL    HW228983   2.355   5.406   4.787  0.7630 -0.1294  0.8180
 9362SOL     OW28984   5.768   0.466   2.455 -0.1952  0.4815 -0.3971
 9362SOL    HW128985   5.679   0.481   2.499 -0.2530 -1.5071  0.2831
 9362SOL    HW228986   5.771   0.373   2.419  0.9520  1.1310 -2.0844
 9363SOL     OW28987   3.055   6.446   6.404 -0.0968 -0.1734 -0.2010
 9363SOL    HW128988   2.956   6.443   6.413 -0.3824 -1.3945 -2.9826
 9363SOL    HW228989   3.082   6.536   6.370 -0.3011 -0.0327  0.0043
 9364SOL     OW28990   3.783   5.651   0.140  0.0734 -0.7044 -0.4333
 9364SOL    HW128991   3.804   5.701   0.223  1.6646  0.5494 -1.5340
 9364SOL    HW228992   3.766   5.715   0.065  0.0539 -1.7914 -1.3987
 9365SOL     OW28993   1.451   1.385   4.068  0.0619 -0.0642  0.2283
 9365SOL    HW128994   1.355   1.357   4.063  0.5309 -1.8249  0.2802
 9365SOL    HW228995   1.457   1.484   4.073 -1.6841  0.2218 -1.9634
 9366SOL     OW28996   5.678   4.896   1.960  0.2338 -0.2092  0.3462
 9366SOL    HW128997   5.775   4.872   1.972  0.1877 -0.7161 -0.2288
 9366SOL    HW228998   5.624   4.812   1.951 -0.4421  0.0345  1.9108
 9367SOL     OW28999   3.455   1.606   3.631 -0.7853 -0.2788  0.0897
 9367SOL    HW129000   3.455   1.611   3.731  2.4745  0.7317  0.1579
 9367SOL    HW229001   3.421   1.693   3.593  0.6640  0.4816  0.4372
 9368SOL     OW29002   5.876   5.610   6.474 -0.3215  0.2418  0.2913
 9368SOL    HW129003   5.899   5.699   6.514  0.2829  0.3290 -0.2395
 9368SOL    HW229004   5.831   5.625   6.385  0.2275  0.0152 -0.0296
 9369SOL     OW29005   3.845   5.524   4.766  0.5848 -0.2464  0.6130
 9369SOL    HW129006   3.801   5.565   4.846 -1.6873 -1.3587  0.0030
 9369SOL    HW229007   3.791   5.446   4.734  2.8246 -1.4664 -0.4556
 9370SOL     OW29008   2.808   2.089   6.280  0.0339 -0.2328 -0.8290
 9370SOL    HW129009   2.874   2.164   6.276 -1.7392  1.4596 -0.2380
 9370SOL    HW229010   2.772   2.071   6.188  0.1646 -0.0821 -0.9108
 9371SOL     OW29011   4.920   6.778   2.289  0.1845 -0.0361 -0.5454
 9371SOL    HW129012   4.992   6.837   2.325 -1.1813  1.0608  0.4636
 9371SOL    HW229013   4.893   6.809   2.198  0.4043  0.0481 -0.5819
 9372SOL     OW29014   0.862   6.043   0.577 -0.2772 -0.3483  0.3779
 9372SOL    HW129015   0.897   6.089   0.494  1.1380 -0.2241  1.0077
 9372SOL    HW229016   0.782   5.989   0.553  1.3485 -2.0952 -1.5947
 9373SOL     OW29017   3.905   6.167   2.951  0.2488  0.1096 -0.1590
 9373SOL    HW129018   3.899   6.098   3.024  1.5485 -0.1240 -0.2465
 9373SOL    HW229019   3.948   6.126   2.871 -1.1386  0.3781 -1.0580
 9374SOL     OW29020   4.256   0.447   5.912 -0.5630 -0.3587  0.4574
 9374SOL    HW129021   4.316   0.382   5.867 -0.7966  0.5770 -1.2963
 9374SOL    HW229022   4.267   0.538   5.871 -1.0975  0.4774  2.0323
 9375SOL     OW29023   3.988   6.534   4.353 -0.2470 -0.1070  0.3109
 9375SOL    HW129024   3.943   6.572   4.273  1.7211  0.8820 -0.3605
 9375SOL    HW229025   4.075   6.492   4.327 -0.5651 -1.7200  1.6200
 9376SOL     OW29026   6.456   5.251   2.097 -0.1727  0.1000  0.2450
 9376SOL    HW129027   6.375   5.237   2.153  0.0908  1.2443  0.9404
 9376SOL    HW229028   6.530   5.290   2.153  0.9901 -1.2495 -0.2855
 9377SOL     OW29029   3.685   0.163   2.523  0.4294 -0.5008  0.0629
 9377SOL    HW129030   3.671   0.242   2.463  1.2789 -0.8849 -0.6697
 9377SOL    HW229031   3.596   0.125   2.549 -0.0097  1.1120  1.0237
 9378SOL     OW29032   5.649   4.086   1.585  0.0125 -0.1887 -0.1075
 9378SOL    HW129033   5.711   4.043   1.651 -0.0172 -0.0240  0.0284
 9378SOL    HW229034   5.624   4.019   1.515  0.2589 -0.2845 -0.1033
 9379SOL     OW29035   5.371   5.189   4.745 -0.1913 -0.2432  0.1434
 9379SOL    HW129036   5.308   5.124   4.788  0.6124 -1.0521  0.1077
 9379SOL    HW229037   5.323   5.276   4.731 -1.8378 -1.3326 -1.4501
 9380SOL     OW29038   4.345   5.932   0.759  0.0694  0.4743  0.5324
 9380SOL    HW129039   4.409   5.889   0.823  0.3393  1.5064  0.9748
 9380SOL    HW229040   4.355   5.890   0.669 -0.3793 -1.0647  1.1702
 9381SOL     OW29041   0.426   6.789   3.694  0.2365  0.0514  0.0184
 9381SOL    HW129042   0.514   6.826   3.723  1.0138 -0.9850 -0.9715
 9381SOL    HW229043   0.436   6.740   3.608 -1.1437 -0.8120  0.3104
 9382SOL     OW29044   4.332   0.408   0.762 -0.0682  0.0859  0.0436
 9382SOL    HW129045   4.275   0.393   0.681 -0.6905  0.3108  0.4319
 9382SOL    HW229046   4.393   0.330   0.775 -0.7984 -0.5017  0.0280
 9383SOL     OW29047   6.540   6.547   6.739  0.5735 -0.4675 -0.3103
 9383SOL    HW129048   6.487   6.473   6.698 -0.2685 -0.6374  1.0034
 9383SOL    HW229049   6.487   6.631   6.737  0.5522 -0.4612  0.3253
 9384SOL     OW29050   5.702   2.220   1.319  0.3894 -0.1997  0.2519
 9384SOL    HW129051   5.726   2.130   1.355  1.5725 -0.1538 -0.3647
 9384SOL    HW229052   5.667   2.211   1.226  0.3225 -0.0431  0.2606
 9385SOL     OW29053   5.157   2.597   4.371  0.1674 -0.0577 -0.2471
 9385SOL    HW129054   5.111   2.663   4.431 -0.5202 -0.7227 -0.0442
 9385SOL    HW229055   5.141   2.622   4.275  1.3938  1.0969 -0.1910
 9386SOL     OW29056   5.738   2.033   2.636  0.0689 -0.0096  0.6008
 9386SOL    HW129057   5.835   2.022   2.657  0.4419  0.7192 -0.6512
 9386SOL    HW229058   5.724   2.023   2.537 -1.5944 -3.3410  1.0038
 9387SOL     OW29059   0.979   6.132   2.598  0.2798 -0.0693  0.5597
 9387SOL    HW129060   0.911   6.067   2.632 -1.1177 -0.5234 -2.6688
 9387SOL    HW229061   0.942   6.225   2.604  0.6946  0.0379  1.6419
 9388SOL     OW29062   3.095   1.848   0.929  0.0988 -0.4440  0.2813
 9388SOL    HW129063   3.078   1.753   0.903  0.2221 -0.8371  1.5469
 9388SOL    HW229064   3.152   1.892   0.859  1.5563 -1.8441  0.5204
 9389SOL     OW29065   2.554   3.615   0.330 -0.0845 -0.0108  0.5466
 9389SOL    HW129066   2.583   3.550   0.400  0.4910 -0.4683 -0.1098
 9389SOL    HW229067   2.546   3.568   0.242  0.1154  0.7572  0.1088
 9390SOL     OW29068   6.349   5.983   2.709  0.0767  0.6147 -0.5032
 9390SOL    HW129069   6.262   6.016   2.673 -0.4691 -0.5618 -0.3027
 9390SOL    HW229070   6.387   6.052   2.772 -0.6754  1.1657 -0.6378
 9391SOL     OW29071   5.078   2.154   0.568  0.3318 -0.1672  0.1282
 9391SOL    HW129072   5.026   2.233   0.536  0.0560  0.1034  1.2039
 9391SOL    HW229073   5.176   2.176   0.567  0.4223 -0.5162 -1.4496
 9392SOL     OW29074   3.315   6.558   5.763  0.4410 -0.0276 -1.0045
 9392SOL    HW129075   3.303   6.562   5.862  1.3997  2.9755 -0.8981
 9392SOL    HW229076   3.359   6.472   5.737 -2.0160 -1.9619  0.8230
 9393SOL     OW29077   6.442   2.889   3.237  0.4853  0.6654 -0.0202
 9393SOL    HW129078   6.344   2.888   3.217  0.4369  1.4143  0.1734
 9393SOL    HW229079   6.492   2.841   3.164 -0.0965 -0.4974  0.3200
 9394SOL     OW29080   4.857   2.715   0.561 -0.4680 -0.2916 -0.0482
 9394SOL    HW129081   4.820   2.787   0.503  1.0613  0.6151  0.0580
 9394SOL    HW229082   4.792   2.694   0.634 -0.5903  1.5986  0.4396
 9395SOL     OW29083   5.010   5.796   6.774  0.0733  0.2317  0.0449
 9395SOL    HW129084   5.081   5.796   6.704  0.7500 -0.1655  0.7144
 9395SOL    HW229085   4.922   5.773   6.733 -0.1203  2.7834 -1.2134
 9396SOL     OW29086   1.404   4.195   3.004  0.1519 -0.5312  0.2090
 9396SOL    HW129087   1.315   4.231   3.033  1.1610  1.1138  1.4283
 9396SOL    HW229088   1.476   4.261   3.026  1.5546 -1.2031 -2.0059
 9397SOL     OW29089   5.049   1.476   6.635 -0.2716 -0.7234 -0.1668
 9397SOL    HW129090   5.096   1.406   6.689 -1.1821 -1.1426  0.1020
 9397SOL    HW229091   5.003   1.539   6.697  0.2358 -0.0927 -0.4206
 9398SOL     OW29092   5.645   6.859   5.645 -0.1108  0.3848 -0.2746
 9398SOL    HW129093   5.727   6.903   5.683 -0.0934 -0.0029  0.1518
 9398SOL    HW229094   5.563   6.899   5.687 -0.0496 -2.3402  2.9012
 9399SOL     OW29095   3.513   3.093   2.868  0.3723 -0.3078 -0.1686
 9399SOL    HW129096   3.551   3.186   2.871  0.0122 -0.0680 -1.8587
 9399SOL    HW229097   3.587   3.027   2.873  0.8241  0.1194 -1.0064
 9400SOL     OW29098   0.451   1.759   0.358 -0.3638 -0.2035  0.6998
 9400SOL    HW129099   0.497   1.774   0.446  0.8725  1.8442 -0.2230
 9400SOL    HW229100   0.519   1.736   0.289 -1.0896  0.0710 -0.1125
 9401SOL     OW29101   0.996   0.988   4.244  0.2966 -0.5311  0.1154
 9401SOL    HW129102   0.955   0.934   4.170 -0.9147  0.6548 -0.1290
 9401SOL    HW229103   0.923   1.020   4.305  1.0835  0.0532  0.7596
 9402SOL     OW29104   5.384   2.403   6.357  0.1841  0.5217 -0.3664
 9402SOL    HW129105   5.310   2.469   6.343  0.1339  0.5554  0.0426
 9402SOL    HW229106   5.439   2.431   6.436 -0.6242 -0.6096  0.6469
 9403SOL     OW29107   0.145   5.244   0.474  0.1471  0.1463 -0.7009
 9403SOL    HW129108   0.045   5.236   0.477  0.2270 -0.9316 -0.3304
 9403SOL    HW229109   0.170   5.331   0.432 -0.9443  0.2611 -1.1615
 9404SOL     OW29110   1.650   1.156   1.038  0.2969  0.2139  0.1578
 9404SOL    HW129111   1.635   1.060   1.058  0.9513  0.2576  0.8993
 9404SOL    HW229112   1.564   1.199   1.009 -0.2016 -0.3607  0.7757
 9405SOL     OW29113   5.572   3.646   4.109  0.2446 -0.4597 -0.6593
 9405SOL    HW129114   5.616   3.583   4.044 -0.5259  1.5491 -3.3253
 9405SOL    HW229115   5.637   3.718   4.134 -0.3944  0.5584 -1.8242
 9406SOL     OW29116   1.164   2.400   5.173 -0.4270  0.6385  0.1378
 9406SOL    HW129117   1.075   2.410   5.128 -1.8916  0.5869  2.8364
 9406SOL    HW229118   1.158   2.330   5.244  1.2213  1.9108  1.6322
 9407SOL     OW29119   1.334   5.570   6.170 -0.4812 -0.1376  0.3748
 9407SOL    HW129120   1.430   5.584   6.192 -0.6409 -0.1122  1.1064
 9407SOL    HW229121   1.287   5.658   6.168 -0.5407 -0.1714  0.2918
 9408SOL     OW29122   0.854   3.447   2.901  0.0710 -0.3711 -0.1598
 9408SOL    HW129123   0.801   3.452   2.986  0.2006 -1.8708  0.0400
 9408SOL    HW229124   0.795   3.471   2.824  0.1561  1.8083  0.3845
 9409SOL     OW29125   2.284   4.445   0.903  0.2413  0.7557  0.0462
 9409SOL    HW129126   2.280   4.489   0.813 -1.1348 -0.7396 -0.6783
 9409SOL    HW229127   2.288   4.515   0.974 -3.5226  2.2262 -0.9605
 9410SOL     OW29128   6.338   4.086   3.065  0.6975  0.9444  0.7051
 9410SOL    HW129129   6.428   4.126   3.055 -0.1624  2.3816 -2.3938
 9410SOL    HW229130   6.335   3.997   3.020 -0.0115  2.0125 -1.4679
 9411SOL     OW29131   2.864   3.612   1.950  0.4751 -0.5715  0.2626
 9411SOL    HW129132   2.787   3.625   1.887 -0.7200  1.3557  2.0124
 9411SOL    HW229133   2.849   3.530   2.005  1.7109 -2.5030 -2.0364
 9412SOL     OW29134   6.257   3.858   5.263 -0.3920 -0.8830  0.6266
 9412SOL    HW129135   6.347   3.832   5.227 -0.7073  1.5361 -2.2752
 9412SOL    HW229136   6.191   3.784   5.244 -0.1414 -0.4493 -2.4535
 9413SOL     OW29137   6.209   5.350   1.638 -0.0200 -0.1113 -0.3128
 9413SOL    HW129138   6.155   5.391   1.564  0.5891 -0.7938 -1.1464
 9413SOL    HW229139   6.292   5.404   1.652 -0.1337  0.0160 -0.1226
 9414SOL     OW29140   5.529   0.485   6.469 -0.1090 -0.5454  0.1728
 9414SOL    HW129141   5.459   0.549   6.438  1.0811  1.4687  1.4106
 9414SOL    HW229142   5.488   0.416   6.529 -1.0620  0.5959  0.8754
 9415SOL     OW29143   1.378   2.514   5.013  0.0867 -0.1450 -0.1025
 9415SOL    HW129144   1.318   2.442   5.046 -0.2995  0.6518  0.9707
 9415SOL    HW229145   1.417   2.487   4.925  0.0645 -1.7152  0.3466
 9416SOL     OW29146   4.226   5.720   6.044  0.6887 -0.1597  0.5953
 9416SOL    HW129147   4.195   5.668   5.965 -0.7965  0.3641  0.8027
 9416SOL    HW229148   4.214   5.667   6.127 -1.2008  0.6050  0.8519
 9417SOL     OW29149   1.041   1.244   3.386 -0.0249 -0.2351  0.3356
 9417SOL    HW129150   1.027   1.148   3.411  1.2176 -0.3658  0.5858
 9417SOL    HW229151   1.121   1.252   3.327  0.0104  0.6729  0.4907
 9418SOL     OW29152   4.090   4.996   1.185  0.8046  0.1435  0.4217
 9418SOL    HW129153   4.052   5.045   1.106 -0.4388 -1.6002 -0.1224
 9418SOL    HW229154   4.051   5.032   1.269 -0.9182 -0.5498 -0.0355
 9419SOL     OW29155   3.936   6.267   0.967 -0.1336 -0.1272  0.3418
 9419SOL    HW129156   3.947   6.342   1.032 -0.9088  1.7033 -1.5177
 9419SOL    HW229157   4.012   6.266   0.902 -0.3245 -0.7109  0.1111
 9420SOL     OW29158   4.329   5.077   0.336  0.5069  0.0752  0.0560
 9420SOL    HW129159   4.339   4.978   0.346  0.1231 -0.1315 -1.4602
 9420SOL    HW229160   4.271   5.098   0.258 -0.4977  1.4932  1.1167
 9421SOL     OW29161   2.058   6.284   5.462 -0.4322 -0.4541 -0.5652
 9421SOL    HW129162   2.039   6.263   5.558 -0.6290  1.7523 -0.0734
 9421SOL    HW229163   1.976   6.323   5.420  0.6963  2.0933 -0.5374
 9422SOL     OW29164   3.919   1.880   5.276 -0.0720 -0.1519 -0.3824
 9422SOL    HW129165   3.859   1.904   5.200  0.7171  0.2463 -0.9044
 9422SOL    HW229166   4.005   1.931   5.267 -0.4844  0.9585  1.5472
 9423SOL     OW29167   4.800   2.458   5.893 -0.2934  0.2750  0.0237
 9423SOL    HW129168   4.800   2.506   5.805 -1.4205  0.1101 -0.0843
 9423SOL    HW229169   4.706   2.446   5.924  0.0452 -0.5758  0.7550
 9424SOL     OW29170   0.497   1.913   4.762 -0.3017 -0.7449 -0.0797
 9424SOL    HW129171   0.590   1.948   4.763 -0.2093 -0.9905 -0.0458
 9424SOL    HW229172   0.474   1.876   4.852  0.1536 -2.2116 -0.5310
 9425SOL     OW29173   0.924   5.401   0.359  0.3215  0.0761 -0.2387
 9425SOL    HW129174   0.998   5.345   0.322  0.5216 -0.1653  0.5203
 9425SOL    HW229175   0.850   5.342   0.392  1.3230  0.1189  2.2816
 9426SOL     OW29176   4.633   2.536   1.378 -0.5106  0.0575  0.1070
 9426SOL    HW129177   4.720   2.489   1.367 -0.3933  0.2542  0.1851
 9426SOL    HW229178   4.580   2.491   1.450 -0.5663 -0.1939 -0.0883
 9427SOL     OW29179   0.832   6.201   1.335 -0.1585 -0.0015  0.7677
 9427SOL    HW129180   0.912   6.145   1.314 -1.2650 -0.5542 -2.6335
 9427SOL    HW229181   0.850   6.296   1.311 -0.4109 -0.0758  0.2739
 9428SOL     OW29182   6.185   3.784   5.978  0.2074 -0.1541  0.2081
 9428SOL    HW129183   6.131   3.838   6.043 -0.4386 -0.1108 -0.3477
 9428SOL    HW229184   6.163   3.812   5.885 -0.0321 -1.2640 -0.0906
 9429SOL     OW29185   6.011   2.144   6.854  0.0361  0.1429 -0.5658
 9429SOL    HW129186   5.951   2.160   6.933 -1.4296 -0.2969 -1.5464
 9429SOL    HW229187   5.994   2.214   6.785  2.6079  1.6128  0.1706
 9430SOL     OW29188   6.671   0.326   3.887 -0.1232 -0.6435 -0.7590
 9430SOL    HW129189   6.769   0.307   3.886 -0.1058 -0.8673  1.0768
 9430SOL    HW229190   6.633   0.301   3.976 -1.7384  0.0283 -1.2130
 9431SOL     OW29191   0.454   2.763   0.766  0.7284 -0.6258  0.1329
 9431SOL    HW129192   0.444   2.834   0.836  0.5161 -0.4703 -0.0537
 9431SOL    HW229193   0.514   2.691   0.800  0.1885 -0.8210  0.6838
 9432SOL     OW29194   0.251   5.883   4.860  0.5659  0.0842 -0.1218
 9432SOL    HW129195   0.343   5.921   4.867 -0.4732  3.1976 -1.5923
 9432SOL    HW229196   0.186   5.944   4.905 -1.0268 -0.8977 -0.9896
 9433SOL     OW29197   2.235   3.059   3.694  0.0434 -0.1034 -0.4801
 9433SOL    HW129198   2.155   3.029   3.746  0.9973  0.6810  1.5376
 9433SOL    HW229199   2.221   3.152   3.661  0.0842  0.0041 -0.1964
 9434SOL     OW29200   5.147   6.536   1.723 -0.2618 -0.1333 -0.0259
 9434SOL    HW129201   5.083   6.460   1.737 -0.0097 -0.1806  0.9794
 9434SOL    HW229202   5.239   6.508   1.751  0.4569 -0.4250 -2.4804
 9435SOL     OW29203   5.037   3.737   3.258  0.3025 -0.0217  0.0626
 9435SOL    HW129204   4.971   3.809   3.234 -1.5208 -1.7985 -0.5098
 9435SOL    HW229205   5.073   3.755   3.350 -0.5350  1.3152  0.1580
 9436SOL     OW29206   4.186   2.890   0.530  0.3570  0.2423  0.0253
 9436SOL    HW129207   4.096   2.918   0.497  0.6814  0.7728 -0.4257
 9436SOL    HW229208   4.210   2.801   0.492  0.5256  0.6378 -0.8053
 9437SOL     OW29209   1.915   2.763   0.705 -0.2776  0.6718 -0.2860
 9437SOL    HW129210   1.917   2.834   0.775  1.2540  1.5567 -1.1488
 9437SOL    HW229211   1.920   2.806   0.614 -1.5412 -0.4615 -0.9290
 9438SOL     OW29212   4.695   6.490   2.270 -0.3213 -0.1767  0.0987
 9438SOL    HW129213   4.789   6.487   2.236 -0.3054 -1.1880  0.2045
 9438SOL    HW229214   4.693   6.457   2.364 -0.6190  0.9638  0.4960
 9439SOL     OW29215   4.037   5.262   0.812 -0.1554  0.2197 -0.0613
 9439SOL    HW129216   4.021   5.351   0.768  2.0658  0.7167 -0.0278
 9439SOL    HW229217   4.092   5.205   0.751  0.0426 -0.3971  0.6787
 9440SOL     OW29218   3.702   5.632   6.819 -0.2336 -0.1385  0.3912
 9440SOL    HW129219   3.785   5.682   6.794 -1.0897 -0.3740 -3.5730
 9440SOL    HW229220   3.727   5.538   6.844  0.7740 -0.0069 -0.0570
 9441SOL     OW29221   2.251   1.033   3.681  0.2753 -0.1454 -0.0047
 9441SOL    HW129222   2.316   0.975   3.731  0.4223  0.5109  0.5874
 9441SOL    HW229223   2.282   1.128   3.684 -1.2373  0.3557  1.2131
 9442SOL     OW29224   6.409   3.162   5.643 -0.1172 -0.1571  0.0731
 9442SOL    HW129225   6.363   3.088   5.595  0.3622  0.5191 -1.5100
 9442SOL    HW229226   6.407   3.145   5.742  0.2902 -2.4471 -0.2526
 9443SOL     OW29227   6.919   0.186   3.859 -0.1791  0.3662 -0.3024
 9443SOL    HW129228   6.952   0.108   3.912  0.5970  0.8221 -0.1016
 9443SOL    HW229229   6.994   0.222   3.803 -0.8517  0.2100 -1.3372
 9444SOL     OW29230   4.401   2.610   0.175 -0.0719 -0.2344 -0.1791
 9444SOL    HW129231   4.490   2.590   0.216  0.2485  1.3962 -0.0096
 9444SOL    HW229232   4.404   2.700   0.131 -2.0423  0.5367  1.1126
 9445SOL     OW29233   5.783   2.027   5.900 -0.1266 -0.0820  1.1003
 9445SOL    HW129234   5.747   2.120   5.886 -2.0189 -0.9277 -0.0496
 9445SOL    HW229235   5.836   1.999   5.820 -1.8894 -0.9615  0.1846
 9446SOL     OW29236   0.088   6.076   5.978 -0.1651  0.1262 -0.1136
 9446SOL    HW129237   0.045   6.015   6.045  0.0615 -0.4690 -0.4940
 9446SOL    HW229238   0.101   6.166   6.018  3.3823 -1.1191  2.0377
 9447SOL     OW29239   5.246   1.457   2.173 -0.5170 -0.6082 -0.6171
 9447SOL    HW129240   5.161   1.433   2.126 -0.6620  0.3252 -0.8523
 9447SOL    HW229241   5.230   1.537   2.231  0.3658 -0.0111 -1.1815
 9448SOL     OW29242   0.279   3.087   4.179  0.4203 -0.0518  0.5580
 9448SOL    HW129243   0.205   3.153   4.174 -0.9355 -1.4431  1.3795
 9448SOL    HW229244   0.359   3.122   4.130 -0.8549  1.3513 -0.5916
 9449SOL     OW29245   3.268   5.718   6.590  0.1780 -0.2242  0.4906
 9449SOL    HW129246   3.224   5.807   6.574 -0.4069 -0.8668 -1.8051
 9449SOL    HW229247   3.359   5.733   6.628 -0.0881  1.3233  0.6213
 9450SOL     OW29248   5.551   2.569   5.598  0.6360 -0.1038  0.6080
 9450SOL    HW129249   5.491   2.639   5.562  1.2516  0.2081  0.1655
 9450SOL    HW229250   5.554   2.575   5.698  0.3983  0.2610  0.5930
 9451SOL     OW29251   4.467   2.638   6.383 -0.0581  0.3030 -0.0197
 9451SOL    HW129252   4.516   2.697   6.446  2.3800 -3.3437  1.8408
 9451SOL    HW229253   4.514   2.636   6.295 -0.5819  1.5903 -0.3474
 9452SOL     OW29254   0.035   6.451   3.209 -0.1597 -0.1445 -0.3890
 9452SOL    HW129255   0.046   6.532   3.266  0.6239 -1.2727  1.1131
 9452SOL    HW229256   0.093   6.377   3.243 -0.6465 -1.2724 -1.8849
 9453SOL     OW29257   4.026   4.105   0.127  0.1202 -0.3258  0.8892
 9453SOL    HW129258   3.968   4.038   0.082 -1.5295  2.1835 -1.0176
 9453SOL    HW229259   3.969   4.173   0.173  1.5927  1.0682  0.7534
 9454SOL     OW29260   3.188   6.204   2.612  0.1993 -0.3641  0.1856
 9454SOL    HW129261   3.232   6.149   2.542 -0.8471 -0.7302 -0.1920
 9454SOL    HW229262   3.110   6.155   2.650 -1.4282  1.2595 -0.9138
 9455SOL     OW29263   1.510   4.138   1.280  0.8126  0.4067 -0.2617
 9455SOL    HW129264   1.570   4.115   1.356  1.2491  0.5511 -0.5581
 9455SOL    HW229265   1.497   4.058   1.221 -1.1412 -0.3067  1.0216
 9456SOL     OW29266   4.007   1.261   0.688 -0.3036  0.4369 -0.1967
 9456SOL    HW129267   4.099   1.275   0.727 -0.7608 -0.5167  1.3471
 9456SOL    HW229268   3.954   1.345   0.698  0.2919  0.8961 -0.8055
 9457SOL     OW29269   5.477   6.108   1.309 -0.0350 -0.4362  0.0753
 9457SOL    HW129270   5.395   6.051   1.305 -0.4936  0.1833  0.6041
 9457SOL    HW229271   5.487   6.147   1.400  0.0584  0.6344 -0.3684
 9458SOL     OW29272   0.774   1.315   4.159  0.3471 -0.6610 -0.0763
 9458SOL    HW129273   0.826   1.392   4.196 -0.9596 -0.5573  1.6655
 9458SOL    HW229274   0.781   1.315   4.060  1.9438  0.5533 -0.0096
 9459SOL     OW29275   5.351   0.365   3.453  0.1823  0.0085  0.4446
 9459SOL    HW129276   5.335   0.325   3.363 -1.3858 -0.2333  0.7856
 9459SOL    HW229277   5.374   0.292   3.518 -2.3678 -0.4008  0.9986
 9460SOL     OW29278   4.498   0.662   6.157 -0.0660  0.8071  0.1372
 9460SOL    HW129279   4.522   0.637   6.064 -2.8173 -1.0133 -0.2091
 9460SOL    HW229280   4.403   0.696   6.159 -0.9465 -1.4475  2.5171
 9461SOL     OW29281   4.593   1.620   6.557 -0.7988  0.5782  0.4449
 9461SOL    HW129282   4.659   1.638   6.485  0.6355 -1.2984  1.2293
 9461SOL    HW229283   4.515   1.569   6.520  0.2779 -1.0364  0.3094
 9462SOL     OW29284   6.808   3.752   0.318  0.4691  0.5076  0.1406
 9462SOL    HW129285   6.836   3.724   0.227 -2.4389 -2.6536  0.0090
 9462SOL    HW229286   6.711   3.775   0.317  0.3486  0.3293  2.4422
 9463SOL     OW29287   4.613   6.226   3.505  0.2719 -0.2225  0.0206
 9463SOL    HW129288   4.529   6.172   3.519  0.5918 -0.8399 -0.3935
 9463SOL    HW229289   4.589   6.316   3.469 -0.2356 -0.2889  0.1863
 9464SOL     OW29290   4.819   1.228   2.513 -0.6143  0.0043 -0.6689
 9464SOL    HW129291   4.721   1.245   2.527 -0.3242  0.2872  1.4224
 9464SOL    HW229292   4.832   1.134   2.483 -1.4790 -0.4788  0.3700
 9465SOL     OW29293   2.939   6.863   5.952  0.5159 -0.5581 -0.1485
 9465SOL    HW129294   2.958   6.771   5.985  2.7201  0.2242  0.9191
 9465SOL    HW229295   2.919   6.923   6.030 -3.8397 -0.6071 -0.9558
 9466SOL     OW29296   2.760   2.713   6.287 -0.3671  0.6666 -0.3345
 9466SOL    HW129297   2.811   2.799   6.292  0.8992 -0.0304 -0.7636
 9466SOL    HW229298   2.729   2.697   6.194 -1.4763  1.1192 -0.0631
 9467SOL     OW29299   0.825   6.558   6.133  0.2125 -0.2748 -0.3413
 9467SOL    HW129300   0.902   6.493   6.128 -0.0353 -0.7563  1.4933
 9467SOL    HW229301   0.739   6.508   6.123  0.0716 -0.0468 -0.2584
 9468SOL     OW29302   0.092   3.403   6.981  0.4100  0.2876 -0.2559
 9468SOL    HW129303   0.001   3.366   6.962  1.0189 -0.3769 -2.0951
 9468SOL    HW229304   0.161   3.332   6.969  1.1171  0.3731  2.5955
 9469SOL     OW29305   4.799   2.784   1.493 -0.0405 -0.4218 -0.1665
 9469SOL    HW129306   4.742   2.720   1.441 -1.6764  1.9613 -1.5027
 9469SOL    HW229307   4.741   2.834   1.557  0.6547  1.5113 -0.9866
 9470SOL     OW29308   0.717   0.861   0.609  0.4259 -0.2608  0.3054
 9470SOL    HW129309   0.666   0.943   0.636 -2.1206 -1.6768  0.0996
 9470SOL    HW229310   0.744   0.869   0.513  1.6954  0.9850  0.7168
 9471SOL     OW29311   2.230   3.462   6.387  0.0442 -0.4046 -0.4671
 9471SOL    HW129312   2.189   3.466   6.296 -1.5360 -1.8333  0.1404
 9471SOL    HW229313   2.183   3.393   6.442  1.8326 -0.5160  1.0156
 9472SOL     OW29314   6.249   6.624   3.138 -0.4208 -0.6714  0.2370
 9472SOL    HW129315   6.334   6.674   3.154 -0.1046 -0.9687 -0.4495
 9472SOL    HW229316   6.171   6.684   3.155 -0.0410  0.3523 -1.3990
 9473SOL     OW29317   0.085   3.442   4.719 -0.2205 -0.2368  0.1430
 9473SOL    HW129318   0.080   3.397   4.630  1.5694  0.1158 -0.1554
 9473SOL    HW229319   0.123   3.378   4.786  0.8944  0.3120  0.0542
 9474SOL     OW29320   2.584   2.149   5.813  0.3767  0.3032  0.2608
 9474SOL    HW129321   2.569   2.110   5.722 -1.4361  1.2439  0.1113
 9474SOL    HW229322   2.671   2.115   5.850 -0.4153 -2.7768 -0.3997
 9475SOL     OW29323   5.072   2.330   6.556  0.1000  0.0733 -0.1776
 9475SOL    HW129324   5.011   2.401   6.520 -0.7039 -0.5104  0.0066
 9475SOL    HW229325   5.092   2.264   6.484 -0.1066 -0.1510 -0.0307
 9476SOL     OW29326   0.863   2.834   1.951  0.1839 -0.4698  0.2863
 9476SOL    HW129327   0.871   2.757   1.888  0.4672 -1.3649  1.3909
 9476SOL    HW229328   0.830   2.802   2.040 -0.3135  0.7852  0.5853
 9477SOL     OW29329   1.652   5.994   4.849  0.0750  0.2039 -0.2988
 9477SOL    HW129330   1.673   6.073   4.792 -0.9196 -0.8353 -2.2001
 9477SOL    HW229331   1.737   5.945   4.870  0.9801  2.6897  2.5003
 9478SOL     OW29332   3.527   2.098   6.764  0.3613 -0.6193  0.3224
 9478SOL    HW129333   3.527   2.032   6.839  0.2707 -1.1997 -0.1852
 9478SOL    HW229334   3.434   2.133   6.751  0.4222 -0.3363  0.6358
 9479SOL     OW29335   4.736   5.149   1.991 -0.3628  0.3193 -0.5872
 9479SOL    HW129336   4.747   5.051   1.975 -1.4637 -0.0981  0.9820
 9479SOL    HW229337   4.817   5.185   2.038 -0.1192  0.0824 -0.8253
 9480SOL     OW29338   1.075   0.526   1.692 -0.3433  0.2482 -0.2426
 9480SOL    HW129339   1.020   0.509   1.773  0.5495  1.3560  0.6263
 9480SOL    HW229340   1.017   0.517   1.610 -2.2538  2.8570  0.6908
 9481SOL     OW29341   2.140   5.251   1.156  0.3627 -0.4558 -0.6123
 9481SOL    HW129342   2.063   5.222   1.213  0.2106  0.2119 -0.4696
 9481SOL    HW229343   2.225   5.214   1.193  0.2454 -0.1572 -0.0327
 9482SOL     OW29344   0.044   4.477   4.725  0.5737 -0.8254  0.1996
 9482SOL    HW129345   0.049   4.552   4.791  3.8562 -1.0244  0.3426
 9482SOL    HW229346   0.024   4.392   4.773 -1.9357 -0.3161  0.1939
 9483SOL     OW29347   5.014   0.180   2.763  0.1111  0.4409 -0.0221
 9483SOL    HW129348   5.048   0.245   2.695  0.2374 -0.6686 -1.0632
 9483SOL    HW229349   4.930   0.138   2.729 -0.0080  0.1210  0.6640
 9484SOL     OW29350   6.154   2.422   2.060 -0.0735 -0.6423 -0.1548
 9484SOL    HW129351   6.090   2.498   2.060 -2.7222 -2.7122 -0.5691
 9484SOL    HW229352   6.184   2.403   2.153  1.2969  1.3613 -0.1405
 9485SOL     OW29353   2.417   5.717   3.905 -0.0852  0.4866 -0.5548
 9485SOL    HW129354   2.387   5.654   3.834 -2.6994  1.4368 -0.4045
 9485SOL    HW229355   2.408   5.673   3.994 -0.0789  0.4296 -0.5822
 9486SOL     OW29356   3.546   6.024   4.910  0.2950  0.5095  0.4293
 9486SOL    HW129357   3.470   5.988   4.856  1.1550  1.2071 -1.3310
 9486SOL    HW229358   3.529   6.121   4.931  1.2830  1.0958 -1.2359
 9487SOL     OW29359   3.822   2.882   2.211 -0.2424 -0.9994  0.3715
 9487SOL    HW129360   3.878   2.814   2.165 -1.7056 -3.0583  1.4522
 9487SOL    HW229361   3.852   2.891   2.306  0.7584  0.8912 -0.0763
 9488SOL     OW29362   2.055   2.472   1.771  0.1756 -0.3249  0.0874
 9488SOL    HW129363   2.066   2.375   1.788  0.6492 -0.4837 -1.0207
 9488SOL    HW229364   1.962   2.501   1.794 -1.2024 -1.8387 -2.9757
 9489SOL     OW29365   0.736   0.722   6.392 -0.5452  0.4205  0.1230
 9489SOL    HW129366   0.651   0.677   6.422 -0.5491  1.0126  1.0290
 9489SOL    HW229367   0.746   0.809   6.440  0.5100  0.4248 -0.0879
 9490SOL     OW29368   4.719   5.683   5.602  0.3590  0.0641 -0.0592
 9490SOL    HW129369   4.686   5.623   5.529 -1.5951 -0.5519  1.2414
 9490SOL    HW229370   4.658   5.762   5.611 -0.1532 -0.4744  1.6313
 9491SOL     OW29371   1.558   6.265   3.297  0.2441 -0.5120  0.0177
 9491SOL    HW129372   1.544   6.172   3.329 -0.6922  0.1805  1.7477
 9491SOL    HW229373   1.618   6.314   3.360  1.3627 -0.1426 -1.2891
 9492SOL     OW29374   3.229   3.504   3.886 -0.6483 -0.0850 -0.1957
 9492SOL    HW129375   3.303   3.558   3.925  0.7026 -0.3078 -2.2959
 9492SOL    HW229376   3.237   3.409   3.917 -0.8663  0.1634  0.6377
 9493SOL     OW29377   3.885   4.758   6.041 -0.0026  0.0747 -0.6253
 9493SOL    HW129378   3.867   4.713   6.128 -2.3220 -0.2399 -1.1997
 9493SOL    HW229379   3.940   4.697   5.983 -1.2192 -1.1288 -0.5722
 9494SOL     OW29380   4.889   3.838   5.239  0.5194 -0.0554  0.4428
 9494SOL    HW129381   4.843   3.844   5.328  0.8757  1.6973  0.5421
 9494SOL    HW229382   4.891   3.928   5.196 -0.6255 -1.0484 -1.8841
 9495SOL     OW29383   0.168   3.151   3.607 -0.2465 -0.0207  0.0780
 9495SOL    HW129384   0.148   3.094   3.527 -1.3016  0.6757 -0.1836
 9495SOL    HW229385   0.235   3.220   3.583 -0.3687  0.0245 -0.1352
 9496SOL     OW29386   1.172   1.756   2.854 -0.3495  0.7218 -0.2003
 9496SOL    HW129387   1.257   1.705   2.869 -0.4405  0.7671  0.4913
 9496SOL    HW229388   1.174   1.840   2.907 -0.4149  1.2011 -0.9496
 9497SOL     OW29389   5.246   3.269   5.671  0.3363  0.6847  0.1392
 9497SOL    HW129390   5.336   3.273   5.628  0.9545 -2.6752  0.8487
 9497SOL    HW229391   5.197   3.355   5.655  3.2443  2.2386 -1.0960
 9498SOL     OW29392   2.912   3.825   0.935 -0.1076  0.3527 -0.2399
 9498SOL    HW129393   2.932   3.771   1.017 -1.6851  0.4596  0.2542
 9498SOL    HW229394   2.995   3.832   0.879  0.3864 -1.7632  0.1256
 9499SOL     OW29395   0.284   2.177   3.562 -0.0054 -0.2431 -0.1839
 9499SOL    HW129396   0.352   2.180   3.488 -0.1171  1.0655 -0.2509
 9499SOL    HW229397   0.283   2.085   3.601  2.0355 -0.2396  0.0206
 9500SOL     OW29398   6.432   5.509   5.269 -0.4520 -0.3921 -0.2475
 9500SOL    HW129399   6.398   5.462   5.187 -0.4339 -0.6792 -0.0906
 9500SOL    HW229400   6.425   5.448   5.348 -0.9148  0.0457  0.0556
 9501SOL     OW29401   6.446   2.364   4.468 -0.2974 -0.1156 -0.7577
 9501SOL    HW129402   6.362   2.410   4.440 -0.7811 -0.2380  0.4362
 9501SOL    HW229403   6.470   2.295   4.400 -1.3569 -0.3042 -0.9591
 9502SOL     OW29404   3.568   0.107   3.798 -0.4064 -0.7065 -0.7427
 9502SOL    HW129405   3.532   0.096   3.891  2.5840  1.3838  0.8111
 9502SOL    HW229406   3.627   0.029   3.776 -0.8815 -1.0577 -0.7881
 9503SOL     OW29407   0.684   2.077   5.724 -0.3206  0.0453 -0.1442
 9503SOL    HW129408   0.680   2.151   5.791  1.0295 -0.1162  0.1565
 9503SOL    HW229409   0.610   2.012   5.742 -1.8580  1.5521 -0.7435
 9504SOL     OW29410   4.453   3.459   0.242 -0.1291  0.3031  0.5784
 9504SOL    HW129411   4.473   3.412   0.156 -1.3332  1.5950 -0.4515
 9504SOL    HW229412   4.538   3.476   0.292  0.6316 -0.0804 -0.5570
 9505SOL     OW29413   2.280   0.425   5.306  0.1278 -0.5974 -0.4162
 9505SOL    HW129414   2.282   0.497   5.376  0.5117  1.1354 -2.1000
 9505SOL    HW229415   2.369   0.421   5.261 -0.3450 -1.0967 -1.3292
 9506SOL     OW29416   6.287   4.337   0.334 -0.1068  0.1193 -0.1535
 9506SOL    HW129417   6.265   4.297   0.423 -0.2132 -1.1988 -0.7512
 9506SOL    HW229418   6.293   4.437   0.343 -1.0325  0.0868  1.1356
 9507SOL     OW29419   4.384   2.394   5.775  0.8587 -0.5275  0.0685
 9507SOL    HW129420   4.329   2.325   5.822 -0.5931 -0.3445 -1.2519
 9507SOL    HW229421   4.400   2.365   5.681  1.1530  0.4425 -0.1903
 9508SOL     OW29422   2.700   0.505   4.878  0.4148  0.6930 -0.0053
 9508SOL    HW129423   2.692   0.457   4.790  1.6062  1.6304 -0.6538
 9508SOL    HW229424   2.790   0.550   4.883 -0.4129  2.3175  0.8506
 9509SOL     OW29425   5.692   6.714   2.354 -0.2252  0.2436  0.1170
 9509SOL    HW129426   5.733   6.648   2.417 -1.1981  0.2807  0.8037
 9509SOL    HW229427   5.592   6.705   2.356 -0.3102  0.8244 -0.7945
 9510SOL     OW29428   4.557   1.331   2.553  0.2889 -0.5379 -0.2763
 9510SOL    HW129429   4.489   1.394   2.592  1.2386  0.2332  0.1735
 9510SOL    HW229430   4.510   1.254   2.510 -1.0257  1.4826 -2.7424
 9511SOL     OW29431   6.919   4.563   1.339 -0.1605  0.0947 -0.0481
 9511SOL    HW129432   7.003   4.547   1.288 -0.8221 -0.7869 -0.8839
 9511SOL    HW229433   6.923   4.654   1.381  0.9657  0.2881 -0.5298
 9512SOL     OW29434   5.775   3.218   2.497 -0.2143 -0.2642 -0.2238
 9512SOL    HW129435   5.853   3.179   2.449  1.1829  1.0670  0.8864
 9512SOL    HW229436   5.765   3.175   2.587  0.3808  0.8054  0.3732
 9513SOL     OW29437   4.968   0.580   3.708  0.4194  0.0899  0.0844
 9513SOL    HW129438   4.906   0.633   3.767  1.3641 -0.0885  1.2627
 9513SOL    HW229439   5.058   0.623   3.707  0.0929  0.8516 -2.3332
 9514SOL     OW29440   3.567   3.086   4.708  0.3654  0.2172 -0.0280
 9514SOL    HW129441   3.600   3.069   4.801 -0.9277 -1.8458  0.1165
 9514SOL    HW229442   3.468   3.099   4.710  0.3379  0.2054 -1.1131
 9515SOL     OW29443   3.647   5.603   0.623 -0.5259  0.0771  0.2480
 9515SOL    HW129444   3.611   5.650   0.703 -0.6776  0.1294  0.1494
 9515SOL    HW229445   3.576   5.597   0.553  0.0709  1.5254 -0.5395
 9516SOL     OW29446   5.943   0.818   2.801  0.1890 -0.2112  0.2166
 9516SOL    HW129447   5.875   0.883   2.767  0.6672  0.8283  1.1745
 9516SOL    HW229448   5.926   0.728   2.761 -2.1355 -0.1499  0.9153
 9517SOL     OW29449   6.692   4.533   3.247  0.4391 -0.5762  0.3555
 9517SOL    HW129450   6.668   4.624   3.281  1.0844 -0.2812  0.0297
 9517SOL    HW229451   6.631   4.466   3.288  0.1435 -0.0321  0.8271
 9518SOL     OW29452   4.374   0.236   2.108 -0.2295 -0.2940  0.2235
 9518SOL    HW129453   4.447   0.228   2.040  0.9806 -0.5031  1.5025
 9518SOL    HW229454   4.292   0.191   2.074  0.3085 -0.3120 -1.1267
 9519SOL     OW29455   6.150   2.817   1.150 -0.1498 -0.0350 -0.3190
 9519SOL    HW129456   6.189   2.908   1.139  2.4843 -0.8202  1.6130
 9519SOL    HW229457   6.094   2.795   1.070  2.2350  1.7718 -2.6578
 9520SOL     OW29458   5.889   4.229   2.956  0.1739  0.0617  0.6771
 9520SOL    HW129459   5.881   4.302   3.023 -0.6547  0.9484 -0.3490
 9520SOL    HW229460   5.806   4.173   2.957  0.3595 -0.2193  0.7117
 9521SOL     OW29461   2.124   1.977   5.777  0.2859 -0.2090 -0.0238
 9521SOL    HW129462   2.093   1.985   5.682  2.0558 -2.6947 -0.8921
 9521SOL    HW229463   2.204   2.036   5.791 -1.6235  2.3724  0.8376
 9522SOL     OW29464   5.429   2.112   6.440  0.2913 -0.2589 -0.4637
 9522SOL    HW129465   5.393   2.021   6.421  1.3787 -0.5286 -1.3502
 9522SOL    HW229466   5.366   2.181   6.405  0.5455 -0.7103 -1.8659
 9523SOL     OW29467   5.135   2.713   3.897 -0.0604  0.0329  0.0849
 9523SOL    HW129468   5.091   2.732   3.984  0.7108  0.1664  0.4586
 9523SOL    HW229469   5.070   2.670   3.835 -0.6874  0.1763  0.6364
 9524SOL     OW29470   1.759   1.936   1.263  0.4807  0.1671 -0.0955
 9524SOL    HW129471   1.745   1.943   1.362  0.5122 -0.0031 -0.0782
 9524SOL    HW229472   1.832   1.999   1.236  0.6758  0.0015  0.0370
 9525SOL     OW29473   6.895   4.061   4.097  0.4972 -0.0506  0.0411
 9525SOL    HW129474   6.906   3.977   4.043  0.5520 -0.2907  0.4161
 9525SOL    HW229475   6.805   4.101   4.079 -0.1514 -1.0139  0.9681
 9526SOL     OW29476   3.737   1.341   3.733  0.5876 -0.4588  0.8650
 9526SOL    HW129477   3.802   1.415   3.711 -0.9188  0.5162 -0.5391
 9526SOL    HW229478   3.673   1.330   3.657 -1.0761 -1.1977  2.3106
 9527SOL     OW29479   0.992   5.237   6.444 -0.1524  0.3484 -0.4031
 9527SOL    HW129480   1.062   5.165   6.433  1.9105  1.9801  1.1399
 9527SOL    HW229481   0.937   5.243   6.361 -0.0891 -2.6410 -0.7812
 9528SOL     OW29482   1.974   1.907   0.984 -0.3697  0.3314  0.1414
 9528SOL    HW129483   1.900   1.843   1.002 -1.7217  2.3632  2.4177
 9528SOL    HW229484   1.953   1.995   1.025  2.3425  1.6804 -1.0734
 9529SOL     OW29485   3.175   3.611   0.217  0.4481  0.3434  0.0779
 9529SOL    HW129486   3.224   3.550   0.156  0.6788 -0.6693  1.2371
 9529SOL    HW229487   3.200   3.591   0.312 -1.1990  0.7025  0.6295
 9530SOL     OW29488   1.702   1.595   3.879 -0.0932 -0.2924 -0.1479
 9530SOL    HW129489   1.636   1.549   3.820 -1.1012  0.1692  0.5907
 9530SOL    HW229490   1.709   1.691   3.852  0.0169 -0.2576  0.0037
 9531SOL     OW29491   0.554   6.890   6.741 -0.2318 -0.0332 -0.8314
 9531SOL    HW129492   0.558   6.880   6.642  0.4571 -0.4260 -0.7739
 9531SOL    HW229493   0.490   6.823   6.779 -0.2158 -0.1338 -0.9806
 9532SOL     OW29494   5.252   5.380   3.697  0.4129  0.5905  0.2126
 9532SOL    HW129495   5.230   5.389   3.600  0.3316 -2.7561 -0.2097
 9532SOL    HW229496   5.172   5.404   3.752 -0.2980  0.3039 -0.6813
 9533SOL     OW29497   5.247   4.964   1.706  0.3259  0.5698  0.0761
 9533SOL    HW129498   5.239   4.925   1.614  0.9119 -1.7595  0.9323
 9533SOL    HW229499   5.323   4.920   1.754  0.5347  2.3181  1.4215
 9534SOL     OW29500   2.650   4.862   6.266  0.1963  0.4965 -0.0399
 9534SOL    HW129501   2.581   4.790   6.272  1.2103 -0.7162 -1.9052
 9534SOL    HW229502   2.681   4.886   6.358 -0.7052 -0.9088  0.6667
 9535SOL     OW29503   6.646   6.829   4.633  0.2917 -0.2427 -0.2624
 9535SOL    HW129504   6.640   6.836   4.732  0.7007  1.7427 -0.3428
 9535SOL    HW229505   6.740   6.809   4.606  0.3610  0.1030 -0.2807
 9536SOL     OW29506   3.338   4.165   3.621  0.2312 -0.5107 -0.0716
 9536SOL    HW129507   3.400   4.146   3.697  0.6828 -2.3505 -0.8586
 9536SOL    HW229508   3.349   4.260   3.592  2.1397 -0.5897  0.2831
 9537SOL     OW29509   2.471   2.212   3.310  0.2042  0.1700 -0.5330
 9537SOL    HW129510   2.543   2.155   3.270 -0.9854 -1.7044 -0.1723
 9537SOL    HW229511   2.409   2.153   3.362 -3.0395  1.2856 -2.8725
 9538SOL     OW29512   1.571   6.974   4.192  0.2386 -0.1207  0.1010
 9538SOL    HW129513   1.629   6.938   4.266  0.5909 -1.2983 -0.7167
 9538SOL    HW229514   1.624   6.975   4.107 -1.3891 -2.9978 -1.1040
 9539SOL     OW29515   3.477   3.548   3.640  0.0938 -0.0479 -0.5103
 9539SOL    HW129516   3.561   3.571   3.689  0.4016 -1.5571 -0.2754
 9539SOL    HW229517   3.405   3.613   3.665  0.5643 -0.0738  1.0469
 9540SOL     OW29518   3.329   0.978   1.766 -0.5683  0.1680  0.0532
 9540SOL    HW129519   3.401   0.914   1.742 -0.6332 -0.2764  0.9816
 9540SOL    HW229520   3.264   0.933   1.828  0.6076  1.7269  2.6079
 9541SOL     OW29521   1.585   0.103   4.841 -0.2235 -0.0684 -0.0331
 9541SOL    HW129522   1.539   0.067   4.760  1.5901 -0.8126 -0.8042
 9541SOL    HW229523   1.525   0.167   4.888 -2.0912 -1.1691 -0.8161
 9542SOL     OW29524   1.602   3.147   0.678  0.4181 -0.5482 -0.6445
 9542SOL    HW129525   1.609   3.104   0.588  1.1900 -0.2237 -0.7437
 9542SOL    HW229526   1.634   3.084   0.748  0.0641 -0.7040 -0.6188
 9543SOL     OW29527   1.230   6.136   0.976  0.2530 -0.3856 -0.0307
 9543SOL    HW129528   1.283   6.054   0.996 -0.1633 -0.4616  0.8182
 9543SOL    HW229529   1.162   6.115   0.905  0.5785 -0.6006 -0.2789
 9544SOL     OW29530   1.132   5.852   3.257 -0.4567  0.3934  0.1293
 9544SOL    HW129531   1.095   5.940   3.227 -1.9760 -0.5481 -0.8996
 9544SOL    HW229532   1.057   5.790   3.279  0.6050 -0.4900  1.3659
 9545SOL     OW29533   0.067   6.042   3.435 -0.7497 -0.0267  0.1533
 9545SOL    HW129534   0.031   5.968   3.378 -0.9943 -1.2909  1.8735
 9545SOL    HW229535   0.084   6.122   3.378 -0.3431 -1.4225 -1.8088
 9546SOL     OW29536   4.692   4.686   0.061 -0.6277  0.1837 -0.3953
 9546SOL    HW129537   4.755   4.609   0.056  0.5532  1.0593  0.5329
 9546SOL    HW229538   4.598   4.651   0.071 -0.1083 -1.1301  0.1186
 9547SOL     OW29539   1.163   6.947   5.497  0.4334  0.0650 -0.2276
 9547SOL    HW129540   1.222   7.028   5.490  1.2707 -0.3837  1.0768
 9547SOL    HW229541   1.196   6.889   5.572 -0.2969 -1.3663 -0.9745
 9548SOL     OW29542   5.506   0.562   2.497 -0.1810 -0.3513 -0.3806
 9548SOL    HW129543   5.429   0.560   2.434 -0.6320 -0.7250  0.1707
 9548SOL    HW229544   5.486   0.625   2.573 -0.5330 -1.4565  0.4764
 9549SOL     OW29545   2.871   3.401   2.525  0.0677 -0.6960 -0.0296
 9549SOL    HW129546   2.784   3.359   2.554  1.3943 -2.3781  1.8107
 9549SOL    HW229547   2.928   3.332   2.480  0.4898  0.3911 -1.2229
 9550SOL     OW29548   1.572   0.502   5.696 -0.5472  0.2218 -0.5871
 9550SOL    HW129549   1.600   0.528   5.788 -1.5759  0.9966 -0.4727
 9550SOL    HW229550   1.625   0.552   5.629 -0.1922  0.0819 -0.4140
 9551SOL     OW29551   5.407   0.575   4.412 -0.2637 -0.2008 -0.0792
 9551SOL    HW129552   5.338   0.567   4.341  0.0510 -1.9738 -0.2251
 9551SOL    HW229553   5.468   0.652   4.391 -1.5660  0.7464 -0.4695
 9552SOL     OW29554   5.597   2.791   4.902 -0.0776 -0.3572  0.7642
 9552SOL    HW129555   5.612   2.815   4.998 -0.4555  0.3916  0.6487
 9552SOL    HW229556   5.570   2.873   4.852 -0.9837 -0.9627  0.2441
 9553SOL     OW29557   2.352   5.174   2.434 -0.3752 -0.6497 -0.2368
 9553SOL    HW129558   2.317   5.091   2.392 -2.8667 -0.9551  2.2241
 9553SOL    HW229559   2.352   5.165   2.533  0.8476  1.7234  0.0596
 9554SOL     OW29560   2.010   5.949   4.684 -0.1583 -0.7515  0.4359
 9554SOL    HW129561   2.005   5.882   4.609  2.2109 -0.2789 -0.2088
 9554SOL    HW229562   2.071   6.024   4.659 -1.8969  1.1592  1.5828
 9555SOL     OW29563   0.380   5.317   5.085  0.4512 -0.3523 -0.3064
 9555SOL    HW129564   0.432   5.390   5.128 -0.4654 -0.8052  1.6848
 9555SOL    HW229565   0.305   5.289   5.145 -0.7511 -1.2353 -2.1078
 9556SOL     OW29566   2.219   3.133   5.818 -0.3192  0.0675  0.1921
 9556SOL    HW129567   2.176   3.066   5.757 -2.0165  2.2716 -1.1920
 9556SOL    HW229568   2.150   3.169   5.882  0.0718  1.7760 -0.3071
 9557SOL     OW29569   3.228   4.000   4.304 -0.5461 -0.1558 -0.0530
 9557SOL    HW129570   3.308   4.060   4.313  0.6748 -1.7351  0.0963
 9557SOL    HW229571   3.212   3.952   4.391 -1.9595  0.4818  0.0591
 9558SOL     OW29572   6.555   1.050   0.935 -0.4350 -0.1665  0.1957
 9558SOL    HW129573   6.501   0.966   0.926  1.1759 -1.1912 -0.4662
 9558SOL    HW229574   6.556   1.077   1.031 -1.3495 -0.6393  0.3578
 9559SOL     OW29575   0.056   1.948   6.413 -0.2383  0.2454  0.1672
 9559SOL    HW129576   0.015   2.013   6.477 -1.6985 -0.3247 -0.1445
 9559SOL    HW229577   0.005   1.862   6.416 -1.7241  0.8300 -3.2038
 9560SOL     OW29578   2.864   0.450   3.700 -0.2855 -0.3818 -0.0287
 9560SOL    HW129579   2.811   0.524   3.658 -1.1459 -0.1137  1.4454
 9560SOL    HW229580   2.815   0.364   3.689  0.8847 -0.8583 -2.0558
 9561SOL     OW29581   0.155   3.816   6.065  0.0314 -0.8980  0.0090
 9561SOL    HW129582   0.071   3.821   6.012  0.7530 -1.1890 -1.1927
 9561SOL    HW229583   0.209   3.737   6.035  2.0419  0.8551 -1.2335
 9562SOL     OW29584   0.754   3.785   4.342 -0.0703 -0.4097 -0.0706
 9562SOL    HW129585   0.803   3.823   4.421  0.0886 -1.6081  0.4468
 9562SOL    HW229586   0.815   3.781   4.263  1.5594 -3.9982  1.1577
 9563SOL     OW29587   1.032   1.623   2.046  0.2757  0.0401  0.1452
 9563SOL    HW129588   1.099   1.568   2.096 -0.4439  1.6771  3.1605
 9563SOL    HW229589   0.941   1.584   2.057  0.2718 -0.2949 -1.0254
 9564SOL     OW29590   5.253   3.421   2.517 -0.6079  0.0371  0.3770
 9564SOL    HW129591   5.243   3.461   2.608  0.8852  2.0327 -0.2620
 9564SOL    HW229592   5.342   3.378   2.508 -0.1415  1.1568 -0.5749
 9565SOL     OW29593   2.499   0.416   1.778 -0.3894  0.4442 -0.1506
 9565SOL    HW129594   2.551   0.485   1.829  2.0212 -0.5878 -1.0818
 9565SOL    HW229595   2.547   0.395   1.693 -2.5385 -0.3882 -1.2191
 9566SOL     OW29596   0.578   1.021   0.178  0.2359 -0.2112  0.3747
 9566SOL    HW129597   0.558   0.936   0.129  0.1287 -0.1679  0.3424
 9566SOL    HW229598   0.496   1.078   0.180  0.6548  0.4639 -0.7381
 9567SOL     OW29599   3.744   0.501   4.117 -0.1558  0.0217 -0.1772
 9567SOL    HW129600   3.701   0.420   4.077 -0.0981  0.1882 -0.5727
 9567SOL    HW229601   3.802   0.546   4.050 -1.4188  1.2965 -0.4792
 9568SOL     OW29602   2.569   5.460   0.985  0.3442  0.1074  0.1435
 9568SOL    HW129603   2.473   5.488   0.974  1.1099  2.4499 -1.0728
 9568SOL    HW229604   2.572   5.361   0.999 -2.2741  0.0287  0.7838
 9569SOL     OW29605   0.795   0.897   2.547  0.1577  0.2117 -0.5828
 9569SOL    HW129606   0.773   0.874   2.642 -0.7289 -0.1805 -0.8732
 9569SOL    HW229607   0.740   0.975   2.518 -0.1090 -0.1250 -0.9943
 9570SOL     OW29608   5.023   4.437   4.331  0.6993 -0.3702  0.0585
 9570SOL    HW129609   4.955   4.471   4.266  1.5118  0.8271 -0.1965
 9570SOL    HW229610   5.044   4.509   4.398  2.0895 -0.5104 -0.1862
 9571SOL     OW29611   5.800   6.785   0.445  0.4184 -0.4996 -0.0225
 9571SOL    HW129612   5.786   6.881   0.466  1.4222 -0.4542  0.5021
 9571SOL    HW229613   5.755   6.728   0.514  0.0144 -0.4088 -0.2089
 9572SOL     OW29614   0.037   2.664   2.442 -0.2139 -0.2566 -0.5424
 9572SOL    HW129615  -0.054   2.661   2.483 -0.4632 -3.2155 -1.1242
 9572SOL    HW229616   0.033   2.627   2.349  1.4592  0.3555 -0.8931
 9573SOL     OW29617   4.779   5.193   4.556  0.3823  0.2661 -0.3579
 9573SOL    HW129618   4.725   5.193   4.641  0.3434  1.0881 -0.3732
 9573SOL    HW229619   4.818   5.284   4.542 -0.1634  0.3325 -1.5757
 9574SOL     OW29620   6.106   3.865   0.909  0.0564  0.5565 -0.6438
 9574SOL    HW129621   6.088   3.821   0.997 -0.4073  3.0553  0.6020
 9574SOL    HW229622   6.202   3.850   0.884  0.8565  1.6877  1.4788
 9575SOL     OW29623   3.417   1.118   4.461 -0.1451  0.0063  0.1796
 9575SOL    HW129624   3.511   1.151   4.454 -0.1641  0.3367  1.3024
 9575SOL    HW229625   3.392   1.110   4.558  0.2908 -4.5361  0.1576
 9576SOL     OW29626   2.842   6.145   2.409 -0.0658  0.6642  0.2098
 9576SOL    HW129627   2.855   6.230   2.459 -0.3111  0.8043  0.0393
 9576SOL    HW229628   2.824   6.071   2.473  0.9639  0.5802  0.4087
 9577SOL     OW29629   3.282   4.945   2.199  0.4618 -0.1666  0.7314
 9577SOL    HW129630   3.219   5.020   2.178  1.4540  0.4067 -0.3144
 9577SOL    HW229631   3.295   4.889   2.117  0.7740 -0.6964  1.1359
 9578SOL     OW29632   6.748   3.960   1.714 -0.1071 -0.4785  0.2430
 9578SOL    HW129633   6.725   3.923   1.624 -0.1044 -2.0903  0.8760
 9578SOL    HW229634   6.838   3.925   1.742  0.2761  0.6932  0.5265
 9579SOL     OW29635   5.559   6.948   2.656 -0.3470 -0.1332  0.0102
 9579SOL    HW129636   5.542   7.046   2.652 -2.6386 -0.4045  1.2506
 9579SOL    HW229637   5.620   6.927   2.732  0.4798  0.3475 -0.5140
 9580SOL     OW29638   1.427   1.534   0.098  0.4096 -0.4598 -0.3041
 9580SOL    HW129639   1.449   1.571   0.188  2.4412  1.3304 -1.4361
 9580SOL    HW229640   1.372   1.451   0.108  1.4434 -0.8984  2.5920
 9581SOL     OW29641   4.949   5.080   3.264  0.6362  0.0996 -0.9899
 9581SOL    HW129642   4.876   5.146   3.282  0.5394 -0.1112 -0.5912
 9581SOL    HW229643   4.916   5.010   3.201  0.4817 -0.0170 -0.7794
 9582SOL     OW29644   0.568   0.265   6.035 -0.0046 -0.1210  0.3218
 9582SOL    HW129645   0.634   0.339   6.049 -0.2691  0.4108 -1.1359
 9582SOL    HW229646   0.476   0.297   6.059 -0.4898  0.8556 -2.5088
 9583SOL     OW29647   2.975   0.985   2.386 -0.3708 -0.6618 -0.8907
 9583SOL    HW129648   3.056   0.938   2.350 -0.1587  1.6634 -3.8213
 9583SOL    HW229649   3.001   1.075   2.420 -1.1869 -1.4533  2.1392
 9584SOL     OW29650   3.638   6.816   6.310 -0.1447 -0.6183 -0.5784
 9584SOL    HW129651   3.539   6.798   6.314 -0.0795 -0.8262  0.8812
 9584SOL    HW229652   3.654   6.906   6.270 -1.2675  1.4060  3.0117
 9585SOL     OW29653   2.254   4.775   0.930  0.1284  0.1911 -0.7728
 9585SOL    HW129654   2.264   4.720   0.847 -0.0958  0.4631 -0.9828
 9585SOL    HW229655   2.249   4.872   0.906 -2.1558  0.1552 -0.6650
 9586SOL     OW29656   0.932   4.189   1.376 -0.4991  0.0746 -0.2604
 9586SOL    HW129657   0.878   4.166   1.295  1.6446 -1.0624 -1.4663
 9586SOL    HW229658   0.985   4.272   1.358 -1.0623  0.6163  0.5291
 9587SOL     OW29659   6.364   2.229   5.259 -0.1940 -0.0539 -0.5370
 9587SOL    HW129660   6.324   2.290   5.328  0.4578  0.2619 -0.4312
 9587SOL    HW229661   6.434   2.172   5.302  1.8522  1.7309 -1.3656
 9588SOL     OW29662   5.575   0.083   1.184 -0.1891 -0.6231  0.0943
 9588SOL    HW129663   5.573   0.146   1.262  0.0011 -2.0993  1.3338
 9588SOL    HW229664   5.481   0.065   1.153 -0.2155  0.7708 -0.7344
 9589SOL     OW29665   1.346   3.014   2.336  0.2730  0.0530 -0.1020
 9589SOL    HW129666   1.321   3.069   2.256 -0.3102 -1.7927 -1.2542
 9589SOL    HW229667   1.438   3.039   2.366 -0.1935  2.0514 -0.1803
 9590SOL     OW29668   6.052   6.835   5.054  0.2603 -0.5568 -0.1398
 9590SOL    HW129669   6.001   6.921   5.050  0.7488 -0.0390  2.8193
 9590SOL    HW229670   6.120   6.839   5.127  1.2669 -2.9912 -0.8267
 9591SOL     OW29671   3.198   3.520   3.327 -0.0736 -0.3956 -0.2959
 9591SOL    HW129672   3.115   3.494   3.375  1.6497 -0.5967  2.8629
 9591SOL    HW229673   3.227   3.445   3.267 -0.9656 -1.2537  0.3199
 9592SOL     OW29674   6.098   3.048   6.903  0.1368  0.5673 -0.2496
 9592SOL    HW129675   6.129   3.101   6.824 -2.5518  1.4653 -0.8070
 9592SOL    HW229676   6.166   2.978   6.926  1.0038  0.2831 -3.3371
 9593SOL     OW29677   2.109   6.585   1.321  0.1130  0.4771 -0.4979
 9593SOL    HW129678   2.038   6.531   1.365  1.4398 -2.6601 -1.8857
 9593SOL    HW229679   2.174   6.618   1.389  0.2243 -1.2782  0.3043
 9594SOL     OW29680   0.893   2.581   6.894 -0.6051  0.6329  1.2755
 9594SOL    HW129681   0.957   2.636   6.839 -1.1363  0.9293  0.9372
 9594SOL    HW229682   0.901   2.607   6.990 -1.4608  1.9589  1.0225
 9595SOL     OW29683   6.021   6.034   2.981  0.2330 -0.0981  0.7758
 9595SOL    HW129684   6.078   6.110   3.011  0.8858 -0.2904  0.0428
 9595SOL    HW229685   6.004   5.973   3.059  0.3185  0.4018  1.1930
 9596SOL     OW29686   3.412   0.844   0.800  0.1076  0.3924  0.3968
 9596SOL    HW129687   3.397   0.762   0.856  0.5459  0.5466  0.7470
 9596SOL    HW229688   3.507   0.847   0.770 -0.5744 -0.8061 -2.1684
 9597SOL     OW29689   1.423   2.976   1.734 -0.1552 -0.2311  0.0565
 9597SOL    HW129690   1.371   2.893   1.716 -2.5337  0.9287  1.1133
 9597SOL    HW229691   1.450   3.018   1.647  1.7280 -2.3880 -0.5040
 9598SOL     OW29692   0.681   1.579   0.822  0.3087  0.4885 -0.5679
 9598SOL    HW129693   0.721   1.555   0.733 -0.0977  1.4805 -1.0399
 9598SOL    HW229694   0.753   1.583   0.891  0.7204  0.2715 -0.9802
 9599SOL     OW29695   5.493   6.277   6.443  0.1126 -0.2549 -0.1096
 9599SOL    HW129696   5.515   6.182   6.466  0.1527 -0.0294  0.8272
 9599SOL    HW229697   5.576   6.333   6.446  0.1675 -0.2671 -1.1060
 9600SOL     OW29698   4.967   0.123   3.016  0.0197 -0.4284 -0.5360
 9600SOL    HW129699   5.036   0.077   3.072  1.4158  2.4454  0.2583
 9600SOL    HW229700   4.996   0.122   2.920  0.2214 -0.7918 -0.4738
 9601SOL     OW29701   0.451   1.857   5.023  0.0337  0.4074  0.1942
 9601SOL    HW129702   0.529   1.834   5.081 -0.0862 -0.4108  0.0360
 9601SOL    HW229703   0.403   1.936   5.063 -0.2355 -0.3340  1.3953
 9602SOL     OW29704   3.736   1.802   6.306 -0.1989  0.7993 -0.3110
 9602SOL    HW129705   3.734   1.731   6.235 -1.1913  0.3298  0.1766
 9602SOL    HW229706   3.803   1.777   6.376 -1.0006 -0.0065  0.1934
 9603SOL     OW29707   1.682   3.697   6.615 -0.4613 -0.2869  0.1413
 9603SOL    HW129708   1.640   3.656   6.696  0.5597  0.7829  1.2616
 9603SOL    HW229709   1.697   3.794   6.632 -2.7521  0.6507 -2.3825
 9604SOL     OW29710   6.860   3.613   1.882  0.0059 -0.2327 -0.2943
 9604SOL    HW129711   6.764   3.638   1.870  0.3417  1.5446  0.4137
 9604SOL    HW229712   6.918   3.683   1.841  1.0285 -1.7924 -1.6293
 9605SOL     OW29713   2.073   0.338   0.736 -0.2769 -0.4396 -0.5463
 9605SOL    HW129714   2.135   0.297   0.802  1.3805  1.5979 -0.7130
 9605SOL    HW229715   2.033   0.267   0.678  0.4119 -1.9813  0.8106
 9606SOL     OW29716   1.067   0.319   4.811 -0.8979 -0.1201 -0.1898
 9606SOL    HW129717   1.159   0.313   4.772 -0.7569  2.4736 -0.4252
 9606SOL    HW229718   1.062   0.265   4.895  1.3663  0.9954  0.7255
 9607SOL     OW29719   2.738   2.236   4.194  0.0677  0.2008 -0.4749
 9607SOL    HW129720   2.696   2.146   4.182 -0.4665  0.2030  1.0750
 9607SOL    HW229721   2.834   2.224   4.219 -0.2841 -0.0104  0.8546
 9608SOL     OW29722   6.157   5.388   4.489  0.4635 -0.1535 -0.1970
 9608SOL    HW129723   6.142   5.437   4.403  0.6602  2.4052  1.1629
 9608SOL    HW229724   6.075   5.334   4.511  0.3165 -0.6628 -1.8125
 9609SOL     OW29725   4.657   5.560   2.922  0.1384  0.4420 -0.7421
 9609SOL    HW129726   4.679   5.592   3.014 -0.1663  0.9822 -0.8546
 9609SOL    HW229727   4.739   5.523   2.879 -0.0291 -1.2982  0.3298
 9610SOL     OW29728   0.135   5.042   5.193  0.1078  0.3773  0.0922
 9610SOL    HW129729   0.162   5.123   5.245  0.3091 -0.4654  1.3299
 9610SOL    HW229730   0.174   4.960   5.235 -4.4200 -1.0466  2.2514
 9611SOL     OW29731   6.031   3.322   0.560  0.0695 -0.3575 -0.6846
 9611SOL    HW129732   6.005   3.401   0.505 -0.2275 -0.8619 -1.2860
 9611SOL    HW229733   6.069   3.353   0.648 -0.1791  0.4399 -0.8504
 9612SOL     OW29734   4.419   0.526   5.010 -0.5702 -0.3440  0.9311
 9612SOL    HW129735   4.495   0.485   4.960 -1.5252 -1.6737  0.5210
 9612SOL    HW229736   4.336   0.522   4.954 -1.6935 -1.9565  2.5909
 9613SOL     OW29737   6.714   4.176   1.431 -0.3024  0.1815 -0.6232
 9613SOL    HW129738   6.811   4.167   1.408  0.1108 -0.4795  1.2220
 9613SOL    HW229739   6.680   4.264   1.398  0.2125 -0.6169 -3.5798
 9614SOL     OW29740   0.104   4.118   2.705  0.4842  0.6220  0.6516
 9614SOL    HW129741   0.035   4.078   2.645  3.4918 -0.6150 -2.2683
 9614SOL    HW229742   0.059   4.163   2.782 -3.4685 -0.6490 -0.6884
 9615SOL     OW29743   2.017   5.884   5.164  0.3804 -0.1400  0.1896
 9615SOL    HW129744   2.046   5.966   5.213 -1.0169 -0.3854  1.5049
 9615SOL    HW229745   2.065   5.804   5.199  0.9612 -0.0383 -0.3579
 9616SOL     OW29746   2.783   3.416   6.284 -0.3766  0.0274 -0.1857
 9616SOL    HW129747   2.701   3.455   6.325 -0.1827 -0.2829  0.5195
 9616SOL    HW229748   2.769   3.404   6.186 -0.9507  0.5364 -0.1736
 9617SOL     OW29749   4.418   4.612   6.798 -0.0979 -1.0329 -0.2580
 9617SOL    HW129750   4.392   4.652   6.887 -0.2023 -0.9461 -0.3274
 9617SOL    HW229751   4.506   4.651   6.769 -0.4701 -0.4259 -0.5921
 9618SOL     OW29752   3.082   5.104   0.293 -0.0295 -0.9068 -0.0387
 9618SOL    HW129753   3.089   5.180   0.228 -1.8273  0.1917  0.9732
 9618SOL    HW229754   3.172   5.083   0.330  0.3780  1.5249  0.5106
 9619SOL     OW29755   4.431   3.506   0.718  0.1962 -0.2898  0.1868
 9619SOL    HW129756   4.443   3.561   0.635  1.2814 -0.7282  0.0371
 9619SOL    HW229757   4.339   3.467   0.719  0.3307 -0.6681 -1.0559
 9620SOL     OW29758   6.027   1.945   4.514  0.1708 -0.2227  0.4106
 9620SOL    HW129759   6.085   2.017   4.553  0.1761 -0.4605  0.8514
 9620SOL    HW229760   5.933   1.957   4.547 -0.4011  1.0679 -1.4842
 9621SOL     OW29761   0.464   0.843   2.921  0.7905 -0.3569  0.0084
 9621SOL    HW129762   0.500   0.808   3.007  0.1103  0.1818  0.5129
 9621SOL    HW229763   0.526   0.912   2.885  2.2199 -2.0889 -1.0605
 9622SOL     OW29764   2.513   1.593   0.030  0.1652  0.1503 -0.5056
 9622SOL    HW129765   2.556   1.584  -0.060 -0.3655 -2.1259 -0.5856
 9622SOL    HW229766   2.554   1.527   0.093 -1.6512 -0.5055  0.0364
 9623SOL     OW29767   6.418   3.068   0.851 -0.4234 -0.2987  0.1227
 9623SOL    HW129768   6.406   3.117   0.765 -3.5960 -0.9073  0.1211
 9623SOL    HW229769   6.435   2.971   0.832  1.2301 -0.0473  0.1969
 9624SOL     OW29770   4.633   6.374   2.048  0.1616 -0.4547  0.0468
 9624SOL    HW129771   4.639   6.414   2.139  2.2319 -0.0930 -0.1992
 9624SOL    HW229772   4.660   6.278   2.052 -1.1404 -0.8403  0.0220
 9625SOL     OW29773   2.235   4.013   3.277  0.3009  0.1686 -0.5432
 9625SOL    HW129774   2.234   3.988   3.374 -0.6407  0.6285 -0.4203
 9625SOL    HW229775   2.280   4.101   3.265  0.7053 -0.0419 -0.5617
 9626SOL     OW29776   4.528   1.719   4.988  0.7360 -0.5862  0.2275
 9626SOL    HW129777   4.469   1.654   4.941  0.8933 -1.0332  0.6478
 9626SOL    HW229778   4.555   1.682   5.077  2.9303 -1.1173 -0.5839
 9627SOL     OW29779   4.923   5.263   6.470  0.2471  0.1012  0.6601
 9627SOL    HW129780   4.967   5.348   6.497 -0.2587 -0.3524  3.1497
 9627SOL    HW229781   4.991   5.202   6.429  0.9088  1.1243  0.1849
 9628SOL     OW29782   3.383   2.497   6.052  0.3471  0.5480  0.6333
 9628SOL    HW129783   3.430   2.468   5.969 -1.3044 -0.4226 -0.0161
 9628SOL    HW229784   3.287   2.519   6.031 -0.0628  0.4658  2.2440
 9629SOL     OW29785   0.305   0.816   5.005  0.3508 -0.4505  0.0257
 9629SOL    HW129786   0.221   0.870   5.003  0.3964 -0.3899 -0.5561
 9629SOL    HW229787   0.283   0.718   5.005  0.2667 -0.4381  1.2029
 9630SOL     OW29788   6.088   3.637   0.636 -0.4579 -0.3731 -0.5820
 9630SOL    HW129789   6.067   3.665   0.730 -0.9732 -1.4829 -0.3536
 9630SOL    HW229790   6.114   3.718   0.583 -0.3096  0.2973  0.4640
 9631SOL     OW29791   5.086   3.946   4.889 -0.2997 -0.1447  0.3698
 9631SOL    HW129792   5.140   3.887   4.950 -0.7466 -1.0630 -0.1061
 9631SOL    HW229793   5.034   3.889   4.826  0.1153  0.7888 -0.8493
 9632SOL     OW29794   4.711   4.545   3.556  0.3941  0.2732  0.3731
 9632SOL    HW129795   4.742   4.626   3.605 -0.6756  0.8456  0.1213
 9632SOL    HW229796   4.791   4.490   3.529  1.0191 -0.1247  2.8099
 9633SOL     OW29797   5.071   6.722   6.066  0.0985 -0.0377 -0.0077
 9633SOL    HW129798   5.094   6.804   6.013 -0.6098  0.3629  0.2929
 9633SOL    HW229799   5.155   6.672   6.088  0.3796 -0.7179 -2.3021
 9634SOL     OW29800   5.597   6.703   3.340  0.2003  0.0140  0.3211
 9634SOL    HW129801   5.508   6.746   3.326  0.5461  0.6952  0.2081
 9634SOL    HW229802   5.584   6.607   3.365 -0.5354 -0.1485 -0.6548
 9635SOL     OW29803   3.457   2.790   0.283  0.0419  0.1944 -0.0660
 9635SOL    HW129804   3.392   2.834   0.345 -0.7745 -2.1846  0.8427
 9635SOL    HW229805   3.516   2.861   0.242 -0.9659  2.0754  1.5488
 9636SOL     OW29806   5.399   6.903   3.968 -0.5091  0.4582 -0.2678
 9636SOL    HW129807   5.404   6.989   4.018 -0.6747  0.5796 -0.4549
 9636SOL    HW229808   5.345   6.837   4.020 -2.9690  1.4140 -1.4227
 9637SOL     OW29809   5.601   2.269   0.551  0.1117 -0.2408 -0.8153
 9637SOL    HW129810   5.601   2.366   0.525 -1.8300 -0.9547 -3.9936
 9637SOL    HW229811   5.675   2.221   0.504  0.7725 -0.4441  0.3833
 9638SOL     OW29812   4.811   0.535   5.621 -0.3699  0.1594  0.0779
 9638SOL    HW129813   4.884   0.477   5.587 -1.1853 -1.3060  0.7567
 9638SOL    HW229814   4.847   0.595   5.693 -0.3313 -2.5169  2.4611
 9639SOL     OW29815   3.227   0.202   2.589  0.4472 -0.4168  0.1382
 9639SOL    HW129816   3.132   0.208   2.559  0.3725 -0.9779  0.2485
 9639SOL    HW229817   3.248   0.278   2.650  0.2389  0.0355 -0.3375
 9640SOL     OW29818   2.747   4.601   6.493 -0.5324  0.1301  1.1281
 9640SOL    HW129819   2.648   4.613   6.496 -0.4141  1.5647  0.3428
 9640SOL    HW229820   2.777   4.542   6.568 -2.4435 -4.2023 -1.0994
 9641SOL     OW29821   3.316   1.823   3.484  0.4590 -0.2097  0.2881
 9641SOL    HW129822   3.347   1.782   3.398  0.7334  0.5951 -0.0094
 9641SOL    HW229823   3.300   1.921   3.471 -0.1023 -0.1944  1.0018
 9642SOL     OW29824   4.330   6.750   6.577  0.6754  0.2325  0.7607
 9642SOL    HW129825   4.397   6.738   6.504  1.7075 -0.0244  1.7244
 9642SOL    HW229826   4.268   6.825   6.554  0.3522 -0.4747 -0.8226
 9643SOL     OW29827   1.687   3.450   1.596 -0.1889 -0.0906 -0.2397
 9643SOL    HW129828   1.727   3.446   1.504  2.1596  2.4599  0.5552
 9643SOL    HW229829   1.692   3.359   1.638 -1.0322 -1.2390 -2.4518
 9644SOL     OW29830   3.540   3.316   6.959  0.0119 -0.3134 -0.1630
 9644SOL    HW129831   3.560   3.238   6.901 -1.5872  0.1121 -1.3450
 9644SOL    HW229832   3.617   3.332   7.021  0.5666 -2.5010 -0.2167
 9645SOL     OW29833   4.833   2.623   3.055  0.0217  0.1252  0.7409
 9645SOL    HW129834   4.785   2.623   2.968  0.2781  2.1246  0.5346
 9645SOL    HW229835   4.925   2.586   3.043  0.1294  0.5895  0.0877
 9646SOL     OW29836   1.093   4.978   0.745 -0.6426 -0.4013 -0.1353
 9646SOL    HW129837   1.158   5.012   0.813 -0.6680 -0.3963 -0.1139
 9646SOL    HW229838   1.078   4.880   0.760 -0.8143 -0.3550  0.0004
 9647SOL     OW29839   3.290   5.761   4.987  0.0568 -0.3363 -0.1223
 9647SOL    HW129840   3.294   5.836   4.921 -2.2439 -0.5974 -0.6424
 9647SOL    HW229841   3.373   5.761   5.043  0.5100  2.0372 -0.6878
 9648SOL     OW29842   2.753   5.487   5.166  0.0872  0.3675  0.3537
 9648SOL    HW129843   2.662   5.529   5.164  0.6676  1.6080 -0.9122
 9648SOL    HW229844   2.783   5.467   5.073  0.5788 -1.3019  0.8232
 9649SOL     OW29845   0.864   4.348   3.894  0.2401 -0.2525 -0.2397
 9649SOL    HW129846   0.795   4.420   3.905 -0.2077 -0.3125 -2.2095
 9649SOL    HW229847   0.828   4.262   3.931  0.1469  0.1894  0.7106
 9650SOL     OW29848   3.444   0.025   2.605  0.4612  0.4821  0.3815
 9650SOL    HW129849   3.477  -0.041   2.672  0.5467 -0.8425 -0.9072
 9650SOL    HW229850   3.353   0.057   2.632  0.4883 -0.0302  1.1179
 9651SOL     OW29851   6.204   6.061   1.236 -0.5366 -0.2238 -0.6854
 9651SOL    HW129852   6.214   6.023   1.145 -0.8354 -1.3660 -0.2572
 9651SOL    HW229853   6.228   6.158   1.235  1.1421 -0.6282 -1.6082
 9652SOL     OW29854   5.750   1.320   4.941 -0.0130 -0.6389  0.4141
 9652SOL    HW129855   5.675   1.285   4.997  0.5775 -0.5805  1.2730
 9652SOL    HW229856   5.799   1.243   4.900  0.4674 -0.7762  1.2149
 9653SOL     OW29857   4.889   5.225   6.809  0.3678  0.4169 -0.7719
 9653SOL    HW129858   4.806   5.267   6.845  0.6421  0.8753 -0.6773
 9653SOL    HW229859   4.947   5.294   6.766  0.3831 -0.0052 -1.4566
 9654SOL     OW29860   6.884   5.871   2.641  0.7541  0.1162  0.5212
 9654SOL    HW129861   6.804   5.901   2.589 -0.9981 -1.0446  2.4148
 9654SOL    HW229862   6.902   5.775   2.623 -0.0215 -0.3729  2.1065
 9655SOL     OW29863   2.967   2.602   1.219  0.3759  0.4637 -0.1523
 9655SOL    HW129864   3.012   2.684   1.185 -0.3431  0.9881  0.1449
 9655SOL    HW229865   2.902   2.626   1.291 -0.8601 -0.1902 -1.0035
 9656SOL     OW29866   0.454   2.802   3.496  0.1472 -0.1851  0.9844
 9656SOL    HW129867   0.523   2.731   3.483  0.0858 -0.0485 -0.2484
 9656SOL    HW229868   0.499   2.891   3.501  0.0315  0.0739 -1.3509
 9657SOL     OW29869   0.860   6.960   0.276  0.1982  0.1360  0.1323
 9657SOL    HW129870   0.851   6.870   0.319 -0.5681  0.4765  0.7196
 9657SOL    HW229871   0.957   6.985   0.270  0.3439 -0.0693  1.3848
 9658SOL     OW29872   2.605   3.532   1.432  0.4591  0.1475  0.2310
 9658SOL    HW129873   2.681   3.590   1.462  1.3249 -0.5554 -0.5472
 9658SOL    HW229874   2.527   3.547   1.492  1.1473  1.0100  0.9535
 9659SOL     OW29875   1.961   3.920   6.874 -0.2994  0.1993  0.0264
 9659SOL    HW129876   2.031   3.868   6.825 -0.2050 -0.1693  0.5377
 9659SOL    HW229877   2.005   3.988   6.933 -0.3778  0.0865  0.2158
 9660SOL     OW29878   6.193   4.260   0.114  0.6897  0.4534  0.4748
 9660SOL    HW129879   6.204   4.284   0.211 -0.2700 -0.4925  0.8449
 9660SOL    HW229880   6.190   4.343   0.059  0.9278  1.0197  1.2924
 9661SOL     OW29881   1.247   6.468   6.518 -0.1684  0.2978  0.0580
 9661SOL    HW129882   1.337   6.425   6.513  0.2281  1.1977 -1.1361
 9661SOL    HW229883   1.185   6.411   6.572  0.9026 -0.7021  0.2633
 9662SOL     OW29884   3.546   1.657   6.796  1.0430 -0.3995  0.0100
 9662SOL    HW129885   3.613   1.637   6.867  1.4215 -0.8592 -0.4701
 9662SOL    HW229886   3.569   1.743   6.751  1.4351 -0.6690 -0.3037
 9663SOL     OW29887   2.183   3.008   3.104  0.6175 -0.2395 -0.1278
 9663SOL    HW129888   2.252   3.071   3.139  0.4883  0.0041 -0.3093
 9663SOL    HW229889   2.094   3.030   3.145  0.4428  0.1223 -0.6869
 9664SOL     OW29890   0.800   3.291   1.009 -0.2273  0.5179 -0.4364
 9664SOL    HW129891   0.778   3.193   1.007  0.0890  0.4439 -0.3485
 9664SOL    HW229892   0.793   3.325   1.102  1.8252  0.0670 -0.0594
 9665SOL     OW29893   6.127   0.872   6.458 -0.1007 -0.4172 -0.6182
 9665SOL    HW129894   6.121   0.812   6.378 -0.7163 -0.0450 -0.8633
 9665SOL    HW229895   6.117   0.967   6.429 -0.3073 -0.2764 -0.1031
 9666SOL     OW29896   0.412   3.426   2.135  0.0076  0.0447 -0.2517
 9666SOL    HW129897   0.492   3.380   2.098 -0.0020  0.8403 -1.3115
 9666SOL    HW229898   0.423   3.440   2.233  1.9638  1.7126 -0.6598
 9667SOL     OW29899   1.488   2.492   5.501  0.1798  0.2769 -0.3345
 9667SOL    HW129900   1.410   2.433   5.522 -1.5948  2.0864 -1.4340
 9667SOL    HW229901   1.497   2.502   5.402  2.1181 -0.2298 -0.2436
 9668SOL     OW29902   6.578   5.108   6.272 -0.4459 -0.3561  0.3243
 9668SOL    HW129903   6.627   5.031   6.231  0.1634  0.8714 -1.3657
 9668SOL    HW229904   6.505   5.073   6.331 -2.0279 -2.3044 -2.5351
 9669SOL     OW29905   1.350   0.709   5.541 -0.0701  0.5892 -0.2607
 9669SOL    HW129906   1.434   0.657   5.524 -0.1073 -0.0430  1.3066
 9669SOL    HW229907   1.317   0.748   5.456  1.3632  0.1527 -1.0479
 9670SOL     OW29908   5.094   2.305   2.714  0.2812 -0.7338 -0.4670
 9670SOL    HW129909   5.169   2.295   2.779 -0.8005 -2.2019  0.6312
 9670SOL    HW229910   5.010   2.330   2.762 -0.3752 -1.0587 -1.3986
 9671SOL     OW29911   2.799   4.324   5.982  0.0439 -0.3241 -0.6431
 9671SOL    HW129912   2.790   4.233   6.023  1.9241 -0.1495  0.2672
 9671SOL    HW229913   2.753   4.391   6.040 -1.1505 -0.6368 -1.1983
 9672SOL     OW29914   1.023   2.681   4.728 -0.0293  0.2963  0.1175
 9672SOL    HW129915   0.960   2.725   4.792  0.2338 -0.1259  0.6692
 9672SOL    HW229916   1.099   2.743   4.707 -0.5019  0.7213 -0.3753
 9673SOL     OW29917   0.458   1.610   3.376 -0.4398  0.0451 -0.5106
 9673SOL    HW129918   0.367   1.619   3.336 -1.4642 -0.5361  1.5150
 9673SOL    HW229919   0.490   1.701   3.405 -0.9382  0.1138 -0.1430
 9674SOL     OW29920   2.760   1.520   2.289  0.0793  0.6239  0.5230
 9674SOL    HW129921   2.707   1.534   2.373  0.8207  0.7172  0.9908
 9674SOL    HW229922   2.851   1.486   2.313 -0.5025 -1.7189 -0.3941
 9675SOL     OW29923   3.170   4.163   0.944  0.4098 -0.6169 -0.5161
 9675SOL    HW129924   3.110   4.186   1.020  0.6379 -3.0815  0.5044
 9675SOL    HW229925   3.116   4.156   0.860 -0.1172  0.5230 -0.2960
 9676SOL     OW29926   6.202   6.859   3.427  0.1470  0.0660 -0.2281
 9676SOL    HW129927   6.158   6.873   3.338  0.8615  1.6246 -0.3617
 9676SOL    HW229928   6.296   6.830   3.413 -0.8956 -4.1868  0.0440
 9677SOL     OW29929   6.068   1.331   0.219 -0.3727 -0.2262 -0.4843
 9677SOL    HW129930   6.102   1.406   0.162  1.7226 -1.0860 -0.4729
 9677SOL    HW229931   6.052   1.250   0.162  1.4938 -1.0133  0.0165
 9678SOL     OW29932   4.238   2.175   4.075 -0.1780 -0.6661  0.1142
 9678SOL    HW129933   4.233   2.202   4.171  0.9472  1.1477 -0.2719
 9678SOL    HW229934   4.285   2.087   4.068  2.3610  0.5010  1.1226
 9679SOL     OW29935   3.041   0.953   2.705 -0.2793 -0.5572 -0.1688
 9679SOL    HW129936   3.027   0.921   2.799  1.2376 -1.2638 -0.1424
 9679SOL    HW229937   2.976   0.907   2.645  0.3325 -2.0006  0.2114
 9680SOL     OW29938   5.121   5.249   4.417 -0.2659 -0.2898 -0.5378
 9680SOL    HW129939   5.109   5.181   4.490 -0.4427  0.4878  0.1796
 9680SOL    HW229940   5.067   5.330   4.439  0.7846  0.5042 -0.8286
 9681SOL     OW29941   2.145   4.079   2.600 -0.5736 -0.0110  0.0446
 9681SOL    HW129942   2.149   4.014   2.524  1.4837  0.0677  0.0291
 9681SOL    HW229943   2.066   4.140   2.587 -0.9398 -0.7329 -1.4039
 9682SOL     OW29944   4.314   0.050   3.373 -0.0778  0.1116  0.0103
 9682SOL    HW129945   4.233   0.086   3.418 -1.0533 -0.0910 -1.5011
 9682SOL    HW229946   4.393   0.109   3.393 -1.1072  1.6792 -0.3810
 9683SOL     OW29947   5.538   5.927   1.728  0.1021  0.3086  0.2263
 9683SOL    HW129948   5.494   5.888   1.810 -0.0892  0.1258  0.0373
 9683SOL    HW229949   5.579   6.015   1.751 -1.0324  0.8583  0.2181
 9684SOL     OW29950   5.159   3.579   1.990 -0.1234  0.2887 -1.0033
 9684SOL    HW129951   5.196   3.603   1.900  2.7389  0.9719  0.2435
 9684SOL    HW229952   5.226   3.602   2.061 -2.7487  0.9307  1.4660
 9685SOL     OW29953   1.357   5.858   6.405  0.2041  0.4606  0.4036
 9685SOL    HW129954   1.325   5.816   6.321  0.8252 -2.0778  1.3515
 9685SOL    HW229955   1.452   5.831   6.423  0.1388  1.0569  1.8374
 9686SOL     OW29956   1.055   0.675   4.588  0.2705  0.1262  0.4063
 9686SOL    HW129957   1.085   0.590   4.545  2.6941  2.4130 -2.9015
 9686SOL    HW229958   0.972   0.707   4.544  0.7678  0.6786 -0.1550
 9687SOL     OW29959   2.039   0.410   1.280 -0.5917 -0.1092 -0.1375
 9687SOL    HW129960   2.114   0.380   1.339 -0.3785  0.9684  0.1611
 9687SOL    HW229961   2.002   0.496   1.315 -1.2588 -0.0747 -0.9057
 9688SOL     OW29962   3.237   3.539   2.215 -0.4271  0.1049  0.4772
 9688SOL    HW129963   3.205   3.631   2.189 -0.1047  0.0548 -0.1265
 9688SOL    HW229964   3.215   3.475   2.141 -0.5154 -0.2756  0.8323
 9689SOL     OW29965   5.271   5.445   4.728  0.0788  0.0892 -0.3744
 9689SOL    HW129966   5.304   5.539   4.732  0.4995 -0.0576  3.0515
 9689SOL    HW229967   5.171   5.445   4.718 -0.0795  1.0233  0.9036
 9690SOL     OW29968   6.494   1.708   4.761  0.1469  0.2464  0.0790
 9690SOL    HW129969   6.480   1.793   4.710  0.1868  0.6219  0.6845
 9690SOL    HW229970   6.447   1.633   4.714  1.2395  0.3252 -1.2082
 9691SOL     OW29971   2.657   0.886   1.382 -0.0187  0.8156 -0.6696
 9691SOL    HW129972   2.751   0.900   1.352  0.3805 -0.0198  0.1502
 9691SOL    HW229973   2.607   0.972   1.379  0.9275  1.3741 -0.5748
 9692SOL     OW29974   4.380   2.367   2.311 -0.4077 -0.0333 -0.7692
 9692SOL    HW129975   4.441   2.436   2.351  0.4376 -0.4750 -1.2480
 9692SOL    HW229976   4.384   2.373   2.211 -1.7036  0.3883 -0.8070
 9693SOL     OW29977   3.389   3.229   1.481  0.0779  0.0120  0.0691
 9693SOL    HW129978   3.299   3.267   1.465  0.1392  0.1271  0.0013
 9693SOL    HW229979   3.427   3.268   1.565  0.6243  0.9745 -0.6177
 9694SOL     OW29980   6.151   3.164   4.635  0.0710 -0.4310 -0.4011
 9694SOL    HW129981   6.194   3.096   4.576  2.3063  0.1122  0.4681
 9694SOL    HW229982   6.058   3.136   4.657  0.6722 -2.8478 -0.6403
 9695SOL     OW29983   5.062   6.808   1.285 -0.3826  0.6329 -0.2414
 9695SOL    HW129984   4.968   6.794   1.315 -0.8064  1.0038 -1.3710
 9695SOL    HW229985   5.086   6.739   1.217  0.8097 -0.6430  1.3718
 9696SOL     OW29986   6.333   5.208   5.283 -0.6682 -0.5231  0.4819
 9696SOL    HW129987   6.245   5.215   5.330 -0.8074 -0.8916  0.2829
 9696SOL    HW229988   6.326   5.249   5.192 -0.5695 -0.3509  0.5507
 9697SOL     OW29989   5.663   0.111   0.148  0.5074  0.4240  0.4114
 9697SOL    HW129990   5.635   0.147   0.237  1.7423  0.2375  0.8945
 9697SOL    HW229991   5.717   0.028   0.161  1.5992  0.9666 -0.4337
 9698SOL     OW29992   1.675   0.159   2.492  0.5628 -0.3478 -0.0100
 9698SOL    HW129993   1.753   0.142   2.432  0.9657  0.4396  0.2831
 9698SOL    HW229994   1.627   0.242   2.463 -0.4365 -1.0603 -0.4522
 9699SOL     OW29995   0.764   4.406   5.634  0.2948 -0.6994  0.5878
 9699SOL    HW129996   0.760   4.492   5.685  0.8290 -0.5466  0.3830
 9699SOL    HW229997   0.859   4.387   5.608 -0.0103 -0.5176 -0.7657
 9700SOL     OW29998   5.923   2.977   0.213  0.1257  0.5825  0.6232
 9700SOL    HW129999   5.915   2.942   0.120  0.3787  0.7091  0.5529
 9700SOL    HW230000   6.001   2.934   0.258 -0.6233 -0.2671  1.1320
 9701SOL     OW30001   3.847   2.785   1.432 -0.1701 -0.4393  0.0790
 9701SOL    HW130002   3.766   2.786   1.490  0.2980  1.2088  0.7413
 9701SOL    HW230003   3.882   2.691   1.425 -0.6427 -0.7763  1.8671
 9702SOL     OW30004   4.588   5.095   0.662 -0.3670  0.1693 -0.1323
 9702SOL    HW130005   4.565   5.004   0.627  0.9023 -0.2391  0.0343
 9702SOL    HW230006   4.650   5.140   0.598  0.4717  0.1695  0.6548
 9703SOL     OW30007   2.308   5.469   0.829 -0.0414  0.0476 -0.0432
 9703SOL    HW130008   2.293   5.531   0.752  0.6588 -1.1319 -1.1806
 9703SOL    HW230009   2.237   5.398   0.830  0.5947 -0.6127 -0.3326
 9704SOL     OW30010   5.387   1.396   0.307  0.0754  0.0706 -0.1341
 9704SOL    HW130011   5.441   1.403   0.391  0.6841 -0.7967 -0.4414
 9704SOL    HW230012   5.342   1.484   0.289  0.8893  0.6204  0.4609
 9705SOL     OW30013   5.522   3.051   4.804  0.4209 -0.2094  0.1890
 9705SOL    HW130014   5.582   3.098   4.868  1.2677 -1.5673  0.4340
 9705SOL    HW230015   5.437   3.102   4.795  1.2027  1.2218  0.6059
 9706SOL     OW30016   4.563   6.571   4.599 -0.4289 -0.0918 -0.4338
 9706SOL    HW130017   4.575   6.608   4.691  1.7002 -0.0470 -0.6792
 9706SOL    HW230018   4.563   6.471   4.603 -1.6625 -0.1063 -0.2758
 9707SOL     OW30019   4.914   0.506   4.235 -0.0174  0.3807 -0.2681
 9707SOL    HW130020   4.910   0.430   4.170  2.2150  0.1695 -0.2200
 9707SOL    HW230021   4.884   0.590   4.190 -0.5169 -0.1451 -0.9396
 9708SOL     OW30022   1.114   4.641   1.279  0.0721 -0.3044  0.2638
 9708SOL    HW130023   1.168   4.714   1.321 -1.7288  0.3098  1.6310
 9708SOL    HW230024   1.142   4.553   1.317  0.8744 -0.1200  0.1101
 9709SOL     OW30025   5.229   1.867   0.465 -0.4328  0.3206  0.2122
 9709SOL    HW130026   5.215   1.916   0.551  0.0338  0.9030 -0.0384
 9709SOL    HW230027   5.146   1.872   0.409 -0.5219  0.4750  0.3580
 9710SOL     OW30028   3.610   1.296   2.859 -0.3320 -0.1077  0.0493
 9710SOL    HW130029   3.533   1.252   2.814 -0.6351  0.4317  0.0339
 9710SOL    HW230030   3.589   1.312   2.955  0.4170 -1.5004  0.4666
 9711SOL     OW30031   0.531   5.583   6.253 -0.0144 -0.1418  0.4729
 9711SOL    HW130032   0.505   5.507   6.193 -1.7704  0.8106 -0.0764
 9711SOL    HW230033   0.590   5.550   6.326 -0.6801 -2.0251  0.2228
 9712SOL     OW30034   5.034   0.004   1.759 -0.2800  0.8425  0.0634
 9712SOL    HW130035   5.027   0.101   1.734 -0.1880  1.1595  1.2117
 9712SOL    HW230036   4.957  -0.046   1.719 -1.3369  1.7270  0.9113
 9713SOL     OW30037   4.292   3.716   6.126  0.6357  0.5625  0.3554
 9713SOL    HW130038   4.340   3.682   6.207 -1.9614  1.0106  2.1863
 9713SOL    HW230039   4.199   3.681   6.125  0.8149 -0.1371 -2.9945
 9714SOL     OW30040   5.440   6.970   5.764 -0.2770 -0.4978  0.2034
 9714SOL    HW130041   5.437   6.999   5.860  1.0579  0.0275  0.1172
 9714SOL    HW230042   5.348   6.976   5.724 -0.6209  0.5411  1.0953
 9715SOL     OW30043   0.007   5.559   5.436  0.2044 -0.0204  0.3128
 9715SOL    HW130044  -0.026   5.646   5.473  1.3798  1.4496 -1.8282
 9715SOL    HW230045  -0.022   5.550   5.341  0.4410 -1.8079  0.3753
 9716SOL     OW30046   4.230   0.980   0.006  0.2190 -0.2991 -0.0968
 9716SOL    HW130047   4.285   0.899  -0.014  1.4434  0.4984 -0.0692
 9716SOL    HW230048   4.215   1.032  -0.078  1.0823  0.4326  0.1863
 9717SOL     OW30049   0.501   5.662   3.916  0.5603 -0.0358  0.6911
 9717SOL    HW130050   0.538   5.570   3.925  1.7803  0.5316  2.0775
 9717SOL    HW230051   0.565   5.719   3.865  0.0822  0.1912  0.3357
 9718SOL     OW30052   1.444   3.143   2.692  0.1983  0.4023 -0.1826
 9718SOL    HW130053   1.503   3.099   2.624 -1.1358 -1.5269 -0.1703
 9718SOL    HW230054   1.359   3.172   2.649  0.0828  0.8323  0.3216
 9719SOL     OW30055   2.554   2.468   4.668 -0.6971  0.3796 -1.0447
 9719SOL    HW130056   2.502   2.392   4.708 -2.0068  1.6969 -0.1333
 9719SOL    HW230057   2.529   2.553   4.715  0.8814  1.3545 -1.9017
 9720SOL     OW30058   5.216   4.626   5.217  0.4656  0.3342  0.1639
 9720SOL    HW130059   5.276   4.546   5.215 -1.9497 -1.5915 -0.0392
 9720SOL    HW230060   5.232   4.679   5.301  0.7220 -1.5409  1.3505
 9721SOL     OW30061   1.208   5.122   6.006  0.1843  0.1369 -0.5614
 9721SOL    HW130062   1.165   5.193   6.062  1.2349  0.6239 -0.3630
 9721SOL    HW230063   1.145   5.094   5.934 -0.9734 -0.0795  0.4912
 9722SOL     OW30064   2.222   4.891   1.208 -0.4141 -0.2304 -0.0320
 9722SOL    HW130065   2.300   4.953   1.204 -1.4398  1.5801  3.3885
 9722SOL    HW230066   2.243   4.807   1.158  4.4492 -0.6334  2.1188
 9723SOL     OW30067   5.271   3.356   6.315 -0.0718  0.6108 -0.5612
 9723SOL    HW130068   5.314   3.305   6.390 -1.7306  1.0008  0.7060
 9723SOL    HW230069   5.333   3.427   6.283 -0.0566  1.8102  1.8886
 9724SOL     OW30070   1.475   6.330   1.345 -0.5620  0.1603 -0.4049
 9724SOL    HW130071   1.424   6.405   1.386  1.2630  2.1663 -1.6185
 9724SOL    HW230072   1.487   6.257   1.413  0.0996  2.2059  1.7980
 9725SOL     OW30073   3.657   0.141   0.110  0.3896 -0.1928 -0.0280
 9725SOL    HW130074   3.734   0.155   0.047  0.2997  0.1773 -0.0574
 9725SOL    HW230075   3.677   0.187   0.196 -1.2649  2.9982 -1.1769
 9726SOL     OW30076   4.596   0.519   0.215  0.0612  0.0314  0.4370
 9726SOL    HW130077   4.523   0.477   0.270  0.2104 -0.7099  0.0825
 9726SOL    HW230078   4.667   0.555   0.276 -0.2142  0.0392  0.7568
 9727SOL     OW30079   4.063   5.548   1.792  0.2522 -0.3213 -0.5586
 9727SOL    HW130080   4.150   5.555   1.743  0.2928  2.9892 -0.1756
 9727SOL    HW230081   3.992   5.594   1.739 -0.7521 -0.7936  0.3461
 9728SOL     OW30082   5.560   0.771   4.333 -0.0527 -0.4863 -0.6517
 9728SOL    HW130083   5.505   0.787   4.251 -0.2890  2.1506 -0.0603
 9728SOL    HW230084   5.654   0.749   4.306 -0.1021  0.4518 -1.6498
 9729SOL     OW30085   0.138   0.500   6.666  0.5560 -0.4209 -0.6084
 9729SOL    HW130086   0.129   0.447   6.582  0.3254  0.2648 -1.0228
 9729SOL    HW230087   0.224   0.475   6.712  0.4299 -1.1811 -0.7642
 9730SOL     OW30088   6.663   4.713   6.430 -0.2519 -0.7002 -0.5951
 9730SOL    HW130089   6.703   4.802   6.452 -0.9418 -0.3905 -0.5741
 9730SOL    HW230090   6.713   4.671   6.355  3.6102 -2.7507  2.7405
 9731SOL     OW30091   5.434   1.174   0.143  0.1244 -0.0492  0.5315
 9731SOL    HW130092   5.442   1.219   0.232 -3.1056  0.4480  0.6720
 9731SOL    HW230093   5.378   1.230   0.083  0.9953 -1.1199 -1.3514
 9732SOL     OW30094   1.365   1.322   6.499 -0.3784 -0.0517 -0.4839
 9732SOL    HW130095   1.320   1.383   6.435 -0.2360  0.5024 -0.0625
 9732SOL    HW230096   1.297   1.260   6.540 -0.5167 -0.1958 -0.9249
 9733SOL     OW30097   0.445   6.519   0.857  0.2991 -0.0212 -0.1446
 9733SOL    HW130098   0.423   6.609   0.819 -0.6847 -0.2074 -0.0625
 9733SOL    HW230099   0.435   6.450   0.785  1.0813 -0.0649 -0.2160
 9734SOL     OW30100   6.495   1.212   4.279  0.0429  0.6951 -0.2077
 9734SOL    HW130101   6.558   1.285   4.253 -1.0103  2.3357  1.5802
 9734SOL    HW230102   6.425   1.201   4.208  0.1135  1.5420 -0.4185
 9735SOL     OW30103   1.515   6.381   0.222 -0.0648 -0.4608 -0.0474
 9735SOL    HW130104   1.536   6.450   0.292 -1.4829 -1.3760  1.3424
 9735SOL    HW230105   1.418   6.387   0.198  0.1863 -0.8343 -1.2134
 9736SOL     OW30106   0.276   0.492   4.198  0.6701 -0.0856 -0.5838
 9736SOL    HW130107   0.260   0.413   4.257  0.2350 -0.0688 -0.6711
 9736SOL    HW230108   0.296   0.572   4.256  1.1412 -0.2654 -0.4980
 9737SOL     OW30109   0.698   0.662   4.297 -0.4779  0.4031 -0.6524
 9737SOL    HW130110   0.702   0.749   4.248  1.6351 -0.1904 -1.6453
 9737SOL    HW230111   0.737   0.589   4.240 -0.7351 -0.8968  0.7596
 9738SOL     OW30112   0.054   3.908   4.250  0.8477 -0.0830 -0.2162
 9738SOL    HW130113   0.007   3.974   4.191  2.1913  0.5238 -0.6414
 9738SOL    HW230114   0.001   3.824   4.253 -0.8981  0.9820  0.3173
 9739SOL     OW30115   4.352   5.631   4.830  0.1739  0.9103  0.3454
 9739SOL    HW130116   4.341   5.531   4.832  1.1573  0.7254 -1.2994
 9739SOL    HW230117   4.296   5.669   4.756  0.0868  1.5367  0.7322
 9740SOL     OW30118   6.410   5.548   6.229  0.7852 -0.3813 -0.2979
 9740SOL    HW130119   6.432   5.592   6.316 -0.8468 -0.1799  0.0357
 9740SOL    HW230120   6.312   5.530   6.224  1.0753 -1.8437 -1.4332
 9741SOL     OW30121   5.033   6.115   0.296  0.0993 -0.3370 -0.0581
 9741SOL    HW130122   4.958   6.172   0.330  0.2795 -1.2248  1.9102
 9741SOL    HW230123   5.120   6.152   0.328  0.2622 -1.2968  0.6213
 9742SOL     OW30124   4.759   5.652   2.156 -0.3925 -0.0952 -0.3967
 9742SOL    HW130125   4.766   5.688   2.063 -0.5268  0.3091 -0.2543
 9742SOL    HW230126   4.802   5.561   2.161 -0.2916 -0.0706 -0.8254
 9743SOL     OW30127   3.428   5.705   4.361  0.1686 -0.5408  0.0330
 9743SOL    HW130128   3.476   5.742   4.440 -0.0973 -0.6854  0.2615
 9743SOL    HW230129   3.395   5.613   4.381 -2.5979  0.5353  0.8937
 9744SOL     OW30130   6.261   2.179   4.849 -0.3051  0.3180 -0.0900
 9744SOL    HW130131   6.225   2.141   4.934  2.0066 -0.6594  0.5408
 9744SOL    HW230132   6.357   2.203   4.861  0.0580  0.2900 -2.3974
 9745SOL     OW30133   4.255   6.929   2.502 -0.5416 -0.2444 -0.1864
 9745SOL    HW130134   4.239   6.913   2.405 -2.5828  0.0662  0.0432
 9745SOL    HW230135   4.279   7.025   2.517  0.3101 -0.4111 -0.4103
 9746SOL     OW30136   6.035   1.476   3.583 -0.0801  0.0575  0.5242
 9746SOL    HW130137   5.962   1.443   3.523 -0.0442  0.3329  0.3254
 9746SOL    HW230138   6.124   1.442   3.550 -0.1198 -0.3289  0.8015
 9747SOL     OW30139   6.023   3.485   3.900  0.0142  0.2038  0.2815
 9747SOL    HW130140   6.026   3.576   3.943  1.9523  0.6048 -0.6110
 9747SOL    HW230141   5.935   3.443   3.919 -0.5488  1.8432  1.5936
 9748SOL     OW30142   0.395   0.719   4.677 -0.7853 -0.5010  0.1621
 9748SOL    HW130143   0.316   0.779   4.686 -1.0902 -0.9375  0.4287
 9748SOL    HW230144   0.366   0.630   4.643 -0.2258 -0.2428 -1.0653
 9749SOL     OW30145   2.946   5.446   4.553 -0.0138 -0.5159  0.1374
 9749SOL    HW130146   2.980   5.441   4.459 -0.6724 -0.2307 -0.1247
 9749SOL    HW230147   2.965   5.361   4.601  0.2105 -0.7121 -0.2999
 9750SOL     OW30148   6.603   3.327   4.320 -0.5552 -0.1281  0.6225
 9750SOL    HW130149   6.519   3.290   4.360 -0.2192  0.1201  1.5890
 9750SOL    HW230150   6.671   3.338   4.392  0.0618  0.3596 -0.0317
 9751SOL     OW30151   1.346   1.119   1.470  0.5421  0.2354  0.0167
 9751SOL    HW130152   1.393   1.090   1.554  1.1543 -1.6030 -0.9183
 9751SOL    HW230153   1.253   1.150   1.493  1.5136  2.1926  1.6566
 9752SOL     OW30154   6.924   5.635   2.454 -0.4032  0.2137 -0.1243
 9752SOL    HW130155   6.893   5.562   2.393 -0.3046 -0.5121  0.6766
 9752SOL    HW230156   6.962   5.710   2.399  3.2898 -1.9792 -0.9723
 9753SOL     OW30157   1.057   3.953   4.571 -0.2119  0.3457  0.2586
 9753SOL    HW130158   1.000   3.958   4.653 -1.5115 -1.3316 -0.4745
 9753SOL    HW230159   1.131   3.886   4.586 -0.8154 -0.4233 -0.1107
 9754SOL     OW30160   5.993   1.042   3.449  0.1154  0.1624  0.1766
 9754SOL    HW130161   5.904   0.997   3.458  0.0594  0.6420  2.8226
 9754SOL    HW230162   6.050   1.019   3.528  1.4686  1.7492 -0.2806
 9755SOL     OW30163   6.409   0.324   6.595  0.0617  0.6359 -0.6236
 9755SOL    HW130164   6.470   0.353   6.521 -0.2290 -0.2970 -1.2360
 9755SOL    HW230165   6.459   0.330   6.682  0.0749  2.7908 -0.7044
 9756SOL     OW30166   1.855   1.594   6.009  0.1048  0.1762 -0.1591
 9756SOL    HW130167   1.761   1.614   5.983 -0.2282  1.5178  1.7980
 9756SOL    HW230168   1.915   1.668   5.976 -0.0773  1.0437  1.3551
 9757SOL     OW30169   1.015   2.680   3.898 -0.0793  0.3996 -0.0966
 9757SOL    HW130170   1.105   2.723   3.904  0.0202 -0.0022  1.5550
 9757SOL    HW230171   1.026   2.583   3.875 -0.1308  0.4585 -0.3801
 9758SOL     OW30172   0.661   1.855   5.190 -0.1915  0.4890  0.0731
 9758SOL    HW130173   0.664   1.922   5.264  0.6502 -0.4236  0.8933
 9758SOL    HW230174   0.693   1.767   5.224 -1.0146 -0.2667 -1.0618
 9759SOL     OW30175   3.269   6.442   1.351 -0.3595 -0.2934  0.2274
 9759SOL    HW130176   3.202   6.491   1.295  0.5411  0.3381 -0.3247
 9759SOL    HW230177   3.221   6.391   1.423 -1.3751  0.6882  0.2737
 9760SOL     OW30178   6.786   4.307   5.496 -0.0948  0.3072  0.5819
 9760SOL    HW130179   6.748   4.232   5.549 -1.9769  0.4714 -0.4399
 9760SOL    HW230180   6.853   4.357   5.552 -0.3435 -0.8614  1.9806
 9761SOL     OW30181   5.138   4.684   2.437  0.1262 -0.2502 -0.1899
 9761SOL    HW130182   5.198   4.763   2.432 -0.0771 -0.1793 -2.1940
 9761SOL    HW230183   5.193   4.600   2.440  0.3352 -0.1317 -0.6905
 9762SOL     OW30184   6.614   2.144   4.349  0.4187 -0.1750 -0.2182
 9762SOL    HW130185   6.696   2.196   4.375  2.5245 -2.5244 -1.6946
 9762SOL    HW230186   6.597   2.071   4.415  1.2132 -1.3945 -1.3166
 9763SOL     OW30187   5.992   5.661   4.432 -0.1389 -0.2255 -0.1969
 9763SOL    HW130188   5.972   5.578   4.484 -0.7236 -0.0927 -0.2030
 9763SOL    HW230189   6.042   5.637   4.349  1.2378 -0.3930  0.6525
 9764SOL     OW30190   5.252   6.122   1.761 -0.5528 -0.2780 -1.1581
 9764SOL    HW130191   5.272   6.032   1.799  0.9313 -0.4614 -2.2743
 9764SOL    HW230192   5.167   6.157   1.801  0.9983 -0.2993  2.4697
 9765SOL     OW30193   0.485   4.316   5.537  0.0907  0.1479  0.2834
 9765SOL    HW130194   0.492   4.318   5.637 -1.5669  0.2832  0.4225
 9765SOL    HW230195   0.570   4.280   5.499  0.0640 -1.7018  1.8249
 9766SOL     OW30196   3.365   4.427   5.322 -0.4625 -0.2360  0.0585
 9766SOL    HW130197   3.281   4.381   5.294 -1.3188  1.2985 -0.0461
 9766SOL    HW230198   3.435   4.359   5.347 -1.8729 -1.5368  0.6051
 9767SOL     OW30199   1.249   0.049   3.162  1.0358 -0.4676 -0.2358
 9767SOL    HW130200   1.267   0.145   3.143  0.0136 -0.5361 -1.7416
 9767SOL    HW230201   1.260  -0.005   3.079  1.9975 -1.7467  0.6710
 9768SOL     OW30202   6.545   4.855   6.974 -0.0920  0.0318 -0.0939
 9768SOL    HW130203   6.516   4.797   6.898  1.7373  1.5308 -2.0660
 9768SOL    HW230204   6.637   4.830   7.003 -0.4851 -0.0388  1.1718
 9769SOL     OW30205   4.889   6.704   5.636  0.1423 -0.3406 -0.5481
 9769SOL    HW130206   4.883   6.748   5.726  2.8244 -0.0480 -0.4445
 9769SOL    HW230207   4.872   6.772   5.564  0.7406  0.0645 -0.3110
 9770SOL     OW30208   0.172   2.855   5.584 -0.1976  0.3168 -0.4645
 9770SOL    HW130209   0.104   2.918   5.621 -0.0915 -0.6176  1.4505
 9770SOL    HW230210   0.198   2.788   5.654  1.4217 -0.4257 -1.6849
 9771SOL     OW30211   1.136   2.281   4.824  0.3176  0.5155  0.2390
 9771SOL    HW130212   1.039   2.304   4.827  0.2176  0.3428 -1.2859
 9771SOL    HW230213   1.184   2.346   4.765  0.8492 -0.3576 -0.3096
 9772SOL     OW30214   2.833   0.849   2.550  0.2985  0.6417  0.5160
 9772SOL    HW130215   2.873   0.898   2.472  1.9263  1.6852  1.9507
 9772SOL    HW230216   2.816   0.754   2.524  0.5470  1.0319 -1.1941
 9773SOL     OW30217   1.328   6.029   6.042  0.1128  0.0665  0.5257
 9773SOL    HW130218   1.386   6.088   6.097  1.5564 -0.8341  0.0161
 9773SOL    HW230219   1.346   6.044   5.945 -1.4338  0.6667  0.2972
 9774SOL     OW30220   4.600   2.224   5.153 -0.0693 -0.1963 -0.0544
 9774SOL    HW130221   4.632   2.294   5.217  2.1763 -0.8942 -0.3211
 9774SOL    HW230222   4.502   2.211   5.164 -0.2173  1.6510  1.3017
 9775SOL     OW30223   3.074   3.111   1.982 -0.3561  0.0814  0.1436
 9775SOL    HW130224   3.093   3.039   1.915 -1.3875  0.1439 -0.2354
 9775SOL    HW230225   3.091   3.077   2.074  2.3574  0.3949 -0.1749
 9776SOL     OW30226   0.433   4.799   6.022 -0.1972 -0.2713 -0.4192
 9776SOL    HW130227   0.433   4.716   6.078 -1.1162  1.1065  1.7642
 9776SOL    HW230228   0.513   4.854   6.045 -0.0082 -0.1827 -1.2811
 9777SOL     OW30229   2.315   1.992   0.648 -0.4929  0.1947  0.7816
 9777SOL    HW130230   2.374   2.069   0.672 -0.0987 -0.2593  1.2761
 9777SOL    HW230231   2.225   2.004   0.690 -0.2495  0.0976  1.3311
 9778SOL     OW30232   0.169   6.200   1.424  0.3483 -0.2322  0.7841
 9778SOL    HW130233   0.194   6.259   1.347 -1.5064  0.6744  0.8281
 9778SOL    HW230234   0.230   6.121   1.426 -0.1216 -0.8147 -2.2519
 9779SOL     OW30235   6.781   3.986   4.418 -0.5484 -0.1840 -0.2993
 9779SOL    HW130236   6.817   3.991   4.511 -0.4704  2.6739 -0.4018
 9779SOL    HW230237   6.771   4.079   4.381 -2.8033 -1.1370 -2.3082
 9780SOL     OW30238   2.440   2.981   1.298  0.5063 -0.6979  0.0921
 9780SOL    HW130239   2.455   2.936   1.386  0.2950  0.9763  1.0199
 9780SOL    HW230240   2.343   3.005   1.289 -0.5087 -4.6314 -2.5335
 9781SOL     OW30241   5.423   4.689   3.568 -0.5596 -0.7444  0.2268
 9781SOL    HW130242   5.490   4.702   3.495 -0.8582  0.7750  0.1899
 9781SOL    HW230243   5.470   4.677   3.655 -0.2209 -1.3412 -0.0369
 9782SOL     OW30244   5.736   6.527   3.731 -0.4249  0.1066  0.3209
 9782SOL    HW130245   5.677   6.516   3.651  0.1727  0.9555 -0.2525
 9782SOL    HW230246   5.831   6.519   3.703 -0.2384 -0.4131  1.0968
 9783SOL     OW30247   4.200   4.932   5.454  0.6806 -0.2258 -0.3926
 9783SOL    HW130248   4.111   4.977   5.456 -0.2814 -2.0453 -0.5487
 9783SOL    HW230249   4.270   4.998   5.426 -0.6931  1.0919 -0.8348
 9784SOL     OW30250   6.981   4.802   6.359 -0.2511 -0.2710 -0.1123
 9784SOL    HW130251   6.952   4.813   6.455  1.6915 -1.3454  0.6624
 9784SOL    HW230252   6.966   4.888   6.310 -0.2458  0.6751  1.4620
 9785SOL     OW30253   6.523   0.636   1.732  0.1443 -0.1011 -0.5991
 9785SOL    HW130254   6.537   0.683   1.646  0.0375  0.8025 -0.1309
 9785SOL    HW230255   6.432   0.657   1.768 -0.5385 -1.9217 -1.1406
 9786SOL     OW30256   0.845   2.341   5.841 -0.2669 -0.3064 -0.4398
 9786SOL    HW130257   0.898   2.297   5.914 -0.9243 -0.8941 -0.3129
 9786SOL    HW230258   0.867   2.297   5.753 -1.2450 -1.1942 -0.2523
 9787SOL     OW30259   2.617   1.398   2.817  0.3706 -0.0220  0.7622
 9787SOL    HW130260   2.560   1.465   2.770 -0.5136 -0.1312  1.6512
 9787SOL    HW230261   2.713   1.415   2.795  0.2503  2.0669  1.5787
 9788SOL     OW30262   1.691   5.250   4.556 -0.0149 -0.6584  0.3007
 9788SOL    HW130263   1.763   5.220   4.618 -0.6937  0.8348  1.8902
 9788SOL    HW230264   1.604   5.209   4.583  0.3213 -3.5402 -2.4133
 9789SOL     OW30265   3.853   1.806   5.752  0.4190 -0.4173 -0.0634
 9789SOL    HW130266   3.852   1.878   5.821  1.2348  0.2664 -0.7490
 9789SOL    HW230267   3.763   1.797   5.711 -0.2066 -1.1491  1.3898
 9790SOL     OW30268   5.177   6.419   5.841 -0.1350 -0.1323 -0.3058
 9790SOL    HW130269   5.101   6.426   5.777 -0.4395 -0.1453  0.0488
 9790SOL    HW230270   5.227   6.506   5.842  0.0879 -0.2511 -0.8235
 9791SOL     OW30271   2.485   2.655   1.857 -0.3965 -0.0455  1.2513
 9791SOL    HW130272   2.520   2.612   1.940  0.7520 -0.9328  0.3520
 9791SOL    HW230273   2.559   2.703   1.811 -1.3090  1.5645  1.3832
 9792SOL     OW30274   6.020   5.835   5.817  0.2053 -0.3356 -0.4887
 9792SOL    HW130275   5.978   5.744   5.817  0.2450 -0.3528 -0.2999
 9792SOL    HW230276   6.119   5.825   5.801  0.7086 -0.5521  2.3073
 9793SOL     OW30277   5.447   1.011   6.741 -0.3566 -0.0480  0.1980
 9793SOL    HW130278   5.371   0.949   6.726 -0.1403 -0.2443 -0.1110
 9793SOL    HW230279   5.508   0.974   6.812  0.5289 -0.9105 -0.9681
 9794SOL     OW30280   1.980   2.017   6.679 -0.5123 -0.3394  0.4006
 9794SOL    HW130281   1.994   2.052   6.587 -2.5085  1.4631  0.7198
 9794SOL    HW230282   2.065   2.026   6.731  0.1338  0.3079 -0.7322
 9795SOL     OW30283   5.530   0.895   2.902  0.4147 -0.0601  0.0840
 9795SOL    HW130284   5.615   0.908   2.850  0.3666 -0.1608 -0.0210
 9795SOL    HW230285   5.552   0.863   2.994  0.4373 -1.7045 -0.4532
 9796SOL     OW30286   4.968   6.359   1.757  0.1609  0.0837 -0.0287
 9796SOL    HW130287   4.926   6.419   1.824  1.8294  1.2787  0.0177
 9796SOL    HW230288   4.958   6.264   1.786  0.8463  0.5710  1.9361
 9797SOL     OW30289   1.168   2.447   6.862  0.1464 -0.6775 -0.0444
 9797SOL    HW130290   1.147   2.544   6.856  1.8167 -0.3283 -0.7751
 9797SOL    HW230291   1.126   2.399   6.785 -0.3974 -0.5002  0.1346
 9798SOL     OW30292   4.188   1.990   3.496  0.9207 -0.4963 -0.8806
 9798SOL    HW130293   4.288   1.992   3.495  0.9168  1.3750 -1.6681
 9798SOL    HW230294   4.154   1.993   3.402  0.1127 -0.9721 -0.6077
 9799SOL     OW30295   2.872   2.106   0.841  0.1476  0.1396  0.4045
 9799SOL    HW130296   2.956   2.145   0.879 -0.6566  0.2793  2.1477
 9799SOL    HW230297   2.889   2.012   0.813  1.2684  0.6565 -0.7671
 9800SOL     OW30298   3.325   0.511   5.810 -0.1711 -0.3410 -0.0355
 9800SOL    HW130299   3.258   0.532   5.739  0.8579 -3.3008 -2.1047
 9800SOL    HW230300   3.414   0.550   5.785 -0.0380 -0.4915  0.1933
 9801SOL     OW30301   0.111   1.795   0.664  0.4054 -0.2817  0.2753
 9801SOL    HW130302   0.129   1.719   0.602 -0.8911  1.3237 -2.2306
 9801SOL    HW230303   0.194   1.851   0.673  0.0974  0.5551 -1.6738
 9802SOL     OW30304   6.833   1.182   2.427  0.0429 -0.0812 -0.5918
 9802SOL    HW130305   6.846   1.085   2.404  0.7584 -0.3799  0.9248
 9802SOL    HW230306   6.749   1.215   2.385 -0.6034 -1.5702 -0.5497
 9803SOL     OW30307   5.699   2.726   3.991 -1.2410 -0.3126 -0.5730
 9803SOL    HW130308   5.743   2.812   4.018 -0.3104 -0.7631 -0.6400
 9803SOL    HW230309   5.684   2.725   3.893  1.3048 -1.3391 -1.0400
 9804SOL     OW30310   1.472   6.335   3.986 -0.0562  0.2846  0.0420
 9804SOL    HW130311   1.459   6.367   3.892  0.0946  0.8169  0.1995
 9804SOL    HW230312   1.404   6.265   4.007 -1.9235  2.0816  0.4140
 9805SOL     OW30313   0.851   1.722   4.781 -0.2947 -0.2069  0.5627
 9805SOL    HW130314   0.899   1.749   4.864 -0.4071 -3.2208  1.7256
 9805SOL    HW230315   0.771   1.667   4.804 -0.9785 -0.2150 -1.5352
 9806SOL     OW30316   3.839   6.465   5.744  0.1639 -0.0769  0.0396
 9806SOL    HW130317   3.760   6.503   5.695  0.3404 -0.2523 -0.3890
 9806SOL    HW230318   3.813   6.378   5.785 -0.6548  1.1232  2.2130
 9807SOL     OW30319   4.588   3.552   6.024 -0.0318 -0.8340 -0.9327
 9807SOL    HW130320   4.535   3.576   5.943 -0.5061 -1.5106 -0.8280
 9807SOL    HW230321   4.535   3.573   6.106  0.5559  0.1082 -0.7759
 9808SOL     OW30322   1.679   2.814   1.763 -0.1218 -0.7028  0.3145
 9808SOL    HW130323   1.602   2.810   1.701 -0.1328 -1.3403  0.3590
 9808SOL    HW230324   1.760   2.846   1.714 -0.4817  0.2757  0.3455
 9809SOL     OW30325   5.782   5.998   0.864  0.2829  0.5498  0.6024
 9809SOL    HW130326   5.759   5.962   0.955 -0.9777  1.5365  0.6948
 9809SOL    HW230327   5.791   6.097   0.868  1.9532  0.4672 -0.0258
 9810SOL     OW30328   0.761   5.401   1.158  0.2855 -0.5550  0.3058
 9810SOL    HW130329   0.827   5.419   1.230 -1.3426  2.2575  1.2722
 9810SOL    HW230330   0.748   5.483   1.103  0.3657 -2.1794 -2.3450
 9811SOL     OW30331   5.899   5.597   5.799  0.3393 -0.1935  0.0781
 9811SOL    HW130332   5.906   5.510   5.749  0.3749  0.0582 -0.3606
 9811SOL    HW230333   5.830   5.655   5.756  1.0690  0.4268 -0.2881
 9812SOL     OW30334   5.835   0.781   0.404 -0.2503  0.2360 -0.1535
 9812SOL    HW130335   5.746   0.770   0.360  0.0550  0.2693 -0.7806
 9812SOL    HW230336   5.825   0.765   0.503 -1.4068  2.5369  0.1574
 9813SOL     OW30337   2.232   4.813   6.286 -0.0730 -0.3117 -1.1219
 9813SOL    HW130338   2.303   4.771   6.342 -0.9637  0.2606  0.4996
 9813SOL    HW230339   2.237   4.777   6.193  0.5098 -2.4019 -0.3309
 9814SOL     OW30340   3.185   2.048   4.490  0.2108  0.5642 -0.5143
 9814SOL    HW130341   3.156   2.010   4.577  0.2566  0.5403 -0.5091
 9814SOL    HW230342   3.114   2.110   4.455  0.6049  1.3335  0.0135
 9815SOL     OW30343   4.955   3.473   5.714  0.2649 -0.5537 -0.1347
 9815SOL    HW130344   5.032   3.489   5.653 -0.1774  1.9629 -0.1502
 9815SOL    HW230345   4.923   3.379   5.704  2.1631 -1.1080 -1.4502
 9816SOL     OW30346   2.252   5.119   2.880 -1.1568  0.0973 -0.2294
 9816SOL    HW130347   2.245   5.111   2.980  0.9806 -1.6895 -0.1483
 9816SOL    HW230348   2.231   5.213   2.853 -1.5982  0.6768  1.9064
 9817SOL     OW30349   0.449   2.723   1.749  0.5480  0.1862 -0.0414
 9817SOL    HW130350   0.418   2.628   1.748  0.0846  0.3322 -0.2829
 9817SOL    HW230351   0.528   2.733   1.688  0.0896  0.1125 -0.6644
 9818SOL     OW30352   4.359   1.540   3.541 -0.6178  0.2498  0.8388
 9818SOL    HW130353   4.326   1.480   3.469 -0.5198  1.0923  0.0846
 9818SOL    HW230354   4.445   1.583   3.513 -0.2291  0.0908  1.7220
 9819SOL     OW30355   5.324   0.331   6.558 -0.2490 -0.0860  0.0973
 9819SOL    HW130356   5.295   0.415   6.605  0.9147  0.8683 -0.8154
 9819SOL    HW230357   5.278   0.327   6.469  0.2393 -0.0353 -0.1596
 9820SOL     OW30358   4.979   6.168   4.211 -0.0938  0.1514  0.2862
 9820SOL    HW130359   4.895   6.115   4.224  0.8475 -1.2741  0.8613
 9820SOL    HW230360   5.031   6.129   4.134 -0.2788  1.4807 -0.5441
 9821SOL     OW30361   3.108   0.141   4.028  0.2520 -0.2132 -0.1400
 9821SOL    HW130362   3.123   0.151   4.126  1.9632  0.5494 -0.4533
 9821SOL    HW230363   3.157   0.060   3.995  0.7948  0.2906 -0.5845
 9822SOL     OW30364   0.155   6.717   2.089  0.2310 -0.2979 -0.1853
 9822SOL    HW130365   0.225   6.689   2.023 -1.2097 -0.9292 -1.5329
 9822SOL    HW230366   0.169   6.813   2.114  0.9191 -0.0931 -1.2851
 9823SOL     OW30367   4.644   2.299   3.391 -0.7010  0.5006 -0.1637
 9823SOL    HW130368   4.566   2.356   3.365 -0.9689  0.5096  0.6249
 9823SOL    HW230369   4.635   2.209   3.347 -1.1868  0.4840 -0.0416
 9824SOL     OW30370   2.580   5.016   6.762  0.2011  0.4508 -0.4280
 9824SOL    HW130371   2.559   5.054   6.852 -0.2745  0.3259 -0.4844
 9824SOL    HW230372   2.679   5.002   6.754  0.1051 -1.1162  0.7041
 9825SOL     OW30373   1.163   6.349   0.637  0.0269  0.5333 -0.1434
 9825SOL    HW130374   1.178   6.296   0.554  3.8901 -1.1949  1.4169
 9825SOL    HW230375   1.226   6.426   0.640 -1.3678  1.7043  0.4121
 9826SOL     OW30376   1.769   3.554   5.903 -0.7915  0.2574  0.4865
 9826SOL    HW130377   1.694   3.539   5.968 -2.9568  1.2074 -1.6461
 9826SOL    HW230378   1.759   3.645   5.861  2.0509  0.7504  0.6557
 9827SOL     OW30379   6.601   0.420   6.393  0.5584 -0.3198 -0.0522
 9827SOL    HW130380   6.557   0.372   6.317  0.4154  0.2742 -0.3483
 9827SOL    HW230381   6.626   0.512   6.364 -0.9084  0.4835  1.0783
 9828SOL     OW30382   5.535   0.191   5.628  0.4487 -0.1633  0.2170
 9828SOL    HW130383   5.567   0.110   5.677  0.9462  0.0733  0.2911
 9828SOL    HW230384   5.607   0.222   5.565  0.1133 -0.0061 -0.0929
 9829SOL     OW30385   6.011   2.851   5.304  0.2581 -0.4653 -0.7734
 9829SOL    HW130386   6.017   2.892   5.213  1.2435 -0.4439 -0.7042
 9829SOL    HW230387   5.923   2.876   5.346  0.1041  0.1212 -1.4280
 9830SOL     OW30388   1.089   1.581   0.082 -0.1493  0.0259  0.1881
 9830SOL    HW130389   1.118   1.645   0.153  1.9692 -0.1930 -0.3914
 9830SOL    HW230390   1.118   1.615  -0.007 -1.6703 -0.3096 -0.4666
 9831SOL     OW30391   2.865   2.199   3.494  0.1581 -0.0696  0.3493
 9831SOL    HW130392   2.860   2.249   3.408 -0.4325  0.0042  0.4205
 9831SOL    HW230393   2.900   2.106   3.477  2.6508  0.7858  0.4071
 9832SOL     OW30394   4.646   2.053   3.253 -0.3305 -0.2299  0.3528
 9832SOL    HW130395   4.578   2.012   3.313  0.8201 -1.3022  0.9709
 9832SOL    HW230396   4.726   1.994   3.248  1.1416  1.6438  0.7369
 9833SOL     OW30397   3.238   3.241   4.015 -0.3153 -0.1999  0.1365
 9833SOL    HW130398   3.268   3.146   4.017 -1.0678 -0.5033 -1.2965
 9833SOL    HW230399   3.139   3.245   4.031 -0.0545  0.5127  1.8099
 9834SOL     OW30400   4.907   3.259   2.236 -0.2784 -0.3303 -0.1241
 9834SOL    HW130401   4.841   3.217   2.173  0.8505  1.8018 -2.9287
 9834SOL    HW230402   4.982   3.194   2.253 -0.1028 -0.6566 -1.8718
 9835SOL     OW30403   6.501   5.385   1.871  0.1378 -0.5187 -0.3196
 9835SOL    HW130404   6.597   5.403   1.893  0.5679 -1.4698 -1.3631
 9835SOL    HW230405   6.463   5.320   1.937 -0.1727  0.7722  0.8303
 9836SOL     OW30406   1.806   4.734   3.878 -0.0749  0.8036 -0.4711
 9836SOL    HW130407   1.879   4.666   3.884 -0.0690  0.8878  0.8221
 9836SOL    HW230408   1.804   4.788   3.962 -1.9375  0.4751 -0.2565
 9837SOL     OW30409   2.238   5.736   1.222 -0.2029  0.4186 -0.6042
 9837SOL    HW130410   2.197   5.717   1.311 -0.8899 -1.0849 -1.2092
 9837SOL    HW230411   2.236   5.654   1.166 -1.5201  1.7767 -2.6927
 9838SOL     OW30412   1.265   5.926   5.473 -0.3249  0.4466  0.6126
 9838SOL    HW130413   1.200   5.876   5.531 -0.0701 -0.7600 -0.1011
 9838SOL    HW230414   1.335   5.863   5.439 -0.5819  1.0558 -1.1715
 9839SOL     OW30415   1.211   0.969   1.902  0.3521  0.2580  0.0887
 9839SOL    HW130416   1.217   1.067   1.881  0.7160  0.0976 -0.5692
 9839SOL    HW230417   1.192   0.918   1.819  0.3503 -0.2522  0.4004
 9840SOL     OW30418   4.202   6.360   3.131  0.1715  0.3494  0.1158
 9840SOL    HW130419   4.233   6.385   3.040 -0.2601 -0.7015 -0.3376
 9840SOL    HW230420   4.152   6.436   3.172 -0.5641  0.4637 -0.9601
 9841SOL     OW30421   4.051   0.680   6.088  0.1802  0.4454  0.3271
 9841SOL    HW130422   4.100   0.624   6.155 -0.9417 -1.8262 -0.6432
 9841SOL    HW230423   3.955   0.654   6.087 -0.5094  2.7425  0.0843
 9842SOL     OW30424   1.837   0.366   4.611  0.7301 -0.2545 -0.1013
 9842SOL    HW130425   1.787   0.281   4.595 -1.4673  1.3246 -2.3528
 9842SOL    HW230426   1.928   0.360   4.568  0.9596 -1.7226  0.5361
 9843SOL     OW30427   0.491   4.147   6.328  0.2732  0.3712 -0.1489
 9843SOL    HW130428   0.394   4.125   6.316 -0.0339  0.9965  0.9810
 9843SOL    HW230429   0.545   4.063   6.327 -0.5449 -0.2109  1.3896
 9844SOL     OW30430   6.828   5.434   1.404 -0.3248 -0.0564 -0.2656
 9844SOL    HW130431   6.917   5.421   1.361 -1.1348 -1.4749 -1.6261
 9844SOL    HW230432   6.839   5.434   1.504  1.0504 -1.6650 -0.3657
 9845SOL     OW30433   6.937   1.403   0.392 -0.9424 -0.3971  0.4293
 9845SOL    HW130434   6.870   1.472   0.421 -0.9862 -0.1073 -0.3512
 9845SOL    HW230435   6.906   1.312   0.422 -1.3952 -0.1999  0.5647
 9846SOL     OW30436   0.217   6.115   3.087  0.0983 -0.2195  0.5448
 9846SOL    HW130437   0.196   6.101   2.991 -1.8383  0.7971  0.7865
 9846SOL    HW230438   0.219   6.026   3.134  0.9348 -0.7077 -0.3671
 9847SOL     OW30439   5.145   3.811   4.422 -0.3205 -0.6523 -0.1583
 9847SOL    HW130440   5.055   3.805   4.466 -1.2409  0.7180 -1.7365
 9847SOL    HW230441   5.183   3.720   4.411 -2.1914 -1.4144 -0.7667
 9848SOL     OW30442   6.485   5.409   2.972  0.1426 -0.3108  0.2533
 9848SOL    HW130443   6.552   5.390   3.044 -0.2301 -1.5514  0.2911
 9848SOL    HW230444   6.532   5.415   2.884  0.3496 -0.9070  0.3178
 9849SOL     OW30445   0.760   4.936   4.215 -0.6344  0.1877 -0.3715
 9849SOL    HW130446   0.832   4.948   4.283 -1.5855  0.2894  0.6318
 9849SOL    HW230447   0.779   4.855   4.160  1.3502  1.3508 -1.5493
 9850SOL     OW30448   6.725   1.524   6.282 -0.3639 -0.5124  0.6441
 9850SOL    HW130449   6.804   1.497   6.227 -1.0675 -1.2215 -0.0386
 9850SOL    HW230450   6.704   1.452   6.349  0.6161  0.4318  2.0331
 9851SOL     OW30451   6.384   4.528   1.753 -0.0294  0.1656 -0.3871
 9851SOL    HW130452   6.423   4.584   1.680  0.1687 -0.5493 -0.8451
 9851SOL    HW230453   6.456   4.475   1.798 -0.2590 -0.0082 -0.2158
 9852SOL     OW30454   1.564   3.775   3.745  0.0715 -0.0542  1.0754
 9852SOL    HW130455   1.483   3.733   3.704  1.6005 -1.4388 -0.6496
 9852SOL    HW230456   1.591   3.854   3.691  1.2834 -1.0656  0.1518
 9853SOL     OW30457   6.513   6.075   3.548 -0.3064 -0.4664 -0.1447
 9853SOL    HW130458   6.612   6.063   3.543  0.0529  0.7822  2.3569
 9853SOL    HW230459   6.489   6.170   3.533 -1.0843 -0.6782 -0.3093
 9854SOL     OW30460   0.039   2.556   6.303  0.0885  0.1651  0.2091
 9854SOL    HW130461   0.005   2.649   6.290 -0.0242  0.0397 -0.4619
 9854SOL    HW230462  -0.012   2.493   6.243  0.6607 -0.2071  0.1024
 9855SOL     OW30463   0.127   0.806   3.791  0.2269  0.1381 -0.1180
 9855SOL    HW130464   0.126   0.721   3.844  0.4326 -0.6522 -1.3396
 9855SOL    HW230465   0.164   0.788   3.700  0.4534  1.5900 -0.3319
 9856SOL     OW30466   0.764   4.501   3.430  0.2134 -0.0289  0.5877
 9856SOL    HW130467   0.671   4.490   3.465 -0.5281  0.9554 -0.9501
 9856SOL    HW230468   0.829   4.491   3.505 -1.2480  1.6072  2.1822
 9857SOL     OW30469   3.628   6.261   4.465 -0.1807  0.3395  0.0975
 9857SOL    HW130470   3.544   6.315   4.469 -0.1579  0.6229 -2.1921
 9857SOL    HW230471   3.659   6.241   4.558 -1.6671  1.9435  0.9881
 9858SOL     OW30472   6.738   0.712   6.330  0.2098 -0.3672 -0.5368
 9858SOL    HW130473   6.824   0.718   6.280  0.0362 -0.3370 -0.8335
 9858SOL    HW230474   6.744   0.767   6.414  0.9209 -1.3843  0.0945
 9859SOL     OW30475   6.373   4.980   1.420  0.1863 -0.3747 -0.3058
 9859SOL    HW130476   6.301   5.049   1.425  1.1553  0.6398  0.1198
 9859SOL    HW230477   6.417   4.972   1.509 -1.7603 -3.6574  0.5227
 9860SOL     OW30478   1.224   3.378   3.725  0.1269  0.6300  0.5944
 9860SOL    HW130479   1.311   3.396   3.679  0.3692 -0.9376  0.3657
 9860SOL    HW230480   1.230   3.404   3.821  1.3633 -0.7572  0.9318
 9861SOL     OW30481   6.270   4.354   1.981 -0.1166 -0.5677 -0.4769
 9861SOL    HW130482   6.272   4.414   2.061 -1.8150 -0.3095 -0.5923
 9861SOL    HW230483   6.263   4.409   1.898 -0.9205 -0.8873 -0.6310
 9862SOL     OW30484   4.958   1.632   5.149  0.1082  0.2733  0.5849
 9862SOL    HW130485   4.897   1.673   5.081 -0.2664  0.2023  0.8792
 9862SOL    HW230486   4.926   1.541   5.173  0.8784 -0.1559  0.0183
 9863SOL     OW30487   1.417   3.869   2.188  0.5454 -0.1457  0.1007
 9863SOL    HW130488   1.459   3.788   2.229  1.1536 -0.6824 -1.5033
 9863SOL    HW230489   1.360   3.842   2.111 -0.8136  0.8075  0.7241
 9864SOL     OW30490   4.558   0.574   3.644  0.1244  0.2875  0.1118
 9864SOL    HW130491   4.584   0.586   3.739  0.4068  0.8413 -0.0312
 9864SOL    HW230492   4.632   0.606   3.585  0.8805 -2.0234 -0.3186
 9865SOL     OW30493   1.235   4.613   2.641 -0.0401 -0.2809  0.5267
 9865SOL    HW130494   1.144   4.608   2.600 -0.1931  0.1064  0.8110
 9865SOL    HW230495   1.259   4.525   2.681  0.8140 -1.1862 -1.8556
 9866SOL     OW30496   2.916   4.821   3.096 -0.1963  0.0348  0.2214
 9866SOL    HW130497   2.871   4.910   3.083 -0.1486  0.4979  2.6151
 9866SOL    HW230498   3.016   4.834   3.092 -0.2037 -0.2483 -1.1198
 9867SOL     OW30499   0.682   0.977   3.901  0.5526  0.6626 -0.1981
 9867SOL    HW130500   0.606   0.912   3.896  1.8017 -0.8760 -0.1947
 9867SOL    HW230501   0.658   1.061   3.854 -0.6029 -0.3645 -1.5122
 9868SOL     OW30502   3.211   5.736   1.654  0.1558  0.8250 -0.4549
 9868SOL    HW130503   3.265   5.819   1.672 -0.5273  1.0995  0.3710
 9868SOL    HW230504   3.220   5.673   1.731  1.4586 -0.3239 -1.4976
 9869SOL     OW30505   4.775   4.739   4.904  0.2727 -0.1783 -0.0112
 9869SOL    HW130506   4.848   4.790   4.951  0.2405  0.2340 -0.3962
 9869SOL    HW230507   4.706   4.710   4.971  0.4931 -0.0569  0.2716
 9870SOL     OW30508   5.606   1.480   6.189 -0.6225  0.3816 -0.2010
 9870SOL    HW130509   5.639   1.549   6.125 -2.0062  1.3866  0.1348
 9870SOL    HW230510   5.508   1.467   6.177 -0.1282 -3.0311 -1.6374
 9871SOL     OW30511   5.943   1.467   4.226 -0.1117  0.0541  0.4299
 9871SOL    HW130512   5.900   1.555   4.244 -1.4174 -0.0780 -1.6591
 9871SOL    HW230513   5.873   1.397   4.215  0.7348 -0.6538 -0.7414
 9872SOL     OW30514   1.584   0.929   0.155  0.0583 -0.2711 -0.2077
 9872SOL    HW130515   1.653   0.931   0.083 -0.2968  1.4575 -0.5502
 9872SOL    HW230516   1.545   0.838   0.162  2.1024 -1.2152 -0.2421
 9873SOL     OW30517   6.899   4.526   5.662  0.4245  0.3526  0.3829
 9873SOL    HW130518   6.962   4.456   5.697  0.8193 -0.0703 -1.1069
 9873SOL    HW230519   6.931   4.558   5.573 -0.4514  1.5264  0.4732
 9874SOL     OW30520   4.236   4.764   2.890 -0.0112  0.4259  0.6655
 9874SOL    HW130521   4.180   4.838   2.927 -0.6445 -0.0147  0.6033
 9874SOL    HW230522   4.265   4.704   2.964  1.1732  1.1628  0.8288
 9875SOL     OW30523   3.847   2.241   5.847 -0.1441 -0.0722 -0.0267
 9875SOL    HW130524   3.873   2.206   5.757 -1.2917  1.1985 -0.8849
 9875SOL    HW230525   3.784   2.177   5.891 -0.2473 -0.2864 -0.4828
 9876SOL     OW30526   6.982   4.028   2.034  0.7435  0.1668  0.2361
 9876SOL    HW130527   6.899   4.075   2.066  0.8858  0.1720  0.6067
 9876SOL    HW230528   6.967   3.930   2.034  0.7890  0.1577  0.4690
 9877SOL     OW30529   0.079   1.380   6.769  0.6347  0.2172 -0.0671
 9877SOL    HW130530   0.129   1.400   6.853 -1.1974  1.8592  0.7245
 9877SOL    HW230531  -0.007   1.333   6.792 -0.1691  1.2071 -0.9393
 9878SOL     OW30532   0.018   0.589   2.443  0.5506 -0.4260 -0.1179
 9878SOL    HW130533   0.027   0.505   2.390  3.5574 -0.7506  0.6973
 9878SOL    HW230534   0.027   0.668   2.382 -0.0089 -0.7167 -0.5842
 9879SOL     OW30535   4.622   5.695   4.927  0.5652  0.4629 -0.0622
 9879SOL    HW130536   4.547   5.651   4.879  0.3721  0.9957 -0.2513
 9879SOL    HW230537   4.641   5.645   5.012  0.3747 -0.0003 -0.2892
 9880SOL     OW30538   5.580   6.894   4.669  0.0096  0.4834 -0.1921
 9880SOL    HW130539   5.601   6.863   4.761 -1.5745  1.1952  0.4499
 9880SOL    HW230540   5.567   6.815   4.609 -0.0945 -0.0081  0.4694
 9881SOL     OW30541   0.252   2.658   5.752 -0.1937  0.0409 -0.3629
 9881SOL    HW130542   0.332   2.660   5.813 -0.3666 -0.5130 -0.1120
 9881SOL    HW230543   0.275   2.609   5.668  0.5606  2.2061 -1.5167
 9882SOL     OW30544   6.206   1.101   0.840 -0.2842  0.2970  0.0314
 9882SOL    HW130545   6.165   1.113   0.749  0.0165  0.9436 -0.0300
 9882SOL    HW230546   6.233   1.006   0.853  1.7265  0.5843 -1.4650
 9883SOL     OW30547   5.423   3.561   5.398 -0.3370 -0.3782 -0.3544
 9883SOL    HW130548   5.403   3.631   5.468 -0.7041  0.4894 -1.3065
 9883SOL    HW230549   5.522   3.554   5.386 -0.1822 -1.4539  1.1355
 9884SOL     OW30550   1.822   4.932   0.306 -0.1530  0.4261 -0.1168
 9884SOL    HW130551   1.876   4.966   0.229 -1.3088  1.5779 -0.4481
 9884SOL    HW230552   1.743   4.881   0.271  0.2375 -0.5372  0.3537
 9885SOL     OW30553   0.096   0.297   5.282 -0.1123 -0.9178  0.8619
 9885SOL    HW130554   0.194   0.275   5.290 -0.1957 -1.2156  1.1288
 9885SOL    HW230555   0.050   0.223   5.234  0.3613  0.8178 -2.5523
 9886SOL     OW30556   3.621   1.911   2.511 -0.0648  0.1967 -0.1324
 9886SOL    HW130557   3.569   1.827   2.496 -0.9653  0.5871  0.7123
 9886SOL    HW230558   3.645   1.951   2.422 -0.4969 -0.4242 -0.5358
 9887SOL     OW30559   4.087   2.371   5.347  0.2537  0.0084 -0.2362
 9887SOL    HW130560   4.117   2.444   5.286  0.2968  0.8609  0.7636
 9887SOL    HW230561   4.054   2.294   5.294  1.2130  0.3281 -1.3353
 9888SOL     OW30562   4.200   0.035   6.378 -0.0920  0.6159  0.1617
 9888SOL    HW130563   4.156   0.073   6.297 -1.3926 -0.8901  0.1006
 9888SOL    HW230564   4.178   0.091   6.458 -1.9494  0.0956  0.0758
 9889SOL     OW30565   6.682   6.632   2.407  0.3280 -0.4080  0.4715
 9889SOL    HW130566   6.645   6.690   2.334  2.5154  1.8414  1.0188
 9889SOL    HW230567   6.684   6.683   2.493  0.8597 -1.8708  1.3724
 9890SOL     OW30568   6.118   5.205   6.483  0.1705  0.6658 -0.2979
 9890SOL    HW130569   6.163   5.133   6.431 -1.7368 -1.3453  0.6625
 9890SOL    HW230570   6.030   5.227   6.440 -0.2103  0.8950  0.5724
 9891SOL     OW30571   3.702   1.638   4.361 -0.2554 -0.5530  0.3277
 9891SOL    HW130572   3.765   1.690   4.418  1.4368  0.1988 -2.0457
 9891SOL    HW230573   3.656   1.700   4.297 -0.1209 -1.6487 -0.8688
 9892SOL     OW30574   2.893   1.859   0.300  0.1078 -0.0348  0.5614
 9892SOL    HW130575   2.906   1.911   0.384 -1.2532 -0.9951  1.3975
 9892SOL    HW230576   2.923   1.764   0.314  2.1120  0.3401 -0.7956
 9893SOL     OW30577   0.315   1.883   4.454 -0.0473  0.5451 -0.4290
 9893SOL    HW130578   0.414   1.894   4.449  0.2984 -1.8379  0.0335
 9893SOL    HW230579   0.273   1.917   4.370  1.5163 -1.1859 -2.0006
 9894SOL     OW30580   3.496   5.730   0.816  0.1913 -0.3119 -0.3980
 9894SOL    HW130581   3.521   5.765   0.907  0.5200 -3.3600  0.8300
 9894SOL    HW230582   3.403   5.757   0.794  0.7316  2.0604 -0.0620
 9895SOL     OW30583   3.154   4.230   1.264  0.2602 -0.5073  0.1995
 9895SOL    HW130584   3.071   4.193   1.222  0.6897 -1.8548  0.5162
 9895SOL    HW230585   3.225   4.240   1.194  1.0940 -3.0899  0.5730
 9896SOL     OW30586   2.471   3.049   0.281 -0.5109  0.1737 -0.4267
 9896SOL    HW130587   2.517   2.993   0.212  0.0130 -1.8296  1.4422
 9896SOL    HW230588   2.537   3.079   0.350 -1.1923  1.2715 -0.2184
 9897SOL     OW30589   1.496   4.179   5.183 -0.0369  0.0629  0.2509
 9897SOL    HW130590   1.461   4.267   5.153 -3.2681 -0.4285  2.1447
 9897SOL    HW230591   1.538   4.188   5.274 -0.6855 -0.3719  0.6039
 9898SOL     OW30592   6.814   5.848   6.372 -0.0287 -0.2910  0.0462
 9898SOL    HW130593   6.765   5.829   6.287  2.1675 -0.0221 -1.3837
 9898SOL    HW230594   6.818   5.947   6.387  1.2895 -0.2116 -0.6747
 9899SOL     OW30595   2.178   2.048   3.469  0.4407 -0.0385  0.1328
 9899SOL    HW130596   2.273   2.058   3.499  0.3741 -0.2288  0.4012
 9899SOL    HW230597   2.136   1.969   3.514 -0.1243  0.5806  0.7025
 9900SOL     OW30598   3.995   4.732   1.095  0.1980  0.1418 -0.3845
 9900SOL    HW130599   3.925   4.740   1.024 -0.3836  1.6959  0.3135
 9900SOL    HW230600   4.023   4.824   1.125  1.6690 -0.4642  0.1997
 9901SOL     OW30601   2.977   1.933   4.156 -0.0260  0.2768 -0.0002
 9901SOL    HW130602   3.038   1.877   4.211 -0.6843  0.9669  1.4931
 9901SOL    HW230603   2.952   1.883   4.073 -0.7943 -1.7717  1.3776
 9902SOL     OW30604   4.223   6.680   4.738  0.2578  0.2820  0.4407
 9902SOL    HW130605   4.143   6.655   4.793 -0.3024 -0.1727 -0.5561
 9902SOL    HW230606   4.225   6.779   4.724 -0.5912  0.2223 -0.1934
 9903SOL     OW30607   3.373   6.661   3.678 -0.0711 -0.1339 -0.3755
 9903SOL    HW130608   3.447   6.714   3.635 -0.5435  1.6388  0.8421
 9903SOL    HW230609   3.289   6.674   3.626 -0.2820  0.7108  0.1506
 9904SOL     OW30610   3.604   4.151   6.674 -0.4146  0.6185  0.8735
 9904SOL    HW130611   3.677   4.085   6.694 -0.1113  1.2721  2.0327
 9904SOL    HW230612   3.531   4.141   6.742 -1.1717  0.3262  0.0300
 9905SOL     OW30613   2.442   2.779   0.522  0.0536 -0.2054 -0.1173
 9905SOL    HW130614   2.419   2.871   0.490  0.2779  0.7260  2.1419
 9905SOL    HW230615   2.363   2.719   0.512  0.4286 -0.3106 -3.2298
 9906SOL     OW30616   3.009   5.978   4.867 -0.2705 -0.7196 -0.1860
 9906SOL    HW130617   2.915   5.969   4.832 -1.2882  1.2852  1.7622
 9906SOL    HW230618   3.007   5.978   4.967  1.8641 -0.8838 -0.1098
 9907SOL     OW30619   6.316   4.752   4.346  0.1049 -0.5086 -1.4878
 9907SOL    HW130620   6.330   4.655   4.366 -1.4111 -0.1487  1.9838
 9907SOL    HW230621   6.238   4.763   4.285 -2.0078 -1.4777  0.8634
 9908SOL     OW30622   5.238   3.212   6.777  0.0565  0.3164 -0.1109
 9908SOL    HW130623   5.316   3.150   6.787  1.8568  1.8271 -3.1889
 9908SOL    HW230624   5.250   3.290   6.839  0.2158 -0.1661  0.4740
 9909SOL     OW30625   6.163   3.523   6.110 -0.3592 -0.2002  0.2692
 9909SOL    HW130626   6.147   3.593   6.040  1.3110  0.5396  0.5777
 9909SOL    HW230627   6.158   3.566   6.201  1.2404 -0.3303  0.4409
 9910SOL     OW30628   2.304   0.318   6.988  0.0263 -0.1967  0.2876
 9910SOL    HW130629   2.333   0.367   6.906 -1.1516 -0.3965 -0.2704
 9910SOL    HW230630   2.378   0.258   7.019  0.5409 -0.0010 -0.5346
 9911SOL     OW30631   3.216   3.153   0.462  0.0001  0.6245 -0.5945
 9911SOL    HW130632   3.155   3.144   0.383 -0.1380 -0.3057 -0.3944
 9911SOL    HW230633   3.170   3.205   0.534  0.0712  1.3501 -1.0634
 9912SOL     OW30634   1.595   6.263   2.451  0.2915 -0.6014 -0.1212
 9912SOL    HW130635   1.556   6.222   2.533 -0.4069 -0.3544 -0.3212
 9912SOL    HW230636   1.523   6.277   2.383  0.2228  2.0411  0.3832
 9913SOL     OW30637   0.155   4.059   2.346 -0.7387 -0.6160 -0.3686
 9913SOL    HW130638   0.130   3.962   2.352 -0.6984 -0.6938 -1.3113
 9913SOL    HW230639   0.071   4.114   2.342 -0.9533 -0.9210 -4.2220
 9914SOL     OW30640   4.449   2.099   0.799 -0.5038  0.2967 -0.4141
 9914SOL    HW130641   4.520   2.029   0.793  0.0236  0.8865 -1.4037
 9914SOL    HW230642   4.361   2.059   0.776  0.0565  0.3053 -2.8889
 9915SOL     OW30643   4.098   5.656   4.673  0.5196 -0.3308 -0.0879
 9915SOL    HW130644   4.005   5.623   4.686  0.3641 -0.3010 -1.0214
 9915SOL    HW230645   4.117   5.664   4.575  1.3316  0.1461  0.0950
 9916SOL     OW30646   5.925   1.060   4.065 -0.5198 -0.0590 -0.4650
 9916SOL    HW130647   5.869   1.142   4.076 -1.2231 -0.5551 -0.3500
 9916SOL    HW230648   5.891   1.006   3.988 -0.8341 -0.8826  0.2438
 9917SOL     OW30649   3.735   1.400   3.323 -0.1028  0.1906  0.1228
 9917SOL    HW130650   3.749   1.474   3.388 -2.2813 -0.3498  1.2971
 9917SOL    HW230651   3.804   1.329   3.339  0.6115  0.9495  0.4845
 9918SOL     OW30652   1.446   6.512   6.173 -0.5294 -0.0801 -0.1399
 9918SOL    HW130653   1.390   6.490   6.252 -1.5703  0.0816 -0.8112
 9918SOL    HW230654   1.463   6.611   6.170 -2.0317  0.1904 -1.0681
 9919SOL     OW30655   3.665   0.311   3.378 -0.0938  0.0360  0.0843
 9919SOL    HW130656   3.598   0.291   3.450 -0.8402  1.6722 -0.1043
 9919SOL    HW230657   3.637   0.394   3.329  1.6960  0.3535 -0.4730
 9920SOL     OW30658   4.418   1.820   4.336  0.3177 -0.1183  0.3338
 9920SOL    HW130659   4.332   1.871   4.330  0.7377  0.6620  0.7616
 9920SOL    HW230660   4.405   1.739   4.394 -0.0349  0.2142  0.7303
 9921SOL     OW30661   1.708   0.062   0.735 -0.4500 -0.2542  0.1766
 9921SOL    HW130662   1.614   0.077   0.705  0.0855  1.1318 -0.9044
 9921SOL    HW230663   1.712  -0.022   0.789 -2.4452  0.0762  0.9540
 9922SOL     OW30664   0.360   2.167   2.827  0.4156  0.3553 -0.9360
 9922SOL    HW130665   0.431   2.235   2.842  1.1298 -0.7138  0.8265
 9922SOL    HW230666   0.282   2.186   2.887  1.2369 -1.1579  0.7024
 9923SOL     OW30667   6.981   5.639   4.326 -0.0379 -0.2131 -0.0681
 9923SOL    HW130668   7.012   5.713   4.266  1.2043  0.3097  1.1834
 9923SOL    HW230669   6.954   5.677   4.415  1.3807 -1.3213  0.8713
 9924SOL     OW30670   5.297   6.681   3.327  0.3030 -0.0543  0.7969
 9924SOL    HW130671   5.255   6.713   3.242  0.2898 -3.2782 -0.5561
 9924SOL    HW230672   5.241   6.709   3.405 -1.6182  0.0286 -0.5471
 9925SOL     OW30673   3.184   3.004   5.719 -0.0872 -0.1260  0.5788
 9925SOL    HW130674   3.162   2.993   5.622 -0.8578  0.8552  0.6183
 9925SOL    HW230675   3.236   2.925   5.751  0.0573 -0.5245 -0.5972
 9926SOL     OW30676   1.455   1.199   3.790  0.1650 -0.5379  0.0123
 9926SOL    HW130677   1.537   1.215   3.844 -0.1708  0.0340  0.3623
 9926SOL    HW230678   1.409   1.116   3.823  1.1823 -1.5042 -0.9174
 9927SOL     OW30679   0.997   6.687   2.773 -0.1997  0.0851  0.1425
 9927SOL    HW130680   1.095   6.703   2.780 -0.2143  1.2832 -1.6429
 9927SOL    HW230681   0.961   6.734   2.692 -1.8251 -2.2676 -0.6396
 9928SOL     OW30682   3.971   3.029   5.668 -0.0434 -0.7423 -0.0514
 9928SOL    HW130683   4.038   2.956   5.656 -0.4796 -1.2275  0.4072
 9928SOL    HW230684   3.968   3.086   5.585  0.5778 -1.0049 -0.2582
 9929SOL     OW30685   1.966   0.476   5.203 -0.6560  0.4779  0.2877
 9929SOL    HW130686   1.981   0.503   5.298 -0.9728 -0.4375  0.6082
 9929SOL    HW230687   2.030   0.403   5.179  0.4385  1.6945 -0.6734
 9930SOL     OW30688   1.992   2.417   3.939  0.4472  0.1153  0.4210
 9930SOL    HW130689   1.939   2.468   3.871 -0.3970 -1.1229  0.1179
 9930SOL    HW230690   2.083   2.459   3.948 -0.4839  2.1612  0.8152
 9931SOL     OW30691   2.940   3.766   1.222  0.2112  0.2543  0.8476
 9931SOL    HW130692   2.969   3.670   1.220  1.1219  0.4776  2.1709
 9931SOL    HW230693   3.021   3.825   1.221 -0.2266  0.9377  2.6441
 9932SOL     OW30694   2.743   2.172   1.865  0.1719 -0.5550 -0.5288
 9932SOL    HW130695   2.659   2.212   1.827 -0.8654 -2.6932 -0.6756
 9932SOL    HW230696   2.782   2.234   1.932 -0.9034  0.9919 -1.2605
 9933SOL     OW30697   5.368   2.367   3.529  0.0829 -0.1157 -0.5018
 9933SOL    HW130698   5.312   2.336   3.452 -0.7547  0.2633 -0.0592
 9933SOL    HW230699   5.417   2.450   3.503 -0.6249  0.3237 -0.4540
 9934SOL     OW30700   0.757   0.963   1.120  0.2439 -0.7274 -0.1283
 9934SOL    HW130701   0.791   0.996   1.207  0.3455 -1.4783  0.1201
 9934SOL    HW230702   0.702   1.034   1.076  1.3435  0.1602 -0.1097
 9935SOL     OW30703   5.317   6.410   5.519 -0.3004  0.1986  0.5393
 9935SOL    HW130704   5.222   6.440   5.536 -0.2747  0.1136  0.8456
 9935SOL    HW230705   5.343   6.343   5.588 -0.2948 -0.4049 -0.0426
 9936SOL     OW30706   5.824   6.119   3.407  0.4802 -0.0641  0.4460
 9936SOL    HW130707   5.899   6.062   3.440 -0.7676 -2.0687 -0.0368
 9936SOL    HW230708   5.859   6.211   3.388  2.1564 -0.0782  3.0208
 9937SOL     OW30709   1.643   3.978   5.009 -0.5607 -0.1410  0.1301
 9937SOL    HW130710   1.623   4.072   5.036 -1.2515 -0.4924  0.9180
 9937SOL    HW230711   1.739   3.957   5.028 -0.6819  0.0663  1.0245
 9938SOL     OW30712   0.690   3.547   6.541 -0.4487 -0.2703  0.3894
 9938SOL    HW130713   0.754   3.510   6.474  0.2970  0.0923  0.8905
 9938SOL    HW230714   0.677   3.481   6.615  1.6153  0.7515  1.7739
 9939SOL     OW30715   0.872   1.456   5.888  0.4013  1.0116 -0.4828
 9939SOL    HW130716   0.829   1.541   5.919  0.9985  0.9157  0.6554
 9939SOL    HW230717   0.921   1.473   5.802  0.0753  1.6783 -0.5435
 9940SOL     OW30718   5.561   1.180   5.089  0.2577 -0.6430 -0.6982
 9940SOL    HW130719   5.552   1.085   5.121  3.0231 -0.6675  0.3329
 9940SOL    HW230720   5.555   1.242   5.168 -1.8951  0.1376 -1.4084
 9941SOL     OW30721   4.732   4.480   2.308 -0.0968  0.5819  0.4597
 9941SOL    HW130722   4.817   4.506   2.262  0.2765  2.7135  2.2142
 9941SOL    HW230723   4.658   4.477   2.240  0.8729  1.3103 -0.6835
 9942SOL     OW30724   6.179   1.825   4.841 -0.1095 -0.8587 -0.0078
 9942SOL    HW130725   6.080   1.837   4.848 -0.1371  0.1067 -1.7493
 9942SOL    HW230726   6.221   1.849   4.929 -1.2054  1.0124  0.0552
 9943SOL     OW30727   0.311   4.637   2.209  0.2358  0.0090  0.5263
 9943SOL    HW130728   0.367   4.592   2.140 -0.0768  2.0501 -1.1695
 9943SOL    HW230729   0.214   4.627   2.184  0.0082 -0.6580  1.6186
 9944SOL     OW30730   5.985   1.345   2.318  0.5843 -0.0994 -0.0483
 9944SOL    HW130731   6.009   1.392   2.233  1.4187 -2.3653 -1.1690
 9944SOL    HW230732   5.889   1.317   2.315  0.6368 -0.2542 -0.2885
 9945SOL     OW30733   6.775   6.154   6.216 -0.3160 -0.4469 -0.0134
 9945SOL    HW130734   6.790   6.122   6.122 -0.2881 -0.2390 -0.0788
 9945SOL    HW230735   6.862   6.157   6.265 -0.5240 -2.1387  0.5242
 9946SOL     OW30736   2.602   5.490   6.763 -0.3573 -0.4341  0.4453
 9946SOL    HW130737   2.669   5.440   6.707 -0.4898 -1.8313  1.4677
 9946SOL    HW230738   2.579   5.576   6.719  0.3325 -1.0131 -1.1165
 9947SOL     OW30739   1.001   4.554   6.783 -0.0534  0.1194 -0.1524
 9947SOL    HW130740   0.973   4.649   6.793 -0.3886 -0.0101  0.1951
 9947SOL    HW230741   1.101   4.548   6.781 -0.0296  0.4678 -0.0675
 9948SOL     OW30742   2.650   5.202   2.434 -0.4015  0.3046 -0.8420
 9948SOL    HW130743   2.646   5.301   2.436 -0.6120  0.3131 -1.3932
 9948SOL    HW230744   2.558   5.165   2.447 -0.0381  0.1066  1.7578
 9949SOL     OW30745   0.226   5.471   0.323 -0.2639  0.2212 -0.0780
 9949SOL    HW130746   0.219   5.438   0.229 -1.5867  0.4873 -0.0974
 9949SOL    HW230747   0.157   5.541   0.338 -0.9061 -0.7086  1.4539
 9950SOL     OW30748   4.006   5.965   0.771  0.1589 -0.4940  0.0081
 9950SOL    HW130749   4.040   5.890   0.829 -1.3300 -1.6530 -0.5413
 9950SOL    HW230750   4.082   6.025   0.747  1.3045 -1.5014  0.9350
 9951SOL     OW30751   2.219   0.986   5.056 -0.2483 -0.1635  1.0657
 9951SOL    HW130752   2.282   0.978   4.979 -1.8731  1.1141 -0.4590
 9951SOL    HW230753   2.169   0.900   5.068 -1.1854  0.1469 -0.4191
 9952SOL     OW30754   1.186   3.189   0.156 -0.7295 -0.0173 -0.3244
 9952SOL    HW130755   1.223   3.096   0.154  1.1168  0.6750 -0.3265
 9952SOL    HW230756   1.261   3.255   0.155 -1.8990  1.4754  1.6386
 9953SOL     OW30757   2.024   1.160   2.357 -0.6363 -0.0963  0.8531
 9953SOL    HW130758   2.105   1.180   2.412 -0.1643  1.4444 -0.3403
 9953SOL    HW230759   2.031   1.207   2.269 -0.8281 -3.3536 -1.0672
 9954SOL     OW30760   2.750   0.585   5.459  0.1199 -0.3263  0.3240
 9954SOL    HW130761   2.698   0.544   5.384  1.5615 -0.2032 -0.7738
 9954SOL    HW230762   2.776   0.678   5.434  0.5122 -0.2455  1.0291
 9955SOL     OW30763   5.127   3.719   3.871  0.2686 -0.5902  0.6857
 9955SOL    HW130764   5.148   3.793   3.807 -1.7861 -0.4580  0.0677
 9955SOL    HW230765   5.030   3.723   3.894  0.5391 -1.9266  2.1879
 9956SOL     OW30766   1.895   4.877   4.432  0.1430 -0.5578 -0.3452
 9956SOL    HW130767   1.797   4.887   4.448  0.1977 -1.8192  1.0638
 9956SOL    HW230768   1.914   4.785   4.398  0.9209 -0.6241  0.2452
 9957SOL     OW30769   3.070   5.430   3.926  0.6608  0.0990  0.5328
 9957SOL    HW130770   3.158   5.411   3.970  0.9214  1.7728  0.8119
 9957SOL    HW230771   3.021   5.499   3.979 -0.5707 -0.4009  0.0650
 9958SOL     OW30772   3.824   6.480   0.838 -0.1112 -0.3550 -0.2794
 9958SOL    HW130773   3.815   6.559   0.900  0.5370 -0.0595 -0.5550
 9958SOL    HW230774   3.855   6.401   0.890 -0.2266 -0.2855 -0.1013
 9959SOL     OW30775   5.713   6.084   0.015  0.6541 -0.3675  0.0915
 9959SOL    HW130776   5.709   6.031   0.099 -0.4858  2.2582  1.8060
 9959SOL    HW230777   5.781   6.157   0.024 -2.0368  2.3204  0.3801
 9960SOL     OW30778   0.926   0.047   5.971 -0.0682 -0.4756  0.4682
 9960SOL    HW130779   0.841   0.027   5.922 -0.0013 -0.8299  0.4903
 9960SOL    HW230780   0.944   0.145   5.968 -0.2877 -0.4421  0.1496
 9961SOL     OW30781   2.059   0.011   2.885 -0.1966 -0.4020 -0.0783
 9961SOL    HW130782   1.969   0.037   2.919 -0.1565  0.3483 -0.5060
 9961SOL    HW230783   2.049  -0.044   2.802 -0.2704 -1.0300  0.3439
 9962SOL     OW30784   1.748   0.840   2.702 -0.1809  0.3518  0.2236
 9962SOL    HW130785   1.791   0.802   2.784  1.4013  1.4047 -0.0771
 9962SOL    HW230786   1.815   0.893   2.651 -1.4366  0.6456 -1.1850
 9963SOL     OW30787   0.005   3.875   3.323 -0.1179 -0.0417 -0.8826
 9963SOL    HW130788  -0.003   3.880   3.224  0.1970  1.2603 -0.8619
 9963SOL    HW230789   0.013   3.968   3.361 -2.8763 -0.2906  0.6008
 9964SOL     OW30790   1.584   0.516   3.438  0.4138 -0.2045 -0.2500
 9964SOL    HW130791   1.611   0.431   3.392  4.8624  0.6695  0.2767
 9964SOL    HW230792   1.562   0.496   3.533  0.1586 -0.9138 -0.4495
 9965SOL     OW30793   6.227   5.068   2.913 -0.1248  0.0347 -0.3612
 9965SOL    HW130794   6.245   5.089   3.009  0.1612 -0.1099 -0.3801
 9965SOL    HW230795   6.313   5.047   2.867 -0.5097 -3.6098  0.2497
 9966SOL     OW30796   3.501   4.542   0.099  0.7729 -0.1146  0.8645
 9966SOL    HW130797   3.459   4.631   0.084 -0.5948 -0.4029  2.6341
 9966SOL    HW230798   3.450   4.472   0.049  0.4829 -0.1759  1.2398
 9967SOL     OW30799   0.245   4.743   6.385  0.0294 -0.3308 -0.3089
 9967SOL    HW130800   0.263   4.798   6.467 -1.0448 -1.5171  0.7788
 9967SOL    HW230801   0.153   4.761   6.352  0.1702 -0.4509 -0.7792
 9968SOL     OW30802   4.844   4.201   4.079  0.0443  0.4126  0.0101
 9968SOL    HW130803   4.845   4.168   4.173  0.1014 -0.6640 -0.3534
 9968SOL    HW230804   4.780   4.278   4.070 -2.6578 -1.6719  0.2095
 9969SOL     OW30805   0.056   0.991   1.213  0.2087 -0.7987  0.6164
 9969SOL    HW130806   0.026   0.900   1.184  0.3366 -0.0411 -2.2700
 9969SOL    HW230807   0.149   1.008   1.179  0.2901  0.3135  1.3227
 9970SOL     OW30808   4.116   2.076   5.256  0.1438  0.2221 -0.2280
 9970SOL    HW130809   4.195   2.043   5.204  0.2350 -0.1572  0.1388
 9970SOL    HW230810   4.130   2.056   5.353  0.1463  1.2614 -0.0042
 9971SOL     OW30811   1.640   4.826   0.488  0.0885  0.8339  0.0076
 9971SOL    HW130812   1.719   4.872   0.446  2.3131 -0.8741  2.0541
 9971SOL    HW230813   1.602   4.885   0.560  1.1312  0.6891  0.7040
 9972SOL     OW30814   6.269   6.998   4.490  0.0801 -0.2487  0.3435
 9972SOL    HW130815   6.246   7.094   4.508  1.5394  0.3109 -0.6165
 9972SOL    HW230816   6.213   6.939   4.548 -1.8584  1.1135 -0.0415
 9973SOL     OW30817   4.426   6.185   2.684 -0.3199  0.1361  0.0833
 9973SOL    HW130818   4.468   6.262   2.734 -0.8039  0.4836 -0.0372
 9973SOL    HW230819   4.425   6.105   2.743  1.6297 -0.2456 -0.3169
 9974SOL     OW30820   6.921   5.365   4.929  0.7433 -0.0963 -0.4615
 9974SOL    HW130821   6.953   5.271   4.924  0.5269 -0.2007 -0.0120
 9974SOL    HW230822   6.862   5.385   4.851 -0.4441 -0.8203  0.2180
 9975SOL     OW30823   0.526   1.023   6.077 -0.1193 -0.4305  0.6172
 9975SOL    HW130824   0.617   1.015   6.118 -0.5939 -0.2291  1.7441
 9975SOL    HW230825   0.535   1.054   5.982  0.9588  0.1731  0.9011
 9976SOL     OW30826   1.865   6.399   1.713  0.5770 -0.3035  0.2082
 9976SOL    HW130827   1.886   6.494   1.738  0.1209  0.4477 -2.0735
 9976SOL    HW230828   1.949   6.351   1.689  0.8838 -0.7078  1.9242
 9977SOL     OW30829   5.318   6.869   1.337 -0.2981  0.1040 -0.8397
 9977SOL    HW130830   5.218   6.862   1.331 -0.4546  1.1270  0.1539
 9977SOL    HW230831   5.360   6.785   1.302 -1.5381 -0.8213 -0.1745
 9978SOL     OW30832   3.190   0.551   0.807 -0.1658 -0.2051 -0.1332
 9978SOL    HW130833   3.101   0.548   0.763  0.6821  0.0872 -1.9577
 9978SOL    HW230834   3.262   0.537   0.739  1.2320  0.5405  1.1129
 9979SOL     OW30835   3.546   2.048   1.507  0.7972 -0.5977 -0.1818
 9979SOL    HW130836   3.574   2.043   1.603 -0.1914 -3.3952  0.0594
 9979SOL    HW230837   3.451   2.076   1.501  1.2940  1.1307 -0.4964
 9980SOL     OW30838   2.476   1.048   2.559  0.1650  0.4904 -0.2062
 9980SOL    HW130839   2.568   1.063   2.594 -0.1939  1.4261  0.3639
 9980SOL    HW230840   2.471   1.078   2.464  0.4610  0.3569 -0.2638
 9981SOL     OW30841   1.564   2.045   6.496  0.3294  0.3943 -0.8693
 9981SOL    HW130842   1.554   1.999   6.584 -0.4288  1.3815 -0.4257
 9981SOL    HW230843   1.552   2.143   6.507 -0.8086  0.4466 -2.2246
 9982SOL     OW30844   5.235   4.238   5.741 -0.3603  0.0761  0.9517
 9982SOL    HW130845   5.255   4.336   5.743  1.6987 -0.2609  3.8767
 9982SOL    HW230846   5.141   4.224   5.712 -0.6580  2.8804  0.2465
 9983SOL     OW30847   4.377   5.866   3.807 -0.4315  0.2356 -0.1974
 9983SOL    HW130848   4.300   5.807   3.834  0.5105 -1.2303 -0.6418
 9983SOL    HW230849   4.435   5.883   3.887 -0.7009  0.5715 -0.0701
 9984SOL     OW30850   1.807   0.141   0.097  0.0660 -0.3000 -0.3634
 9984SOL    HW130851   1.896   0.183   0.079  1.2136 -2.4149  0.0853
 9984SOL    HW230852   1.764   0.185   0.176  0.3900  1.1549 -0.9625
 9985SOL     OW30853   1.680   4.078   0.803  0.8144  0.1665  0.0869
 9985SOL    HW130854   1.727   4.042   0.722 -0.6490 -1.3229 -0.1584
 9985SOL    HW230855   1.607   4.140   0.775  2.8873  3.0010  0.4901
 9986SOL     OW30856   1.253   3.984   6.792 -0.7208 -0.2263 -0.2794
 9986SOL    HW130857   1.308   3.952   6.869 -0.8536  0.6839  0.1978
 9986SOL    HW230858   1.310   3.989   6.710  0.3287  2.0798  0.5109
 9987SOL     OW30859   1.867   5.711   3.649  0.0023 -0.5842 -0.1704
 9987SOL    HW130860   1.852   5.622   3.692  0.1376  0.2566  1.7096
 9987SOL    HW230861   1.787   5.769   3.666  0.6232  0.2044  0.1002
 9988SOL     OW30862   3.099   1.752   6.299  0.3115  0.0638  0.0665
 9988SOL    HW130863   3.136   1.736   6.391  1.5197 -0.2991 -0.4773
 9988SOL    HW230864   3.049   1.671   6.269  0.3830 -0.0225  0.1787
 9989SOL     OW30865   4.853   5.618   1.119  0.0908  0.0919 -0.2146
 9989SOL    HW130866   4.858   5.571   1.031 -0.2379  0.6247 -0.5266
 9989SOL    HW230867   4.819   5.555   1.189 -3.1037  0.5619 -1.1853
 9990SOL     OW30868   5.296   3.605   3.665  0.2563  0.1160  0.1231
 9990SOL    HW130869   5.213   3.611   3.721 -0.2472 -0.5694 -0.5278
 9990SOL    HW230870   5.328   3.697   3.642  0.5056  0.4150  1.5636
 9991SOL     OW30871   1.160   1.481   4.157  0.2013  0.6212 -0.1189
 9991SOL    HW130872   1.082   1.535   4.188 -0.9116 -1.3760  0.7667
 9991SOL    HW230873   1.245   1.528   4.182 -0.6685  0.9320  2.6926
 9992SOL     OW30874   2.574   0.409   2.087  0.0552  0.4657 -0.1926
 9992SOL    HW130875   2.612   0.499   2.109 -0.6654  1.1184 -1.5082
 9992SOL    HW230876   2.649   0.343   2.075  0.6051  0.9708  0.4175
 9993SOL     OW30877   0.754   0.092   2.441 -0.0962  0.8177 -0.6111
 9993SOL    HW130878   0.685   0.030   2.403 -1.3462  2.5986 -1.3620
 9993SOL    HW230879   0.748   0.180   2.395  1.3391  1.6549  0.7354
 9994SOL     OW30880   1.465   4.776   1.304 -0.1982 -0.2680  0.1045
 9994SOL    HW130881   1.530   4.738   1.370  0.4985  1.1355  0.2691
 9994SOL    HW230882   1.458   4.714   1.226  0.0878 -1.2311  0.8131
 9995SOL     OW30883   4.882   3.523   2.341 -0.3582  0.2878  0.5154
 9995SOL    HW130884   4.879   3.437   2.290 -0.6337  0.0958  0.8471
 9995SOL    HW230885   4.852   3.598   2.283 -1.7670 -0.0938  0.7179
 9996SOL     OW30886   6.032   0.384   1.762  0.7102 -0.3629 -0.3389
 9996SOL    HW130887   6.015   0.305   1.703 -0.7762  0.0267 -0.4799
 9996SOL    HW230888   5.971   0.381   1.841 -0.1469  1.1605 -0.8849
 9997SOL     OW30889   3.158   1.439   3.060  0.0091 -0.4868 -0.3697
 9997SOL    HW130890   3.192   1.346   3.079 -1.2428 -0.6039  1.6105
 9997SOL    HW230891   3.059   1.440   3.071  0.1067  1.3012  0.6368
 9998SOL     OW30892   5.325   3.724   1.273 -0.0524 -0.6141 -0.1884
 9998SOL    HW130893   5.384   3.783   1.219 -1.0222  0.9984  0.4336
 9998SOL    HW230894   5.341   3.740   1.371 -1.9446  0.3947  0.0107
 9999SOL     OW30895   0.761   2.296   6.737  0.0164 -0.4674 -0.3497
 9999SOL    HW130896   0.738   2.325   6.644  1.6445  1.5595 -0.1905
 9999SOL    HW230897   0.814   2.211   6.733  0.2550 -0.2860 -1.2919
10000SOL     OW30898   1.082   5.794   5.637 -0.3923 -0.0021  0.1300
10000SOL    HW130899   1.003   5.850   5.663 -1.3064 -1.4607  0.5646
10000SOL    HW230900   1.131   5.765   5.719 -0.1248 -0.1415 -0.0792
10001SOL     OW30901   0.807   6.784   2.969  0.2673  0.1151 -0.4665
10001SOL    HW130902   0.865   6.742   2.899 -0.3476 -1.3304 -0.1443
10001SOL    HW230903   0.729   6.829   2.925  0.6016  0.3934 -0.7829
10002SOL     OW30904   0.385   0.960   6.940 -0.3540 -0.5081 -0.3621
10002SOL    HW130905   0.393   1.059   6.951 -0.4905 -0.8039  3.8141
10002SOL    HW230906   0.298   0.938   6.895 -0.1419  1.2153 -1.7078
10003SOL     OW30907   4.876   3.451   3.446  0.2978 -0.1107  0.0669
10003SOL    HW130908   4.919   3.437   3.536  1.3834  0.6001 -0.3268
10003SOL    HW230909   4.843   3.363   3.412 -1.2977 -0.2184  1.7078
10004SOL     OW30910   6.391   3.242   1.933 -0.2150 -0.6287  0.0321
10004SOL    HW130911   6.430   3.306   1.867 -1.2898 -0.2197 -0.2131
10004SOL    HW230912   6.406   3.148   1.901  1.1309 -0.5160  0.2654
10005SOL     OW30913   3.661   4.665   1.263 -0.3497  0.2215  0.0034
10005SOL    HW130914   3.589   4.648   1.330  0.4755 -0.5954  0.7118
10005SOL    HW230915   3.658   4.761   1.234 -1.6846  0.2013  0.0476
10006SOL     OW30916   0.840   2.908   3.221  0.2271 -0.5330 -0.7814
10006SOL    HW130917   0.879   2.968   3.291 -0.5662 -0.6816 -0.1969
10006SOL    HW230918   0.751   2.944   3.191  0.3965 -0.6605 -1.4573
10007SOL     OW30919   4.269   1.825   5.042 -0.3453 -0.7372 -0.3592
10007SOL    HW130920   4.357   1.777   5.033  0.8508  1.3957 -0.7512
10007SOL    HW230921   4.218   1.787   5.120  0.2748 -2.9394 -0.9626
10008SOL     OW30922   4.135   6.290   4.958  0.1867 -0.4293  0.3494
10008SOL    HW130923   4.095   6.352   4.890 -1.2707 -0.6137  1.0126
10008SOL    HW230924   4.154   6.340   5.042 -1.1897 -0.9063  0.9582
10009SOL     OW30925   4.188   1.707   3.897 -0.4584 -0.3164  0.2148
10009SOL    HW130926   4.276   1.666   3.922 -0.1883 -0.4532 -0.9021
10009SOL    HW230927   4.203   1.796   3.855 -0.9946  0.5483  1.8101
10010SOL     OW30928   1.883   3.266   3.728  0.0174  0.1562 -0.2777
10010SOL    HW130929   1.932   3.312   3.802  0.3999  0.8615 -0.9512
10010SOL    HW230930   1.900   3.167   3.733  0.9449  0.3146 -0.0829
10011SOL     OW30931   2.907   5.388   6.891  0.2951  0.4266  0.5205
10011SOL    HW130932   2.980   5.457   6.881  1.0316 -0.4010  0.0024
10011SOL    HW230933   2.819   5.431   6.872  0.4068  1.8960  2.8885
10012SOL     OW30934   0.491   3.133   6.111 -0.1959  0.0530 -0.3028
10012SOL    HW130935   0.556   3.081   6.168  0.8688  1.0311 -0.5929
10012SOL    HW230936   0.449   3.205   6.166 -1.6930 -1.0917  0.1055
10013SOL     OW30937   3.940   1.176   3.302  0.2004 -0.4210  0.3007
10013SOL    HW130938   4.019   1.188   3.243 -0.4986  3.2775 -0.1169
10013SOL    HW230939   3.963   1.203   3.395 -0.1569 -0.8288  0.5094
10014SOL     OW30940   6.019   1.101   0.055 -0.3981  0.6600 -0.1690
10014SOL    HW130941   5.988   1.085  -0.039 -2.4266 -0.7533  0.6757
10014SOL    HW230942   6.058   1.017   0.092 -0.8780  0.8093  0.6903
10015SOL     OW30943   3.483   5.089   0.897 -0.4974 -0.3662  0.0764
10015SOL    HW130944   3.534   5.005   0.918  1.6206  0.7817 -0.1261
10015SOL    HW230945   3.463   5.091   0.799  2.7814  0.9658 -0.6893
10016SOL     OW30946   2.691   4.966   2.326 -0.1003  0.1160  0.1804
10016SOL    HW130947   2.675   5.057   2.365  1.2815  0.9630 -1.1040
10016SOL    HW230948   2.717   4.975   2.230  0.5181 -1.6129  0.1482
10017SOL     OW30949   4.675   6.464   2.592 -0.1312  0.8898  0.1351
10017SOL    HW130950   4.770   6.463   2.622 -0.4241 -0.7720  1.1145
10017SOL    HW230951   4.634   6.374   2.607 -1.3840  1.0826 -1.8572
10018SOL     OW30952   6.132   2.104   1.446  0.3042 -0.2668  0.0236
10018SOL    HW130953   6.102   2.095   1.541 -0.0798  0.7241  0.0060
10018SOL    HW230954   6.102   2.192   1.410 -0.9048 -1.2745 -1.5191
10019SOL     OW30955   1.717   6.270   4.140 -0.1044 -0.1136  0.1953
10019SOL    HW130956   1.688   6.241   4.231 -0.9605  0.4541  0.1177
10019SOL    HW230957   1.637   6.272   4.079  0.5073 -0.8138 -0.6687
10020SOL     OW30958   1.135   1.978   2.998  0.1192 -0.0597 -0.2495
10020SOL    HW130959   1.111   2.021   2.911  1.2543 -0.2103 -0.6580
10020SOL    HW230960   1.066   2.000   3.067 -2.2562 -2.0956 -1.8267
10021SOL     OW30961   1.471   3.975   6.629  0.5748  0.1412  0.9471
10021SOL    HW130962   1.478   3.925   6.543  1.0506  1.7704  0.0000
10021SOL    HW230963   1.563   3.993   6.664  0.4249  0.8505  0.9754
10022SOL     OW30964   1.704   5.510   0.118 -0.1356  0.3163 -0.3322
10022SOL    HW130965   1.683   5.579   0.048 -0.9945  0.6976  0.2901
10022SOL    HW230966   1.637   5.516   0.192 -1.0738 -2.1448 -0.9214
10023SOL     OW30967   3.897   1.322   4.704  0.0309  0.0445  0.4224
10023SOL    HW130968   3.876   1.233   4.745  0.7781 -1.5000 -2.2840
10023SOL    HW230969   3.814   1.361   4.666 -0.1730  0.1898  1.0014
10024SOL     OW30970   5.951   1.268   0.899 -0.6511  0.2053  0.8584
10024SOL    HW130971   5.982   1.241   0.808  0.5834  0.8031  1.0858
10024SOL    HW230972   5.854   1.295   0.894  0.2723  3.7509 -1.1164
10025SOL     OW30973   4.719   2.018   4.558  0.2328 -0.1130  0.0854
10025SOL    HW130974   4.665   2.101   4.569  1.4155  0.9048 -1.2488
10025SOL    HW230975   4.786   2.011   4.632  0.6967  0.6113 -0.2544
10026SOL     OW30976   6.953   5.985   2.027 -0.5861 -0.2701  0.2276
10026SOL    HW130977   7.046   6.021   2.018  0.0568 -1.8676  0.2041
10026SOL    HW230978   6.888   6.053   1.994  0.6601  0.3222 -1.1061
10027SOL     OW30979   3.279   5.205   6.870 -0.0958 -0.0983 -0.4872
10027SOL    HW130980   3.253   5.266   6.794  0.2199  0.5017 -0.1271
10027SOL    HW230981   3.261   5.110   6.844 -0.9412  0.1656 -0.9258
10028SOL     OW30982   5.884   6.903   4.644  0.0296 -0.7049  0.2290
10028SOL    HW130983   5.902   7.000   4.661 -0.5525 -0.3037 -1.3174
10028SOL    HW230984   5.795   6.878   4.682  0.1065 -0.6088  0.4791
10029SOL     OW30985   3.930   4.874   2.640  0.2374  0.6956 -0.7262
10029SOL    HW130986   3.970   4.856   2.550  1.3868 -1.5191  0.1562
10029SOL    HW230987   3.922   4.789   2.691  0.6199  2.0214  1.6998
10030SOL     OW30988   0.771   1.612   6.936 -0.3918 -0.1363 -0.0322
10030SOL    HW130989   0.816   1.617   6.847  1.9074  1.8836  1.0947
10030SOL    HW230990   0.811   1.537   6.989 -0.0842  0.1200  0.1024
10031SOL     OW30991   2.011   2.349   2.250 -0.0537  0.0373  0.1449
10031SOL    HW130992   2.073   2.427   2.242 -1.2639  1.1155  0.8756
10031SOL    HW230993   2.032   2.282   2.179  2.5909 -0.1251  0.9814
10032SOL     OW30994   1.109   4.878   0.206  0.3178 -0.1586  0.3624
10032SOL    HW130995   1.036   4.812   0.187 -1.8749  2.1987  0.0694
10032SOL    HW230996   1.108   4.949   0.136  0.4503  1.9081  2.3536
10033SOL     OW30997   4.308   2.484   5.481  0.3247 -0.0233  0.0151
10033SOL    HW130998   4.379   2.415   5.495  0.6512 -0.1455 -1.9346
10033SOL    HW230999   4.226   2.441   5.444 -0.2142  0.3629  0.7287
10034SOL     OW31000   6.879   5.992   1.406 -0.7672  0.0654  0.2511
10034SOL    HW131001   6.932   6.064   1.452 -3.2168  0.4262  2.7309
10034SOL    HW231002   6.892   5.905   1.455 -0.8236 -0.3306 -0.4248
10035SOL     OW31003   1.192   4.066   6.159  0.4344  0.5813 -0.2216
10035SOL    HW131004   1.196   4.154   6.112 -2.8835  0.3299 -1.2173
10035SOL    HW231005   1.258   4.003   6.117  3.0006  2.5280  0.6329
10036SOL     OW31006   4.136   2.983   6.885  0.5804  0.4458  0.0960
10036SOL    HW131007   4.159   2.890   6.858 -0.4513 -0.0607  0.8761
10036SOL    HW231008   4.081   3.027   6.814 -0.2271 -0.0886  0.3796
10037SOL     OW31009   6.552   0.481   3.729 -0.2307  0.4461 -0.2672
10037SOL    HW131010   6.452   0.478   3.731 -0.2385  0.8186  0.6790
10037SOL    HW231011   6.588   0.423   3.803  0.2537  0.3089 -0.6089
10038SOL     OW31012   4.828   5.657   1.905  0.9170  0.0851  0.4054
10038SOL    HW131013   4.885   5.692   1.832 -0.4956 -2.1190 -1.9057
10038SOL    HW231014   4.731   5.668   1.881  0.4166 -1.9872  1.2374
10039SOL     OW31015   6.082   4.735   2.567  0.5860  0.6250  0.3196
10039SOL    HW131016   6.058   4.804   2.499 -1.8392 -0.5584 -0.1533
10039SOL    HW231017   6.110   4.780   2.652  0.0216  2.1727 -0.2775
10040SOL     OW31018   0.229   4.280   5.033  0.1295 -0.3884 -1.0078
10040SOL    HW131019   0.160   4.255   4.965 -1.6900 -1.3741  1.0789
10040SOL    HW231020   0.306   4.216   5.027 -0.7673 -1.4921 -1.0814
10041SOL     OW31021   4.279   2.109   2.455  0.5524 -0.6418  0.1048
10041SOL    HW131022   4.247   2.154   2.539  1.7284 -0.0852  0.2899
10041SOL    HW231023   4.332   2.175   2.401 -0.6406 -0.8377 -1.3645
10042SOL     OW31024   0.924   2.611   5.147 -0.1722  0.1125  0.8870
10042SOL    HW131025   0.958   2.631   5.239 -0.0028 -0.7538  1.0182
10042SOL    HW231026   0.881   2.521   5.147 -0.1983  0.1256  0.1191
10043SOL     OW31027   1.945   6.330   6.752 -0.3112 -0.0540  0.1329
10043SOL    HW131028   2.001   6.336   6.669 -0.6312 -0.8616 -0.1575
10043SOL    HW231029   1.855   6.370   6.735 -0.4398 -0.3824  0.0245
10044SOL     OW31030   0.370   3.282   6.922  0.0372 -0.4891  0.3458
10044SOL    HW131031   0.442   3.223   6.958  0.1085 -0.4379  0.2897
10044SOL    HW231032   0.409   3.373   6.902 -0.1611 -0.3008  0.8074
10045SOL     OW31033   0.872   6.227   5.131  0.6158  0.1107 -0.0230
10045SOL    HW131034   0.808   6.229   5.054 -0.5164 -0.0376  0.8789
10045SOL    HW231035   0.949   6.167   5.109  0.9229  0.9925 -1.4769
10046SOL     OW31036   1.102   4.952   5.811 -0.4179  0.6326  0.1691
10046SOL    HW131037   1.047   4.879   5.852 -0.2783  0.6470  0.3813
10046SOL    HW231038   1.172   4.911   5.752  0.7668  0.4935  1.5995
10047SOL     OW31039   4.663   4.582   1.264  0.0910  0.4833  0.1019
10047SOL    HW131040   4.657   4.635   1.179 -1.5687  2.1848  1.2086
10047SOL    HW231041   4.585   4.519   1.269  0.6954 -0.2986 -0.0332
10048SOL     OW31042   3.775   4.209   5.144 -0.3430  0.4311  0.0646
10048SOL    HW131043   3.768   4.290   5.202 -0.4924  0.0082  0.6481
10048SOL    HW231044   3.857   4.157   5.167  1.9607  2.3925 -2.9186
10049SOL     OW31045   4.675   5.314   6.355  0.3897 -0.0498  0.2949
10049SOL    HW131046   4.759   5.298   6.407  0.3771 -3.2011 -0.4325
10049SOL    HW231047   4.682   5.270   6.265 -0.7300  2.6909 -1.2693
10050SOL     OW31048   1.997   5.642   4.201 -0.6614  0.4680 -0.4132
10050SOL    HW131049   2.005   5.593   4.288  0.7754 -0.5088 -1.0475
10050SOL    HW231050   1.919   5.704   4.204 -0.6509  0.4409  1.5538
10051SOL     OW31051   3.693   5.339   0.487 -0.0031  0.2256 -0.0345
10051SOL    HW131052   3.689   5.314   0.583  0.9216 -1.4593 -0.4096
10051SOL    HW231053   3.729   5.432   0.479  1.8393 -0.3187  1.1845
10052SOL     OW31054   0.024   5.311   3.290  0.2937  0.5324 -0.0920
10052SOL    HW131055  -0.052   5.296   3.227 -1.7252  2.8716  1.5665
10052SOL    HW231056   0.066   5.400   3.270  1.8876 -0.2110 -0.2175
10053SOL     OW31057   1.372   3.886   5.496  0.1772 -0.0295  0.5925
10053SOL    HW131058   1.381   3.863   5.399 -0.7849 -0.8411  0.6731
10053SOL    HW231059   1.331   3.808   5.545  0.3911  0.4749  1.5985
10054SOL     OW31060   5.750   6.729   6.265  0.3239 -0.5520  0.5254
10054SOL    HW131061   5.811   6.683   6.329  1.1474  0.7937  0.7663
10054SOL    HW231062   5.750   6.827   6.285 -2.6229 -0.6014  1.0938
10055SOL     OW31063   3.914   5.731   5.135  0.2032 -0.5890 -0.0310
10055SOL    HW131064   3.932   5.774   5.046 -1.8969  0.4151 -0.0587
10055SOL    HW231065   3.887   5.636   5.121  0.3684 -0.5813 -0.4257
10056SOL     OW31066   1.651   4.445   6.500  0.1641 -0.3509  0.4085
10056SOL    HW131067   1.577   4.512   6.509  0.7043  0.4816 -0.8891
10056SOL    HW231068   1.616   4.353   6.519 -0.4114  0.3409  3.0569
10057SOL     OW31069   1.811   4.401   2.673  0.3268  0.0033  0.2213
10057SOL    HW131070   1.838   4.391   2.769  0.1834 -1.0917  0.1655
10057SOL    HW231071   1.768   4.316   2.642  0.1439  0.4358 -0.7443
10058SOL     OW31072   4.708   4.953   4.459  0.5435 -0.4823 -0.3164
10058SOL    HW131073   4.723   5.048   4.486  2.3927 -0.3509 -1.5638
10058SOL    HW231074   4.683   4.899   4.539 -1.9194  1.2535  0.2036
10059SOL     OW31075   1.552   4.987   0.701 -0.2855  0.4309  0.4447
10059SOL    HW131076   1.465   4.988   0.749 -0.4368 -0.1295  0.1964
10059SOL    HW231077   1.626   4.968   0.766 -0.2175  1.8472  0.8254
10060SOL     OW31078   3.701   0.343   3.861  0.5574  0.4914 -0.2497
10060SOL    HW131079   3.629   0.279   3.835  0.2930  0.6323  0.1214
10060SOL    HW231080   3.789   0.296   3.860  0.5287  0.4428 -1.1769
10061SOL     OW31081   2.911   6.300   1.249 -0.6512 -1.1047  0.1845
10061SOL    HW131082   2.947   6.355   1.174  1.5351 -2.7842 -0.0737
10061SOL    HW231083   2.892   6.359   1.328  2.5772 -0.0284  0.2941
10062SOL     OW31084   6.712   1.351   3.821  0.0705 -0.2768 -0.3494
10062SOL    HW131085   6.638   1.290   3.849  0.6622 -0.4303  1.0142
10062SOL    HW231086   6.798   1.300   3.822 -0.0057 -0.6909 -4.0183
10063SOL     OW31087   0.839   0.277   5.115  0.2756  0.0702  0.6558
10063SOL    HW131088   0.754   0.226   5.111  0.5382 -0.3428  0.2781
10063SOL    HW231089   0.916   0.214   5.119  0.5252  0.4284  2.1728
10064SOL     OW31090   2.474   1.648   5.371 -0.4054  0.5198 -0.5641
10064SOL    HW131091   2.510   1.618   5.460 -1.3519 -0.8627 -0.6188
10064SOL    HW231092   2.374   1.647   5.374 -0.4587 -0.7288 -2.0181
10065SOL     OW31093   1.190   2.491   4.231 -0.3145 -0.5354  0.2676
10065SOL    HW131094   1.236   2.578   4.252 -0.5428 -0.3202 -0.1154
10065SOL    HW231095   1.175   2.485   4.133 -1.8590 -0.2216  0.4601
10066SOL     OW31096   4.152   2.845   5.604 -0.4797  0.5963 -0.0290
10066SOL    HW131097   4.199   2.771   5.651 -1.2247  0.1030 -0.0399
10066SOL    HW231098   4.157   2.832   5.505 -1.3225  0.0898 -0.0176
10067SOL     OW31099   2.021   0.075   1.434 -0.0743  0.3982  0.2679
10067SOL    HW131100   2.080   0.142   1.479 -2.6209  1.3855  2.4594
10067SOL    HW231101   2.003  -0.001   1.496 -1.9938  0.7178  0.1581
10068SOL     OW31102   5.654   3.152   1.371  0.0732  0.1648  0.0075
10068SOL    HW131103   5.647   3.100   1.456  0.0557  0.0615 -0.0573
10068SOL    HW231104   5.606   3.239   1.381 -0.3089 -0.0390 -0.0447
10069SOL     OW31105   5.044   0.289   5.975 -0.8259 -0.1575 -0.2236
10069SOL    HW131106   5.036   0.214   5.910 -0.5875 -0.1689 -0.2410
10069SOL    HW231107   4.974   0.357   5.956 -0.6285 -0.0621 -0.6265
10070SOL     OW31108   6.199   5.189   7.005 -0.1273 -0.2325  0.1092
10070SOL    HW131109   6.184   5.205   7.102 -1.8392  0.9123 -0.2950
10070SOL    HW231110   6.178   5.094   6.983  5.3139 -2.1472  1.6677
10071SOL     OW31111   3.942   5.019   4.477 -0.0744 -0.2754 -0.2623
10071SOL    HW131112   3.996   4.939   4.451  0.1238 -0.7753  1.5676
10071SOL    HW231113   3.993   5.074   4.544 -0.8809  0.5133 -0.2673
10072SOL     OW31114   3.021   2.205   4.152  0.1790 -0.4363  0.2058
10072SOL    HW131115   3.022   2.105   4.153  0.2295 -0.4363  0.1697
10072SOL    HW231116   3.092   2.238   4.089 -2.4974 -0.4402 -3.0823
10073SOL     OW31117   5.712   6.633   0.225  0.2987 -0.1837  0.1165
10073SOL    HW131118   5.753   6.689   0.297 -0.1213  2.1461 -1.3505
10073SOL    HW231119   5.612   6.638   0.231  0.2582 -0.3771 -0.3292
10074SOL     OW31120   2.443   4.961   5.546 -0.3963  0.6261 -0.1094
10074SOL    HW131121   2.487   5.035   5.597  0.9592  0.3875 -0.8947
10074SOL    HW231122   2.512   4.894   5.519 -1.4305 -0.3293 -0.4313
10075SOL     OW31123   0.294   3.121   5.316 -0.1630  0.4437  0.2246
10075SOL    HW131124   0.296   3.215   5.282 -0.5817 -0.3459 -2.2196
10075SOL    HW231125   0.324   3.119   5.411 -1.5057  3.1979  0.7879
10076SOL     OW31126   5.621   4.184   4.749 -0.7688 -0.2344 -0.2217
10076SOL    HW131127   5.640   4.217   4.841 -1.1081  1.0383 -0.5806
10076SOL    HW231128   5.548   4.239   4.708  1.0992  0.9905 -2.1838
10077SOL     OW31129   1.980   2.742   2.724  0.1325 -0.0821 -0.1694
10077SOL    HW131130   2.072   2.729   2.761  0.1542  0.5516  0.0260
10077SOL    HW231131   1.922   2.786   2.793 -0.2543 -0.2812 -0.3637
10078SOL     OW31132   1.478   3.673   2.966  0.3956  0.1108 -0.2720
10078SOL    HW131133   1.418   3.749   2.991 -0.5091 -0.6811  0.0595
10078SOL    HW231134   1.518   3.690   2.876 -1.8186 -0.1555 -1.3688
10079SOL     OW31135   6.204   6.964   0.123 -0.3016  0.2341  0.2050
10079SOL    HW131136   6.163   7.055   0.119  0.2495  0.4469 -0.8329
10079SOL    HW231137   6.181   6.922   0.211 -0.1791  1.5410  0.8899
10080SOL     OW31138   4.656   4.149   1.320  0.6104 -0.6037  0.2985
10080SOL    HW131139   4.567   4.188   1.298 -0.5039 -1.4545  2.9233
10080SOL    HW231140   4.719   4.164   1.243 -0.7191  3.1441 -0.2750
10081SOL     OW31141   1.477   0.684   0.205  0.7799  0.0150 -0.1575
10081SOL    HW131142   1.534   0.602   0.202  0.0796 -0.4697 -0.8641
10081SOL    HW231143   1.381   0.659   0.190  0.4334  0.8639  0.5379
10082SOL     OW31144   2.711   0.799   3.338 -0.7877 -0.1918 -0.4271
10082SOL    HW131145   2.634   0.857   3.365 -1.4562 -1.0638 -0.4141
10082SOL    HW231146   2.794   0.854   3.331 -1.1554  0.5373  0.7844
10083SOL     OW31147   2.532   4.550   2.129  0.4605 -0.0069 -0.2327
10083SOL    HW131148   2.492   4.489   2.198 -0.4377  0.8397  0.0229
10083SOL    HW231149   2.558   4.496   2.049 -1.5226 -0.5895 -0.5478
10084SOL     OW31150   6.162   6.916   5.303  0.2043  0.2310  0.1617
10084SOL    HW131151   6.249   6.960   5.283  0.5972  1.0689  3.2290
10084SOL    HW231152   6.176   6.846   5.373 -1.6338  0.7471  1.1038
10085SOL     OW31153   4.201   0.487   4.513 -0.6538  0.0031 -0.4213
10085SOL    HW131154   4.265   0.550   4.470  0.1335  0.2182  1.0107
10085SOL    HW231155   4.138   0.452   4.444  1.2929 -0.5954 -2.0098
10086SOL     OW31156   4.691   1.654   2.578  0.7309 -0.2723  0.2343
10086SOL    HW131157   4.666   1.676   2.672 -2.1505  0.9065 -0.6968
10086SOL    HW231158   4.610   1.661   2.519  2.1500 -2.1580 -2.1677
10087SOL     OW31159   0.944   6.436   2.660  0.2658 -0.5162  0.0253
10087SOL    HW131160   0.869   6.475   2.607  0.5848 -0.5716 -0.4755
10087SOL    HW231161   0.976   6.504   2.727  0.3219 -0.1859 -0.3304
10088SOL     OW31162   6.079   0.365   0.361  0.3240  0.1096  0.7739
10088SOL    HW131163   6.163   0.329   0.321 -1.1739 -2.3116 -0.3894
10088SOL    HW231164   6.052   0.448   0.312  0.6017 -0.6247 -0.6568
10089SOL     OW31165   3.388   4.818   0.093  0.2437  0.0938  0.3386
10089SOL    HW131166   3.315   4.797   0.029  1.5081  1.6184 -1.7072
10089SOL    HW231167   3.416   4.913   0.082 -0.7605  1.0969  4.5506
10090SOL     OW31168   5.394   2.461   4.417  0.3476 -0.5556 -0.2913
10090SOL    HW131169   5.363   2.384   4.472  1.5449 -1.0255 -0.2544
10090SOL    HW231170   5.315   2.517   4.391 -0.3750 -1.0061  0.8557
10091SOL     OW31171   6.845   6.797   0.858  0.1723  0.1223  0.1954
10091SOL    HW131172   6.811   6.703   0.869 -0.2702 -0.1083 -2.5053
10091SOL    HW231173   6.811   6.835   0.772 -0.8187  3.3211  1.8494
10092SOL     OW31174   0.306   4.866   1.028 -0.1635 -0.0857 -0.1904
10092SOL    HW131175   0.322   4.768   1.017 -1.7888 -0.4954  0.7858
10092SOL    HW231176   0.283   4.885   1.124  0.7267  1.3584 -0.2272
10093SOL     OW31177   6.840   2.250   6.587 -0.1182  0.3656 -0.2784
10093SOL    HW131178   6.810   2.209   6.500  1.9209  0.3971 -1.0693
10093SOL    HW231179   6.893   2.332   6.567  1.3443 -0.2526  0.9236
10094SOL     OW31180   1.413   1.205   5.513  0.3423  0.1404 -0.3622
10094SOL    HW131181   1.466   1.171   5.591  1.8504  2.0399 -0.5024
10094SOL    HW231182   1.401   1.131   5.447  1.8259 -0.6545  0.2061
10095SOL     OW31183   5.748   2.860   6.583 -0.4111  0.8672  0.9516
10095SOL    HW131184   5.761   2.956   6.608  0.2572  0.9322  0.3840
10095SOL    HW231185   5.673   2.853   6.517  1.9244  1.5359 -2.0223
10096SOL     OW31186   5.242   5.623   0.123  0.2061  0.6212 -0.0455
10096SOL    HW131187   5.154   5.668   0.132 -0.6286 -0.7308 -1.0276
10096SOL    HW231188   5.281   5.607   0.214  0.0528  2.3358  0.3520
10097SOL     OW31189   6.795   0.923   0.526  0.1467 -0.0762  0.1883
10097SOL    HW131190   6.698   0.913   0.507 -0.4938  1.8728  2.0009
10097SOL    HW231191   6.807   0.959   0.619  2.6244 -0.5226  0.1151
10098SOL     OW31192   2.299   4.141   4.269  0.2399  0.0574 -0.5013
10098SOL    HW131193   2.278   4.083   4.348  0.3141 -0.2981 -0.7406
10098SOL    HW231194   2.229   4.128   4.199 -0.0938  0.7410 -0.2991
10099SOL     OW31195   2.476   0.244   4.867  0.2361  0.0074  0.1293
10099SOL    HW131196   2.378   0.257   4.884  0.4288  1.2021  0.4028
10099SOL    HW231197   2.525   0.328   4.889  1.3009 -0.5031 -0.2362
10100SOL     OW31198   0.903   0.266   2.787 -0.0452  0.6353  0.1310
10100SOL    HW131199   0.835   0.333   2.756 -0.8352  0.5713  1.6274
10100SOL    HW231200   0.995   0.302   2.770 -0.4579  1.7313  0.1145
10101SOL     OW31201   3.430   3.424   0.373 -0.0605  0.0054 -0.0697
10101SOL    HW131202   3.416   3.327   0.355  0.0426 -0.1173  0.4824
10101SOL    HW231203   3.416   3.442   0.470  0.8426  0.3730  0.0046
10102SOL     OW31204   3.519   0.517   3.212 -0.1580  0.1008  0.2290
10102SOL    HW131205   3.506   0.593   3.277 -0.2349 -0.4071  0.8216
10102SOL    HW231206   3.585   0.543   3.143  0.0918  0.5802  0.6447
10103SOL     OW31207   4.648   0.949   1.228 -0.1371  0.0355  0.5274
10103SOL    HW131208   4.679   0.987   1.141  0.1551 -3.1648 -0.9232
10103SOL    HW231209   4.555   0.981   1.247  0.7630  2.9091  0.4999
10104SOL     OW31210   3.323   0.750   2.609 -0.2344  0.1472 -0.2450
10104SOL    HW131211   3.341   0.849   2.611  0.3697  0.0382  0.0041
10104SOL    HW231212   3.224   0.734   2.617 -0.4393  0.7595 -1.3838
10105SOL     OW31213   3.860   0.790   4.625  0.9318 -0.0899  0.3224
10105SOL    HW131214   3.944   0.778   4.679  0.8576  3.1009  1.4077
10105SOL    HW231215   3.884   0.827   4.535  0.7400  0.4949  0.5062
10106SOL     OW31216   0.244   0.248   0.716  0.5845 -0.2324 -0.2297
10106SOL    HW131217   0.219   0.189   0.639  0.6619  1.5284 -1.6722
10106SOL    HW231218   0.304   0.321   0.684 -0.9608  1.7116  1.0843
10107SOL     OW31219   2.428   2.841   6.233  0.1352  0.2005  0.0730
10107SOL    HW131220   2.444   2.769   6.301 -4.0568 -0.8251  0.2404
10107SOL    HW231221   2.504   2.842   6.168  0.5898 -4.2401  0.1882
10108SOL     OW31222   0.162   4.574   0.371 -0.0647  0.1538  0.7233
10108SOL    HW131223   0.222   4.654   0.383 -1.6090  1.3660  0.5914
10108SOL    HW231224   0.164   4.519   0.454  0.7122  0.5174  0.9615
10109SOL     OW31225   2.875   2.306   5.203 -0.8268 -0.7293  0.5444
10109SOL    HW131226   2.931   2.265   5.132 -0.5071  0.6356 -0.0329
10109SOL    HW231227   2.902   2.271   5.293  0.8009 -0.2590  0.2573
10110SOL     OW31228   6.083   6.663   1.430 -0.2037  0.0507  0.1420
10110SOL    HW131229   6.075   6.757   1.397  0.2168 -0.4194 -1.3325
10110SOL    HW231230   6.152   6.659   1.502 -0.6881  0.9748  0.6787
10111SOL     OW31231   4.589   6.945   4.410  0.1418  0.3088  0.0352
10111SOL    HW131232   4.636   6.949   4.498  0.2870  0.6797 -0.0609
10111SOL    HW231233   4.593   6.851   4.375  1.1447  0.4159 -0.1620
10112SOL     OW31234   1.377   6.881   4.404 -0.2498  0.2180  0.3773
10112SOL    HW131235   1.401   6.789   4.432  0.4179  0.1303 -0.4191
10112SOL    HW231236   1.422   6.902   4.316  0.7599  1.7931  1.2159
10113SOL     OW31237   5.614   3.230   6.184  0.0401 -0.1417 -0.1177
10113SOL    HW131238   5.525   3.202   6.149 -0.2045  1.9739 -1.3227
10113SOL    HW231239   5.683   3.163   6.157 -0.9954 -1.2635 -0.0692
10114SOL     OW31240   0.923   5.468   0.717  0.1928 -0.5523  0.0322
10114SOL    HW131241   0.890   5.510   0.633 -0.0362 -1.4863 -0.3597
10114SOL    HW231242   0.904   5.370   0.716  2.0210 -0.9606  0.2436
10115SOL     OW31243   0.723   2.850   5.241 -0.1270 -0.0338 -0.2154
10115SOL    HW131244   0.785   2.906   5.296 -0.3168  0.1736 -0.2141
10115SOL    HW231245   0.755   2.847   5.147 -0.3012  0.3527 -0.2887
10116SOL     OW31246   6.457   6.106   5.970  0.2066 -0.1800 -0.4346
10116SOL    HW131247   6.435   6.151   5.883  3.0343  2.4370  0.0308
10116SOL    HW231248   6.428   6.164   6.046  1.6370 -0.3109  0.2464
10117SOL     OW31249   4.483   3.204   5.438 -0.9840  0.0392  0.1674
10117SOL    HW131250   4.551   3.178   5.369 -0.7501  1.7979 -0.3121
10117SOL    HW231251   4.530   3.221   5.525 -1.0680 -0.5913  0.3390
10118SOL     OW31252   5.808   1.372   2.744  0.3414 -0.0489  0.4230
10118SOL    HW131253   5.766   1.342   2.830 -2.2607  1.7386 -0.1037
10118SOL    HW231254   5.817   1.294   2.683 -0.0642 -0.9140  1.4310
10119SOL     OW31255   4.560   4.133   0.061  0.1688  0.3071 -0.8786
10119SOL    HW131256   4.595   4.110  -0.030 -0.6782  0.1125 -1.1653
10119SOL    HW231257   4.627   4.188   0.110  0.4126  0.8806 -1.8319
10120SOL     OW31258   1.823   6.569   3.770  0.0749 -1.0130  0.7701
10120SOL    HW131259   1.825   6.596   3.866  0.9277 -1.9987  1.0570
10120SOL    HW231260   1.902   6.608   3.723  0.2001 -1.3249  0.7143
10121SOL     OW31261   1.387   6.789   1.532  0.6236  0.0616 -0.5454
10121SOL    HW131262   1.290   6.812   1.540  0.5104  0.0446 -1.6208
10121SOL    HW231263   1.397   6.708   1.473  1.2693 -0.1852 -0.1103
10122SOL     OW31264   2.507   3.659   6.920  0.0286  0.0210  0.0557
10122SOL    HW131265   2.580   3.727   6.930 -0.5132  0.9600 -1.9019
10122SOL    HW231266   2.542   3.580   6.869  0.0818 -0.2127  0.4537
10123SOL     OW31267   1.694   4.404   4.973 -0.1440  0.3862 -0.1772
10123SOL    HW131268   1.604   4.425   5.012  0.9652 -0.1518  2.8879
10123SOL    HW231269   1.732   4.487   4.931 -0.4436  1.7272  2.0436
10124SOL     OW31270   1.613   1.517   0.340 -0.4600  0.0045 -0.4038
10124SOL    HW131271   1.604   1.423   0.308  1.7743 -1.0233  1.6190
10124SOL    HW231272   1.643   1.517   0.436  0.6921  2.7538 -0.6487
10125SOL     OW31273   3.744   3.850   0.254 -0.2498  0.1070  0.0161
10125SOL    HW131274   3.675   3.795   0.302 -1.2860  0.6006 -0.8654
10125SOL    HW231275   3.835   3.818   0.279 -0.8066 -1.1991  0.4660
10126SOL     OW31276   4.318   5.142   4.428  0.6482 -0.1033  0.3086
10126SOL    HW131277   4.386   5.079   4.389  0.4658 -1.0119  1.3914
10126SOL    HW231278   4.251   5.166   4.358 -0.5122 -2.8386  0.3269
10127SOL     OW31279   2.291   1.819   1.291 -0.7735  0.7556 -0.2721
10127SOL    HW131280   2.306   1.917   1.289 -0.1999  0.6734 -0.1898
10127SOL    HW231281   2.300   1.782   1.198  3.1031  0.2122  0.1781
10128SOL     OW31282   6.280   2.316   2.740 -0.5798 -0.1459 -0.4599
10128SOL    HW131283   6.295   2.280   2.648  2.1159  2.8520 -1.3786
10128SOL    HW231284   6.192   2.362   2.744 -0.6000 -0.0516 -1.6539
10129SOL     OW31285   4.764   4.258   2.481  0.2736 -0.0168 -0.1161
10129SOL    HW131286   4.765   4.170   2.434 -0.7452  0.0216 -0.2144
10129SOL    HW231287   4.738   4.330   2.417  1.5244  0.4337 -0.1436
10130SOL     OW31288   5.916   5.112   0.200  0.1744 -0.0382  0.0688
10130SOL    HW131289   5.957   5.202   0.187  0.4521 -0.4106 -2.0805
10130SOL    HW231290   5.980   5.053   0.250  0.6661  0.5171  0.1021
10131SOL     OW31291   6.270   4.547   6.345  0.2670  0.5660 -0.0153
10131SOL    HW131292   6.303   4.562   6.251 -0.4727  0.5886 -0.2781
10131SOL    HW231293   6.189   4.489   6.342  1.2012 -0.8509  0.7433
10132SOL     OW31294   6.603   5.272   1.338  0.3757 -0.0061  0.1935
10132SOL    HW131295   6.690   5.309   1.370  0.5115  0.4127 -0.6341
10132SOL    HW231296   6.620   5.209   1.262 -0.0116 -0.2878  0.3364
10133SOL     OW31297   5.392   3.133   0.945 -0.1098 -0.1595 -0.4192
10133SOL    HW131298   5.299   3.126   0.980 -0.2648  4.2985  0.7337
10133SOL    HW231299   5.400   3.082   0.860 -3.9435  0.2420 -1.1841
10134SOL     OW31300   0.953   3.177   5.291 -0.3562  0.0168 -0.2172
10134SOL    HW131301   1.025   3.215   5.233  0.1213 -0.4008  0.0919
10134SOL    HW231302   0.896   3.251   5.327 -0.1162  0.3463 -0.5098
10135SOL     OW31303   4.089   1.504   3.564  0.1161 -0.4429  0.3359
10135SOL    HW131304   4.024   1.513   3.640  0.5580  2.0962  0.5065
10135SOL    HW231305   4.177   1.544   3.590  0.2310  0.6686 -1.5295
10136SOL     OW31306   6.576   0.016   6.688  0.2287  0.0011  0.8992
10136SOL    HW131307   6.545   0.029   6.594 -0.2016  0.3623  1.0864
10136SOL    HW231308   6.675   0.028   6.693  0.2257  0.1891  0.5304
10137SOL     OW31309   1.436   2.243   4.538 -0.5631  0.5662  1.1314
10137SOL    HW131310   1.349   2.207   4.504  0.3256 -1.0838  0.4903
10137SOL    HW231311   1.442   2.227   4.636 -1.0235  0.8049  1.2039
10138SOL     OW31312   4.640   1.603   0.589  0.3588  0.0533 -0.2542
10138SOL    HW131313   4.704   1.671   0.555  3.4868 -2.9027 -0.7404
10138SOL    HW231314   4.571   1.583   0.519  0.5300  1.3095 -0.7997
10139SOL     OW31315   0.714   3.284   3.450  0.5322 -0.1082 -0.5259
10139SOL    HW131316   0.631   3.247   3.409  0.6299  0.1889 -1.0029
10139SOL    HW231317   0.779   3.210   3.468 -1.2837 -0.9683  3.4531
10140SOL     OW31318   2.564   4.945   0.402 -0.0203 -0.1516  0.5093
10140SOL    HW131319   2.555   5.025   0.342  2.0958  0.5118  0.9909
10140SOL    HW231320   2.612   4.872   0.354 -1.8624 -1.1642  0.1068
10141SOL     OW31321   4.633   2.720   5.610  0.7766 -0.2331  0.5608
10141SOL    HW131322   4.557   2.730   5.674  0.2008  1.2124 -0.3102
10141SOL    HW231323   4.635   2.797   5.547  2.5475 -0.5972  0.0959
10142SOL     OW31324   3.939   5.487   0.681  0.1068  0.0900 -0.1014
10142SOL    HW131325   3.923   5.564   0.620  0.9803 -0.9247 -1.6978
10142SOL    HW231326   3.891   5.502   0.768 -0.3872  2.0228 -0.6618
10143SOL     OW31327   0.922   2.121   5.601 -0.0952 -0.1521  0.4210
10143SOL    HW131328   0.997   2.107   5.665  1.3140 -0.5184 -1.2274
10143SOL    HW231329   0.838   2.082   5.638  0.7446 -0.6604  1.8591
10144SOL     OW31330   4.563   5.671   1.834 -0.0183  0.2795 -0.1941
10144SOL    HW131331   4.484   5.711   1.880 -0.0224  1.0715 -0.8577
10144SOL    HW231332   4.533   5.595   1.776  0.1334 -1.5183  1.9515
10145SOL     OW31333   2.468   5.758   1.381 -0.9679 -0.7640  0.1489
10145SOL    HW131334   2.436   5.670   1.415 -2.4822 -0.0976  0.5132
10145SOL    HW231335   2.400   5.798   1.320 -0.4123  0.2667  0.1737
10146SOL     OW31336   3.799   2.923   3.547  0.1139  0.2125  0.0903
10146SOL    HW131337   3.836   2.986   3.615  0.2756  0.0259  0.1765
10146SOL    HW231338   3.721   2.874   3.586  0.4751 -0.2117  0.2945
10147SOL     OW31339   2.197   4.153   2.862  0.3936  0.3754  0.1174
10147SOL    HW131340   2.195   4.100   2.777  0.0759  0.3974  0.1088
10147SOL    HW231341   2.227   4.246   2.843 -2.2947  1.2141 -0.4592
10148SOL     OW31342   5.160   3.541   2.747  0.5612  0.1594  0.1347
10148SOL    HW131343   5.083   3.477   2.738  0.6986  0.1149 -0.8886
10148SOL    HW231344   5.152   3.591   2.833 -0.2037 -0.3853  0.3919
10149SOL     OW31345   0.609   2.598   5.215 -0.4876  0.0973  0.0549
10149SOL    HW131346   0.515   2.630   5.204 -0.4317 -0.2468 -1.8130
10149SOL    HW231347   0.672   2.674   5.201 -0.3981 -0.4197 -3.1703
10150SOL     OW31348   1.282   2.226   6.056  0.2732 -0.1514  0.0435
10150SOL    HW131349   1.290   2.126   6.057  0.5131 -0.1593 -1.2576
10150SOL    HW231350   1.318   2.263   6.142 -0.9868 -1.2466  1.0886
10151SOL     OW31351   3.850   1.389   6.508  0.1143  0.1145 -0.5875
10151SOL    HW131352   3.802   1.379   6.595  0.6544 -0.5013 -0.3498
10151SOL    HW231353   3.948   1.400   6.526  0.7376 -3.2771 -1.1496
10152SOL     OW31354   0.005   5.197   3.536  0.4144 -0.8671  0.1612
10152SOL    HW131355   0.030   5.245   3.452 -2.7110 -0.5132 -0.6897
10152SOL    HW231356   0.030   5.253   3.615  1.0414 -0.0088 -0.6158
10153SOL     OW31357   4.588   6.943   2.381  0.3519  0.3150 -0.5777
10153SOL    HW131358   4.582   6.888   2.297  0.6227 -0.8887  0.1630
10153SOL    HW231359   4.639   6.892   2.450 -1.4853  0.4721  0.9696
10154SOL     OW31360   0.977   2.521   6.486 -0.3837 -0.1382  0.2068
10154SOL    HW131361   1.019   2.604   6.449 -0.9784  0.8769  1.7448
10154SOL    HW231362   1.048   2.454   6.507  0.3893  1.0979  1.6597
10155SOL     OW31363   2.957   1.783   1.835  0.3596  0.3025 -0.0600
10155SOL    HW131364   3.013   1.781   1.752 -0.6994 -0.5287 -0.7750
10155SOL    HW231365   2.861   1.770   1.811  0.1640 -1.2944  1.4095
10156SOL     OW31366   2.572   2.091   0.203 -0.0415 -0.1270  0.3977
10156SOL    HW131367   2.506   2.027   0.242  0.2083 -0.2050  0.6907
10156SOL    HW231368   2.531   2.135   0.122 -1.3102  1.4794  1.8334
10157SOL     OW31369   5.731   1.485   1.684  0.3324  0.0266  0.0293
10157SOL    HW131370   5.711   1.409   1.622  1.0651 -1.0562  1.0823
10157SOL    HW231371   5.750   1.450   1.775  1.5140  1.4161  0.3520
10158SOL     OW31372   6.188   2.790   2.024 -0.1392  0.0894  0.1865
10158SOL    HW131373   6.280   2.750   2.022  0.7004  1.9759 -1.0109
10158SOL    HW231374   6.124   2.730   1.976  0.8958 -0.2590 -0.7832
10159SOL     OW31375   2.154   1.202   1.013  0.5136 -0.3975  0.3786
10159SOL    HW131376   2.175   1.300   1.004 -0.4082 -0.1008  1.2510
10159SOL    HW231377   2.239   1.149   1.009  0.9383  0.3227 -1.2498
10160SOL     OW31378   6.148   3.010   2.145  0.0532 -0.6855 -0.0026
10160SOL    HW131379   6.164   2.922   2.099 -1.1735 -0.9850  0.1087
10160SOL    HW231380   6.116   3.077   2.078 -4.0990 -1.7584  0.6202
10161SOL     OW31381   5.547   2.911   5.570  0.3390 -0.2298 -0.1655
10161SOL    HW131382   5.625   2.870   5.619 -0.1549 -0.7304  0.2281
10161SOL    HW231383   5.467   2.851   5.580 -0.3591  0.7470  0.2610
10162SOL     OW31384   3.338   2.896   3.257 -0.2597  0.4521 -0.7947
10162SOL    HW131385   3.348   2.995   3.256  0.6547  0.3998  0.4227
10162SOL    HW231386   3.317   2.863   3.165  0.1954  1.7071 -1.3638
10163SOL     OW31387   4.470   5.355   2.871 -0.5723 -0.3067  0.4679
10163SOL    HW131388   4.560   5.388   2.901 -0.0812 -0.7309 -0.5019
10163SOL    HW231389   4.399   5.411   2.914  0.0905 -0.6832  2.1417
10164SOL     OW31390   4.041   6.584   5.600  0.1756 -0.2450 -0.3220
10164SOL    HW131391   4.102   6.548   5.670 -1.2336  0.3426  1.2878
10164SOL    HW231392   3.948   6.551   5.618 -0.5596  1.5071 -0.7437
10165SOL     OW31393   2.974   3.695   3.695 -0.3002 -0.5865 -0.4848
10165SOL    HW131394   2.991   3.600   3.669  2.0514  0.3667 -2.8832
10165SOL    HW231395   2.970   3.752   3.613 -2.1302  1.3812  0.8534
10166SOL     OW31396   6.569   3.509   6.225 -0.0148 -0.2707  0.7195
10166SOL    HW131397   6.650   3.561   6.254 -0.4989  0.5568  0.6012
10166SOL    HW231398   6.565   3.508   6.125  0.1390 -0.7769  0.7146
10167SOL     OW31399   5.280   2.477   5.330  0.5225  0.0256 -0.0866
10167SOL    HW131400   5.218   2.451   5.256  0.7918 -0.5156 -0.1297
10167SOL    HW231401   5.262   2.571   5.357 -0.5127 -0.2120  0.0919
10168SOL     OW31402   5.427   2.442   2.231  0.4520  0.4122 -0.2462
10168SOL    HW131403   5.405   2.401   2.320  1.7320  1.3494  0.5331
10168SOL    HW231404   5.392   2.383   2.158 -1.3537  0.0400  0.8648
10169SOL     OW31405   0.336   1.638   2.599 -0.4365 -0.0807  0.3616
10169SOL    HW131406   0.317   1.607   2.506 -0.7949 -0.6372  0.6127
10169SOL    HW231407   0.282   1.720   2.619 -0.2789  0.1005  0.0436
10170SOL     OW31408   5.700   5.679   3.195  0.0298 -0.5708  0.1047
10170SOL    HW131409   5.607   5.713   3.205  0.0241 -0.8789  1.1728
10170SOL    HW231410   5.699   5.585   3.161 -0.0374 -0.4506 -0.2248
10171SOL     OW31411   2.880   1.976   4.841  0.6236 -0.4523  0.0955
10171SOL    HW131412   2.834   2.020   4.764  1.2541  1.2391  0.6373
10171SOL    HW231413   2.812   1.937   4.903  0.0883 -1.1479 -0.9045
10172SOL     OW31414   1.115   5.942   5.074 -0.5566  0.6121 -0.2031
10172SOL    HW131415   1.179   5.897   5.011  0.9809  1.5633  0.6441
10172SOL    HW231416   1.163   6.010   5.128 -2.0250  0.4151  1.4357
10173SOL     OW31417   1.567   3.825   5.272 -0.1201  0.0653  0.7745
10173SOL    HW131418   1.592   3.886   5.197 -2.2556 -0.1562 -0.2044
10173SOL    HW231419   1.578   3.730   5.243 -2.8087 -0.0797 -0.1027
10174SOL     OW31420   5.873   2.795   3.508  0.1278  0.8890 -0.8098
10174SOL    HW131421   5.844   2.772   3.601 -0.3640 -0.7080 -1.3306
10174SOL    HW231422   5.946   2.864   3.512 -1.5678  2.7384  0.6383
10175SOL     OW31423   6.598   5.209   5.417  0.4242 -0.4306  0.5986
10175SOL    HW131424   6.625   5.296   5.457 -0.3069  0.1139 -0.0717
10175SOL    HW231425   6.605   5.213   5.317 -2.1914 -0.1858  0.3437
10176SOL     OW31426   3.623   5.087   5.335  0.5622 -0.8251  0.1776
10176SOL    HW131427   3.659   5.178   5.315  2.1980 -1.2808  0.8413
10176SOL    HW231428   3.538   5.072   5.285  1.3150  0.3149 -1.5069
10177SOL     OW31429   5.719   0.379   0.592  0.0835  0.3233 -0.0636
10177SOL    HW131430   5.750   0.342   0.504  1.2363  1.5638 -0.2007
10177SOL    HW231431   5.675   0.306   0.645 -2.6254 -0.0170 -2.5137
10178SOL     OW31432   3.888   1.049   1.771 -0.0975 -0.3354  0.2973
10178SOL    HW131433   3.920   0.988   1.698  1.5966  0.2526  0.4991
10178SOL    HW231434   3.838   0.997   1.839  0.9113 -1.4343  0.2286
10179SOL     OW31435   4.240   4.113   6.690 -0.3327  0.5871 -0.0850
10179SOL    HW131436   4.315   4.111   6.623 -0.2697  1.9128 -0.0755
10179SOL    HW231437   4.238   4.026   6.739 -0.1619 -0.2909 -1.5647
10180SOL     OW31438   4.945   2.656   1.252  0.1549 -0.0851  0.0474
10180SOL    HW131439   5.006   2.604   1.312 -2.5030 -3.0388  0.4379
10180SOL    HW231440   4.904   2.731   1.304 -1.6152 -2.2139  1.9149
10181SOL     OW31441   3.572   6.789   6.726 -0.2769  0.4584 -0.1042
10181SOL    HW131442   3.657   6.788   6.674 -0.5111  0.9968 -0.5013
10181SOL    HW231443   3.577   6.860   6.797  1.1410 -2.0224  2.5041
10182SOL     OW31444   0.356   3.313   3.329 -0.0109 -0.2929 -0.6611
10182SOL    HW131445   0.409   3.396   3.316 -1.4390  0.5057 -1.6479
10182SOL    HW231446   0.259   3.334   3.326 -0.4870 -1.5495  2.1654
10183SOL     OW31447   1.076   1.733   2.372 -0.2862  0.5563  0.4293
10183SOL    HW131448   1.064   1.740   2.471 -3.0911  1.9151  0.0836
10183SOL    HW231449   1.064   1.637   2.345  0.7491  0.1237  1.3745
10184SOL     OW31450   4.851   2.370   5.360  0.4193  0.0812 -0.6248
10184SOL    HW131451   4.855   2.433   5.439  2.3254 -0.3526 -0.3125
10184SOL    HW231452   4.901   2.286   5.383 -0.2447 -0.6464 -1.8066
10185SOL     OW31453   0.057   0.448   6.187 -0.0118 -0.1418 -0.2763
10185SOL    HW131454   0.077   0.541   6.218  0.6256 -0.7121  1.1078
10185SOL    HW231455   0.083   0.439   6.091 -0.6983  1.2772 -0.6295
10186SOL     OW31456   6.229   2.482   4.332 -0.9637 -0.5232 -0.0544
10186SOL    HW131457   6.186   2.559   4.285 -2.1394 -1.5652 -0.7522
10186SOL    HW231458   6.250   2.410   4.265 -0.0320 -0.8850  0.6077
10187SOL     OW31459   6.317   2.481   1.841  0.0426  0.2641 -0.0777
10187SOL    HW131460   6.259   2.436   1.909 -2.5691  0.7001 -1.8550
10187SOL    HW231461   6.295   2.445   1.750  0.0913  2.8527 -1.2067
10188SOL     OW31462   5.200   0.798   4.720 -0.0945  0.1759 -0.2064
10188SOL    HW131463   5.189   0.728   4.790  1.9445  0.4128  0.3952
10188SOL    HW231464   5.160   0.765   4.634 -0.8129 -0.9394  0.5243
10189SOL     OW31465   6.291   5.866   0.207 -0.3774  0.0954 -0.0958
10189SOL    HW131466   6.265   5.781   0.253  0.2322  0.3050  0.6612
10189SOL    HW231467   6.390   5.877   0.210 -0.4514  0.8540 -0.1351
10190SOL     OW31468   4.713   2.258   0.745 -0.2301  0.1299 -0.3029
10190SOL    HW131469   4.626   2.226   0.782 -0.2028 -1.0587 -1.1780
10190SOL    HW231470   4.784   2.189   0.764  0.6427  1.2619  0.7648
10191SOL     OW31471   6.226   5.715   3.272  0.2909 -0.0230  0.0275
10191SOL    HW131472   6.232   5.659   3.355  4.2660 -0.2453 -0.1925
10191SOL    HW231473   6.223   5.812   3.297  0.6274 -0.1192  0.4608
10192SOL     OW31474   2.420   4.774   1.625 -0.3759 -0.1221  0.1126
10192SOL    HW131475   2.340   4.787   1.567 -0.4127 -1.8423 -0.2746
10192SOL    HW231476   2.495   4.830   1.590 -0.8334 -0.0067 -0.7078
10193SOL     OW31477   6.052   2.110   3.893  0.5413  0.1031 -0.3534
10193SOL    HW131478   6.111   2.038   3.856 -0.1465 -0.2331 -0.7998
10193SOL    HW231479   5.982   2.134   3.827 -0.4728 -0.2307  0.5637
10194SOL     OW31480   3.467   6.753   6.012  0.0737 -0.3667 -0.0011
10194SOL    HW131481   3.567   6.754   6.011  0.0830 -0.3311  0.5053
10194SOL    HW231482   3.433   6.819   5.945  0.3820 -0.6975 -0.4902
10195SOL     OW31483   0.543   1.326   3.404  0.8384 -0.6807  0.1754
10195SOL    HW131484   0.584   1.259   3.343  1.2698 -0.7098  0.4913
10195SOL    HW231485   0.484   1.387   3.352  0.6309 -1.1560 -0.1518
10196SOL     OW31486   5.696   2.582   1.903  0.2601  0.3735  0.2939
10196SOL    HW131487   5.602   2.610   1.881 -0.1859 -0.7410  0.6956
10196SOL    HW231488   5.721   2.617   1.993 -1.3941 -2.7871  2.1854
10197SOL     OW31489   5.676   4.645   3.930  0.8031  0.7930 -0.5089
10197SOL    HW131490   5.638   4.575   3.990  1.0358  0.8965 -0.2365
10197SOL    HW231491   5.629   4.732   3.946  0.7888  0.7947 -0.5584
10198SOL     OW31492   0.346   2.795   3.900  0.2985  0.1673 -0.2723
10198SOL    HW131493   0.255   2.808   3.941 -0.5326  2.1648 -2.4911
10198SOL    HW231494   0.356   2.857   3.822  3.2879 -0.6139 -0.6225
10199SOL     OW31495   1.156   4.408   1.401 -0.6418 -0.4045  0.6929
10199SOL    HW131496   1.185   4.399   1.496  1.0927 -0.2801  0.2163
10199SOL    HW231497   1.188   4.329   1.349  1.0474  0.8912 -0.3492
10200SOL     OW31498   4.602   6.072   1.331 -0.1312 -0.2515  0.0637
10200SOL    HW131499   4.561   6.026   1.410  1.1499  2.6890  2.6792
10200SOL    HW231500   4.669   6.011   1.288  1.1243 -1.1142  2.9856
10201SOL     OW31501   2.739   3.717   5.372  0.3722 -0.3075 -0.2629
10201SOL    HW131502   2.767   3.695   5.279  1.6005  0.4310 -0.0988
10201SOL    HW231503   2.664   3.783   5.370  0.4739 -0.2037 -0.7410
10202SOL     OW31504   5.120   5.943   3.745  0.7085  0.1302 -0.8007
10202SOL    HW131505   5.091   5.864   3.799  1.9953 -0.5108 -0.9994
10202SOL    HW231506   5.170   6.008   3.803  0.7231  0.2017 -0.8924
10203SOL     OW31507   3.579   4.888   1.588  0.0861  0.0866  0.3192
10203SOL    HW131508   3.498   4.934   1.550  0.1932  0.4784  0.5592
10203SOL    HW231509   3.568   4.879   1.687 -1.2610 -3.0078  0.0182
10204SOL     OW31510   1.063   4.846   5.341  0.5856  0.1892 -0.1234
10204SOL    HW131511   1.022   4.936   5.352  0.1465 -0.2439  2.3935
10204SOL    HW231512   1.162   4.854   5.341  0.5931  0.5764  1.8381
10205SOL     OW31513   1.699   6.515   2.475 -0.0817  0.0333 -0.6144
10205SOL    HW131514   1.652   6.431   2.449 -0.5342  0.6407 -1.8453
10205SOL    HW231515   1.744   6.502   2.563 -0.5847 -1.3192 -0.5309
10206SOL     OW31516   4.365   0.241   4.582  0.4813 -0.5900 -0.2698
10206SOL    HW131517   4.358   0.169   4.513  0.3761  1.3802 -2.4329
10206SOL    HW231518   4.288   0.305   4.572  0.6753 -0.0430  1.4391
10207SOL     OW31519   4.613   6.633   1.726 -0.0498 -0.1212 -0.9794
10207SOL    HW131520   4.522   6.593   1.730  0.7388 -1.9434 -0.2031
10207SOL    HW231521   4.678   6.565   1.692  1.7723 -0.3710  2.6092
10208SOL     OW31522   2.518   2.457   3.748  0.5086  0.1348 -0.2857
10208SOL    HW131523   2.544   2.371   3.704 -0.8447 -0.8266  0.7110
10208SOL    HW231524   2.471   2.515   3.682 -0.0108 -0.5773 -0.5494
10209SOL     OW31525   3.306   2.003   3.790  0.6913  0.5021 -0.6924
10209SOL    HW131526   3.320   2.056   3.706  0.4079  0.0644 -1.0220
10209SOL    HW231527   3.217   1.958   3.786  1.4452 -1.0500 -1.0041
10210SOL     OW31528   6.022   5.523   0.962  0.2631 -0.2039 -0.1211
10210SOL    HW131529   5.972   5.532   1.048 -1.7963 -0.3250 -1.2372
10210SOL    HW231530   6.058   5.612   0.935 -1.3269  0.3909 -0.3939
10211SOL     OW31531   1.401   4.705   0.468 -0.3747 -0.0243 -0.8648
10211SOL    HW131532   1.331   4.776   0.464  0.2087  0.5161 -1.9128
10211SOL    HW231533   1.491   4.748   0.475 -0.1731 -0.6928  2.6797
10212SOL     OW31534   4.030   3.927   0.495  0.0764  0.0615  0.1186
10212SOL    HW131535   4.093   3.986   0.445 -1.3112  1.4078 -0.0964
10212SOL    HW231536   3.985   3.864   0.431  0.3612 -0.1309  0.1058
10213SOL     OW31537   5.660   5.578   4.795  0.4430 -0.1887 -0.4069
10213SOL    HW131538   5.678   5.602   4.699  0.3652 -2.7178 -1.1095
10213SOL    HW231539   5.735   5.613   4.852  0.8928  0.6595 -1.4692
10214SOL     OW31540   3.889   0.182   5.338 -0.1929  0.3816 -0.4659
10214SOL    HW131541   3.980   0.180   5.298  0.1678 -1.0559  0.3322
10214SOL    HW231542   3.845   0.092   5.327 -1.3538  0.9256 -0.4821
10215SOL     OW31543   5.859   3.883   0.475  0.3934 -0.0871 -0.3459
10215SOL    HW131544   5.762   3.902   0.491  0.1418 -1.0985 -0.6336
10215SOL    HW231545   5.872   3.853   0.380  1.0213  0.2085 -0.3629
10216SOL     OW31546   4.129   3.321   4.606  0.1357 -0.1549 -0.0017
10216SOL    HW131547   4.101   3.377   4.527  2.2278 -0.1672 -0.8104
10216SOL    HW231548   4.173   3.380   4.674  0.1384 -0.4419  0.2452
10217SOL     OW31549   0.499   0.681   2.437 -0.2211 -0.1078 -0.5616
10217SOL    HW131550   0.414   0.655   2.392 -0.0464 -2.1564  0.1784
10217SOL    HW231551   0.576   0.660   2.376 -0.1519  0.0381 -0.5234
10218SOL     OW31552   0.300   4.009   4.969  0.0007  0.0720  0.2615
10218SOL    HW131553   0.285   4.013   4.870  0.8793  1.8860  0.1506
10218SOL    HW231554   0.212   4.014   5.016 -0.3636  0.4049 -0.4373
10219SOL     OW31555   2.361   2.577   5.856  0.3810 -0.8324  0.5846
10219SOL    HW131556   2.410   2.664   5.845 -1.2781  0.4470  2.6692
10219SOL    HW231557   2.416   2.515   5.911  0.2627  0.0955  1.7848
10220SOL     OW31558   1.601   3.733   2.732 -0.0043  0.5259  0.1281
10220SOL    HW131559   1.631   3.657   2.675 -0.7911 -1.2441  1.9585
10220SOL    HW231560   1.536   3.789   2.682  1.9962  1.1614 -1.9203
10221SOL     OW31561   4.100   1.208   6.317 -0.0409  0.2536  0.1454
10221SOL    HW131562   4.172   1.220   6.248 -0.7562 -4.9904 -1.9744
10221SOL    HW231563   4.028   1.275   6.301  1.2651  1.2523 -2.1669
10222SOL     OW31564   5.931   3.810   2.849 -0.5420 -0.0413  0.0945
10222SOL    HW131565   5.853   3.858   2.810 -1.2225 -1.3373 -0.1978
10222SOL    HW231566   5.921   3.804   2.948 -1.3865 -1.1230 -0.0324
10223SOL     OW31567   6.229   3.847   5.701  0.2699  0.1814 -0.4256
10223SOL    HW131568   6.295   3.866   5.628 -0.4923  2.4952 -0.5888
10223SOL    HW231569   6.152   3.910   5.694 -2.4034 -2.8267 -0.6514
10224SOL     OW31570   4.048   6.037   1.227 -0.2150  0.5180 -0.4344
10224SOL    HW131571   4.083   6.076   1.142 -1.2607  2.9678  0.1776
10224SOL    HW231572   4.075   6.094   1.304 -0.8934 -0.6088  0.6816
10225SOL     OW31573   5.464   0.921   5.739  0.5316 -0.1239 -0.9187
10225SOL    HW131574   5.503   0.838   5.780  0.8650 -0.1798 -1.3407
10225SOL    HW231575   5.505   0.936   5.649  0.7117  0.6826 -0.7082
10226SOL     OW31576   2.880   0.474   2.931 -0.5930  0.0785 -0.2875
10226SOL    HW131577   2.875   0.541   3.005 -2.2824  0.2253 -0.5109
10226SOL    HW231578   2.819   0.500   2.857 -1.3831 -1.7426 -0.3328
10227SOL     OW31579   6.817   2.696   4.277 -0.1462  0.6981  0.1466
10227SOL    HW131580   6.798   2.617   4.335  0.2149  0.6849  0.2487
10227SOL    HW231581   6.783   2.678   4.184  1.2756 -0.1934 -0.2181
10228SOL     OW31582   0.643   2.853   2.913 -0.1284  0.2262  0.5096
10228SOL    HW131583   0.704   2.781   2.947 -1.5992 -2.1264 -1.4983
10228SOL    HW231584   0.677   2.886   2.825 -0.6580  0.4025  0.3705
10229SOL     OW31585   3.992   6.462   4.796 -0.0074 -0.5542  0.0926
10229SOL    HW131586   3.921   6.532   4.804  0.4391 -0.3354  3.2666
10229SOL    HW231587   3.974   6.406   4.715 -1.6394  1.7811 -1.2778
10230SOL     OW31588   2.919   6.994   2.148 -0.2423  0.1277  0.0045
10230SOL    HW131589   2.975   6.921   2.185 -2.1370 -0.8528  1.0758
10230SOL    HW231590   2.920   7.072   2.211 -0.0440  0.1338 -0.0060
10231SOL     OW31591   0.946   5.927   6.282  0.1482  0.2916  0.2856
10231SOL    HW131592   0.911   6.003   6.228  0.1056  1.2373  1.5814
10231SOL    HW231593   0.895   5.921   6.368  0.7932 -0.6054  0.6294
10232SOL     OW31594   3.407   4.906   3.982  0.0442 -0.3399  1.0079
10232SOL    HW131595   3.461   4.923   4.065 -0.6397  2.5529  0.9653
10232SOL    HW231596   3.314   4.882   4.008 -0.1260  0.4007  1.1080
10233SOL     OW31597   1.407   0.677   2.924 -0.1567 -0.5591  0.1146
10233SOL    HW131598   1.380   0.773   2.933  0.7356 -0.3270  0.4450
10233SOL    HW231599   1.369   0.625   3.001  0.4162 -0.2182  0.6368
10234SOL     OW31600   6.759   3.350   4.554  0.0222  0.7337 -0.3852
10234SOL    HW131601   6.809   3.283   4.609 -1.1134  1.7532  2.0353
10234SOL    HW231602   6.766   3.440   4.598 -1.8413  1.3892 -1.3478
10235SOL     OW31603   6.800   3.391   0.233  0.4723 -0.3458  0.3130
10235SOL    HW131604   6.806   3.388   0.333  1.5659 -3.4278  0.2574
10235SOL    HW231605   6.777   3.300   0.198  1.9357  0.1935 -2.3030
10236SOL     OW31606   2.744   0.918   4.832 -0.1526 -0.4681 -0.5712
10236SOL    HW131607   2.789   0.922   4.742  2.1384  1.8635  0.5423
10236SOL    HW231608   2.727   1.010   4.864  3.5181 -0.8451  3.3572
10237SOL     OW31609   5.075   4.327   5.134 -0.0447  0.6077  0.1934
10237SOL    HW131610   5.026   4.248   5.099 -1.3603  0.0401  3.0672
10237SOL    HW231611   5.171   4.322   5.105 -0.3619 -1.3689 -0.6670
10238SOL     OW31612   4.930   5.618   1.516 -0.2803  0.5452 -0.3507
10238SOL    HW131613   4.862   5.575   1.457  0.9256 -0.5765 -0.9626
10238SOL    HW231614   4.997   5.667   1.461 -0.1292  0.9759  0.1984
10239SOL     OW31615   2.017   4.961   3.476 -0.0515 -0.5075  0.2044
10239SOL    HW131616   2.004   4.964   3.377 -0.7736  3.1861  0.2781
10239SOL    HW231617   2.075   5.037   3.504  0.2086 -1.5248  2.6620
10240SOL     OW31618   0.675   6.271   0.822  0.4108 -0.1678 -0.1383
10240SOL    HW131619   0.615   6.259   0.901  0.5713  0.1977  0.0412
10240SOL    HW231620   0.761   6.223   0.838  0.0749 -0.9107 -0.5049
10241SOL     OW31621   4.055   0.283   6.001  0.5152 -0.3000 -0.4863
10241SOL    HW131622   4.116   0.361   5.986  1.9579 -1.2041  0.3374
10241SOL    HW231623   4.111   0.201   6.015 -0.8751 -1.0214  1.1740
10242SOL     OW31624   5.493   5.752   1.218  0.6868  0.1560 -0.0308
10242SOL    HW131625   5.411   5.712   1.178  0.5426  0.9719 -0.5851
10242SOL    HW231626   5.477   5.777   1.313  0.7457 -0.9719  0.2928
10243SOL     OW31627   5.857   5.661   1.902 -0.1051  0.0178 -0.4355
10243SOL    HW131628   5.897   5.636   1.814  1.3107  0.2605  0.1133
10243SOL    HW231629   5.886   5.753   1.927  0.2472 -0.3885  0.6966
10244SOL     OW31630   0.744   0.966   6.537 -0.7170  0.4133  0.1729
10244SOL    HW131631   0.783   0.947   6.627 -0.5044  1.2919  0.2817
10244SOL    HW231632   0.791   1.045   6.496 -1.4653  0.6401 -0.2847
10245SOL     OW31633   2.307   6.162   1.015 -0.5197  0.2035  0.2389
10245SOL    HW131634   2.399   6.194   1.037 -0.6704 -0.7388  2.4244
10245SOL    HW231635   2.303   6.063   1.019 -2.0114  0.2733  2.0559
10246SOL     OW31636   2.900   1.100   3.116 -0.1694  0.0496  0.2363
10246SOL    HW131637   2.851   1.161   3.179 -0.4526 -0.3332  0.3901
10246SOL    HW231638   2.896   1.139   3.024 -0.4467  0.2091  0.3124
10247SOL     OW31639   2.907   3.369   5.914 -0.4324 -0.1666  0.6242
10247SOL    HW131640   2.976   3.335   5.979 -0.5056 -1.2921  0.1458
10247SOL    HW231641   2.950   3.381   5.824 -0.2160  1.8336  0.9406
10248SOL     OW31642   1.612   1.155   6.428  0.6451 -0.4175 -0.2872
10248SOL    HW131643   1.693   1.198   6.467 -0.4476  0.3723  1.2001
10248SOL    HW231644   1.537   1.220   6.426  0.0001 -1.1560 -1.5736
10249SOL     OW31645   1.714   4.666   2.883 -0.1113 -0.3021 -0.7438
10249SOL    HW131646   1.629   4.672   2.829 -0.7301  2.7267  0.3802
10249SOL    HW231647   1.693   4.634   2.975 -0.4031  2.0646  0.0700
10250SOL     OW31648   1.060   4.801   1.819 -0.1755 -0.2121 -0.1089
10250SOL    HW131649   1.130   4.824   1.886  0.0283  1.3099 -0.7953
10250SOL    HW231650   1.103   4.759   1.739 -0.0344  0.7341 -0.5356
10251SOL     OW31651   1.984   6.465   6.501  0.2090 -0.1637 -0.0462
10251SOL    HW131652   1.911   6.534   6.498  0.7583  0.4577 -3.1055
10251SOL    HW231653   2.072   6.511   6.518  0.3433 -0.3660 -0.1900
10252SOL     OW31654   6.764   4.842   2.159 -0.5636 -0.6220  0.0823
10252SOL    HW131655   6.861   4.863   2.156  0.1944 -3.4621  1.0464
10252SOL    HW231656   6.711   4.923   2.135  2.0292  0.7594 -1.3754
10253SOL     OW31657   6.077   3.036   0.495  0.1655  0.2553 -0.3943
10253SOL    HW131658   6.158   3.053   0.439  0.7519  0.8309  0.5949
10253SOL    HW231659   6.039   3.122   0.527  0.0657 -0.0736  0.4004
10254SOL     OW31660   2.738   5.734   5.729  0.5157  0.5856  0.0090
10254SOL    HW131661   2.831   5.699   5.736  0.6174  0.7049 -0.6686
10254SOL    HW231662   2.724   5.773   5.638 -0.4471 -0.1422 -0.1716
10255SOL     OW31663   4.881   3.199   5.682  0.3471 -0.1458  0.0357
10255SOL    HW131664   4.930   3.147   5.612  1.2072  0.0429  0.4791
10255SOL    HW231665   4.908   3.167   5.773  0.1850  0.4506  0.3017
10256SOL     OW31666   6.341   5.641   2.433  0.0500 -0.4626  0.0889
10256SOL    HW131667   6.354   5.677   2.526 -0.2340  0.3143 -0.1644
10256SOL    HW231668   6.282   5.560   2.436  1.6769 -1.6830  0.8106
10257SOL     OW31669   2.581   3.148   5.343 -0.1990 -0.2855 -0.1882
10257SOL    HW131670   2.559   3.087   5.267  1.0743 -1.2067  0.1394
10257SOL    HW231671   2.592   3.094   5.427 -0.4982  0.5796  0.4254
10258SOL     OW31672   6.684   1.389   2.055  0.1756 -0.0403  0.0902
10258SOL    HW131673   6.777   1.404   2.021  0.2500  0.8024  0.6119
10258SOL    HW231674   6.638   1.478   2.065  0.6090 -0.0401  3.3493
10259SOL     OW31675   4.755   0.281   6.419 -0.0055 -0.4662 -0.1494
10259SOL    HW131676   4.845   0.317   6.393 -0.3719 -0.6443 -1.7956
10259SOL    HW231677   4.706   0.251   6.336 -1.5690 -0.3871  0.7088
10260SOL     OW31678   0.985   4.827   3.547 -0.8501 -0.2803  0.0646
10260SOL    HW131679   1.043   4.906   3.568 -0.6710  0.1749 -1.9223
10260SOL    HW231680   1.040   4.744   3.546 -0.6231 -0.1303  0.0852
10261SOL     OW31681   5.987   1.020   2.324  0.0204 -0.0338  0.4854
10261SOL    HW131682   6.049   0.976   2.388  0.1773  0.7789  0.9075
10261SOL    HW231683   6.018   1.113   2.306 -1.7388  0.8543  1.6905
10262SOL     OW31684   0.069   2.844   1.930 -0.1678  0.5385 -0.2125
10262SOL    HW131685   0.147   2.893   1.891  0.8915  0.2414  1.4309
10262SOL    HW231686   0.083   2.745   1.921  0.4965  0.4349  1.5454
10263SOL     OW31687   5.105   6.100   3.324  0.2117 -0.0365 -0.1839
10263SOL    HW131688   5.127   6.195   3.304  0.5763  0.2253  1.3602
10263SOL    HW231689   5.010   6.092   3.353  0.7897  0.2598  1.9529
10264SOL     OW31690   5.758   1.476   6.722 -0.0235  0.2001  0.6015
10264SOL    HW131691   5.699   1.412   6.672  3.4537 -0.6810 -2.8562
10264SOL    HW231692   5.756   1.565   6.675  0.8844  0.3347  0.8059
10265SOL     OW31693   2.051   4.923   4.988 -0.0417 -0.1155  0.1182
10265SOL    HW131694   2.044   5.017   4.953 -0.3616 -0.5148 -0.9332
10265SOL    HW231695   1.962   4.877   4.978  0.8487 -1.5013 -2.3027
10266SOL     OW31696   4.093   3.570   6.328 -1.0020 -0.2329 -0.1455
10266SOL    HW131697   4.149   3.500   6.372 -1.2607 -0.8977 -0.8542
10266SOL    HW231698   4.048   3.532   6.247 -0.9117  0.8332 -0.7257
10267SOL     OW31699   0.201   5.949   3.648 -0.2032 -0.3076  0.0650
10267SOL    HW131700   0.207   6.014   3.724  0.5980  0.2477 -0.4557
10267SOL    HW231701   0.149   5.991   3.573 -2.1573 -1.3498  0.7744
10268SOL     OW31702   1.798   1.098   4.252 -0.3343  0.8904  0.1134
10268SOL    HW131703   1.742   1.179   4.265 -1.3290  0.3182 -0.4419
10268SOL    HW231704   1.814   1.084   4.154 -1.4393 -0.3947  0.0946
10269SOL     OW31705   0.658   3.014   6.623 -0.2025 -0.0774 -0.6036
10269SOL    HW131706   0.617   2.938   6.673 -1.8526  0.7485 -0.6164
10269SOL    HW231707   0.757   3.012   6.634 -0.3306 -1.3698  0.5900
10270SOL     OW31708   5.453   4.068   6.646 -0.3211  0.4677 -0.5444
10270SOL    HW131709   5.430   4.093   6.552 -1.1398 -1.6058 -0.9550
10270SOL    HW231710   5.412   4.133   6.709 -0.5022  1.3870 -1.5861
10271SOL     OW31711   4.911   4.956   6.782  0.3681 -0.0015  0.0997
10271SOL    HW131712   4.916   5.055   6.793  1.9981  0.0825 -1.0622
10271SOL    HW231713   4.946   4.930   6.692 -3.1306 -1.4028 -1.0322
10272SOL     OW31714   4.507   2.501   2.857  0.2878  0.2699 -0.0696
10272SOL    HW131715   4.450   2.443   2.799  1.3868  0.6326 -1.5668
10272SOL    HW231716   4.485   2.483   2.953 -1.8510 -0.0688 -0.5680
10273SOL     OW31717   6.136   6.522   1.101 -0.5123 -0.1008  0.1692
10273SOL    HW131718   6.103   6.551   1.191  2.6849  1.5981  0.9192
10273SOL    HW231719   6.080   6.565   1.030 -0.0666  2.5543  1.3441
10274SOL     OW31720   3.529   3.846   2.815  0.1414  0.0924 -0.4498
10274SOL    HW131721   3.456   3.841   2.883 -0.1777 -2.2483 -0.8887
10274SOL    HW231722   3.604   3.903   2.851 -0.8604  0.5820  0.9786
10275SOL     OW31723   0.701   0.630   1.862 -0.3968 -0.2401 -0.0199
10275SOL    HW131724   0.765   0.553   1.863  0.0503  0.1278  0.0831
10275SOL    HW231725   0.648   0.628   1.777  0.6851  0.1983 -0.7274
10276SOL     OW31726   0.292   6.142   3.899  0.5926  0.5926  0.1079
10276SOL    HW131727   0.193   6.146   3.905  0.5182 -0.1582 -0.4520
10276SOL    HW231728   0.323   6.050   3.924  1.1672  0.8922  0.5185
10277SOL     OW31729   5.553   1.580   3.794  0.7900  0.1036  0.1071
10277SOL    HW131730   5.505   1.668   3.792  1.1898  0.4100  1.9473
10277SOL    HW231731   5.587   1.558   3.703 -0.8718  0.9667 -0.7694
10278SOL     OW31732   5.609   1.615   2.922 -0.5474 -0.2933 -0.1960
10278SOL    HW131733   5.557   1.544   2.874 -0.4013 -0.9944  0.6627
10278SOL    HW231734   5.628   1.585   3.015 -0.5713  0.9218  0.2195
10279SOL     OW31735   2.563   1.782   6.143 -0.0319 -0.4312 -0.7947
10279SOL    HW131736   2.473   1.783   6.100  0.5213  0.7517 -1.9751
10279SOL    HW231737   2.629   1.831   6.085  1.9345 -3.2631 -1.1833
10280SOL     OW31738   6.956   5.848   3.261 -0.2144 -0.8103  0.1171
10280SOL    HW131739   6.949   5.770   3.322 -0.5081 -1.8560 -1.1924
10280SOL    HW231740   6.874   5.852   3.203 -0.6802  1.0814  0.8201
10281SOL     OW31741   1.436   3.351   4.155  0.7710 -0.5879 -0.5485
10281SOL    HW131742   1.512   3.321   4.098  1.3935 -1.6947  0.7940
10281SOL    HW231743   1.471   3.386   4.242 -0.2086 -0.3525 -0.2320
10282SOL     OW31744   4.947   2.306   0.220 -0.5414 -0.8016  0.4333
10282SOL    HW131745   4.979   2.219   0.255 -0.2901 -0.8672  0.0466
10282SOL    HW231746   4.934   2.370   0.295 -1.1053 -1.2899  0.7636
10283SOL     OW31747   2.610   1.444   1.551  0.2750 -0.1069 -0.2201
10283SOL    HW131748   2.596   1.531   1.504  1.1807  2.8990  4.4294
10283SOL    HW231749   2.522   1.399   1.565 -0.7666  2.0240  0.5006
10284SOL     OW31750   3.290   1.836   2.680  0.2460 -0.2463  0.3423
10284SOL    HW131751   3.342   1.921   2.668  0.6390 -0.3671  1.1477
10284SOL    HW231752   3.194   1.854   2.661  0.0817  0.7596  1.8702
10285SOL     OW31753   3.474   2.961   0.861 -0.3065 -0.0787  0.0046
10285SOL    HW131754   3.379   2.993   0.860 -0.7642 -1.2691  1.3838
10285SOL    HW231755   3.504   2.952   0.956  1.3498  0.6896 -0.4217
10286SOL     OW31756   2.844   1.295   1.725 -0.2129 -0.2289 -0.8858
10286SOL    HW131757   2.919   1.346   1.767 -1.8567  1.0564  0.6488
10286SOL    HW231758   2.775   1.359   1.692 -2.0671 -1.3759  0.5322
10287SOL     OW31759   6.771   4.083   5.646 -0.5809  0.4309 -0.1723
10287SOL    HW131760   6.727   4.019   5.709  0.2129 -0.6794 -0.7212
10287SOL    HW231761   6.870   4.075   5.654 -0.3838  3.1311  1.2818
10288SOL     OW31762   2.446   6.922   4.155  0.0653  0.1423  0.1497
10288SOL    HW131763   2.536   6.902   4.118 -0.1809  0.0116 -0.3877
10288SOL    HW231764   2.431   7.021   4.157  1.1285  0.3295  2.4405
10289SOL     OW31765   6.553   5.893   0.142 -0.8819  0.3836 -0.0170
10289SOL    HW131766   6.573   5.823   0.075 -3.7677 -0.1805 -0.4426
10289SOL    HW231767   6.593   5.980   0.113  1.4177 -0.7135 -0.2760
10290SOL     OW31768   3.927   1.049   2.634  0.1206  0.2245 -0.4726
10290SOL    HW131769   3.887   0.963   2.665  1.3206 -0.2373 -0.1579
10290SOL    HW231770   3.984   1.033   2.554  2.8326  0.1269  1.3532
10291SOL     OW31771   2.504   4.872   5.997  0.1976  0.2574  0.7333
10291SOL    HW131772   2.509   4.932   6.077  0.4325 -0.0527  0.9490
10291SOL    HW231773   2.419   4.819   6.002  0.4640 -0.1400  1.0421
10292SOL     OW31774   3.008   3.365   5.640  0.1479  0.3900 -0.5272
10292SOL    HW131775   3.050   3.300   5.577 -0.4357 -0.5936  0.0769
10292SOL    HW231776   3.072   3.439   5.659  0.3894  0.6457 -2.1711
10293SOL     OW31777   2.271   0.912   2.360 -0.1320 -0.7990 -0.0905
10293SOL    HW131778   2.323   0.828   2.346  1.8340  0.1723  1.0170
10293SOL    HW231779   2.240   0.947   2.272  2.2189 -0.7578 -0.9739
10294SOL     OW31780   3.782   4.691   1.710 -0.0051 -0.0155 -0.2329
10294SOL    HW131781   3.763   4.763   1.643  0.7940 -0.3394 -0.8210
10294SOL    HW231782   3.701   4.677   1.767 -0.8222  0.0278 -1.3447
10295SOL     OW31783   6.779   6.575   5.456  0.0649 -0.5688 -0.0035
10295SOL    HW131784   6.721   6.644   5.413 -0.8859 -2.5890 -2.1676
10295SOL    HW231785   6.799   6.603   5.550 -1.6097  1.8326 -0.2648
10296SOL     OW31786   6.339   4.819   1.099  0.0345 -0.5711  0.2844
10296SOL    HW131787   6.251   4.798   1.058  0.1822 -0.0829 -0.2921
10296SOL    HW231788   6.327   4.837   1.197 -0.4674 -0.7131  0.2498
10297SOL     OW31789   1.711   2.048   6.263  0.4176 -0.0906 -0.4168
10297SOL    HW131790   1.695   2.142   6.232  1.3266 -0.1529 -1.1353
10297SOL    HW231791   1.663   2.032   6.349  0.4742  1.1243 -0.1412
10298SOL     OW31792   0.498   4.689   1.245 -0.1231  0.1708 -0.6743
10298SOL    HW131793   0.565   4.755   1.211  1.8744 -1.7640 -0.7143
10298SOL    HW231794   0.545   4.612   1.287 -2.3372 -1.4181 -0.9158
10299SOL     OW31795   1.979   3.293   4.332 -0.0899 -0.1206  0.7107
10299SOL    HW131796   2.020   3.372   4.379 -1.0810  0.5733  0.4609
10299SOL    HW231797   1.880   3.307   4.326 -0.3156 -1.5373  0.9115
10300SOL     OW31798   2.206   6.442   5.880  0.3418  0.5668 -0.0089
10300SOL    HW131799   2.268   6.447   5.958 -0.1252 -1.3253  0.5379
10300SOL    HW231800   2.251   6.482   5.799  0.6247  3.0587  1.2754
10301SOL     OW31801   5.481   0.193   1.461 -0.2970  0.0163  0.3089
10301SOL    HW131802   5.446   0.266   1.402  0.5809  0.2394  0.0414
10301SOL    HW231803   5.470   0.220   1.557 -1.4726 -0.2259  0.2563
10302SOL     OW31804   0.290   3.585   3.750  0.1424 -0.4477 -0.2782
10302SOL    HW131805   0.224   3.621   3.685 -0.1785 -0.6762 -0.0845
10302SOL    HW231806   0.344   3.513   3.706 -0.3454 -0.8820 -0.1848
10303SOL     OW31807   3.034   1.933   1.198  0.4883  0.4146  0.2114
10303SOL    HW131808   3.045   2.032   1.207  0.9417  0.5370 -1.3628
10303SOL    HW231809   3.068   1.903   1.109 -1.1247 -0.9326 -0.0163
10304SOL     OW31810   2.914   0.228   2.616 -0.8138 -0.7244 -0.0894
10304SOL    HW131811   2.966   0.209   2.700 -1.3396  1.1922  0.7331
10304SOL    HW231812   2.820   0.198   2.628 -0.4735 -2.0865 -0.7012
10305SOL     OW31813   5.111   1.197   2.400 -0.5044  0.0067 -0.1154
10305SOL    HW131814   5.031   1.138   2.387 -0.5305  0.4028 -2.0826
10305SOL    HW231815   5.083   1.283   2.442 -0.7825 -0.5780  0.9365
10306SOL     OW31816   3.208   6.000   0.395 -0.1639  0.3835  0.3018
10306SOL    HW131817   3.189   6.007   0.492  1.9008 -1.4250  0.9078
10306SOL    HW231818   3.294   5.952   0.381 -0.4411  0.5187 -2.4370
10307SOL     OW31819   4.704   5.879   3.748 -0.2247  0.4722  0.2048
10307SOL    HW131820   4.799   5.872   3.716 -0.4067 -0.3420 -0.1923
10307SOL    HW231821   4.703   5.903   3.845  0.3628  1.6952 -0.0763
10308SOL     OW31822   0.857   6.287   3.294 -0.0857  0.0646  0.5828
10308SOL    HW131823   0.775   6.310   3.241 -0.1110 -1.2419  0.0120
10308SOL    HW231824   0.914   6.224   3.241  2.9150  3.2858 -0.4482
10309SOL     OW31825   3.173   0.470   2.035 -0.0260  0.1052  0.1619
10309SOL    HW131826   3.163   0.418   1.951 -0.5237 -0.9279  0.8343
10309SOL    HW231827   3.264   0.510   2.039  0.8327 -1.7337  0.1673
10310SOL     OW31828   2.156   6.800   1.824 -0.1101  0.6126  0.0333
10310SOL    HW131829   2.174   6.898   1.816 -0.6224  0.7758  0.8402
10310SOL    HW231830   2.239   6.754   1.856  0.1894  0.7474 -0.5264
10311SOL     OW31831   2.541   1.105   3.576 -0.2099 -0.4881  0.0100
10311SOL    HW131832   2.623   1.103   3.634  0.4478 -1.5281 -0.9144
10311SOL    HW231833   2.466   1.148   3.626  0.3442 -1.3048  1.6182
10312SOL     OW31834   5.087   4.284   1.180 -0.1937 -0.1380 -0.0369
10312SOL    HW131835   5.003   4.310   1.228  0.2516 -0.7709  1.1240
10312SOL    HW231836   5.133   4.211   1.231  2.3274  1.8454  0.7325
10313SOL     OW31837   1.734   1.557   4.179  0.1024  0.6415 -0.0986
10313SOL    HW131838   1.807   1.607   4.225  0.4121 -0.7119  0.9460
10313SOL    HW231839   1.753   1.551   4.081  0.2093  2.2490 -0.2106
10314SOL     OW31840   5.382   0.155   1.706  0.2126  0.6961  0.2535
10314SOL    HW131841   5.411   0.065   1.674 -0.1827  0.6854 -0.0880
10314SOL    HW231842   5.438   0.182   1.784  0.4564  0.2371  0.2439
10315SOL     OW31843   6.923   0.649   1.515  0.0581  0.0147  0.6084
10315SOL    HW131844   6.918   0.709   1.595  1.4054  0.1775  0.5851
10315SOL    HW231845   6.870   0.690   1.440 -2.1304 -0.6542  1.6862
10316SOL     OW31846   0.387   1.811   5.969 -0.0451 -0.1958 -0.3130
10316SOL    HW131847   0.409   1.746   6.043  0.6757  2.2399  1.7612
10316SOL    HW231848   0.368   1.901   6.008  3.5595  2.1138 -3.1531
10317SOL     OW31849   6.473   6.902   3.132 -0.1059 -0.5904 -0.1680
10317SOL    HW131850   6.566   6.928   3.158 -0.5707 -0.0832  1.0832
10317SOL    HW231851   6.475   6.814   3.083  0.8535 -1.6024  1.5834
10318SOL     OW31852   5.654   5.511   4.072 -0.0361  0.2071  0.2508
10318SOL    HW131853   5.636   5.609   4.076 -0.7683  0.0417  1.4468
10318SOL    HW231854   5.570   5.463   4.046 -0.0404 -0.1916  0.9704
10319SOL     OW31855   3.350   6.738   1.741 -0.5782 -0.1060  0.1672
10319SOL    HW131856   3.435   6.689   1.720 -0.0456  0.1569  1.5943
10319SOL    HW231857   3.367   6.836   1.737 -1.4064 -0.0043 -1.7388
10320SOL     OW31858   5.291   0.419   2.876  0.0041 -0.1014  0.3859
10320SOL    HW131859   5.262   0.329   2.909  0.9950 -0.9186 -0.8822
10320SOL    HW231860   5.302   0.481   2.954 -1.0287 -0.9538  1.2484
10321SOL     OW31861   1.612   0.276   1.719 -0.1196  0.3136  0.2339
10321SOL    HW131862   1.622   0.310   1.813  1.7795  2.3728 -0.6179
10321SOL    HW231863   1.530   0.315   1.677  0.2092  1.1355  0.3523
10322SOL     OW31864   1.499   4.543   0.111 -0.3698 -0.1047 -0.1458
10322SOL    HW131865   1.473   4.638   0.131  1.5220  0.2805  0.6456
10322SOL    HW231866   1.417   4.486   0.114 -1.5275  1.4646 -0.4647
10323SOL     OW31867   4.978   1.011   0.020  0.6899 -0.0911  0.6257
10323SOL    HW131868   4.889   0.982   0.055  0.7122 -1.3661 -0.3211
10323SOL    HW231869   5.029   1.057   0.093 -0.7478  0.7082  1.1684
10324SOL     OW31870   1.780   2.465   3.270 -0.8704  0.2497  0.4779
10324SOL    HW131871   1.749   2.373   3.294 -0.4039 -0.2711 -0.8080
10324SOL    HW231872   1.702   2.528   3.272 -1.1856 -0.1546  1.4083
10325SOL     OW31873   5.236   1.948   0.771 -0.0936  0.0071 -0.3219
10325SOL    HW131874   5.250   2.046   0.762  1.8154 -0.2802 -0.9378
10325SOL    HW231875   5.261   1.919   0.864 -1.5825  0.2086  0.1711
10326SOL     OW31876   5.997   1.605   0.546  0.7038  0.1965  0.1924
10326SOL    HW131877   6.048   1.670   0.602  1.1444  1.2392 -1.3517
10326SOL    HW231878   6.046   1.518   0.544  0.5024  0.0363  1.6759
10327SOL     OW31879   5.364   1.642   6.605 -0.3088 -0.1704 -0.3704
10327SOL    HW131880   5.418   1.667   6.685 -0.0653  0.9643 -0.8745
10327SOL    HW231881   5.267   1.639   6.630 -0.3140  0.9530 -0.2000
10328SOL     OW31882   3.640   2.057   5.895 -0.2519  0.5485  0.4783
10328SOL    HW131883   3.585   2.037   5.976 -0.5118 -0.7842 -0.0068
10328SOL    HW231884   3.588   2.034   5.813  0.7353 -0.0189 -0.0111
10329SOL     OW31885   6.876   2.428   0.770 -0.8346 -0.0331 -1.0940
10329SOL    HW131886   6.876   2.524   0.745 -0.3339 -0.0275 -1.0822
10329SOL    HW231887   6.803   2.411   0.836 -0.7119  0.4051 -0.8416
10330SOL     OW31888   6.848   2.249   0.026 -0.0413  0.2132 -0.4720
10330SOL    HW131889   6.801   2.281   0.108  1.7514 -0.0956  0.7339
10330SOL    HW231890   6.922   2.312   0.003 -1.8409  1.5274 -3.2305
10331SOL     OW31891   0.027   2.018   5.513  0.1234 -0.5478 -0.4844
10331SOL    HW131892  -0.018   2.059   5.593  1.9694 -0.5405  0.6061
10331SOL    HW231893   0.028   1.919   5.523  1.2083 -0.4987  0.0061
10332SOL     OW31894   1.247   6.213   1.887 -0.4433  0.3276 -0.2880
10332SOL    HW131895   1.225   6.134   1.831 -0.5383  0.3364 -0.2622
10332SOL    HW231896   1.259   6.294   1.829  0.2232  0.1748 -0.3747
10333SOL     OW31897   5.054   4.177   3.871  0.2892 -0.1266 -0.0461
10333SOL    HW131898   5.069   4.273   3.846  1.4325 -0.1003  0.6384
10333SOL    HW231899   5.006   4.173   3.959 -0.2453 -0.1821 -0.3432
10334SOL     OW31900   6.427   2.759   4.277 -0.1542  0.2309 -0.3163
10334SOL    HW131901   6.360   2.827   4.245 -0.1570  0.5780  0.4090
10334SOL    HW231902   6.451   2.698   4.201 -2.5458 -0.9442 -0.2233
10335SOL     OW31903   1.340   4.602   6.138 -0.1097  0.3115 -0.0929
10335SOL    HW131904   1.341   4.702   6.131  0.2664  0.3056 -0.1606
10335SOL    HW231905   1.431   4.570   6.163  0.2653 -0.1466 -1.8861
10336SOL     OW31906   6.127   0.264   2.696 -0.3122 -0.0161 -0.1891
10336SOL    HW131907   6.053   0.279   2.761  0.6316  2.0481  0.5031
10336SOL    HW231908   6.215   0.272   2.744  0.3937  0.9624 -1.5896
10337SOL     OW31909   4.522   6.696   3.114 -0.2352  0.8084 -0.1750
10337SOL    HW131910   4.578   6.715   3.034 -0.9654  2.4903 -0.3328
10337SOL    HW231911   4.463   6.618   3.095  0.4992  0.3851 -0.7920
10338SOL     OW31912   5.245   5.672   1.124 -0.2644 -0.3778 -0.1382
10338SOL    HW131913   5.271   5.733   1.049 -0.4028 -0.8764 -0.5969
10338SOL    HW231914   5.167   5.711   1.173 -2.3641 -1.5853 -2.3079
10339SOL     OW31915   3.266   6.292   0.460 -0.4507 -0.6243  0.2383
10339SOL    HW131916   3.279   6.194   0.474 -0.2371 -0.4991  0.9853
10339SOL    HW231917   3.338   6.342   0.509 -1.7089 -0.0258  1.5456
10340SOL     OW31918   6.599   6.988   0.372  0.3238 -0.2756 -0.1928
10340SOL    HW131919   6.643   6.913   0.323  1.5777  0.3248 -0.0187
10340SOL    HW231920   6.611   7.073   0.321  0.8236  0.1934  0.6803
10341SOL     OW31921   3.664   4.509   6.078  0.5215  0.9347  0.3366
10341SOL    HW131922   3.705   4.464   5.999 -0.4112 -0.5344  0.6398
10341SOL    HW231923   3.597   4.576   6.047  1.3972  1.6117 -0.1244
10342SOL     OW31924   3.006   0.412   1.573  0.4337 -0.0323 -0.5572
10342SOL    HW131925   2.993   0.401   1.474  0.8066 -0.0403 -0.6052
10342SOL    HW231926   2.926   0.376   1.621  0.8428 -1.3046 -0.7998
10343SOL     OW31927   1.588   3.557   0.104  0.2945 -0.1719  0.3862
10343SOL    HW131928   1.588   3.483   0.036 -1.0648 -0.5813  0.8101
10343SOL    HW231929   1.659   3.623   0.080  1.3124 -1.4152 -0.2017
10344SOL     OW31930   1.906   3.857   5.093  0.4277  0.3095 -0.2179
10344SOL    HW131931   1.906   3.930   5.162  2.1431 -1.9133  2.3733
10344SOL    HW231932   2.000   3.839   5.064 -0.1561  0.3035 -2.2095
10345SOL     OW31933   5.932   0.924   1.203 -0.0768  0.4346 -0.1386
10345SOL    HW131934   5.857   0.990   1.205  0.7742  1.4042  0.9291
10345SOL    HW231935   6.017   0.971   1.178  0.1250 -0.7376 -1.8089
10346SOL     OW31936   2.330   4.297   3.313  0.4626  0.3232 -0.0715
10346SOL    HW131937   2.403   4.365   3.320  0.2745  0.4918  0.2854
10346SOL    HW231938   2.285   4.288   3.401  0.1866  0.0682 -0.2376
10347SOL     OW31939   0.228   6.613   1.296 -0.0897 -0.1056 -0.0966
10347SOL    HW131940   0.278   6.598   1.381 -0.2054 -2.0304 -0.3244
10347SOL    HW231941   0.229   6.529   1.241  1.2157  1.4655 -2.6842
10348SOL     OW31942   1.678   5.625   0.987  0.0192 -0.3766 -0.1825
10348SOL    HW131943   1.680   5.566   0.906  0.7898 -1.0634  0.3239
10348SOL    HW231944   1.584   5.658   1.001 -0.1767 -0.4598 -1.1945
10349SOL     OW31945   6.844   2.359   6.232  0.2110 -0.3297  0.1401
10349SOL    HW131946   6.814   2.408   6.150 -1.2485 -0.0605  0.7986
10349SOL    HW231947   6.788   2.277   6.244 -0.4005  0.2557  1.4860
10350SOL     OW31948   5.366   1.452   1.461  0.7657  0.2858  0.2682
10350SOL    HW131949   5.300   1.478   1.532  0.9192 -0.3356  0.6402
10350SOL    HW231950   5.452   1.500   1.477  0.3378  1.2881 -0.3587
10351SOL     OW31951   0.428   6.500   0.212  0.1888  0.1720  0.1739
10351SOL    HW131952   0.398   6.455   0.296  1.1223 -1.4619 -0.3216
10351SOL    HW231953   0.485   6.579   0.236  0.4670 -0.2852  1.0815
10352SOL     OW31954   1.566   1.316   3.267 -0.6380  0.2654 -0.1340
10352SOL    HW131955   1.564   1.217   3.251  0.2554  0.3501 -0.8427
10352SOL    HW231956   1.475   1.354   3.251 -1.2101 -0.5636  1.0285
10353SOL     OW31957   4.912   2.716   6.549 -0.0430 -0.2959  0.4126
10353SOL    HW131958   4.963   2.701   6.634  0.1165 -3.0725 -0.0852
10353SOL    HW231959   4.971   2.696   6.471 -0.6959  0.5337 -0.2982
10354SOL     OW31960   5.680   4.147   5.788 -0.5489 -0.0452 -0.0263
10354SOL    HW131961   5.694   4.123   5.693  1.5089 -0.3555  0.3157
10354SOL    HW231962   5.589   4.115   5.818 -0.6322 -1.2372 -1.4610
10355SOL     OW31963   1.410   4.579   6.536 -0.0583 -0.4745 -0.1107
10355SOL    HW131964   1.395   4.677   6.546 -0.3313 -0.4490 -0.7152
10355SOL    HW231965   1.354   4.544   6.461  0.4464 -0.9942 -0.2560
10356SOL     OW31966   6.980   4.393   1.574  0.1337 -0.6496 -0.1768
10356SOL    HW131967   7.057   4.390   1.638 -0.7265 -0.0836  0.9140
10356SOL    HW231968   6.985   4.477   1.520 -0.3044 -0.0516  0.6796
10357SOL     OW31969   5.237   1.639   0.303 -0.6653  0.3160 -0.4450
10357SOL    HW131970   5.250   1.732   0.338 -0.0820  0.1401 -0.1733
10357SOL    HW231971   5.184   1.642   0.218  0.4566  1.0190 -1.1517
10358SOL     OW31972   3.483   2.897   5.635  0.1584  0.4837 -0.0365
10358SOL    HW131973   3.403   2.854   5.677  0.2288  0.2636 -0.1314
10358SOL    HW231974   3.458   2.937   5.547  0.1217  0.5350 -0.0031
10359SOL     OW31975   3.202   0.452   4.714  0.2437 -0.0133  0.0423
10359SOL    HW131976   3.267   0.444   4.789 -1.5018  0.1314  1.6302
10359SOL    HW231977   3.242   0.509   4.642  1.2999  1.3671  1.6346
10360SOL     OW31978   0.667   7.003   4.708  0.0813  0.5260  0.0481
10360SOL    HW131979   0.690   7.077   4.771  0.2902  1.4751 -1.1044
10360SOL    HW231980   0.711   7.019   4.620 -1.6967  0.2286 -0.9492
10361SOL     OW31981   5.612   0.823   3.161 -0.5429  0.0716 -0.4544
10361SOL    HW131982   5.526   0.815   3.213 -0.6414  0.0814 -0.6166
10361SOL    HW231983   5.676   0.753   3.193 -0.7491 -0.1886 -0.6015
10362SOL     OW31984   3.963   2.133   4.074 -0.3000 -0.5268 -0.1116
10362SOL    HW131985   3.925   2.189   4.148  0.1167 -1.0547  0.5212
10362SOL    HW231986   4.062   2.144   4.072 -0.4768  1.3938 -2.2049
10363SOL     OW31987   0.955   4.587   4.461  0.2909 -0.2498 -0.1537
10363SOL    HW131988   1.000   4.499   4.474  1.3968  0.1459 -1.1082
10363SOL    HW231989   0.873   4.575   4.405 -1.3890 -1.1098  2.3139
10364SOL     OW31990   4.323   2.335   0.848  0.1325 -0.0771 -0.0589
10364SOL    HW131991   4.343   2.402   0.775 -2.2366 -1.7577 -2.4210
10364SOL    HW231992   4.360   2.246   0.822  1.6208 -0.2124  2.1911
10365SOL     OW31993   4.078   3.292   2.154  0.1745  0.5707  0.1687
10365SOL    HW131994   4.153   3.309   2.091  0.1134 -1.7997 -0.6317
10365SOL    HW231995   3.993   3.280   2.103 -0.2754  0.6895  0.8732
10366SOL     OW31996   2.066   2.684   2.470  0.0860  0.6773 -0.0563
10366SOL    HW131997   2.145   2.626   2.492  0.1851  0.0114 -1.9433
10366SOL    HW231998   2.020   2.712   2.555  1.3055 -0.3796  1.0004
10367SOL     OW31999   0.666   2.883   4.151  0.8328  0.5652  1.0939
10367SOL    HW132000   0.603   2.934   4.092  0.9681  1.3395  1.6051
10367SOL    HW232001   0.669   2.925   4.242  3.0231  1.3066  0.7281
10368SOL     OW32002   6.836   0.326   5.952  0.0626  0.5882 -0.2500
10368SOL    HW132003   6.850   0.251   6.017  1.1963  2.1719  1.4526
10368SOL    HW232004   6.924   0.363   5.925 -0.4820  1.5271 -0.7903
10369SOL     OW32005   6.399   4.795   3.997 -0.3717 -0.4522  0.5949
10369SOL    HW132006   6.375   4.888   4.029  0.2499 -0.4281  1.0025
10369SOL    HW232007   6.498   4.789   3.984 -0.5196 -0.7663 -0.4008
10370SOL     OW32008   3.797   5.636   2.556 -0.2975 -0.4469 -0.6183
10370SOL    HW132009   3.862   5.677   2.492 -0.2703  0.6908  0.1046
10370SOL    HW232010   3.796   5.690   2.640 -1.8361 -0.7221 -0.4438
10371SOL     OW32011   2.339   4.320   0.026  0.4986 -0.4561 -0.1097
10371SOL    HW132012   2.348   4.326   0.125 -1.3733  0.5639  0.0472
10371SOL    HW232013   2.262   4.261   0.002 -0.7011  1.3028 -0.8204
10372SOL     OW32014   6.435   0.801   5.340  0.8019 -0.1205 -0.0171
10372SOL    HW132015   6.416   0.762   5.250 -0.2447 -0.4341  0.3256
10372SOL    HW232016   6.477   0.891   5.329  0.0522  0.1415 -0.8296
10373SOL     OW32017   0.811   1.307   0.838 -0.2261  0.6091  0.0931
10373SOL    HW132018   0.751   1.243   0.886  1.2160 -0.4311  0.5684
10373SOL    HW232019   0.818   1.280   0.742 -0.6759  0.8729 -0.0198
10374SOL     OW32020   1.151   1.466   1.620 -0.5824  0.4197 -0.4707
10374SOL    HW132021   1.245   1.432   1.629 -0.6822  0.3130  0.1881
10374SOL    HW232022   1.141   1.549   1.674 -1.2328 -0.3056  0.5471
10375SOL     OW32023   5.398   2.578   4.714  0.4068  0.4767 -0.1766
10375SOL    HW132024   5.470   2.642   4.687  1.9338 -0.7299  0.8252
10375SOL    HW232025   5.432   2.520   4.789 -0.7876 -1.6795 -1.2222
10376SOL     OW32026   3.039   6.179   3.978 -0.4879  0.1381 -0.1609
10376SOL    HW132027   2.946   6.153   3.953 -0.6581  1.5352 -1.0753
10376SOL    HW232028   3.050   6.277   3.967  1.5929 -0.2015 -1.7453
10377SOL     OW32029   6.753   1.932   3.415 -0.2330 -0.2317 -0.4392
10377SOL    HW132030   6.759   1.878   3.499 -0.3602 -0.7311 -0.7436
10377SOL    HW232031   6.657   1.943   3.390 -0.1641 -1.2161 -1.2238
10378SOL     OW32032   6.789   6.023   4.034  0.4298  0.0188 -0.0448
10378SOL    HW132033   6.723   6.098   4.036  1.6828  1.1394  1.1021
10378SOL    HW232034   6.767   5.958   4.108  0.4611  0.2649  0.1838
10379SOL     OW32035   2.705   1.640   3.064  0.2738  0.2591 -0.0142
10379SOL    HW132036   2.723   1.728   3.021 -0.2740  0.2374 -0.2879
10379SOL    HW232037   2.789   1.585   3.063  1.2408  1.5678  2.0653
10380SOL     OW32038   6.762   1.195   3.484 -0.0227 -0.2308  0.0215
10380SOL    HW132039   6.757   1.125   3.556 -1.9590 -0.3706 -0.2047
10380SOL    HW232040   6.801   1.154   3.401 -1.4453 -1.1999 -0.2167
10381SOL     OW32041   5.851   4.320   0.086 -0.5840 -0.4222 -0.6920
10381SOL    HW132042   5.753   4.339   0.074 -0.2236  1.9043 -0.3396
10381SOL    HW232043   5.864   4.259   0.164 -1.6665  0.7155  0.4191
10382SOL     OW32044   6.682   6.918   1.059 -0.5040  0.3340  0.0377
10382SOL    HW132045   6.637   6.840   1.103 -2.8609  0.3794 -2.0506
10382SOL    HW232046   6.746   6.883   0.990  0.3870  0.2783  0.8744
10383SOL     OW32047   0.081   0.034   1.058  0.7703  0.0056 -0.1820
10383SOL    HW132048   0.091  -0.063   1.081  0.2285  0.2870  1.3195
10383SOL    HW232049   0.036   0.042   0.969 -0.0159 -1.1266  0.0870
10384SOL     OW32050   4.167   0.123   5.242 -0.2525  0.4047 -0.8097
10384SOL    HW132051   4.203   0.031   5.260  1.6638  1.2962  0.1442
10384SOL    HW232052   4.131   0.126   5.148 -0.0931 -1.2147 -0.9622
10385SOL     OW32053   0.900   0.727   1.304  0.3550  0.0417 -0.2214
10385SOL    HW132054   0.966   0.755   1.234 -1.1807  1.0277 -1.3500
10385SOL    HW232055   0.841   0.655   1.266  1.5173 -1.7658  1.2073
10386SOL     OW32056   0.449   2.533   1.106  0.1732  0.0410 -0.1228
10386SOL    HW132057   0.361   2.510   1.146  0.8293 -0.5306  1.0254
10386SOL    HW232058   0.503   2.586   1.172  0.3381  1.2034 -1.1561
10387SOL     OW32059   6.427   2.564   2.821 -0.3175  0.5051  0.1240
10387SOL    HW132060   6.375   2.478   2.826 -0.4982  0.5226 -1.0424
10387SOL    HW232061   6.430   2.594   2.726  2.6553  0.0053 -0.0189
10388SOL     OW32062   2.040   3.140   0.881  0.1723 -0.1924 -0.4036
10388SOL    HW132063   2.027   3.226   0.931  1.0202 -0.4057  0.1956
10388SOL    HW232064   2.121   3.093   0.916 -0.5465 -1.4705 -0.4073
10389SOL     OW32065   6.720   6.718   1.804  0.3700  0.5501 -0.3939
10389SOL    HW132066   6.682   6.631   1.772  0.5553  0.1343  0.4951
10389SOL    HW232067   6.812   6.730   1.768  1.1469 -0.5988  1.0849
10390SOL     OW32068   4.811   6.889   1.624  0.3299  0.0584  0.4509
10390SOL    HW132069   4.763   6.816   1.673  0.4792 -0.7983 -0.6556
10390SOL    HW232070   4.857   6.851   1.544  0.5923  1.3359 -0.0245
10391SOL     OW32071   6.561   0.976   3.144 -0.3392  0.1780 -0.2813
10391SOL    HW132072   6.609   0.994   3.058  1.1169  1.5879  0.7679
10391SOL    HW232073   6.594   1.039   3.214 -0.4821 -1.8044  1.6804
10392SOL     OW32074   4.253   4.817   5.195  0.0680 -0.0171 -0.2134
10392SOL    HW132075   4.236   4.735   5.141  0.2113  0.5583 -1.1613
10392SOL    HW232076   4.206   4.810   5.283  1.3168 -1.7599  0.3607
10393SOL     OW32077   6.917   3.151   3.159  0.0874  0.0269 -0.1266
10393SOL    HW132078   6.911   3.061   3.115  2.5104 -0.5685  0.6389
10393SOL    HW232079   6.952   3.218   3.093 -1.0678  0.2912 -0.4970
10394SOL     OW32080   3.928   5.593   1.314  0.0548 -0.0089 -0.7535
10394SOL    HW132081   3.994   5.526   1.349  0.2370 -0.2733 -1.5592
10394SOL    HW232082   3.849   5.544   1.275 -0.9711  0.3202  0.8351
10395SOL     OW32083   6.828   5.647   0.108  0.6150 -0.4519 -0.2541
10395SOL    HW132084   6.751   5.638   0.044  2.5590 -3.2154 -2.4267
10395SOL    HW232085   6.837   5.563   0.162  1.3276  0.3862  0.9911
10396SOL     OW32086   6.483   4.683   4.702  0.0328 -0.1286 -0.3124
10396SOL    HW132087   6.395   4.638   4.714  0.1480 -0.2559  0.0618
10396SOL    HW232088   6.469   4.774   4.663 -0.4256  0.6784  1.6547
10397SOL     OW32089   6.970   2.066   1.186  0.2205 -0.0126 -0.1756
10397SOL    HW132090   6.892   2.103   1.235  0.0993 -2.0786  1.3316
10397SOL    HW232091   7.054   2.108   1.219  0.2552 -2.1452  2.8106
10398SOL     OW32092   1.384   6.426   1.763 -0.1231  0.0629  0.3126
10398SOL    HW132093   1.351   6.492   1.695 -0.3767  0.4832  0.8367
10398SOL    HW232094   1.450   6.469   1.823  0.5391 -0.4703 -0.0171
10399SOL     OW32095   2.329   0.646   4.370 -0.3922  0.1527  0.1085
10399SOL    HW132096   2.336   0.548   4.386 -0.5369 -0.2595 -2.0127
10399SOL    HW232097   2.398   0.674   4.303  1.2524  2.0062  2.4095
10400SOL     OW32098   0.687   1.839   2.231  0.2144  0.2773 -0.6811
10400SOL    HW132099   0.779   1.833   2.194  0.1086 -0.1877 -0.8731
10400SOL    HW232100   0.655   1.934   2.226  0.3749  0.2981 -1.3551
10401SOL     OW32101   3.547   3.057   0.138 -0.2851 -0.1094  0.1957
10401SOL    HW132102   3.525   3.139   0.086  0.5052  0.2536  0.4200
10401SOL    HW232103   3.536   3.075   0.236  1.3597  0.2084  0.3378
10402SOL     OW32104   5.895   3.777   4.981 -0.0165  0.4461 -0.5574
10402SOL    HW132105   5.926   3.689   4.945 -2.8592 -0.6659 -0.5819
10402SOL    HW232106   5.891   3.844   4.906  0.6056  0.1171 -0.8848
10403SOL     OW32107   2.085   3.976   1.593  0.2301  0.5878 -0.9356
10403SOL    HW132108   2.027   3.909   1.639 -0.5295  2.6866  1.4358
10403SOL    HW232109   2.177   3.940   1.581 -0.1511 -0.8512  0.2667
10404SOL     OW32110   5.747   0.948   5.858 -0.0561 -0.5338  0.3010
10404SOL    HW132111   5.710   1.033   5.895 -1.5546 -0.3519 -1.4308
10404SOL    HW232112   5.759   0.882   5.931 -0.9872  0.4504  1.3849
10405SOL     OW32113   6.500   5.162   4.319 -0.0558  0.3790  0.0359
10405SOL    HW132114   6.547   5.076   4.301  1.3362  0.8964  1.0136
10405SOL    HW232115   6.490   5.213   4.234  1.7914  0.5458 -0.1172
10406SOL     OW32116   2.349   4.752   2.333 -0.0771  0.3341 -0.3150
10406SOL    HW132117   2.344   4.756   2.233 -1.5746  0.8810 -0.2368
10406SOL    HW232118   2.320   4.661   2.364 -1.3246  0.7178 -0.3083
10407SOL     OW32119   2.874   3.481   0.504 -0.2848 -0.2768  0.7518
10407SOL    HW132120   2.942   3.460   0.574 -0.1855 -1.9168  0.2115
10407SOL    HW232121   2.872   3.580   0.487  1.0994 -0.0754  1.6221
10408SOL     OW32122   5.934   5.273   2.272  0.4922 -0.1170 -0.2754
10408SOL    HW132123   5.836   5.288   2.286  0.1353 -0.1738 -2.3140
10408SOL    HW232124   5.981   5.273   2.360 -1.2708  0.3306  0.7180
10409SOL     OW32125   2.223   0.108   2.095 -0.3177  0.1007 -0.1330
10409SOL    HW132126   2.230   0.074   2.188  0.4880  0.1719 -0.1650
10409SOL    HW232127   2.276   0.192   2.085 -1.1705  0.6182 -0.4138
10410SOL     OW32128   5.032   4.114   3.288 -0.6727 -0.7415 -0.2175
10410SOL    HW132129   5.108   4.074   3.236 -1.0291 -0.0634 -1.3011
10410SOL    HW232130   4.969   4.159   3.225 -0.5367  1.1135  0.8848
10411SOL     OW32131   4.353   2.156   5.082 -0.4920  0.0796 -0.3006
10411SOL    HW132132   4.427   2.162   5.015  1.2951  1.1970  1.6167
10411SOL    HW232133   4.307   2.245   5.089 -0.0521  0.2609  0.5320
10412SOL     OW32134   0.931   3.044   6.585 -0.3527 -0.6282  0.0519
10412SOL    HW132135   0.924   3.121   6.520  0.9828 -0.6515 -0.1412
10412SOL    HW232136   1.006   2.984   6.557  0.3967 -0.5192  1.7416
10413SOL     OW32137   0.425   4.596   0.159 -0.0042 -0.0811  0.5636
10413SOL    HW132138   0.435   4.633   0.067  1.3237  0.1486  0.7894
10413SOL    HW232139   0.393   4.667   0.221  0.7070  0.2006  0.6108
10414SOL     OW32140   0.132   6.693   0.064  0.2471  0.4725 -0.5196
10414SOL    HW132141   0.108   6.773   0.007 -2.3455 -0.0884 -0.3420
10414SOL    HW232142   0.165   6.724   0.153  2.7545  1.3415 -1.6725
10415SOL     OW32143   0.938   4.890   6.461 -0.1662 -0.8819 -0.1186
10415SOL    HW132144   0.853   4.900   6.514  0.9765  3.0717  1.3333
10415SOL    HW232145   1.007   4.846   6.518 -0.6215 -2.1855 -0.5527
10416SOL     OW32146   5.746   3.123   2.767 -0.1938  0.2014 -0.3525
10416SOL    HW132147   5.803   3.052   2.809  0.7012  0.2041 -1.4919
10416SOL    HW232148   5.782   3.213   2.790 -0.9408  0.2859  0.5528
10417SOL     OW32149   4.933   4.455   2.113  0.3492 -0.6308  0.3785
10417SOL    HW132150   5.006   4.487   2.053 -0.1565  0.7368  0.4722
10417SOL    HW232151   4.865   4.404   2.058  1.1514 -1.5792  0.2327
10418SOL     OW32152   4.613   1.124   1.955 -0.1631 -0.3911 -0.1177
10418SOL    HW132153   4.544   1.054   1.936 -0.2067 -0.6288  0.8225
10418SOL    HW232154   4.667   1.142   1.873  1.4255 -3.2657  0.1708
10419SOL     OW32155   0.199   4.706   2.589 -0.1938  0.7492 -0.2519
10419SOL    HW132156   0.178   4.631   2.527  0.5143 -0.7739  1.2523
10419SOL    HW232157   0.244   4.670   2.671 -0.2126  2.7808  0.7261
10420SOL     OW32158   2.156   0.961   3.404  0.3610  0.1301  0.3210
10420SOL    HW132159   2.151   1.003   3.495 -1.3152  0.3797  0.1463
10420SOL    HW232160   2.069   0.916   3.383  2.1089 -3.6842  0.5500
10421SOL     OW32161   3.589   0.008   5.206  0.6910  0.6504  0.2378
10421SOL    HW132162   3.528   0.084   5.230 -0.3765 -0.3035  0.6341
10421SOL    HW232163   3.565  -0.073   5.260 -0.2967 -0.8996 -2.3375
10422SOL     OW32164   4.069   7.007   3.991  0.3742 -0.1794 -0.6573
10422SOL    HW132165   4.061   7.096   4.037 -1.4132  0.0947 -1.3910
10422SOL    HW232166   4.087   6.936   4.058  1.8337  0.7139 -0.0570
10423SOL     OW32167   1.207   6.300   3.476 -0.1615  0.1297 -0.1108
10423SOL    HW132168   1.225   6.267   3.383 -1.4357  3.7671 -1.8279
10423SOL    HW232169   1.277   6.368   3.501  0.1051 -0.7267  1.6111
10424SOL     OW32170   2.160   3.920   3.587  0.1081  0.0126  0.2829
10424SOL    HW132171   2.154   3.944   3.683  0.4566 -1.0973  0.6016
10424SOL    HW232172   2.120   3.830   3.572  0.7465 -0.1629 -0.4660
10425SOL     OW32173   4.386   2.436   4.123 -0.1950  0.7731 -0.3652
10425SOL    HW132174   4.393   2.536   4.117 -0.8466  0.8827  0.5437
10425SOL    HW232175   4.335   2.402   4.044 -0.2728  1.1882 -0.4985
10426SOL     OW32176   0.774   4.742   3.667 -0.3179 -0.0067 -0.5341
10426SOL    HW132177   0.864   4.765   3.631 -0.4932 -0.2048 -1.1170
10426SOL    HW232178   0.710   4.816   3.646 -1.2489 -1.5539 -3.7676
10427SOL     OW32179   1.181   1.058   6.135  0.1277 -0.0954 -0.1846
10427SOL    HW132180   1.270   1.042   6.092  1.8317  2.0062  2.2516
10427SOL    HW232181   1.144   1.144   6.101  0.5615  0.5943  1.0277
10428SOL     OW32182   2.093   6.564   3.353 -0.0542 -0.4259  0.3134
10428SOL    HW132183   2.178   6.593   3.308 -0.0038 -2.1351 -0.7804
10428SOL    HW232184   2.026   6.536   3.283 -0.9451 -0.6155  1.2185
10429SOL     OW32185   1.878   1.638   2.009 -0.0571 -0.0364 -0.5630
10429SOL    HW132186   1.859   1.727   2.051 -4.3780  1.2378 -4.3476
10429SOL    HW232187   1.964   1.644   1.957 -0.2142  1.9212 -0.6710
10430SOL     OW32188   4.219   6.311   6.713 -0.0789 -0.3186  0.1085
10430SOL    HW132189   4.252   6.384   6.773  0.5877 -1.4124  1.1195
10430SOL    HW232190   4.149   6.348   6.652  1.0313  1.4214 -0.1985
10431SOL     OW32191   3.446   6.303   2.368 -0.2497  0.1234  0.0207
10431SOL    HW132192   3.433   6.338   2.461  2.3751 -1.7410  1.2278
10431SOL    HW232193   3.400   6.214   2.359 -1.1574  0.6514 -0.7764
10432SOL     OW32194   2.975   5.132   3.977  0.1188 -0.8488 -0.1817
10432SOL    HW132195   2.875   5.132   3.972  0.1027 -1.6267  0.0655
10432SOL    HW232196   3.010   5.218   3.939 -0.7043  0.0689  1.0510
10433SOL     OW32197   1.713   3.841   1.055 -0.0203  0.0098 -0.2828
10433SOL    HW132198   1.738   3.938   1.056 -1.4099  0.4227  2.1220
10433SOL    HW232199   1.728   3.801   1.146 -1.7293 -1.4046 -0.5690
10434SOL     OW32200   0.178   2.955   6.224 -0.0156  0.3078  0.6070
10434SOL    HW132201   0.113   3.005   6.281 -1.1922  0.1958 -0.5899
10434SOL    HW232202   0.154   2.967   6.128  0.2085 -1.7856  0.2403
10435SOL     OW32203   5.468   0.476   4.676 -0.0183  0.1881 -0.2892
10435SOL    HW132204   5.407   0.499   4.600  0.1111 -3.2497 -1.6397
10435SOL    HW232205   5.554   0.528   4.667 -0.0709 -0.0004 -2.4569
10436SOL     OW32206   2.851   0.093   3.938 -0.4170 -0.1621  0.2064
10436SOL    HW132207   2.922   0.120   4.003 -0.3721 -0.2804  0.2063
10436SOL    HW232208   2.830  -0.004   3.950  1.5864 -0.9353 -1.8500
10437SOL     OW32209   3.375   2.052   3.265  0.4361  0.1442  0.2660
10437SOL    HW132210   3.471   2.079   3.263 -0.2966  2.9321 -1.8165
10437SOL    HW232211   3.353   2.001   3.182 -0.0909  0.1968  0.3732
10438SOL     OW32212   2.516   0.240   0.315  0.0844  0.2887  0.8437
10438SOL    HW132213   2.605   0.194   0.327 -0.8418 -1.4381  1.4369
10438SOL    HW232214   2.443   0.173   0.324 -1.3854  1.9739  2.0399
10439SOL     OW32215   6.167   6.551   6.874  0.3257 -0.0318 -0.0527
10439SOL    HW132216   6.158   6.650   6.865 -1.5455 -0.2282 -0.7031
10439SOL    HW232217   6.085   6.514   6.918 -1.5640 -1.8179 -4.4931
10440SOL     OW32218   2.469   5.132   1.572  0.6537  0.0017  0.0086
10440SOL    HW132219   2.373   5.129   1.600  0.5437  0.3972 -0.3072
10440SOL    HW232220   2.517   5.052   1.607  0.4882  0.3973  1.1944
10441SOL     OW32221   6.032   5.450   0.394 -0.1359  0.6469 -0.2410
10441SOL    HW132222   5.983   5.442   0.307 -0.3551 -1.7684  0.0333
10441SOL    HW232223   5.970   5.485   0.464 -0.3503  1.3135 -0.7569
10442SOL     OW32224   5.560   3.069   3.419  0.5862  0.5027 -0.0483
10442SOL    HW132225   5.482   3.007   3.410  0.8647  0.1325  0.0906
10442SOL    HW232226   5.563   3.106   3.512  0.2493  0.9603 -0.2118
10443SOL     OW32227   0.743   1.313   1.374  0.0328  0.3449 -0.3581
10443SOL    HW132228   0.727   1.317   1.472 -0.9425 -0.6231 -0.4522
10443SOL    HW232229   0.686   1.380   1.327  0.8541  1.1405 -0.2411
10444SOL     OW32230   6.346   5.653   3.563  0.6046  0.5197  0.0003
10444SOL    HW132231   6.373   5.624   3.655 -0.4953  0.6334  0.3711
10444SOL    HW232232   6.419   5.631   3.498  1.5660  0.7917  0.9586
10445SOL     OW32233   1.043   6.985   4.480 -0.2396 -0.2267 -0.3749
10445SOL    HW132234   1.061   6.945   4.390  0.5166 -1.5397  0.3336
10445SOL    HW232235   1.059   6.917   4.551  0.8696  1.2766  0.8877
10446SOL     OW32236   3.656   0.117   1.183  0.2665  0.0261  0.0532
10446SOL    HW132237   3.707   0.201   1.165  0.3566 -0.2873 -1.2201
10446SOL    HW232238   3.567   0.121   1.136 -0.7166  0.3580  1.8421
10447SOL     OW32239   1.301   3.570   5.354 -0.1397 -0.6282  0.9085
10447SOL    HW132240   1.269   3.479   5.381 -1.0997  0.1952  2.6998
10447SOL    HW232241   1.312   3.627   5.435  4.0440 -0.1756  0.2456
10448SOL     OW32242   3.991   6.741   0.373 -0.3601  0.0570  0.2191
10448SOL    HW132243   3.959   6.686   0.451  0.1387  1.0647  1.1616
10448SOL    HW232244   4.058   6.808   0.405  0.1154  0.2640 -1.1511
10449SOL     OW32245   1.796   0.165   4.411  0.7207 -0.0182  0.2917
10449SOL    HW132246   1.844   0.192   4.329  1.6164 -1.0523  0.4448
10449SOL    HW232247   1.758   0.073   4.399 -1.3010  0.7684  0.1573
10450SOL     OW32248   2.163   2.722   3.233  0.0546  0.1323 -0.2767
10450SOL    HW132249   2.104   2.693   3.308  0.8148  0.8342  0.6229
10450SOL    HW232250   2.154   2.821   3.220  1.7438  0.4252  0.5441
10451SOL     OW32251   2.212   6.355   2.998  0.0664  0.0446 -0.0146
10451SOL    HW132252   2.274   6.421   3.040 -0.4436  0.1690  0.5490
10451SOL    HW232253   2.150   6.318   3.067  0.2201 -0.8876 -0.3552
10452SOL     OW32254   4.502   1.611   1.118  0.2051  0.3046 -0.2206
10452SOL    HW132255   4.416   1.613   1.169  0.3327  0.1698  0.0033
10452SOL    HW232256   4.516   1.519   1.081  0.8416  0.0021  0.7621
10453SOL     OW32257   5.591   4.793   1.246 -0.0893 -0.5543 -0.7100
10453SOL    HW132258   5.571   4.760   1.339  0.9330  0.5118 -0.0857
10453SOL    HW232259   5.518   4.853   1.215  0.5133  0.7139  0.2437
10454SOL     OW32260   5.090   4.750   0.195 -0.1091 -0.2706 -0.0811
10454SOL    HW132261   5.106   4.657   0.161  0.4261  0.1862 -1.1283
10454SOL    HW232262   4.992   4.767   0.201 -0.2108 -0.6245 -0.6882
10455SOL     OW32263   3.925   5.362   4.097  0.1060 -0.3983 -0.2328
10455SOL    HW132264   3.957   5.305   4.022 -1.0679  0.2312 -1.2456
10455SOL    HW232265   3.826   5.373   4.091  0.4428  3.8936 -1.7470
10456SOL     OW32266   6.097   6.978   4.271 -0.0340  0.2222  0.3057
10456SOL    HW132267   6.019   6.920   4.293 -0.9201  0.9274 -0.8620
10456SOL    HW232268   6.166   6.970   4.343 -0.9660 -0.7737  1.1212
10457SOL     OW32269   6.120   4.725   0.935 -0.1512  0.1990  0.1919
10457SOL    HW132270   6.146   4.754   0.843 -0.4640  1.1204  0.3805
10457SOL    HW232271   6.024   4.694   0.934  0.1361 -0.7233  0.0225
10458SOL     OW32272   3.344   2.540   6.740  0.8079  0.3134 -0.0556
10458SOL    HW132273   3.380   2.555   6.832  2.7063  0.8189 -0.8257
10458SOL    HW232274   3.328   2.628   6.696  0.7479  0.0774 -0.5092
10459SOL     OW32275   3.232   0.898   2.044 -0.4019 -0.0864  0.2759
10459SOL    HW132276   3.278   0.810   2.061 -0.5440 -0.0899  0.6752
10459SOL    HW232277   3.301   0.968   2.025 -0.3244 -0.4227 -0.7156
10460SOL     OW32278   2.020   1.018   3.825 -0.2054 -0.5711 -0.1014
10460SOL    HW132279   2.103   0.998   3.772  0.3077 -0.1633  0.5420
10460SOL    HW232280   1.955   1.067   3.767 -0.5512 -2.0160 -1.0154
10461SOL     OW32281   2.319   4.585   1.148  0.5371 -0.3443 -0.0404
10461SOL    HW132282   2.264   4.586   1.232  0.8818 -4.9619  0.5225
10461SOL    HW232283   2.415   4.595   1.172  0.6667 -2.0038  0.2585
10462SOL     OW32284   3.834   3.001   4.055 -0.0859 -0.3889  0.8053
10462SOL    HW132285   3.752   3.006   4.113 -0.7662  1.4457 -0.2244
10462SOL    HW232286   3.913   2.978   4.112 -1.1951 -1.6671  1.9223
10463SOL     OW32287   6.976   4.802   1.478  0.3352  0.4113 -0.2425
10463SOL    HW132288   7.058   4.794   1.536 -0.9912  3.1398  2.3165
10463SOL    HW232289   6.894   4.799   1.536 -1.4466 -1.5842 -2.6443
10464SOL     OW32290   0.170   4.483   5.224 -0.2191 -0.0063 -0.2910
10464SOL    HW132291   0.242   4.486   5.293 -1.5025  0.0928  1.0984
10464SOL    HW232292   0.193   4.415   5.155 -0.0117 -1.8732  1.5312
10465SOL     OW32293   6.664   6.987   2.034  0.6726  0.8697  0.4639
10465SOL    HW132294   6.754   6.990   1.992 -0.0290  1.3847 -1.1004
10465SOL    HW232295   6.595   6.968   1.964 -0.4176  0.1587  1.6728
10466SOL     OW32296   6.907   6.774   4.519 -0.3309  0.1952  0.1547
10466SOL    HW132297   6.963   6.834   4.577 -0.4808  0.7877 -0.3013
10466SOL    HW232298   6.916   6.680   4.550  2.7941 -0.1156 -1.3088
10467SOL     OW32299   6.466   1.654   6.510 -0.7978 -0.6676 -0.4085
10467SOL    HW132300   6.444   1.739   6.558  0.5048 -0.5795  0.0910
10467SOL    HW232301   6.520   1.675   6.428 -0.5299 -0.9987 -0.3197
10468SOL     OW32302   2.598   5.217   3.527 -0.7719 -0.0136  0.0200
10468SOL    HW132303   2.661   5.280   3.571 -0.1129 -0.4386 -0.3077
10468SOL    HW232304   2.648   5.138   3.493 -1.5724 -0.6490  0.2984
10469SOL     OW32305   6.874   6.255   0.888  0.3697  0.0347 -0.0489
10469SOL    HW132306   6.877   6.238   0.987  0.8155  1.8244  0.2793
10469SOL    HW232307   6.966   6.274   0.854 -0.0897  2.3645 -0.1898
10470SOL     OW32308   3.790   5.850   0.363 -0.2203  0.1328 -0.0813
10470SOL    HW132309   3.694   5.848   0.334  0.1869 -0.6816 -1.4804
10470SOL    HW232310   3.838   5.923   0.314  0.0701 -0.0440 -0.0625
10471SOL     OW32311   3.308   5.253   1.368  0.1306  0.3804  0.7765
10471SOL    HW132312   3.231   5.315   1.349  1.1565  1.6408  0.5296
10471SOL    HW232313   3.381   5.271   1.302  0.6659 -0.7527  1.0415
10472SOL     OW32314   3.446   6.844   0.475 -0.2905  0.1686  0.4016
10472SOL    HW132315   3.477   6.766   0.420 -0.0287  0.6219 -0.0947
10472SOL    HW232316   3.471   6.828   0.570 -0.2483 -0.3615  0.3086
10473SOL     OW32317   3.254   4.687   6.297  0.0805  0.3014 -0.2088
10473SOL    HW132318   3.342   4.672   6.251  0.8947 -0.8492  1.5785
10473SOL    HW232319   3.179   4.663   6.235  0.9334  2.3232 -2.1458
10474SOL     OW32320   1.589   6.921   6.119 -0.0206  0.1878 -0.4220
10474SOL    HW132321   1.640   6.873   6.047 -0.8757  0.4009 -1.1898
10474SOL    HW232322   1.492   6.900   6.111 -0.4637  2.2017 -0.9305
10475SOL     OW32323   2.800   6.349   0.174 -0.2986 -0.5402  0.5660
10475SOL    HW132324   2.721   6.288   0.170  0.0058 -0.8909 -0.0056
10475SOL    HW232325   2.836   6.364   0.082  1.2934 -1.6733  0.9622
10476SOL     OW32326   4.463   4.421   6.452  0.0406  0.2651 -0.4087
10476SOL    HW132327   4.550   4.373   6.440  0.2997  1.2394 -2.7912
10476SOL    HW232328   4.479   4.507   6.500 -0.1611 -1.0411  2.1737
10477SOL     OW32329   1.263   2.217   6.670 -0.3248 -0.4716  0.2712
10477SOL    HW132330   1.286   2.156   6.747  2.6836 -1.2168 -1.0533
10477SOL    HW232331   1.338   2.282   6.656 -1.2876  0.3466 -1.3957
10478SOL     OW32332   4.795   2.061   1.365  0.0128 -0.1161  0.4612
10478SOL    HW132333   4.826   2.020   1.451 -1.3535  0.6295  1.3450
10478SOL    HW232334   4.847   2.021   1.289  1.5936 -0.4343  1.6503
10479SOL     OW32335   3.241   5.586   3.627  0.2890 -0.3362  0.3652
10479SOL    HW132336   3.267   5.644   3.550  0.7814  1.2242  1.6283
10479SOL    HW232337   3.150   5.614   3.660 -0.7326 -2.2098 -0.7386
10480SOL     OW32338   2.102   5.046   6.187 -0.5702  0.3948 -0.5099
10480SOL    HW132339   2.014   5.061   6.232 -0.0953  1.2329  0.1821
10480SOL    HW232340   2.134   4.954   6.206 -0.3615  0.7349  0.9603
10481SOL     OW32341   4.947   1.107   0.497 -0.1526  0.1042 -0.0779
10481SOL    HW132342   4.981   1.071   0.584 -0.4706 -2.8295 -1.0498
10481SOL    HW232343   5.016   1.166   0.456  1.9325 -2.0591  0.1162
10482SOL     OW32344   0.214   6.777   1.094  0.1539 -0.2966 -0.4415
10482SOL    HW132345   0.300   6.826   1.103 -0.1372 -0.0358  1.2123
10482SOL    HW232346   0.192   6.730   1.180 -1.1430 -0.7019 -0.9580
10483SOL     OW32347   6.311   5.955   3.401  0.1111 -0.1954 -0.0185
10483SOL    HW132348   6.361   5.910   3.328  2.1193 -0.4473  1.4210
10483SOL    HW232349   6.376   5.996   3.465 -1.6093  1.7358  0.5837
10484SOL     OW32350   7.002   4.197   1.370 -0.8652 -0.2744 -0.2105
10484SOL    HW132351   7.005   4.287   1.413 -1.0651  1.0249 -2.7303
10484SOL    HW232352   7.020   4.206   1.272 -1.3725 -2.9477 -0.6375
10485SOL     OW32353   4.114   5.780   6.459 -0.7078  0.4326  0.4549
10485SOL    HW132354   4.178   5.719   6.413 -0.6378  0.4257  0.5618
10485SOL    HW232355   4.129   5.874   6.427 -0.2077  0.5236  0.9632
10486SOL     OW32356   4.210   2.654   0.367 -0.4325 -0.8390 -0.0559
10486SOL    HW132357   4.286   2.637   0.305 -0.9800 -0.7285 -0.7686
10486SOL    HW232358   4.123   2.637   0.319 -0.9461  1.4975 -0.0571
10487SOL     OW32359   0.638   6.008   3.614 -0.2619 -0.6635  0.7002
10487SOL    HW132360   0.589   6.089   3.644 -1.2363 -0.7779 -0.5370
10487SOL    HW232361   0.643   5.942   3.690  1.8794  1.0856  2.2261
10488SOL     OW32362   1.601   4.682   1.723 -0.2473  0.1480 -0.7005
10488SOL    HW132363   1.609   4.637   1.812  0.0254 -0.0901 -0.8439
10488SOL    HW232364   1.519   4.650   1.676 -1.0549  1.1586 -0.0398
10489SOL     OW32365   4.293   1.205   1.080 -0.5514 -0.1599 -0.4370
10489SOL    HW132366   4.235   1.269   1.130 -1.4073 -0.9819 -0.3375
10489SOL    HW232367   4.370   1.254   1.040  0.4615  0.4655  2.0837
10490SOL     OW32368   5.420   0.573   3.055 -0.2609 -0.2321 -0.5109
10490SOL    HW132369   5.468   0.626   3.125 -2.1055 -0.6285  1.1648
10490SOL    HW232370   5.472   0.575   2.970  2.6738 -0.6154  1.1141
10491SOL     OW32371   4.318   1.001   4.632  0.1638  0.5020 -0.6262
10491SOL    HW132372   4.244   1.041   4.686 -0.2308  1.3308 -1.7490
10491SOL    HW232373   4.401   0.997   4.687 -0.5292  0.1751  0.4364
10492SOL     OW32374   5.370   1.116   4.881 -0.8383 -0.0706  0.3117
10492SOL    HW132375   5.439   1.135   4.951  0.1178 -2.1129  0.0194
10492SOL    HW232376   5.405   1.046   4.818 -3.1524 -1.1296  0.1024
10493SOL     OW32377   2.519   3.454   6.454  0.6605  0.8628 -0.4273
10493SOL    HW132378   2.420   3.446   6.445  0.7573 -3.0863  0.0206
10493SOL    HW232379   2.544   3.449   6.551  1.3456  1.3153 -0.5742
10494SOL     OW32380   6.562   6.450   5.764  0.2863  0.1264 -0.2318
10494SOL    HW132381   6.660   6.429   5.769 -0.0302 -1.2107  1.0964
10494SOL    HW232382   6.512   6.370   5.730 -0.2933  1.1004 -1.8118
10495SOL     OW32383   1.368   2.973   4.478 -0.3482  0.4263  0.2386
10495SOL    HW132384   1.465   2.983   4.502  0.0456 -2.0895 -0.0421
10495SOL    HW232385   1.353   3.008   4.386  0.3579  0.5637  0.1669
10496SOL     OW32386   3.459   2.340   0.567 -0.2745  0.0764 -0.3880
10496SOL    HW132387   3.459   2.418   0.503  0.6189  0.7231  0.3742
10496SOL    HW232388   3.551   2.301   0.572 -1.1354 -2.5056 -2.4570
10497SOL     OW32389   3.819   0.843   0.483  0.4340  0.2002  0.4888
10497SOL    HW132390   3.848   0.926   0.529 -0.9721  1.1779 -0.3100
10497SOL    HW232391   3.822   0.857   0.384 -2.2251  0.2361  0.3487
10498SOL     OW32392   1.994   4.710   0.950 -0.1441 -0.4527 -0.4774
10498SOL    HW132393   2.094   4.719   0.941  0.0000 -2.0452 -0.8913
10498SOL    HW232394   1.973   4.660   1.034 -0.6815  0.9846  0.2598
10499SOL     OW32395   3.369   4.664   0.772 -0.3668 -0.8660 -0.2067
10499SOL    HW132396   3.406   4.594   0.711 -0.1953  0.7708 -2.0597
10499SOL    HW232397   3.312   4.620   0.842  0.4397 -2.9068 -0.7466
10500SOL     OW32398   1.900   5.750   1.208 -0.4090 -0.1681  0.2776
10500SOL    HW132399   1.935   5.742   1.115 -1.2759 -0.5379 -0.0240
10500SOL    HW232400   1.976   5.763   1.271  0.0910  2.1757 -0.6989
10501SOL     OW32401   4.645   2.661   0.957  0.0159  0.2028  0.1983
10501SOL    HW132402   4.626   2.576   1.006  0.8316 -1.2027 -1.7903
10501SOL    HW232403   4.701   2.641   0.876  1.2681  2.8024  0.3193
10502SOL     OW32404   3.534   6.378   0.479 -1.0318  0.6893 -0.7458
10502SOL    HW132405   3.560   6.473   0.461  1.9259  0.4352  1.3616
10502SOL    HW232406   3.567   6.320   0.405  0.1151  0.9980 -0.5118
10503SOL     OW32407   2.528   3.527   1.051 -0.1155  0.0405 -0.0532
10503SOL    HW132408   2.457   3.500   1.117 -2.2888 -0.5353 -2.4728
10503SOL    HW232409   2.570   3.612   1.080  1.0586 -1.5466  3.4975
10504SOL     OW32410   5.608   2.582   2.964 -0.0330 -0.6198  0.2609
10504SOL    HW132411   5.602   2.560   3.062  1.0246 -0.5621  0.3518
10504SOL    HW232412   5.532   2.641   2.939  1.0454  1.5064  1.6560
10505SOL     OW32413   6.053   4.021   2.296  0.2596 -0.8236 -0.1744
10505SOL    HW132414   5.967   4.010   2.345 -0.0604 -1.4922 -0.8581
10505SOL    HW232415   6.039   4.000   2.199  1.0944 -0.4926 -0.3781
10506SOL     OW32416   0.563   3.462   1.663  0.2362 -0.1018  0.4989
10506SOL    HW132417   0.465   3.459   1.684 -0.0970  1.1186 -0.6980
10506SOL    HW232418   0.598   3.369   1.653 -0.8908 -0.5473  0.5682
10507SOL     OW32419   3.079   6.664   5.339 -0.4485 -0.3240 -0.2549
10507SOL    HW132420   3.072   6.757   5.375  0.2427  0.4272 -1.9617
10507SOL    HW232421   3.146   6.613   5.392 -0.2777  0.3860  0.2226
10508SOL     OW32422   1.455   0.926   6.596  0.4281 -0.3138  0.9901
10508SOL    HW132423   1.525   0.857   6.577 -0.0699 -0.6017  0.1529
10508SOL    HW232424   1.395   0.935   6.517  1.2001  1.9352  0.5871
10509SOL     OW32425   1.222   1.820   4.687 -0.1397  0.2618  0.0027
10509SOL    HW132426   1.184   1.827   4.594 -1.7139  1.3013  0.6741
10509SOL    HW232427   1.195   1.901   4.740  1.2217 -0.0339  1.2114
10510SOL     OW32428   5.101   3.056   2.231  0.1727 -0.0813  0.5245
10510SOL    HW132429   5.149   2.993   2.292  0.7671  1.5677  1.8571
10510SOL    HW232430   5.135   3.046   2.138 -0.5580 -2.4768  0.4566
10511SOL     OW32431   0.897   4.668   1.442 -0.1068  0.2396 -0.0614
10511SOL    HW132432   0.875   4.608   1.519 -0.8663 -1.8942 -1.8283
10511SOL    HW232433   0.988   4.644   1.406 -0.1341  0.6016 -0.3825
10512SOL     OW32434   5.119   1.937   3.793 -0.2491 -0.0141  0.4519
10512SOL    HW132435   5.087   1.996   3.867  1.7374  1.5410  0.1343
10512SOL    HW232436   5.211   1.964   3.765 -0.7930 -0.7470 -2.3941
10513SOL     OW32437   2.255   4.609   0.687 -0.2107  0.0342 -0.2185
10513SOL    HW132438   2.334   4.606   0.626  1.1021 -1.7283  1.4294
10513SOL    HW232439   2.185   4.547   0.652  0.6869 -1.2678  0.1874
10514SOL     OW32440   4.782   0.238   4.357 -0.2449  0.2595  0.1959
10514SOL    HW132441   4.815   0.302   4.288  1.6238 -0.3925  0.4096
10514SOL    HW232442   4.717   0.175   4.316 -0.2591  0.7931 -0.6140
10515SOL     OW32443   0.333   4.469   6.836  0.1228 -0.3654  0.0701
10515SOL    HW132444   0.387   4.551   6.853  0.5442 -0.5375 -0.4387
10515SOL    HW232445   0.293   4.473   6.745 -1.3235  0.0950  0.6946
10516SOL     OW32446   0.107   0.824   0.926 -0.0402  0.0737 -0.0958
10516SOL    HW132447   0.098   0.883   0.846  1.2986  0.2087 -0.1831
10516SOL    HW232448   0.194   0.773   0.919 -0.6647 -1.1175  0.4876
10517SOL     OW32449   3.571   1.329   4.005  0.2987 -0.2525  0.2618
10517SOL    HW132450   3.582   1.356   3.909  0.0662  0.8092  0.5233
10517SOL    HW232451   3.517   1.245   4.009  1.8591 -1.3437 -0.6157
10518SOL     OW32452   6.674   0.227   1.691  0.3980  0.3629 -0.1011
10518SOL    HW132453   6.727   0.279   1.624 -0.4144 -0.3440 -1.3439
10518SOL    HW232454   6.609   0.168   1.643 -1.7359  1.4006  1.3501
10519SOL     OW32455   6.998   3.648   0.537 -0.4373  0.6321  0.3534
10519SOL    HW132456   6.914   3.679   0.493 -0.1830 -0.1666 -0.7341
10519SOL    HW232457   7.075   3.701   0.502 -0.3320  0.5455  0.4532
10520SOL     OW32458   4.314   6.972   5.735  0.2556  0.0538 -0.3112
10520SOL    HW132459   4.243   6.953   5.667  0.0067 -0.2327  0.0202
10520SOL    HW232460   4.393   6.914   5.718 -0.2372 -0.8184  0.2933
10521SOL     OW32461   2.090   1.934   2.375 -0.6348 -0.1616 -0.5255
10521SOL    HW132462   2.162   1.866   2.386 -0.0149  0.5229 -0.2608
10521SOL    HW232463   2.131   2.025   2.371 -1.4612  0.2069 -0.7274
10522SOL     OW32464   1.276   2.702   4.465  0.2655  0.1090  0.1232
10522SOL    HW132465   1.365   2.657   4.460  0.5659  0.7089 -0.0275
10522SOL    HW232466   1.289   2.801   4.474 -0.3851  0.2554 -0.4220
10523SOL     OW32467   0.812   5.802   2.975  0.5069 -0.0801  0.3940
10523SOL    HW132468   0.770   5.711   2.974  1.3000 -0.4491 -1.0438
10523SOL    HW232469   0.798   5.844   3.066 -0.9205 -1.1177  0.6952
10524SOL     OW32470   1.894   2.357   0.593 -0.2842  0.5449 -0.0989
10524SOL    HW132471   1.908   2.273   0.541  0.6052  0.2811  0.5349
10524SOL    HW232472   1.870   2.431   0.530  2.4652  0.6414 -1.2015
10525SOL     OW32473   5.185   4.164   6.819 -0.5448 -0.6598  0.1859
10525SOL    HW132474   5.105   4.167   6.878 -1.2688 -2.1136 -0.6710
10525SOL    HW232475   5.220   4.070   6.814  0.5824 -0.2381 -0.2767
10526SOL     OW32476   1.744   4.666   0.179 -0.8531 -0.1373 -0.8972
10526SOL    HW132477   1.652   4.647   0.144 -0.5329 -0.2325 -1.7091
10526SOL    HW232478   1.746   4.647   0.278 -1.6013 -0.4966 -0.9371
10527SOL     OW32479   3.365   4.966   4.423  0.1182 -0.4303  0.0406
10527SOL    HW132480   3.340   5.062   4.408 -0.0913 -0.4847  0.0253
10527SOL    HW232481   3.283   4.909   4.415 -0.6977 -0.1790  4.1930
10528SOL     OW32482   3.691   5.196   0.173 -0.6786  0.2276 -0.2950
10528SOL    HW132483   3.778   5.160   0.205 -0.3178  0.4069 -1.0384
10528SOL    HW232484   3.617   5.167   0.234 -0.4763 -2.1027 -1.0803
10529SOL     OW32485   4.721   4.337   5.759 -0.6215  0.3622 -0.3331
10529SOL    HW132486   4.709   4.436   5.760 -1.5302  0.2820 -1.3839
10529SOL    HW232487   4.635   4.293   5.783 -0.0602 -0.1825  0.7431
10530SOL     OW32488   3.412   0.390   5.480 -0.2857 -0.4324  0.3300
10530SOL    HW132489   3.491   0.361   5.424 -0.6232 -1.3226  0.2976
10530SOL    HW232490   3.411   0.489   5.486 -0.4767 -0.2766 -1.6286
10531SOL     OW32491   5.273   5.588   4.044  0.1110  0.2000  0.5095
10531SOL    HW132492   5.319   5.501   4.029 -0.2216 -0.2118  1.8377
10531SOL    HW232493   5.256   5.602   4.141 -0.3978  1.4687  0.2666
10532SOL     OW32494   3.988   3.066   3.362  0.4758 -0.1314 -0.4525
10532SOL    HW132495   3.953   2.998   3.426  0.9523  1.5202  1.6911
10532SOL    HW232496   3.934   3.064   3.278 -1.1594 -1.3889  0.5798
10533SOL     OW32497   0.721   2.488   5.452 -0.5866 -0.3016  0.0598
10533SOL    HW132498   0.704   2.537   5.366  0.2934 -1.7147 -0.9673
10533SOL    HW232499   0.726   2.390   5.434 -1.2629 -0.7211  1.8936
10534SOL     OW32500   5.725   2.910   5.781  0.0404 -0.0398 -0.1924
10534SOL    HW132501   5.639   2.957   5.803  0.3505  0.5207 -0.1656
10534SOL    HW232502   5.791   2.925   5.855  0.5867  0.5990 -0.8041
10535SOL     OW32503   0.333   4.543   3.473  0.0353  0.6320  0.3969
10535SOL    HW132504   0.396   4.612   3.436 -1.2468  2.0011  0.6590
10535SOL    HW232505   0.240   4.563   3.442 -0.7235  0.4099  2.3915
10536SOL     OW32506   6.717   0.628   2.323 -0.4686  0.5054 -0.4481
10536SOL    HW132507   6.720   0.684   2.406  1.2355 -1.8443  1.2184
10536SOL    HW232508   6.772   0.672   2.251 -1.6370  2.3759 -0.2522
10537SOL     OW32509   0.609   0.238   5.421  0.1243 -0.2168  0.0604
10537SOL    HW132510   0.673   0.227   5.497  2.9245 -1.2487 -2.2693
10537SOL    HW232511   0.644   0.308   5.359 -1.5339 -0.1647 -0.8659
10538SOL     OW32512   1.424   5.256   3.564  0.4510 -0.1892  0.0049
10538SOL    HW132513   1.419   5.335   3.504  0.7706 -1.6096 -2.0204
10538SOL    HW232514   1.389   5.175   3.516  0.2646 -1.3306  1.9294
10539SOL     OW32515   4.498   1.105   1.515  0.2402  0.4891  0.0745
10539SOL    HW132516   4.585   1.071   1.551  0.5962  0.1844 -1.0427
10539SOL    HW232517   4.512   1.193   1.471 -0.1553  0.7663  0.4895
10540SOL     OW32518   3.747   3.156   1.747  0.4452 -0.4626  0.4378
10540SOL    HW132519   3.750   3.232   1.811  0.8677  0.6659 -0.8747
10540SOL    HW232520   3.765   3.070   1.795  0.2777  0.2933  1.8829
10541SOL     OW32521   0.601   5.810   6.087 -0.4030 -0.2836  0.5304
10541SOL    HW132522   0.586   5.888   6.148  1.9601 -0.4269  1.3888
10541SOL    HW232523   0.584   5.725   6.137 -4.8308 -0.4673 -0.9087
10542SOL     OW32524   4.688   1.920   2.218 -0.6122 -0.1177 -0.1481
10542SOL    HW132525   4.711   1.965   2.305 -5.2700  0.8759  0.8438
10542SOL    HW232526   4.618   1.851   2.234  1.7085 -3.3988 -2.6421
10543SOL     OW32527   5.373   4.859   6.458 -0.1131 -0.3243 -0.0048
10543SOL    HW132528   5.384   4.845   6.556 -1.3112 -2.4763 -0.1240
10543SOL    HW232529   5.324   4.944   6.441 -1.2735 -0.7054  1.3484
10544SOL     OW32530   1.032   0.737   0.590 -0.1590 -0.0931  0.2327
10544SOL    HW132531   1.072   0.721   0.681  0.2100 -1.0840 -0.0997
10544SOL    HW232532   1.102   0.773   0.529  0.6269 -2.9347 -0.6839
10545SOL     OW32533   3.795   2.845   1.810 -0.0483  0.5301  0.0635
10545SOL    HW132534   3.733   2.806   1.741  0.3145  0.9338 -0.5032
10545SOL    HW232535   3.885   2.804   1.800 -0.2705 -0.2326  1.0460
10546SOL     OW32536   5.776   1.404   5.710 -0.1113  0.7656 -0.0585
10546SOL    HW132537   5.695   1.417   5.767  0.0703 -0.4123  0.4999
10546SOL    HW232538   5.855   1.384   5.767 -0.2491 -2.0864 -0.7103
10547SOL     OW32539   1.844   4.065   1.030  0.3764  0.0132  0.1038
10547SOL    HW132540   1.809   4.093   0.941 -2.2787 -1.4688  0.5895
10547SOL    HW232541   1.878   4.146   1.079  1.1411  0.9578 -1.8867
10548SOL     OW32542   3.184   2.343   6.527 -0.0306 -0.0328 -0.0805
10548SOL    HW132543   3.227   2.334   6.617  0.5630 -0.1545 -0.3709
10548SOL    HW232544   3.088   2.318   6.533 -0.0120  0.0408  0.5401
10549SOL     OW32545   5.840   2.161   0.464  0.2032 -0.3510 -0.2135
10549SOL    HW132546   5.896   2.241   0.485 -1.7426  0.8706  0.6539
10549SOL    HW232547   5.897   2.079   0.462  1.8289  0.6754  1.6005
10550SOL     OW32548   4.494   1.091   4.413  0.1365  0.0342  0.2277
10550SOL    HW132549   4.535   1.001   4.427 -0.1047 -0.2125 -0.5805
10550SOL    HW232550   4.413   1.100   4.471  0.4212 -0.0908  0.6472
10551SOL     OW32551   3.817   0.406   6.942 -0.2220  0.1730 -0.0618
10551SOL    HW132552   3.719   0.426   6.943 -0.3920 -0.6451 -0.0762
10551SOL    HW232553   3.857   0.437   7.029 -0.0604  2.4828 -0.8842
10552SOL     OW32554   0.731   4.210   3.226 -0.3816  0.1690 -0.4408
10552SOL    HW132555   0.790   4.289   3.237 -1.0141  0.8266 -1.5777
10552SOL    HW232556   0.756   4.161   3.143 -0.6983 -0.1993 -0.3228
10553SOL     OW32557   0.726   0.824   0.338 -0.1029  0.1596 -0.4380
10553SOL    HW132558   0.657   0.751   0.337 -1.7045  1.4299  3.0596
10553SOL    HW232559   0.696   0.898   0.279 -1.0109  0.0789 -0.0889
10554SOL     OW32560   1.899   5.032   5.374 -0.4027 -0.2383 -0.3158
10554SOL    HW132561   1.903   5.117   5.323 -1.1906  0.1206  0.1918
10554SOL    HW232562   1.913   4.954   5.312  0.8681  0.2677 -0.6893
10555SOL     OW32563   1.686   3.974   3.541 -0.5337 -0.4300  0.0211
10555SOL    HW132564   1.760   3.972   3.473 -0.0825  2.1969  0.3117
10555SOL    HW232565   1.615   4.037   3.509 -0.6425  0.3070  1.6335
10556SOL     OW32566   1.366   3.090   1.457 -0.3127  0.4519 -0.0722
10556SOL    HW132567   1.332   3.174   1.500 -0.0881 -0.0198  1.0815
10556SOL    HW232568   1.453   3.109   1.411 -0.8145  1.0860 -0.7699
10557SOL     OW32569   5.453   0.634   5.044  0.2210 -0.3613  0.1712
10557SOL    HW132570   5.482   0.689   5.122 -0.5369 -0.0091  0.2148
10557SOL    HW232571   5.353   0.632   5.041  0.2492 -0.7810 -0.5058
10558SOL     OW32572   1.981   0.937   2.010 -0.2142 -0.0027 -0.2488
10558SOL    HW132573   1.970   0.940   2.109 -2.1108  1.1121 -0.4434
10558SOL    HW232574   1.934   0.857   1.973 -1.8813  1.0018 -0.4362
10559SOL     OW32575   3.571   1.737   0.683 -0.1944  0.8084  0.4790
10559SOL    HW132576   3.525   1.662   0.732  0.3732  0.3534  0.3333
10559SOL    HW232577   3.511   1.771   0.610 -0.3548  0.3024  0.3668
10560SOL     OW32578   6.171   0.425   4.296 -0.0685  0.0292  0.3510
10560SOL    HW132579   6.216   0.349   4.250  0.0350 -0.0934  0.6541
10560SOL    HW232580   6.210   0.511   4.263  0.7497 -0.0892  0.9743
10561SOL     OW32581   5.849   1.078   1.684 -0.1529 -0.6323  0.1590
10561SOL    HW132582   5.801   1.006   1.634 -1.1237 -0.9921  1.5468
10561SOL    HW232583   5.885   1.040   1.769 -0.6113  0.4961  0.8732
10562SOL     OW32584   0.644   5.282   5.500  0.2986 -0.1713  0.2744
10562SOL    HW132585   0.555   5.313   5.467  0.4843 -0.7085 -0.7770
10562SOL    HW232586   0.636   5.254   5.596 -0.0193  2.3882  1.0687
10563SOL     OW32587   5.980   4.126   6.286  0.5551 -0.1245  0.4229
10563SOL    HW132588   5.998   4.064   6.362  0.7389  2.1855  2.3895
10563SOL    HW232589   5.886   4.159   6.290 -0.1147 -1.5457 -1.6659
10564SOL     OW32590   6.457   2.895   5.158  0.1356  0.1309 -0.2804
10564SOL    HW132591   6.401   2.976   5.140 -1.3982 -0.5814  1.0452
10564SOL    HW232592   6.507   2.906   5.243 -0.8563 -0.6551  0.4402
10565SOL     OW32593   0.933   1.838   5.494  0.1655  0.3239  1.2203
10565SOL    HW132594   0.961   1.767   5.428 -0.2009  0.6807  0.6711
10565SOL    HW232595   1.010   1.900   5.510  0.1718  0.3944  0.9211
10566SOL     OW32596   4.233   6.736   5.020  0.2597 -0.2468 -0.0731
10566SOL    HW132597   4.311   6.753   4.959  1.0944  1.4251  1.3786
10566SOL    HW232598   4.225   6.638   5.037  2.9427 -0.3987  0.8001
10567SOL     OW32599   6.885   4.696   5.889 -0.3097 -0.2188 -0.5404
10567SOL    HW132600   6.977   4.730   5.906 -0.7650  1.2494 -0.8407
10567SOL    HW232601   6.886   4.634   5.810  0.3715  0.0725 -0.7619
10568SOL     OW32602   0.517   0.643   0.374 -0.3465  0.8983  0.6875
10568SOL    HW132603   0.446   0.702   0.336 -1.6740 -0.6143  0.6951
10568SOL    HW232604   0.523   0.657   0.473  0.7981  2.4549  0.4326
10569SOL     OW32605   3.755   1.188   2.355  0.0663  0.4612 -0.3029
10569SOL    HW132606   3.731   1.252   2.428 -1.5096 -0.5898  0.1505
10569SOL    HW232607   3.848   1.206   2.324  0.4072  1.5852  1.2672
10570SOL     OW32608   1.052   5.493   3.784  0.0047  0.3414 -0.1907
10570SOL    HW132609   1.105   5.438   3.849 -1.7232 -0.3260  0.7409
10570SOL    HW232610   1.111   5.560   3.741  1.7712 -0.9443  0.1189
10571SOL     OW32611   1.759   1.423   6.198 -0.1596 -0.0950  0.1521
10571SOL    HW132612   1.802   1.468   6.119 -0.9675  0.5559  0.0617
10571SOL    HW232613   1.771   1.324   6.190  0.4963  0.0126 -0.3503
10572SOL     OW32614   5.946   1.017   0.400 -0.1054  0.1286  0.7715
10572SOL    HW132615   5.897   0.930   0.399  0.0267 -0.0036  2.5456
10572SOL    HW232616   6.043   1.001   0.383 -0.2214  0.0404  0.1877
10573SOL     OW32617   2.944   4.330   6.277  0.1496 -0.0796  1.0307
10573SOL    HW132618   2.900   4.268   6.212  1.3007 -0.2218  0.3608
10573SOL    HW232619   2.930   4.296   6.370 -0.9230 -0.2524  0.8182
10574SOL     OW32620   6.960   6.741   6.451 -0.0402  0.0804 -0.2538
10574SOL    HW132621   7.044   6.739   6.505 -0.0569  1.0780 -0.1798
10574SOL    HW232622   6.881   6.733   6.513 -0.0759  1.7031 -0.0601
10575SOL     OW32623   3.316   0.766   4.097 -0.0829 -0.1676  0.0452
10575SOL    HW132624   3.284   0.808   4.013 -0.5675  1.4144  0.9801
10575SOL    HW232625   3.413   0.742   4.088 -0.3344 -0.7730 -1.2195
10576SOL     OW32626   3.128   2.833   1.856 -0.1951  0.5269  0.2203
10576SOL    HW132627   3.140   2.769   1.779  0.7873  1.6100 -0.5592
10576SOL    HW232628   3.205   2.823   1.919 -1.5855 -1.1911  1.7330
10577SOL     OW32629   6.409   1.055   5.723  0.4855 -0.2762  0.2743
10577SOL    HW132630   6.466   1.109   5.662 -0.1533  1.4626  1.1556
10577SOL    HW232631   6.354   1.115   5.781 -1.2948 -1.8762  0.3703
10578SOL     OW32632   0.175   3.407   6.678  0.1859  0.0956 -0.2826
10578SOL    HW132633   0.221   3.493   6.659 -1.1777  0.9837  0.2814
10578SOL    HW232634   0.214   3.366   6.762  0.9058  0.0881 -0.6117
10579SOL     OW32635   2.028   0.839   3.090  0.0280  0.4673 -0.2847
10579SOL    HW132636   1.999   0.873   3.179  0.9915  1.3847 -0.3021
10579SOL    HW232637   1.972   0.760   3.064 -0.1998  0.1378  1.1614
10580SOL     OW32638   4.950   1.451   3.686  0.6513 -0.5484 -0.2155
10580SOL    HW132639   4.930   1.457   3.588 -2.8746  0.7585  0.4309
10580SOL    HW232640   5.001   1.533   3.715 -0.0721  0.0634 -0.6375
10581SOL     OW32641   6.447   4.764   0.831 -0.0317  0.2045 -0.0585
10581SOL    HW132642   6.407   4.764   0.923  1.9974 -0.6582  0.8757
10581SOL    HW232643   6.412   4.686   0.779  0.1216 -0.3072  0.5987
10582SOL     OW32644   4.775   1.301   1.150 -0.2790  0.6023  0.0367
10582SOL    HW132645   4.800   1.263   1.240 -1.2094  1.2431  0.5835
10582SOL    HW232646   4.823   1.388   1.137  0.3051  0.2336 -0.3553
10583SOL     OW32647   3.029   1.276   0.334 -0.4445  0.1085  0.3223
10583SOL    HW132648   2.972   1.257   0.414 -1.3183 -1.2520 -0.5779
10583SOL    HW232649   2.981   1.247   0.251  0.1481  2.1046 -0.7840
10584SOL     OW32650   1.553   1.317   6.972  0.2859  0.2400 -0.1141
10584SOL    HW132651   1.521   1.258   6.898 -0.2695  0.8563 -0.3771
10584SOL    HW232652   1.523   1.411   6.955 -1.7461  0.0544  1.9830
10585SOL     OW32653   6.505   0.076   5.572 -0.7154 -0.5367  0.3962
10585SOL    HW132654   6.595   0.102   5.606 -0.1451  0.9836 -2.0540
10585SOL    HW232655   6.435   0.124   5.626  0.0712  0.4518  0.5858
10586SOL     OW32656   2.916   1.707   5.235  0.3250 -0.0573  0.2712
10586SOL    HW132657   2.826   1.673   5.206  0.3601  0.2045 -0.1533
10586SOL    HW232658   2.925   1.696   5.334 -0.7714  1.2753  0.5553
10587SOL     OW32659   0.516   3.180   5.526  0.9726 -0.0673  0.1692
10587SOL    HW132660   0.583   3.227   5.584  0.9427 -0.7690  0.7812
10587SOL    HW232661   0.555   3.096   5.491  0.3682 -0.5660  0.6632
10588SOL     OW32662   2.947   5.964   5.520 -0.1984 -0.4060 -0.4081
10588SOL    HW132663   3.010   5.906   5.572  0.0446 -1.3737 -1.7222
10588SOL    HW232664   2.965   6.060   5.540  0.3816 -0.7398  0.7078
10589SOL     OW32665   4.991   3.344   5.338 -0.2855 -0.5197  0.5087
10589SOL    HW132666   4.909   3.291   5.359 -1.1529  1.2027  1.7164
10589SOL    HW232667   4.994   3.362   5.240 -1.9016  0.2103  0.5668
10590SOL     OW32668   5.496   0.677   3.725 -1.0932  0.3095  0.0334
10590SOL    HW132669   5.461   0.584   3.718 -2.2265  0.8117 -1.2160
10590SOL    HW232670   5.562   0.681   3.800  0.0506 -1.8184 -0.7667
10591SOL     OW32671   4.821   1.358   0.671  0.3584  0.7320  0.3233
10591SOL    HW132672   4.884   1.379   0.745  3.0244 -1.2558 -1.1943
10591SOL    HW232673   4.803   1.441   0.618  3.8281  1.0485 -0.6252
10592SOL     OW32674   1.732   0.303   4.956  0.5141  0.2459 -0.2564
10592SOL    HW132675   1.688   0.233   4.900  3.0902  0.4891 -2.7912
10592SOL    HW232676   1.670   0.381   4.965 -1.0077 -0.8921 -0.4428
10593SOL     OW32677   2.260   3.668   0.286  0.1107  0.0836 -0.3901
10593SOL    HW132678   2.340   3.693   0.340 -1.0096  1.6521  0.6581
10593SOL    HW232679   2.216   3.587   0.327  0.7199 -0.3055 -0.5042
10594SOL     OW32680   0.511   4.700   5.591  0.0262  0.1196 -0.0859
10594SOL    HW132681   0.445   4.656   5.530 -0.3226  0.0591  0.3334
10594SOL    HW232682   0.586   4.737   5.537 -0.6070  0.6558 -0.6215
10595SOL     OW32683   1.257   1.520   2.141 -0.3393 -0.1171 -0.7014
10595SOL    HW132684   1.257   1.422   2.121  0.3002 -0.4403  0.7134
10595SOL    HW232685   1.297   1.535   2.232 -0.9885  1.4099 -0.6399
10596SOL     OW32686   3.757   4.489   1.124  0.8894  0.0947  0.6820
10596SOL    HW132687   3.701   4.498   1.041  0.0070 -0.5906  1.1873
10596SOL    HW232688   3.753   4.574   1.176  0.4255  0.1089  0.6324
10597SOL     OW32689   6.454   1.957   3.317 -0.0317 -0.3367  0.0953
10597SOL    HW132690   6.411   1.988   3.232  0.8613 -0.6714 -0.4976
10597SOL    HW232691   6.394   1.978   3.395 -0.9774 -0.2589 -0.6364
10598SOL     OW32692   1.940   0.853   1.608  0.2096  0.1244 -0.5637
10598SOL    HW132693   1.922   0.812   1.519 -0.6328 -0.8357  0.0243
10598SOL    HW232694   2.016   0.806   1.652  2.2457  2.1439 -1.7298
10599SOL     OW32695   3.303   5.192   5.715  0.2640  0.1397 -0.8849
10599SOL    HW132696   3.333   5.282   5.746 -0.8348  0.1991  0.0971
10599SOL    HW232697   3.271   5.198   5.621  2.5991  0.2038 -1.7403
10600SOL     OW32698   0.160   4.303   6.986 -0.0974 -0.4074 -0.0274
10600SOL    HW132699   0.210   4.228   7.030 -0.4118 -0.1824  0.7245
10600SOL    HW232700   0.224   4.360   6.935  0.4917  0.0960  1.2368
10601SOL     OW32701   1.934   0.603   5.426 -0.1024  0.2405 -0.0404
10601SOL    HW132702   1.996   0.657   5.484  0.4493  0.6905 -1.0186
10601SOL    HW232703   1.840   0.618   5.455  0.2352 -0.7697  1.7469
10602SOL     OW32704   4.996   0.059   5.687  0.3611  0.2019  0.1169
10602SOL    HW132705   5.076   0.081   5.630  1.0679 -3.3662 -0.5079
10602SOL    HW232706   4.916   0.047   5.629  0.1976  0.2775  0.3260
10603SOL     OW32707   6.678   5.387   3.180 -0.0416 -0.0568  0.5271
10603SOL    HW132708   6.717   5.322   3.246  0.9563  0.3635  0.3702
10603SOL    HW232709   6.751   5.442   3.140 -0.8573  1.0670  0.5393
10604SOL     OW32710   3.098   3.833   2.960 -0.2198 -0.7434  0.0940
10604SOL    HW132711   3.063   3.761   3.021 -1.5320 -1.5854 -1.5568
10604SOL    HW232712   3.062   3.818   2.867 -0.2622  1.8677 -0.3844
10605SOL     OW32713   1.350   1.259   2.106  0.2970 -0.7177  0.4331
10605SOL    HW132714   1.311   1.241   2.016 -1.8870  0.3469  1.0998
10605SOL    HW232715   1.446   1.284   2.096 -0.3532  1.2999 -1.8548
10606SOL     OW32716   1.137   3.505   4.880  0.2081  0.2317  0.2457
10606SOL    HW132717   1.188   3.555   4.950  3.0200  1.2084 -2.2446
10606SOL    HW232718   1.058   3.559   4.852  0.3393  0.8870  1.1012
10607SOL     OW32719   6.993   0.303   2.027 -0.2650 -0.2920  0.4271
10607SOL    HW132720   6.907   0.341   2.061 -0.3341  2.2257 -2.1773
10607SOL    HW232721   6.979   0.264   1.937  1.0335 -1.4241  0.6757
10608SOL     OW32722   6.103   2.394   0.189 -0.1626 -0.1703 -0.0842
10608SOL    HW132723   6.064   2.484   0.211 -0.2904 -0.2841  0.1552
10608SOL    HW232724   6.186   2.380   0.243  0.7281  0.4476 -1.2398
10609SOL     OW32725   5.271   1.970   2.737 -0.0554  0.3174  0.0354
10609SOL    HW132726   5.190   1.961   2.794  0.7333 -0.1370  1.1292
10609SOL    HW232727   5.284   1.887   2.683  1.1690 -0.8256  1.9428
10610SOL     OW32728   2.967   6.047   1.232 -0.1539  0.4199  0.1094
10610SOL    HW132729   3.033   6.028   1.305 -0.2200  0.1082  0.0909
10610SOL    HW232730   2.934   6.141   1.240 -1.1331  0.0028  1.2548
10611SOL     OW32731   1.560   6.491   4.810  0.7094  0.3030 -0.2326
10611SOL    HW132732   1.580   6.556   4.883  0.4843  0.6539 -0.4832
10611SOL    HW232733   1.467   6.456   4.821  0.2565  1.2320 -1.0100
10612SOL     OW32734   6.097   1.087   2.732 -0.4215 -0.3262 -0.6353
10612SOL    HW132735   6.117   1.167   2.676 -0.2528  0.2129  0.1816
10612SOL    HW232736   6.097   1.113   2.828  3.4274 -2.0016  0.0062
10613SOL     OW32737   6.606   5.322   6.093  0.6698  0.5426 -0.1628
10613SOL    HW132738   6.585   5.393   6.160  0.8449 -0.1718  0.6685
10613SOL    HW232739   6.568   5.235   6.124  1.6342 -0.0036 -0.4946
10614SOL     OW32740   3.538   0.359   0.834  0.5922 -0.4299 -0.3892
10614SOL    HW132741   3.531   0.392   0.928  0.7597  0.4436 -0.6746
10614SOL    HW232742   3.587   0.272   0.833  0.4714 -0.5177  0.3397
10615SOL     OW32743   5.017   4.751   0.852  0.0643 -0.4571  0.3747
10615SOL    HW132744   5.031   4.847   0.828 -3.5380  0.4720  1.3888
10615SOL    HW232745   5.046   4.737   0.947 -0.8006  0.0247  0.7143
10616SOL     OW32746   3.694   6.089   3.807 -0.2402 -0.0922 -0.4155
10616SOL    HW132747   3.656   6.180   3.825  0.1405  0.1610 -0.8859
10616SOL    HW232748   3.632   6.019   3.844  0.1444  0.3853  1.2208
10617SOL     OW32749   5.345   5.685   5.440 -0.4841 -0.3086 -0.0764
10617SOL    HW132750   5.426   5.700   5.497 -2.8379  0.8096  3.3333
10617SOL    HW232751   5.310   5.593   5.456 -0.9288 -0.1362 -0.0524
10618SOL     OW32752   4.807   1.094   3.979 -0.7188 -0.6024 -0.6581
10618SOL    HW132753   4.753   1.176   4.000 -0.1432 -0.7265  1.5868
10618SOL    HW232754   4.892   1.121   3.934 -0.5820  0.0340 -0.0385
10619SOL     OW32755   3.609   6.644   5.622 -0.0800  0.1971  0.0643
10619SOL    HW132756   3.656   6.731   5.607 -0.5569  0.7600  1.6205
10619SOL    HW232757   3.519   6.662   5.661 -1.3681 -0.8917 -2.2282
10620SOL     OW32758   5.788   0.274   1.397 -0.5959  0.8113 -0.3173
10620SOL    HW132759   5.740   0.255   1.483 -0.5117  0.0030 -0.4431
10620SOL    HW232760   5.742   0.348   1.349 -2.8406 -1.0879 -1.3128
10621SOL     OW32761   0.006   0.724   6.309 -0.5818  0.4509 -0.0174
10621SOL    HW132762   0.036   0.708   6.403 -1.1113  0.2444  0.1233
10621SOL    HW232763   0.080   0.765   6.256 -0.0385 -0.1102  0.2944
10622SOL     OW32764   1.511   3.771   6.418  0.7503 -0.4125  0.2902
10622SOL    HW132765   1.572   3.810   6.350  0.8381 -1.4035 -0.2240
10622SOL    HW232766   1.561   3.706   6.475  0.4006 -0.4998  0.5026
10623SOL     OW32767   1.498   2.106   5.522  0.5321  0.4234 -0.1612
10623SOL    HW132768   1.518   2.106   5.424  0.0344 -0.3873 -0.2701
10623SOL    HW232769   1.474   2.013   5.551 -2.2285  1.1353  0.1191
10624SOL     OW32770   6.841   4.696   2.983  0.2104  0.1481 -0.3057
10624SOL    HW132771   6.768   4.764   2.990  1.5926  1.6627 -0.0473
10624SOL    HW232772   6.868   4.685   2.887 -0.7688 -0.9003 -0.4787
10625SOL     OW32773   2.002   5.627   0.976  0.5633 -0.2150 -0.3593
10625SOL    HW132774   1.952   5.543   0.998 -0.0979  0.5527  1.3263
10625SOL    HW232775   2.100   5.610   0.981  0.4344 -0.8251  0.3323
10626SOL     OW32776   5.467   4.778   3.205 -0.0810 -0.0191 -0.0619
10626SOL    HW132777   5.406   4.724   3.264  0.2321 -0.3282 -0.0151
10626SOL    HW232778   5.527   4.716   3.156  0.6970  0.3205  0.4426
10627SOL     OW32779   5.378   1.154   2.320  0.5299  0.5658  0.1678
10627SOL    HW132780   5.427   1.227   2.273  2.0836  0.1777  1.0782
10627SOL    HW232781   5.307   1.193   2.378  0.9870  1.3142  0.2398
10628SOL     OW32782   1.090   6.868   2.235 -0.4237 -0.2745 -0.1710
10628SOL    HW132783   1.157   6.941   2.242  0.3981 -1.0519  0.2520
10628SOL    HW232784   1.074   6.829   2.326  0.7568 -2.0284 -0.6748
10629SOL     OW32785   3.759   0.246   0.357  0.3632  0.4707 -0.0621
10629SOL    HW132786   3.715   0.166   0.400  1.6251 -0.1922  0.0412
10629SOL    HW232787   3.782   0.313   0.428  1.0452  0.0558  0.1256
10630SOL     OW32788   4.694   5.082   3.629  0.4223  0.0643  0.0483
10630SOL    HW132789   4.632   5.010   3.661  1.6568 -0.7021  0.7585
10630SOL    HW232790   4.783   5.043   3.606  0.6242  1.1312 -1.1266
10631SOL     OW32791   0.841   4.716   2.653  0.0722  0.2895 -0.0306
10631SOL    HW132792   0.882   4.635   2.613 -0.6720 -0.1996  0.1651
10631SOL    HW232793   0.787   4.690   2.733  0.8116  1.1294  0.7729
10632SOL     OW32794   2.707   5.413   5.889  0.1151  0.1130 -0.2933
10632SOL    HW132795   2.715   5.511   5.871 -2.6716  0.6189  0.7799
10632SOL    HW232796   2.701   5.363   5.802  1.1591  0.8921 -0.8349
10633SOL     OW32797   1.995   0.625   6.938 -0.1983 -0.1123 -0.0842
10633SOL    HW132798   2.021   0.566   7.015  0.8697  1.3658  0.7173
10633SOL    HW232799   1.927   0.577   6.882  0.3721 -1.9635  0.7216
10634SOL     OW32800   1.219   6.583   0.181 -0.7317  0.1435  0.1964
10634SOL    HW132801   1.203   6.662   0.122  1.7591  0.0150 -0.7664
10634SOL    HW232802   1.222   6.500   0.126  0.1853 -0.1618  0.6786
10635SOL     OW32803   0.250   4.084   1.382 -0.2903  0.0129 -0.1216
10635SOL    HW132804   0.249   4.009   1.448 -1.5320 -0.1172 -0.2665
10635SOL    HW232805   0.157   4.117   1.367  0.2668  1.9156  0.3030
10636SOL     OW32806   3.489   0.839   4.426 -0.1138 -0.1311 -0.1526
10636SOL    HW132807   3.440   0.926   4.433  1.2441  0.6265  0.2566
10636SOL    HW232808   3.546   0.826   4.507  0.4434 -0.9423 -0.6600
10637SOL     OW32809   5.761   0.767   2.483  0.6291  0.5284 -0.3213
10637SOL    HW132810   5.729   0.681   2.443  1.4568  0.0438  0.0227
10637SOL    HW232811   5.851   0.789   2.446 -0.2737  2.1251 -1.6504
10638SOL     OW32812   0.683   2.153   1.480  0.1176 -0.0381  0.4359
10638SOL    HW132813   0.660   2.250   1.473 -0.3242 -0.1404  0.4130
10638SOL    HW232814   0.721   2.122   1.393  1.2065  0.3452  0.7545
10639SOL     OW32815   0.536   5.602   4.200 -0.1815  0.4241  0.2125
10639SOL    HW132816   0.440   5.582   4.221  0.3624 -1.1755  1.3992
10639SOL    HW232817   0.543   5.637   4.107 -1.9023  0.4656  0.0571
10640SOL     OW32818   6.323   2.995   2.628  0.2207  0.4564  0.0567
10640SOL    HW132819   6.330   2.925   2.557  0.7622  0.0112  0.5407
10640SOL    HW232820   6.275   3.075   2.591 -0.8287 -0.3446 -0.3606
10641SOL     OW32821   6.428   2.226   2.504 -0.6162  0.4583 -0.1194
10641SOL    HW132822   6.391   2.223   2.412 -1.9092  0.2590  0.3817
10641SOL    HW232823   6.519   2.185   2.505 -0.6199  0.3882 -1.2768
10642SOL     OW32824   4.872   0.618   3.259 -0.0430  0.5355 -0.3513
10642SOL    HW132825   4.875   0.703   3.206 -1.8358  0.9462  0.1455
10642SOL    HW232826   4.956   0.567   3.244  0.2857  1.5175 -2.1239
10643SOL     OW32827   6.851   4.681   0.717  0.3082  0.1834  0.4948
10643SOL    HW132828   6.841   4.655   0.620  0.8566  0.1004  0.4582
10643SOL    HW232829   6.821   4.775   0.729  0.6812  0.3525  0.1496
10644SOL     OW32830   2.529   5.903   1.668  0.4585  0.2541 -0.4574
10644SOL    HW132831   2.497   5.844   1.594  1.2942 -0.6842 -0.0900
10644SOL    HW232832   2.600   5.856   1.720 -0.3135  0.7851  1.1334
10645SOL     OW32833   5.681   0.789   1.255  0.2757  0.4217  0.1098
10645SOL    HW132834   5.766   0.840   1.239  0.5981  0.0320  0.5577
10645SOL    HW232835   5.614   0.813   1.184  0.8053  0.6224 -0.3332
10646SOL     OW32836   3.830   0.900   5.327  0.4216  0.4849 -0.1422
10646SOL    HW132837   3.888   0.818   5.321  0.5666  0.3109  2.6794
10646SOL    HW232838   3.735   0.874   5.310  0.4901 -0.2319  0.5356
10647SOL     OW32839   5.869   4.153   3.344  0.1012  0.4187  0.0121
10647SOL    HW132840   5.885   4.227   3.410  2.3667  1.1661 -1.2464
10647SOL    HW232841   5.869   4.190   3.251 -0.6968 -0.9130 -0.5457
10648SOL     OW32842   4.894   4.726   0.629 -0.5598 -0.6067  0.4630
10648SOL    HW132843   4.927   4.719   0.723  0.2759 -0.8756  0.1568
10648SOL    HW232844   4.853   4.639   0.601  1.7978 -1.5397 -0.3617
10649SOL     OW32845   3.146   5.670   4.547 -0.0969  0.8521  0.2642
10649SOL    HW132846   3.103   5.581   4.559 -0.7220  0.9793 -0.8564
10649SOL    HW232847   3.234   5.672   4.594 -0.6891  0.1174  1.4495
10650SOL     OW32848   2.857   5.323   2.763 -0.0670  0.2446 -0.7101
10650SOL    HW132849   2.845   5.224   2.761 -0.3548  0.2508  0.3378
10650SOL    HW232850   2.943   5.347   2.719  0.4642 -0.5520 -0.1232
10651SOL     OW32851   6.076   3.692   4.054  0.0622  0.6684  0.0902
10651SOL    HW132852   6.018   3.665   4.131 -0.4138 -0.1880 -0.5607
10651SOL    HW232853   6.169   3.709   4.087 -0.4268  1.5764  1.0622
10652SOL     OW32854   6.891   1.251   0.707  0.0192 -0.5335  0.2978
10652SOL    HW132855   6.907   1.228   0.611  0.1067 -1.1705  0.4577
10652SOL    HW232856   6.977   1.275   0.751 -0.2057  1.2202 -0.1326
10653SOL     OW32857   5.946   3.359   5.484  0.6923  0.2418  0.0381
10653SOL    HW132858   6.004   3.421   5.536  1.0457  0.5240 -0.6791
10653SOL    HW232859   5.987   3.341   5.394  0.1542 -0.3243 -0.1105
10654SOL     OW32860   5.585   5.169   2.620 -0.1064 -0.1367  0.1106
10654SOL    HW132861   5.598   5.263   2.650  0.9240  0.8660 -3.0324
10654SOL    HW232862   5.489   5.155   2.596 -0.1208  0.3674 -0.1452
10655SOL     OW32863   1.846   2.518   5.012 -0.2464 -0.3006 -0.2651
10655SOL    HW132864   1.808   2.537   4.922  0.9467  0.8844 -0.5549
10655SOL    HW232865   1.944   2.540   5.012 -0.1146 -0.7866  1.1698
10656SOL     OW32866   6.699   5.324   4.460 -0.3304  0.1215 -0.3310
10656SOL    HW132867   6.773   5.338   4.393 -1.0377 -0.9980 -1.4045
10656SOL    HW232868   6.627   5.268   4.418  0.0038 -2.1784  1.9113
10657SOL     OW32869   3.109   6.013   1.461 -0.3140  0.5571  0.1525
10657SOL    HW132870   3.135   5.960   1.541  0.6436  0.4841 -0.1943
10657SOL    HW232871   3.028   6.068   1.482  0.3605  1.1085  1.4127
10658SOL     OW32872   2.117   2.608   5.752 -0.5415  0.5898 -0.1450
10658SOL    HW132873   2.037   2.558   5.784 -0.8520  0.6328 -0.8375
10658SOL    HW232874   2.199   2.552   5.764 -0.5467  0.8655  1.3504
10659SOL     OW32875   1.188   4.130   3.691  0.1283  0.1648 -0.3508
10659SOL    HW132876   1.166   4.219   3.651 -2.1676 -0.4463 -0.6121
10659SOL    HW232877   1.268   4.092   3.646  0.9127  1.9017 -0.5008
10660SOL     OW32878   0.817   1.834   0.357  0.1935  0.2595  0.0828
10660SOL    HW132879   0.758   1.863   0.282 -0.2013  0.2892  0.4069
10660SOL    HW232880   0.850   1.915   0.406 -0.4067  0.1948  0.6007
10661SOL     OW32881   3.441   5.647   1.206 -0.2381 -0.4907 -0.2723
10661SOL    HW132882   3.360   5.659   1.263 -0.0838 -0.7232 -0.0024
10661SOL    HW232883   3.462   5.733   1.160 -0.5848 -0.4044 -0.2772
10662SOL     OW32884   5.623   3.963   0.587 -0.2431 -1.3357  0.3364
10662SOL    HW132885   5.651   3.974   0.682  1.9421 -2.2756 -0.1180
10662SOL    HW232886   5.559   3.886   0.579  0.5466 -2.0786  0.9266
10663SOL     OW32887   5.423   0.905   0.148  0.2613  0.0605  0.0350
10663SOL    HW132888   5.440   1.003   0.136  2.4408 -0.3899 -1.0656
10663SOL    HW232889   5.344   0.879   0.094  0.1433  1.0727 -0.3148
10664SOL     OW32890   6.036   2.573   3.809 -0.3311 -0.1545  0.3237
10664SOL    HW132891   5.969   2.611   3.747 -0.0239  1.4718  0.9375
10664SOL    HW232892   6.124   2.620   3.797  0.2392 -1.0739  0.7172
10665SOL     OW32893   0.859   4.688   5.646  0.5629 -0.4644  0.4302
10665SOL    HW132894   0.825   4.747   5.573  0.7811 -1.0225 -0.1360
10665SOL    HW232895   0.862   4.739   5.732 -0.3267  0.0045  0.1911
10666SOL     OW32896   4.451   4.714   4.226  0.0897  0.1702 -0.4683
10666SOL    HW132897   4.486   4.639   4.281 -2.3018 -1.2778 -0.7659
10666SOL    HW232898   4.451   4.688   4.129 -0.6312  0.5832 -0.5908
10667SOL     OW32899   5.891   2.592   5.901  0.2013 -0.0581 -0.0207
10667SOL    HW132900   5.978   2.549   5.924  0.6840 -1.5365 -3.8606
10667SOL    HW232901   5.890   2.615   5.803 -3.8570 -0.4499 -0.2252
10668SOL     OW32902   2.000   5.703   2.195  0.3418  0.0252  0.1098
10668SOL    HW132903   1.986   5.786   2.140  2.5867  0.6375  0.3458
10668SOL    HW232904   1.999   5.727   2.292 -2.4492 -0.8614  0.3826
10669SOL     OW32905   5.953   1.379   5.920 -0.5596  0.4858  0.5381
10669SOL    HW132906   5.965   1.477   5.910  1.7790  0.4277  1.8822
10669SOL    HW232907   5.929   1.357   6.014  0.8761 -0.3034  0.7601
10670SOL     OW32908   0.579   2.553   2.076 -0.9411  0.2250  0.6251
10670SOL    HW132909   0.639   2.630   2.097  1.4679 -1.8489  1.9337
10670SOL    HW232910   0.615   2.503   1.998 -0.2340 -1.6701  2.0823
10671SOL     OW32911   1.197   2.184   4.460 -0.2832 -0.1680  0.9385
10671SOL    HW132912   1.176   2.260   4.521  2.3261  0.6290  0.9497
10671SOL    HW232913   1.113   2.136   4.437 -1.8548  1.9875  1.8685
10672SOL     OW32914   5.419   6.440   4.759 -0.1054 -0.6252  0.0087
10672SOL    HW132915   5.441   6.342   4.762 -2.6154 -1.3191 -1.2026
10672SOL    HW232916   5.365   6.464   4.839 -0.2112 -0.4296 -0.1226
10673SOL     OW32917   5.910   3.054   0.972 -0.0045 -0.3926  0.3879
10673SOL    HW132918   6.000   3.018   0.947 -0.1611 -0.3375 -0.2808
10673SOL    HW232919   5.840   3.006   0.919 -0.4022 -0.6971  1.1817
10674SOL     OW32920   4.052   3.928   5.467 -0.7030 -0.5406  0.6495
10674SOL    HW132921   4.136   3.933   5.521 -0.2264 -1.3392 -0.0021
10674SOL    HW232922   4.011   3.838   5.478  0.3883 -1.4137 -1.7243
10675SOL     OW32923   2.334   2.077   1.313 -0.3488  0.2419  0.1958
10675SOL    HW132924   2.278   2.117   1.387  3.2986  2.2389  2.1509
10675SOL    HW232925   2.303   2.113   1.225 -1.7748  1.7099  1.2374
10676SOL     OW32926   5.854   0.911   3.812 -0.7152  0.2935 -0.7455
10676SOL    HW132927   5.929   0.883   3.752 -1.4049 -1.1350 -0.9845
10676SOL    HW232928   5.823   1.003   3.786  1.3938  1.2263 -0.1630
10677SOL     OW32929   0.631   5.684   5.096  0.1238 -0.6389 -0.2930
10677SOL    HW132930   0.709   5.741   5.125  0.0270 -1.6577  2.2808
10677SOL    HW232931   0.665   5.602   5.050  0.7306 -1.4458  1.4615
10678SOL     OW32932   2.306   4.946   4.339  0.0167 -0.2376 -0.0381
10678SOL    HW132933   2.268   5.021   4.394 -2.1345  0.0307 -1.7883
10678SOL    HW232934   2.288   4.859   4.385  1.6328  0.1649  1.4971
10679SOL     OW32935   6.074   2.357   5.972  0.0393  0.2001  0.1157
10679SOL    HW132936   6.172   2.370   5.954  0.2638  2.4340  2.3729
10679SOL    HW232937   6.062   2.327   6.067 -1.5036  3.1729  0.9924
10680SOL     OW32938   0.963   0.436   0.790  0.1854 -0.1758 -0.1345
10680SOL    HW132939   0.903   0.359   0.811  1.0580 -0.5340  1.1304
10680SOL    HW232940   1.022   0.412   0.713 -1.3100  0.2105 -1.4423
10681SOL     OW32941   0.957   6.418   1.004 -0.5529  0.2079 -0.3692
10681SOL    HW132942   0.986   6.499   0.954  1.1006 -0.5605 -0.7465
10681SOL    HW232943   0.982   6.336   0.952 -0.4488 -0.5780  0.8643
10682SOL     OW32944   0.488   4.409   2.820  0.1352 -0.2490  0.2015
10682SOL    HW132945   0.490   4.339   2.891 -0.4639 -2.0679 -1.4878
10682SOL    HW232946   0.580   4.447   2.809  0.2541  0.0167  1.8623
10683SOL     OW32947   3.852   2.951   1.233 -0.3168  0.1657  0.1337
10683SOL    HW132948   3.905   3.034   1.253  0.6372 -0.1910 -0.8548
10683SOL    HW232949   3.844   2.896   1.316  0.7206  0.3085  0.3385
10684SOL     OW32950   5.472   6.476   0.980  0.6816  0.1371  0.1513
10684SOL    HW132951   5.500   6.390   1.023  0.8313  0.0041 -0.2066
10684SOL    HW232952   5.508   6.553   1.032  0.9345 -0.0239  0.2136
10685SOL     OW32953   4.547   4.367   2.619 -0.2514 -0.1779  0.5951
10685SOL    HW132954   4.628   4.322   2.579  0.1136  0.2149  0.8786
10685SOL    HW232955   4.489   4.401   2.545 -1.3143 -2.4254  0.3337
10686SOL     OW32956   2.448   1.293   4.963 -0.7219 -0.2219  0.6018
10686SOL    HW132957   2.495   1.206   4.952  1.0470  0.8989 -1.4130
10686SOL    HW232958   2.355   1.277   4.997 -0.7757 -2.9548 -0.5849
10687SOL     OW32959   6.643   5.796   4.847  0.3654  0.0520  0.4705
10687SOL    HW132960   6.733   5.809   4.887  0.6615 -0.4894 -0.0060
10687SOL    HW232961   6.652   5.755   4.756 -0.3506  0.1743  0.3311
10688SOL     OW32962   2.556   2.208   1.419  1.2566  0.0614  0.1615
10688SOL    HW132963   2.494   2.146   1.370 -1.8005  1.9698  1.2762
10688SOL    HW232964   2.568   2.292   1.365  1.6371  0.3267  0.6507
10689SOL     OW32965   0.234   1.495   3.148 -0.0249  0.6424 -0.1700
10689SOL    HW132966   0.283   1.502   3.061 -1.5127  2.9499 -0.9150
10689SOL    HW232967   0.209   1.586   3.179 -2.0152 -0.3122  1.2398
10690SOL     OW32968   1.251   4.854   4.669 -0.2182 -0.4546 -0.2301
10690SOL    HW132969   1.237   4.813   4.579  0.1226 -1.8134  0.3167
10690SOL    HW232970   1.216   4.948   4.668  0.9759  0.0393 -2.1719
10691SOL     OW32971   5.580   1.278   3.314  0.0849  0.0953  0.3891
10691SOL    HW132972   5.627   1.191   3.299  1.7057  0.8872  0.6816
10691SOL    HW232973   5.500   1.283   3.255  0.3956 -1.2675 -0.1892
10692SOL     OW32974   2.552   1.802   2.346 -0.1582 -0.1961 -0.1119
10692SOL    HW132975   2.452   1.791   2.346 -0.2095  0.2677  0.1108
10692SOL    HW232976   2.590   1.757   2.265 -0.3090 -2.4823  0.9952
10693SOL     OW32977   0.755   5.935   5.492 -0.6949 -0.9065  0.2013
10693SOL    HW132978   0.801   5.863   5.440  0.9298 -1.5884  2.4264
10693SOL    HW232979   0.666   5.902   5.523 -0.2323 -1.7732  0.6639
10694SOL     OW32980   0.093   4.891   2.420  0.0528  0.2211 -0.0655
10694SOL    HW132981   0.129   4.821   2.482  0.8412 -0.0234 -0.7820
10694SOL    HW232982  -0.004   4.906   2.439  0.4526  0.7264  1.7585
10695SOL     OW32983   6.114   2.245   0.959 -0.2778 -0.2241 -0.5030
10695SOL    HW132984   6.053   2.286   0.891 -3.1999  0.0160  2.0762
10695SOL    HW232985   6.107   2.295   1.045  2.3113 -1.2989  0.4338
10696SOL     OW32986   6.431   5.673   1.418  0.3752 -0.2711 -0.0434
10696SOL    HW132987   6.423   5.601   1.350  1.6851 -0.9653  0.4859
10696SOL    HW232988   6.456   5.632   1.506 -0.9866  0.6306  0.7979
10697SOL     OW32989   1.957   0.203   6.606  0.3242 -0.0867  0.0441
10697SOL    HW132990   1.972   0.240   6.698 -0.5973  1.3331 -0.3462
10697SOL    HW232991   1.891   0.127   6.611  0.8254 -0.4889  0.6369
10698SOL     OW32992   2.948   0.041   1.481 -0.2147 -0.1346 -0.2018
10698SOL    HW132993   2.932   0.123   1.536 -0.0606  0.2236 -0.6791
10698SOL    HW232994   2.914  -0.039   1.530 -1.5054  0.3539 -0.2464
10699SOL     OW32995   6.615   6.734   5.314 -0.2868 -0.1374  0.1368
10699SOL    HW132996   6.639   6.814   5.259 -1.3914 -0.3136 -0.6450
10699SOL    HW232997   6.539   6.686   5.270  0.2240 -1.5053  0.7064
10700SOL     OW32998   0.085   6.665   5.966  0.0079  0.7194 -0.4143
10700SOL    HW132999   0.172   6.648   6.012  0.5078 -0.0901 -1.6107
10700SOL    HW233000   0.011   6.661   6.032  0.7124 -0.3590  0.3476
10701SOL     OW33001   0.654   2.419   1.415  0.8055 -0.2245  0.9861
10701SOL    HW133002   0.630   2.511   1.444 -1.0087 -0.2896 -0.1688
10701SOL    HW233003   0.735   2.422   1.356  0.5956  0.6665  0.7312
10702SOL     OW33004   6.685   1.525   4.607 -0.4790  0.4782  0.0053
10702SOL    HW133005   6.662   1.508   4.703  4.0146 -0.0584  1.2549
10702SOL    HW233006   6.663   1.620   4.584 -2.6020  0.3265  1.1580
10703SOL     OW33007   3.801   0.036   4.994  0.0258 -0.3347  0.1841
10703SOL    HW133008   3.878  -0.016   5.031 -0.4117  0.0347  1.6964
10703SOL    HW233009   3.726   0.034   5.059 -0.9894 -0.0764 -0.9505
10704SOL     OW33010   2.022   3.194   6.935  0.1808  0.8235 -0.4422
10704SOL    HW133011   1.987   3.278   6.976  0.5100  0.7454 -0.0053
10704SOL    HW233012   2.121   3.199   6.929  0.1419  0.8406 -1.2426
10705SOL     OW33013   6.629   6.987   4.208 -0.0064  0.2960  0.0636
10705SOL    HW133014   6.532   6.994   4.184 -0.5803 -0.2358  2.0397
10705SOL    HW233015   6.638   6.942   4.297  2.2187 -2.8727 -1.5556
10706SOL     OW33016   5.877   5.914   3.195  0.2107 -0.2626  0.4732
10706SOL    HW133017   5.862   6.000   3.244  0.8105 -1.5441  3.0548
10706SOL    HW233018   5.802   5.851   3.214  0.6861 -0.9635  0.0806
10707SOL     OW33019   3.283   3.979   2.302 -0.0629 -0.0971 -0.5026
10707SOL    HW133020   3.368   3.968   2.355 -0.3028  0.4297  0.0009
10707SOL    HW233021   3.204   3.966   2.362 -0.3397 -0.5700 -0.9681
10708SOL     OW33022   6.984   2.586   5.344  0.1705  0.1825 -0.4338
10708SOL    HW133023   6.900   2.594   5.291 -0.4490  2.5268  0.7739
10708SOL    HW233024   7.043   2.664   5.325  2.1470 -1.4370 -1.2787
10709SOL     OW33025   2.982   4.757   2.108  0.0118  0.1326  0.0244
10709SOL    HW133026   2.927   4.692   2.055  0.2599 -0.5081  0.5345
10709SOL    HW233027   3.065   4.780   2.056 -0.4705  0.6889 -0.5143
10710SOL     OW33028   1.214   5.757   2.112  0.2866 -0.5582 -0.0244
10710SOL    HW133029   1.225   5.794   2.204  1.6933  1.5638 -0.9766
10710SOL    HW233030   1.270   5.809   2.048 -2.7995 -0.0291 -2.5872
10711SOL     OW33031   4.163   4.586   6.640 -0.0654 -0.6153  0.0624
10711SOL    HW133032   4.105   4.568   6.720  0.6022 -2.6118  0.1506
10711SOL    HW233033   4.253   4.617   6.671 -0.8075  1.9893 -0.0671
10712SOL     OW33034   4.977   5.150   3.888 -0.1582 -0.0020  0.3844
10712SOL    HW133035   4.917   5.123   3.964 -0.2162 -1.8637 -0.2816
10712SOL    HW233036   5.013   5.242   3.906 -0.0367 -0.4296  2.7659
10713SOL     OW33037   6.864   2.458   0.443 -0.7750  0.3516 -0.0386
10713SOL    HW133038   6.940   2.402   0.477 -1.6373 -0.1098  1.1753
10713SOL    HW233039   6.884   2.554   0.457  0.5237  0.3801 -1.7276
10714SOL     OW33040   6.949   6.030   1.696 -0.4775  0.4240  0.4033
10714SOL    HW133041   6.924   5.938   1.728  0.5929  0.1387  0.4790
10714SOL    HW233042   6.888   6.098   1.736 -1.5761 -0.2913 -0.0087
10715SOL     OW33043   4.352   5.410   0.683  0.1759  0.2471  0.4054
10715SOL    HW133044   4.314   5.324   0.717 -1.3991  0.6303 -0.2813
10715SOL    HW233045   4.451   5.410   0.696  0.1112 -1.3079  1.1814
10716SOL     OW33046   4.010   0.166   6.254  0.3572  0.6325 -0.4130
10716SOL    HW133047   3.931   0.187   6.313  0.2548 -1.2138  0.1702
10716SOL    HW233048   4.001   0.216   6.168 -3.3476 -2.0214 -1.8551
10717SOL     OW33049   4.220   4.818   0.198 -0.2295 -0.4931 -0.0096
10717SOL    HW133050   4.141   4.761   0.177 -0.4281 -0.4849  0.6954
10717SOL    HW233051   4.210   4.907   0.154 -1.6121  0.2587  1.7029
10718SOL     OW33052   0.605   6.441   5.608 -0.3040  0.3177 -0.1057
10718SOL    HW133053   0.534   6.390   5.560 -0.8598  1.6388 -0.7573
10718SOL    HW233054   0.665   6.485   5.541 -0.0251  0.7577  0.4265
10719SOL     OW33055   0.193   3.667   3.462  0.3008  0.0357  0.0212
10719SOL    HW133056   0.138   3.746   3.432  0.0753  0.1107  0.6163
10719SOL    HW233057   0.159   3.585   3.416 -0.0966  0.1356  0.1258
10720SOL     OW33058   4.600   4.325   5.161  0.4152  0.0716  0.6453
10720SOL    HW133059   4.508   4.333   5.123  1.0370  2.1974 -0.5641
10720SOL    HW233060   4.594   4.297   5.257 -1.8560  4.3822  2.0234
10721SOL     OW33061   6.231   4.232   3.522  0.7232  0.1806  0.2288
10721SOL    HW133062   6.233   4.272   3.430  0.2252 -0.7752 -0.2230
10721SOL    HW233063   6.234   4.132   3.514  0.6481  0.0868  1.2600
10722SOL     OW33064   0.876   3.411   2.287 -0.3004 -0.4750  0.3269
10722SOL    HW133065   0.877   3.510   2.273 -0.7023 -0.6761 -1.2880
10722SOL    HW233066   0.887   3.391   2.384  3.1208  1.0677  0.3945
10723SOL     OW33067   6.679   5.776   4.119  0.2221 -0.1205  0.1567
10723SOL    HW133068   6.620   5.776   4.039  0.4872  1.0056 -0.0534
10723SOL    HW233069   6.767   5.734   4.096 -0.4525 -1.7784  0.4641
10724SOL     OW33070   0.390   0.840   0.561  0.5918 -0.0360 -0.1878
10724SOL    HW133071   0.417   0.931   0.592  0.7472 -0.0721 -0.2168
10724SOL    HW233072   0.376   0.841   0.462  0.3640  0.0126 -0.1567
10725SOL     OW33073   1.478   4.097   3.390 -0.2689 -1.0543 -0.4214
10725SOL    HW133074   1.395   4.054   3.427  0.2386 -1.5349  0.1964
10725SOL    HW233075   1.500   4.055   3.302 -0.1152 -1.6565 -0.1054
10726SOL     OW33076   3.418   5.148   4.980  0.1175 -0.5903 -0.5022
10726SOL    HW133077   3.439   5.078   4.911 -0.0790 -0.9264 -0.2242
10726SOL    HW233078   3.406   5.104   5.069  0.2390 -0.1717 -0.2781
10727SOL     OW33079   2.373   4.251   6.656 -0.1728  0.3104  0.6299
10727SOL    HW133080   2.307   4.193   6.702  0.1884  0.7881  1.8038
10727SOL    HW233081   2.427   4.301   6.724  0.5676  0.8515 -0.3150
10728SOL     OW33082   0.932   5.025   1.050  0.3741  0.6327  0.1199
10728SOL    HW133083   0.943   4.925   1.043 -0.4751  0.3007  2.5975
10728SOL    HW233084   0.856   5.053   0.991 -0.7346 -0.5290  0.9264
10729SOL     OW33085   3.723   1.361   0.906 -0.1672 -0.4530 -0.1144
10729SOL    HW133086   3.751   1.267   0.927 -0.8488 -0.8694 -0.9700
10729SOL    HW233087   3.774   1.394   0.826  1.1634  0.4799  1.0792
10730SOL     OW33088   0.678   4.927   1.872 -0.3187  0.1642  0.1229
10730SOL    HW133089   0.663   4.932   1.773 -1.6196 -0.5471  0.2608
10730SOL    HW233090   0.706   4.834   1.897  2.2529  0.8843  0.1813
10731SOL     OW33091   6.070   5.039   2.542 -0.2933  0.4882  0.3529
10731SOL    HW133092   6.143   5.012   2.605  0.4248  1.1139 -0.1942
10731SOL    HW233093   6.031   5.126   2.572 -0.0063  0.7454 -0.0087
10732SOL     OW33094   0.976   1.662   3.952 -0.6790 -0.2432 -0.1697
10732SOL    HW133095   0.979   1.629   3.857  0.5384  2.3399 -1.1234
10732SOL    HW233096   0.882   1.688   3.975 -0.8583 -0.1969 -0.9222
10733SOL     OW33097   4.455   4.702   3.938  0.0512 -0.5388 -0.6756
10733SOL    HW133098   4.396   4.783   3.942  0.9630  0.1654 -1.0432
10733SOL    HW233099   4.466   4.674   3.843  0.4416 -0.5520 -0.6295
10734SOL     OW33100   6.458   6.160   2.894  0.2698 -0.0607  0.1151
10734SOL    HW133101   6.544   6.110   2.905  0.4277  0.4006  1.0470
10734SOL    HW233102   6.476   6.248   2.849  0.1437 -0.3539 -0.5280
10735SOL     OW33103   0.335   2.301   5.443  0.0014 -1.0652 -0.6091
10735SOL    HW133104   0.294   2.210   5.435  0.4646 -1.3814  0.4843
10735SOL    HW233105   0.270   2.363   5.488 -0.9761 -0.3804 -2.8372
10736SOL     OW33106   6.827   1.602   5.483 -0.6050  0.4887 -0.4076
10736SOL    HW133107   6.744   1.652   5.459 -0.3903  0.5918 -0.9607
10736SOL    HW233108   6.878   1.653   5.553 -0.1629  1.2817 -1.2890
10737SOL     OW33109   0.319   2.579   2.847  0.3896 -0.1539  0.0529
10737SOL    HW133110   0.389   2.508   2.858 -1.0782 -2.0218 -1.8736
10737SOL    HW233111   0.258   2.578   2.925 -0.1784 -1.7296 -0.3769
10738SOL     OW33112   0.182   0.323   3.744 -0.2045 -0.4645  1.0460
10738SOL    HW133113   0.232   0.237   3.757  1.8394  0.5337  0.1900
10738SOL    HW233114   0.180   0.347   3.647  0.1752  0.9757  1.3745
10739SOL     OW33115   6.772   5.719   3.655  0.2102  0.2378 -0.2013
10739SOL    HW133116   6.866   5.687   3.645 -0.1517 -0.3952 -1.9295
10739SOL    HW233117   6.738   5.753   3.567 -1.3234  0.0117  0.2644
10740SOL     OW33118   1.382   4.672   0.756 -0.8590 -0.4374  0.2413
10740SOL    HW133119   1.313   4.603   0.778 -0.5300 -0.6221  0.7223
10740SOL    HW233120   1.362   4.713   0.667 -0.9173 -1.3265 -0.1602
10741SOL     OW33121   5.186   5.812   3.288 -0.2210  0.3930 -0.4479
10741SOL    HW133122   5.146   5.902   3.299 -2.9954 -0.9305  1.3816
10741SOL    HW233123   5.158   5.773   3.200 -1.7203  0.1000  0.1432
10742SOL     OW33124   6.452   2.730   3.475  0.0977  0.0370  0.0460
10742SOL    HW133125   6.544   2.690   3.466  1.5903  2.7674  1.6280
10742SOL    HW233126   6.443   2.807   3.412 -0.3558  0.9430  1.1752
10743SOL     OW33127   0.401   2.714   3.186 -0.4731  0.4933 -0.1138
10743SOL    HW133128   0.319   2.656   3.189 -0.6654  0.7940  0.7861
10743SOL    HW233129   0.474   2.666   3.137 -0.6522 -0.4775  0.5292
10744SOL     OW33130   4.179   0.968   3.302 -0.3257  0.8678  0.5553
10744SOL    HW133131   4.170   1.064   3.274 -0.6665  0.4896 -0.6826
10744SOL    HW233132   4.108   0.914   3.258  2.2374 -0.6380 -2.0368
10745SOL     OW33133   0.957   5.384   1.763  0.5686 -0.0956 -0.7521
10745SOL    HW133134   0.955   5.287   1.741  2.5425 -0.0409 -1.3156
10745SOL    HW233135   1.050   5.411   1.788 -0.1344  1.4616  0.3186
10746SOL     OW33136   0.036   2.367   0.964  0.1656  0.3402 -0.0715
10746SOL    HW133137  -0.021   2.383   0.883 -0.4833  1.7413  0.6287
10746SOL    HW233138   0.041   2.269   0.982  2.2429 -0.2367 -3.1340
10747SOL     OW33139   6.600   2.704   6.611  0.0115  0.1933 -0.2937
10747SOL    HW133140   6.594   2.633   6.541 -0.1563 -0.6138  0.5238
10747SOL    HW233141   6.696   2.718   6.636 -0.0210 -0.3576  0.1520
10748SOL     OW33142   3.674   3.159   5.622 -0.2219 -0.4451 -0.5218
10748SOL    HW133143   3.762   3.178   5.579 -0.5810 -0.1939 -1.1592
10748SOL    HW233144   3.619   3.102   5.562 -0.9923  0.4699 -0.7074
10749SOL     OW33145   1.343   0.041   6.940 -0.4813 -0.6043  0.1323
10749SOL    HW133146   1.284   0.006   6.866 -1.8133  0.0214  0.8607
10749SOL    HW233147   1.436   0.050   6.906 -0.9255 -0.9603 -1.2814
10750SOL     OW33148   2.199   4.889   1.508 -0.6324  0.2218  0.0988
10750SOL    HW133149   2.102   4.870   1.524 -1.3663  2.1933 -1.5422
10750SOL    HW233150   2.216   4.898   1.410  1.1315  0.3973  0.3744
10751SOL     OW33151   2.892   6.972   6.510  0.4091 -0.2532  0.7720
10751SOL    HW133152   2.798   6.976   6.545  0.5947 -2.0490  1.6000
10751SOL    HW233153   2.934   6.886   6.538  1.5948 -0.4500 -1.4298
10752SOL     OW33154   4.918   3.962   2.940  0.1087 -0.2788  0.0951
10752SOL    HW133155   5.013   3.966   2.907  0.1068  2.0471  0.1731
10752SOL    HW233156   4.856   3.981   2.864 -0.1713  0.0378  0.3979
10753SOL     OW33157   5.515   2.067   3.258 -0.6276  0.0860 -0.3475
10753SOL    HW133158   5.434   2.125   3.256 -1.1762 -0.6026  0.8135
10753SOL    HW233159   5.589   2.116   3.304 -1.0893 -0.1183  0.6320
10754SOL     OW33160   1.416   4.635   1.088 -0.6039  0.0666 -0.1066
10754SOL    HW133161   1.468   4.679   1.015  0.7557 -1.5283 -0.1529
10754SOL    HW233162   1.436   4.537   1.090 -2.0436 -0.2482  1.2235
10755SOL     OW33163   2.147   0.361   2.349  0.1021 -0.4216 -0.1777
10755SOL    HW133164   2.091   0.444   2.348  0.5033 -0.1318  0.5228
10755SOL    HW233165   2.217   0.366   2.279 -1.7419 -1.5084 -2.2115
10756SOL     OW33166   5.364   2.997   3.079 -0.0509  0.1227 -0.0551
10756SOL    HW133167   5.457   3.034   3.081  0.0916 -0.2479  0.8963
10756SOL    HW233168   5.307   3.051   3.018  0.1698  1.8438  1.2113
10757SOL     OW33169   2.710   5.770   1.792  0.3266 -0.2004 -0.7348
10757SOL    HW133170   2.624   5.735   1.829  0.0808  1.4059  0.2966
10757SOL    HW233171   2.779   5.769   1.864  0.0348  2.3067 -0.3492
10758SOL     OW33172   5.639   6.214   5.761  0.6347  0.4518  0.8199
10758SOL    HW133173   5.563   6.173   5.710  0.1922 -2.2355  3.3966
10758SOL    HW233174   5.721   6.158   5.749  1.4895  1.7648  0.3250
10759SOL     OW33175   6.765   0.641   1.864 -0.4387 -0.2311 -0.6038
10759SOL    HW133176   6.697   0.597   1.805 -0.4156 -0.0861 -0.7380
10759SOL    HW233177   6.837   0.681   1.807 -0.3670 -0.1748 -0.4729
10760SOL     OW33178   0.127   1.352   3.591  0.2795 -0.1576 -0.2131
10760SOL    HW133179   0.162   1.296   3.516 -0.1340  0.7492 -1.1107
10760SOL    HW233180   0.204   1.394   3.640  0.5799 -1.2596  0.3005
10761SOL     OW33181   4.337   6.908   2.111  0.0623 -0.5302 -0.3488
10761SOL    HW133182   4.293   6.925   2.023 -2.0868  0.0118  0.7904
10761SOL    HW233183   4.385   6.820   2.107  1.0669  0.0511 -2.4201
10762SOL     OW33184   5.332   2.703   4.983 -0.1665  0.2352 -0.5845
10762SOL    HW133185   5.396   2.649   5.039 -4.0453 -2.4350  1.7591
10762SOL    HW233186   5.316   2.655   4.896 -1.2853 -0.9093  0.2056
10763SOL     OW33187   4.777   4.962   5.587  0.0767 -0.4983  0.2803
10763SOL    HW133188   4.746   4.880   5.539 -0.4589  0.4081 -1.0080
10763SOL    HW233189   4.796   4.940   5.682  1.7978 -2.5416 -0.4367
10764SOL     OW33190   6.985   0.459   5.726 -0.2250 -0.8328  0.2047
10764SOL    HW133191   6.888   0.482   5.711 -0.9694 -3.1423  1.1104
10764SOL    HW233192   7.031   0.448   5.637 -0.4272  1.4478 -0.2510
10765SOL     OW33193   6.854   6.924   6.954  0.4422 -0.7080  0.5206
10765SOL    HW133194   6.865   7.021   6.932 -0.0019 -0.2273  2.2854
10765SOL    HW233195   6.931   6.872   6.918  2.0109  0.6881  1.7321
10766SOL     OW33196   5.055   5.568   4.313 -1.1063  0.4749 -0.5087
10766SOL    HW133197   5.032   5.619   4.231 -1.1402  0.2240 -0.6564
10766SOL    HW233198   5.152   5.545   4.313 -1.0105  0.8632 -0.2594
10767SOL     OW33199   6.206   1.729   1.464  0.2323 -0.3891  0.3954
10767SOL    HW133200   6.116   1.763   1.437  0.0766  1.4660  2.9171
10767SOL    HW233201   6.201   1.631   1.481 -1.3295 -0.2971  0.5916
10768SOL     OW33202   6.163   1.293   2.523 -0.4124 -0.2522 -0.4505
10768SOL    HW133203   6.261   1.309   2.535 -0.8505  0.8079  2.9117
10768SOL    HW233204   6.134   1.326   2.433  1.8498  2.1337 -0.4126
10769SOL     OW33205   2.045   4.077   0.291 -0.2346 -0.7607 -0.0963
10769SOL    HW133206   1.947   4.069   0.271 -0.6900  1.2179  0.9933
10769SOL    HW233207   2.095   4.001   0.249 -2.1531 -1.4867 -1.1761
10770SOL     OW33208   3.683   5.937   0.700 -0.0666 -0.3382  0.1769
10770SOL    HW133209   3.644   5.939   0.608 -1.9573 -0.4209  0.9272
10770SOL    HW233210   3.659   5.851   0.745 -0.0020  0.0965  1.0701
10771SOL     OW33211   2.387   5.019   3.420  0.0651 -0.0969 -0.1631
10771SOL    HW133212   2.453   5.033   3.494 -0.5669 -0.3680  0.4606
10771SOL    HW233213   2.318   5.091   3.423  0.2979  0.1658 -0.7928
10772SOL     OW33214   0.100   5.600   0.697  0.1284 -0.1380 -0.9153
10772SOL    HW133215   0.093   5.685   0.749 -0.3779  0.4465 -1.9034
10772SOL    HW233216   0.103   5.522   0.760 -0.4575  0.5454 -0.0210
10773SOL     OW33217   3.128   5.955   6.561  0.3647 -0.5309 -0.5052
10773SOL    HW133218   3.106   6.023   6.492  1.4008 -0.9418 -1.2786
10773SOL    HW233219   3.108   5.991   6.652  0.7834  0.7635 -0.9017
10774SOL     OW33220   5.151   4.841   5.936 -0.0444  0.2815 -0.2445
10774SOL    HW133221   5.133   4.842   5.837  1.6130  1.3758 -0.5672
10774SOL    HW233222   5.241   4.881   5.954 -0.6765  0.8861  1.7934
10775SOL     OW33223   1.078   1.197   0.438 -0.6135 -0.0161  0.1580
10775SOL    HW133224   1.123   1.151   0.514 -0.0622  0.6708  0.2587
10775SOL    HW233225   1.122   1.285   0.421 -2.9380  1.4907  1.3720
10776SOL     OW33226   4.396   5.006   2.560 -0.2435 -0.1559  0.2302
10776SOL    HW133227   4.381   4.923   2.613  1.4048  0.7196  2.2014
10776SOL    HW233228   4.403   4.983   2.463  0.7400 -2.4059  0.7784
10777SOL     OW33229   1.690   1.878   3.909 -0.1875  0.1825 -0.1822
10777SOL    HW133230   1.746   1.945   3.861 -2.3123  1.6613 -0.7118
10777SOL    HW233231   1.661   1.915   3.997 -0.8531 -0.2884 -0.1957
10778SOL     OW33232   5.830   3.487   6.327 -0.5460 -0.1442 -0.5709
10778SOL    HW133233   5.773   3.507   6.247  0.6252  1.6963 -0.9934
10778SOL    HW233234   5.920   3.454   6.296 -0.8268 -1.5954  0.0613
10779SOL     OW33235   3.682   0.614   3.010  0.4403 -0.2900  0.7382
10779SOL    HW133236   3.608   0.629   2.945 -0.2496 -0.2014  1.5220
10779SOL    HW233237   3.768   0.602   2.961 -0.4545 -3.0024 -0.3404
10780SOL     OW33238   6.148   6.863   4.687 -0.2634 -0.1522 -0.4690
10780SOL    HW133239   6.051   6.883   4.674  0.0125  1.4232 -0.2508
10780SOL    HW233240   6.162   6.764   4.684 -1.6673 -0.3432 -1.9178
10781SOL     OW33241   0.227   3.377   4.112  0.3992  0.7685  0.4903
10781SOL    HW133242   0.246   3.342   4.020  0.7378  2.1478  0.0126
10781SOL    HW233243   0.134   3.351   4.139  0.8274 -0.9576  0.4076
10782SOL     OW33244   1.383   1.584   4.441 -0.9122  0.1200 -0.4792
10782SOL    HW133245   1.447   1.630   4.380  0.0975 -0.2003  0.3217
10782SOL    HW233246   1.431   1.548   4.520 -1.8065 -1.5432 -0.6296
10783SOL     OW33247   0.805   3.688   0.639  0.0189 -0.0220 -0.2316
10783SOL    HW133248   0.903   3.670   0.629  0.6943  1.6648  2.3967
10783SOL    HW233249   0.768   3.635   0.715 -0.4903  1.2431  0.4386
10784SOL     OW33250   6.816   6.593   6.077 -0.1537  0.5596  0.3805
10784SOL    HW133251   6.744   6.588   6.008  1.7104 -0.8994 -1.6119
10784SOL    HW233252   6.804   6.518   6.143  0.9324 -1.3802 -1.5073
10785SOL     OW33253   3.090   2.090   2.219  0.1355 -0.4482  0.1870
10785SOL    HW133254   3.071   2.003   2.173  0.2041 -0.1700 -0.3843
10785SOL    HW233255   3.014   2.153   2.202  0.4588 -0.1277 -0.0914
10786SOL     OW33256   2.037   4.619   1.869 -0.3311 -0.1224 -0.1047
10786SOL    HW133257   2.038   4.632   1.968  0.1542  1.8304 -0.3165
10786SOL    HW233258   2.130   4.629   1.833 -0.7265  0.7936 -0.9060
10787SOL     OW33259   6.049   3.528   3.386 -0.4834 -0.6486 -0.1127
10787SOL    HW133260   6.069   3.514   3.483  0.1153 -3.6942 -0.5586
10787SOL    HW233261   6.124   3.578   3.343 -1.7383  2.6961  1.3062
10788SOL     OW33262   2.238   0.229   3.190 -0.0635 -0.0214  0.6024
10788SOL    HW133263   2.289   0.274   3.117 -2.4044  1.2891 -0.3343
10788SOL    HW233264   2.156   0.186   3.152 -0.2154 -1.2090  2.1746
10789SOL     OW33265   2.764   2.449   0.641  0.3919 -0.2795  0.2742
10789SOL    HW133266   2.738   2.385   0.713 -2.1650 -0.2392 -0.4922
10789SOL    HW233267   2.781   2.399   0.556 -1.5320 -0.0420 -0.3047
10790SOL     OW33268   3.235   2.852   0.472  0.4139 -1.1139  0.0173
10790SOL    HW133269   3.185   2.938   0.466  1.0366 -0.8212 -1.3100
10790SOL    HW233270   3.278   2.844   0.562 -0.1269 -0.3166  0.3528
10791SOL     OW33271   3.948   5.120   0.262  0.0623 -0.1558  0.3673
10791SOL    HW133272   4.006   5.096   0.184 -1.3737 -0.0189 -0.7956
10791SOL    HW233273   3.884   5.045   0.280 -1.3568  0.8456 -0.3105
10792SOL     OW33274   0.436   0.274   6.690 -0.1725  0.1901 -0.1176
10792SOL    HW133275   0.358   0.234   6.642  0.8070 -1.3146 -0.5461
10792SOL    HW233276   0.485   0.202   6.739  1.9371  0.7492 -1.2848
10793SOL     OW33277   3.385   3.371   1.717  0.2758  0.2082 -0.5877
10793SOL    HW133278   3.314   3.329   1.773  1.0583 -1.3527 -0.7077
10793SOL    HW233279   3.459   3.404   1.775 -0.3609  1.5202 -0.4897
10794SOL     OW33280   4.927   1.030   3.352 -0.1002  0.2739  0.2452
10794SOL    HW133281   4.883   0.941   3.364  1.3416 -0.6264 -0.8336
10794SOL    HW233282   4.895   1.072   3.266  0.8731 -0.2411 -0.3829
10795SOL     OW33283   5.513   5.229   0.064  0.0034 -0.0897 -0.6693
10795SOL    HW133284   5.432   5.195   0.018  0.7965 -0.3722 -1.8879
10795SOL    HW233285   5.595   5.209   0.010  0.7321  1.7874 -0.3638
10796SOL     OW33286   3.435   1.253   0.059 -0.6560 -0.8618  0.2073
10796SOL    HW133287   3.375   1.332   0.049 -0.1846 -0.7097 -1.9704
10796SOL    HW233288   3.531   1.281   0.049 -0.3120 -1.3777  1.7722
10797SOL     OW33289   1.712   1.326   2.687  0.4056 -0.2145 -0.0313
10797SOL    HW133290   1.637   1.271   2.650 -1.1104  0.8574  1.2565
10797SOL    HW233291   1.736   1.398   2.622  0.7819 -0.9492 -0.7231
10798SOL     OW33292   6.394   0.407   5.603  0.3920  0.0862  0.1806
10798SOL    HW133293   6.436   0.408   5.512 -0.8940 -0.9041 -0.4429
10798SOL    HW233294   6.459   0.368   5.669  0.2578 -2.0612 -0.8878
10799SOL     OW33295   2.730   6.419   0.887 -0.1693  0.0150  0.0483
10799SOL    HW133296   2.754   6.500   0.940 -2.0328 -0.2238  1.3329
10799SOL    HW233297   2.813   6.381   0.845  1.0646  1.3396  1.1811
10800SOL     OW33298   1.491   0.535   4.639  0.6104  0.2239  0.1188
10800SOL    HW133299   1.541   0.450   4.629  0.3595  0.2009 -1.0061
10800SOL    HW233300   1.406   0.531   4.587  0.9618  1.4442 -0.5913
10801SOL     OW33301   1.796   3.742   0.021 -0.2933  0.2773  0.1845
10801SOL    HW133302   1.859   3.794  -0.037  1.2785 -1.0205  0.6442
10801SOL    HW233303   1.831   3.740   0.114 -1.9709  0.9903  0.8809
10802SOL     OW33304   1.225   5.620   4.479 -0.3535  0.2107 -0.0338
10802SOL    HW133305   1.274   5.548   4.430  0.2372  0.6736 -0.1360
10802SOL    HW233306   1.156   5.579   4.538  1.8064 -0.6486  2.0613
10803SOL     OW33307   3.524   6.827   6.997  0.8551  0.9401 -0.4489
10803SOL    HW133308   3.436   6.791   6.966  0.7726  1.0163 -0.3081
10803SOL    HW233309   3.508   6.900   7.064  1.0075  1.5514 -1.0588
10804SOL     OW33310   6.082   3.557   4.432 -0.4392  0.5951  0.0735
10804SOL    HW133311   6.007   3.574   4.367 -0.5636  0.2840  0.1315
10804SOL    HW233312   6.169   3.568   4.385 -0.5262 -0.4558 -0.3811
10805SOL     OW33313   1.946   6.758   6.512  0.2987  0.9469  0.4223
10805SOL    HW133314   2.029   6.724   6.556  0.8600  0.8098 -0.7033
10805SOL    HW233315   1.915   6.840   6.560  1.0649  0.9815  0.8857
10806SOL     OW33316   0.645   0.599   1.581 -0.4729  0.4754 -0.1155
10806SOL    HW133317   0.604   0.550   1.504 -0.6304 -0.3677  0.4892
10806SOL    HW233318   0.587   0.676   1.606 -0.8153  0.2944 -0.3504
10807SOL     OW33319   0.550   0.205   0.392 -0.2162  0.0215  0.1637
10807SOL    HW133320   0.476   0.138   0.398 -0.2874 -0.0601 -1.2276
10807SOL    HW233321   0.615   0.190   0.467 -0.3877 -1.4213  0.0540
10808SOL     OW33322   3.518   0.513   0.517 -0.1396  0.2710 -0.5419
10808SOL    HW133323   3.505   0.463   0.603 -1.0245  1.9559  0.3573
10808SOL    HW233324   3.443   0.577   0.503  0.5592  0.8328 -2.0210
10809SOL     OW33325   2.701   5.127   3.945  0.0594  0.2546 -0.0376
10809SOL    HW133326   2.650   5.213   3.948 -1.0221 -0.3685 -0.0796
10809SOL    HW233327   2.679   5.073   4.026  1.6216  0.4842  0.5814
10810SOL     OW33328   3.394   1.554   2.989  0.0407 -0.1415  0.0575
10810SOL    HW133329   3.387   1.591   2.896 -0.7458 -0.3465  0.0318
10810SOL    HW233330   3.306   1.516   3.017 -0.5880  2.3331  1.9030
10811SOL     OW33331   2.810   0.227   2.042  0.5720  0.2153 -0.1701
10811SOL    HW133332   2.801   0.144   2.097  0.5097 -0.1612 -0.7493
10811SOL    HW233333   2.903   0.232   2.005  0.0152 -0.6025 -1.7368
10812SOL     OW33334   3.561   1.226   5.236 -1.1278  0.6913  0.5253
10812SOL    HW133335   3.518   1.295   5.178 -1.5241  1.0484  1.2257
10812SOL    HW233336   3.642   1.265   5.280 -0.3259  0.1612 -0.4266
10813SOL     OW33337   5.514   2.241   1.727 -0.7712  0.0623  0.0389
10813SOL    HW133338   5.573   2.223   1.806 -1.1604  0.1978  0.3609
10813SOL    HW233339   5.495   2.155   1.679  0.5439  0.1452 -0.6859
10814SOL     OW33340   0.776   6.935   5.365  0.6769  0.5328 -0.1875
10814SOL    HW133341   0.742   6.871   5.434  1.1921  0.8759  0.3948
10814SOL    HW233342   0.872   6.914   5.344  0.3409  0.0016 -1.3162
10815SOL     OW33343   1.505   4.828   2.191 -0.4431 -0.6406 -0.5986
10815SOL    HW133344   1.536   4.749   2.138  0.1411  0.1463 -1.4694
10815SOL    HW233345   1.483   4.800   2.284  0.0293 -1.7684 -0.8179
10816SOL     OW33346   5.469   4.313   4.282  0.2592 -0.8748  0.1261
10816SOL    HW133347   5.539   4.289   4.349 -0.5117 -0.8193  0.9688
10816SOL    HW233348   5.381   4.274   4.310  0.0917 -1.6006 -1.3109
10817SOL     OW33349   0.939   6.927   1.992  0.5656 -0.0110 -0.4317
10817SOL    HW133350   0.981   6.873   1.919  1.6186 -0.0680  0.1916
10817SOL    HW233351   0.996   6.921   2.074 -0.4333  0.3143  0.2955
10818SOL     OW33352   2.488   2.803   1.517  0.0400  0.7111 -0.2148
10818SOL    HW133353   2.397   2.807   1.559  0.2285  0.3194  0.2421
10818SOL    HW233354   2.558   2.820   1.586  0.3113  1.3001 -0.6215
10819SOL     OW33355   5.032   0.945   1.021 -0.3177 -0.3049  0.2541
10819SOL    HW133356   5.009   0.850   1.042  1.1635 -0.6569  0.3555
10819SOL    HW233357   5.102   0.977   1.084  0.8722  0.1028 -1.2214
10820SOL     OW33358   6.302   5.355   2.519 -0.0479 -0.1147 -0.3265
10820SOL    HW133359   6.294   5.301   2.435  0.4839 -1.7493  0.6150
10820SOL    HW233360   6.215   5.398   2.540 -1.1852 -2.4042  0.0016
10821SOL     OW33361   3.225   0.422   3.806 -0.4719 -0.2594 -0.2648
10821SOL    HW133362   3.198   0.516   3.787 -1.2632 -0.3771  0.2472
10821SOL    HW233363   3.312   0.422   3.855  0.0298  0.1592 -1.1334
10822SOL     OW33364   6.869   0.014   1.488 -0.0291  0.1308 -0.1122
10822SOL    HW133365   6.790  -0.025   1.440  0.2988 -0.1795 -0.4039
10822SOL    HW233366   6.918  -0.059   1.535 -0.3154  0.4221  0.6582
10823SOL     OW33367   5.381   7.001   0.734  0.1139  0.1579 -0.0903
10823SOL    HW133368   5.432   7.087   0.738  1.1760 -0.4888  1.1553
10823SOL    HW233369   5.289   7.016   0.771  0.0080  0.9205 -0.6329
10824SOL     OW33370   6.610   4.060   3.240 -0.0100 -0.3691 -0.3783
10824SOL    HW133371   6.661   3.995   3.296 -1.1975 -1.0300 -0.0134
10824SOL    HW233372   6.570   4.130   3.299  0.1707 -0.0685 -0.6129
10825SOL     OW33373   1.615   0.471   1.171 -0.5362  1.1089  0.1527
10825SOL    HW133374   1.707   0.434   1.160  0.4680  3.1913  0.9792
10825SOL    HW233375   1.586   0.513   1.085 -1.8660 -1.7363 -0.9360
10826SOL     OW33376   0.761   3.885   2.349  0.0961  0.1570  0.0657
10826SOL    HW133377   0.755   3.983   2.369  1.4022 -0.0492  1.6991
10826SOL    HW233378   0.677   3.839   2.377 -0.9042  0.8903 -1.5479
10827SOL     OW33379   6.170   5.116   0.941  0.3929  0.5397 -0.3477
10827SOL    HW133380   6.170   5.061   0.857  0.6499 -0.2614  0.1656
10827SOL    HW233381   6.120   5.067   1.013 -1.5279  2.0636 -0.5416
10828SOL     OW33382   0.734   4.361   2.212  0.4469  0.4165  0.1989
10828SOL    HW133383   0.788   4.445   2.204  1.5302 -0.3572 -0.8262
10828SOL    HW233384   0.673   4.353   2.133  0.2501  0.3039  0.3624
10829SOL     OW33385   1.038   5.121   1.720 -0.1599 -0.4603  0.0131
10829SOL    HW133386   1.116   5.080   1.675 -0.2717  0.2340 -0.8487
10829SOL    HW233387   0.955   5.068   1.699 -0.1397 -0.3936 -0.2424
10830SOL     OW33388   2.882   1.180   5.609 -0.2827 -0.3753 -0.2522
10830SOL    HW133389   2.917   1.228   5.529  0.4168 -0.7683 -0.1884
10830SOL    HW233390   2.914   1.227   5.692 -0.1023 -0.5958 -0.1968
10831SOL     OW33391   2.509   6.437   3.078  0.2516 -0.0089  0.2241
10831SOL    HW133392   2.554   6.394   3.000 -0.5171  0.4046 -0.4648
10831SOL    HW233393   2.537   6.391   3.163 -0.2657 -1.6306 -0.4458
10832SOL     OW33394   4.463   5.394   5.100  0.4780 -0.0352 -0.0754
10832SOL    HW133395   4.472   5.299   5.128  1.3366 -1.1859 -3.7158
10832SOL    HW233396   4.551   5.441   5.109  0.9762 -0.6490 -1.4892
10833SOL     OW33397   1.030   3.332   6.899 -0.0350 -0.7226  0.6299
10833SOL    HW133398   0.991   3.417   6.864 -0.4374 -0.2166  2.2114
10833SOL    HW233399   0.959   3.280   6.946  0.5706 -1.1473  1.0966
10834SOL     OW33400   2.023   6.995   6.198 -0.2929 -0.2660 -0.2896
10834SOL    HW133401   1.933   7.033   6.221 -0.8558 -0.2641 -2.2949
10834SOL    HW233402   2.043   7.013   6.102  1.4636 -1.0838 -0.1164
10835SOL     OW33403   0.709   5.755   0.314 -0.0258  0.3518 -0.0567
10835SOL    HW133404   0.747   5.800   0.233  0.9428 -1.2688 -0.5496
10835SOL    HW233405   0.683   5.824   0.381 -3.5967  1.9659 -2.8155
10836SOL     OW33406   5.634   2.067   0.787  0.4766 -0.8095 -0.6169
10836SOL    HW133407   5.640   2.004   0.710 -0.4314  1.1669 -2.3968
10836SOL    HW233408   5.636   2.161   0.754 -2.1390  0.1445  1.5256
10837SOL     OW33409   4.606   3.821   5.655 -0.2549 -0.8314  0.5014
10837SOL    HW133410   4.593   3.877   5.573  1.8719 -2.0447 -0.7627
10837SOL    HW233411   4.530   3.757   5.665 -1.4447  0.5415  0.5510
10838SOL     OW33412   2.208   6.595   2.354 -0.2093 -0.0829  0.3323
10838SOL    HW133413   2.131   6.624   2.411  0.3689  1.8876  0.2002
10838SOL    HW233414   2.181   6.596   2.258 -0.5440 -1.2224  0.4091
10839SOL     OW33415   2.469   0.616   5.576  0.6855 -0.0255  0.3818
10839SOL    HW133416   2.526   0.697   5.592  0.9598 -0.4441  1.7311
10839SOL    HW233417   2.481   0.552   5.653 -0.4552 -0.7970 -0.0588
10840SOL     OW33418   3.233   3.763   4.959  0.4032  0.5427  0.0604
10840SOL    HW133419   3.240   3.861   4.937  1.1456  0.3221 -0.7595
10840SOL    HW233420   3.159   3.722   4.906  2.2797 -0.0191 -2.3584
10841SOL     OW33421   6.579   2.185   2.884 -0.3790 -0.2290  0.0404
10841SOL    HW133422   6.628   2.117   2.828 -0.6239 -0.6655  0.3455
10841SOL    HW233423   6.591   2.276   2.844 -1.3369 -0.6481 -1.2726
10842SOL     OW33424   1.935   3.684   1.478 -0.0591 -0.4275  0.0045
10842SOL    HW133425   1.904   3.624   1.551 -0.6796  2.1378  1.9913
10842SOL    HW233426   2.033   3.672   1.464  0.1235 -0.8211  1.4592
10843SOL     OW33427   1.094   0.218   1.348  0.3434  0.1561  0.7010
10843SOL    HW133428   1.188   0.196   1.320 -0.0092  0.5059 -0.8072
10843SOL    HW233429   1.031   0.194   1.275 -0.5176  1.9459  0.8196
10844SOL     OW33430   5.855   2.964   5.550 -0.0010 -0.1151 -0.0189
10844SOL    HW133431   5.902   3.052   5.558 -0.1089  0.0214 -0.7789
10844SOL    HW233432   5.812   2.941   5.637 -1.4529  1.4303 -0.2832
10845SOL     OW33433   1.315   1.676   3.843 -0.2966  0.2509 -0.3849
10845SOL    HW133434   1.297   1.582   3.815  1.2108  0.1733 -1.1933
10845SOL    HW233435   1.398   1.679   3.900 -1.3933  0.8658  1.2806
10846SOL     OW33436   4.016   5.143   3.416  0.4450 -0.1010 -0.0349
10846SOL    HW133437   4.031   5.045   3.409  1.8169  0.0604  0.2668
10846SOL    HW233438   4.035   5.186   3.328 -2.1601 -0.2942 -0.7704
10847SOL     OW33439   4.259   6.519   5.434 -0.2638  0.1332 -0.2221
10847SOL    HW133440   4.334   6.564   5.482 -1.7390  1.8964  0.5099
10847SOL    HW233441   4.172   6.540   5.478 -1.5860  0.9130 -2.9595
10848SOL     OW33442   5.710   6.470   7.000  0.5434  0.0912 -0.1046
10848SOL    HW133443   5.791   6.426   6.961  0.0372 -2.3548  1.3368
10848SOL    HW233444   5.737   6.549   7.054  1.9136 -0.2849 -0.2027
10849SOL     OW33445   1.283   3.447   6.904  0.6536  0.2259  0.1831
10849SOL    HW133446   1.191   3.413   6.881  0.1990  1.0724  0.7418
10849SOL    HW233447   1.344   3.369   6.920  0.3493 -0.3703 -1.3560
10850SOL     OW33448   3.100   3.172   6.445 -0.3436  0.7743  0.2776
10850SOL    HW133449   3.194   3.199   6.424  0.0294 -2.0422 -2.3387
10850SOL    HW233450   3.100   3.115   6.528  0.3295  0.4607  0.0712
10851SOL     OW33451   4.104   5.797   0.946 -0.0866 -0.1206  0.0795
10851SOL    HW133452   4.155   5.745   0.877  0.5085  0.8472 -0.2318
10851SOL    HW233453   4.117   5.755   1.036 -0.2059 -0.9212 -0.2725
10852SOL     OW33454   1.893   1.785   4.776 -0.0150 -0.4567  0.6204
10852SOL    HW133455   1.956   1.709   4.756 -1.2762 -1.4525  0.2692
10852SOL    HW233456   1.820   1.753   4.837 -0.7529  0.3802  0.2069
10853SOL     OW33457   6.905   2.117   2.066  0.1243 -0.3443 -0.3041
10853SOL    HW133458   6.855   2.102   1.981  1.4361  0.1544 -1.1910
10853SOL    HW233459   7.002   2.132   2.046  0.4523 -0.1633  1.2757
10854SOL     OW33460   0.394   6.876   1.848  0.1769  0.3963 -0.2723
10854SOL    HW133461   0.411   6.872   1.749 -0.7223 -0.4228 -0.4062
10854SOL    HW233462   0.478   6.852   1.897  0.5424  0.4924 -0.8434
10855SOL     OW33463   0.672   6.614   0.965 -0.5979  0.8249 -0.2703
10855SOL    HW133464   0.761   6.583   0.932 -1.0236 -3.0810  1.6186
10855SOL    HW233465   0.599   6.573   0.910 -1.2620  1.7083 -0.0752
10856SOL     OW33466   2.049   6.315   0.493 -0.1480  0.0434  0.5147
10856SOL    HW133467   2.109   6.240   0.465 -0.9601 -0.1409 -0.8277
10856SOL    HW233468   1.958   6.279   0.515 -0.6800  0.6421 -0.5906
10857SOL     OW33469   0.265   3.677   2.027 -0.1605 -0.0912  0.0187
10857SOL    HW133470   0.288   3.740   2.102  1.6403 -0.0269 -0.5462
10857SOL    HW233471   0.287   3.584   2.054 -1.2843 -0.3113  0.2389
10858SOL     OW33472   3.148   0.611   5.621  0.2356 -0.4962 -0.3621
10858SOL    HW133473   3.133   0.664   5.704  1.6809 -0.1815 -0.2716
10858SOL    HW233474   3.082   0.536   5.617  0.1623 -0.5434  1.0970
10859SOL     OW33475   2.050   5.938   6.113  0.1065  0.8420  0.4073
10859SOL    HW133476   2.146   5.918   6.095  0.4831  1.6074  1.5051
10859SOL    HW233477   2.014   5.996   6.039  1.2899  2.9180  1.3907
10860SOL     OW33478   5.639   3.636   4.539  0.4379 -0.3444 -0.3681
10860SOL    HW133479   5.715   3.701   4.545  0.7220 -0.7717  3.7943
10860SOL    HW233480   5.557   3.677   4.578 -0.3930 -1.2581 -1.1127
10861SOL     OW33481   0.199   4.743   1.603 -0.4984 -0.1637  0.5717
10861SOL    HW133482   0.235   4.704   1.688  0.1589  0.4550  0.5864
10861SOL    HW233483   0.210   4.677   1.529 -1.0167 -0.6825  0.9437
10862SOL     OW33484   3.751   3.423   3.882  0.3293 -0.0254 -0.1513
10862SOL    HW133485   3.666   3.372   3.893 -0.4300  1.3267  0.4777
10862SOL    HW233486   3.731   3.518   3.857  1.6838  0.1199 -0.8018
10863SOL     OW33487   6.408   3.029   6.359  0.5242  0.6408  0.2921
10863SOL    HW133488   6.457   3.069   6.281  0.1125  3.1749  1.2548
10863SOL    HW233489   6.469   3.025   6.438  1.2011 -2.6725 -0.2108
10864SOL     OW33490   0.757   1.086   4.381  0.1884 -0.1415  0.1288
10864SOL    HW133491   0.758   1.128   4.472  1.6153 -0.6005  0.3492
10864SOL    HW233492   0.761   1.158   4.312  0.0247  0.1775  0.4451
10865SOL     OW33493   5.723   1.624   4.098  0.2565  0.2764  0.0702
10865SOL    HW133494   5.670   1.623   4.013  1.9000 -0.4201 -1.0037
10865SOL    HW233495   5.740   1.719   4.126 -2.0853  0.5214  0.8347
10866SOL     OW33496   4.305   2.331   3.441  0.1026  0.1250  0.5038
10866SOL    HW133497   4.207   2.308   3.441  0.7520 -2.9740  0.8621
10866SOL    HW233498   4.347   2.296   3.525  2.1268 -1.6660 -1.1746
10867SOL     OW33499   6.963   4.671   0.953  0.1471 -0.6064 -0.5675
10867SOL    HW133500   6.953   4.764   0.988  0.5969 -0.3484 -1.0980
10867SOL    HW233501   6.934   4.668   0.857  0.7076 -0.8672 -0.7368
10868SOL     OW33502   1.969   2.720   4.269 -0.1672 -0.7605 -0.0632
10868SOL    HW133503   1.992   2.627   4.298  2.3173 -0.7837 -1.7932
10868SOL    HW233504   2.031   2.785   4.312 -1.1661  0.0009  0.2662
10869NA      NA33505   6.179   0.244   6.521 -0.0255 -0.2264 -0.0280
10870NA      NA33506   0.153   5.742   6.639  0.5406 -0.2000  0.4428
10871NA      NA33507   3.120   5.025   3.529  0.1422  0.7008 -0.0274
10872NA      NA33508   4.918   3.033   1.907 -0.5062  0.3231  0.2335
10873NA      NA33509   4.655   1.873   4.879 -0.3707  0.2064  0.1492
10874NA      NA33510   3.981   5.377   6.933 -0.4094  0.2189  0.4326
10875NA      NA33511   3.912   3.622   2.229 -0.8357  0.3040 -0.1626
10876NA      NA33512   4.457   4.382   1.732 -0.1275  0.0601 -0.1589
10877NA      NA33513   3.802   6.041   0.894  0.5736  0.0231  0.2727
10878NA      NA33514   2.972   3.854   5.373  0.0921  0.1523  0.1018
10879NA      NA33515   6.106   0.437   4.524  0.2946 -0.0481 -0.4123
10880NA      NA33516   2.143   3.073   5.105 -0.3655 -0.2702  0.3078
10881NA      NA33517   3.925   1.476   2.641 -0.0658  0.8232 -0.5341
10882NA      NA33518   0.398   3.636   3.947  0.0369  0.0236 -0.1898
   7.01342   7.01342   7.01342
