CNT in water
33518
    1C        C    1   2.842   2.764   4.743 -0.0805 -0.1400 -0.0004
    1C        C    2   2.895   2.716   4.865 -0.1826 -0.0048  0.0988
    1C        C    3   2.842   2.769   4.983 -0.0597  0.2297  0.0522
    1C        C    4   2.855   2.777   4.251  0.5074  0.5221  0.0085
    1C        C    5   2.904   2.728   4.375  0.2146  0.2582  0.0190
    1C        C    6   2.850   2.775   4.497  0.2475  0.4182 -0.0267
    1C        C    7   3.008   2.638   4.620  0.0882  0.3573 -0.1447
    1C        C    8   2.894   2.721   4.619 -0.3132 -0.1862 -0.0846
    1C        C    9   3.075   2.604   4.739 -0.4418 -0.6072 -0.1096
    1C        C   10   3.009   2.633   4.861 -0.1244  0.0812 -0.0981
    1C        C   11   3.179   2.491   4.969  0.0825  0.0429 -0.0790
    1C        C   12   3.060   2.565   4.972 -0.0876 -0.2202 -0.2973
    1C        C   13   2.853   2.773   3.765  0.4647  0.4890  0.1547
    1C        C   14   2.901   2.721   3.887  0.5041  0.3362  0.0747
    1C        C   15   2.849   2.771   4.008 -0.0985  0.2694 -0.1542
    1C        C   16   3.013   2.635   4.132  0.1638  0.5818  0.2440
    1C        C   17   2.900   2.720   4.130  0.1432  0.5485 -0.1402
    1C        C   18   3.073   2.598   4.254  0.4531 -0.2590 -0.1389
    1C        C   19   3.015   2.641   4.376  0.2337  0.2747 -0.4273
    1C        C   20   3.208   2.561   4.498 -0.0742  0.2185  0.2887
    1C        C   21   3.074   2.605   4.499  0.0487  0.6141 -0.2368
    1C        C   22   3.276   2.529   4.618  0.3273  0.5065  0.1425
    1C        C   23   3.206   2.547   4.739 -0.2861 -0.2571 -0.0909
    1C        C   24   3.409   2.477   4.859  0.0028  0.1059  0.3126
    1C        C   25   3.268   2.501   4.858 -0.0926 -0.4451 -0.2630
    1C        C   26   3.488   2.471   4.974  0.3754  0.3489  0.0738
    1C        C   27   2.845   2.768   3.276 -0.3818 -0.7611  0.4430
    1C        C   28   2.900   2.723   3.398 -0.3486 -0.7565  0.4307
    1C        C   29   2.855   2.775   3.521  0.4638  0.3117  0.2882
    1C        C   30   3.010   2.630   3.642  0.3449  0.0839  0.1066
    1C        C   31   2.903   2.722   3.643  0.5302  0.3019  0.2579
    1C        C   32   3.069   2.594   3.765  0.0424 -0.3563  0.1257
    1C        C   33   3.009   2.630   3.888  0.6391  0.4957  0.1780
    1C        C   34   3.206   2.551   4.010  0.0614 -0.3763  0.5802
    1C        C   35   3.073   2.597   4.010  0.4146  0.6605  0.3425
    1C        C   36   3.274   2.530   4.133  0.5609 -0.2468  0.3313
    1C        C   37   3.204   2.548   4.255  0.3257 -0.5934  0.2509
    1C        C   38   3.414   2.512   4.375  0.2145  0.5410  0.2365
    1C        C   39   3.276   2.542   4.376  0.1177  0.1123  0.4102
    1C        C   40   3.484   2.496   4.496  0.4976  0.4394  0.0629
    1C        C   41   3.413   2.495   4.618  0.2392  0.1408 -0.0852
    1C        C   42   3.626   2.476   4.734 -0.2115 -0.1016  0.0916
    1C        C   43   3.484   2.475   4.738 -0.2115  0.0829  0.1777
    1C        C   44   3.699   2.484   4.855  0.0268  0.1480 -0.0666
    1C        C   45   3.627   2.485   4.975  0.3813  0.2963  0.1478
    1C        C   46   2.832   2.752   2.790  0.5622  0.2594 -0.1667
    1C        C   47   2.888   2.708   2.912 -0.5483 -0.3912  0.1279
    1C        C   48   2.843   2.765   3.033  0.0203 -0.4086  0.3540
    1C        C   49   3.009   2.632   3.157  0.3904  0.1884 -0.1764
    1C        C   50   2.900   2.721   3.155  0.0522 -0.2044  0.4157
    1C        C   51   3.071   2.593   3.278 -0.0595  0.0387  0.0062
    1C        C   52   3.014   2.640   3.399 -0.0268 -0.3251  0.1633
    1C        C   53   3.205   2.546   3.521  0.1118 -0.5444  0.0403
    1C        C   54   3.075   2.602   3.520  0.4839  0.3382  0.1189
    1C        C   55   3.270   2.527   3.645 -0.3036 -0.5071  0.2693
    1C        C   56   3.202   2.546   3.767  0.0587 -0.3091  0.4434
    1C        C   57   3.411   2.503   3.887 -0.1111 -0.6240 -0.1068
    1C        C   58   3.272   2.526   3.888 -0.0731 -0.3868  0.5086
    1C        C   59   3.482   2.489   4.008  0.3170 -0.3519 -0.3207
    1C        C   60   3.412   2.502   4.130  0.5801 -0.1047 -0.1930
    1C        C   61   3.624   2.497   4.250 -0.0242 -0.5936  0.3823
    1C        C   62   3.482   2.500   4.252 -0.0196 -0.0616  0.1596
    1C        C   63   3.696   2.505   4.371  0.4654 -0.2397  0.0690
    1C        C   64   3.625   2.498   4.493  0.5100 -0.1244  0.1030
    1C        C   65   3.833   2.537   4.611  0.4187 -1.0496 -0.2366
    1C        C   66   3.698   2.497   4.614  0.1851 -0.2477  0.2987
    1C        C   67   3.899   2.563   4.733  0.1172 -0.1861 -0.2492
    1C        C   68   3.835   2.522   4.852  0.0883 -0.0862 -0.2308
    1C        C   69   4.050   2.573   4.965  0.2956 -0.2628 -0.0554
    1C        C   70   3.920   2.521   4.963  0.2098 -0.0439 -0.3226
    1C        C   71   2.817   2.729   2.305 -0.0180 -0.0912 -0.1188
    1C        C   72   2.875   2.685   2.426  0.5514 -0.1822 -0.4146
    1C        C   73   2.821   2.735   2.547  0.6754  0.5127 -0.6385
    1C        C   74   3.000   2.623   2.670 -0.0353  0.1033  0.1501
    1C        C   75   2.886   2.706   2.668  0.1963  0.4193 -0.3961
    1C        C   76   3.064   2.589   2.792 -0.1681 -0.4885  0.0577
    1C        C   77   3.004   2.629   2.914 -0.4533 -0.2628 -0.1508
    1C        C   78   3.201   2.545   3.032 -0.1734 -0.3262 -0.1453
    1C        C   79   3.070   2.597   3.035 -0.1834 -0.3394 -0.3146
    1C        C   80   3.266   2.515   3.154 -0.2805 -0.2400 -0.0671
    1C        C   81   3.202   2.542   3.277 -0.1230 -0.1229 -0.0105
    1C        C   82   3.408   2.492   3.399  0.1266  0.4508  0.0266
    1C        C   83   3.270   2.519   3.398 -0.0180 -0.2551 -0.0924
    1C        C   84   3.480   2.493   3.521  0.0123  0.4856  0.0947
    1C        C   85   3.409   2.503   3.642 -0.2684 -0.2830 -0.0024
    1C        C   86   3.621   2.500   3.761 -0.1576 -0.0596  0.2486
    1C        C   87   3.480   2.495   3.764 -0.1446 -0.9082 -0.1086
    1C        C   88   3.691   2.515   3.883  0.2455 -0.2570  0.0434
    1C        C   89   3.623   2.499   4.005  0.3006  0.0641  0.1198
    1C        C   90   3.827   2.550   4.127 -0.1395 -0.3433 -0.2978
    1C        C   91   3.692   2.509   4.128 -0.0035 -0.8036  0.3726
    1C        C   92   3.899   2.568   4.248  0.2968 -0.5955 -0.5152
    1C        C   93   3.833   2.541   4.369  0.4189 -0.0729 -0.3292
    1C        C   94   4.028   2.627   4.490  0.0136  0.0646  0.3145
    1C        C   95   3.901   2.566   4.491  0.4482 -0.8658 -0.1767
    1C        C   96   4.086   2.665   4.612  0.1695  0.3854  0.1405
    1C        C   97   4.028   2.623   4.734 -0.0780  0.2287 -0.0317
    1C        C   98   4.189   2.760   4.856 -0.2011  0.0769  0.2569
    1C        C   99   4.099   2.650   4.854  0.1959 -0.2447 -0.0872
    1C        C  100   4.217   2.835   4.972  0.0646  0.3315  0.0320
    1C        C  101   2.827   2.735   2.065  0.3844 -0.0180  0.0544
    1C        C  102   2.982   2.586   2.187 -0.1377 -0.7631 -0.0180
    1C        C  103   2.869   2.675   2.184  0.4544  0.0002  0.0404
    1C        C  104   3.058   2.576   2.306 -0.0462 -0.4711 -0.0501
    1C        C  105   2.995   2.612   2.427  0.3860 -0.4566  0.1738
    1C        C  106   3.193   2.535   2.546 -0.1718 -0.9262 -0.0660
    1C        C  107   3.061   2.585   2.549 -0.0734 -0.6857  0.3758
    1C        C  108   3.262   2.513   2.667 -0.3032 -0.9802 -0.0013
    1C        C  109   3.196   2.540   2.789  0.0285  0.0368 -0.0408
    1C        C  110   3.407   2.498   2.911 -0.0464 -0.4745 -0.0850
    1C        C  111   3.269   2.529   2.909  0.1780  0.5761 -0.0768
    1C        C  112   3.477   2.488   3.033 -0.2897  0.1875  0.1125
    1C        C  113   3.406   2.499   3.155 -0.2570 -0.0226  0.1496
    1C        C  114   3.618   2.497   3.273  0.0724  0.6397 -0.0933
    1C        C  115   3.477   2.490   3.276  0.0790  0.5595 -0.0014
    1C        C  116   3.691   2.508   3.394 -0.0997  0.3092  0.0411
    1C        C  117   3.621   2.503   3.517  0.0737 -0.3015  0.1187
    1C        C  118   3.829   2.538   3.640 -0.2190 -0.0106 -0.3020
    1C        C  119   3.692   2.505   3.639 -0.1387 -0.3752  0.2435
    1C        C  120   3.896   2.569   3.760 -0.0624 -0.5092 -0.2566
    1C        C  121   3.828   2.549   3.883  0.2504 -0.2728 -0.0446
    1C        C  122   4.021   2.633   4.005  0.0344  0.3165  0.1730
    1C        C  123   3.896   2.566   4.005  0.2146 -0.0196 -0.0570
    1C        C  124   4.082   2.671   4.126  0.0261 -0.3912  0.4022
    1C        C  125   4.022   2.636   4.249  0.1141 -0.2662  0.4790
    1C        C  126   4.192   2.763   4.371  0.1781  0.0319 -0.2005
    1C        C  127   4.090   2.665   4.369  0.1498  0.0519  0.3818
    1C        C  128   4.238   2.814   4.494 -0.1854  0.2769 -0.1693
    1C        C  129   4.189   2.762   4.616 -0.0639  0.6397  0.0358
    1C        C  130   4.326   2.928   4.734 -0.1344  0.1495 -0.1247
    1C        C  131   4.246   2.810   4.736 -0.2694  0.2464  0.2938
    1C        C  132   4.355   2.998   4.853 -0.0614  0.4753 -0.3357
    1C        C  133   4.287   2.955   4.967  0.5682  0.0338 -0.1228
    1C        C  134   3.164   2.465   2.078  0.3122 -0.6288 -0.3226
    1C        C  135   3.029   2.501   2.081  0.3527 -0.5005 -0.0127
    1C        C  136   3.252   2.479   2.186 -0.0699 -0.2998 -0.0518
    1C        C  137   3.190   2.523   2.305 -0.0305 -0.4352  0.0189
    1C        C  138   3.402   2.485   2.423  0.1686  0.0946 -0.0087
    1C        C  139   3.263   2.511   2.425  0.0906 -0.3066 -0.0411
    1C        C  140   3.475   2.483   2.544  0.2528 -0.4460 -0.0671
    1C        C  141   3.401   2.492   2.664 -0.2155 -0.3776 -0.3569
    1C        C  142   3.613   2.487   2.788 -0.3929 -0.5037  0.4218
    1C        C  143   3.472   2.493   2.786 -0.3713 -0.1018 -0.2699
    1C        C  144   3.688   2.495   2.907 -0.0387 -0.3225  0.1890
    1C        C  145   3.618   2.492   3.030 -0.2857 -0.0523  0.0555
    1C        C  146   3.827   2.533   3.150  0.1504 -0.1950 -0.2423
    1C        C  147   3.689   2.502   3.151 -0.0240  0.5831 -0.1510
    1C        C  148   3.894   2.559   3.271 -0.4184  0.6320 -0.1005
    1C        C  149   3.829   2.535   3.394 -0.0025 -0.1822 -0.0312
    1C        C  150   4.022   2.618   3.517  0.2733 -0.2758  0.0380
    1C        C  151   3.895   2.557   3.517  0.0674  0.1476 -0.1254
    1C        C  152   4.084   2.661   3.637  0.0481 -0.5525  0.2575
    1C        C  153   4.024   2.629   3.760 -0.0385 -0.5539  0.2148
    1C        C  154   4.187   2.763   3.882 -0.2403  0.2738 -0.4439
    1C        C  155   4.078   2.673   3.882 -0.3717  0.4328  0.0183
    1C        C  156   4.237   2.813   4.004 -0.3589  0.2352 -0.3811
    1C        C  157   4.191   2.761   4.127 -0.4885  0.2456 -0.4268
    1C        C  158   4.329   2.922   4.247 -0.4953  0.1493 -0.1420
    1C        C  159   4.245   2.809   4.248 -0.3031  0.0068 -0.4165
    1C        C  160   4.370   2.979   4.370  0.1157  0.1713 -0.3551
    1C        C  161   4.326   2.924   4.492 -0.3130  0.3731 -0.4210
    1C        C  162   4.435   3.110   4.607  0.6049 -0.5194 -0.0144
    1C        C  163   4.360   2.990   4.612 -0.3189  0.0371 -0.2339
    1C        C  164   4.465   3.178   4.727  0.1528  0.0016 -0.1898
    1C        C  165   4.429   3.119   4.850  0.0806  0.3972 -0.0186
    1C        C  166   4.503   3.319   4.967  0.0176  0.2400 -0.1159
    1C        C  167   4.478   3.182   4.965  0.1067  0.2206  0.0677
    1C        C  168   3.468   2.428   2.070  0.0307  0.0139 -0.3352
    1C        C  169   3.392   2.458   2.184 -0.0742 -0.2994 -0.3213
    1C        C  170   3.612   2.468   2.303 -0.2405  0.1228  0.0757
    1C        C  171   3.470   2.465   2.301 -0.2372  0.0793 -0.2329
    1C        C  172   3.686   2.483   2.422 -0.0187  0.1439 -0.0648
    1C        C  173   3.616   2.492   2.544  0.2019  0.4293  0.0453
    1C        C  174   3.821   2.536   2.662 -0.5343  0.2984  0.0093
    1C        C  175   3.683   2.505   2.667 -0.4380 -0.0743  0.4597
    1C        C  176   3.891   2.555   2.783 -0.5730  0.5684 -0.0096
    1C        C  177   3.823   2.536   2.906 -0.1356 -0.0061  0.1516
    1C        C  178   4.021   2.614   3.027  0.3126  0.0690 -0.1732
    1C        C  179   3.891   2.561   3.027  0.0922  0.6018 -0.0944
    1C        C  180   4.081   2.654   3.148 -0.1705  0.4349 -0.0531
    1C        C  181   4.021   2.621   3.272 -0.2921  0.3749 -0.1263
    1C        C  182   4.192   2.744   3.394 -0.5985  0.4809 -0.1168
    1C        C  183   4.081   2.656   3.395  0.1302 -0.4502 -0.0870
    1C        C  184   4.246   2.794   3.514 -0.2307 -0.2389  0.0262
    1C        C  185   4.196   2.748   3.638 -0.1445 -0.2984  0.0385
    1C        C  186   4.326   2.917   3.756 -0.3564  0.6650 -0.0593
    1C        C  187   4.243   2.803   3.759 -0.1381  0.5005 -0.3228
    1C        C  188   4.370   2.976   3.877 -0.6435  0.9155 -0.0790
    1C        C  189   4.327   2.922   4.000 -0.6477  0.4751 -0.2741
    1C        C  190   4.426   3.106   4.124  0.2225 -0.1059  0.4293
    1C        C  191   4.367   2.978   4.123 -0.9433  0.4233 -0.1557
    1C        C  192   4.450   3.175   4.245  0.6225  0.1459  0.2039
    1C        C  193   4.426   3.109   4.367 -0.0595  0.2581  0.1267
    1C        C  194   4.503   3.312   4.486  0.4311 -0.0403  0.0940
    1C        C  195   4.459   3.178   4.486 -0.0182  0.1055  0.2025
    1C        C  196   4.515   3.384   4.607  0.4304  0.0618  0.0338
    1C        C  197   4.508   3.314   4.729  0.3359 -0.0577 -0.0394
    1C        C  198   4.546   3.530   4.848  1.2167  0.1719 -0.4449
    1C        C  199   4.530   3.388   4.848 -0.3793  0.3366 -0.1513
    1C        C  200   4.587   3.617   4.955  0.0553 -0.0743  0.2204
    1C        C  201   3.608   2.417   2.070  0.0058 -0.4423  0.4319
    1C        C  202   3.818   2.516   2.180 -0.1107  0.3662 -0.0614
    1C        C  203   3.684   2.468   2.180  0.1192 -0.2894  0.2849
    1C        C  204   3.892   2.546   2.298 -0.0061 -0.1265 -0.0020
    1C        C  205   3.823   2.519   2.419  0.1037 -0.3094  0.0223
    1C        C  206   4.017   2.609   2.540 -0.2840  0.3211 -0.1305
    1C        C  207   3.890   2.549   2.539 -0.4339  0.6321  0.0975
    1C        C  208   4.082   2.645   2.661 -0.3245  0.0874 -0.0367
    1C        C  209   4.020   2.612   2.783 -0.4797  0.3596 -0.0416
    1C        C  210   4.189   2.742   2.904  0.0418  0.1952  0.0381
    1C        C  211   4.081   2.651   2.904  0.1248  0.0942 -0.2585
    1C        C  212   4.241   2.793   3.025  0.4967  0.1907 -0.1530
    1C        C  213   4.184   2.750   3.146 -0.2261  0.4890 -0.3854
    1C        C  214   4.315   2.913   3.269 -0.2809  0.0914  0.4692
    1C        C  215   4.231   2.799   3.270 -0.3418  0.1264 -0.1960
    1C        C  216   4.356   2.973   3.390 -0.7044  0.4227  0.4531
    1C        C  217   4.324   2.912   3.513 -0.2202 -0.2420  0.2565
    1C        C  218   4.424   3.102   3.634  0.4699  0.0861  0.2195
    1C        C  219   4.365   2.974   3.633  0.0643  0.2757 -0.1080
    1C        C  220   4.456   3.166   3.756  1.0239  0.0861  0.0762
    1C        C  221   4.439   3.100   3.879  0.2941  0.3930  0.1406
    1C        C  222   4.494   3.304   3.998  0.6721 -0.2009  0.1117
    1C        C  223   4.459   3.167   4.001  0.0507 -0.0371  0.4207
    1C        C  224   4.505   3.377   4.119  0.2799  0.0547 -0.0071
    1C        C  225   4.492   3.310   4.242  0.7721  0.0965  0.0671
    1C        C  226   4.523   3.522   4.362  0.6374 -0.0185 -0.0647
    1C        C  227   4.510   3.381   4.363  0.9470 -0.0453  0.1225
    1C        C  228   4.522   3.596   4.482  0.1284 -0.2005  0.0447
    1C        C  229   4.520   3.525   4.604  0.3490  0.0698  0.2082
    1C        C  230   4.490   3.735   4.721  0.0166  0.5209 -0.0769
    1C        C  231   4.525   3.597   4.725  0.1565  0.5544 -0.0686
    1C        C  232   4.483   3.810   4.841 -0.0993  0.1136  0.1760
    1C        C  233   4.542   3.749   4.952 -0.3453 -0.2097  0.1332
    1C        C  234   4.013   2.602   2.058  0.3526 -0.2891 -0.0540
    1C        C  235   3.888   2.540   2.061  0.0087  0.3991  0.0139
    1C        C  236   4.075   2.650   2.174 -0.2097  0.4763 -0.0596
    1C        C  237   4.016   2.616   2.298 -0.1726  0.1663 -0.1225
    1C        C  238   4.196   2.728   2.416 -0.0990  0.0761  0.2326
    1C        C  239   4.081   2.645   2.420 -0.1595  0.1387 -0.1214
    1C        C  240   4.245   2.780   2.538 -0.1077  0.0115  0.2655
    1C        C  241   4.190   2.736   2.660 -0.2635  0.0197  0.1997
    1C        C  242   4.326   2.901   2.781  0.0968  0.1569  0.0833
    1C        C  243   4.239   2.789   2.781 -0.1733  0.3633  0.0138
    1C        C  244   4.374   2.955   2.902 -0.1043  0.2465  0.1253
    1C        C  245   4.331   2.902   3.026  0.2563  0.3886  0.3123
    1C        C  246   4.423   3.094   3.143  0.0823 -0.0180 -0.1424
    1C        C  247   4.359   2.968   3.147  0.1707 -0.0423  0.5710
    1C        C  248   4.451   3.160   3.265  0.4584 -0.4257 -0.0084
    1C        C  249   4.420   3.098   3.388  0.1228  0.0041  0.1241
    1C        C  250   4.494   3.298   3.508  0.6973 -0.1862 -0.0465
    1C        C  251   4.451   3.163   3.509  0.2937 -0.0564  0.1129
    1C        C  252   4.508   3.369   3.629  0.4364  0.1115 -0.1896
    1C        C  253   4.490   3.303   3.753  0.9280  0.1036 -0.1218
    1C        C  254   4.521   3.512   3.870  0.3484 -0.2030 -0.2258
    1C        C  255   4.509   3.371   3.875  0.6412 -0.2160  0.1015
    1C        C  256   4.514   3.584   3.991 -0.1936 -0.3938 -0.1404
    1C        C  257   4.518   3.517   4.116 -0.0322  0.0849  0.1114
    1C        C  258   4.487   3.727   4.235 -0.8061 -0.0253 -0.0586
    1C        C  259   4.515   3.589   4.238  0.1859  0.1723  0.0649
    1C        C  260   4.470   3.799   4.355 -0.2262 -0.2079  0.1367
    1C        C  261   4.492   3.734   4.479  0.2256 -0.1775  0.0753
    1C        C  262   4.424   3.937   4.597  0.2283  0.3448 -0.1813
    1C        C  263   4.468   3.803   4.600  0.0624  0.2876 -0.2174
    1C        C  264   4.394   4.003   4.718  0.4260  0.4461 -0.1876
    1C        C  265   4.426   3.939   4.840 -0.0108  0.1517 -0.2233
    1C        C  266   4.306   4.124   4.954 -0.0855 -0.1932 -0.1316
    1C        C  267   4.377   4.004   4.954  0.5025  0.1552  0.0001
    1C        C  268   4.255   2.770   2.057 -0.0026  0.0817  0.1743
    1C        C  269   4.195   2.724   2.174 -0.0930  0.2925  0.2111
    1C        C  270   4.340   2.884   2.295 -0.4074  0.7133  0.0670
    1C        C  271   4.253   2.771   2.294 -0.6277  0.8775  0.2530
    1C        C  272   4.381   2.944   2.415  0.1258  0.0962  0.2016
    1C        C  273   4.330   2.893   2.537  0.2631 -0.2633  0.1107
    1C        C  274   4.433   3.081   2.654 -0.0332  0.0804 -0.3895
    1C        C  275   4.369   2.955   2.658  0.0785  0.0321  0.0206
    1C        C  276   4.461   3.146   2.776 -0.3239 -0.1400 -0.2022
    1C        C  277   4.433   3.083   2.899  0.2073  0.1001  0.0435
    1C        C  278   4.497   3.289   3.016  0.6292  0.0481 -0.3547
    1C        C  279   4.459   3.153   3.019  0.3017  0.1466 -0.0025
    1C        C  280   4.509   3.360   3.138  0.3554 -0.4658 -0.0208
    1C        C  281   4.496   3.294   3.262  0.4107 -0.4100  0.0150
    1C        C  282   4.523   3.504   3.385  0.2830 -0.1984 -0.2097
    1C        C  283   4.505   3.364   3.384  0.1707 -0.1846 -0.0959
    1C        C  284   4.522   3.579   3.504  0.0359  0.1214 -0.4120
    1C        C  285   4.520   3.510   3.627  0.0522  0.1391 -0.4030
    1C        C  286   4.498   3.722   3.746 -0.4049 -0.1784 -0.0580
    1C        C  287   4.520   3.583   3.748 -0.3536 -0.1715 -0.2094
    1C        C  288   4.472   3.790   3.867 -0.4886 -0.3441  0.0176
    1C        C  289   4.489   3.722   3.990 -0.5745 -0.4603 -0.0333
    1C        C  290   4.413   3.922   4.109 -0.5290 -0.1717 -0.3343
    1C        C  291   4.469   3.793   4.111 -0.6228 -0.2102 -0.1860
    1C        C  292   4.388   3.992   4.229 -0.3064 -0.4178 -0.1432
    1C        C  293   4.421   3.931   4.352  0.3373 -0.0005 -0.1049
    1C        C  294   4.307   4.111   4.472 -0.6165 -0.2529 -0.1626
    1C        C  295   4.387   3.995   4.474 -0.7224 -0.3259 -0.2228
    1C        C  296   4.266   4.175   4.592 -0.3333 -0.0264 -0.1837
    1C        C  297   4.314   4.121   4.713 -0.3531 -0.0768 -0.1979
    1C        C  298   4.188   4.301   4.832  0.2520  0.0989 -0.0271
    1C        C  299   4.272   4.185   4.832  0.2532  0.0995 -0.0774
    1C        C  300   4.161   4.393   4.938  0.1334  0.1392 -0.0922
    1C        C  301   4.352   2.870   2.058  0.4149 -0.3130 -0.0297
    1C        C  302   4.456   3.066   2.172  0.0444 -0.0270 -0.0020
    1C        C  303   4.389   2.940   2.174  0.1666 -0.0928 -0.0807
    1C        C  304   4.473   3.138   2.293 -0.1830  0.2810 -0.1510
    1C        C  305   4.439   3.073   2.414  0.4517 -0.0541 -0.1522
    1C        C  306   4.501   3.280   2.532  0.2798  0.1219 -0.1115
    1C        C  307   4.467   3.143   2.533  0.5624  0.0502 -0.2393
    1C        C  308   4.505   3.354   2.653  0.6176  0.0160 -0.0533
    1C        C  309   4.499   3.282   2.774  0.5696 -0.3856 -0.2916
    1C        C  310   4.519   3.497   2.893 -0.7097 -0.1161 -0.1166
    1C        C  311   4.515   3.355   2.893  0.7811 -0.1693 -0.4517
    1C        C  312   4.512   3.568   3.015 -0.0530 -0.4159  0.1004
    1C        C  313   4.512   3.501   3.139  0.7228 -0.4723  0.0771
    1C        C  314   4.486   3.710   3.259 -0.3421 -0.1750 -0.3911
    1C        C  315   4.514   3.572   3.261  0.0999 -0.0825 -0.1327
    1C        C  316   4.469   3.782   3.379 -0.6837 -0.3611 -0.3260
    1C        C  317   4.489   3.716   3.502 -1.4450 -0.2190 -0.1231
    1C        C  318   4.425   3.920   3.621 -0.7019 -0.2587 -0.1347
    1C        C  319   4.474   3.788   3.623 -0.1566 -0.0581 -0.0433
    1C        C  320   4.391   3.983   3.743 -0.6672 -0.2589 -0.1231
    1C        C  321   4.421   3.921   3.866 -0.7507 -0.4457 -0.1941
    1C        C  322   4.318   4.111   3.984 -0.0572  0.1839  0.0367
    1C        C  323   4.387   3.988   3.986 -0.7346 -0.2138 -0.3150
    1C        C  324   4.275   4.167   4.105  0.3428  0.4283  0.0685
    1C        C  325   4.321   4.116   4.229  0.1232 -0.1827 -0.0994
    1C        C  326   4.180   4.278   4.348  0.1781  0.2131 -0.2672
    1C        C  327   4.274   4.172   4.349 -0.3774 -0.2850 -0.2445
    1C        C  328   4.125   4.331   4.466  0.1029  0.4013 -0.3878
    1C        C  329   4.172   4.281   4.589 -0.2490  0.0437 -0.3957
    1C        C  330   4.013   4.425   4.708  0.3790 -0.0011  0.0843
    1C        C  331   4.125   4.337   4.710  0.3706 -0.0135 -0.1215
    1C        C  332   3.961   4.484   4.825  0.4920  0.0339  0.1163
    1C        C  333   4.046   4.472   4.937 -0.1018 -0.1855  0.5478
    1C        C  334   4.535   3.264   2.056  0.7034 -0.1961  0.3651
    1C        C  335   4.522   3.125   2.059 -0.2565 -0.1267 -0.2303
    1C        C  336   4.533   3.347   2.169  0.4436  0.4013 -0.0664
    1C        C  337   4.510   3.275   2.289  0.9603 -0.0170 -0.2081
    1C        C  338   4.517   3.490   2.406  0.0485  0.0181  0.1382
    1C        C  339   4.513   3.349   2.409  0.1162  0.0058 -0.1928
    1C        C  340   4.516   3.564   2.526 -0.2533  0.2381  0.0062
    1C        C  341   4.518   3.495   2.649  0.4576  0.0310 -0.1129
    1C        C  342   4.493   3.706   2.770 -0.0161  0.0024  0.0214
    1C        C  343   4.515   3.566   2.771 -0.2330 -0.0329 -0.0858
    1C        C  344   4.476   3.776   2.892 -0.2733 -0.0215 -0.0018
    1C        C  345   4.483   3.706   3.014 -0.6545 -0.5410 -0.2715
    1C        C  346   4.412   3.906   3.132 -0.7538 -0.3657 -0.3420
    1C        C  347   4.463   3.775   3.136 -0.3382 -0.2063 -0.4074
    1C        C  348   4.383   3.973   3.253 -0.7242 -0.7276 -0.1345
    1C        C  349   4.411   3.911   3.377 -0.8183 -0.4146  0.0445
    1C        C  350   4.313   4.099   3.495 -0.4681 -0.0530 -0.3110
    1C        C  351   4.389   3.980   3.498 -0.4160 -0.0175 -0.1033
    1C        C  352   4.273   4.159   3.617  0.1533  0.3922 -0.3171
    1C        C  353   4.314   4.102   3.739 -0.3587 -0.0626 -0.3477
    1C        C  354   4.172   4.260   3.859  0.0960 -0.2296 -0.2178
    1C        C  355   4.273   4.161   3.860  0.5925  0.2701 -0.1717
    1C        C  356   4.118   4.307   3.981  0.5876  0.1211 -0.1297
    1C        C  357   4.168   4.260   4.104  0.1419  0.2015  0.0841
    1C        C  358   4.003   4.394   4.224  0.2712  0.9041  0.0973
    1C        C  359   4.118   4.312   4.225 -0.1375  0.3168 -0.0789
    1C        C  360   3.939   4.432   4.344 -0.0073  1.1424 -0.1280
    1C        C  361   4.006   4.407   4.465  0.0633  0.3388 -0.3259
    1C        C  362   3.819   4.510   4.587  0.7744  0.5813 -0.0553
    1C        C  363   3.947   4.451   4.586  0.4901 -0.0361  0.0177
    1C        C  364   3.751   4.540   4.707  0.2658 -0.0641 -0.1804
    1C        C  365   3.831   4.538   4.824  0.5001  0.0402 -0.3421
    1C        C  366   3.621   4.584   4.942  0.1262  0.2293  0.0095
    1C        C  367   3.759   4.567   4.941  0.1472  0.4562 -0.6595
    1C        C  368   4.497   3.555   2.043 -0.0415 -0.0909 -0.6768
    1C        C  369   4.525   3.487   2.162  0.3627  0.3770 -0.5018
    1C        C  370   4.505   3.700   2.285 -0.2169 -0.3115 -0.1356
    1C        C  371   4.520   3.560   2.283 -0.4932 -0.3436 -0.0903
    1C        C  372   4.490   3.775   2.405 -0.4411 -0.1751 -0.2466
    1C        C  373   4.502   3.704   2.526 -0.1087  0.2549 -0.0273
    1C        C  374   4.428   3.904   2.646  0.4455  0.3798  0.2884
    1C        C  375   4.484   3.774   2.647 -0.3220  0.0434  0.0657
    1C        C  376   4.396   3.972   2.766 -0.1238  0.6188  0.0029
    1C        C  377   4.421   3.906   2.888 -0.6201 -0.1729 -0.3091
    1C        C  378   4.317   4.093   3.008 -0.5942 -0.1475  0.1477
    1C        C  379   4.388   3.971   3.009 -0.9277 -0.3482 -0.2992
    1C        C  380   4.267   4.148   3.129 -0.6435 -0.4386  0.2607
    1C        C  381   4.304   4.090   3.252 -0.4786 -0.5558  0.1579
    1C        C  382   4.175   4.260   3.372  0.1069  0.6414  0.0979
    1C        C  383   4.269   4.154   3.373 -0.2577  0.3061 -0.2287
    1C        C  384   4.123   4.308   3.493  0.5528  0.6243  0.3002
    1C        C  385   4.178   4.264   3.616  0.0574  0.3221  0.4178
    1C        C  386   4.001   4.384   3.736  0.1303  0.9567 -0.0479
    1C        C  387   4.121   4.310   3.736  0.1030  0.9067  0.2241
    1C        C  388   3.942   4.426   3.857  0.7093  0.6703  0.3434
    1C        C  389   4.004   4.389   3.979  0.6236  0.1831  0.2429
    1C        C  390   3.817   4.489   4.100  0.3072  0.5605  0.1080
    1C        C  391   3.944   4.428   4.100  0.2518  0.4464 -0.0203
    1C        C  392   3.749   4.513   4.222  0.2931  0.3644  0.1369
    1C        C  393   3.816   4.502   4.345 -0.0500  1.0544  0.3893
    1C        C  394   3.608   4.545   4.468 -0.2010  0.6130  0.1690
    1C        C  395   3.748   4.528   4.466 -0.2582  0.1342  0.4770
    1C        C  396   3.536   4.565   4.588  0.0158  0.4473  0.3230
    1C        C  397   3.613   4.566   4.706  0.3106  0.1757  0.1320
    1C        C  398   3.403   4.543   4.833  0.1797 -0.1577  0.2730
    1C        C  399   3.542   4.565   4.828  0.1747 -0.1928  0.0473
    1C        C  400   3.333   4.504   4.948  0.4849 -0.4650  0.3535
    1C        C  401   4.490   3.694   2.045 -0.4027 -0.1156  0.0867
    1C        C  402   4.445   3.904   2.159  0.1377  0.0235 -0.1736
    1C        C  403   4.483   3.768   2.164  0.7115  0.1883 -0.0334
    1C        C  404   4.409   3.968   2.280  0.0974  0.1048 -0.2284
    1C        C  405   4.441   3.907   2.403  0.1952  0.0655 -0.2716
    1C        C  406   4.325   4.087   2.521  0.0312 -0.4879 -0.0785
    1C        C  407   4.406   3.972   2.524  0.3789 -0.2460 -0.0496
    1C        C  408   4.277   4.144   2.641 -0.5841 -0.1500 -0.4850
    1C        C  409   4.313   4.086   2.764 -0.0680  0.6563 -0.2471
    1C        C  410   4.175   4.248   2.882  0.1473  0.2692  0.0300
    1C        C  411   4.268   4.142   2.885 -0.6056 -0.3986  0.0523
    1C        C  412   4.123   4.299   3.003 -0.0826 -0.1749  0.1225
    1C        C  413   4.173   4.252   3.126  0.0080  0.1588  0.2153
    1C        C  414   4.002   4.376   3.247  0.5262  1.1993 -0.2805
    1C        C  415   4.123   4.304   3.248  0.2800  0.7791  0.0709
    1C        C  416   3.938   4.411   3.369  0.7751  0.9203 -0.0647
    1C        C  417   4.000   4.377   3.491  0.4364  0.4141 -0.0273
    1C        C  418   3.808   4.468   3.612  0.4022  1.0279  0.1259
    1C        C  419   3.939   4.413   3.613  0.2506  0.6491 -0.1844
    1C        C  420   3.743   4.497   3.733  0.3050  0.5982  0.1776
    1C        C  421   3.812   4.481   3.856  0.7269  0.7043 -0.0455
    1C        C  422   3.609   4.533   3.980  0.3664 -0.4807 -0.1097
    1C        C  423   3.747   4.508   3.979  0.4831  0.1506 -0.0538
    1C        C  424   3.538   4.538   4.103  0.4217  0.0684 -0.1036
    1C        C  425   3.611   4.542   4.224  0.3612  0.6976 -0.0867
    1C        C  426   3.398   4.549   4.347  0.3340  0.0452 -0.2218
    1C        C  427   3.539   4.555   4.345  0.3111  0.6345 -0.1138
    1C        C  428   3.325   4.544   4.468  0.4534  0.0163 -0.1535
    1C        C  429   3.396   4.549   4.590  0.0596  0.0397  0.0713
    1C        C  430   3.189   4.508   4.711  0.4307 -0.8067 -0.0831
    1C        C  431   3.329   4.534   4.713  0.4413 -0.8936  0.1636
    1C        C  432   3.117   4.485   4.832  0.2904  0.2311  0.0317
    1C        C  433   3.196   4.481   4.948  0.3272  0.4646  0.0148
    1C        C  434   4.378   4.111   2.041 -0.5810 -0.2781 -0.2675
    1C        C  435   4.450   3.992   2.051 -0.2113 -0.0530 -0.2549
    1C        C  436   4.299   4.149   2.154  0.0219 -0.0676  0.0819
    1C        C  437   4.330   4.087   2.278  0.1418  0.1419  0.1567
    1C        C  438   4.177   4.236   2.396 -0.2600 -0.0602 -0.1235
    1C        C  439   4.284   4.144   2.399 -0.5795 -0.4261  0.1533
    1C        C  440   4.119   4.282   2.516 -0.0101  0.4157 -0.1832
    1C        C  441   4.173   4.241   2.640 -0.4970 -0.0523 -0.1223
    1C        C  442   4.005   4.375   2.759  0.3157  0.5373 -0.1246
    1C        C  443   4.122   4.295   2.760  0.0582  0.1562  0.0247
    1C        C  444   3.941   4.409   2.880  0.0143  0.0193 -0.1315
    1C        C  445   4.003   4.373   3.002 -0.0360 -0.0971 -0.1401
    1C        C  446   3.806   4.452   3.126  0.1711  0.7287  0.7102
    1C        C  447   3.939   4.405   3.124  0.0925  0.5181 -0.2286
    1C        C  448   3.743   4.487   3.247 -0.1534  0.6873  0.5568
    1C        C  449   3.812   4.474   3.370  0.6754  0.7253  0.1057
    1C        C  450   3.606   4.530   3.491  0.4178  0.3420 -0.1111
    1C        C  451   3.743   4.499   3.490  0.5310  0.8324  0.0036
    1C        C  452   3.536   4.541   3.613  0.3298  0.1515 -0.1447
    1C        C  453   3.608   4.537   3.734  0.2553  0.4394 -0.0923
    1C        C  454   3.399   4.543   3.858  0.2536  0.1521  0.0780
    1C        C  455   3.540   4.548   3.858  0.2663 -0.2582 -0.0232
    1C        C  456   3.327   4.521   3.978  0.1164  0.0529 -0.0276
    1C        C  457   3.398   4.528   4.100  0.4469 -0.1961 -0.2067
    1C        C  458   3.193   4.501   4.225  0.3386  0.0050  0.0419
    1C        C  459   3.330   4.533   4.224  0.4223 -0.3539 -0.2169
    1C        C  460   3.122   4.486   4.346  0.4064 -0.3723  0.0376
    1C        C  461   3.187   4.514   4.469  0.4938 -0.1574 -0.0568
    1C        C  462   2.991   4.431   4.591  0.3436 -0.2243 -0.0193
    1C        C  463   3.119   4.490   4.590  0.4334 -0.4198 -0.1427
    1C        C  464   2.923   4.399   4.710  0.4308  0.0686  0.1100
    1C        C  465   2.984   4.433   4.834  0.5144 -0.3394  0.1828
    1C        C  466   2.799   4.329   4.951 -0.3573  0.1101  0.3303
    1C        C  467   2.901   4.425   4.950  0.1851 -0.4595 -0.0605
    1C        C  468   4.119   4.273   2.036 -0.0555 -0.2587 -0.3336
    1C        C  469   4.187   4.238   2.153 -0.0853 -0.2093 -0.3031
    1C        C  470   4.005   4.357   2.273  0.0155 -0.1284 -0.0843
    1C        C  471   4.126   4.283   2.273 -0.0586 -0.2480 -0.2774
    1C        C  472   3.936   4.389   2.392  0.0552  0.2647 -0.1693
    1C        C  473   3.999   4.357   2.514 -0.2354  0.0558 -0.0784
    1C        C  474   3.810   4.453   2.636  0.3236  0.7255 -0.3525
    1C        C  475   3.942   4.401   2.635  0.3865  0.8872 -0.0858
    1C        C  476   3.742   4.476   2.757  0.3641 -0.0956 -0.1634
    1C        C  477   3.809   4.459   2.880 -0.0578 -0.1690  0.0583
    1C        C  478   3.604   4.510   3.002  0.6056  0.2193 -0.0669
    1C        C  479   3.741   4.476   3.003  0.6290  0.3157  0.3817
    1C        C  480   3.535   4.525   3.124  0.2721  0.8172 -0.3217
    1C        C  481   3.605   4.517   3.246 -0.1039  0.9287 -0.0968
    1C        C  482   3.395   4.526   3.368  0.0618 -0.2200  0.0483
    1C        C  483   3.536   4.536   3.368  0.0324  0.2058  0.0986
    1C        C  484   3.326   4.518   3.490  0.2577 -0.3758  0.1472
    1C        C  485   3.395   4.533   3.613  0.3612 -0.3804  0.0870
    1C        C  486   3.192   4.491   3.737  0.3752 -0.2683  0.2381
    1C        C  487   3.328   4.530   3.737  0.3210 -0.0928  0.0683
    1C        C  488   3.127   4.457   3.858 -0.0347 -0.5246 -0.0589
    1C        C  489   3.191   4.483   3.980  0.3855 -0.9415 -0.1927
    1C        C  490   3.006   4.395   4.106  0.9451 -0.9571  0.0201
    1C        C  491   3.125   4.470   4.105  0.6493 -0.4889 -0.0083
    1C        C  492   2.942   4.369   4.228  0.8575 -0.9847 -0.0308
    1C        C  493   3.004   4.409   4.349  0.1084  0.0758  0.0245
    1C        C  494   2.827   4.292   4.473  0.4965 -0.5883  0.2291
    1C        C  495   2.937   4.382   4.470  0.3304 -0.3848  0.0491
    1C        C  496   2.769   4.249   4.594 -0.1625 -0.4302 -0.0223
    1C        C  497   2.813   4.309   4.714  0.7485 -0.3489 -0.3852
    1C        C  498   2.666   4.155   4.837  0.6186  0.3146  0.0345
    1C        C  499   2.752   4.266   4.834  0.7506  0.2105 -0.1786
    1C        C  500   2.591   4.110   4.947  0.3889 -0.3021 -0.3637
    1C        C  501   3.995   4.337   2.038 -0.0755 -0.3088  0.0493
    1C        C  502   3.809   4.449   2.148  0.1147  0.2907 -0.3575
    1C        C  503   3.937   4.390   2.153 -0.1425 -0.2345 -0.0205
    1C        C  504   3.736   4.458   2.269  0.0363 -0.6709 -0.3322
    1C        C  505   3.803   4.434   2.391 -0.0406 -0.0262 -0.1649
    1C        C  506   3.601   4.492   2.513  0.0047  0.2580  0.3350
    1C        C  507   3.738   4.460   2.514  0.0170  0.2859 -0.2020
    1C        C  508   3.532   4.505   2.636  0.2538  0.2680  0.4763
    1C        C  509   3.604   4.503   2.757  0.3856  0.0343  0.3956
    1C        C  510   3.394   4.513   2.882  0.0827  0.0975 -0.0124
    1C        C  511   3.535   4.518   2.879  0.0875  0.1358  0.2169
    1C        C  512   3.322   4.515   3.004  0.4178 -0.2317  0.1910
    1C        C  513   3.394   4.519   3.125  0.3068 -0.0259  0.2507
    1C        C  514   3.187   4.475   3.247 -0.0597  0.0529  0.2653
    1C        C  515   3.323   4.515   3.247  0.0166 -0.2066  0.0755
    1C        C  516   3.127   4.449   3.372  0.3312 -0.2431  0.3910
    1C        C  517   3.190   4.481   3.494  0.1723 -0.0318  0.4162
    1C        C  518   3.002   4.391   3.617  0.2844 -0.3933 -0.2413
    1C        C  519   3.124   4.463   3.617  0.0688 -0.0242  0.3585
    1C        C  520   2.943   4.352   3.739  0.3247 -0.5638 -0.2783
    1C        C  521   3.005   4.385   3.861  0.3327 -1.1541 -0.1214
    1C        C  522   2.829   4.275   3.985  0.3929 -0.5964  0.2749
    1C        C  523   2.942   4.360   3.985  0.8644 -1.2193  0.1388
    1C        C  524   2.779   4.231   4.110 -0.1780 -0.1953  0.1966
    1C        C  525   2.830   4.283   4.231  0.1779 -0.1166  0.0178
    1C        C  526   2.689   4.127   4.351 -0.3837  0.4706  0.1925
    1C        C  527   2.776   4.239   4.353  0.1451  0.0739  0.0770
    1C        C  528   2.645   4.074   4.474  0.0017 -0.2408  0.0357
    1C        C  529   2.684   4.136   4.595  0.0108 -0.5648  0.2031
    1C        C  530   2.583   3.954   4.723  0.3107 -0.2024  0.2009
    1C        C  531   2.637   4.085   4.718 -0.1037 -0.0177  0.3940
    1C        C  532   2.542   3.895   4.846  0.2781 -0.5850  0.0113
    1C        C  533   2.525   3.987   4.954  0.3250 -0.2628 -0.2532
    1C        C  534   3.609   4.544   2.038 -0.0450  0.3590  0.2480
    1C        C  535   3.743   4.503   2.037  0.0141  0.5602 -0.1676
    1C        C  536   3.528   4.524   2.154  0.0083 -0.0217  0.2237
    1C        C  537   3.599   4.495   2.273  0.1988 -0.1149  0.0859
    1C        C  538   3.386   4.510   2.395  0.3167  0.1888 -0.1664
    1C        C  539   3.527   4.508   2.394  0.3193  0.1689  0.1282
    1C        C  540   3.316   4.500   2.517  0.7470 -0.4131  0.0334
    1C        C  541   3.390   4.505   2.637  0.2492 -0.1803  0.3342
    1C        C  542   3.185   4.471   2.760 -0.1765  0.0004 -0.1234
    1C        C  543   3.322   4.503   2.761 -0.1187 -0.2479  0.1328
    1C        C  544   3.116   4.457   2.883  0.3708 -0.2486  0.1593
    1C        C  545   3.185   4.482   3.003  0.3285  0.1388  0.1053
    1C        C  546   2.998   4.381   3.129  0.3830 -0.2511 -0.3032
    1C        C  547   3.120   4.452   3.125  0.4685 -0.3745  0.0539
    1C        C  548   2.942   4.343   3.252  0.3649 -0.3762 -0.3500
    1C        C  549   3.004   4.380   3.374  0.8297 -1.1872 -0.3279
    1C        C  550   2.829   4.264   3.496  0.9554 -1.2186  0.1287
    1C        C  551   2.940   4.351   3.496  0.8099 -1.0302 -0.3015
    1C        C  552   2.777   4.219   3.619  0.2436 -0.3841  0.1460
    1C        C  553   2.831   4.266   3.741 -0.0144 -0.1164  0.1576
    1C        C  554   2.694   4.110   3.866  0.1849 -0.1601  0.1959
    1C        C  555   2.777   4.224   3.864 -0.0073 -0.0171  0.1953
    1C        C  556   2.651   4.058   3.990 -0.3275  0.3253  0.2290
    1C        C  557   2.694   4.118   4.110 -0.5342  0.0713  0.4327
    1C        C  558   2.591   3.934   4.236  0.1806 -0.4109 -0.2811
    1C        C  559   2.652   4.061   4.232  0.1869 -0.3825  0.4756
    1C        C  560   2.563   3.874   4.361 -0.3310  0.1000 -0.1390
    1C        C  561   2.590   3.944   4.480 -0.1836 -0.1687 -0.0087
    1C        C  562   2.529   3.744   4.611 -0.6432  0.1681  0.0631
    1C        C  563   2.566   3.881   4.604 -0.1357  0.0379  0.1114
    1C        C  564   2.511   3.675   4.732 -0.7924 -0.2835 -0.2141
    1C        C  565   2.519   3.754   4.850 -0.8685 -0.4110 -0.1240
    1C        C  566   2.522   3.541   4.973 -0.6152 -0.6129  0.0162
    1C        C  567   2.526   3.680   4.969 -0.2144 -0.6308 -0.2989
    1C        C  568   3.319   4.467   2.037 -0.3589  0.0772  0.0458
    1C        C  569   3.387   4.502   2.154  0.0144 -0.0598 -0.1277
    1C        C  570   3.176   4.468   2.274  0.0847 -0.4054  0.4256
    1C        C  571   3.312   4.507   2.275  0.1292 -0.5459 -0.0354
    1C        C  572   3.109   4.446   2.397  0.1989 -0.1966  0.5270
    1C        C  573   3.178   4.469   2.517  0.6417  0.0455  0.2301
    1C        C  574   2.988   4.382   2.646 -0.0356 -0.1913  0.1292
    1C        C  575   3.113   4.448   2.641 -0.0424 -0.1981 -0.1667
    1C        C  576   2.930   4.342   2.768  0.2698 -0.5369  0.1664
    1C        C  577   2.993   4.388   2.886  0.3806 -0.2757  0.0075
    1C        C  578   2.826   4.256   3.011 -0.0775 -0.0845  0.2629
    1C        C  579   2.936   4.344   3.007  0.0983 -0.3187 -0.1380
    1C        C  580   2.774   4.207   3.133 -0.1195 -0.2117  0.1946
    1C        C  581   2.828   4.259   3.252  0.3489 -0.3582  0.0491
    1C        C  582   2.685   4.106   3.377 -0.1133  0.0302 -0.3517
    1C        C  583   2.775   4.215   3.375  0.2521 -0.2588  0.0437
    1C        C  584   2.642   4.053   3.501 -0.2467  0.2318 -0.3093
    1C        C  585   2.682   4.114   3.622 -0.0485 -0.1333 -0.1904
    1C        C  586   2.580   3.930   3.749 -0.6151  0.5940 -0.0675
    1C        C  587   2.647   4.054   3.745  0.2207  0.1569  0.0312
    1C        C  588   2.557   3.866   3.873  0.2813  0.0858 -0.1498
    1C        C  589   2.585   3.934   3.994 -0.2704  0.2811 -0.1283
    1C        C  590   2.522   3.731   4.121 -0.6559  0.0086 -0.1191
    1C        C  591   2.560   3.867   4.115 -0.3101 -0.0946 -0.3375
    1C        C  592   2.510   3.665   4.246 -0.4643  0.1571 -0.0205
    1C        C  593   2.526   3.738   4.366 -0.2699  0.0867 -0.0017
    1C        C  594   2.521   3.531   4.490 -0.5494  0.0655 -0.3265
    1C        C  595   2.513   3.672   4.490 -0.0559  0.0939  0.0247
    1C        C  596   2.526   3.461   4.612  0.0276  0.0687 -0.3456
    1C        C  597   2.512   3.533   4.733 -0.8183 -0.2831 -0.2260
    1C        C  598   2.527   3.323   4.856 -0.6977 -0.2625  0.3732
    1C        C  599   2.518   3.463   4.856 -0.5957 -0.2549 -0.2215
    1C        C  600   2.519   3.245   4.972 -0.2900 -0.0362  0.5499
    1C        C  601   3.185   4.434   2.038 -0.1596 -0.7356  0.2264
    1C        C  602   2.974   4.386   2.155 -0.0888  0.2753  0.3100
    1C        C  603   3.106   4.441   2.153  0.0910 -0.1479  0.3641
    1C        C  604   2.919   4.347   2.280  0.0520  0.2028  0.3523
    1C        C  605   2.982   4.384   2.401  0.1790 -0.1710  0.4038
    1C        C  606   2.816   4.257   2.526 -0.1784 -0.3352 -0.0979
    1C        C  607   2.926   4.346   2.525  0.0121 -0.5616  0.2126
    1C        C  608   2.764   4.209   2.648  0.0155  0.0214  0.1304
    1C        C  609   2.816   4.258   2.770  0.2416 -0.5006  0.2497
    1C        C  610   2.676   4.101   2.891 -0.2737  0.1530  0.0631
    1C        C  611   2.766   4.209   2.892 -0.4637  0.3132  0.2948
    1C        C  612   2.636   4.044   3.014  0.1016 -0.5141 -0.1200
    1C        C  613   2.682   4.100   3.135 -0.4807  0.0865 -0.1713
    1C        C  614   2.570   3.924   3.261 -0.7959  0.3171 -0.0405
    1C        C  615   2.636   4.048   3.258 -0.8887  0.3649 -0.2032
    1C        C  616   2.548   3.860   3.385 -0.7799  0.3751 -0.0057
    1C        C  617   2.579   3.927   3.506 -0.9316  0.5705 -0.0719
    1C        C  618   2.522   3.725   3.633 -0.5106  0.4233  0.0558
    1C        C  619   2.551   3.863   3.628 -0.3345  0.3860 -0.0238
    1C        C  620   2.514   3.657   3.757 -0.1685  0.2941  0.0084
    1C        C  621   2.523   3.729   3.877 -0.0152  0.1653  0.0761
    1C        C  622   2.496   3.520   4.004 -0.6067 -0.0763 -0.1055
    1C        C  623   2.508   3.661   4.000 -0.2660 -0.1040 -0.1027
    1C        C  624   2.504   3.451   4.126 -0.2475  0.0498 -0.0582
    1C        C  625   2.508   3.524   4.247  0.1667  0.1408 -0.1238
    1C        C  626   2.540   3.317   4.373 -0.2753 -0.1151  0.1462
    1C        C  627   2.521   3.456   4.370 -0.0568 -0.0938 -0.2278
    1C        C  628   2.555   3.248   4.496 -0.2062 -0.0195  0.1884
    1C        C  629   2.545   3.321   4.617  0.0147  0.0819  0.1424
    1C        C  630   2.601   3.115   4.740 -0.2271  0.1814 -0.1355
    1C        C  631   2.558   3.251   4.738 -0.5424  0.0853  0.2032
    1C        C  632   2.614   3.045   4.863  0.0473  0.2396 -0.1337
    1C        C  633   2.554   3.110   4.976  0.1581  0.0614  0.0253
    1C        C  634   2.773   4.296   2.052  0.0647  0.2008 -0.0308
    1C        C  635   2.883   4.384   2.045  0.1103  0.1605  0.1448
    1C        C  636   2.738   4.224   2.166  0.4526 -0.1816 -0.1461
    1C        C  637   2.806   4.260   2.284 -0.3600  0.7152  0.0663
    1C        C  638   2.670   4.099   2.405 -0.3865  0.0983  0.1961
    1C        C  639   2.760   4.207   2.406 -0.3269  0.0597 -0.1977
    1C        C  640   2.630   4.040   2.527 -0.0791 -0.1714  0.1710
    1C        C  641   2.674   4.100   2.647  0.2464 -0.1746  0.0573
    1C        C  642   2.568   3.918   2.772 -0.0078  0.1022  0.2439
    1C        C  643   2.632   4.044   2.770 -0.5513  0.3825  0.0521
    1C        C  644   2.541   3.853   2.894 -0.0647 -0.1601  0.0938
    1C        C  645   2.566   3.921   3.015  0.0032 -0.4567  0.2496
    1C        C  646   2.512   3.720   3.144 -0.0984 -0.3305  0.2722
    1C        C  647   2.540   3.858   3.139 -0.8238 -0.1800  0.2273
    1C        C  648   2.499   3.653   3.267 -0.2897  0.0286  0.4513
    1C        C  649   2.516   3.722   3.388 -0.4178  0.2958  0.3182
    1C        C  650   2.498   3.515   3.514  0.3840  0.1194  0.0988
    1C        C  651   2.500   3.656   3.512 -0.5249  0.1354  0.2195
    1C        C  652   2.505   3.446   3.637  0.2704  0.0418  0.0618
    1C        C  653   2.508   3.516   3.759  0.1118  0.2782 -0.0690
    1C        C  654   2.535   3.309   3.883 -0.0406  0.1234  0.1241
    1C        C  655   2.510   3.448   3.883 -0.1963  0.0950 -0.1622
    1C        C  656   2.552   3.245   4.008  0.7295  0.4832  0.2112
    1C        C  657   2.536   3.314   4.130  0.0107  0.1198  0.3297
    1C        C  658   2.603   3.114   4.253 -0.1029 -0.1150 -0.1105
    1C        C  659   2.549   3.244   4.252 -0.2652 -0.1808  0.1878
    1C        C  660   2.633   3.050   4.376 -0.5724 -0.0603  0.0313
    1C        C  661   2.595   3.113   4.497 -0.4762 -0.0993  0.0796
    1C        C  662   2.711   2.934   4.622 -0.1625 -0.0323  0.1060
    1C        C  663   2.633   3.052   4.618 -0.3028 -0.1304  0.0087
    1C        C  664   2.748   2.871   4.743  0.0784 -0.0011  0.0465
    1C        C  665   2.699   2.929   4.862 -0.0428  0.1760 -0.0909
    1C        C  666   2.740   2.863   4.979  0.1828  0.4910  0.0070
    1C        C  667   2.668   4.017   2.046  0.1543  0.0642  0.2789
    1C        C  668   2.677   4.097   2.161 -0.3138  0.1563  0.2571
    1C        C  669   2.577   3.908   2.285  0.6015 -0.3371  0.2027
    1C        C  670   2.634   4.039   2.282 -0.4535  0.1294  0.1975
    1C        C  671   2.550   3.843   2.408  0.1749 -0.0550  0.2615
    1C        C  672   2.574   3.911   2.529 -0.3772 -0.0437  0.3705
    1C        C  673   2.513   3.710   2.653 -0.1887 -0.0528 -0.3310
    1C        C  674   2.546   3.847   2.652 -0.6382  0.0693  0.3715
    1C        C  675   2.501   3.643   2.777  0.2413  0.1965 -0.1539
    1C        C  676   2.514   3.714   2.898  0.3206 -0.2371  0.0959
    1C        C  677   2.490   3.508   3.024 -0.1802 -0.0991  0.1735
    1C        C  678   2.503   3.648   3.023 -0.0044 -0.1158  0.1353
    1C        C  679   2.491   3.439   3.148 -0.1366 -0.1673  0.1359
    1C        C  680   2.489   3.512   3.269 -0.2311  0.0152  0.0266
    1C        C  681   2.528   3.305   3.394  0.5237  0.3030 -0.0273
    1C        C  682   2.496   3.443   3.392 -0.2157  0.1375  0.0950
    1C        C  683   2.549   3.239   3.516  0.3249  0.0517 -0.1303
    1C        C  684   2.535   3.308   3.639 -0.0898 -0.0413 -0.1223
    1C        C  685   2.598   3.108   3.766  0.3243  0.4566  0.0470
    1C        C  686   2.546   3.239   3.762 -0.2773  0.2228  0.0436
    1C        C  687   2.636   3.050   3.889  0.2569  0.3895  0.0360
    1C        C  688   2.603   3.114   4.011 -0.1700  0.1207  0.0606
    1C        C  689   2.710   2.931   4.132 -0.2292 -0.1327  0.2870
    1C        C  690   2.628   3.046   4.132 -0.3828 -0.2432 -0.0966
    1C        C  691   2.762   2.882   4.254 -0.1617 -0.0750  0.2799
    1C        C  692   2.718   2.938   4.377 -0.8483 -0.2688  0.1279
    1C        C  693   2.759   2.882   4.500  0.0218  0.2234  0.0707
    1C        C  694   2.618   3.886   2.049 -0.2123  0.1877 -0.2811
    1C        C  695   2.513   3.702   2.171  0.6696  0.1134  0.1085
    1C        C  696   2.560   3.835   2.166 -0.1223  0.3871 -0.1467
    1C        C  697   2.501   3.631   2.293  0.2774 -0.2182 -0.1201
    1C        C  698   2.510   3.708   2.411 -0.5709  0.1432 -0.2797
    1C        C  699   2.481   3.499   2.538 -0.2835  0.1000  0.0497
    1C        C  700   2.490   3.640   2.533 -0.7771  0.1194 -0.3255
    1C        C  701   2.483   3.428   2.660  0.1575  0.0196 -0.0006
    1C        C  702   2.494   3.502   2.779  0.2042  0.1985 -0.1152
    1C        C  703   2.513   3.296   2.906  0.1465  0.3689 -0.1767
    1C        C  704   2.488   3.435   2.903 -0.2024  0.3090 -0.0741
    1C        C  705   2.536   3.229   3.028  0.2376  0.1981 -0.2851
    1C        C  706   2.521   3.302   3.149  0.2074 -0.0962 -0.1110
    1C        C  707   2.591   3.103   3.272  0.3471  0.1985 -0.0016
    1C        C  708   2.545   3.236   3.272  0.0620  0.1005  0.0230
    1C        C  709   2.625   3.044   3.396  0.3871  0.1895 -0.0164
    1C        C  710   2.600   3.107   3.519  0.4218  0.0930  0.0410
    1C        C  711   2.718   2.936   3.643  0.1000  0.0604 -0.0032
    1C        C  712   2.628   3.045   3.643  0.3482  0.2704  0.1481
    1C        C  713   2.764   2.882   3.765  0.0814  0.1787  0.0570
    1C        C  714   2.717   2.935   3.888  0.6632  0.6732  0.0691
    1C        C  715   2.757   2.878   4.010  0.3303  0.6359  0.1591
    1C        C  716   2.446   3.491   2.056  0.0767  0.2431  0.0911
    1C        C  717   2.470   3.629   2.059  0.3670  0.1915  0.1731
    1C        C  718   2.461   3.413   2.175 -0.2136  0.0088 -0.0258
    1C        C  719   2.477   3.491   2.293 -0.5262 -0.0885  0.0833
    1C        C  720   2.515   3.288   2.421 -0.1530  0.0398 -0.1918
    1C        C  721   2.484   3.425   2.418 -0.4447 -0.0174  0.1173
    1C        C  722   2.536   3.222   2.544 -0.0259  0.2462 -0.1003
    1C        C  723   2.511   3.289   2.665 -0.0561 -0.0234  0.0467
    1C        C  724   2.571   3.087   2.789  0.4830  0.0990  0.1196
    1C        C  725   2.527   3.221   2.787  0.3501  0.0563  0.0421
    1C        C  726   2.606   3.026   2.911  0.2587 -0.0526  0.1115
    1C        C  727   2.578   3.095   3.031  0.3609  0.2400 -0.0288
    1C        C  728   2.702   2.921   3.154  0.5200  0.3968  0.1572
    1C        C  729   2.616   3.033   3.152  0.2646  0.1977 -0.0187
    1C        C  730   2.746   2.869   3.278  0.2813 -0.0940  0.0378
    1C        C  731   2.713   2.933   3.399  0.0787 -0.0582 -0.0347
    1C        C  732   2.764   2.883   3.521 -0.2705 -0.2981  0.0136
    1C        C  733   2.488   3.189   2.067  0.5457  0.2521 -0.1400
    1C        C  734   2.490   3.273   2.179  0.1543  0.0839 -0.0065
    1C        C  735   2.573   3.078   2.303  0.3056 -0.0308  0.1604
    1C        C  736   2.527   3.213   2.302  0.1937 -0.0692 -0.0922
    1C        C  737   2.613   3.020   2.425  0.3133  0.2722  0.3065
    1C        C  738   2.585   3.089   2.545 -0.0319  0.2430  0.2451
    1C        C  739   2.685   2.905   2.668  0.7592  0.3463  0.1839
    1C        C  740   2.609   3.024   2.668  0.2723  0.0398  0.0827
    1C        C  741   2.733   2.854   2.790  0.4388  0.1456  0.2305
    1C        C  742   2.692   2.914   2.911  0.6402  0.2354  0.2572
    1C        C  743   2.737   2.859   3.033  0.5398  0.1805  0.2719
    1C        C  744   2.534   3.057   2.071  0.0855  0.0930 -0.0471
    1C        C  745   2.683   2.893   2.183  0.1091  0.1823  0.2017
    1C        C  746   2.599   3.007   2.184  0.1803  0.2398 -0.0340
    1C        C  747   2.728   2.840   2.306 -0.0603 -0.1231  0.1360
    1C        C  748   2.688   2.900   2.427  0.3851  0.3085  0.0759
    1C        C  749   2.732   2.845   2.549  0.2770  0.1874  0.0651
    1C        C  750   2.738   2.841   2.065  0.7374  0.2818  0.4440
    1C        C  751   3.645   2.292   2.000 -0.7982 -0.4170 -0.0527
    1C        O  752   3.706   2.199   2.058 -0.1479  0.2326  0.3286
    1C        O  753   3.681   2.308   1.865 -0.5973  0.4441  0.0983
    1C        C  754   4.640   3.060   1.999 -0.2870  0.0273 -0.4569
    1C        O  755   4.649   2.996   1.890 -0.2697  0.3448 -0.6431
    1C        O  756   4.762   3.042   2.066 -0.5043  0.1064 -0.0438
    1C        C  757   4.454   4.212   1.963 -0.1688 -0.1534  0.2887
    1C        O  758   4.542   4.270   2.031 -0.0778 -0.1152  0.1391
    1C        O  759   4.492   4.186   1.830 -0.5045 -0.0127  0.1648
    1C        C  760   3.588   4.671   1.966 -0.3711  0.1699  0.0080
    1C        O  761   3.639   4.775   2.015  0.0939  0.0429 -0.1997
    1C        O  762   3.549   4.692   1.833  0.0045 -0.1976 -0.1601
    1C        C  763   2.853   4.504   1.964 -0.4445 -0.0042  0.0951
    1C        O  764   2.816   4.512   1.844 -0.0404 -0.0299 -0.0326
    1C        O  765   2.788   4.615   2.019  0.0731  0.2542  0.1942
    1C        C  766   2.345   3.459   1.953 -0.1059  0.3121  0.2494
    1C        O  767   2.362   3.428   1.832 -0.2101 -0.1578  0.3527
    1C        O  768   2.207   3.466   1.977 -0.2542 -0.1263 -0.4403
    1C        C  769   4.726   3.614   5.007  0.0678  0.3238  0.2091
    1C        O  770   4.754   3.578   5.124 -0.3323 -0.2445  0.1347
    1C        O  771   4.836   3.596   4.923 -0.2334 -0.1754 -0.0803
    1C        C  772   4.267   4.456   5.020 -0.4964  0.3600  0.5678
    1C        O  773   4.389   4.453   4.988 -0.6109  0.0633  0.1393
    1C        O  774   4.252   4.473   5.158  0.4050  0.0450  0.7103
    1C        C  775   4.145   2.518   5.064  0.2052 -0.2087  0.0610
    1C        O  776   4.225   2.425   5.037  0.3230 -0.0519 -0.1342
    1C        O  777   4.093   2.528   5.194 -0.5659 -0.3364 -0.2310
    1C        C  778   2.878   4.536   5.046  0.4630 -0.2553 -0.2309
    1C        O  779   2.833   4.645   5.002  0.2230 -0.2342  0.0628
    1C        O  780   2.853   4.522   5.183  0.4577  0.1836 -0.1881
    1C        C  781   2.468   3.030   5.066  0.2188 -0.0102  0.0177
    1C        O  782   2.345   3.009   5.046  0.1206  0.5284  0.0625
    1C        O  783   2.503   3.003   5.197 -0.0411 -0.3133  0.0260
    1C        C  784   2.426   3.979   5.064  0.2687  0.5566 -0.2334
    1C        O  785   2.462   3.992   5.184  0.2767 -0.2709 -0.1412
    1C        O  786   2.297   4.034   5.054  0.0188 -0.0011 -0.1621
    1C        C  787   2.945   2.438   1.977 -0.1193 -0.4471  0.3337
    1C        O  788   2.967   2.464   1.856  0.2454  0.1687  0.5313
    1C        O  789   2.883   2.313   1.978 -0.2517 -0.3806  0.5309
    1C        C  790   3.167   2.366   5.048 -0.0669  0.0592 -0.0753
    1C        O  791   3.184   2.359   5.173 -0.0017 -0.3103 -0.1055
    1C        O  792   3.113   2.247   4.998 -0.1842  0.0643  0.0371
    1C        H  793   4.280   3.022   5.050  1.9087  0.6796 -0.5062
    1C        H  794   4.218   2.783   5.065  2.4868  0.1944 -0.0173
    1C        H  795   4.523   3.122   5.042 -0.7259  1.8077  1.8595
    1C        H  796   4.470   3.373   5.053  0.4963  1.1796 -0.5186
    1C        H  797   4.566   3.811   5.036 -3.1516 -0.0488  0.9150
    1C        H  798   4.391   3.954   5.047  0.9158  0.5609  0.1611
    1C        H  799   4.285   4.176   5.045  1.1553 -0.9169  0.5947
    1C        H  800   4.031   4.540   5.018  0.5037 -0.1147  0.6045
    1C        H  801   3.810   4.568   5.035 -1.1268 -0.1331  0.0535
    1C        H  802   3.574   4.600   5.037 -0.8987 -0.0206 -0.4491
    1C        H  803   3.369   4.532   5.045  1.5563 -0.8307  0.0699
    1C        H  804   3.151   4.519   5.037  0.3608 -0.4217  0.4166
    1C        H  805   3.874   2.517   5.060  0.5051 -0.0158 -0.1817
    1C        H  806   3.673   2.460   5.068 -0.3858 -2.2210 -0.0745
    1C        H  807   3.006   2.566   5.065  0.1354 -1.8445 -0.1186
    1C        H  808   3.441   2.498   5.067  0.6298  1.2665 -0.0584
    1C        H  809   2.904   2.768   5.070 -1.4683  0.0116  1.0858
    1C        H  810   2.680   2.877   5.066  0.0698  2.6143 -0.3455
    1C        H  811   2.472   3.289   5.057  0.5911  0.3577  0.8516
    1C        H  812   2.497   3.496   5.067 -2.2903 -1.6904 -0.8907
    1C        H  813   2.549   3.728   5.062 -0.3819  1.4387 -1.2678
    1C        H  814   2.600   4.168   5.037 -0.3726 -0.2783 -0.2970
    1C        H  815   2.814   4.261   5.032  2.4481 -1.8581 -1.6389
    1C        H  816   2.716   2.884   1.969 -0.2804 -1.0669  0.0447
    1C        H  817   2.858   2.698   1.969 -0.3565 -0.1715 -0.1305
    1C        H  818   3.186   2.383   2.013 -0.3743 -0.5788 -0.6234
    1C        H  819   3.420   2.426   1.975  0.8637 -0.3990 -0.7610
    1C        H  820   3.846   2.503   1.970 -0.3948  2.0106 -0.4956
    1C        H  821   4.074   2.570   1.976 -0.3037  0.8338 -1.0157
    1C        H  822   4.256   2.711   1.967  3.4107 -0.2045  0.2780
    1C        H  823   4.383   2.914   1.966  2.0095  0.0884  0.6761
    1C        H  824   4.540   3.306   1.957  2.1633 -0.7180  0.1973
    1C        H  825   4.436   3.512   1.967  0.9027 -1.1656 -0.8541
    1C        H  826   4.469   3.739   1.950  2.2301  0.8066 -0.1226
    1C        H  827   3.806   4.537   1.957  0.3424  1.0384  0.2888
    1C        H  828   3.954   4.359   1.941  1.8351  1.1231 -0.4956
    1C        H  829   4.171   4.265   1.942 -0.0730  0.4131 -0.4053
    1C        H  830   4.541   3.989   1.994 -0.0588  1.4946 -0.1295
    1C        H  831   2.606   3.835   1.956 -0.8133 -0.3362  0.0725
    1C        H  832   2.654   4.067   1.953 -0.8826 -0.3886  0.1737
    1C        H  833   2.724   4.274   1.960 -1.0233 -0.0960  0.6087
    1C        H  834   3.378   4.457   1.947  0.4233 -2.3783  0.7473
    1C        H  835   3.144   4.394   1.948 -1.0608  0.9886 -0.1623
    1C        H  836   2.490   2.992   1.999 -2.0367  1.5832 -0.2046
    1C        H  837   2.436   3.216   1.978 -1.4861 -0.2669  0.8341
    1C        H  838   2.444   3.683   1.971  0.7715  0.1553  0.0307
    2V3OU   H29  839   2.801   3.542   0.700 -0.5627 -3.2013 -0.8124
    2V3OU   C27  840   2.785   3.501   0.803 -0.2573  0.2783  0.7569
    2V3OU   H27  841   2.731   3.572   0.870 -2.4203  0.7308 -1.3104
    2V3OU   H28  842   2.731   3.404   0.788  0.3251 -0.0240  0.5723
    2V3OU   O11  843   2.912   3.459   0.853 -0.0121  0.1585  0.0420
    2V3OU   C15  844   2.917   3.390   0.972 -0.3150  0.0351 -0.0164
    2V3OU   C13  845   3.045   3.371   1.027 -0.4537  0.5273  0.4993
    2V3OU   C14  846   3.076   3.271   1.120  0.1346 -0.0009 -0.2439
    2V3OU   C16  847   2.972   3.190   1.165  0.4939 -0.2926  0.0668
    2V3OU    H6  848   2.989   3.108   1.236  0.3462 -0.0688  0.3688
    2V3OU   C12  849   3.213   3.218   1.135 -0.0654 -0.5632 -0.3846
    2V3OU    O2  850   3.244   3.118   1.203  0.1607 -0.2147  0.0319
    2V3OU   C10  851   3.317   3.303   1.076 -0.1876  0.2954  0.6113
    2V3OU    C8  852   3.451   3.264   1.086 -0.1446  0.4437  0.6034
    2V3OU   O10  853   3.483   3.151   1.153  0.1113 -0.0778 -0.3769
    2V3OU   H26  854   3.397   3.108   1.158  0.1289 -0.0446  0.4530
    2V3OU    C6  855   3.558   3.343   1.034 -0.1310  0.1415  0.1718
    2V3OU    C5  856   3.536   3.463   0.967 -0.2798 -0.1113 -0.2343
    2V3OU    C4  857   3.696   3.291   1.055 -0.0428  0.2111 -0.2196
    2V3OU    H4  858   3.707   3.227   1.148  0.6754 -0.4828 -0.7666
    2V3OU    H5  859   3.707   3.220   0.968 -1.0066  1.0778 -1.0753
    2V3OU    C2  860   3.810   3.392   1.044  0.1388 -0.0365 -0.6330
    2V3OU    O6  861   3.802   3.465   1.167  1.0315 -0.0043 -0.5838
    2V3OU   H21  862   3.761   3.549   1.141  0.7893 -0.0157 -0.2418
    2V3OU    C3  863   3.780   3.490   0.931 -0.3971 -0.3744 -0.7838
    2V3OU    H2  864   3.855   3.573   0.930 -0.6466 -0.1481 -1.2682
    2V3OU    H3  865   3.785   3.435   0.834 -0.9374  0.1057 -1.0923
    2V3OU   C25  866   3.945   3.320   1.034  0.4022  0.3578  0.0131
    2V3OU    O7  867   3.980   3.281   0.923  0.3384  0.5939 -0.0896
    2V3OU   C26  868   4.023   3.285   1.160  0.2863  0.4258  0.1043
    2V3OU   H22  869   4.059   3.382   1.202 -0.3393 -0.1627  2.0915
    2V3OU   H23  870   4.111   3.220   1.135 -0.4193 -1.0395  1.2205
    2V3OU    O8  871   3.952   3.200   1.247  0.3210 -0.5845 -0.8258
    2V3OU   H24  872   3.915   3.262   1.312  1.1752  2.7239 -3.2475
    2V3OU    C1  873   3.645   3.560   0.936 -0.2142 -0.0808  0.0925
    2V3OU    H1  874   3.625   3.612   0.838 -0.3318  0.6916  0.5110
    2V3OU    O3  875   3.657   3.652   1.045  0.1926  0.0681 -0.0750
    2V3OU   C19  876   3.611   3.785   1.023 -0.5291 -0.1784 -0.0677
    2V3OU    H9  877   3.511   3.791   0.970 -0.7552 -1.0390  0.2394
    2V3OU    O4  878   3.706   3.845   0.939 -0.1072  0.0706  0.5807
    2V3OU   C20  879   3.841   3.863   0.982 -0.1370  0.4136  0.5348
    2V3OU   H10  880   3.885   3.761   1.001 -1.1916 -0.3658 -1.0467
    2V3OU   C24  881   3.601   3.852   1.161  0.0842  0.3786 -0.2893
    2V3OU   H16  882   3.539   3.789   1.229 -0.5451  0.7156 -0.5455
    2V3OU   H17  883   3.553   3.953   1.149 -0.8014 -0.2497 -2.7402
    2V3OU   C23  884   3.743   3.866   1.216 -0.0550 -0.4642  0.3038
    2V3OU   H15  885   3.792   3.764   1.226  4.2717  1.1310 -1.8836
    2V3OU    N1  886   3.730   3.942   1.339 -0.5036  0.2357 -0.1688
    2V3OU   H19  887   3.802   3.909   1.400 -0.9485 -1.6059 -0.5653
    2V3OU   H20  888   3.639   3.911   1.367 -0.2914 -0.8356 -0.6331
    2V3OU   C21  889   3.841   3.936   1.117 -0.0688  0.1184  0.6970
    2V3OU   H11  890   3.943   3.921   1.163  0.8840  3.6169  0.0748
    2V3OU    O5  891   3.819   4.077   1.118  0.4441  0.2063 -0.0230
    2V3OU   H18  892   3.778   4.097   1.203  1.7738 -2.0183  1.2281
    2V3OU   C22  893   3.916   3.941   0.875 -0.2370 -0.0575  0.1193
    2V3OU   H12  894   3.870   4.042   0.867 -0.7781 -0.1663  1.5596
    2V3OU   H13  895   3.910   3.888   0.776  0.7775  0.0444 -0.0070
    2V3OU   H14  896   4.024   3.951   0.906 -0.3991 -0.5136  0.8645
    2V3OU   C11  897   3.151   3.466   0.991 -0.1831 -0.0260 -0.2110
    2V3OU    O1  898   3.129   3.580   0.945 -0.4508 -0.1693 -0.4346
    2V3OU    C9  899   3.293   3.424   1.006 -0.1491  0.4196  0.8138
    2V3OU    C7  900   3.398   3.499   0.955 -0.2272  0.4073  0.6344
    2V3OU    O9  901   3.376   3.602   0.865  0.4003 -0.1140 -0.1294
    2V3OU   H25  902   3.281   3.622   0.866  0.3924  0.0387 -1.6808
    2V3OU   C17  903   2.813   3.312   1.027  0.0426 -0.1535  0.3983
    2V3OU    H7  904   2.710   3.338   1.002 -0.1947 -1.3036  0.1256
    2V3OU   C18  905   2.843   3.213   1.120  0.4426 -0.1354  0.2923
    2V3OU    H8  906   2.761   3.162   1.173 -1.4890  1.8269 -0.6268
    3SOL     OW  907   6.098   5.992   0.019  0.4890 -0.2363  0.0240
    3SOL    HW1  908   6.003   6.002   0.048  1.0638 -0.7269  2.1955
    3SOL    HW2  909   6.104   6.010  -0.080 -1.6405  0.9597  0.0446
    4SOL     OW  910   4.921   1.040   4.783 -0.3438 -0.4617 -0.3221
    4SOL    HW1  911   4.974   1.124   4.775  0.8138 -1.2418 -1.1460
    4SOL    HW2  912   4.958   0.984   4.857 -0.5590 -0.6404 -0.3472
    5SOL     OW  913   2.699   6.548   1.386  0.0119 -0.3996 -0.5401
    5SOL    HW1  914   2.767   6.614   1.354  0.2093 -1.7635 -3.1837
    5SOL    HW2  915   2.636   6.594   1.448  1.7173  1.5693 -0.1279
    6SOL     OW  916   6.391   5.281   2.514 -0.0044 -0.0330 -0.5127
    6SOL    HW1  917   6.455   5.261   2.440  0.7706  1.0854 -0.1710
    6SOL    HW2  918   6.317   5.338   2.478 -0.0968 -0.2119 -0.6096
    7SOL     OW  919   6.473   6.775   4.240  0.2062  0.7386 -0.1521
    7SOL    HW1  920   6.501   6.869   4.220  0.5970  0.5395 -0.5576
    7SOL    HW2  921   6.399   6.776   4.307 -0.4845  1.3749 -0.9122
    8SOL     OW  922   3.348   4.424   5.300 -0.0747  0.0555 -0.1972
    8SOL    HW1  923   3.254   4.459   5.300 -0.3199 -0.5624 -1.1500
    8SOL    HW2  924   3.360   4.361   5.377 -0.4836  0.0349 -0.1456
    9SOL     OW  925   0.256   2.297   5.782 -0.8695  0.7079 -0.1358
    9SOL    HW1  926   0.281   2.328   5.874  1.4670 -0.6726 -0.2124
    9SOL    HW2  927   0.323   2.330   5.716 -1.0443 -0.4442 -0.9292
   10SOL     OW  928   0.550   5.460   6.145 -0.0911  0.2798 -0.1526
   10SOL    HW1  929   0.612   5.457   6.066 -0.2887  0.2415 -0.3061
   10SOL    HW2  930   0.455   5.457   6.113 -0.2936  3.2365 -0.1284
   11SOL     OW  931   6.556   5.912   2.850  0.2239 -0.3166  0.1057
   11SOL    HW1  932   6.584   5.832   2.797  0.1385 -1.3946  1.6481
   11SOL    HW2  933   6.636   5.967   2.873  0.3949 -0.4707 -0.1167
   12SOL     OW  934   1.759   4.970   0.644 -0.0617 -0.2602  0.1160
   12SOL    HW1  935   1.688   5.039   0.634 -0.8044 -1.1291 -0.8673
   12SOL    HW2  936   1.801   4.953   0.555  0.5649 -0.6027  0.4690
   13SOL     OW  937   2.611   0.901   0.170 -0.5180  0.0353 -0.5810
   13SOL    HW1  938   2.607   0.803   0.192 -0.2013  0.1979  0.2263
   13SOL    HW2  939   2.520   0.933   0.145 -0.7478 -0.3263 -0.2223
   14SOL     OW  940   1.685   5.908   6.283  0.4842  0.0408 -0.2657
   14SOL    HW1  941   1.621   5.920   6.359  0.6310  0.4755 -0.2105
   14SOL    HW2  942   1.722   5.815   6.285  0.7927  0.1734  0.4300
   15SOL     OW  943   4.200   0.255   2.996  0.3259 -0.4898  0.5482
   15SOL    HW1  944   4.245   0.310   3.067 -1.4466  0.5065  0.9425
   15SOL    HW2  945   4.160   0.315   2.928  4.2266 -1.3738 -2.9398
   16SOL     OW  946   6.187   3.989   6.773 -0.3387  0.3499 -0.3743
   16SOL    HW1  947   6.207   4.001   6.870 -0.7506  2.6045 -0.5144
   16SOL    HW2  948   6.134   3.905   6.760  0.2812 -0.3324  1.2448
   17SOL     OW  949   4.859   5.518   2.566  0.3714 -0.0692 -0.4017
   17SOL    HW1  950   4.885   5.503   2.470 -1.8165 -0.2460 -1.0241
   17SOL    HW2  951   4.759   5.522   2.573  0.4330 -1.0897  2.0394
   18SOL     OW  952   6.694   1.198   6.430  0.4877  0.8461 -0.0914
   18SOL    HW1  953   6.707   1.119   6.370  2.0523  0.5136  0.6285
   18SOL    HW2  954   6.720   1.282   6.381 -1.0101  0.9379 -0.7979
   19SOL     OW  955   5.156   2.499   1.248 -0.1362 -0.6038 -0.6883
   19SOL    HW1  956   5.153   2.597   1.227 -1.8128 -0.5541 -0.3630
   19SOL    HW2  957   5.063   2.465   1.258  0.4531 -2.1038 -0.1392
   20SOL     OW  958   5.498   3.750   5.763  0.5821  0.2797  0.9120
   20SOL    HW1  959   5.475   3.668   5.710 -0.0894  0.1055  1.4628
   20SOL    HW2  960   5.439   3.825   5.735  1.6712  0.7918 -0.0982
   21SOL     OW  961   5.178   0.178   6.693  0.5369 -0.5279 -0.2202
   21SOL    HW1  962   5.147   0.083   6.700  0.8841 -0.9448 -3.1777
   21SOL    HW2  963   5.278   0.180   6.688  0.5590  0.0537  0.3378
   22SOL     OW  964   3.217   1.373   4.140 -0.4275  0.6151 -0.6319
   22SOL    HW1  965   3.122   1.403   4.148 -0.0227  1.6810  0.5253
   22SOL    HW2  966   3.277   1.453   4.146  0.6013 -0.2091  0.3713
   23SOL     OW  967   5.740   6.919   4.834 -0.3530  0.2388  0.6052
   23SOL    HW1  968   5.723   6.824   4.810 -0.1520  0.2665  0.3519
   23SOL    HW2  969   5.675   6.978   4.785 -0.5236  0.2264  0.8170
   24SOL     OW  970   4.142   6.716   1.941 -0.1933 -0.8547  0.1150
   24SOL    HW1  971   4.075   6.768   1.994  0.3189 -0.6818  0.6054
   24SOL    HW2  972   4.110   6.622   1.930 -1.4618 -0.2961 -1.3771
   25SOL     OW  973   3.992   1.040   3.733 -0.0355 -0.3509 -0.3936
   25SOL    HW1  974   4.059   1.071   3.800 -0.6251  0.8063 -0.3092
   25SOL    HW2  975   3.911   1.006   3.780 -0.6274  0.8670 -0.4961
   26SOL     OW  976   5.566   2.688   1.370 -0.3848  0.0174 -0.7341
   26SOL    HW1  977   5.490   2.646   1.420 -0.6570  2.4335  1.0294
   26SOL    HW2  978   5.530   2.751   1.301  0.0072  0.7018 -0.3173
   27SOL     OW  979   3.563   1.589   5.042 -0.3947 -0.1713 -0.3082
   27SOL    HW1  980   3.539   1.518   4.975 -0.2212 -1.1828  0.6852
   27SOL    HW2  981   3.655   1.622   5.023 -0.9966  0.8510 -1.6553
   28SOL     OW  982   5.026   3.254   0.324  0.0228 -0.0105  0.3533
   28SOL    HW1  983   5.006   3.157   0.313  1.1774 -0.4458  1.7889
   28SOL    HW2  984   4.983   3.287   0.408 -0.7831  0.8668 -0.3843
   29SOL     OW  985   2.072   6.142   5.260  0.2652  0.1158  0.4336
   29SOL    HW1  986   2.029   6.228   5.234  0.1037  0.6032  2.2044
   29SOL    HW2  987   2.164   6.137   5.220 -0.2630  0.4442 -0.8516
   30SOL     OW  988   5.125   2.502   5.043  0.1099  0.2769 -0.4301
   30SOL    HW1  989   5.116   2.413   5.087 -0.7749  0.7618  0.4319
   30SOL    HW2  990   5.210   2.506   4.991  0.0437 -1.1441 -0.6783
   31SOL     OW  991   3.597   5.821   3.457  0.5212 -0.4697 -0.3320
   31SOL    HW1  992   3.655   5.829   3.538 -0.0707 -1.1612  0.1659
   31SOL    HW2  993   3.656   5.804   3.377  1.1550  0.8720 -0.1752
   32SOL     OW  994   5.348   6.762   0.246  0.1309 -0.2419 -0.2007
   32SOL    HW1  995   5.316   6.671   0.270 -0.5939 -0.1842 -0.9306
   32SOL    HW2  996   5.426   6.755   0.184 -0.9185 -0.3771 -1.5397
   33SOL     OW  997   5.872   6.971   4.178 -0.3003 -0.3212  0.5234
   33SOL    HW1  998   5.779   7.004   4.187 -0.3881 -0.4814  0.2186
   33SOL    HW2  999   5.893   6.954   4.082 -0.2466 -1.1129  0.6654
   34SOL     OW 1000   3.283   5.536   1.224  0.2665  0.7035  0.6042
   34SOL    HW1 1001   3.333   5.513   1.140 -1.8045 -1.9335 -0.0654
   34SOL    HW2 1002   3.326   5.491   1.302  0.5084  0.7019  0.4710
   35SOL     OW 1003   1.391   2.685   2.137 -0.3027 -0.3591  1.3372
   35SOL    HW1 1004   1.440   2.766   2.170  0.0361 -0.0662  0.1630
   35SOL    HW2 1005   1.456   2.621   2.097 -0.8177 -0.0540 -0.0641
   36SOL     OW 1006   0.661   6.045   5.916  0.1474  0.4512  0.5982
   36SOL    HW1 1007   0.594   5.972   5.902  0.4717  0.6880 -3.1642
   36SOL    HW2 1008   0.616   6.134   5.910  0.3423  0.6192  1.4172
   37SOL     OW 1009   5.127   2.659   3.890 -0.5153 -0.3613 -0.5321
   37SOL    HW1 1010   5.166   2.569   3.871  0.8010  0.2665 -0.9460
   37SOL    HW2 1011   5.103   2.665   3.987  1.0928 -0.5357 -0.1055
   38SOL     OW 1012   0.250   0.205   4.702 -0.4264  0.3390  0.1933
   38SOL    HW1 1013   0.196   0.208   4.786 -2.6244  0.6233 -1.1569
   38SOL    HW2 1014   0.294   0.293   4.686 -3.4077  1.7354 -0.9971
   39SOL     OW 1015   2.930   3.632   6.829 -0.2638 -0.0702  0.0879
   39SOL    HW1 1016   2.871   3.625   6.910 -2.2893  1.7699 -1.1000
   39SOL    HW2 1017   2.886   3.589   6.751  2.0431 -2.5729  0.0172
   40SOL     OW 1018   0.508   5.556   4.998  0.9215 -0.0356 -0.1387
   40SOL    HW1 1019   0.480   5.605   4.916  0.4277  0.1548  0.1416
   40SOL    HW2 1020   0.428   5.530   5.051  1.0655 -2.2073 -0.8754
   41SOL     OW 1021   2.660   0.667   5.063  0.4418  0.0694  0.5235
   41SOL    HW1 1022   2.754   0.700   5.058  0.4340  0.6394  2.7947
   41SOL    HW2 1023   2.644   0.624   5.152 -0.9703 -1.6740 -0.4874
   42SOL     OW 1024   4.161   2.827   1.740 -0.3273  0.2004  0.5705
   42SOL    HW1 1025   4.076   2.877   1.758  0.8345  1.9978  1.3521
   42SOL    HW2 1026   4.237   2.891   1.738  1.0348 -1.3743 -0.1284
   43SOL     OW 1027   5.711   0.396   0.113 -0.1576 -0.0767  0.1428
   43SOL    HW1 1028   5.799   0.350   0.112 -1.7481 -3.3898 -0.5024
   43SOL    HW2 1029   5.680   0.407   0.208  0.1491 -0.5875  0.3027
   44SOL     OW 1030   0.895   5.189   4.756 -0.2321 -0.3477 -0.4710
   44SOL    HW1 1031   0.851   5.124   4.694 -0.2086  0.2804 -1.1733
   44SOL    HW2 1032   0.982   5.218   4.717  0.1356 -0.4998  0.2228
   45SOL     OW 1033   2.192   3.121   3.631  0.3792 -0.1045 -0.1427
   45SOL    HW1 1034   2.171   3.219   3.627  2.3996  0.3784 -0.0296
   45SOL    HW2 1035   2.217   3.089   3.540  2.8337  0.2910  0.3278
   46SOL     OW 1036   5.082   2.229   5.135  0.0041 -0.1022  0.3634
   46SOL    HW1 1037   5.029   2.211   5.052 -0.2108 -1.7836  0.8368
   46SOL    HW2 1038   5.118   2.144   5.172  0.4829  0.6609  1.7585
   47SOL     OW 1039   4.530   0.828   1.888 -0.0741 -0.4479 -0.0183
   47SOL    HW1 1040   4.592   0.888   1.837 -0.2706  0.0496  0.3186
   47SOL    HW2 1041   4.509   0.747   1.834 -0.0430 -0.0679 -0.6021
   48SOL     OW 1042   0.419   3.126   5.693  0.1576  0.0018  0.3423
   48SOL    HW1 1043   0.485   3.187   5.651  0.7542  0.1629  1.4921
   48SOL    HW2 1044   0.369   3.076   5.621  2.0196 -0.6694 -0.5431
   49SOL     OW 1045   6.971   6.410   3.239 -0.0935 -0.6903 -0.5670
   49SOL    HW1 1046   7.041   6.424   3.169 -0.5707  0.7348 -0.7936
   49SOL    HW2 1047   7.000   6.336   3.301  0.7199 -1.4043 -1.7553
   50SOL     OW 1048   1.317   2.329   5.483 -0.6563 -0.4363 -0.4737
   50SOL    HW1 1049   1.273   2.248   5.521 -0.3041 -0.4227 -0.0291
   50SOL    HW2 1050   1.377   2.302   5.407  0.5753 -0.7944  0.5818
   51SOL     OW 1051   4.935   3.933   5.833 -0.7800 -0.2284 -0.1213
   51SOL    HW1 1052   4.917   4.002   5.763 -1.6653 -0.2842  0.0292
   51SOL    HW2 1053   4.985   3.975   5.909  0.0373 -0.1325 -0.7061
   52SOL     OW 1054   4.736   4.896   4.945 -0.4211 -0.1558  0.5606
   52SOL    HW1 1055   4.726   4.826   4.874  0.1342 -1.0317  1.3112
   52SOL    HW2 1056   4.750   4.851   5.033  1.3994  0.8878  0.8559
   53SOL     OW 1057   1.009   0.342   5.891 -0.1665  0.4745  0.2512
   53SOL    HW1 1058   1.106   0.351   5.868  0.1057 -0.5233  0.9303
   53SOL    HW2 1059   0.969   0.267   5.839 -0.5347  0.7625  0.1136
   54SOL     OW 1060   2.234   4.612   2.368 -0.4074 -0.6085  0.2493
   54SOL    HW1 1061   2.229   4.604   2.467 -0.3866 -0.4338  0.2647
   54SOL    HW2 1062   2.272   4.701   2.343 -0.6545 -0.5464  0.0831
   55SOL     OW 1063   4.005   4.823   3.654 -0.7104 -0.6149 -0.0386
   55SOL    HW1 1064   4.073   4.791   3.588  0.1431  0.1220  0.4616
   55SOL    HW2 1065   4.021   4.780   3.742 -1.2226 -0.8258 -0.0426
   56SOL     OW 1066   3.107   0.076   5.395 -0.1780 -0.4854  0.0333
   56SOL    HW1 1067   3.207   0.073   5.389 -0.2540  0.4771 -2.6908
   56SOL    HW2 1068   3.068   0.009   5.333 -1.2366 -0.2434  0.4218
   57SOL     OW 1069   5.922   2.414   5.590  0.1640 -0.3605 -0.2071
   57SOL    HW1 1070   5.868   2.495   5.612 -0.2115 -0.4780 -0.6732
   57SOL    HW2 1071   6.014   2.424   5.628 -0.3789 -0.4644  1.2201
   58SOL     OW 1072   6.984   4.300   6.434  0.3126 -0.1242 -0.6156
   58SOL    HW1 1073   6.952   4.350   6.514 -0.0917 -0.8448 -0.3176
   58SOL    HW2 1074   6.914   4.234   6.406  1.0987 -0.9892 -0.5998
   59SOL     OW 1075   5.424   3.011   5.760  0.2372  0.4911  0.0762
   59SOL    HW1 1076   5.372   2.951   5.699  2.0348 -1.0182 -0.0495
   59SOL    HW2 1077   5.406   2.985   5.855  0.7969 -0.0987  0.0299
   60SOL     OW 1078   6.939   4.074   2.861 -0.6635  0.2064 -0.1762
   60SOL    HW1 1079   6.943   4.137   2.783 -0.3483  0.7370  0.2630
   60SOL    HW2 1080   6.971   3.984   2.832 -0.6361  0.3725 -0.6822
   61SOL     OW 1081   2.386   6.358   0.527  0.0851 -0.0689  0.7863
   61SOL    HW1 1082   2.388   6.364   0.627  1.2491 -2.0893  0.9430
   61SOL    HW2 1083   2.461   6.411   0.489 -1.7473  2.7229  0.7468
   62SOL     OW 1084   0.378   2.879   5.542  0.2838 -0.7088  0.2910
   62SOL    HW1 1085   0.292   2.845   5.580  0.1690 -0.3094  0.3928
   62SOL    HW2 1086   0.449   2.809   5.553 -0.0980 -1.1611 -0.0736
   63SOL     OW 1087   3.962   2.850   1.440 -0.2869  0.4090 -0.0693
   63SOL    HW1 1088   3.992   2.768   1.488 -0.4932  0.5406  0.2927
   63SOL    HW2 1089   4.041   2.909   1.422 -0.2364  0.4587  0.3063
   64SOL     OW 1090   1.718   6.315   3.226  0.1745 -0.0769 -0.1544
   64SOL    HW1 1091   1.755   6.238   3.279 -1.0964  0.2461  1.2835
   64SOL    HW2 1092   1.751   6.401   3.264  0.1319  0.1363 -0.5933
   65SOL     OW 1093   2.860   0.658   1.709 -0.3529  0.3654 -0.5126
   65SOL    HW1 1094   2.792   0.624   1.774 -0.8617  0.9761 -0.7089
   65SOL    HW2 1095   2.813   0.704   1.634  0.2208 -0.3335 -1.3242
   66SOL     OW 1096   3.728   3.092   2.581 -0.2524 -0.1888 -0.6019
   66SOL    HW1 1097   3.685   3.019   2.634 -0.2140  0.5040  0.4158
   66SOL    HW2 1098   3.707   3.079   2.484 -0.0744 -1.6571 -0.4749
   67SOL     OW 1099   5.758   0.221   3.016 -0.9808  0.0770  0.2369
   67SOL    HW1 1100   5.673   0.195   3.064 -1.6005  1.2389 -0.1776
   67SOL    HW2 1101   5.784   0.314   3.044 -0.6538  0.2877 -0.7293
   68SOL     OW 1102   1.256   6.152   5.781  0.2940 -0.5798 -0.0999
   68SOL    HW1 1103   1.329   6.134   5.847 -0.1265 -0.2140  0.4820
   68SOL    HW2 1104   1.170   6.117   5.817 -0.0162  0.0171 -0.2548
   69SOL     OW 1105   5.643   6.468   1.505  0.2751  0.5792  0.3613
   69SOL    HW1 1106   5.552   6.434   1.479 -0.2320  1.3182  1.0825
   69SOL    HW2 1107   5.638   6.505   1.598  0.9888  1.8397 -0.0742
   70SOL     OW 1108   0.021   6.456   0.679 -0.2075  0.0274 -0.6418
   70SOL    HW1 1109  -0.045   6.507   0.625  0.1864  1.2197 -0.0152
   70SOL    HW2 1110  -0.028   6.390   0.737 -0.6717 -0.8029 -1.9151
   71SOL     OW 1111   1.413   6.327   0.960  0.3297 -0.0982 -0.0743
   71SOL    HW1 1112   1.513   6.333   0.960  0.5052 -2.0634 -1.3129
   71SOL    HW2 1113   1.382   6.299   0.869 -1.1684 -1.7666  0.9000
   72SOL     OW 1114   6.501   1.428   2.823  0.3894 -0.4960 -0.2100
   72SOL    HW1 1115   6.493   1.422   2.724 -0.2266  1.4750 -0.3345
   72SOL    HW2 1116   6.416   1.395   2.865  1.2103 -2.7520 -0.2165
   73SOL     OW 1117   5.829   6.061   5.338 -0.0014 -0.3874  0.4774
   73SOL    HW1 1118   5.751   6.048   5.277 -0.1139 -2.3846  0.9835
   73SOL    HW2 1119   5.797   6.091   5.428 -0.2667 -1.5593  0.7963
   74SOL     OW 1120   5.238   6.292   1.156 -0.4078  0.6896  0.4967
   74SOL    HW1 1121   5.259   6.380   1.198  0.0832 -0.1664  2.1368
   74SOL    HW2 1122   5.192   6.233   1.223 -0.0240 -0.5680 -0.3034
   75SOL     OW 1123   2.014   1.912   4.136  0.4111 -0.9482 -0.1336
   75SOL    HW1 1124   2.007   2.008   4.161 -1.3233 -0.8827 -0.7200
   75SOL    HW2 1125   1.999   1.902   4.037 -1.1687 -1.9377  0.1582
   76SOL     OW 1126   3.711   0.982   2.229 -0.1667 -0.0098  0.4155
   76SOL    HW1 1127   3.776   0.958   2.301  0.7632 -0.1721 -0.4633
   76SOL    HW2 1128   3.618   0.982   2.267  0.2510 -0.6161  1.4792
   77SOL     OW 1129   6.324   5.032   5.738  0.3274 -0.4509  0.1006
   77SOL    HW1 1130   6.374   5.108   5.697  1.3030 -1.3565 -0.4275
   77SOL    HW2 1131   6.303   5.053   5.834 -0.3739  0.9189 -0.3271
   78SOL     OW 1132   0.434   0.462   5.218  0.1829 -0.2138  0.3905
   78SOL    HW1 1133   0.356   0.524   5.215 -0.8213 -1.3519  1.6274
   78SOL    HW2 1134   0.439   0.410   5.133  0.8045  1.2515 -0.4985
   79SOL     OW 1135   4.630   4.528   2.682 -0.5436  0.1209  0.2564
   79SOL    HW1 1136   4.579   4.579   2.613  0.7695  1.1034 -0.0202
   79SOL    HW2 1137   4.666   4.591   2.751 -0.8911 -0.7224  1.2274
   80SOL     OW 1138   4.215   0.940   4.501 -0.2315 -0.4582 -0.3442
   80SOL    HW1 1139   4.249   0.858   4.455  0.7482 -0.8322  1.0040
   80SOL    HW2 1140   4.293   0.996   4.530 -0.8535  0.1203  0.2232
   81SOL     OW 1141   0.201   2.093   2.035 -0.8212  0.8075 -0.1681
   81SOL    HW1 1142   0.255   2.061   1.957  1.3974 -0.1150  1.6112
   81SOL    HW2 1143   0.193   2.192   2.032  0.4323  0.9122 -0.8901
   82SOL     OW 1144   1.034   5.141   4.451 -0.0516 -0.3125  0.3465
   82SOL    HW1 1145   0.955   5.103   4.499 -0.7916  0.1977 -0.4392
   82SOL    HW2 1146   1.062   5.227   4.496 -0.2701 -0.2246  0.3170
   83SOL     OW 1147   6.563   1.454   2.315  0.3749 -0.3082 -0.4230
   83SOL    HW1 1148   6.636   1.522   2.318 -2.1102  2.5901 -0.5161
   83SOL    HW2 1149   6.506   1.469   2.234 -0.5499 -2.2472 -0.1968
   84SOL     OW 1150   5.431   1.230   5.019  0.5823 -0.0182 -0.0433
   84SOL    HW1 1151   5.480   1.287   5.085 -1.5619  0.6841  1.0549
   84SOL    HW2 1152   5.407   1.143   5.063  0.4403 -0.1563 -0.3932
   85SOL     OW 1153   6.177   4.758   0.681  0.1203 -0.1782 -0.6578
   85SOL    HW1 1154   6.157   4.842   0.730  1.2073  0.4084 -1.1675
   85SOL    HW2 1155   6.156   4.770   0.584  2.1237  0.2286 -1.0860
   86SOL     OW 1156   0.602   0.407   6.073  0.1182  0.1955 -0.1627
   86SOL    HW1 1157   0.512   0.365   6.088  0.6927 -0.4277  1.8072
   86SOL    HW2 1158   0.668   0.335   6.049  0.7126  0.1864  1.4064
   87SOL     OW 1159   1.283   6.804   0.903  0.0976 -0.0237  0.1320
   87SOL    HW1 1160   1.189   6.835   0.912  0.1861  0.5151 -0.7220
   87SOL    HW2 1161   1.296   6.720   0.957 -0.9432 -0.2889 -0.0151
   88SOL     OW 1162   5.323   5.904   6.021  0.6799 -0.1988 -0.3689
   88SOL    HW1 1163   5.239   5.957   6.011 -0.1468 -1.4137 -0.1822
   88SOL    HW2 1164   5.359   5.882   5.930  1.4603  1.2965 -0.4433
   89SOL     OW 1165   0.673   3.737   1.626 -0.4461  0.0288  0.6649
   89SOL    HW1 1166   0.709   3.828   1.605 -1.2592  0.5103  1.2585
   89SOL    HW2 1167   0.731   3.667   1.585 -0.3519  0.8375 -0.6323
   90SOL     OW 1168   0.488   3.655   4.971 -0.0087 -0.0543  0.2319
   90SOL    HW1 1169   0.447   3.683   5.057 -1.5426 -0.3735 -0.3634
   90SOL    HW2 1170   0.549   3.727   4.937  0.4470  0.1560  1.4574
   91SOL     OW 1171   0.055   3.361   3.665 -0.3024  0.6035  0.0229
   91SOL    HW1 1172   0.130   3.303   3.696 -2.6855 -1.6876  1.9311
   91SOL    HW2 1173   0.003   3.314   3.594 -1.2859  1.1397  0.3606
   92SOL     OW 1174   6.708   3.676   2.990 -0.4317  0.7643  0.2052
   92SOL    HW1 1175   6.705   3.751   2.924  0.4990  1.5839  1.0512
   92SOL    HW2 1176   6.638   3.690   3.060  0.2263  1.2692  0.7785
   93SOL     OW 1177   6.568   2.142   2.124  0.0572 -0.1531 -0.2704
   93SOL    HW1 1178   6.653   2.140   2.071  0.1767 -0.0708 -0.0870
   93SOL    HW2 1179   6.541   2.237   2.140 -1.0269 -0.1672 -1.8198
   94SOL     OW 1180   5.013   5.899   5.102 -0.3297  0.5442 -0.2199
   94SOL    HW1 1181   5.081   5.861   5.040 -0.6558  0.9674 -0.8495
   94SOL    HW2 1182   4.927   5.915   5.052 -0.4233  1.4057  0.1948
   95SOL     OW 1183   4.982   3.962   6.246 -0.4341  0.5406 -0.5047
   95SOL    HW1 1184   5.046   3.893   6.279 -0.8062  0.2440 -0.4036
   95SOL    HW2 1185   4.950   4.018   6.322  2.1958  2.8576 -0.9168
   96SOL     OW 1186   5.361   1.258   2.848 -0.3293 -0.4362  0.1883
   96SOL    HW1 1187   5.436   1.316   2.814  0.4167 -0.6851  1.3512
   96SOL    HW2 1188   5.282   1.268   2.788  0.8696 -0.7447 -1.5388
   97SOL     OW 1189   0.179   2.268   4.831  0.1986  0.0532  0.5966
   97SOL    HW1 1190   0.106   2.222   4.881 -0.2923  0.3715  0.1872
   97SOL    HW2 1191   0.264   2.264   4.884 -0.1982 -0.0165  1.2379
   98SOL     OW 1192   1.469   6.297   1.369 -0.6612 -0.7069  0.3613
   98SOL    HW1 1193   1.559   6.304   1.326  0.3056 -0.4760  2.2913
   98SOL    HW2 1194   1.404   6.258   1.305  0.6443 -0.2239 -1.3172
   99SOL     OW 1195   6.211   4.229   1.336  0.0021  0.6442  0.1044
   99SOL    HW1 1196   6.253   4.319   1.324  0.1395  0.5975  0.2288
   99SOL    HW2 1197   6.116   4.240   1.365  0.0489  0.7487  0.2183
  100SOL     OW 1198   5.484   1.547   5.973 -0.4229  0.0376  0.4810
  100SOL    HW1 1199   5.397   1.594   5.959 -0.0815  0.6189  0.2532
  100SOL    HW2 1200   5.559   1.606   5.942  0.0544 -0.4368  0.7138
  101SOL     OW 1201   6.555   1.461   0.662 -0.1996 -0.6683  0.2759
  101SOL    HW1 1202   6.566   1.373   0.617  2.7464 -0.5841  0.6768
  101SOL    HW2 1203   6.639   1.487   0.708 -1.4732  1.6599  1.5141
  102SOL     OW 1204   4.221   4.887   0.757 -0.3496  0.1292  0.6985
  102SOL    HW1 1205   4.199   4.977   0.793  0.1714  0.6483 -0.2408
  102SOL    HW2 1206   4.295   4.846   0.811 -0.8582  0.0817  1.3714
  103SOL     OW 1207   2.914   4.348   0.598 -0.1659  0.2137  1.0536
  103SOL    HW1 1208   2.998   4.393   0.566  0.1969 -1.9276 -1.3699
  103SOL    HW2 1209   2.939   4.276   0.664  0.2039 -1.4285 -0.7651
  104SOL     OW 1210   3.689   2.043   2.926 -0.7729 -0.1577 -0.1700
  104SOL    HW1 1211   3.743   1.959   2.923 -2.6506 -1.5303  1.5201
  104SOL    HW2 1212   3.595   2.024   2.896 -1.7683  0.8295  2.1084
  105SOL     OW 1213   3.124   5.802   3.380  0.3738  0.1696 -0.3658
  105SOL    HW1 1214   3.207   5.836   3.425 -0.1334 -0.7235  1.3354
  105SOL    HW2 1215   3.135   5.705   3.360  0.8445  0.6790 -2.8927
  106SOL     OW 1216   2.604   6.824   1.822  0.2160 -0.5699  0.2290
  106SOL    HW1 1217   2.530   6.865   1.768  1.4965 -0.2935 -1.4131
  106SOL    HW2 1218   2.626   6.734   1.784 -0.2027 -1.2806  1.6061
  107SOL     OW 1219   5.060   7.011   1.952 -0.2876 -0.5367  0.3421
  107SOL    HW1 1220   4.967   6.985   1.978 -0.6634  0.3857 -0.0428
  107SOL    HW2 1221   5.098   7.071   2.022 -0.7206  0.6709 -0.4233
  108SOL     OW 1222   4.619   0.832   0.457  0.2895  0.2942 -0.4372
  108SOL    HW1 1223   4.651   0.814   0.364 -0.3882  0.5349 -0.7270
  108SOL    HW2 1224   4.542   0.771   0.478 -0.6045  1.3195 -0.6335
  109SOL     OW 1225   0.974   3.752   3.520  0.4083 -0.2004 -0.3545
  109SOL    HW1 1226   0.967   3.809   3.437  3.6722 -0.5180 -1.0163
  109SOL    HW2 1227   1.020   3.805   3.591  3.6778 -1.8302 -1.0372
  110SOL     OW 1228   6.174   3.765   2.769  0.5895  0.0077  0.0534
  110SOL    HW1 1229   6.096   3.735   2.714 -0.1844  0.3506  0.9255
  110SOL    HW2 1230   6.259   3.728   2.731 -0.0471 -0.8087 -0.6025
  111SOL     OW 1231   3.328   1.414   6.661 -0.6741  0.0029  0.2102
  111SOL    HW1 1232   3.405   1.358   6.693 -0.4551  0.7699  1.0913
  111SOL    HW2 1233   3.342   1.509   6.691 -1.4701  0.3509 -0.4900
  112SOL     OW 1234   4.904   3.869   1.706  0.0134  0.1799  0.6305
  112SOL    HW1 1235   4.819   3.918   1.730  0.7342  1.4021  0.7743
  112SOL    HW2 1236   4.971   3.934   1.671 -0.4504 -1.2821 -3.4746
  113SOL     OW 1237   4.122   4.646   5.811 -0.1070  0.4275  0.0185
  113SOL    HW1 1238   4.037   4.652   5.758 -0.4497  0.0757  0.5231
  113SOL    HW2 1239   4.196   4.690   5.759 -0.4516  0.1760 -0.7092
  114SOL     OW 1240   0.506   6.260   6.135  0.0638  0.3473 -0.3502
  114SOL    HW1 1241   0.588   6.281   6.081  2.7970 -0.5053  3.0968
  114SOL    HW2 1242   0.495   6.161   6.141  1.7793  0.2044  2.9659
  115SOL     OW 1243   0.999   3.890   2.051  0.7750  0.3410 -0.3279
  115SOL    HW1 1244   1.068   3.819   2.063  3.7593  3.0020 -0.4327
  115SOL    HW2 1245   0.977   3.930   2.141 -0.1999 -0.0501 -0.3768
  116SOL     OW 1246   0.866   6.181   5.258 -0.1267 -0.0371 -0.0118
  116SOL    HW1 1247   0.932   6.175   5.333 -2.2109  1.9190  2.1746
  116SOL    HW2 1248   0.825   6.092   5.242  1.3918 -0.7950  0.1175
  117SOL     OW 1249   1.317   1.887   3.837 -0.0101  0.4340  0.1093
  117SOL    HW1 1250   1.396   1.949   3.835  1.0750 -0.9083 -0.1933
  117SOL    HW2 1251   1.349   1.793   3.836 -1.6343 -0.1483  0.3749
  118SOL     OW 1252   3.792   6.667   1.120  0.3551  0.1027 -0.2844
  118SOL    HW1 1253   3.756   6.725   1.193  1.0139  0.4254 -0.2087
  118SOL    HW2 1254   3.848   6.594   1.160 -1.4551 -1.3543 -0.2860
  119SOL     OW 1255   5.512   2.868   0.776 -0.4310  0.6405 -0.1576
  119SOL    HW1 1256   5.589   2.804   0.781 -0.6272  0.4824  1.0556
  119SOL    HW2 1257   5.427   2.820   0.796 -0.5190  1.3688  1.3400
  120SOL     OW 1258   6.205   5.136   3.643 -0.2503  0.2479  0.1436
  120SOL    HW1 1259   6.256   5.222   3.648 -1.4463  0.9134  2.4698
  120SOL    HW2 1260   6.264   5.060   3.671  0.1220  0.6814  0.5529
  121SOL     OW 1261   4.263   4.819   2.298 -0.3536  0.0556 -0.0461
  121SOL    HW1 1262   4.198   4.746   2.276 -1.7173  0.5197  2.1057
  121SOL    HW2 1263   4.334   4.822   2.228 -1.5501 -1.7676 -1.4593
  122SOL     OW 1264   6.331   1.264   4.523  0.5748 -0.3876 -0.5529
  122SOL    HW1 1265   6.427   1.289   4.534  0.6425 -0.8958  0.0550
  122SOL    HW2 1266   6.286   1.330   4.462  0.7609  1.1345  0.9029
  123SOL     OW 1267   2.235   6.530   1.574  0.0556 -0.1894 -0.2408
  123SOL    HW1 1268   2.223   6.618   1.620 -0.4104  0.3107 -1.2765
  123SOL    HW2 1269   2.150   6.506   1.527  0.2870 -1.0383 -0.2381
  124SOL     OW 1270   3.723   6.827   0.652 -0.5202 -0.0692  0.7707
  124SOL    HW1 1271   3.774   6.783   0.726 -0.2417 -1.0010  0.0443
  124SOL    HW2 1272   3.731   6.772   0.569 -1.8685  0.3054  0.3708
  125SOL     OW 1273   0.912   5.669   5.910 -0.2033  0.0558 -0.1249
  125SOL    HW1 1274   0.894   5.586   5.858 -0.5383 -1.5100  2.3436
  125SOL    HW2 1275   0.982   5.723   5.863  1.3778 -2.5058 -0.9305
  126SOL     OW 1276   5.281   2.186   4.433 -0.8409  0.0505 -0.9942
  126SOL    HW1 1277   5.357   2.250   4.429 -0.7571 -0.0684 -1.4282
  126SOL    HW2 1278   5.314   2.093   4.415 -0.9622 -0.1158 -0.3831
  127SOL     OW 1279   6.460   3.242   0.438 -0.2765 -0.2263 -0.2734
  127SOL    HW1 1280   6.445   3.323   0.382  1.2127 -0.0482 -0.4536
  127SOL    HW2 1281   6.438   3.262   0.534  1.4885  0.8581 -0.0696
  128SOL     OW 1282   1.022   0.554   4.056  0.5483  0.1528 -0.2367
  128SOL    HW1 1283   0.934   0.538   4.101  0.7420 -0.2621 -0.0031
  128SOL    HW2 1284   1.094   0.503   4.103  0.7846 -0.1671 -0.9206
  129SOL     OW 1285   6.336   5.838   0.634  0.5983 -0.1205  0.3179
  129SOL    HW1 1286   6.250   5.883   0.660 -0.7067 -1.4048 -1.5195
  129SOL    HW2 1287   6.345   5.752   0.685  0.8105  0.0283  0.5316
  130SOL     OW 1288   1.946   2.499   2.403 -0.4271  0.0218  0.2552
  130SOL    HW1 1289   1.881   2.501   2.479  1.0583 -0.4287  1.5835
  130SOL    HW2 1290   1.983   2.591   2.389  1.3417 -0.3556  1.9734
  131SOL     OW 1291   0.492   4.930   1.686  0.0009  0.4424  0.0242
  131SOL    HW1 1292   0.441   4.849   1.654  1.0015 -0.3453  0.3658
  131SOL    HW2 1293   0.546   4.967   1.610  2.4086 -1.4516  0.6824
  132SOL     OW 1294   1.799   6.527   6.486  0.0046 -0.1612  0.8732
  132SOL    HW1 1295   1.877   6.474   6.518 -1.0225 -1.2682  1.6101
  132SOL    HW2 1296   1.822   6.624   6.486  1.2153 -0.4354  1.5163
  133SOL     OW 1297   6.707   0.109   2.032 -0.4842 -0.4274  0.6363
  133SOL    HW1 1298   6.802   0.082   2.049  0.1945  1.2156 -0.3314
  133SOL    HW2 1299   6.650   0.081   2.110  0.6714 -1.9156  0.9866
  134SOL     OW 1300   3.220   4.838   2.374 -0.2011 -0.2890  0.3043
  134SOL    HW1 1301   3.238   4.873   2.282 -0.5909 -1.1456 -0.1143
  134SOL    HW2 1302   3.285   4.765   2.395  0.2697  0.3111  0.9521
  135SOL     OW 1303   6.586   2.137   4.047  0.3414 -0.2632  0.8511
  135SOL    HW1 1304   6.649   2.176   3.980 -1.1802 -0.2389 -0.6525
  135SOL    HW2 1305   6.588   2.037   4.042 -1.4973 -0.2796 -1.0550
  136SOL     OW 1306   6.827   2.783   3.373  0.2654 -0.4206 -0.4826
  136SOL    HW1 1307   6.757   2.723   3.333  0.6589 -0.7030 -0.7459
  136SOL    HW2 1308   6.908   2.783   3.315  0.2517  0.4088 -0.5065
  137SOL     OW 1309   2.245   2.336   2.151  0.5013 -0.7605  0.2946
  137SOL    HW1 1310   2.344   2.325   2.152  0.4516 -1.3370  2.2972
  137SOL    HW2 1311   2.207   2.307   2.238 -1.3334  0.5330 -0.0143
  138SOL     OW 1312   3.509   6.943   0.032 -0.4030  0.1232  0.0656
  138SOL    HW1 1313   3.467   7.009  -0.030  1.2986  1.2779  0.0790
  138SOL    HW2 1314   3.510   6.981   0.125  2.1144  0.8825 -0.2175
  139SOL     OW 1315   5.958   5.335   3.778 -0.5158  0.4577 -0.5207
  139SOL    HW1 1316   5.909   5.298   3.699  0.6442  0.3311 -1.2112
  139SOL    HW2 1317   6.012   5.415   3.750 -1.5689  1.6015  0.5693
  140SOL     OW 1318   6.687   0.859   4.812  0.1680  0.1526 -0.1509
  140SOL    HW1 1319   6.617   0.803   4.769 -0.4261 -0.3476  1.4000
  140SOL    HW2 1320   6.653   0.893   4.900  0.8575  2.1916 -0.6204
  141SOL     OW 1321   2.183   0.313   6.269  0.0121  0.4087  0.1831
  141SOL    HW1 1322   2.268   0.364   6.279 -0.2384  0.5766  1.8589
  141SOL    HW2 1323   2.122   0.335   6.345 -1.1707 -0.3923 -0.4945
  142SOL     OW 1324   4.752   0.028   0.793  0.2855  0.1578 -0.0168
  142SOL    HW1 1325   4.689   0.090   0.839  0.3405 -0.8417  1.4822
  142SOL    HW2 1326   4.713   0.001   0.704 -0.9125  0.3720  0.4239
  143SOL     OW 1327   0.015   5.503   6.082  0.1747 -0.1235 -0.0667
  143SOL    HW1 1328  -0.022   5.459   6.001 -0.2035  2.0838 -1.1595
  143SOL    HW2 1329   0.089   5.565   6.056  0.0534  0.6154  1.2552
  144SOL     OW 1330   0.697   5.647   1.023 -0.7523 -0.0734  0.8998
  144SOL    HW1 1331   0.679   5.682   0.931 -0.9338  0.6089  1.1856
  144SOL    HW2 1332   0.782   5.595   1.023 -0.6909  0.0192  0.3719
  145SOL     OW 1333   2.884   6.282   6.225  0.6144 -0.9696 -0.2089
  145SOL    HW1 1334   2.930   6.314   6.308 -0.8847  0.6869  0.0406
  145SOL    HW2 1335   2.919   6.332   6.146 -1.6181  1.3898  0.1614
  146SOL     OW 1336   1.699   3.341   0.230 -0.0024  0.2609  0.4508
  146SOL    HW1 1337   1.701   3.324   0.132 -1.9761  0.4251  0.3457
  146SOL    HW2 1338   1.679   3.256   0.279  0.3400  0.3056  0.6741
  147SOL     OW 1339   3.503   6.838   1.107 -0.3436 -0.5234  0.2417
  147SOL    HW1 1340   3.416   6.877   1.138 -1.0466 -0.4467 -1.7195
  147SOL    HW2 1341   3.579   6.893   1.143 -1.2466  1.6640 -1.0281
  148SOL     OW 1342   5.432   1.979   1.468  0.6556  0.4588  0.3892
  148SOL    HW1 1343   5.526   2.012   1.474  0.5225  0.9171  0.0497
  148SOL    HW2 1344   5.392   1.975   1.559  0.7756  0.9508  0.4681
  149SOL     OW 1345   1.213   3.522   0.712  0.2039 -0.0464 -0.3459
  149SOL    HW1 1346   1.167   3.494   0.628  0.9052  1.8560 -1.4448
  149SOL    HW2 1347   1.146   3.533   0.785 -0.7580  0.3400 -1.2599
  150SOL     OW 1348   3.077   3.075   2.377  0.1391 -0.3496  0.2594
  150SOL    HW1 1349   3.069   3.094   2.475  0.9658  0.2138  0.2281
  150SOL    HW2 1350   3.142   3.000   2.363  1.2030  0.5778  0.0749
  151SOL     OW 1351   6.567   6.227   4.265 -0.0930 -0.1395 -0.6805
  151SOL    HW1 1352   6.571   6.325   4.287 -0.5385 -0.0974 -0.7775
  151SOL    HW2 1353   6.474   6.203   4.236 -0.9891 -1.2890  2.6640
  152SOL     OW 1354   4.656   2.670   2.440  0.2509 -0.0586 -0.2564
  152SOL    HW1 1355   4.686   2.765   2.451 -2.0315  0.6738  0.0146
  152SOL    HW2 1356   4.639   2.652   2.343  0.7553 -0.2436 -0.3171
  153SOL     OW 1357   1.276   0.066   1.203 -0.2753  0.1592  0.5473
  153SOL    HW1 1358   1.305   0.038   1.111  0.7065 -0.4371  1.0244
  153SOL    HW2 1359   1.320   0.008   1.271  0.2273  1.5580  1.4673
  154SOL     OW 1360   4.782   0.457   6.741 -0.3070  0.0372 -0.1897
  154SOL    HW1 1361   4.800   0.377   6.797  1.9213  0.1508 -0.6575
  154SOL    HW2 1362   4.837   0.534   6.773  0.5238  0.2805 -2.0773
  155SOL     OW 1363   4.825   0.302   3.476 -0.9394 -0.3815  0.5310
  155SOL    HW1 1364   4.913   0.285   3.433 -1.0383 -1.5913  0.7923
  155SOL    HW2 1365   4.755   0.316   3.405 -0.9398 -1.5302  0.2924
  156SOL     OW 1366   2.649   2.559   1.217  0.2698 -0.2672  0.2412
  156SOL    HW1 1367   2.676   2.616   1.295 -1.4670  0.1425  0.5942
  156SOL    HW2 1368   2.570   2.601   1.171  2.1931  0.3593 -2.7505
  157SOL     OW 1369   6.975   2.146   3.419 -0.2310  0.5977  0.1952
  157SOL    HW1 1370   6.944   2.200   3.341  1.0365 -0.7067 -1.2914
  157SOL    HW2 1371   7.073   2.130   3.412 -0.1268  0.2546  1.9655
  158SOL     OW 1372   1.059   2.777   6.240  0.1513 -0.1724 -0.4385
  158SOL    HW1 1373   0.971   2.755   6.197  0.4737 -1.4509 -0.4942
  158SOL    HW2 1374   1.046   2.785   6.339  0.0878 -1.0963 -0.3632
  159SOL     OW 1375   1.196   6.909   1.774  0.4951  0.5437  0.1015
  159SOL    HW1 1376   1.250   6.873   1.698 -1.7997  1.9260 -2.3834
  159SOL    HW2 1377   1.158   6.833   1.826  0.7460 -0.5238 -1.2095
  160SOL     OW 1378   1.850   1.855   4.983 -0.4164  0.0328 -0.0972
  160SOL    HW1 1379   1.844   1.946   4.942  0.5046  1.7174  3.1795
  160SOL    HW2 1380   1.758   1.816   4.991 -0.9883  1.3145 -0.1932
  161SOL     OW 1381   6.036   5.069   5.784  0.7869 -0.7251 -0.7773
  161SOL    HW1 1382   5.957   5.008   5.773  0.2982 -0.7900  2.3710
  161SOL    HW2 1383   6.120   5.018   5.767  0.2604 -1.2287 -1.9725
  162SOL     OW 1384   4.219   6.654   5.511  0.4457 -0.1334  0.2279
  162SOL    HW1 1385   4.315   6.647   5.537  0.3681  0.5819  0.7319
  162SOL    HW2 1386   4.209   6.636   5.413  1.3907  2.0374 -0.3165
  163SOL     OW 1387   0.050   0.764   2.955 -0.3712 -0.1686  0.2707
  163SOL    HW1 1388   0.016   0.844   2.907  0.5623 -0.4119 -0.8409
  163SOL    HW2 1389  -0.022   0.694   2.959 -0.4543 -0.1604 -0.8330
  164SOL     OW 1390   4.763   2.431   0.223 -0.2855 -0.6962 -0.7251
  164SOL    HW1 1391   4.771   2.418   0.124  0.3642  2.3815 -1.1767
  164SOL    HW2 1392   4.687   2.493   0.243  0.3968 -0.2444  0.5879
  165SOL     OW 1393   0.156   4.571   3.821 -0.7310 -0.0893 -0.4368
  165SOL    HW1 1394   0.252   4.595   3.836 -0.7204  0.4937 -1.3980
  165SOL    HW2 1395   0.113   4.550   3.909  0.1826 -0.0117  0.0356
  166SOL     OW 1396   3.664   3.487   2.105  0.0529  0.3449 -0.0578
  166SOL    HW1 1397   3.690   3.422   2.033  0.7841 -0.0809  0.5753
  166SOL    HW2 1398   3.700   3.577   2.083 -0.7952  0.5051 -0.8448
  167SOL     OW 1399   3.522   1.339   6.370 -0.0351  0.2201 -0.3670
  167SOL    HW1 1400   3.498   1.407   6.301  1.0403 -0.0700 -1.0476
  167SOL    HW2 1401   3.494   1.372   6.460 -1.7506  0.4706 -0.9434
  168SOL     OW 1402   6.447   3.521   5.220  0.2906 -0.0846 -0.0492
  168SOL    HW1 1403   6.458   3.436   5.169  0.8515  0.0426 -0.1489
  168SOL    HW2 1404   6.360   3.564   5.195  0.0029 -0.6294  0.0076
  169SOL     OW 1405   0.414   4.620   3.623 -0.0162 -0.1341  0.0141
  169SOL    HW1 1406   0.415   4.720   3.618  1.9733 -0.0978  0.3428
  169SOL    HW2 1407   0.468   4.583   3.547  2.3794 -0.7949  1.9446
  170SOL     OW 1408   1.393   6.470   6.185 -0.2256 -0.0595 -0.0632
  170SOL    HW1 1409   1.468   6.411   6.155 -1.0559 -0.7478 -0.8513
  170SOL    HW2 1410   1.413   6.565   6.161  1.0401 -0.0122  1.0445
  171SOL     OW 1411   1.104   2.606   1.606  0.2162 -0.6586 -0.1932
  171SOL    HW1 1412   1.167   2.624   1.531 -0.0987 -3.4525 -1.2667
  171SOL    HW2 1413   1.147   2.542   1.671  0.4271  1.5668  2.0118
  172SOL     OW 1414   2.294   2.466   3.286 -0.1457  0.3781 -0.5640
  172SOL    HW1 1415   2.313   2.368   3.283  2.3094  0.6558  1.6763
  172SOL    HW2 1416   2.359   2.514   3.227  0.2163  0.7833  0.1494
  173SOL     OW 1417   6.133   4.232   6.649  0.0886  0.3686  0.1077
  173SOL    HW1 1418   6.171   4.150   6.691  1.5167  0.6168 -0.6280
  173SOL    HW2 1419   6.097   4.208   6.559 -0.7076  0.3031  0.4418
  174SOL     OW 1420   4.441   7.007   4.990 -0.0603  0.4271 -0.1266
  174SOL    HW1 1421   4.374   7.042   4.924 -1.7153 -1.7337  0.3015
  174SOL    HW2 1422   4.462   7.079   5.057 -2.1422  1.1222 -0.1416
  175SOL     OW 1423   0.012   2.318   1.884 -0.4187 -0.1091 -0.2610
  175SOL    HW1 1424  -0.054   2.257   1.839 -0.0582  0.5792 -1.7546
  175SOL    HW2 1425  -0.035   2.372   1.954 -1.6337  0.9344 -1.8366
  176SOL     OW 1426   3.962   5.703   0.126 -0.1292 -0.0146 -0.0528
  176SOL    HW1 1427   4.027   5.678   0.198 -0.3963  1.0985  0.5928
  176SOL    HW2 1428   3.889   5.634   0.123  0.3253 -0.5199  0.1635
  177SOL     OW 1429   2.671   0.399   6.228 -0.0994  0.3961  0.0171
  177SOL    HW1 1430   2.744   0.442   6.175 -0.4914  1.9642  0.6962
  177SOL    HW2 1431   2.669   0.301   6.209  1.8708  0.3954 -0.3796
  178SOL     OW 1432   3.275   6.694   1.908  0.3888  0.3535 -0.3652
  178SOL    HW1 1433   3.283   6.597   1.888 -0.4812  0.2597 -0.3084
  178SOL    HW2 1434   3.190   6.729   1.869 -0.5175  0.5482  1.6446
  179SOL     OW 1435   6.657   4.453   1.070 -0.5207  0.1757  0.1644
  179SOL    HW1 1436   6.572   4.426   1.027  0.0370 -2.3678  0.5155
  179SOL    HW2 1437   6.641   4.473   1.167 -0.5317 -1.6576  0.5673
  180SOL     OW 1438   2.106   2.439   0.011 -0.3773  0.2023  0.1129
  180SOL    HW1 1439   2.041   2.508   0.044 -0.0659  0.1182  0.9216
  180SOL    HW2 1440   2.195   2.482  -0.004 -0.4367  0.1747 -0.3320
  181SOL     OW 1441   0.039   3.505   3.904  0.4315 -0.4660  0.4157
  181SOL    HW1 1442   0.103   3.581   3.898  1.6648 -1.3215  1.9423
  181SOL    HW2 1443   0.019   3.470   3.813  0.6582  1.0112 -0.2227
  182SOL     OW 1444   3.414   6.385   1.203 -0.0657 -0.0282 -0.2672
  182SOL    HW1 1445   3.363   6.433   1.274  0.2522 -0.6244  0.3733
  182SOL    HW2 1446   3.390   6.289   1.203  0.2921 -0.1251 -0.6503
  183SOL     OW 1447   3.867   3.322   1.472  0.2314  0.5235  0.1277
  183SOL    HW1 1448   3.781   3.293   1.514  0.6273  0.8329  1.1729
  183SOL    HW2 1449   3.890   3.414   1.502  1.4502  0.0654  0.7023
  184SOL     OW 1450   6.412   0.510   3.630 -0.4069  0.7854 -0.7038
  184SOL    HW1 1451   6.466   0.565   3.693 -0.9848  1.2842 -0.6378
  184SOL    HW2 1452   6.473   0.462   3.567  0.1121  1.2270 -0.5423
  185SOL     OW 1453   0.830   1.351   4.125 -0.9622 -0.3876  0.0688
  185SOL    HW1 1454   0.835   1.266   4.073 -0.2611 -0.5926  0.4661
  185SOL    HW2 1455   0.885   1.421   4.080  2.6004 -1.5045  2.2592
  186SOL     OW 1456   5.340   5.953   0.042 -0.3095 -0.0977  0.1413
  186SOL    HW1 1457   5.385   5.952   0.131  0.3888  0.2649 -0.1992
  186SOL    HW2 1458   5.284   6.036   0.034  0.3145  0.3149 -0.0791
  187SOL     OW 1459   3.111   5.965   5.273  0.0246 -0.5096 -0.3866
  187SOL    HW1 1460   3.108   6.063   5.290  0.0596 -0.7835  1.3880
  187SOL    HW2 1461   3.132   5.948   5.177  0.5387  1.2084 -0.6047
  188SOL     OW 1462   3.205   0.303   1.766  0.0317  0.4019 -0.4839
  188SOL    HW1 1463   3.162   0.244   1.834 -1.8205  1.6603 -0.4913
  188SOL    HW2 1464   3.303   0.309   1.784 -0.0604 -1.0623  0.6942
  189SOL     OW 1465   5.956   1.103   2.032 -0.8117 -0.4350 -0.3173
  189SOL    HW1 1466   5.922   1.102   1.938 -0.0357  0.4437 -0.6172
  189SOL    HW2 1467   5.935   1.191   2.074 -1.6761 -1.0289  0.5462
  190SOL     OW 1468   6.294   0.084   1.962  0.3938 -0.2833  0.3428
  190SOL    HW1 1469   6.335   0.172   1.989  1.1134 -0.9835  1.6610
  190SOL    HW2 1470   6.343   0.047   1.883 -0.8502  1.1591 -1.1595
  191SOL     OW 1471   3.052   4.433   5.339  0.7292  0.1317 -0.8018
  191SOL    HW1 1472   2.996   4.487   5.276 -0.1518 -0.6317 -0.6853
  191SOL    HW2 1473   3.035   4.463   5.433 -1.3003 -1.6469 -0.5415
  192SOL     OW 1474   1.306   4.645   4.279  0.0456 -0.3208 -0.3295
  192SOL    HW1 1475   1.263   4.673   4.365  0.6660 -0.4097  0.0136
  192SOL    HW2 1476   1.247   4.580   4.231  0.7816 -2.2226  1.2206
  193SOL     OW 1477   5.765   5.266   6.609 -0.2756  0.3796  0.2954
  193SOL    HW1 1478   5.729   5.220   6.528  0.9183  0.4545 -0.2951
  193SOL    HW2 1479   5.761   5.365   6.595 -1.1713  0.4268  0.8281
  194SOL     OW 1480   3.526   5.913   0.973  0.2119 -0.2026  0.3234
  194SOL    HW1 1481   3.623   5.895   0.961  0.0842 -0.5901 -0.1694
  194SOL    HW2 1482   3.473   5.854   0.911 -0.3332  0.0178  0.5706
  195SOL     OW 1483   5.363   1.140   0.187 -0.3856  0.0355 -0.1936
  195SOL    HW1 1484   5.291   1.075   0.210 -1.4053  1.1044 -0.2923
  195SOL    HW2 1485   5.323   1.229   0.165  1.0602  1.2877  1.8476
  196SOL     OW 1486   5.892   4.829   1.347  0.5574 -0.7123 -0.2986
  196SOL    HW1 1487   5.879   4.780   1.261  0.1467 -1.9184  0.4275
  196SOL    HW2 1488   5.846   4.779   1.421  0.3183  0.6640  0.5083
  197SOL     OW 1489   3.106   2.087   2.579 -0.2169  0.3906  0.2329
  197SOL    HW1 1490   3.196   2.059   2.546 -0.5572  0.5560 -0.8694
  197SOL    HW2 1491   3.116   2.130   2.669  0.8419  0.6524  0.0076
  198SOL     OW 1492   0.301   0.035   3.711 -0.2421 -0.2575  0.4877
  198SOL    HW1 1493   0.385   0.009   3.759 -0.1359  1.6838  1.4437
  198SOL    HW2 1494   0.234  -0.038   3.720  1.5707 -2.2356 -1.0193
  199SOL     OW 1495   6.268   5.866   6.589  0.0103  0.3118 -1.0685
  199SOL    HW1 1496   6.331   5.812   6.533  0.6063 -1.3623  1.0715
  199SOL    HW2 1497   6.174   5.846   6.563  0.2703 -0.4469 -1.4595
  200SOL     OW 1498   5.812   1.987   0.328 -0.0189  0.0768  0.2498
  200SOL    HW1 1499   5.722   2.003   0.369  0.0361 -0.6949  0.6994
  200SOL    HW2 1500   5.877   2.054   0.364 -0.6396  1.3559 -0.9272
  201SOL     OW 1501   2.897   0.043   2.508  0.1212  0.0205  0.1646
  201SOL    HW1 1502   2.990   0.027   2.473  0.3666 -0.7485  1.1129
  201SOL    HW2 1503   2.901   0.108   2.584 -0.0967 -0.1547  0.3263
  202SOL     OW 1504   0.859   1.228   1.358  0.3684 -0.5254 -0.6380
  202SOL    HW1 1505   0.830   1.323   1.344 -2.1858 -1.1720 -0.2975
  202SOL    HW2 1506   0.837   1.174   1.277 -3.6436 -1.8906  1.0758
  203SOL     OW 1507   4.367   5.337   5.239  0.0433  0.4586 -0.3463
  203SOL    HW1 1508   4.309   5.343   5.321 -0.0389  1.2061 -0.4494
  203SOL    HW2 1509   4.403   5.428   5.218  1.1494  0.0309 -0.3594
  204SOL     OW 1510   3.154   1.196   3.555  0.4226  0.8183  0.1371
  204SOL    HW1 1511   3.079   1.183   3.619  0.3429  1.0019  0.0809
  204SOL    HW2 1512   3.207   1.276   3.582  1.4060 -0.0761  0.9634
  205SOL     OW 1513   4.463   0.650   5.423  0.0766 -0.1707  0.8337
  205SOL    HW1 1514   4.379   0.662   5.476 -0.2830  0.8605  0.0476
  205SOL    HW2 1515   4.452   0.689   5.332  1.2785 -0.3662  0.5830
  206SOL     OW 1516   4.126   5.718   1.135  0.1146 -0.3408  0.0375
  206SOL    HW1 1517   4.031   5.727   1.165  0.7966  1.6056  1.8555
  206SOL    HW2 1518   4.142   5.777   1.056 -0.3970 -1.4493 -0.9226
  207SOL     OW 1519   6.974   2.474   3.591 -0.3722  0.3383  0.2581
  207SOL    HW1 1520   7.070   2.504   3.587 -0.2015 -0.1805  0.3761
  207SOL    HW2 1521   6.971   2.375   3.603 -0.9273  0.4194  0.8289
  208SOL     OW 1522   5.708   0.426   6.274 -0.1041  0.2926 -0.5991
  208SOL    HW1 1523   5.756   0.482   6.206 -1.6357  1.0639 -1.0709
  208SOL    HW2 1524   5.642   0.482   6.323  0.9813 -0.2522  1.5834
  209SOL     OW 1525   5.902   6.036   4.432 -0.5719 -0.4834  0.1061
  209SOL    HW1 1526   5.861   5.952   4.396 -0.4240 -1.3874  1.9535
  209SOL    HW2 1527   5.901   6.034   4.532  1.3773  0.7685  0.2025
  210SOL     OW 1528   5.679   6.831   3.804 -0.3161 -0.1327  0.1907
  210SOL    HW1 1529   5.629   6.908   3.763  1.3319  0.9857  0.1564
  210SOL    HW2 1530   5.636   6.745   3.777 -0.9785  0.6915 -1.5411
  211SOL     OW 1531   1.174   3.383   2.204  0.2006 -0.0169  0.1310
  211SOL    HW1 1532   1.204   3.343   2.117  0.9300 -0.3659  0.5382
  211SOL    HW2 1533   1.178   3.313   2.275  2.0674  0.9186  0.9975
  212SOL     OW 1534   6.208   4.049   0.056 -0.0223 -0.7051  0.1166
  212SOL    HW1 1535   6.135   4.110   0.025  0.0009 -1.7383 -2.1626
  212SOL    HW2 1536   6.201   4.037   0.155 -2.2492  0.1225  0.1252
  213SOL     OW 1537   2.966   4.870   0.188 -0.1964 -0.5463 -0.5226
  213SOL    HW1 1538   3.011   4.953   0.219 -0.4164 -0.2717 -0.9303
  213SOL    HW2 1539   3.022   4.791   0.212  0.5121 -0.2129 -1.0204
  214SOL     OW 1540   5.040   3.114   2.073 -0.1127 -0.0328 -0.4597
  214SOL    HW1 1541   4.942   3.095   2.072  0.0235 -0.7852  0.0312
  214SOL    HW2 1542   5.084   3.066   1.997 -0.2866  1.3226 -1.4645
  215SOL     OW 1543   6.475   0.915   0.668 -0.3712 -0.3077  0.4092
  215SOL    HW1 1544   6.397   0.956   0.715 -0.3888 -0.6017  0.6445
  215SOL    HW2 1545   6.463   0.816   0.665 -0.6679 -0.2543 -0.7606
  216SOL     OW 1546   3.395   0.956   2.238  0.2759  0.7454 -0.1970
  216SOL    HW1 1547   3.374   0.958   2.140 -1.3377  0.9535  0.1210
  216SOL    HW2 1548   3.311   0.938   2.289  1.1740  0.2125  1.1375
  217SOL     OW 1549   3.127   4.261   0.339 -0.4024  0.7589  0.2397
  217SOL    HW1 1550   3.207   4.203   0.324  1.5664  3.1602  0.7894
  217SOL    HW2 1551   3.061   4.246   0.265  1.9396  0.8911 -2.0195
  218SOL     OW 1552   1.181   2.744   0.782  0.3343  0.4387 -0.3017
  218SOL    HW1 1553   1.102   2.800   0.759  0.2595  0.4964  0.0912
  218SOL    HW2 1554   1.214   2.697   0.700  0.9919  1.8019 -0.8428
  219SOL     OW 1555   4.968   5.018   0.072  0.8339 -0.3741  0.2085
  219SOL    HW1 1556   4.982   4.920   0.059 -0.2180 -0.5820  0.5710
  219SOL    HW2 1557   4.957   5.037   0.170  1.6240  0.1925  0.1941
  220SOL     OW 1558   2.044   6.190   1.362 -0.1160 -0.3688  0.0346
  220SOL    HW1 1559   2.092   6.120   1.308 -1.7115 -1.3443 -0.2101
  220SOL    HW2 1560   1.957   6.211   1.317 -1.3921 -1.0389  2.0705
  221SOL     OW 1561   4.217   6.185   1.299  0.1668  0.8832 -0.0153
  221SOL    HW1 1562   4.310   6.153   1.280  1.1073  2.1444  2.1101
  221SOL    HW2 1563   4.214   6.284   1.289 -0.3838  1.0881  1.9565
  222SOL     OW 1564   5.606   5.056   6.394 -0.1346  0.2642 -0.1005
  222SOL    HW1 1565   5.661   5.030   6.315  0.9063  0.6367  0.4830
  222SOL    HW2 1566   5.619   4.990   6.467 -0.5071  0.3337  0.0309
  223SOL     OW 1567   2.897   5.932   0.249 -0.1401 -0.2463  0.3231
  223SOL    HW1 1568   2.996   5.935   0.239 -0.0069 -1.2052  1.1867
  223SOL    HW2 1569   2.864   5.839   0.230 -0.7557 -0.1560  0.9054
  224SOL     OW 1570   4.111   3.706   3.132 -0.1421  0.0927  0.5411
  224SOL    HW1 1571   4.123   3.620   3.182 -0.0509  0.7210  1.6240
  224SOL    HW2 1572   4.016   3.736   3.140 -0.2654 -0.0856 -0.1557
  225SOL     OW 1573   6.790   6.986   4.162 -0.1845 -0.0248  0.2993
  225SOL    HW1 1574   6.710   7.042   4.183  0.2571  0.3464  1.0270
  225SOL    HW2 1575   6.868   7.044   4.140  0.1275 -0.3510  0.5130
  226SOL     OW 1576   5.410   1.743   3.907 -0.7255 -0.3236 -0.8073
  226SOL    HW1 1577   5.466   1.755   3.989  0.8435 -1.3240 -1.6730
  226SOL    HW2 1578   5.314   1.736   3.932 -0.4092  0.7079  0.8044
  227SOL     OW 1579   2.976   4.938   1.792 -0.0180 -0.4145  0.8544
  227SOL    HW1 1580   3.073   4.914   1.800 -0.5823 -2.7261  1.5376
  227SOL    HW2 1581   2.947   4.989   1.873  0.6749  0.6595  0.4596
  228SOL     OW 1582   1.949   5.750   4.643  0.2787  0.2266  0.0995
  228SOL    HW1 1583   1.957   5.817   4.717 -0.3052  1.1351 -0.6385
  228SOL    HW2 1584   1.887   5.676   4.672  0.6558  0.1750  0.7887
  229SOL     OW 1585   0.678   1.273   5.713 -0.3327  0.1275 -0.5651
  229SOL    HW1 1586   0.670   1.197   5.779 -0.9312 -0.1198 -0.9129
  229SOL    HW2 1587   0.642   1.356   5.754 -0.5182  0.0190 -0.5074
  230SOL     OW 1588   0.287   0.828   2.422  0.0156 -0.3139 -0.5191
  230SOL    HW1 1589   0.226   0.907   2.429 -0.1509 -0.4419 -0.5240
  230SOL    HW2 1590   0.375   0.858   2.386 -0.7975 -0.5003 -2.8475
  231SOL     OW 1591   4.839   0.618   1.795  0.0909  0.2287  0.5577
  231SOL    HW1 1592   4.866   0.553   1.724 -0.6533  2.3450 -1.8471
  231SOL    HW2 1593   4.757   0.668   1.764  1.2102  2.9965  1.7637
  232SOL     OW 1594   4.489   1.239   0.509 -0.0516 -1.0911  0.1322
  232SOL    HW1 1595   4.433   1.206   0.433 -0.9871 -1.7907  1.1040
  232SOL    HW2 1596   4.536   1.162   0.552 -0.7952 -0.9477  1.2609
  233SOL     OW 1597   0.020   3.673   5.744  0.2184 -0.0187 -0.4850
  233SOL    HW1 1598   0.054   3.719   5.662 -0.7500  0.1555 -0.8051
  233SOL    HW2 1599   0.096   3.628   5.791  0.5690 -1.6132 -2.4121
  234SOL     OW 1600   4.080   0.994   6.510  0.0437  0.0099 -0.0665
  234SOL    HW1 1601   4.021   1.007   6.430 -1.5246  0.7180  1.1552
  234SOL    HW2 1602   4.126   1.080   6.531 -0.4353  0.1362  0.4682
  235SOL     OW 1603   3.677   0.414   6.404  0.0514  0.4530  0.5762
  235SOL    HW1 1604   3.615   0.460   6.340 -1.5598 -3.0896 -0.6636
  235SOL    HW2 1605   3.769   0.416   6.366 -0.1023  1.8901  0.1891
  236SOL     OW 1606   6.258   0.565   6.104 -0.0961  0.5246  0.0426
  236SOL    HW1 1607   6.280   0.546   6.009  1.1382 -1.7923  0.7280
  236SOL    HW2 1608   6.309   0.646   6.135 -0.3080  1.1342 -1.1570
  237SOL     OW 1609   5.698   4.935   3.303 -0.0195 -0.3778 -0.2369
  237SOL    HW1 1610   5.666   4.971   3.391 -1.5899  0.4018 -1.0742
  237SOL    HW2 1611   5.619   4.912   3.246  0.9730 -1.6467 -1.1485
  238SOL     OW 1612   0.798   4.228   4.251 -0.3287  0.4001 -0.1602
  238SOL    HW1 1613   0.751   4.314   4.272  0.0738  2.0352 -4.6654
  238SOL    HW2 1614   0.736   4.166   4.204  0.0299 -0.7686  0.8730
  239SOL     OW 1615   2.229   4.013   3.043 -0.0366 -0.5795  0.2007
  239SOL    HW1 1616   2.187   3.961   3.117  0.5067 -0.4538  0.5987
  239SOL    HW2 1617   2.218   4.111   3.062 -1.3562 -0.5277 -0.7092
  240SOL     OW 1618   3.958   0.809   0.957 -0.0108  0.2873 -0.3228
  240SOL    HW1 1619   3.933   0.819   0.860  0.0270  1.2601 -0.2435
  240SOL    HW2 1620   4.041   0.862   0.976 -0.2946  0.5094  0.3449
  241SOL     OW 1621   2.704   0.774   3.465  0.2594 -0.3401  1.1325
  241SOL    HW1 1622   2.790   0.802   3.422 -1.1754  0.1586 -1.5934
  241SOL    HW2 1623   2.644   0.853   3.476 -1.7556 -1.2978 -1.7492
  242SOL     OW 1624   6.537   2.566   5.427 -0.1694  0.1753 -0.0607
  242SOL    HW1 1625   6.607   2.579   5.497  0.8390  0.6503 -1.1282
  242SOL    HW2 1626   6.496   2.654   5.404  0.4016  0.2222 -0.9524
  243SOL     OW 1627   3.571   2.345   6.011  0.0603  0.1044 -0.1806
  243SOL    HW1 1628   3.519   2.425   5.981  2.1877  0.9553 -1.9110
  243SOL    HW2 1629   3.624   2.367   6.092 -2.8374 -1.0771  2.2479
  244SOL     OW 1630   1.064   0.737   5.232  0.2404  0.1024 -0.2275
  244SOL    HW1 1631   1.091   0.833   5.220  1.0466 -0.0649  0.1741
  244SOL    HW2 1632   1.054   0.694   5.142  0.4148  0.4224 -0.4010
  245SOL     OW 1633   5.334   3.233   0.938 -0.7304  0.7776 -0.4688
  245SOL    HW1 1634   5.387   3.302   0.986  0.8263  0.5262 -1.7456
  245SOL    HW2 1635   5.277   3.184   1.003 -0.3267  1.8907  0.7642
  246SOL     OW 1636   5.136   4.624   1.743  0.4467 -0.5186 -0.0070
  246SOL    HW1 1637   5.093   4.570   1.815 -0.4576 -0.1411 -0.2461
  246SOL    HW2 1638   5.189   4.564   1.683  0.0058 -1.0395  0.1171
  247SOL     OW 1639   4.052   4.494   6.907 -0.0369  0.3589  1.0977
  247SOL    HW1 1640   4.047   4.396   6.926 -2.4582  0.2820  0.3346
  247SOL    HW2 1641   4.129   4.512   6.845 -1.3957 -1.5692 -1.3502
  248SOL     OW 1642   3.552   6.581   5.337 -0.1608  0.1856 -0.3151
  248SOL    HW1 1643   3.537   6.508   5.403  3.3002  0.1734  0.6797
  248SOL    HW2 1644   3.586   6.543   5.252 -1.6114  0.4548 -1.0516
  249SOL     OW 1645   5.204   6.444   3.075 -0.0990 -0.5630 -0.3540
  249SOL    HW1 1646   5.218   6.427   2.977  0.4580  0.0815 -0.3990
  249SOL    HW2 1647   5.215   6.359   3.126  0.8860 -0.6823 -0.7326
  250SOL     OW 1648   6.120   3.464   5.867 -0.3590  0.5617  0.0193
  250SOL    HW1 1649   6.089   3.440   5.959  1.2333  0.4268  0.5585
  250SOL    HW2 1650   6.060   3.421   5.799 -1.3325  0.3545  0.9796
  251SOL     OW 1651   4.831   5.872   4.392 -0.4599 -0.8715  0.2217
  251SOL    HW1 1652   4.863   5.840   4.303 -2.2230 -0.3190 -0.6365
  251SOL    HW2 1653   4.749   5.927   4.381  0.9921  1.8940  1.8851
  252SOL     OW 1654   2.095   1.250   0.043  0.1181 -0.1259 -0.1971
  252SOL    HW1 1655   2.065   1.225  -0.049 -1.6965 -2.2218  0.8824
  252SOL    HW2 1656   2.022   1.298   0.091 -0.6495 -2.7236  1.4826
  253SOL     OW 1657   4.688   0.717   6.392  0.2321 -0.5450  0.1794
  253SOL    HW1 1658   4.624   0.694   6.465  0.1278  1.0048  0.6190
  253SOL    HW2 1659   4.770   0.661   6.400 -0.6908 -1.9484  0.1315
  254SOL     OW 1660   6.547   2.053   0.624 -0.3088  0.3311  0.1708
  254SOL    HW1 1661   6.645   2.059   0.606 -0.3209 -1.1346 -0.4604
  254SOL    HW2 1662   6.503   2.139   0.597  0.8542  1.2170  0.9736
  255SOL     OW 1663   0.009   1.041   2.903  0.8936  0.2164  0.4002
  255SOL    HW1 1664   0.013   1.116   2.837  0.7527  0.0703  0.2214
  255SOL    HW2 1665   0.080   1.053   2.972  0.9558  0.4441  0.2980
  256SOL     OW 1666   6.138   3.735   0.357  0.0442  0.5209 -0.1600
  256SOL    HW1 1667   6.071   3.731   0.431  2.3939  1.4719  2.1442
  256SOL    HW2 1668   6.207   3.805   0.377  2.0750 -0.7738 -2.1372
  257SOL     OW 1669   1.598   4.630   6.840  0.6683 -0.1434  0.3840
  257SOL    HW1 1670   1.532   4.559   6.866 -1.5882  1.8772  0.6347
  257SOL    HW2 1671   1.627   4.616   6.746  0.9913 -1.8786  0.7165
  258SOL     OW 1672   2.787   0.315   6.989  0.3616  0.4463 -0.0552
  258SOL    HW1 1673   2.883   0.322   7.016  0.4203 -1.0798  0.2257
  258SOL    HW2 1674   2.781   0.287   6.893  0.2210 -0.0582  0.0945
  259SOL     OW 1675   2.611   6.601   5.436 -0.0436  0.7233  0.1758
  259SOL    HW1 1676   2.555   6.592   5.518  0.2948  0.3213  0.3711
  259SOL    HW2 1677   2.620   6.697   5.412  1.4552  1.0313  1.7619
  260SOL     OW 1678   5.354   6.938   3.519 -0.0383 -0.0731  0.2691
  260SOL    HW1 1679   5.341   6.839   3.514 -1.8954  0.1168  0.6651
  260SOL    HW2 1680   5.270   6.981   3.551 -0.3081  1.9009 -2.7087
  261SOL     OW 1681   7.005   5.916   5.120  0.2265 -0.2829 -0.0662
  261SOL    HW1 1682   7.070   5.969   5.173  0.0413  1.7020 -1.7341
  261SOL    HW2 1683   6.964   5.846   5.179  0.0777  1.7352  2.3863
  262SOL     OW 1684   6.506   5.693   2.178  0.3044  0.1972 -0.3775
  262SOL    HW1 1685   6.558   5.675   2.261 -0.8719  0.4862  0.4426
  262SOL    HW2 1686   6.540   5.634   2.104  2.6062  1.2316 -0.2457
  263SOL     OW 1687   1.310   2.152   6.690 -0.5917 -0.3488  0.5560
  263SOL    HW1 1688   1.357   2.232   6.727 -0.8416 -0.4676  1.1363
  263SOL    HW2 1689   1.311   2.078   6.757  0.3615 -1.1264 -0.2830
  264SOL     OW 1690   0.023   2.542   3.345 -0.7269 -0.2021  0.4112
  264SOL    HW1 1691  -0.028   2.525   3.429 -0.5874  0.7383  0.6963
  264SOL    HW2 1692   0.119   2.556   3.366 -0.6547 -0.1713  0.0706
  265SOL     OW 1693   5.294   6.289   0.633 -0.2006  0.4752  0.2523
  265SOL    HW1 1694   5.251   6.262   0.719  0.8363 -0.4142  0.5186
  265SOL    HW2 1695   5.266   6.225   0.560  2.0564 -1.2988  0.8286
  266SOL     OW 1696   5.857   6.445   3.530  0.2169 -0.7017  0.1022
  266SOL    HW1 1697   5.810   6.485   3.609  0.6577 -1.7119  0.9042
  266SOL    HW2 1698   5.888   6.518   3.469 -0.6868  0.0660  0.5346
  267SOL     OW 1699   5.490   3.778   3.859 -0.4906 -0.1495 -0.1670
  267SOL    HW1 1700   5.507   3.835   3.939 -0.2628  0.1460 -0.4201
  267SOL    HW2 1701   5.459   3.688   3.888  0.1707 -0.2450  0.2788
  268SOL     OW 1702   6.746   3.132   1.895 -0.4851 -0.3677 -0.0535
  268SOL    HW1 1703   6.808   3.204   1.863 -1.0115  0.1462  0.0720
  268SOL    HW2 1704   6.662   3.173   1.929 -0.8878 -1.0623 -0.1959
  269SOL     OW 1705   0.236   1.929   0.617  0.5252 -0.4348  0.1562
  269SOL    HW1 1706   0.255   1.838   0.580 -1.8515 -0.0994 -2.2713
  269SOL    HW2 1707   0.205   1.920   0.712  1.7715 -1.9671  0.4613
  270SOL     OW 1708   5.746   5.859   6.821 -0.0781  0.1793  0.3014
  270SOL    HW1 1709   5.729   5.877   6.918  0.7112  1.4569  0.2318
  270SOL    HW2 1710   5.844   5.850   6.805  0.0649  2.7274 -0.7517
  271SOL     OW 1711   0.046   5.518   4.492  0.8853  0.1766  0.5047
  271SOL    HW1 1712   0.089   5.444   4.440 -0.0088  0.0522 -0.0828
  271SOL    HW2 1713  -0.019   5.479   4.557  1.3482  0.3816  1.0921
  272SOL     OW 1714   1.641   6.844   6.315  0.1681 -0.1600  0.0104
  272SOL    HW1 1715   1.600   6.925   6.357 -1.1227 -1.0732  0.5748
  272SOL    HW2 1716   1.728   6.824   6.359  0.4458  0.8463 -0.0582
  273SOL     OW 1717   0.858   5.052   2.653  0.1613  0.4265  0.1753
  273SOL    HW1 1718   0.777   5.108   2.669  0.6240  1.0922  0.2282
  273SOL    HW2 1719   0.926   5.069   2.725 -0.7422 -2.2403  1.7965
  274SOL     OW 1720   1.693   2.252   0.305  0.3978  0.0902 -0.0730
  274SOL    HW1 1721   1.658   2.160   0.287  1.5934 -0.2164 -1.0186
  274SOL    HW2 1722   1.761   2.248   0.377  0.0223  0.3369  0.2977
  275SOL     OW 1723   3.248   4.791   1.739 -0.2832  0.0628  0.4517
  275SOL    HW1 1724   3.279   4.735   1.663 -0.8203 -0.3288  0.5172
  275SOL    HW2 1725   3.325   4.813   1.798  0.0459 -0.0508  0.0702
  276SOL     OW 1726   0.937   3.761   0.688 -0.4583 -0.0350 -0.4545
  276SOL    HW1 1727   1.016   3.807   0.729 -0.8301 -0.1171  0.3787
  276SOL    HW2 1728   0.939   3.664   0.711 -0.5132 -0.1392 -0.8901
  277SOL     OW 1729   2.103   3.993   0.621  0.1233 -0.4711  0.0011
  277SOL    HW1 1730   2.024   3.981   0.561  1.1060  1.1568 -1.7398
  277SOL    HW2 1731   2.179   4.032   0.569  1.1680  0.6796  2.2158
  278SOL     OW 1732   0.910   2.135   5.367 -0.1554 -0.1890  0.3976
  278SOL    HW1 1733   0.837   2.198   5.393 -0.4351  0.9445 -2.7275
  278SOL    HW2 1734   0.878   2.041   5.378 -2.4128  0.2692 -1.4984
  279SOL     OW 1735   3.095   1.533   4.930  0.0916  0.3231 -0.0152
  279SOL    HW1 1736   3.188   1.518   4.895  0.5577  2.1436  0.3300
  279SOL    HW2 1737   3.072   1.460   4.994  1.5885  0.2427  0.4812
  280SOL     OW 1738   4.847   2.155   0.099 -0.4266 -0.2800  0.0429
  280SOL    HW1 1739   4.868   2.060   0.122 -0.9151 -0.3308  0.2883
  280SOL    HW2 1740   4.879   2.215   0.173 -0.5975 -0.3002  0.1323
  281SOL     OW 1741   3.756   0.090   1.536  0.3019  0.8441 -0.1529
  281SOL    HW1 1742   3.808   0.005   1.538  0.2483  0.8226  1.2377
  281SOL    HW2 1743   3.781   0.146   1.615 -2.6373  0.2990  1.2994
  282SOL     OW 1744   4.593   3.193   1.242 -0.2305 -0.3682  0.4968
  282SOL    HW1 1745   4.555   3.101   1.249  0.8150 -0.8921 -0.4486
  282SOL    HW2 1746   4.531   3.251   1.190  0.8266 -1.6310 -2.4362
  283SOL     OW 1747   1.747   6.312   4.251  0.8222  0.1789  0.1663
  283SOL    HW1 1748   1.675   6.381   4.259 -0.6851 -1.3800  0.3607
  283SOL    HW2 1749   1.831   6.356   4.218 -0.0476  2.1167  0.3942
  284SOL     OW 1750   4.531   3.862   6.124  0.8513  0.2789 -0.1310
  284SOL    HW1 1751   4.483   3.838   6.208 -1.9775  0.7253 -1.5010
  284SOL    HW2 1752   4.554   3.960   6.125  1.0485  0.2279  0.2289
  285SOL     OW 1753   0.641   1.494   4.261 -0.0970  0.2936  0.6536
  285SOL    HW1 1754   0.591   1.470   4.344  0.4823  1.6556  1.4339
  285SOL    HW2 1755   0.702   1.419   4.236 -0.9291 -0.4953  0.9347
  286SOL     OW 1756   5.005   4.367   6.692  0.2843  0.6275  0.1835
  286SOL    HW1 1757   5.019   4.268   6.693 -1.4967  0.3197 -1.1315
  286SOL    HW2 1758   5.031   4.404   6.603 -3.0212  0.6307 -0.8837
  287SOL     OW 1759   5.838   6.986   4.561 -0.3964 -0.6976 -0.3490
  287SOL    HW1 1760   5.882   6.971   4.650  0.9681  3.9090  0.0509
  287SOL    HW2 1761   5.741   7.006   4.575 -0.8461 -2.7479 -0.2946
  288SOL     OW 1762   1.050   3.829   2.617 -0.0140 -0.0815 -0.5157
  288SOL    HW1 1763   1.024   3.836   2.714  0.0815 -0.0678 -0.4912
  288SOL    HW2 1764   1.063   3.921   2.580 -0.2032 -0.0814 -0.5828
  289SOL     OW 1765   4.562   2.582   4.561  0.6643 -0.7137 -0.1719
  289SOL    HW1 1766   4.586   2.672   4.599  1.1605 -1.1339  0.5246
  289SOL    HW2 1767   4.478   2.549   4.603  0.0658 -0.2505 -0.9750
  290SOL     OW 1768   6.940   2.199   3.679 -0.0689  0.3319  0.3185
  290SOL    HW1 1769   6.921   2.168   3.586 -3.0066 -0.9161  1.2446
  290SOL    HW2 1770   7.003   2.135   3.723  1.1115  0.7751 -0.6517
  291SOL     OW 1771   5.618   2.833   2.747 -0.1771  0.0004  0.5997
  291SOL    HW1 1772   5.539   2.794   2.700  0.2989 -1.0133  0.6167
  291SOL    HW2 1773   5.598   2.928   2.772 -0.9471  0.1261 -0.4246
  292SOL     OW 1774   0.743   5.984   1.005  0.0026 -0.4597 -0.1961
  292SOL    HW1 1775   0.741   5.953   1.100  1.0777 -0.2388 -0.0775
  292SOL    HW2 1776   0.651   5.986   0.968 -0.3444 -1.3173  0.5922
  293SOL     OW 1777   1.928   1.972   0.388 -0.3448  0.1474  0.1270
  293SOL    HW1 1778   2.022   1.966   0.356  0.3267 -0.5214  2.0677
  293SOL    HW2 1779   1.908   2.067   0.415  0.1583  0.0913  0.7267
  294SOL     OW 1780   1.095   1.537   5.535  0.2928 -0.5403  1.0825
  294SOL    HW1 1781   1.127   1.620   5.580 -2.3362  0.2961  1.5636
  294SOL    HW2 1782   1.043   1.482   5.600 -0.8748 -0.8728 -0.0954
  295SOL     OW 1783   3.329   4.623   6.832 -0.2880  0.5797 -0.6045
  295SOL    HW1 1784   3.330   4.692   6.905  0.2416  0.4341 -0.4736
  295SOL    HW2 1785   3.274   4.545   6.862  1.4797 -0.3102  0.4187
  296SOL     OW 1786   1.316   4.733   5.151  0.1450 -0.1896 -0.1342
  296SOL    HW1 1787   1.352   4.823   5.127 -0.5871 -0.4283 -2.3326
  296SOL    HW2 1788   1.217   4.733   5.140  0.0100 -0.9821  0.9197
  297SOL     OW 1789   0.305   5.632   3.413  0.2555  0.3030  0.4815
  297SOL    HW1 1790   0.238   5.587   3.354 -2.1795  2.0282  1.7551
  297SOL    HW2 1791   0.325   5.723   3.377  0.1088  0.6851  1.3463
  298SOL     OW 1792   2.296   1.030   1.856 -0.5195  0.2417 -0.6683
  298SOL    HW1 1793   2.384   1.074   1.838 -1.0731  2.0804  0.7703
  298SOL    HW2 1794   2.222   1.092   1.829 -1.3542 -0.3888  0.1289
  299SOL     OW 1795   6.252   2.037   3.706  0.2300 -0.1402  0.0722
  299SOL    HW1 1796   6.322   2.088   3.657  0.9069  0.8496  1.9582
  299SOL    HW2 1797   6.290   2.003   3.793 -1.1785 -0.9636  0.4054
  300SOL     OW 1798   6.666   0.928   5.369  0.0159  0.0085  0.4507
  300SOL    HW1 1799   6.648   1.026   5.380 -1.2044 -0.3166  1.6017
  300SOL    HW2 1800   6.654   0.882   5.457  1.3325 -1.0805  0.0886
  301SOL     OW 1801   1.527   1.840   4.061  0.3256  0.6470 -0.4202
  301SOL    HW1 1802   1.620   1.804   4.048 -0.2641 -0.4439 -2.0775
  301SOL    HW2 1803   1.461   1.767   4.042 -0.9178  0.4466  3.7908
  302SOL     OW 1804   3.939   3.003   1.804 -0.3172 -0.0509 -0.3019
  302SOL    HW1 1805   3.882   2.960   1.874  1.1149 -1.7763 -0.1166
  302SOL    HW2 1806   3.887   3.010   1.718 -1.4580  0.3367  0.3998
  303SOL     OW 1807   0.924   4.729   6.993  0.3001 -0.0677  0.1482
  303SOL    HW1 1808   0.826   4.724   7.012  0.1011 -0.2910 -0.8732
  303SOL    HW2 1809   0.967   4.641   7.017 -0.2810 -1.0387 -2.0912
  304SOL     OW 1810   3.301   5.305   1.451  0.2141 -0.2138  0.4227
  304SOL    HW1 1811   3.346   5.248   1.382  0.3810 -0.9530  1.1350
  304SOL    HW2 1812   3.208   5.327   1.420  0.8542  0.9111 -0.8274
  305SOL     OW 1813   4.825   3.964   3.090 -0.0367  0.1826 -0.3181
  305SOL    HW1 1814   4.873   3.926   3.169 -0.9050  1.9805  1.1861
  305SOL    HW2 1815   4.797   3.891   3.029 -1.7110 -1.6969  2.4373
  306SOL     OW 1816   5.820   1.284   2.492 -0.0816 -0.5932  0.0353
  306SOL    HW1 1817   5.866   1.196   2.505  1.1497 -0.0018 -0.2624
  306SOL    HW2 1818   5.869   1.356   2.541 -1.6054 -0.1947  1.0658
  307SOL     OW 1819   6.754   6.319   3.870 -0.6315  0.1088  0.2124
  307SOL    HW1 1820   6.841   6.270   3.873  0.9944  2.8450  1.0245
  307SOL    HW2 1821   6.764   6.403   3.818 -2.1740  1.5286  2.0340
  308SOL     OW 1822   2.327   4.130   0.517 -0.2023  0.7898 -0.5389
  308SOL    HW1 1823   2.384   4.077   0.454 -0.1400  0.7004 -0.4097
  308SOL    HW2 1824   2.385   4.172   0.587 -0.2758  0.8451 -0.5111
  309SOL     OW 1825   5.286   5.308   1.129 -0.0963 -0.8410 -0.2766
  309SOL    HW1 1826   5.194   5.301   1.167 -0.2616 -0.9427 -0.6861
  309SOL    HW2 1827   5.296   5.243   1.054  1.2006 -2.8540  1.4954
  310SOL     OW 1828   5.418   2.217   2.734 -0.1737 -0.4637  0.5355
  310SOL    HW1 1829   5.505   2.265   2.732  0.3773 -1.3660  1.6153
  310SOL    HW2 1830   5.422   2.136   2.676 -0.2229 -0.6089  0.7314
  311SOL     OW 1831   4.487   4.931   1.842 -0.1254  0.4225  0.0360
  311SOL    HW1 1832   4.396   4.972   1.839 -0.0202  0.7672  1.0756
  311SOL    HW2 1833   4.556   5.003   1.832  0.0668  0.6095  2.2542
  312SOL     OW 1834   5.653   3.429   6.472 -0.0877 -0.2681  0.1595
  312SOL    HW1 1835   5.743   3.470   6.457 -0.0789 -0.2398  0.2881
  312SOL    HW2 1836   5.600   3.432   6.387  1.3496 -3.5632 -0.9857
  313SOL     OW 1837   6.687   0.321   3.664 -0.2212  0.5943  0.0563
  313SOL    HW1 1838   6.739   0.404   3.686  0.5368  0.5826 -1.5890
  313SOL    HW2 1839   6.650   0.328   3.572 -0.7767 -0.5947  0.1725
  314SOL     OW 1840   1.217   1.024   6.507 -0.3489  0.4698 -0.0988
  314SOL    HW1 1841   1.237   0.984   6.417 -1.4340 -0.0956 -0.1096
  314SOL    HW2 1842   1.293   1.083   6.535  0.8438 -0.7770 -0.5596
  315SOL     OW 1843   0.094   0.971   0.076 -0.4883  0.3944 -0.1947
  315SOL    HW1 1844   0.177   0.970   0.132 -1.6712 -2.2793  1.7325
  315SOL    HW2 1845   0.033   1.044   0.109  0.8739  2.1932 -1.4470
  316SOL     OW 1846   0.038   6.291   5.730 -0.0462 -0.0203  0.0628
  316SOL    HW1 1847   0.089   6.369   5.695  0.9885 -0.8909 -0.4211
  316SOL    HW2 1848   0.043   6.289   5.830  1.4879 -0.4711  0.0004
  317SOL     OW 1849   0.330   3.761   4.163 -0.3504 -0.0741  0.0368
  317SOL    HW1 1850   0.381   3.803   4.088 -0.8835 -1.4757 -1.1480
  317SOL    HW2 1851   0.394   3.727   4.232  0.2760 -0.6808 -0.8214
  318SOL     OW 1852   1.935   0.128   6.611 -0.9065  0.3228  0.6256
  318SOL    HW1 1853   2.007   0.081   6.561 -0.6874  1.4027 -0.0946
  318SOL    HW2 1854   1.879   0.060   6.660  0.5267 -0.5387  1.1385
  319SOL     OW 1855   6.161   4.771   5.057 -0.1299  0.4351  0.6219
  319SOL    HW1 1856   6.133   4.679   5.031  0.4798  0.8599 -1.7483
  319SOL    HW2 1857   6.224   4.766   5.135 -1.9183 -0.9325  2.0648
  320SOL     OW 1858   6.861   3.559   2.676 -0.5258  0.1664 -0.4402
  320SOL    HW1 1859   6.786   3.624   2.667  1.2951  2.3149 -0.8661
  320SOL    HW2 1860   6.873   3.535   2.772  1.0210  3.3734  0.2892
  321SOL     OW 1861   5.084   1.880   2.999  0.3967 -0.1268 -0.2358
  321SOL    HW1 1862   4.984   1.887   2.995  0.4666  0.2179 -2.7318
  321SOL    HW2 1863   5.119   1.947   3.065 -1.0183 -0.6529  1.1130
  322SOL     OW 1864   5.238   6.429   6.829  0.1826 -0.0088  0.1727
  322SOL    HW1 1865   5.309   6.457   6.895 -0.9699 -1.9469  2.3824
  322SOL    HW2 1866   5.274   6.356   6.772 -0.4244 -2.2910  2.5090
  323SOL     OW 1867   4.097   0.631   5.359 -0.3038 -0.2023 -0.0250
  323SOL    HW1 1868   4.085   0.724   5.324  0.2579 -0.2865 -0.4664
  323SOL    HW2 1869   4.164   0.633   5.434  2.7884 -0.7268 -2.5710
  324SOL     OW 1870   4.831   1.350   1.855 -0.7104 -0.3751  0.1154
  324SOL    HW1 1871   4.784   1.340   1.768 -0.6636 -2.1925  0.2530
  324SOL    HW2 1872   4.862   1.260   1.886  2.3429  0.6501  0.3266
  325SOL     OW 1873   3.609   1.143   2.924 -0.4243  0.5563  0.3234
  325SOL    HW1 1874   3.623   1.223   2.866  1.4192  0.3360  0.4133
  325SOL    HW2 1875   3.577   1.172   3.014  0.9036  1.2935  0.5866
  326SOL     OW 1876   4.670   2.244   6.920 -0.0012  0.0380  0.2148
  326SOL    HW1 1877   4.743   2.205   6.976  0.5327 -0.0644 -0.5284
  326SOL    HW2 1878   4.665   2.343   6.935  2.1755  0.5300 -1.7402
  327SOL     OW 1879   5.316   0.087   2.413  0.2804 -0.0150  0.4018
  327SOL    HW1 1880   5.375   0.014   2.448 -0.5759  0.2832  2.6716
  327SOL    HW2 1881   5.369   0.171   2.403  0.6246 -0.1953  0.6800
  328SOL     OW 1882   4.188   7.009   2.262  0.7849 -0.2234  0.3012
  328SOL    HW1 1883   4.215   7.094   2.307  0.6819  0.1260 -0.2901
  328SOL    HW2 1884   4.268   6.966   2.220  1.0209 -0.9372  1.4368
  329SOL     OW 1885   6.547   3.900   2.129  0.1816 -0.0970 -0.0825
  329SOL    HW1 1886   6.484   3.928   2.057 -0.4021 -0.7988  0.1340
  329SOL    HW2 1887   6.590   3.980   2.170 -0.3953  0.3755 -0.3965
  330SOL     OW 1888   3.248   2.039   6.787  0.2937  0.1182  0.4461
  330SOL    HW1 1889   3.188   2.111   6.754  0.1068 -0.0066  0.5148
  330SOL    HW2 1890   3.219   2.009   6.878 -2.0726 -2.7614 -1.0691
  331SOL     OW 1891   3.010   5.029   3.421  0.2979 -0.3509 -0.0503
  331SOL    HW1 1892   3.012   4.944   3.368  0.5172  0.3045 -1.1435
  331SOL    HW2 1893   2.965   5.101   3.367  3.0691  1.1083 -0.6260
  332SOL     OW 1894   3.347   1.089   2.493  0.0726  0.5844  0.0301
  332SOL    HW1 1895   3.361   1.010   2.433 -1.7237  0.8736 -0.8197
  332SOL    HW2 1896   3.285   1.154   2.449 -0.1413  1.4959  1.6109
  333SOL     OW 1897   1.366   6.273   5.226 -0.3226  0.0825 -0.5973
  333SOL    HW1 1898   1.296   6.340   5.203  0.0392  0.7156  0.1071
  333SOL    HW2 1899   1.454   6.303   5.192  0.0588  0.5861  0.7699
  334SOL     OW 1900   0.961   0.540   1.001 -0.4157  0.1308 -0.5085
  334SOL    HW1 1901   0.885   0.482   1.031 -0.2912  1.3816  2.4873
  334SOL    HW2 1902   1.037   0.482   0.972 -0.9901 -1.1816  0.4983
  335SOL     OW 1903   0.855   0.280   6.105  0.0624  0.3678  0.4800
  335SOL    HW1 1904   0.899   0.290   6.016  1.5723  1.5658  1.3172
  335SOL    HW2 1905   0.904   0.334   6.173 -0.7749 -0.8833  2.1588
  336SOL     OW 1906   0.961   4.221   5.422 -0.3974 -0.2014  0.0973
  336SOL    HW1 1907   1.014   4.200   5.504 -1.4062  0.5902  0.9779
  336SOL    HW2 1908   1.023   4.237   5.346  0.6353  0.6617  1.0863
  337SOL     OW 1909   2.669   5.956   1.570 -0.1727  0.3662  0.5506
  337SOL    HW1 1910   2.702   5.861   1.561  0.1004  0.1953  2.9297
  337SOL    HW2 1911   2.700   6.009   1.491  1.7971 -0.9270  0.3968
  338SOL     OW 1912   1.564   6.895   5.337  0.1635 -0.5643  0.1196
  338SOL    HW1 1913   1.659   6.892   5.367  0.0842 -0.2325  0.4072
  338SOL    HW2 1914   1.557   6.856   5.245  1.0964  2.2597 -1.2641
  339SOL     OW 1915   1.094   1.561   2.553  0.2094  0.2469  0.3099
  339SOL    HW1 1916   1.073   1.529   2.460  0.2204 -0.9173  0.6868
  339SOL    HW2 1917   1.192   1.575   2.562  0.4266 -1.2370  0.5918
  340SOL     OW 1918   6.538   4.315   5.784 -0.6978  0.0688  0.3711
  340SOL    HW1 1919   6.611   4.300   5.851 -0.5160  0.2529  0.2156
  340SOL    HW2 1920   6.556   4.260   5.702 -0.3710  0.6214  0.0612
  341SOL     OW 1921   2.210   0.217   2.111  0.0344  0.3903 -0.0922
  341SOL    HW1 1922   2.288   0.213   2.174  0.0660 -0.4505 -0.1736
  341SOL    HW2 1923   2.129   0.246   2.161  0.2419  0.5685  0.1480
  342SOL     OW 1924   0.516   3.425   2.643  0.2888 -0.3232  0.1383
  342SOL    HW1 1925   0.449   3.462   2.579  0.4648  1.3912  0.8641
  342SOL    HW2 1926   0.475   3.352   2.697 -0.6161 -0.1079 -0.2457
  343SOL     OW 1927   5.945   2.101   3.463  0.4083 -0.2681  0.1863
  343SOL    HW1 1928   5.939   2.012   3.418 -0.2329  0.1498 -0.5862
  343SOL    HW2 1929   5.962   2.172   3.394 -0.9921  0.4412  0.5357
  344SOL     OW 1930   6.374   0.909   5.536 -0.0458  0.0173  0.3124
  344SOL    HW1 1931   6.341   0.996   5.500 -0.2344 -0.4896 -0.7927
  344SOL    HW2 1932   6.412   0.855   5.461 -3.2367 -2.3861  0.2219
  345SOL     OW 1933   1.337   2.364   2.490 -0.3232  0.0190  0.1429
  345SOL    HW1 1934   1.366   2.332   2.580  0.4847  0.9099  0.2208
  345SOL    HW2 1935   1.404   2.430   2.455 -1.2164  0.5503 -0.6140
  346SOL     OW 1936   0.812   6.325   0.357 -0.1310  0.8800 -0.0601
  346SOL    HW1 1937   0.813   6.419   0.323 -0.3941  0.6199 -0.8056
  346SOL    HW2 1938   0.839   6.263   0.284  0.2386  0.3895  0.4859
  347SOL     OW 1939   5.280   4.365   2.002  0.1073 -0.0065 -0.2046
  347SOL    HW1 1940   5.228   4.298   1.948  2.2152 -0.5053 -1.7632
  347SOL    HW2 1941   5.306   4.324   2.089  2.8571 -2.0312 -1.8183
  348SOL     OW 1942   3.397   5.840   1.279 -0.0806 -0.6667 -0.5503
  348SOL    HW1 1943   3.377   5.743   1.268 -2.8335 -0.1022 -1.3067
  348SOL    HW2 1944   3.451   5.872   1.200 -1.3002 -1.0950 -1.5924
  349SOL     OW 1945   4.641   3.985   5.844 -0.3648 -0.1608  0.1674
  349SOL    HW1 1946   4.738   3.960   5.850 -0.5334 -0.4656  1.9560
  349SOL    HW2 1947   4.606   4.008   5.935 -1.8460  0.4744 -0.5305
  350SOL     OW 1948   3.858   4.031   2.944  0.7818  0.4890 -0.2003
  350SOL    HW1 1949   3.865   3.983   2.857  0.9784 -1.3403  0.7815
  350SOL    HW2 1950   3.950   4.057   2.975  0.7043  1.2243 -0.5667
  351SOL     OW 1951   4.959   5.337   1.474  0.0645  0.4657  0.2227
  351SOL    HW1 1952   5.022   5.325   1.397 -0.5688  1.5020 -0.4952
  351SOL    HW2 1953   4.873   5.288   1.455  0.6856 -1.1045  1.2832
  352SOL     OW 1954   3.701   1.066   4.346  0.0228  0.2889  0.0108
  352SOL    HW1 1955   3.782   1.015   4.373  0.2431  1.4096  1.6160
  352SOL    HW2 1956   3.695   1.070   4.246  1.0202 -1.1958 -0.1354
  353SOL     OW 1957   4.741   5.158   3.217 -0.0617 -0.1871  0.1587
  353SOL    HW1 1958   4.741   5.186   3.313  0.2846 -1.6112  0.6027
  353SOL    HW2 1959   4.821   5.197   3.171 -0.1847  0.4315  0.4576
  354SOL     OW 1960   6.804   3.349   0.168  0.5991 -0.0742 -0.3267
  354SOL    HW1 1961   6.892   3.338   0.121  0.7823 -2.4470  0.4178
  354SOL    HW2 1962   6.734   3.298   0.118  0.3700 -0.9189  0.8078
  355SOL     OW 1963   0.686   0.750   3.327  0.2998 -0.3945  0.0288
  355SOL    HW1 1964   0.651   0.841   3.351 -1.1352 -0.7279 -0.6925
  355SOL    HW2 1965   0.615   0.699   3.279  0.5513 -2.4700  1.7371
  356SOL     OW 1966   0.074   4.704   1.576 -0.0964  0.0745 -0.0419
  356SOL    HW1 1967   0.093   4.785   1.522  1.7198  0.0339  0.4591
  356SOL    HW2 1968   0.032   4.634   1.518 -1.3010  1.2027 -0.5672
  357SOL     OW 1969   0.887   6.525   6.174 -0.8301 -0.6601 -0.3118
  357SOL    HW1 1970   0.894   6.607   6.118  0.1867 -1.5766 -1.5890
  357SOL    HW2 1971   0.841   6.452   6.122  0.4491 -1.6392 -0.1121
  358SOL     OW 1972   4.365   0.764   1.541  0.6042  0.4392 -0.0061
  358SOL    HW1 1973   4.431   0.819   1.490 -0.6555  1.5756 -0.4690
  358SOL    HW2 1974   4.283   0.819   1.560  0.4856 -0.3800  2.0825
  359SOL     OW 1975   6.506   3.792   5.900 -0.7066 -0.1887  0.2061
  359SOL    HW1 1976   6.515   3.693   5.908 -1.8146 -0.1087  3.6183
  359SOL    HW2 1977   6.586   3.828   5.851  0.6872 -2.5589  0.5799
  360SOL     OW 1978   3.561   6.269   3.631 -0.4006 -0.5470 -0.1193
  360SOL    HW1 1979   3.648   6.262   3.581 -0.4958 -1.3839 -0.1763
  360SOL    HW2 1980   3.486   6.242   3.571 -0.3149 -3.9346  1.0955
  361SOL     OW 1981   5.120   0.916   2.529 -0.4057 -0.4459  0.1663
  361SOL    HW1 1982   5.094   0.944   2.436 -1.8262 -0.8325  0.4235
  361SOL    HW2 1983   5.181   0.837   2.524 -0.4472 -0.4465 -0.4414
  362SOL     OW 1984   0.052   0.733   6.605 -0.8380  0.5636  0.3856
  362SOL    HW1 1985   0.147   0.737   6.573 -0.7864 -3.2365 -0.4086
  362SOL    HW2 1986   0.050   0.734   6.705  0.0695  0.5359  0.4094
  363SOL     OW 1987   3.670   3.796   2.015  0.0855 -0.1644 -0.0687
  363SOL    HW1 1988   3.572   3.783   2.025 -0.0275  0.7493  0.1413
  363SOL    HW2 1989   3.689   3.843   1.929  0.3403 -0.3657 -0.1239
  364SOL     OW 1990   5.210   1.134   1.787 -0.2742  0.4243 -0.1955
  364SOL    HW1 1991   5.299   1.124   1.742  0.5384  1.5212  1.0802
  364SOL    HW2 1992   5.223   1.174   1.878 -2.1529  1.3916 -0.3054
  365SOL     OW 1993   2.074   1.896   5.484 -0.0490  0.1877 -0.5722
  365SOL    HW1 1994   2.023   1.895   5.398 -0.7389  1.0596 -0.1925
  365SOL    HW2 1995   2.160   1.945   5.471 -0.9068  1.8112 -0.3856
  366SOL     OW 1996   4.738   5.914   2.356  0.1610 -0.6042  0.8048
  366SOL    HW1 1997   4.742   5.900   2.455  0.0345 -0.3085  0.8534
  366SOL    HW2 1998   4.831   5.911   2.318  0.7179  3.0673  1.4776
  367SOL     OW 1999   3.849   1.264   6.092  0.0024 -0.4555 -0.4391
  367SOL    HW1 2000   3.772   1.214   6.053 -0.6652  0.5469 -0.4637
  367SOL    HW2 2001   3.837   1.362   6.074  1.0094 -0.2299  0.0384
  368SOL     OW 2002   3.097   5.997   5.690 -0.1205  0.0368  0.1066
  368SOL    HW1 2003   3.150   5.927   5.641  1.1854  1.3671 -0.4583
  368SOL    HW2 2004   3.062   5.958   5.775  1.0215 -1.1451  0.0719
  369SOL     OW 2005   3.130   2.560   6.292  0.0689 -0.1704  0.3499
  369SOL    HW1 2006   3.042   2.573   6.337  0.6001 -1.1324  1.7171
  369SOL    HW2 2007   3.161   2.648   6.255 -1.0632  0.3518  0.5774
  370SOL     OW 2008   5.353   0.827   3.596  0.3916 -0.0015  0.0840
  370SOL    HW1 2009   5.295   0.906   3.616  2.0998  1.5193 -0.7664
  370SOL    HW2 2010   5.315   0.746   3.642 -0.7343  1.5114  1.9724
  371SOL     OW 2011   5.745   0.857   1.458 -0.7909 -0.9177  0.2161
  371SOL    HW1 2012   5.680   0.782   1.447 -0.2120 -1.1934 -1.7394
  371SOL    HW2 2013   5.766   0.896   1.368 -1.5151  1.9931  1.1873
  372SOL     OW 2014   6.556   0.488   4.892 -0.0178 -0.0049  0.7635
  372SOL    HW1 2015   6.475   0.433   4.870  1.0451 -0.9425 -1.0184
  372SOL    HW2 2016   6.628   0.428   4.926  1.0767  0.2685 -0.9648
  373SOL     OW 2017   0.073   0.260   0.355  0.4830 -0.7670  0.1152
  373SOL    HW1 2018   0.108   0.181   0.405 -4.0771 -3.2372 -0.1046
  373SOL    HW2 2019   0.003   0.305   0.409  0.9214  1.3792 -0.9951
  374SOL     OW 2020   1.349   6.261   4.267 -0.2155 -0.4289  0.1305
  374SOL    HW1 2021   1.409   6.277   4.345 -1.8454 -2.4253  1.9322
  374SOL    HW2 2022   1.369   6.171   4.228  1.9210  1.2760 -3.1963
  375SOL     OW 2023   5.227   3.232   4.514 -0.3860 -0.0657 -0.3703
  375SOL    HW1 2024   5.308   3.290   4.504 -1.8250  1.8347 -1.5708
  375SOL    HW2 2025   5.231   3.158   4.447  0.1632  0.2336 -0.6779
  376SOL     OW 2026   1.026   4.186   4.686 -0.0091 -0.1869 -0.3842
  376SOL    HW1 2027   1.060   4.153   4.773  0.3555  0.2795 -0.3511
  376SOL    HW2 2028   1.081   4.263   4.654 -1.1008  0.6719 -0.2609
  377SOL     OW 2029   4.670   2.711   5.428  0.4412  0.0202 -0.8501
  377SOL    HW1 2030   4.636   2.700   5.521 -0.9481  0.5000 -1.2760
  377SOL    HW2 2031   4.721   2.629   5.402  1.2886  0.0963  0.4985
  378SOL     OW 2032   0.535   3.321   6.073  0.5711  0.2161 -0.3524
  378SOL    HW1 2033   0.582   3.381   6.138  0.5647 -1.4459  1.2745
  378SOL    HW2 2034   0.437   3.320   6.094 -0.0367  2.3072 -2.6266
  379SOL     OW 2035   1.947   0.468   1.053 -0.4621  0.2156 -0.0324
  379SOL    HW1 2036   1.972   0.543   1.114  0.8980  0.7365 -1.1884
  379SOL    HW2 2037   2.025   0.443   0.996 -1.6188 -0.4019 -1.4199
  380SOL     OW 2038   6.242   0.429   1.047  0.4112 -0.0364 -0.3308
  380SOL    HW1 2039   6.229   0.522   1.015 -0.0730  0.1828  0.4640
  380SOL    HW2 2040   6.322   0.388   1.002  0.0759  0.4379 -1.3644
  381SOL     OW 2041   1.165   0.392   5.369  0.4067  0.4458  0.0623
  381SOL    HW1 2042   1.135   0.418   5.277 -3.7306  2.0510  1.6266
  381SOL    HW2 2043   1.210   0.470   5.412  2.2236 -0.2657 -0.4338
  382SOL     OW 2044   2.609   3.933   0.261  0.0937  0.4152  0.3859
  382SOL    HW1 2045   2.683   3.964   0.203  0.8595  0.1020  1.1707
  382SOL    HW2 2046   2.645   3.909   0.351 -0.8725 -0.2963  0.6009
  383SOL     OW 2047   4.245   5.562   4.831 -0.1615 -0.3125 -0.1576
  383SOL    HW1 2048   4.147   5.572   4.810  0.1106  0.2060 -1.2254
  383SOL    HW2 2049   4.284   5.489   4.775 -0.5404 -2.6672  2.3992
  384SOL     OW 2050   0.749   1.051   1.174 -0.0085  0.5567 -0.6044
  384SOL    HW1 2051   0.726   0.972   1.232 -0.8856  1.7667  0.7674
  384SOL    HW2 2052   0.793   1.019   1.090  1.1639 -1.2695  0.6410
  385SOL     OW 2053   4.111   4.884   5.079  0.0869  0.4361 -0.4434
  385SOL    HW1 2054   4.176   4.958   5.092 -0.9115  0.9780  1.9710
  385SOL    HW2 2055   4.120   4.817   5.153 -0.5848 -0.6875 -1.3267
  386SOL     OW 2056   5.059   4.188   0.522 -0.0239 -0.1580  0.0622
  386SOL    HW1 2057   5.102   4.263   0.471  0.5759 -2.0621 -2.4536
  386SOL    HW2 2058   4.960   4.199   0.521  0.0558  0.5486 -0.4011
  387SOL     OW 2059   3.616   5.719   0.105  0.1369 -0.0074  0.0344
  387SOL    HW1 2060   3.644   5.707   0.010  1.2943 -2.8538  0.6185
  387SOL    HW2 2061   3.517   5.721   0.111  0.0566  0.5948 -1.2588
  388SOL     OW 2062   0.312   5.353   1.588  0.8460  0.0775 -0.4114
  388SOL    HW1 2063   0.367   5.432   1.562  0.1266  0.6721 -0.1619
  388SOL    HW2 2064   0.240   5.338   1.520  1.6302 -1.0335 -1.0278
  389SOL     OW 2065   4.813   4.700   6.934 -0.1194 -0.0052 -0.1759
  389SOL    HW1 2066   4.750   4.778   6.932 -1.1339 -0.7119  1.5190
  389SOL    HW2 2067   4.864   4.701   7.020  2.0520  0.3911 -1.4082
  390SOL     OW 2068   5.483   0.657   0.037 -0.1360 -0.1719 -0.1375
  390SOL    HW1 2069   5.447   0.595  -0.033 -1.5095  0.1474  0.2543
  390SOL    HW2 2070   5.514   0.603   0.116  0.4487 -0.4710 -0.5707
  391SOL     OW 2071   0.155   2.421   0.554 -0.5059 -0.6683 -0.9491
  391SOL    HW1 2072   0.216   2.341   0.550  1.7025  0.9342 -1.3794
  391SOL    HW2 2073   0.116   2.428   0.646  0.0605 -1.6736 -0.6058
  392SOL     OW 2074   5.620   6.022   5.153 -0.4863 -0.1728 -0.0883
  392SOL    HW1 2075   5.545   5.962   5.178  0.1120 -1.1020 -0.4640
  392SOL    HW2 2076   5.585   6.100   5.100 -0.9350 -1.9405 -2.5848
  393SOL     OW 2077   6.742   5.355   1.195  0.5716 -0.0228 -0.2139
  393SOL    HW1 2078   6.780   5.447   1.184  1.6368 -0.0276  2.4537
  393SOL    HW2 2079   6.792   5.308   1.269 -0.1531 -2.6405 -1.2878
  394SOL     OW 2080   2.376   5.413   5.999 -0.2468 -0.0973 -0.3143
  394SOL    HW1 2081   2.305   5.466   6.047  0.1733 -0.8557  1.2083
  394SOL    HW2 2082   2.402   5.334   6.055 -0.3724 -1.5652 -2.2344
  395SOL     OW 2083   1.183   5.408   5.908 -0.0658  0.0756 -0.3153
  395SOL    HW1 2084   1.281   5.392   5.913 -0.1183 -1.0054 -1.8676
  395SOL    HW2 2085   1.135   5.325   5.938 -0.4189 -0.8303 -3.1282
  396SOL     OW 2086   3.656   1.085   5.999  0.1822 -0.0499 -0.1121
  396SOL    HW1 2087   3.698   1.012   5.944 -0.0731  1.2877 -2.2110
  396SOL    HW2 2088   3.581   1.047   6.053  0.0743 -1.3659 -1.1236
  397SOL     OW 2089   6.347   2.685   1.203 -0.3361  0.4427  0.0568
  397SOL    HW1 2090   6.445   2.692   1.221 -0.5458  0.2327  1.3521
  397SOL    HW2 2091   6.332   2.661   1.107  0.9089 -0.6059  0.1113
  398SOL     OW 2092   6.129   5.091   3.393 -0.8505  0.0592 -0.0382
  398SOL    HW1 2093   6.153   5.116   3.487  2.5672 -1.9870 -0.2313
  398SOL    HW2 2094   6.135   4.992   3.382 -1.4648  0.2224 -2.3725
  399SOL     OW 2095   4.233   5.970   2.353 -0.2185 -0.1076 -0.0778
  399SOL    HW1 2096   4.228   6.045   2.287 -0.1916  0.0073  0.0498
  399SOL    HW2 2097   4.177   5.893   2.321 -2.8244  1.0825  1.2583
  400SOL     OW 2098   2.843   2.888   6.951  0.4489  0.6752 -0.3032
  400SOL    HW1 2099   2.792   2.970   6.978  0.4727  0.7361 -0.4419
  400SOL    HW2 2100   2.931   2.887   6.997  0.8693  1.2456 -1.0631
  401SOL     OW 2101   5.773   1.591   4.443 -0.1380 -0.3098 -0.0925
  401SOL    HW1 2102   5.840   1.607   4.515 -0.0409 -1.0563 -0.0046
  401SOL    HW2 2103   5.816   1.604   4.354  0.5352 -2.1154 -0.0770
  402SOL     OW 2104   2.275   6.716   4.729 -0.9000  0.3717 -0.0915
  402SOL    HW1 2105   2.208   6.745   4.797 -0.6189  1.4896 -0.2809
  402SOL    HW2 2106   2.244   6.631   4.686 -1.7887  0.4352  0.4010
  403SOL     OW 2107   0.051   3.185   0.960 -0.5139  0.0027  0.3839
  403SOL    HW1 2108   0.104   3.262   0.927  0.3646 -0.1071  1.4807
  403SOL    HW2 2109   0.063   3.107   0.899 -0.4159  0.3474 -0.0429
  404SOL     OW 2110   1.080   4.110   2.889  0.0535  0.0150  0.5540
  404SOL    HW1 2111   1.028   4.031   2.855 -0.0222  0.1949  0.2503
  404SOL    HW2 2112   1.174   4.104   2.857  0.4403 -0.7335  1.7692
  405SOL     OW 2113   1.423   1.722   6.946  0.4668  0.8946 -0.2190
  405SOL    HW1 2114   1.434   1.688   6.853 -2.3073 -0.3099 -0.2215
  405SOL    HW2 2115   1.501   1.694   7.001  1.2251 -0.0943 -1.7335
  406SOL     OW 2116   1.140   0.618   3.230  0.3662 -0.0663  0.3479
  406SOL    HW1 2117   1.048   0.650   3.208 -0.0044 -1.4940 -0.2956
  406SOL    HW2 2118   1.204   0.651   3.160  0.1746  0.1087  0.2554
  407SOL     OW 2119   4.559   0.362   3.318  0.3313 -0.2051  0.3930
  407SOL    HW1 2120   4.552   0.458   3.347 -0.1609 -0.1545  0.1098
  407SOL    HW2 2121   4.469   0.328   3.293  0.8590  0.1463 -2.3141
  408SOL     OW 2122   1.219   2.956   1.704  0.1079 -0.1583 -0.2374
  408SOL    HW1 2123   1.293   2.905   1.661 -0.7315 -1.9284  0.3270
  408SOL    HW2 2124   1.208   2.925   1.798  1.6451  3.3406  1.2898
  409SOL     OW 2125   2.293   0.893   3.423 -0.1198  0.5851 -0.6523
  409SOL    HW1 2126   2.339   0.980   3.407 -0.5023  0.6350 -1.5021
  409SOL    HW2 2127   2.220   0.881   3.357  0.5883 -0.8551 -1.2154
  410SOL     OW 2128   0.039   1.669   0.352 -0.0635 -0.4067  0.3545
  410SOL    HW1 2129  -0.046   1.617   0.352 -0.6872  0.5941  0.8299
  410SOL    HW2 2130   0.116   1.607   0.371 -0.7949 -1.1309  1.0160
  411SOL     OW 2131   3.638   4.025   2.633  0.5683 -0.5262  0.0885
  411SOL    HW1 2132   3.592   4.070   2.709 -0.5469 -1.0934 -0.2398
  411SOL    HW2 2133   3.730   3.996   2.662  0.4460 -0.0563  0.9739
  412SOL     OW 2134   4.285   4.345   1.319  0.1426  0.2403 -0.6011
  412SOL    HW1 2135   4.222   4.398   1.375 -0.2949  1.4608 -2.1703
  412SOL    HW2 2136   4.316   4.265   1.370  0.3375  1.6419  1.6136
  413SOL     OW 2137   1.942   5.371   1.307 -0.5960 -0.2376 -0.1727
  413SOL    HW1 2138   2.017   5.438   1.305  0.3585 -1.2794 -1.0535
  413SOL    HW2 2139   1.896   5.375   1.395  1.1834 -0.2665  0.8137
  414SOL     OW 2140   5.651   5.765   1.733 -0.1653 -0.6753 -0.1937
  414SOL    HW1 2141   5.715   5.688   1.737  0.5257 -0.1182 -0.2714
  414SOL    HW2 2142   5.627   5.792   1.826  0.7783 -0.0326 -0.1216
  415SOL     OW 2143   4.989   1.018   2.759 -0.3175  0.0130 -0.3516
  415SOL    HW1 2144   5.060   0.983   2.820 -1.0876 -2.6307 -0.8463
  415SOL    HW2 2145   5.005   0.984   2.666 -2.0738 -0.4528 -0.5161
  416SOL     OW 2146   0.907   5.062   6.563 -0.2786  0.1309 -0.1039
  416SOL    HW1 2147   0.985   5.068   6.626 -0.5478  1.0232  0.1649
  416SOL    HW2 2148   0.882   5.154   6.533 -0.7818 -0.2093 -0.7444
  417SOL     OW 2149   3.830   6.958   3.050  0.1829  0.0466  0.0632
  417SOL    HW1 2150   3.928   6.968   3.036  0.4412  1.2101  2.3120
  417SOL    HW2 2151   3.794   7.041   3.092 -1.7260 -0.4889 -0.4171
  418SOL     OW 2152   0.411   3.875   0.304  0.3439  0.3582  0.2086
  418SOL    HW1 2153   0.453   3.903   0.218 -0.9874 -0.8360 -0.8841
  418SOL    HW2 2154   0.313   3.898   0.303  0.1722 -0.2634  1.1172
  419SOL     OW 2155   1.158   1.829   6.667 -0.2457 -0.6163  0.0331
  419SOL    HW1 2156   1.082   1.894   6.665 -0.9791 -1.4319  0.4171
  419SOL    HW2 2157   1.216   1.848   6.746  0.0907  0.1515 -0.3873
  420SOL     OW 2158   3.465   6.644   0.002  0.0600  0.4100  0.6612
  420SOL    HW1 2159   3.474   6.744  -0.002 -0.1904  0.3988 -0.7153
  420SOL    HW2 2160   3.555   6.602  -0.012  0.1064  0.4392  0.8717
  421SOL     OW 2161   0.733   0.107   0.286 -0.2658 -0.5279 -0.3561
  421SOL    HW1 2162   0.809   0.139   0.229  0.3046 -2.6607 -0.8678
  421SOL    HW2 2163   0.650   0.158   0.262  0.4407  0.1003 -1.5693
  422SOL     OW 2164   6.493   0.142   5.948  0.6676 -0.0341  0.4657
  422SOL    HW1 2165   6.563   0.093   5.999  0.1433 -0.8334  0.4237
  422SOL    HW2 2166   6.499   0.119   5.851  0.5365  0.1230  0.4184
  423SOL     OW 2167   4.946   1.629   3.383 -0.2672 -0.0165 -0.1559
  423SOL    HW1 2168   5.039   1.631   3.345  0.2282  0.8965  1.0411
  423SOL    HW2 2169   4.919   1.534   3.398  1.1771 -0.2581  1.0999
  424SOL     OW 2170   6.386   4.203   4.607  0.2703  0.1461  0.2087
  424SOL    HW1 2171   6.346   4.163   4.690  1.5231 -1.5280  0.0661
  424SOL    HW2 2172   6.463   4.261   4.631  0.3046  0.0828  0.2511
  425SOL     OW 2173   3.183   2.178   0.880 -0.2044  0.0508 -0.2676
  425SOL    HW1 2174   3.261   2.240   0.871 -0.1296 -0.0690 -0.4392
  425SOL    HW2 2175   3.151   2.180   0.974  1.7224 -1.9594  0.5110
  426SOL     OW 2176   5.899   3.407   5.662 -0.1596  0.4565  0.1711
  426SOL    HW1 2177   5.901   3.441   5.568 -1.2904 -1.8387 -0.7611
  426SOL    HW2 2178   5.840   3.466   5.718  0.6582  1.9358 -0.4591
  427SOL     OW 2179   3.499   2.147   6.896 -0.2822  0.2152  0.2614
  427SOL    HW1 2180   3.440   2.202   6.956 -0.6425  1.7299 -1.3777
  427SOL    HW2 2181   3.443   2.078   6.850 -0.3771  0.2750  0.2848
  428SOL     OW 2182   6.165   4.830   3.313  0.2471 -0.0783 -0.3961
  428SOL    HW1 2183   6.222   4.793   3.240 -2.0126  0.6294 -2.6685
  428SOL    HW2 2184   6.079   4.780   3.317 -1.2484  2.2860 -0.8769
  429SOL     OW 2185   3.521   1.521   1.761 -0.1332  0.0274 -0.5488
  429SOL    HW1 2186   3.479   1.434   1.789 -1.9044  1.2450  0.8408
  429SOL    HW2 2187   3.461   1.566   1.696 -0.5346  1.3336  0.6758
  430SOL     OW 2188   4.422   5.635   5.336 -0.0434  0.7280 -0.2773
  430SOL    HW1 2189   4.409   5.644   5.237  0.7099 -1.2318 -0.5893
  430SOL    HW2 2190   4.346   5.584   5.375  0.7601 -0.4505 -0.2206
  431SOL     OW 2191   5.336   4.576   6.072 -0.4212 -0.0744 -0.1545
  431SOL    HW1 2192   5.387   4.559   6.156  0.5728 -2.4968 -1.1638
  431SOL    HW2 2193   5.393   4.631   6.009  1.7729 -3.8542 -1.8069
  432SOL     OW 2194   6.091   0.792   5.131  0.3716  0.0963  0.2925
  432SOL    HW1 2195   6.180   0.838   5.129  1.4902 -1.7073 -4.0284
  432SOL    HW2 2196   6.105   0.695   5.154 -0.7838  0.1359  1.2606
  433SOL     OW 2197   3.511   0.042   6.725  0.3626 -0.4668 -0.0644
  433SOL    HW1 2198   3.460   0.122   6.694  2.6413  0.8877 -0.4790
  433SOL    HW2 2199   3.448  -0.035   6.734 -1.5851  0.8620 -1.4228
  434SOL     OW 2200   5.879   2.743   0.086  0.2591 -0.9966 -0.4501
  434SOL    HW1 2201   5.811   2.725   0.157  0.4248 -1.3111 -0.3703
  434SOL    HW2 2202   5.891   2.661   0.030  0.8179 -1.0479 -0.2565
  435SOL     OW 2203   6.266   2.698   2.891  0.6209  0.0866  0.3709
  435SOL    HW1 2204   6.323   2.779   2.899 -0.7810  1.3271 -1.4968
  435SOL    HW2 2205   6.261   2.670   2.795  0.5547 -1.8436  0.8978
  436SOL     OW 2206   3.331   5.602   0.079  0.7003  0.2752 -0.2402
  436SOL    HW1 2207   3.231   5.607   0.071  0.5592  0.5138  1.3197
  436SOL    HW2 2208   3.363   5.516   0.041 -0.3149 -0.6402  0.9193
  437SOL     OW 2209   5.187   4.545   0.911 -0.8231  0.3617  0.0699
  437SOL    HW1 2210   5.159   4.588   0.996 -2.1673 -1.8565  0.8233
  437SOL    HW2 2211   5.107   4.517   0.859 -0.0226 -0.5656 -0.7169
  438SOL     OW 2212   0.721   3.855   4.846 -0.1335  0.0201 -0.5198
  438SOL    HW1 2213   0.753   3.771   4.803 -1.2016 -0.3339 -0.6405
  438SOL    HW2 2214   0.749   3.933   4.790  0.2970 -0.2994 -0.7526
  439SOL     OW 2215   6.468   6.103   6.291 -0.3119  0.7970 -0.0014
  439SOL    HW1 2216   6.437   6.092   6.385  0.7751 -0.3552  0.2495
  439SOL    HW2 2217   6.413   6.045   6.231  0.9214 -0.8317  0.3702
  440SOL     OW 2218   2.812   6.034   1.355  0.5489  0.0870 -0.5070
  440SOL    HW1 2219   2.773   6.023   1.264  0.1091 -0.8865 -0.2122
  440SOL    HW2 2220   2.798   6.129   1.386 -0.0156  0.2119 -1.1168
  441SOL     OW 2221   1.313   6.704   1.578 -0.0173 -0.8122 -0.1369
  441SOL    HW1 2222   1.277   6.612   1.566 -0.2645 -0.7637  0.2282
  441SOL    HW2 2223   1.399   6.701   1.629 -1.4406 -0.6347  2.4201
  442SOL     OW 2224   4.875   2.645   6.754 -0.1050 -0.2364 -0.0550
  442SOL    HW1 2225   4.927   2.560   6.751 -2.1227 -1.5633  0.1268
  442SOL    HW2 2226   4.871   2.678   6.849 -2.3264 -2.0062  0.5414
  443SOL     OW 2227   5.177   6.183   7.009  0.1166  0.5545  0.0200
  443SOL    HW1 2228   5.213   6.173   6.917  0.6014 -0.5702  0.3190
  443SOL    HW2 2229   5.182   6.279   7.037  0.7406  0.7671 -0.8045
  444SOL     OW 2230   3.098   1.393   2.656 -0.1591 -0.4241  0.3198
  444SOL    HW1 2231   3.038   1.371   2.579  1.2068 -0.6157 -0.7350
  444SOL    HW2 2232   3.056   1.465   2.712 -2.1380 -1.7594  0.6266
  445SOL     OW 2233   5.694   3.552   1.728  0.2775 -0.4042 -0.3296
  445SOL    HW1 2234   5.639   3.484   1.680 -0.5752 -0.4263  0.6562
  445SOL    HW2 2235   5.638   3.598   1.797  1.1887  0.3906 -0.0953
  446SOL     OW 2236   2.985   1.196   3.116 -0.1899 -0.6134 -0.3302
  446SOL    HW1 2237   3.060   1.222   3.055 -0.5521  1.3899  0.0159
  446SOL    HW2 2238   2.899   1.234   3.082 -0.5021 -0.0103  1.0529
  447SOL     OW 2239   5.806   6.365   4.590 -0.2025  0.3827  0.2543
  447SOL    HW1 2240   5.775   6.315   4.509 -0.4529  0.5906  0.2191
  447SOL    HW2 2241   5.818   6.462   4.566 -0.3305  0.4543  0.4813
  448SOL     OW 2242   5.054   5.461   4.800  0.0739  0.2335 -0.6868
  448SOL    HW1 2243   4.996   5.467   4.882 -1.0566 -1.9529 -1.2494
  448SOL    HW2 2244   5.149   5.448   4.828 -0.2878 -0.4523  0.2872
  449SOL     OW 2245   3.946   4.629   6.319  0.4036 -0.2478  0.3751
  449SOL    HW1 2246   3.861   4.678   6.339 -0.5031 -2.5793  2.8598
  449SOL    HW2 2247   3.995   4.676   6.246 -1.4125  3.0229  1.0619
  450SOL     OW 2248   0.653   0.217   6.362  0.0797  0.6526  0.5694
  450SOL    HW1 2249   0.591   0.140   6.351 -0.0853  0.6258  1.6453
  450SOL    HW2 2250   0.664   0.263   6.274  0.2080 -0.6062 -0.0955
  451SOL     OW 2251   1.455   5.311   1.413  0.9844  0.0661 -0.5232
  451SOL    HW1 2252   1.490   5.241   1.350  0.4875  0.0654 -0.8012
  451SOL    HW2 2253   1.355   5.307   1.414  1.0026 -0.2418  0.6193
  452SOL     OW 2254   0.264   1.282   0.215  0.3912 -0.0507  0.0416
  452SOL    HW1 2255   0.298   1.192   0.245  0.4790  0.1523  0.5570
  452SOL    HW2 2256   0.303   1.304   0.125  0.4239 -0.4973 -0.0550
  453SOL     OW 2257   6.793   6.082   1.997 -0.4708 -0.0698  0.7340
  453SOL    HW1 2258   6.820   6.164   2.047  0.3588 -0.0291  0.2357
  453SOL    HW2 2259   6.767   6.107   1.903  0.8885 -0.4989  0.2263
  454SOL     OW 2260   5.882   4.049   0.176 -0.6366 -0.3226 -0.1352
  454SOL    HW1 2261   5.904   3.957   0.145 -0.8803 -0.3271 -0.2935
  454SOL    HW2 2262   5.923   4.116   0.114  0.5044 -0.3042  0.6086
  455SOL     OW 2263   4.925   3.658   3.284 -0.2158  0.3024 -0.6329
  455SOL    HW1 2264   4.881   3.611   3.361 -1.1380 -0.2357 -1.4759
  455SOL    HW2 2265   5.014   3.692   3.313 -0.7380  0.5066  0.8124
  456SOL     OW 2266   4.669   6.171   5.989  0.2196 -0.4777  0.3695
  456SOL    HW1 2267   4.700   6.206   6.078 -1.8750  0.2720  0.8441
  456SOL    HW2 2268   4.577   6.204   5.970 -0.0035 -1.9479 -1.3572
  457SOL     OW 2269   3.308   1.828   1.856 -0.3720  0.0249  0.2349
  457SOL    HW1 2270   3.343   1.887   1.928  0.5464 -0.3491  0.1055
  457SOL    HW2 2271   3.314   1.875   1.768 -0.4890  0.0807  0.2569
  458SOL     OW 2272   1.501   2.925   2.183  0.7682 -0.3200 -0.4346
  458SOL    HW1 2273   1.473   3.002   2.240  0.8403 -0.6503  0.0528
  458SOL    HW2 2274   1.579   2.879   2.226 -0.7076 -2.0746  0.4843
  459SOL     OW 2275   6.171   0.505   4.458 -0.3263  0.1197  0.8183
  459SOL    HW1 2276   6.136   0.430   4.515 -0.0677  0.6262  1.6669
  459SOL    HW2 2277   6.180   0.587   4.514  2.3731 -0.0175  0.7078
  460SOL     OW 2278   0.361   6.161   3.828 -0.2274  0.4810 -0.1362
  460SOL    HW1 2279   0.457   6.145   3.851  0.0946  0.9869 -1.0469
  460SOL    HW2 2280   0.309   6.077   3.842  0.3418  0.2007  0.3720
  461SOL     OW 2281   4.148   5.297   2.078 -1.0899  0.0626  0.1716
  461SOL    HW1 2282   4.134   5.199   2.061 -0.1359 -0.1617  0.5859
  461SOL    HW2 2283   4.190   5.338   1.997  0.3237 -0.2993  0.6868
  462SOL     OW 2284   3.158   5.173   4.508 -0.4226  0.3978 -0.2383
  462SOL    HW1 2285   3.149   5.115   4.427 -0.1318  0.1520 -0.0954
  462SOL    HW2 2286   3.137   5.268   4.484 -1.9055  0.0965 -0.2565
  463SOL     OW 2287   2.648   5.073   5.635 -0.1825 -0.6417 -0.9608
  463SOL    HW1 2288   2.557   5.032   5.624 -0.4142 -0.8918  1.3786
  463SOL    HW2 2289   2.638   5.169   5.661  0.2120 -0.7659 -0.3518
  464SOL     OW 2290   1.453   6.016   6.444 -0.0566 -0.1216  0.3660
  464SOL    HW1 2291   1.394   6.089   6.480  0.7837  0.1237  1.2947
  464SOL    HW2 2292   1.462   5.944   6.512  0.4641 -0.2994  0.1148
  465SOL     OW 2293   4.628   4.382   3.110  0.7723 -0.5560  0.0886
  465SOL    HW1 2294   4.603   4.455   3.046  0.7045  0.6777  1.4769
  465SOL    HW2 2295   4.625   4.417   3.204 -0.1037 -2.5879  0.8751
  466SOL     OW 2296   2.695   6.682   2.294 -0.1468 -0.1678  0.2847
  466SOL    HW1 2297   2.652   6.598   2.327  1.6726 -0.8841  0.9559
  466SOL    HW2 2298   2.752   6.661   2.215 -1.7399  0.9388 -1.2312
  467SOL     OW 2299   3.799   5.654   2.048 -0.1199  0.4005 -0.1213
  467SOL    HW1 2300   3.746   5.734   2.021 -0.4622 -0.4428 -2.1244
  467SOL    HW2 2301   3.890   5.659   2.007 -0.8947 -1.2650 -2.2073
  468SOL     OW 2302   5.370   3.437   1.127 -0.3550 -0.4353 -0.9091
  468SOL    HW1 2303   5.319   3.379   1.190 -1.1606 -0.5265 -1.6221
  468SOL    HW2 2304   5.307   3.482   1.064  0.1738  1.8147  0.0666
  469SOL     OW 2305   2.158   3.671   0.245 -0.0806  0.8987 -0.0555
  469SOL    HW1 2306   2.058   3.672   0.242 -0.0929  0.6765  0.2586
  469SOL    HW2 2307   2.188   3.656   0.339  0.2313 -1.0148 -0.4308
  470SOL     OW 2308   3.185   1.542   3.392 -0.1942  0.0022  0.1032
  470SOL    HW1 2309   3.171   1.550   3.294 -1.7472 -0.9572  0.2149
  470SOL    HW2 2310   3.261   1.600   3.420  0.1108  0.4717 -1.6169
  471SOL     OW 2311   0.203   4.788   5.830  0.3451 -1.1887  0.7614
  471SOL    HW1 2312   0.243   4.716   5.773 -0.6504 -1.3237  0.2199
  471SOL    HW2 2313   0.159   4.856   5.772 -2.7290 -2.5156  1.3396
  472SOL     OW 2314   0.899   1.891   3.037  0.8320 -0.3599  0.2096
  472SOL    HW1 2315   0.972   1.876   2.971 -1.1577 -1.3540 -1.9087
  472SOL    HW2 2316   0.899   1.817   3.105  2.6976  0.5092  1.2481
  473SOL     OW 2317   6.821   5.103   4.680  0.2295  0.0602 -0.3541
  473SOL    HW1 2318   6.870   5.189   4.690  0.3439  0.0217 -0.5839
  473SOL    HW2 2319   6.723   5.119   4.693  0.4468 -0.1642  1.9336
  474SOL     OW 2320   2.678   0.678   0.481 -0.3082 -0.0092 -0.0311
  474SOL    HW1 2321   2.624   0.653   0.401  0.1868 -2.4830  0.3367
  474SOL    HW2 2322   2.775   0.666   0.461 -0.1398  0.1594  0.6659
  475SOL     OW 2323   2.686   4.200   5.405  0.3509  0.3168  0.0114
  475SOL    HW1 2324   2.702   4.260   5.327  1.7689 -1.1001 -0.8704
  475SOL    HW2 2325   2.589   4.178   5.412  0.0978  1.1451 -0.8381
  476SOL     OW 2326   5.963   1.344   4.220 -0.0864 -0.3262  0.5528
  476SOL    HW1 2327   6.007   1.303   4.299 -0.6130  2.2155  2.2715
  476SOL    HW2 2328   6.024   1.411   4.178 -1.0457  0.8234  0.9344
  477SOL     OW 2329   4.255   6.226   3.436 -0.0617 -0.2756 -0.3464
  477SOL    HW1 2330   4.205   6.146   3.402  0.1699  0.0629 -1.5375
  477SOL    HW2 2331   4.244   6.302   3.371  1.8111 -0.1259 -0.5392
  478SOL     OW 2332   3.446   3.892   5.127 -0.5794 -0.1717 -0.2606
  478SOL    HW1 2333   3.536   3.849   5.134 -1.1480 -1.7970 -1.9111
  478SOL    HW2 2334   3.457   3.989   5.106  0.7883 -0.3714 -0.5836
  479SOL     OW 2335   2.107   0.322   5.767  0.2568 -0.0268 -0.3691
  479SOL    HW1 2336   2.083   0.417   5.784  1.0795  0.2327 -0.5980
  479SOL    HW2 2337   2.099   0.269   5.852  1.9947  0.7395  0.3187
  480SOL     OW 2338   4.892   3.315   1.048 -0.4227  0.1126 -1.1711
  480SOL    HW1 2339   4.809   3.360   1.014 -2.2455 -1.5067  0.8355
  480SOL    HW2 2340   4.901   3.225   1.006 -1.0270 -0.6628  0.2767
  481SOL     OW 2341   5.904   3.785   1.339 -0.0570  0.2722  0.8321
  481SOL    HW1 2342   5.826   3.821   1.389  1.3536  1.6845  2.1322
  481SOL    HW2 2343   5.942   3.707   1.388 -0.2092  0.0364  0.5796
  482SOL     OW 2344   0.844   5.091   5.494  0.9608 -0.0841 -0.3846
  482SOL    HW1 2345   0.827   5.055   5.586 -0.8633  0.2951 -0.5386
  482SOL    HW2 2346   0.782   5.047   5.429  0.4200  1.4890 -0.9841
  483SOL     OW 2347   0.987   3.227   0.026  0.0750 -0.4999  0.3597
  483SOL    HW1 2348   0.925   3.246  -0.050  2.0077  0.9074 -0.9716
  483SOL    HW2 2349   0.955   3.275   0.108 -0.8080 -0.1270 -0.1920
  484SOL     OW 2350   4.467   5.516   3.887 -0.1424  0.0308  0.4388
  484SOL    HW1 2351   4.482   5.598   3.942 -2.4834  0.7023  0.1611
  484SOL    HW2 2352   4.394   5.461   3.927  2.6002 -3.0222  1.7146
  485SOL     OW 2353   5.136   1.414   2.956 -0.5633 -0.1795 -0.3594
  485SOL    HW1 2354   5.176   1.338   3.008  0.6020 -0.9963 -2.3218
  485SOL    HW2 2355   5.181   1.499   2.981  0.7915 -0.7305 -0.8195
  486SOL     OW 2356   6.681   1.252   2.061 -0.2184 -0.2188  0.2417
  486SOL    HW1 2357   6.585   1.246   2.086  0.0583  1.1005  1.8411
  486SOL    HW2 2358   6.737   1.213   2.135  0.4989 -0.5111 -0.4388
  487SOL     OW 2359   5.738   4.485   0.910  0.2717 -0.9166 -0.6251
  487SOL    HW1 2360   5.826   4.511   0.871  2.0561 -0.2172  3.3818
  487SOL    HW2 2361   5.690   4.566   0.942  0.9370 -1.5376  2.2917
  488SOL     OW 2362   5.564   2.115   2.389 -0.1600 -0.1601 -0.5306
  488SOL    HW1 2363   5.497   2.116   2.315 -0.8154 -1.0709  0.0290
  488SOL    HW2 2364   5.546   2.037   2.449 -0.2877  1.1363  1.1798
  489SOL     OW 2365   0.787   2.415   1.002  0.3874  0.2820 -0.2224
  489SOL    HW1 2366   0.725   2.337   0.989  0.1566  0.6942 -1.7315
  489SOL    HW2 2367   0.836   2.404   1.089  0.5983 -1.7046 -0.5503
  490SOL     OW 2368   4.258   0.768   5.057  0.7446  0.5529 -0.4212
  490SOL    HW1 2369   4.215   0.783   4.968  0.5269 -2.2176 -0.8775
  490SOL    HW2 2370   4.220   0.832   5.124 -0.5046  1.4088 -1.8818
  491SOL     OW 2371   1.405   3.445   1.885  0.3993 -0.3173 -0.1121
  491SOL    HW1 2372   1.443   3.389   1.958  2.4986  3.2389  1.8321
  491SOL    HW2 2373   1.331   3.502   1.921  3.5142  3.8478  0.5662
  492SOL     OW 2374   3.182   2.723   5.974 -0.1819 -0.2870  0.4774
  492SOL    HW1 2375   3.094   2.764   5.999 -0.7571 -1.4720  0.4447
  492SOL    HW2 2376   3.238   2.792   5.928 -0.3134  1.0561  2.1884
  493SOL     OW 2377   5.925   2.005   6.465 -0.0952 -0.3871  0.0659
  493SOL    HW1 2378   5.930   2.055   6.378  0.9002 -0.4109  0.0952
  493SOL    HW2 2379   5.833   1.966   6.476 -1.2696  2.2637  0.5101
  494SOL     OW 2380   1.444   0.376   2.440 -0.5356 -0.4048  0.4701
  494SOL    HW1 2381   1.429   0.278   2.437  1.1309 -0.6603 -0.8392
  494SOL    HW2 2382   1.498   0.405   2.361 -1.1895  1.6154  0.6895
  495SOL     OW 2383   0.238   2.927   2.974  0.0580  0.1633 -0.2079
  495SOL    HW1 2384   0.201   2.862   2.909  0.3598  0.7265 -0.9618
  495SOL    HW2 2385   0.333   2.947   2.951  0.1434  0.4330  0.3523
  496SOL     OW 2386   0.003   1.228   6.561 -0.1170  0.2859 -0.0308
  496SOL    HW1 2387  -0.015   1.304   6.498 -2.1008 -1.4680 -1.7322
  496SOL    HW2 2388  -0.051   1.240   6.644  1.0661  1.6568  0.5812
  497SOL     OW 2389   4.976   2.086   2.769 -0.1135 -0.4781 -0.5428
  497SOL    HW1 2390   4.916   2.165   2.759 -1.5751 -1.5381 -0.6036
  497SOL    HW2 2391   4.993   2.068   2.866  2.3175  1.3550 -0.5408
  498SOL     OW 2392   3.740   4.470   5.913 -0.4667 -0.4311 -0.1083
  498SOL    HW1 2393   3.824   4.437   5.870  0.0820  1.0749 -0.2451
  498SOL    HW2 2394   3.749   4.465   6.012 -0.0658  0.0554 -0.1161
  499SOL     OW 2395   4.614   6.911   5.180  0.1581 -0.1218 -0.1098
  499SOL    HW1 2396   4.680   6.840   5.155 -0.0719 -1.2909  2.3624
  499SOL    HW2 2397   4.543   6.917   5.110  0.8518 -1.4607 -0.9703
  500SOL     OW 2398   6.558   1.457   6.691  0.2113 -0.8257 -0.2392
  500SOL    HW1 2399   6.483   1.404   6.731 -1.8983  2.7174  0.9161
  500SOL    HW2 2400   6.546   1.461   6.592 -0.9764 -0.6039 -0.1036
  501SOL     OW 2401   3.538   5.538   1.819  0.1264 -0.0549 -0.2681
  501SOL    HW1 2402   3.476   5.460   1.812 -0.2705  0.3329 -1.1421
  501SOL    HW2 2403   3.632   5.505   1.820 -0.0557 -0.5764 -0.0671
  502SOL     OW 2404   0.959   4.680   4.679  0.1859 -0.8071 -0.5004
  502SOL    HW1 2405   0.960   4.710   4.774 -0.5278 -0.8100 -0.4812
  502SOL    HW2 2406   0.864   4.660   4.652  0.3887 -0.8543 -1.1931
  503SOL     OW 2407   6.892   4.806   2.751 -0.2783  0.4931 -0.1176
  503SOL    HW1 2408   6.854   4.831   2.662 -1.1079 -1.1589 -0.2691
  503SOL    HW2 2409   6.866   4.711   2.773  2.5790 -0.2499  0.4392
  504SOL     OW 2410   6.186   1.961   5.463  1.0322 -0.1380 -0.0502
  504SOL    HW1 2411   6.101   1.988   5.418  1.2940 -0.0075 -0.4679
  504SOL    HW2 2412   6.248   1.920   5.396  1.1889 -0.4945  0.3076
  505SOL     OW 2413   1.534   0.012   2.989 -0.2231  0.1571 -0.3789
  505SOL    HW1 2414   1.479   0.077   2.937 -0.2847  0.9711  0.6662
  505SOL    HW2 2415   1.586  -0.046   2.926 -1.0673  0.4319 -1.3474
  506SOL     OW 2416   0.826   1.679   3.395  0.2401  0.6412 -0.1018
  506SOL    HW1 2417   0.758   1.607   3.408  0.2812  0.7019  0.4971
  506SOL    HW2 2418   0.792   1.765   3.434  0.1416  0.9774 -0.9208
  507SOL     OW 2419   0.277   3.134   6.366 -0.1204 -0.5547 -0.2311
  507SOL    HW1 2420   0.362   3.090   6.396 -0.2285 -0.6507 -0.0647
  507SOL    HW2 2421   0.296   3.190   6.285  0.1795 -0.2675  0.0339
  508SOL     OW 2422   5.909   6.226   4.799  0.6747  0.0127  0.8084
  508SOL    HW1 2423   5.873   6.133   4.793  0.0061  0.2785  0.5957
  508SOL    HW2 2424   5.853   6.287   4.743  2.3620  0.1795 -0.7888
  509SOL     OW 2425   6.553   5.841   4.626  0.3538 -0.3668 -0.4051
  509SOL    HW1 2426   6.630   5.903   4.612  0.6381 -0.4772  0.5576
  509SOL    HW2 2427   6.470   5.894   4.646 -0.0887 -0.2013 -2.4455
  510SOL     OW 2428   1.677   5.009   4.825  0.3860 -0.8538  0.5761
  510SOL    HW1 2429   1.648   4.970   4.913 -0.3984 -1.6793 -0.0295
  510SOL    HW2 2430   1.763   4.967   4.797  0.1438 -1.3014  0.4933
  511SOL     OW 2431   6.206   2.373   4.905 -0.2319 -0.0549 -0.0582
  511SOL    HW1 2432   6.135   2.444   4.910 -0.6804 -0.5227  0.3216
  511SOL    HW2 2433   6.216   2.344   4.810  0.4699  1.0207 -0.3335
  512SOL     OW 2434   3.593   0.018   2.688 -0.0351 -0.3895  0.2023
  512SOL    HW1 2435   3.689   0.037   2.666 -0.3182  0.1046 -0.6778
  512SOL    HW2 2436   3.587  -0.064   2.744  0.9308 -0.1887  0.6175
  513SOL     OW 2437   2.426   1.961   4.680  0.0666  0.0469  0.2770
  513SOL    HW1 2438   2.425   2.061   4.678  0.2447  0.0667  0.8116
  513SOL    HW2 2439   2.419   1.930   4.775  0.0947 -0.4493  0.1210
  514SOL     OW 2440   4.744   0.304   6.488 -0.3455 -0.7579  0.0325
  514SOL    HW1 2441   4.753   0.356   6.573  0.0143 -1.5630  0.4989
  514SOL    HW2 2442   4.649   0.310   6.456 -0.1627  0.7603 -0.3179
  515SOL     OW 2443   1.659   1.493   6.345  0.0329 -0.2755 -0.5175
  515SOL    HW1 2444   1.608   1.577   6.359  0.5030 -0.1711  0.6837
  515SOL    HW2 2445   1.719   1.503   6.265  0.3338  0.6623 -0.1844
  516SOL     OW 2446   6.664   6.020   1.483 -0.3739  0.2398 -0.0550
  516SOL    HW1 2447   6.657   6.095   1.548 -0.2487 -0.8865  1.3190
  516SOL    HW2 2448   6.733   5.954   1.515 -2.7507 -2.1252  0.6011
  517SOL     OW 2449   3.129   2.839   1.231  0.8410 -0.0894  0.0995
  517SOL    HW1 2450   3.062   2.862   1.302  1.8932 -0.9402  1.4225
  517SOL    HW2 2451   3.209   2.898   1.240  1.4353 -0.9008  0.3430
  518SOL     OW 2452   0.646   0.236   3.722  0.2212 -0.6296  0.9050
  518SOL    HW1 2453   0.638   0.287   3.636  1.9269 -0.6346  0.7099
  518SOL    HW2 2454   0.615   0.142   3.708 -0.6043 -0.3320  0.6217
  519SOL     OW 2455   6.770   5.010   1.069  0.0495 -0.0487 -0.0289
  519SOL    HW1 2456   6.794   5.106   1.060  0.5510 -0.3482 -2.7093
  519SOL    HW2 2457   6.728   4.994   1.159 -2.5631  3.1797 -0.5011
  520SOL     OW 2458   4.417   1.829   6.098  0.1676 -0.3375  0.4379
  520SOL    HW1 2459   4.390   1.775   6.178  0.9592  1.7217  2.1937
  520SOL    HW2 2460   4.438   1.923   6.126  1.2804  0.2647 -2.0765
  521SOL     OW 2461   3.967   1.773   4.033 -0.1745 -0.2257  0.6765
  521SOL    HW1 2462   4.056   1.772   4.080 -0.3595  0.5629  1.0567
  521SOL    HW2 2463   3.894   1.783   4.101 -0.4521  0.8600  0.2396
  522SOL     OW 2464   5.073   6.376   5.244 -0.0824  0.2504  0.4764
  522SOL    HW1 2465   4.978   6.383   5.275 -0.2249 -0.6992  0.2859
  522SOL    HW2 2466   5.104   6.281   5.251  0.4932  0.3487 -0.5016
  523SOL     OW 2467   1.392   4.571   4.627 -0.0426 -0.3344 -0.1707
  523SOL    HW1 2468   1.317   4.625   4.590  0.1110  0.3021  0.4174
  523SOL    HW2 2469   1.468   4.570   4.561  0.1985  0.7149  0.0752
  524SOL     OW 2470   0.636   2.833   5.908  0.0159  0.0616 -0.2656
  524SOL    HW1 2471   0.615   2.930   5.915 -0.6395  0.0261 -1.4093
  524SOL    HW2 2472   0.587   2.783   5.980  0.0044  0.5231  0.0515
  525SOL     OW 2473   1.932   0.011   3.454  0.0420 -0.0052  0.0687
  525SOL    HW1 2474   1.878   0.010   3.538 -0.2566  0.1650 -0.1212
  525SOL    HW2 2475   1.962  -0.082   3.432 -0.6356 -0.1762 -0.1281
  526SOL     OW 2476   3.860   1.980   6.197  0.2722 -0.0685 -0.2080
  526SOL    HW1 2477   3.783   1.932   6.154 -1.5276  0.9391  1.7213
  526SOL    HW2 2478   3.936   1.985   6.132 -1.1680 -1.3408 -2.1070
  527SOL     OW 2479   5.313   5.989   5.073 -0.2385  0.5072 -0.4898
  527SOL    HW1 2480   5.364   6.061   5.025  2.9377 -2.6107 -2.2716
  527SOL    HW2 2481   5.301   5.910   5.012 -1.9624 -1.2236  1.8827
  528SOL     OW 2482   6.803   6.799   2.550 -0.1396 -0.4944  0.0658
  528SOL    HW1 2483   6.898   6.827   2.537 -0.7969  1.5287 -0.7853
  528SOL    HW2 2484   6.789   6.707   2.514  1.3247 -0.5264 -0.4505
  529SOL     OW 2485   0.432   0.236   5.411  0.0204  0.2957  0.3141
  529SOL    HW1 2486   0.383   0.300   5.352  3.4232  2.8128 -0.0566
  529SOL    HW2 2487   0.434   0.271   5.504 -0.3930 -0.7006  0.7076
  530SOL     OW 2488   2.512   3.269   0.724 -0.4491  0.2655 -0.2419
  530SOL    HW1 2489   2.497   3.301   0.630 -1.1806  1.4013  0.2336
  530SOL    HW2 2490   2.502   3.346   0.787 -1.3504 -0.7392  0.8868
  531SOL     OW 2491   2.043   2.381   5.275 -0.2513  0.4303  0.1065
  531SOL    HW1 2492   2.103   2.461   5.276 -2.0214  1.8268  1.2645
  531SOL    HW2 2493   1.953   2.408   5.242 -0.8586 -1.1236  0.4312
  532SOL     OW 2494   0.391   3.092   3.140  0.6030 -0.3184 -0.1879
  532SOL    HW1 2495   0.322   3.035   3.097 -1.7956  0.6487  2.1193
  532SOL    HW2 2496   0.449   3.036   3.200 -0.6768 -0.6389  0.7921
  533SOL     OW 2497   5.723   4.262   1.220  0.3217  0.3252  0.2173
  533SOL    HW1 2498   5.644   4.258   1.160  1.3679 -0.0927 -1.2007
  533SOL    HW2 2499   5.719   4.187   1.286  0.5767 -1.0522 -1.2498
  534SOL     OW 2500   4.447   4.663   1.865  0.0075  0.1425 -0.4905
  534SOL    HW1 2501   4.482   4.627   1.951 -0.4697 -0.3883 -0.5070
  534SOL    HW2 2502   4.473   4.759   1.855  1.0195 -0.1026 -0.2839
  535SOL     OW 2503   2.129   2.437   0.558  0.4131  0.4524 -0.5046
  535SOL    HW1 2504   2.055   2.443   0.625  0.7051 -2.6624  0.2764
  535SOL    HW2 2505   2.215   2.417   0.606  0.5152 -2.5273 -1.7001
  536SOL     OW 2506   1.331   0.436   0.028 -0.1367 -0.4216 -0.8718
  536SOL    HW1 2507   1.306   0.501  -0.044 -0.9263  0.6414  0.3246
  536SOL    HW2 2508   1.280   0.457   0.111  1.9753 -0.5554  0.5253
  537SOL     OW 2509   0.645   2.136   1.014  0.2429  0.5672 -0.0937
  537SOL    HW1 2510   0.581   2.128   0.937  1.2495  2.8249 -1.2607
  537SOL    HW2 2511   0.713   2.063   1.007 -0.7231 -0.3531 -0.2643
  538SOL     OW 2512   6.185   0.359   5.639 -0.1778 -0.5437 -1.0555
  538SOL    HW1 2513   6.170   0.401   5.550  0.3247  1.1500 -0.3792
  538SOL    HW2 2514   6.096   0.338   5.681 -0.5119  1.2650 -0.7873
  539SOL     OW 2515   5.405   6.895   1.005  0.1192 -0.1807 -0.1675
  539SOL    HW1 2516   5.355   6.808   1.013 -2.5326  1.3378  1.8417
  539SOL    HW2 2517   5.481   6.895   1.070 -2.5307  0.4117  3.3097
  540SOL     OW 2518   2.791   3.717   0.118  0.9187  0.0699  0.1099
  540SOL    HW1 2519   2.877   3.759   0.145 -0.4030  2.3976  0.9575
  540SOL    HW2 2520   2.735   3.703   0.200 -0.1477  0.1020 -0.6037
  541SOL     OW 2521   1.886   2.110   5.728  0.6473  0.0913  0.3477
  541SOL    HW1 2522   1.921   2.151   5.812  0.4320  1.1961 -0.0886
  541SOL    HW2 2523   1.950   2.129   5.653  0.2902  0.0755  0.0379
  542SOL     OW 2524   6.046   4.008   1.403  0.1720 -0.3588 -0.4421
  542SOL    HW1 2525   5.999   3.936   1.352 -1.4004 -0.2528  0.7669
  542SOL    HW2 2526   6.118   4.049   1.346  0.7607 -2.5080 -1.3299
  543SOL     OW 2527   1.331   5.186   4.978 -0.8849  0.2838 -0.6685
  543SOL    HW1 2528   1.379   5.168   5.064 -1.0601 -0.8983 -0.8018
  543SOL    HW2 2529   1.243   5.229   4.997 -1.7834 -1.6926 -0.0835
  544SOL     OW 2530   0.002   5.838   3.669  0.1464 -0.8264 -0.3424
  544SOL    HW1 2531   0.038   5.747   3.650  1.9188 -0.2585  0.0881
  544SOL    HW2 2532   0.014   5.860   3.765 -1.2162 -0.5068 -0.2178
  545SOL     OW 2533   3.510   5.040   4.343  0.2049 -0.1039 -0.2573
  545SOL    HW1 2534   3.543   5.130   4.314  1.3066 -0.4243 -0.0441
  545SOL    HW2 2535   3.483   4.987   4.263  1.3801 -0.2716 -0.5670
  546SOL     OW 2536   1.170   2.095   5.514  0.1795 -0.0275  0.0769
  546SOL    HW1 2537   1.157   1.996   5.521  0.5989 -0.2260 -1.5329
  546SOL    HW2 2538   1.091   2.136   5.468  0.2676  0.3046  0.2192
  547SOL     OW 2539   4.699   0.432   2.994 -0.2652 -0.1684 -0.4197
  547SOL    HW1 2540   4.661   0.355   3.044  0.4931 -0.6967 -0.6490
  547SOL    HW2 2541   4.768   0.400   2.929  2.2087  0.9132  1.5053
  548SOL     OW 2542   3.906   5.231   3.675 -0.0880  0.7291 -0.1228
  548SOL    HW1 2543   3.959   5.169   3.733 -1.6459 -1.3133 -0.7831
  548SOL    HW2 2544   3.814   5.242   3.713 -0.4072  1.1768 -0.9956
  549SOL     OW 2545   2.717   6.839   4.117  0.2297 -0.2530  0.1973
  549SOL    HW1 2546   2.707   6.767   4.048 -0.1783  1.0551 -1.1441
  549SOL    HW2 2547   2.634   6.846   4.171  0.1202 -0.5181  0.0623
  550SOL     OW 2548   4.910   5.881   2.814 -0.6736  0.2900 -0.3608
  550SOL    HW1 2549   4.927   5.966   2.764  1.1940 -0.2168 -0.6373
  550SOL    HW2 2550   4.972   5.810   2.782 -1.0594 -0.7182  1.0425
  551SOL     OW 2551   4.662   3.941   0.097  0.7024 -0.3580 -0.2494
  551SOL    HW1 2552   4.705   3.942   0.187  0.5482 -0.9018 -0.1688
  551SOL    HW2 2553   4.571   3.983   0.102  1.1403  0.6626 -0.3907
  552SOL     OW 2554   5.128   5.212   3.835  0.1410 -0.2357 -0.4358
  552SOL    HW1 2555   5.149   5.259   3.748 -0.5623  0.3597 -0.2968
  552SOL    HW2 2556   5.029   5.208   3.847  0.2093 -1.1858 -0.1154
  553SOL     OW 2557   3.007   2.919   1.830  0.1452  0.8830  0.2659
  553SOL    HW1 2558   2.913   2.950   1.816 -0.4997 -0.2972  1.6719
  553SOL    HW2 2559   3.059   2.931   1.746 -1.6418  0.2834 -0.9949
  554SOL     OW 2560   4.075   5.844   5.189 -0.3977 -0.0050 -0.3289
  554SOL    HW1 2561   4.061   5.856   5.091 -2.8820  1.1257  0.0830
  554SOL    HW2 2562   4.085   5.746   5.210  0.7433 -0.2134 -1.7334
  555SOL     OW 2563   2.523   5.975   6.211  0.6486  0.9224  0.1381
  555SOL    HW1 2564   2.497   5.909   6.142  0.7795  0.3496  0.6270
  555SOL    HW2 2565   2.565   6.055   6.167  1.4073  0.2447 -0.3923
  556SOL     OW 2566   5.999   3.463   3.285 -0.1249  0.3299  0.2256
  556SOL    HW1 2567   5.906   3.448   3.250  0.6566 -0.8442 -1.4951
  556SOL    HW2 2568   5.994   3.509   3.373 -2.3136  1.3870 -0.3654
  557SOL     OW 2569   6.572   4.997   1.907 -0.0216  0.1117  0.2930
  557SOL    HW1 2570   6.543   4.984   1.812  1.3671  0.3763 -0.1829
  557SOL    HW2 2571   6.622   4.916   1.938  1.3449  0.8599  0.0963
  558SOL     OW 2572   0.097   3.343   4.769 -0.3103 -0.3486  0.3913
  558SOL    HW1 2573   0.102   3.247   4.796  2.6578 -0.6072 -0.6785
  558SOL    HW2 2574   0.181   3.389   4.797 -1.3750  1.7807  0.2423
  559SOL     OW 2575   6.147   5.832   3.577  0.0521  0.8912 -0.0823
  559SOL    HW1 2576   6.142   5.923   3.618 -0.2644  0.9659 -0.2794
  559SOL    HW2 2577   6.058   5.809   3.536  0.5070  1.0293 -1.1842
  560SOL     OW 2578   4.326   1.230   1.552 -0.0519 -0.3803  0.3579
  560SOL    HW1 2579   4.406   1.226   1.493 -0.1780  0.9825  0.0710
  560SOL    HW2 2580   4.348   1.282   1.635 -0.2770 -1.0858  0.8715
  561SOL     OW 2581   6.550   2.870   6.553  0.2809 -0.5709 -0.2860
  561SOL    HW1 2582   6.642   2.836   6.572  0.1273 -1.1141 -0.5226
  561SOL    HW2 2583   6.484   2.796   6.559 -0.0373 -0.3488 -0.9234
  562SOL     OW 2584   4.049   4.766   0.558 -0.2635 -0.0270  0.5701
  562SOL    HW1 2585   4.099   4.807   0.635 -0.7513 -0.2617  1.0223
  562SOL    HW2 2586   3.961   4.731   0.591 -0.2811 -0.5416 -0.0099
  563SOL     OW 2587   3.618   6.630   5.745  0.5828  0.5156 -0.0335
  563SOL    HW1 2588   3.711   6.665   5.757  1.6570 -1.8208 -0.9181
  563SOL    HW2 2589   3.614   6.534   5.775 -1.1642  0.1241 -1.3538
  564SOL     OW 2590   3.098   1.111   0.760 -0.0182 -0.2085  0.2460
  564SOL    HW1 2591   3.178   1.102   0.700  0.2152  0.4968  0.4517
  564SOL    HW2 2592   3.128   1.124   0.854 -0.3644  0.8168  0.2216
  565SOL     OW 2593   2.941   4.878   5.095 -0.2207 -0.2616 -0.6774
  565SOL    HW1 2594   2.929   4.781   5.072 -1.5157 -0.1989 -0.3563
  565SOL    HW2 2595   2.880   4.933   5.038 -0.5860  0.2273  0.1749
  566SOL     OW 2596   5.331   0.773   0.333  0.7173 -0.0055 -0.0425
  566SOL    HW1 2597   5.304   0.686   0.373  1.3142 -0.1239  0.1094
  566SOL    HW2 2598   5.301   0.777   0.237 -3.3032  1.4538  1.1030
  567SOL     OW 2599   2.631   2.425   0.903 -0.3447  0.0370  0.6518
  567SOL    HW1 2600   2.585   2.449   0.989  0.7928 -1.4771  1.7311
  567SOL    HW2 2601   2.627   2.327   0.890  1.5829 -0.0109  0.2177
  568SOL     OW 2602   1.877   0.498   5.843  0.1501  0.2623 -0.2725
  568SOL    HW1 2603   1.888   0.469   5.748 -0.8490 -1.4115  0.0841
  568SOL    HW2 2604   1.780   0.502   5.866  0.3900 -0.7803  1.0649
  569SOL     OW 2605   1.939   0.827   4.528 -0.2087  0.3310  0.5009
  569SOL    HW1 2606   1.995   0.890   4.583  1.8074 -0.5796 -0.4177
  569SOL    HW2 2607   1.970   0.733   4.544  0.1275 -0.0010 -1.7783
  570SOL     OW 2608   0.977   3.449   5.985  0.1892 -0.3097  0.0391
  570SOL    HW1 2609   0.902   3.494   5.937  1.1603 -0.8110 -2.0670
  570SOL    HW2 2610   1.043   3.518   6.016 -0.0656 -0.0302 -0.0366
  571SOL     OW 2611   6.116   6.487   3.845  0.0425 -0.5778 -0.4757
  571SOL    HW1 2612   6.164   6.546   3.910 -0.5687  0.5462 -1.0093
  571SOL    HW2 2613   6.119   6.529   3.754 -2.5496 -0.1026 -0.4074
  572SOL     OW 2614   1.849   0.056   6.290 -0.1349  0.0577  0.5449
  572SOL    HW1 2615   1.897  -0.018   6.245 -1.9079 -0.5084 -0.4989
  572SOL    HW2 2616   1.841   0.036   6.388 -1.0371 -1.4217  0.2015
  573SOL     OW 2617   5.542   5.525   2.446  0.3635 -0.2492  0.5291
  573SOL    HW1 2618   5.566   5.622   2.440  0.0382 -0.0508  1.9678
  573SOL    HW2 2619   5.559   5.481   2.358  1.8798  0.8027  0.2423
  574SOL     OW 2620   4.631   6.036   4.354  0.4514 -0.5287  0.0189
  574SOL    HW1 2621   4.621   6.129   4.389 -0.6953 -0.3495 -0.7144
  574SOL    HW2 2622   4.607   6.034   4.257  1.5097 -1.3992 -0.2479
  575SOL     OW 2623   6.629   5.653   6.993  0.7770 -0.1619 -0.1913
  575SOL    HW1 2624   6.587   5.671   7.082  0.9701  0.4905 -0.2226
  575SOL    HW2 2625   6.571   5.689   6.921  1.1666  0.3358 -0.2602
  576SOL     OW 2626   6.677   5.986   2.474 -0.3104  0.4790  0.4124
  576SOL    HW1 2627   6.703   5.943   2.387  1.8799 -0.3694  1.4073
  576SOL    HW2 2628   6.651   6.081   2.457 -0.1878  0.2634 -1.1975
  577SOL     OW 2629   0.459   4.972   2.805 -0.2572  0.2078 -0.4405
  577SOL    HW1 2630   0.390   4.966   2.878 -1.5218 -0.9264 -1.6547
  577SOL    HW2 2631   0.452   5.061   2.760  0.0132  0.6233  0.3286
  578SOL     OW 2632   1.008   5.343   1.545 -0.8775 -0.3417  0.1833
  578SOL    HW1 2633   0.936   5.406   1.516 -0.0169 -0.2205 -1.8747
  578SOL    HW2 2634   1.064   5.319   1.466  0.1635 -1.9656  1.3645
  579SOL     OW 2635   1.819   1.021   5.903  0.3795 -0.4398 -0.2269
  579SOL    HW1 2636   1.736   0.974   5.875  1.2587 -1.7478 -0.7296
  579SOL    HW2 2637   1.822   1.111   5.859 -0.3425 -0.7297 -0.8990
  580SOL     OW 2638   3.881   4.511   1.332  0.1347  0.0067  0.3619
  580SOL    HW1 2639   3.896   4.446   1.258 -0.0310  1.0501 -0.6189
  580SOL    HW2 2640   3.960   4.511   1.394  0.8578  0.0693 -0.5466
  581SOL     OW 2641   1.798   1.054   1.014  0.4102 -0.9623 -0.4673
  581SOL    HW1 2642   1.742   1.041   1.096  1.9964 -0.9671  0.6783
  581SOL    HW2 2643   1.762   1.000   0.939 -2.2027  0.4819 -0.3723
  582SOL     OW 2644   1.233   0.411   4.222  0.3093 -0.3436 -0.6773
  582SOL    HW1 2645   1.329   0.426   4.199  0.8440  1.0137  2.1156
  582SOL    HW2 2646   1.225   0.330   4.280 -0.0642  0.1628 -0.0083
  583SOL     OW 2647   0.412   2.767   2.540  0.1816 -0.2048 -0.4291
  583SOL    HW1 2648   0.480   2.834   2.569  0.8586 -0.6287 -0.9855
  583SOL    HW2 2649   0.343   2.811   2.482 -0.4203  0.3690  0.6975
  584SOL     OW 2650   3.597   1.447   3.359 -0.2659 -0.6927 -0.5073
  584SOL    HW1 2651   3.618   1.361   3.313  1.0524 -0.7631  0.1768
  584SOL    HW2 2652   3.589   1.431   3.457 -0.9662 -0.1986 -0.4829
  585SOL     OW 2653   0.490   3.705   2.077  0.3356  0.2531 -0.7574
  585SOL    HW1 2654   0.568   3.747   2.031 -0.1422 -0.9570 -2.7761
  585SOL    HW2 2655   0.514   3.611   2.103 -0.3568 -0.0510 -1.1971
  586SOL     OW 2656   5.994   2.763   4.237 -0.5455  0.3788 -0.6285
  586SOL    HW1 2657   5.945   2.686   4.279  1.1070 -0.5002 -0.2411
  586SOL    HW2 2658   6.002   2.747   4.138  0.1675 -0.1851 -0.4890
  587SOL     OW 2659   3.283   4.495   6.491  0.1940  0.2857  0.0305
  587SOL    HW1 2660   3.325   4.576   6.450 -0.3249  0.4029 -0.2827
  587SOL    HW2 2661   3.194   4.480   6.449 -0.8794  1.0773  1.9083
  588SOL     OW 2662   6.781   5.441   4.176  0.2862 -0.6362 -0.4429
  588SOL    HW1 2663   6.829   5.515   4.224  0.0219 -0.8897  0.2232
  588SOL    HW2 2664   6.755   5.472   4.084  1.2560 -0.3201 -0.6236
  589SOL     OW 2665   5.361   5.240   6.071  0.7662  0.2505  0.3110
  589SOL    HW1 2666   5.282   5.186   6.100  0.8199  0.0378  0.0684
  589SOL    HW2 2667   5.416   5.265   6.151  0.3549  0.5597  0.4994
  590SOL     OW 2668   1.532   6.738   4.091  0.1242  0.3345  0.0680
  590SOL    HW1 2669   1.480   6.815   4.126  0.2947  0.6863 -0.4433
  590SOL    HW2 2670   1.573   6.687   4.167 -0.5343  0.3590  0.4385
  591SOL     OW 2671   1.000   1.725   4.789 -0.3234  0.6581  0.2845
  591SOL    HW1 2672   0.983   1.819   4.758 -0.8607  0.1049 -1.1766
  591SOL    HW2 2673   1.008   1.724   4.889  0.4321  2.3604  0.2807
  592SOL     OW 2674   1.757   2.801   6.893  0.2081  0.0236 -0.1862
  592SOL    HW1 2675   1.800   2.870   6.834  0.8163 -1.3743 -1.4579
  592SOL    HW2 2676   1.756   2.713   6.845 -1.0659 -0.7363  1.1618
  593SOL     OW 2677   2.906   2.017   0.002  0.0309 -0.4250  0.1461
  593SOL    HW1 2678   3.003   2.018  -0.023  0.0631 -0.3164  0.2723
  593SOL    HW2 2679   2.861   1.938  -0.040 -0.1809  0.3976 -1.2447
  594SOL     OW 2680   5.618   6.805   5.348 -0.2032  0.2706 -0.3043
  594SOL    HW1 2681   5.619   6.880   5.283 -1.4526 -0.7953 -1.6149
  594SOL    HW2 2682   5.563   6.829   5.427 -1.5611  0.3475 -1.2430
  595SOL     OW 2683   3.234   5.792   3.032  0.6647  0.5865 -0.3962
  595SOL    HW1 2684   3.136   5.798   3.052  0.5825 -2.1993  0.4457
  595SOL    HW2 2685   3.285   5.841   3.102 -0.0422 -1.2666  1.5355
  596SOL     OW 2686   4.673   4.673   1.725 -0.2734 -0.4515 -0.3922
  596SOL    HW1 2687   4.712   4.764   1.743 -0.6075 -0.7276  1.9781
  596SOL    HW2 2688   4.584   4.666   1.769 -0.0111 -2.1295 -0.0840
  597SOL     OW 2689   3.957   6.418   0.395  0.0042  0.4156 -0.8538
  597SOL    HW1 2690   3.988   6.359   0.320 -2.2311 -1.8527 -0.1415
  597SOL    HW2 2691   4.026   6.418   0.467 -0.1428 -1.8955 -0.6283
  598SOL     OW 2692   0.192   5.521   2.991 -0.8870  1.1587  0.3083
  598SOL    HW1 2693   0.092   5.512   2.985 -1.0470  1.5337  1.8749
  598SOL    HW2 2694   0.233   5.430   2.991 -1.2687  0.9834  0.1410
  599SOL     OW 2695   5.265   7.003   4.661  0.6802 -0.0402 -0.0387
  599SOL    HW1 2696   5.268   7.058   4.578  0.3402  0.1927  0.1040
  599SOL    HW2 2697   5.260   7.064   4.741  4.3277 -0.0659  0.3890
  600SOL     OW 2698   4.045   6.756   0.295 -0.3061  0.0311 -0.1232
  600SOL    HW1 2699   4.031   6.854   0.285  1.1914  0.3676  0.7070
  600SOL    HW2 2700   4.132   6.730   0.252  0.0940 -0.6209  1.0331
  601SOL     OW 2701   3.767   4.147   1.673  0.7002 -0.1154  0.2569
  601SOL    HW1 2702   3.696   4.147   1.744  1.2005 -0.4330  0.7713
  601SOL    HW2 2703   3.797   4.053   1.656  0.6144 -0.0369 -0.3523
  602SOL     OW 2704   5.402   0.278   5.288 -0.4256  0.7240 -0.0579
  602SOL    HW1 2705   5.421   0.324   5.201 -0.2501 -1.4201 -1.2382
  602SOL    HW2 2706   5.487   0.267   5.339  0.4129 -2.0597 -1.8125
  603SOL     OW 2707   6.092   3.945   3.536  0.0292 -0.2252  0.2294
  603SOL    HW1 2708   6.127   3.882   3.605 -0.2180 -0.6655 -0.0419
  603SOL    HW2 2709   6.000   3.917   3.509  0.4340 -0.5503 -0.8748
  604SOL     OW 2710   1.201   4.715   4.516  0.8385  0.3285 -0.4808
  604SOL    HW1 2711   1.132   4.694   4.585 -0.0799  1.9572 -0.8500
  604SOL    HW2 2712   1.218   4.814   4.515  1.0075  0.3223 -2.4079
  605SOL     OW 2713   2.257   1.035   2.146  0.1069  0.0225  0.0365
  605SOL    HW1 2714   2.231   1.067   2.055  0.5570  0.4823  0.0648
  605SOL    HW2 2715   2.229   0.940   2.158 -1.6990  0.5277  0.1189
  606SOL     OW 2716   2.011   0.334   5.082  0.3996 -0.0368 -0.0353
  606SOL    HW1 2717   1.989   0.252   5.030  1.2945 -0.2899 -0.0443
  606SOL    HW2 2718   2.106   0.359   5.065  0.5295  0.2267  0.9974
  607SOL     OW 2719   1.082   5.154   0.358 -0.0644 -0.0432 -0.5519
  607SOL    HW1 2720   1.119   5.062   0.343  0.0425  0.0772 -1.0388
  607SOL    HW2 2721   1.042   5.188   0.273 -0.7593  0.0727 -0.1909
  608SOL     OW 2722   0.721   4.781   5.094 -0.5676  0.3401  0.7172
  608SOL    HW1 2723   0.651   4.743   5.154 -0.8028  0.4978  0.5444
  608SOL    HW2 2724   0.795   4.820   5.149  0.1344 -1.1937  0.9002
  609SOL     OW 2725   2.761   6.788   6.923  0.1226 -0.0025 -0.1388
  609SOL    HW1 2726   2.700   6.867   6.919  0.5587  0.3715  0.4294
  609SOL    HW2 2727   2.850   6.813   6.887 -0.2106 -0.7185 -1.5447
  610SOL     OW 2728   5.519   5.559   6.126  0.0355  0.4694  0.1254
  610SOL    HW1 2729   5.505   5.464   6.156 -0.6381  0.8749  1.1662
  610SOL    HW2 2730   5.567   5.560   6.039  1.0454 -0.8029  0.6331
  611SOL     OW 2731   6.426   0.287   3.255  0.3847 -0.1751 -0.5518
  611SOL    HW1 2732   6.451   0.208   3.199  4.7976  0.7347 -0.2227
  611SOL    HW2 2733   6.380   0.355   3.197  0.1606 -1.3293 -1.7833
  612SOL     OW 2734   1.533   3.072   4.753 -0.5455 -0.2146  0.1728
  612SOL    HW1 2735   1.435   3.058   4.743 -0.2926 -1.3907 -1.0344
  612SOL    HW2 2736   1.564   3.140   4.687 -0.5576  0.2190  0.6111
  613SOL     OW 2737   5.200   1.797   6.732  0.1263 -0.1849  0.1571
  613SOL    HW1 2738   5.205   1.834   6.640  0.7291  1.1008  0.6853
  613SOL    HW2 2739   5.269   1.726   6.743 -0.1288 -0.5374 -0.4486
  614SOL     OW 2740   3.849   6.732   0.873  0.0338 -0.1629 -0.5592
  614SOL    HW1 2741   3.911   6.811   0.880  0.2947 -0.4393  0.2969
  614SOL    HW2 2742   3.801   6.719   0.959 -1.1054 -0.0670 -1.1573
  615SOL     OW 2743   6.872   6.250   0.849 -0.1347  0.7501  0.3047
  615SOL    HW1 2744   6.958   6.203   0.828 -0.2933  0.9725 -0.9603
  615SOL    HW2 2745   6.795   6.189   0.833 -0.3341  1.3378 -1.2330
  616SOL     OW 2746   4.841   5.790   5.555  0.3648  0.1509  0.2249
  616SOL    HW1 2747   4.919   5.727   5.553  0.6467  0.5090 -0.8971
  616SOL    HW2 2748   4.836   5.833   5.645  1.9977  0.7507  0.0644
  617SOL     OW 2749   6.483   3.634   1.458  0.3917  0.0862 -0.0694
  617SOL    HW1 2750   6.494   3.581   1.541  0.3555 -0.7255 -0.5769
  617SOL    HW2 2751   6.398   3.686   1.461  1.0395  1.1379  0.9811
  618SOL     OW 2752   4.040   1.898   4.824  0.1146  0.1955  0.9235
  618SOL    HW1 2753   3.959   1.841   4.810 -0.6946  1.5759 -0.3647
  618SOL    HW2 2754   4.025   1.958   4.903 -0.1525  0.4922  0.6501
  619SOL     OW 2755   6.994   6.600   0.298  0.1357 -0.9976  0.6884
  619SOL    HW1 2756   6.941   6.624   0.379 -0.5304  1.0014 -0.2720
  619SOL    HW2 2757   6.943   6.533   0.243 -1.3700  0.6663 -0.0696
  620SOL     OW 2758   3.957   3.058   4.747 -0.9556 -0.1104  0.3756
  620SOL    HW1 2759   3.928   3.088   4.838  1.0003  1.1867  0.6361
  620SOL    HW2 2760   4.043   3.007   4.754 -0.3493  0.6895 -0.7732
  621SOL     OW 2761   6.719   7.011   0.242 -0.4388 -0.1495  0.2112
  621SOL    HW1 2762   6.737   7.046   0.334  0.1139  1.3512 -0.4242
  621SOL    HW2 2763   6.724   6.911   0.242  1.4216 -0.1042  1.4436
  622SOL     OW 2764   0.035   4.362   5.895  0.3162  0.0924 -0.1374
  622SOL    HW1 2765   0.121   4.331   5.854  0.0449  2.3376 -2.7420
  622SOL    HW2 2766   0.054   4.433   5.962  0.5531 -0.2114  0.1175
  623SOL     OW 2767   5.726   0.823   5.037  0.0349  0.0246 -0.4081
  623SOL    HW1 2768   5.806   0.839   4.979  1.2581 -1.4286  0.7905
  623SOL    HW2 2769   5.725   0.728   5.068 -3.3071 -0.6078 -1.9716
  624SOL     OW 2770   3.727   1.949   1.955  0.5333  0.2194  0.9054
  624SOL    HW1 2771   3.784   1.945   1.873  0.3674  1.3397  0.7126
  624SOL    HW2 2772   3.719   2.044   1.985 -0.2066 -0.0686  1.6649
  625SOL     OW 2773   5.296   2.008   0.614 -0.1238  0.0956  0.0935
  625SOL    HW1 2774   5.376   2.052   0.657 -1.6568  1.7775  1.3936
  625SOL    HW2 2775   5.278   1.921   0.660 -0.1906  0.6500  1.1656
  626SOL     OW 2776   5.963   4.682   1.617 -0.5313 -0.6254 -0.5756
  626SOL    HW1 2777   6.017   4.752   1.663  0.8864 -0.9228 -1.7003
  626SOL    HW2 2778   5.878   4.665   1.668  0.2927  0.0680  1.0900
  627SOL     OW 2779   2.890   4.930   1.374 -0.4702  0.0404 -0.1657
  627SOL    HW1 2780   2.903   4.996   1.299  0.4287 -3.4294 -3.3831
  627SOL    HW2 2781   2.979   4.897   1.405 -0.9170 -0.5849  0.4822
  628SOL     OW 2782   1.564   2.736   0.697  0.8277  0.3264  0.1371
  628SOL    HW1 2783   1.548   2.772   0.789 -0.7993  1.4159 -0.5374
  628SOL    HW2 2784   1.562   2.810   0.630  3.1471 -0.2762 -0.7166
  629SOL     OW 2785   4.172   3.132   1.826  0.4867  0.5996 -0.6704
  629SOL    HW1 2786   4.177   3.215   1.881  0.2907  0.2165 -0.0674
  629SOL    HW2 2787   4.081   3.092   1.834  0.6470  0.2026 -0.7834
  630SOL     OW 2788   6.629   0.135   1.785 -0.1173 -0.1964  0.0580
  630SOL    HW1 2789   6.546   0.082   1.771 -0.1648  0.0174 -0.4864
  630SOL    HW2 2790   6.660   0.124   1.880 -1.2954  0.4660  0.5397
  631SOL     OW 2791   0.337   1.487   0.362  0.0061 -0.0945 -0.0267
  631SOL    HW1 2792   0.313   1.392   0.342 -1.9919  0.3688 -0.0477
  631SOL    HW2 2793   0.436   1.494   0.378  0.3051 -2.0199 -0.7842
  632SOL     OW 2794   0.729   0.530   5.225  0.8247 -0.2748 -0.2136
  632SOL    HW1 2795   0.785   0.469   5.281  0.0976  1.3039  2.4420
  632SOL    HW2 2796   0.632   0.510   5.241  0.4975  2.7004  2.3200
  633SOL     OW 2797   4.335   3.808   5.913 -0.4975 -0.3265  0.3930
  633SOL    HW1 2798   4.367   3.792   5.819 -1.3361  0.2381 -0.0095
  633SOL    HW2 2799   4.407   3.784   5.978  0.3280 -0.1224 -0.4243
  634SOL     OW 2800   0.553   4.703   2.145 -0.2951  0.0788  0.1593
  634SOL    HW1 2801   0.494   4.748   2.212  0.8953 -0.1211  1.3788
  634SOL    HW2 2802   0.620   4.768   2.110 -1.0052  0.2212 -0.9781
  635SOL     OW 2803   5.857   0.061   2.213  0.7299 -0.0832 -0.6890
  635SOL    HW1 2804   5.796   0.131   2.250  0.6924  0.2791 -1.4270
  635SOL    HW2 2805   5.944   0.103   2.187  0.5624 -0.2384 -1.5050
  636SOL     OW 2806   4.973   1.287   5.777 -0.8103 -0.1371 -0.4559
  636SOL    HW1 2807   4.897   1.352   5.785 -1.2565 -0.7830  0.9708
  636SOL    HW2 2808   4.967   1.239   5.690 -1.3597  0.6524 -0.8617
  637SOL     OW 2809   2.967   5.815   4.440  0.5268  0.3221  0.2044
  637SOL    HW1 2810   3.017   5.889   4.394  1.3779 -0.6444 -0.4815
  637SOL    HW2 2811   2.887   5.853   4.487  1.1402  1.7181  0.1729
  638SOL     OW 2812   1.056   4.450   2.295  0.2978  0.3312  0.5298
  638SOL    HW1 2813   1.041   4.376   2.229 -2.1340  2.1966 -1.1912
  638SOL    HW2 2814   1.150   4.445   2.329  0.5465 -2.8491 -0.3131
  639SOL     OW 2815   6.662   4.597   2.165  0.3017  0.3306 -0.4971
  639SOL    HW1 2816   6.611   4.651   2.231 -2.2680 -2.0866 -0.3412
  639SOL    HW2 2817   6.710   4.522   2.212 -0.9534 -0.9728 -1.2329
  640SOL     OW 2818   3.012   5.063   4.718  0.0018  0.3999  0.1110
  640SOL    HW1 2819   3.045   4.981   4.764  0.1836  1.1370  1.3454
  640SOL    HW2 2820   3.085   5.101   4.660 -0.2871 -0.6298 -0.9704
  641SOL     OW 2821   6.641   0.499   5.481 -0.2853  0.2522  0.0448
  641SOL    HW1 2822   6.710   0.488   5.409 -1.9036 -0.4851 -1.4692
  641SOL    HW2 2823   6.651   0.425   5.547  0.4823  0.2632 -0.0425
  642SOL     OW 2824   6.933   1.494   2.664 -0.2842 -0.2480 -0.2882
  642SOL    HW1 2825   6.928   1.475   2.762  1.7558  2.6728  0.4956
  642SOL    HW2 2826   6.849   1.539   2.635  0.4487  2.1151  1.0100
  643SOL     OW 2827   6.107   1.487   0.023 -0.1169 -0.0377  0.3823
  643SOL    HW1 2828   6.158   1.402   0.020  1.3352  0.8093 -2.1561
  643SOL    HW2 2829   6.018   1.475  -0.022  0.2557 -0.1564 -0.3423
  644SOL     OW 2830   5.997   3.594   3.522 -0.0530  0.0874  0.1124
  644SOL    HW1 2831   6.009   3.560   3.616 -2.3450 -0.1273  0.3846
  644SOL    HW2 2832   5.933   3.671   3.523  2.3384  2.2329 -0.9413
  645SOL     OW 2833   0.133   0.475   6.135 -0.2103  0.1840 -0.7601
  645SOL    HW1 2834   0.161   0.446   6.227 -1.3834  1.6183  0.1013
  645SOL    HW2 2835   0.214   0.479   6.075  0.8702  0.8802  0.6754
  646SOL     OW 2836   6.611   6.853   1.845 -0.0469  0.0299 -0.7338
  646SOL    HW1 2837   6.634   6.822   1.937 -1.4133  0.7998 -0.1177
  646SOL    HW2 2838   6.645   6.946   1.831 -0.7277  0.2992 -0.6375
  647SOL     OW 2839   4.153   4.271   1.587 -0.0849 -0.2565 -0.1829
  647SOL    HW1 2840   4.119   4.224   1.505 -0.4889  0.0623 -0.2031
  647SOL    HW2 2841   4.076   4.301   1.643  0.2011 -1.0882  0.6803
  648SOL     OW 2842   3.323   6.574   1.569 -0.2577  0.4435 -0.3458
  648SOL    HW1 2843   3.288   6.502   1.508  0.6849 -0.6027  0.3095
  648SOL    HW2 2844   3.364   6.646   1.514  0.3790 -0.3813 -0.9880
  649SOL     OW 2845   0.015   1.286   0.672 -0.2209 -0.4534 -0.0632
  649SOL    HW1 2846  -0.077   1.281   0.633 -0.1203  1.0660 -0.5373
  649SOL    HW2 2847   0.020   1.225   0.752 -1.3965 -1.1356 -0.4867
  650SOL     OW 2848   6.820   4.177   3.565 -0.6131 -0.1643  0.1012
  650SOL    HW1 2849   6.760   4.247   3.604  1.1684  1.9105 -0.6532
  650SOL    HW2 2850   6.821   4.185   3.466  0.6787 -0.3235  0.0768
  651SOL     OW 2851   0.564   6.292   0.736  0.2594 -0.2993 -0.6096
  651SOL    HW1 2852   0.647   6.345   0.724 -0.3663  0.5699 -1.2333
  651SOL    HW2 2853   0.517   6.283   0.647  0.5462 -2.2369 -0.6086
  652SOL     OW 2854   3.691   2.834   1.822  0.1012  0.5387  0.1785
  652SOL    HW1 2855   3.602   2.864   1.857 -0.6074 -0.3169 -0.8590
  652SOL    HW2 2856   3.687   2.737   1.798  1.0880  0.6736 -0.5944
  653SOL     OW 2857   5.178   5.913   1.076  0.3995  0.3326 -0.3982
  653SOL    HW1 2858   5.196   5.863   0.991 -1.0682 -1.4716  0.2755
  653SOL    HW2 2859   5.087   5.954   1.071 -0.4540 -1.2916  0.9228
  654SOL     OW 2860   0.485   3.950   3.583  0.0551  0.4061 -0.4173
  654SOL    HW1 2861   0.397   3.970   3.626  0.6451  0.3399  0.8527
  654SOL    HW2 2862   0.559   3.969   3.647  0.9958  0.7913 -1.5938
  655SOL     OW 2863   5.068   3.296   6.363  0.9091 -0.2280 -0.1022
  655SOL    HW1 2864   5.134   3.371   6.358  1.2661 -0.3736  1.7167
  655SOL    HW2 2865   4.980   3.331   6.397  0.3582 -0.2385 -1.4533
  656SOL     OW 2866   1.882   0.279   3.070 -0.1871 -0.1316  0.0220
  656SOL    HW1 2867   1.925   0.197   3.034 -0.4960 -0.0285 -0.5929
  656SOL    HW2 2868   1.828   0.256   3.151 -0.3485 -0.5515 -0.2024
  657SOL     OW 2869   1.095   4.491   5.523  0.0725 -0.2315  0.2958
  657SOL    HW1 2870   1.191   4.513   5.503 -0.6188  2.0982 -0.8055
  657SOL    HW2 2871   1.062   4.425   5.456  0.6993 -0.4852  0.2296
  658SOL     OW 2872   3.622   3.111   6.317 -0.7214 -0.0478  0.2819
  658SOL    HW1 2873   3.632   3.208   6.339  0.5451 -0.3110  0.9366
  658SOL    HW2 2874   3.533   3.096   6.274 -1.7460  1.1183  1.8580
  659SOL     OW 2875   6.496   3.036   5.402  0.3022 -0.3626 -0.1351
  659SOL    HW1 2876   6.451   3.104   5.344  0.2967 -0.7176 -0.5546
  659SOL    HW2 2877   6.564   2.986   5.348 -1.9489 -2.9537 -0.8045
  660SOL     OW 2878   6.423   1.249   5.825  0.1577  0.7459 -0.2460
  660SOL    HW1 2879   6.357   1.290   5.763 -0.5813  0.4558  0.3298
  660SOL    HW2 2880   6.478   1.181   5.776 -0.0456  0.9099 -0.7020
  661SOL     OW 2881   0.854   6.288   2.701 -0.1919  0.0814  0.5318
  661SOL    HW1 2882   0.754   6.288   2.703 -0.2577 -1.0049 -1.1453
  661SOL    HW2 2883   0.888   6.248   2.786 -1.2275 -0.6893  0.6173
  662SOL     OW 2884   3.594   5.565   3.934 -0.3413  0.0528 -0.1247
  662SOL    HW1 2885   3.647   5.495   3.888 -0.4643  1.6710 -2.9456
  662SOL    HW2 2886   3.640   5.592   4.019  0.3209 -2.4743  0.3979
  663SOL     OW 2887   5.459   1.508   1.067  0.1934  0.3068 -0.3975
  663SOL    HW1 2888   5.436   1.569   1.143  0.6483 -0.4859  0.3949
  663SOL    HW2 2889   5.463   1.561   0.982 -4.6790  0.5971 -0.7419
  664SOL     OW 2890   0.049   6.181   3.397  0.1599 -0.5164  0.5940
  664SOL    HW1 2891   0.025   6.092   3.358  1.3291 -0.6440  0.1258
  664SOL    HW2 2892  -0.029   6.217   3.449 -1.7866  0.0110 -2.4317
  665SOL     OW 2893   5.732   1.038   5.200  0.0916  0.3956 -0.4051
  665SOL    HW1 2894   5.827   1.063   5.182 -0.6348  1.2886 -3.7207
  665SOL    HW2 2895   5.709   0.955   5.149 -0.4982 -0.8612  1.7838
  666SOL     OW 2896   0.852   3.496   0.162 -0.2350 -0.3014 -0.6798
  666SOL    HW1 2897   0.894   3.576   0.204  0.1034 -1.4577  1.3293
  666SOL    HW2 2898   0.752   3.501   0.172 -0.8499  2.4510 -5.4619
  667SOL     OW 2899   0.310   6.843   6.979  0.3623  0.6351 -0.5431
  667SOL    HW1 2900   0.251   6.922   6.958  1.1525  1.1037 -1.0415
  667SOL    HW2 2901   0.254   6.761   6.985 -0.8320  1.5290  2.1522
  668SOL     OW 2902   3.725   4.088   6.009 -0.3523 -0.0331 -0.3004
  668SOL    HW1 2903   3.661   4.160   6.034 -1.0281 -0.0061 -1.9841
  668SOL    HW2 2904   3.816   4.128   5.994 -0.7215  0.4930 -1.2187
  669SOL     OW 2905   4.730   6.567   4.401 -0.7081 -0.1178  0.4064
  669SOL    HW1 2906   4.768   6.576   4.493  0.0625  1.5234 -0.0276
  669SOL    HW2 2907   4.805   6.574   4.334 -1.4669  0.5775 -0.3916
  670SOL     OW 2908   2.369   4.889   1.997 -0.3207 -0.2269 -0.0133
  670SOL    HW1 2909   2.460   4.913   1.964 -0.3194  0.6592  0.5975
  670SOL    HW2 2910   2.363   4.789   2.007  0.1764 -0.3927 -1.1694
  671SOL     OW 2911   1.858   4.678   4.949  0.1567 -0.7239  0.4364
  671SOL    HW1 2912   1.957   4.679   4.934  0.1257 -1.1135  0.1933
  671SOL    HW2 2913   1.811   4.689   4.861 -0.0142  0.4481  0.6598
  672SOL     OW 2914   6.844   5.105   3.944 -0.1611 -0.2492 -0.4860
  672SOL    HW1 2915   6.754   5.112   3.987  0.1560  1.4425 -0.0064
  672SOL    HW2 2916   6.833   5.101   3.844 -0.7733  0.3012 -0.4480
  673SOL     OW 2917   4.570   5.276   6.078 -0.1945  0.1668 -0.8384
  673SOL    HW1 2918   4.633   5.200   6.098  0.0786  0.0283 -2.1461
  673SOL    HW2 2919   4.610   5.333   6.006 -1.7793 -0.1922 -2.0368
  674SOL     OW 2920   3.647   3.748   5.855 -0.4144 -0.1104  0.1084
  674SOL    HW1 2921   3.583   3.819   5.884  0.5973  0.1449  1.8785
  674SOL    HW2 2922   3.737   3.790   5.839 -0.3055 -0.6898 -0.8738
  675SOL     OW 2923   0.215   1.307   5.621 -0.4806  0.5446  0.1652
  675SOL    HW1 2924   0.303   1.271   5.588 -0.5055  0.6242  0.0114
  675SOL    HW2 2925   0.155   1.325   5.543 -0.5682  0.6622  0.2597
  676SOL     OW 2926   5.763   3.069   1.558 -0.0118  0.6222 -0.5601
  676SOL    HW1 2927   5.755   3.166   1.534 -0.3697  0.8516  0.4500
  676SOL    HW2 2928   5.838   3.028   1.506  2.2568  2.2076  1.2801
  677SOL     OW 2929   0.036   0.769   2.548  0.1741 -0.2370  0.1326
  677SOL    HW1 2930   0.128   0.780   2.509  0.1496  0.3963  0.2448
  677SOL    HW2 2931  -0.030   0.757   2.473 -0.0272  2.0892 -0.1274
  678SOL     OW 2932   6.708   0.909   0.013  0.2355 -1.3207  0.0992
  678SOL    HW1 2933   6.647   0.982   0.042  0.2890 -1.9122  1.7980
  678SOL    HW2 2934   6.699   0.895  -0.086  0.3830  1.0825 -0.3176
  679SOL     OW 2935   5.592   0.852   4.263  0.6677 -0.6710  0.0433
  679SOL    HW1 2936   5.607   0.858   4.362  1.1999  0.1923 -0.0760
  679SOL    HW2 2937   5.513   0.795   4.244  0.5127 -0.7730  0.9746
  680SOL     OW 2938   4.330   4.041   0.666 -0.5718  0.8822 -0.6382
  680SOL    HW1 2939   4.312   3.975   0.739 -3.0958  1.3526 -0.7533
  680SOL    HW2 2940   4.261   4.113   0.668  1.4172  2.8959 -1.2827
  681SOL     OW 2941   2.784   5.172   4.578  0.6419  0.0165  0.4298
  681SOL    HW1 2942   2.862   5.117   4.609  0.5118 -0.0087  0.7235
  681SOL    HW2 2943   2.705   5.112   4.563  0.6451  0.0565  0.2568
  682SOL     OW 2944   5.158   6.845   4.084  0.7944  0.7407  0.1431
  682SOL    HW1 2945   5.062   6.821   4.065  0.3211  1.4074  1.5943
  682SOL    HW2 2946   5.201   6.771   4.136  1.2607  0.1886 -0.9852
  683SOL     OW 2947   3.639   1.125   0.398  0.2761 -0.2587 -0.4278
  683SOL    HW1 2948   3.599   1.101   0.310 -0.6866 -0.7201  0.1218
  683SOL    HW2 2949   3.675   1.218   0.394 -0.6531  0.0902 -1.0286
  684SOL     OW 2950   6.994   5.350   5.080  0.3802 -0.2948 -0.2404
  684SOL    HW1 2951   6.948   5.401   5.153  0.9454 -1.1502  0.7544
  684SOL    HW2 2952   7.079   5.310   5.116  0.1197 -1.6631 -1.0641
  685SOL     OW 2953   1.261   1.142   6.110  0.3165  0.2011 -0.1718
  685SOL    HW1 2954   1.341   1.134   6.051 -0.5100 -1.8267 -1.1193
  685SOL    HW2 2955   1.263   1.070   6.179 -0.1164  0.8514  0.5346
  686SOL     OW 2956   5.096   6.348   6.338 -0.2485 -0.2458  0.4091
  686SOL    HW1 2957   5.053   6.435   6.363 -0.2036 -0.0722 -0.1101
  686SOL    HW2 2958   5.031   6.274   6.352  0.4794 -0.4785  3.2980
  687SOL     OW 2959   6.818   0.048   5.571  0.0748  0.5269  0.2172
  687SOL    HW1 2960   6.836  -0.045   5.601  0.9412  1.1299  1.6732
  687SOL    HW2 2961   6.833   0.054   5.472  1.5112 -0.5382  0.3339
  688SOL     OW 2962   5.504   4.025   5.049 -0.0268 -0.2347 -0.0009
  688SOL    HW1 2963   5.416   3.994   5.085  0.0416  0.4785  0.8132
  688SOL    HW2 2964   5.567   4.041   5.125  0.3068  0.7661 -0.4772
  689SOL     OW 2965   0.895   4.958   6.045  0.3356 -0.4146  0.2185
  689SOL    HW1 2966   0.827   4.901   6.001 -0.5536  0.3094  0.6242
  689SOL    HW2 2967   0.926   4.915   6.130  0.4213 -0.7665  0.0083
  690SOL     OW 2968   0.123   4.381   2.540  0.5495 -0.0387  0.1826
  690SOL    HW1 2969   0.154   4.471   2.572 -0.5515  0.2254  0.5389
  690SOL    HW2 2970   0.183   4.350   2.466  1.0062  0.9410  0.1205
  691SOL     OW 2971   2.200   4.604   3.243 -0.3792 -0.1808  0.2102
  691SOL    HW1 2972   2.162   4.520   3.204 -1.0305  0.1403  0.1353
  691SOL    HW2 2973   2.244   4.657   3.170  0.4230 -0.6594  0.3377
  692SOL     OW 2974   4.497   2.068   5.196  0.5791 -0.3311 -0.9448
  692SOL    HW1 2975   4.579   2.021   5.229  0.3900  0.3654  0.6520
  692SOL    HW2 2976   4.495   2.067   5.096  1.7851 -1.6053 -0.9836
  693SOL     OW 2977   6.946   3.343   1.826  0.2811  0.7213 -0.3603
  693SOL    HW1 2978   7.014   3.375   1.760  0.9562  1.8133  0.8129
  693SOL    HW2 2979   6.877   3.414   1.841  0.6695  0.8871  0.7834
  694SOL     OW 2980   0.774   4.568   4.908  0.3194  0.0551  0.1595
  694SOL    HW1 2981   0.767   4.647   4.968  1.6744  0.3198  0.0129
  694SOL    HW2 2982   0.858   4.518   4.929 -0.7064 -1.6008  0.5308
  695SOL     OW 2983   3.890   5.015   0.928  0.0288  0.4253 -0.1072
  695SOL    HW1 2984   3.801   5.021   0.974  0.0829  2.4290 -0.1542
  695SOL    HW2 2985   3.893   4.933   0.872 -1.3116 -0.3325  0.8626
  696SOL     OW 2986   1.152   1.175   3.162  0.0129 -0.1107  0.4321
  696SOL    HW1 2987   1.094   1.233   3.105  2.5453  1.0118 -1.1803
  696SOL    HW2 2988   1.099   1.139   3.238 -2.8293  0.5747 -1.0910
  697SOL     OW 2989   6.250   3.841   4.945 -0.0998 -0.1657  0.2089
  697SOL    HW1 2990   6.326   3.823   5.007 -0.1833 -2.7615 -0.3298
  697SOL    HW2 2991   6.281   3.900   4.870  0.9111  0.1364  0.8402
  698SOL     OW 2992   6.077   3.312   2.322 -0.6450 -0.0968 -0.5246
  698SOL    HW1 2993   6.113   3.388   2.377 -0.7474 -0.6786  0.3701
  698SOL    HW2 2994   6.152   3.251   2.297 -0.9434 -1.2724  1.2808
  699SOL     OW 2995   2.827   1.399   3.760 -0.1308 -0.4655  0.3871
  699SOL    HW1 2996   2.797   1.482   3.712 -0.3483 -0.0734  1.1770
  699SOL    HW2 2997   2.913   1.418   3.808 -0.2622 -0.6447  0.6969
  700SOL     OW 2998   4.139   4.767   6.685 -0.3345  0.0074 -0.0111
  700SOL    HW1 2999   4.157   4.849   6.740 -0.8911  0.0476  0.1197
  700SOL    HW2 3000   4.041   4.744   6.691 -0.0952 -0.9662  0.3627
  701SOL     OW 3001   1.785   5.381   5.640  0.2975  0.1117  0.2267
  701SOL    HW1 3002   1.793   5.441   5.560 -2.6000  1.3730  0.7477
  701SOL    HW2 3003   1.775   5.437   5.723 -1.3490 -1.0355  0.8747
  702SOL     OW 3004   0.651   5.732   5.823 -0.3079 -0.1998 -0.1349
  702SOL    HW1 3005   0.660   5.773   5.732 -0.1675  0.8151  0.3211
  702SOL    HW2 3006   0.741   5.725   5.866 -0.3238 -1.0569 -0.2240
  703SOL     OW 3007   0.813   3.273   4.849  0.0132  0.0009 -0.0481
  703SOL    HW1 3008   0.892   3.333   4.837  0.0153 -0.2357 -1.3513
  703SOL    HW2 3009   0.816   3.232   4.940  2.3944 -1.4235 -0.6814
  704SOL     OW 3010   6.673   6.091   6.897 -0.1729  0.0980  0.1143
  704SOL    HW1 3011   6.664   6.040   6.811  1.4139  1.1689 -0.7448
  704SOL    HW2 3012   6.717   6.034   6.966 -0.8836 -0.5677  0.0216
  705SOL     OW 3013   2.295   0.303   4.745  0.3843 -0.2328  0.3531
  705SOL    HW1 3014   2.336   0.215   4.722  3.3698  1.1456 -0.0092
  705SOL    HW2 3015   2.337   0.375   4.691  0.4439  1.8523  2.9683
  706SOL     OW 3016   4.891   1.075   1.885  0.0155  0.0486  0.6302
  706SOL    HW1 3017   4.836   1.024   1.818  0.1325 -0.5034  0.9483
  706SOL    HW2 3018   4.943   1.011   1.941 -0.0623  0.5124  1.2395
  707SOL     OW 3019   4.747   2.816   4.141 -0.4798 -0.0154 -0.0939
  707SOL    HW1 3020   4.730   2.719   4.126  2.4428 -0.7108  0.4848
  707SOL    HW2 3021   4.818   2.848   4.079  0.6261  0.9824  1.5882
  708SOL     OW 3022   6.831   0.394   4.151 -0.0781 -1.0241 -0.8090
  708SOL    HW1 3023   6.741   0.408   4.191  0.2200 -0.0866 -0.4263
  708SOL    HW2 3024   6.861   0.300   4.166 -0.2694 -0.8794  0.5799
  709SOL     OW 3025   2.448   2.347   6.803  0.2692 -0.2386 -0.1586
  709SOL    HW1 3026   2.455   2.420   6.871  1.9182  0.0114 -0.5574
  709SOL    HW2 3027   2.414   2.264   6.847 -1.6797  0.7383  0.2908
  710SOL     OW 3028   6.687   5.649   0.495 -0.2997  0.0746  0.0483
  710SOL    HW1 3029   6.674   5.621   0.590  1.1448  0.6691  0.4443
  710SOL    HW2 3030   6.635   5.733   0.477  1.0009  1.0886  0.9048
  711SOL     OW 3031   0.688   5.071   2.277 -0.0697 -0.6096  0.3173
  711SOL    HW1 3032   0.691   5.040   2.182 -0.5037  1.4668 -0.4199
  711SOL    HW2 3033   0.594   5.067   2.311  0.0294 -1.0104  0.5539
  712SOL     OW 3034   6.544   3.481   0.144  0.1139  0.7883 -0.3572
  712SOL    HW1 3035   6.573   3.385   0.146  1.7322  1.1576 -2.3353
  712SOL    HW2 3036   6.475   3.497   0.215 -1.3016 -2.1673 -0.9185
  713SOL     OW 3037   6.906   1.582   5.568  0.4309 -0.2275  0.1654
  713SOL    HW1 3038   6.856   1.624   5.644  0.8914 -0.3160  0.5271
  713SOL    HW2 3039   7.004   1.585   5.588  0.4487 -2.0989  0.5364
  714SOL     OW 3040   6.036   5.278   2.666  0.3728 -0.3652 -0.6210
  714SOL    HW1 3041   6.077   5.333   2.739 -0.7423 -1.1469  0.6353
  714SOL    HW2 3042   5.972   5.335   2.614 -0.9646 -0.4504  0.8294
  715SOL     OW 3043   6.146   0.914   4.703 -0.1340  0.0724  0.0322
  715SOL    HW1 3044   6.070   0.922   4.768 -1.7469 -0.0969 -1.7630
  715SOL    HW2 3045   6.227   0.957   4.742 -1.0836  0.1369  2.0727
  716SOL     OW 3046   6.055   2.019   2.141  0.2738 -0.3981  0.1527
  716SOL    HW1 3047   5.962   2.012   2.179  0.3966 -0.0107  0.5349
  716SOL    HW2 3048   6.062   2.101   2.085 -0.1008 -1.3220 -1.2892
  717SOL     OW 3049   1.210   3.786   3.162 -0.2215 -0.1625 -0.0282
  717SOL    HW1 3050   1.113   3.768   3.146 -0.1509 -0.5350 -0.0550
  717SOL    HW2 3051   1.266   3.723   3.108  0.0931  1.7665 -2.0995
  718SOL     OW 3052   5.931   2.833   5.503 -0.0745 -0.6003  0.6455
  718SOL    HW1 3053   5.957   2.753   5.449  3.2490 -0.8078  2.3392
  718SOL    HW2 3054   5.969   2.916   5.461  0.9792 -0.5555  1.6650
  719SOL     OW 3055   2.846   6.837   6.124 -0.3831  0.0391 -0.3366
  719SOL    HW1 3056   2.817   6.867   6.033 -0.7344  2.9332  0.6299
  719SOL    HW2 3057   2.946   6.840   6.130 -0.3348 -0.6377 -0.7680
  720SOL     OW 3058   5.853   0.706   3.661  0.2652  0.2470 -0.0402
  720SOL    HW1 3059   5.807   0.743   3.742 -1.3160 -0.5194 -0.5373
  720SOL    HW2 3060   5.863   0.777   3.592  0.4351  0.5819  0.3282
  721SOL     OW 3061   2.759   0.779   1.460 -0.2537  0.2018 -0.1506
  721SOL    HW1 3062   2.713   0.748   1.377  1.1006 -0.5102 -0.6647
  721SOL    HW2 3063   2.795   0.871   1.446  1.5330 -0.5827 -1.0430
  722SOL     OW 3064   2.962   1.672   2.622  0.2709  0.0114 -0.1374
  722SOL    HW1 3065   2.986   1.752   2.567 -0.3667 -0.5369 -1.2471
  722SOL    HW2 3066   2.957   1.698   2.719 -1.4466  1.6885 -0.6191
  723SOL     OW 3067   3.246   4.129   4.479 -0.0755 -0.6139 -0.0240
  723SOL    HW1 3068   3.195   4.157   4.560  0.5454  1.7086 -0.3850
  723SOL    HW2 3069   3.338   4.099   4.506 -0.1930 -0.7533  0.2198
  724SOL     OW 3070   2.887   4.155   1.590  0.0882  0.0735  0.3857
  724SOL    HW1 3071   2.824   4.220   1.631 -1.4713 -0.2760 -1.3454
  724SOL    HW2 3072   2.975   4.200   1.574  0.1591  0.7245  2.3183
  725SOL     OW 3073   1.539   2.220   4.455 -0.0305  0.2315 -0.2519
  725SOL    HW1 3074   1.616   2.208   4.392  0.5089  0.8144  0.2879
  725SOL    HW2 3075   1.480   2.139   4.451  1.0127 -0.5522 -0.0945
  726SOL     OW 3076   4.258   2.319   3.339  0.5811  0.4377 -0.6519
  726SOL    HW1 3077   4.343   2.300   3.388  1.0104 -0.5455 -1.7306
  726SOL    HW2 3078   4.279   2.364   3.252 -0.0042  0.2373 -0.9049
  727SOL     OW 3079   3.754   3.386   2.987 -0.0467  0.4452  0.6184
  727SOL    HW1 3080   3.670   3.349   2.950  1.3436 -0.5235 -1.7756
  727SOL    HW2 3081   3.733   3.456   3.055 -2.7368  0.1476  0.1748
  728SOL     OW 3082   0.187   1.643   4.644 -0.1271  0.0768  0.0814
  728SOL    HW1 3083   0.164   1.560   4.592 -1.7905  0.3941  0.2426
  728SOL    HW2 3084   0.285   1.645   4.662  0.1109 -1.3023 -0.8721
  729SOL     OW 3085   4.962   4.176   3.823 -0.0832  0.5407  0.3073
  729SOL    HW1 3086   4.909   4.153   3.905 -0.4386 -0.6253 -0.2333
  729SOL    HW2 3087   4.930   4.121   3.746  1.4794  0.2763 -0.1920
  730SOL     OW 3088   5.288   1.440   3.779 -0.1001 -0.2748  0.0882
  730SOL    HW1 3089   5.388   1.446   3.790  0.1982 -2.0891 -1.2595
  730SOL    HW2 3090   5.253   1.366   3.836 -0.4085 -0.8537 -0.8468
  731SOL     OW 3091   2.249   4.807   1.250  0.2674 -0.0527 -0.6781
  731SOL    HW1 3092   2.203   4.895   1.255  2.8830  1.3573  0.8809
  731SOL    HW2 3093   2.292   4.797   1.160 -0.6295 -0.0746 -1.1081
  732SOL     OW 3094   2.522   5.793   4.228  0.5975 -0.2611 -0.6827
  732SOL    HW1 3095   2.558   5.714   4.278  1.6874 -0.1461 -1.2597
  732SOL    HW2 3096   2.562   5.796   4.136  0.7078  1.0582 -0.6156
  733SOL     OW 3097   1.417   4.043   3.470 -0.3134 -0.4319 -0.3106
  733SOL    HW1 3098   1.415   4.010   3.376  2.1942 -0.9032 -0.2696
  733SOL    HW2 3099   1.469   3.978   3.526 -1.1222  0.2224  1.2458
  734SOL     OW 3100   4.492   3.663   0.084 -0.7227  0.9710  0.0053
  734SOL    HW1 3101   4.572   3.643   0.140 -0.5361 -0.1068 -0.6157
  734SOL    HW2 3102   4.521   3.709  -0.000 -0.7840  0.8514 -0.0816
  735SOL     OW 3103   6.383   3.967   3.883 -0.0529  0.1139  0.0810
  735SOL    HW1 3104   6.323   3.887   3.876  0.1665 -0.0414 -0.0381
  735SOL    HW2 3105   6.478   3.937   3.888 -0.0483  0.2955  1.5488
  736SOL     OW 3106   3.247   3.756   1.484  1.0150 -0.1424  0.0022
  736SOL    HW1 3107   3.283   3.688   1.421  0.0052 -1.3808  0.7084
  736SOL    HW2 3108   3.175   3.809   1.440  1.2369 -0.0896 -0.2949
  737SOL     OW 3109   4.820   5.250   2.905  0.2070 -0.0460 -0.3126
  737SOL    HW1 3110   4.737   5.274   2.956  0.6331 -0.6087  0.6707
  737SOL    HW2 3111   4.889   5.322   2.917  0.2774 -0.1367 -0.1833
  738SOL     OW 3112   6.362   3.025   1.774 -0.0858 -0.1731 -0.4996
  738SOL    HW1 3113   6.294   2.951   1.775 -1.4942  1.0782 -1.1333
  738SOL    HW2 3114   6.448   2.990   1.738 -0.4580 -1.7167  0.0273
  739SOL     OW 3115   4.274   4.602   2.543  0.8654  0.4349  0.1162
  739SOL    HW1 3116   4.363   4.631   2.511  1.0430 -0.5882 -0.3663
  739SOL    HW2 3117   4.256   4.508   2.512  1.0490 -0.6460  2.9627
  740SOL     OW 3118   5.439   4.882   1.624 -0.0229  0.8695 -0.0181
  740SOL    HW1 3119   5.513   4.938   1.660  0.2055  1.2243 -1.0119
  740SOL    HW2 3120   5.435   4.795   1.674  0.5028  1.2025  0.6112
  741SOL     OW 3121   0.308   3.521   4.782  0.4966  0.0363 -0.2477
  741SOL    HW1 3122   0.370   3.568   4.845  0.9329 -0.6469 -0.1507
  741SOL    HW2 3123   0.283   3.583   4.707  1.5073  0.2521 -0.4297
  742SOL     OW 3124   1.062   4.966   6.934  0.2654 -0.2576  0.1985
  742SOL    HW1 3125   1.153   4.933   6.956 -0.6871 -2.1414  1.5971
  742SOL    HW2 3126   1.000   4.889   6.920 -1.0662  0.9613 -1.0984
  743SOL     OW 3127   4.085   6.655   3.140 -0.4360 -0.3504  0.2490
  743SOL    HW1 3128   4.134   6.719   3.080  0.0794 -0.7528  0.2384
  743SOL    HW2 3129   4.150   6.607   3.198 -0.8503 -0.6468  0.4735
  744SOL     OW 3130   1.884   4.471   2.201 -0.6499  0.1159 -0.2961
  744SOL    HW1 3131   1.835   4.407   2.142 -0.3996  0.0600 -0.4463
  744SOL    HW2 3132   1.947   4.525   2.145  0.8086 -1.0682  0.1372
  745SOL     OW 3133   1.630   5.075   0.334 -0.2104 -0.0243  0.5629
  745SOL    HW1 3134   1.729   5.092   0.331 -0.0512 -0.9743 -0.4105
  745SOL    HW2 3135   1.590   5.121   0.413  0.7058  1.9411 -0.0585
  746SOL     OW 3136   4.551   5.850   3.816  0.4678 -0.4553  0.6202
  746SOL    HW1 3137   4.613   5.800   3.755 -0.4186  0.2298 -0.8936
  746SOL    HW2 3138   4.491   5.785   3.863  2.4036 -1.1539  2.2856
  747SOL     OW 3139   3.519   5.634   2.241 -0.2406 -0.0624 -0.3632
  747SOL    HW1 3140   3.578   5.558   2.217 -0.1808 -0.7715  1.8050
  747SOL    HW2 3141   3.477   5.617   2.330 -2.3570  1.2196 -1.0338
  748SOL     OW 3142   5.610   5.783   2.376 -0.4423  0.0142  0.0294
  748SOL    HW1 3143   5.547   5.850   2.337 -0.3019 -0.1444 -0.4834
  748SOL    HW2 3144   5.695   5.829   2.404 -0.7247  0.2027  0.5830
  749SOL     OW 3145   6.503   3.800   2.847 -0.0079 -0.2983 -0.0065
  749SOL    HW1 3146   6.475   3.752   2.764  1.3112  1.8844 -1.8096
  749SOL    HW2 3147   6.468   3.750   2.927 -3.1053 -1.3889 -1.8474
  750SOL     OW 3148   3.584   1.586   6.201  0.3893  0.3607 -0.4815
  750SOL    HW1 3149   3.543   1.615   6.115 -0.5275 -0.3725 -0.3065
  750SOL    HW2 3150   3.530   1.622   6.277  1.5633  1.5602 -0.1664
  751SOL     OW 3151   6.830   6.804   2.815 -0.0397 -0.0251  0.2328
  751SOL    HW1 3152   6.841   6.899   2.844 -2.5802  0.4640 -0.1193
  751SOL    HW2 3153   6.809   6.801   2.717 -0.1514 -0.9253  0.2719
  752SOL     OW 3154   6.470   0.129   0.656  0.0331 -0.2179  0.7236
  752SOL    HW1 3155   6.488   0.131   0.755  1.0859 -0.6354  0.5613
  752SOL    HW2 3156   6.435   0.218   0.627  0.9329  0.3367  1.2651
  753SOL     OW 3157   3.727   3.516   2.670 -1.0807  0.0455  0.1039
  753SOL    HW1 3158   3.823   3.513   2.698 -1.8266  1.8127  3.4800
  753SOL    HW2 3159   3.720   3.555   2.579  1.3588  1.2037  0.3193
  754SOL     OW 3160   4.884   1.167   0.054 -0.2235  0.0017  0.1578
  754SOL    HW1 3161   4.898   1.254   0.100 -1.9815  0.4366 -0.0477
  754SOL    HW2 3162   4.865   1.183  -0.043  1.9528 -0.8112 -0.4752
  755SOL     OW 3163   0.993   5.864   0.177  0.5698  0.3254  0.0481
  755SOL    HW1 3164   1.011   5.850   0.275 -0.1622  0.7366  0.2434
  755SOL    HW2 3165   0.989   5.775   0.131 -1.7459 -0.0635  0.8776
  756SOL     OW 3166   1.653   3.421   2.983 -0.5403  0.3936 -0.5361
  756SOL    HW1 3167   1.621   3.346   2.925 -0.2431 -0.8732  0.8876
  756SOL    HW2 3168   1.673   3.387   3.075 -1.6453  2.4533  0.5540
  757SOL     OW 3169   1.403   0.688   4.499 -0.2657 -0.4801  0.0139
  757SOL    HW1 3170   1.309   0.667   4.474 -0.5748 -1.0038  1.5178
  757SOL    HW2 3171   1.449   0.731   4.422 -2.0280  0.7155 -0.4302
  758SOL     OW 3172   0.491   3.997   5.448 -0.3982  0.2605  0.5225
  758SOL    HW1 3173   0.420   4.054   5.405  0.1537 -0.6690 -1.7949
  758SOL    HW2 3174   0.580   4.043   5.438 -0.2033 -0.1732  0.2281
  759SOL     OW 3175   5.917   5.036   5.442  0.0495 -0.2551 -0.1803
  759SOL    HW1 3176   5.935   5.123   5.486  0.4363 -0.2745 -0.2967
  759SOL    HW2 3177   6.000   4.980   5.444  0.2188 -0.0616 -1.3686
  760SOL     OW 3178   3.828   0.553   4.708 -0.1137 -0.7981 -0.2169
  760SOL    HW1 3179   3.776   0.468   4.708 -0.5726 -0.5215 -0.5597
  760SOL    HW2 3180   3.891   0.554   4.786  1.0999 -2.1722 -1.1400
  761SOL     OW 3181   5.222   5.792   4.176 -0.4760 -0.4241  0.6928
  761SOL    HW1 3182   5.205   5.746   4.089 -0.2274  0.1415  0.3368
  761SOL    HW2 3183   5.321   5.804   4.188 -0.5665  0.9131  0.2893
  762SOL     OW 3184   4.978   5.507   5.829 -0.1438 -0.1277 -0.0998
  762SOL    HW1 3185   4.994   5.564   5.909 -0.0924  0.8309 -0.7727
  762SOL    HW2 3186   5.046   5.434   5.826  1.6394  1.4641 -0.7309
  763SOL     OW 3187   2.927   0.511   3.152  0.3963  0.1478 -0.0576
  763SOL    HW1 3188   2.961   0.504   3.246  2.4271  3.7353 -0.3482
  763SOL    HW2 3189   2.997   0.477   3.089 -0.0135 -0.1326 -0.3604
  764SOL     OW 3190   1.447   1.883   6.512 -0.0099 -0.6888  0.0725
  764SOL    HW1 3191   1.351   1.900   6.489 -0.4418  1.1622  2.7528
  764SOL    HW2 3192   1.483   1.810   6.454 -3.6339 -2.9552  0.3699
  765SOL     OW 3193   1.835   4.380   1.930 -0.1234  0.3098 -0.2962
  765SOL    HW1 3194   1.781   4.327   1.864  1.4272 -0.9781 -0.5987
  765SOL    HW2 3195   1.931   4.351   1.925  0.7922  3.0859 -0.3698
  766SOL     OW 3196   5.099   6.276   5.574  0.2659 -0.2070  0.0194
  766SOL    HW1 3197   5.183   6.237   5.535  0.3009 -1.6597  1.4435
  766SOL    HW2 3198   5.022   6.257   5.513  0.6313 -0.7794 -0.2785
  767SOL     OW 3199   5.953   0.073   6.020  0.6578  0.7978  0.1484
  767SOL    HW1 3200   5.897   0.079   5.937  0.7885  0.0111 -0.0016
  767SOL    HW2 3201   5.924  -0.006   6.074  2.0345  0.0082 -0.2360
  768SOL     OW 3202   3.835   4.777   5.637 -0.4008  0.1021  0.7077
  768SOL    HW1 3203   3.859   4.873   5.619  1.4243 -0.2324  1.1680
  768SOL    HW2 3204   3.794   4.737   5.555  0.2346  0.8520  0.0105
  769SOL     OW 3205   5.693   5.826   1.474 -0.3305 -0.2669  0.6446
  769SOL    HW1 3206   5.648   5.742   1.443  0.1375 -0.6060  0.8772
  769SOL    HW2 3207   5.698   5.827   1.574 -0.4939  0.1244  0.6521
  770SOL     OW 3208   2.790   1.033   3.320  0.1658 -0.4507 -0.3981
  770SOL    HW1 3209   2.786   1.129   3.350  0.3842 -1.1459  2.1625
  770SOL    HW2 3210   2.871   1.019   3.264  2.8616  0.0369  3.0161
  771SOL     OW 3211   1.078   4.436   6.758 -0.1211 -0.3670 -0.0241
  771SOL    HW1 3212   1.119   4.381   6.831  2.5819 -1.1900 -2.0009
  771SOL    HW2 3213   0.981   4.413   6.750 -0.2768 -0.9604  2.6004
  772SOL     OW 3214   5.078   5.983   3.034 -0.0093  0.3087 -0.2580
  772SOL    HW1 3215   5.054   5.908   2.971 -1.1117  0.0086  0.4937
  772SOL    HW2 3216   5.173   5.973   3.062 -0.0421 -0.6212 -0.4284
  773SOL     OW 3217   0.887   5.834   1.399 -0.2090  0.6945 -0.5773
  773SOL    HW1 3218   0.798   5.836   1.353  0.1271  0.9860 -1.2332
  773SOL    HW2 3219   0.954   5.791   1.338  0.2963  1.2817 -0.4412
  774SOL     OW 3220   0.796   2.228   0.572  0.1719  0.1033 -0.2060
  774SOL    HW1 3221   0.712   2.279   0.556 -0.2694 -0.8593 -1.1329
  774SOL    HW2 3222   0.797   2.192   0.665 -0.1124  0.7134  0.0337
  775SOL     OW 3223   5.291   4.517   4.279 -0.7600  0.1196  0.0231
  775SOL    HW1 3224   5.226   4.557   4.215 -1.7454  1.5630  1.8475
  775SOL    HW2 3225   5.302   4.577   4.358  0.9052 -1.2909  0.9362
  776SOL     OW 3226   4.728   2.804   6.176 -0.4316  0.1486 -0.4089
  776SOL    HW1 3227   4.694   2.763   6.260 -1.9905  1.0524 -0.5607
  776SOL    HW2 3228   4.726   2.903   6.183 -0.2505  0.2356 -1.3708
  777SOL     OW 3229   0.892   1.130   3.946  0.1657 -0.3928 -0.4761
  777SOL    HW1 3230   0.944   1.192   3.886  0.6577  1.2566  1.5264
  777SOL    HW2 3231   0.944   1.045   3.958  1.7882  0.6483  0.3336
  778SOL     OW 3232   4.661   2.401   1.106  0.4376 -0.3953 -0.0759
  778SOL    HW1 3233   4.666   2.389   1.205 -0.3142 -0.3199 -0.0239
  778SOL    HW2 3234   4.752   2.419   1.070  1.1257 -2.7749  0.2907
  779SOL     OW 3235   2.441   2.192   2.977  0.0988  0.3243 -0.2365
  779SOL    HW1 3236   2.352   2.152   2.999 -0.2415  0.6994 -0.9191
  779SOL    HW2 3237   2.512   2.146   3.031 -0.3412 -0.8588 -0.6212
  780SOL     OW 3238   0.555   0.394   2.480 -0.3360 -0.2323 -0.4817
  780SOL    HW1 3239   0.473   0.363   2.530 -1.6816  3.9325  0.3029
  780SOL    HW2 3240   0.635   0.384   2.539 -0.1672 -4.0222 -1.1185
  781SOL     OW 3241   1.552   4.821   0.308  0.4092 -0.3552 -0.1879
  781SOL    HW1 3242   1.558   4.921   0.303  1.7474 -0.4506 -1.1709
  781SOL    HW2 3243   1.562   4.792   0.403  0.6489  0.4123  0.0347
  782SOL     OW 3244   5.778   5.188   2.147  0.2179 -0.4379  0.2057
  782SOL    HW1 3245   5.713   5.195   2.071  1.6844  0.5762 -1.0112
  782SOL    HW2 3246   5.867   5.222   2.118  1.2138 -1.4102  1.9550
  783SOL     OW 3247   1.295   5.517   4.316  0.1841 -0.1647  0.2743
  783SOL    HW1 3248   1.209   5.568   4.314  0.6568  0.9551  3.2151
  783SOL    HW2 3249   1.282   5.431   4.367 -0.2407 -2.4792 -3.3768
  784SOL     OW 3250   5.190   5.233   5.266 -0.2641 -0.0534  0.5371
  784SOL    HW1 3251   5.160   5.326   5.289  0.6195  0.7987 -1.5114
  784SOL    HW2 3252   5.141   5.202   5.184 -0.1491 -1.1954  0.8834
  785SOL     OW 3253   2.799   4.751   5.316  0.4482  0.5097 -0.1862
  785SOL    HW1 3254   2.801   4.665   5.265 -0.3317  0.0772  0.4854
  785SOL    HW2 3255   2.879   4.806   5.292  0.8166 -0.2845 -0.8282
  786SOL     OW 3256   2.472   2.657   6.519 -0.2491  0.2292  0.2158
  786SOL    HW1 3257   2.432   2.665   6.428 -0.7599 -1.2551  0.2789
  786SOL    HW2 3258   2.463   2.745   6.567  1.3793  1.5041 -1.6529
  787SOL     OW 3259   0.684   2.912   3.216  0.1150 -0.3156  0.3127
  787SOL    HW1 3260   0.722   2.967   3.290  0.9699  0.3339 -0.5901
  787SOL    HW2 3261   0.710   2.816   3.229  1.4219 -0.0030  0.1365
  788SOL     OW 3262   3.960   1.853   4.457 -0.2199 -0.1998  0.2849
  788SOL    HW1 3263   3.984   1.900   4.542 -0.6716 -0.7714  0.7373
  788SOL    HW2 3264   3.945   1.756   4.475 -0.1729 -0.3569 -0.4769
  789SOL     OW 3265   2.721   5.335   2.316  0.2694  0.4297  0.4473
  789SOL    HW1 3266   2.785   5.270   2.275  0.8176  0.5548  1.0681
  789SOL    HW2 3267   2.639   5.342   2.260 -1.4437 -3.5338  2.1261
  790SOL     OW 3268   4.308   5.534   2.243 -0.4081 -0.2937 -0.3590
  790SOL    HW1 3269   4.381   5.594   2.276 -0.9403  0.0098  0.2622
  790SOL    HW2 3270   4.348   5.467   2.180  0.2237  0.5632 -0.8986
  791SOL     OW 3271   3.095   0.348   2.981 -0.3105  0.4876  0.0527
  791SOL    HW1 3272   3.059   0.271   3.033 -2.6192  2.8204  2.1249
  791SOL    HW2 3273   3.185   0.374   3.017  0.5838 -1.2344 -0.7947
  792SOL     OW 3274   2.454   1.109   3.086  0.2132 -0.1910  0.2580
  792SOL    HW1 3275   2.406   1.182   3.037  1.3597 -0.0368 -0.6761
  792SOL    HW2 3276   2.428   1.020   3.049  1.0793 -0.0755 -0.6861
  793SOL     OW 3277   6.710   1.651   2.592  0.7429  0.6189 -0.2594
  793SOL    HW1 3278   6.671   1.668   2.501  0.6772  1.1856 -0.1321
  793SOL    HW2 3279   6.640   1.667   2.662  0.5734 -0.5856 -0.1453
  794SOL     OW 3280   7.010   4.469   0.776  0.7923  0.1987  0.3129
  794SOL    HW1 3281   7.102   4.487   0.811  0.3351  0.3703  1.4936
  794SOL    HW2 3282   6.944   4.525   0.827  0.2103  1.6307 -1.8674
  795SOL     OW 3283   5.177   1.022   3.632  0.0892  0.5971  0.0996
  795SOL    HW1 3284   5.090   1.071   3.624 -0.5442 -0.5327 -0.1605
  795SOL    HW2 3285   5.210   1.029   3.726 -0.2781  1.0220  0.2051
  796SOL     OW 3286   1.208   5.652   2.116  0.5045 -0.1871  0.3498
  796SOL    HW1 3287   1.287   5.614   2.165  0.0035 -1.9012 -0.1047
  796SOL    HW2 3288   1.225   5.748   2.096  3.3464 -0.9485 -1.4093
  797SOL     OW 3289   5.374   6.546   6.118  0.7768  0.1156  0.7408
  797SOL    HW1 3290   5.346   6.552   6.022  0.1118 -1.7859  0.7679
  797SOL    HW2 3291   5.392   6.637   6.154 -0.8315  1.0272 -0.6550
  798SOL     OW 3292   6.562   6.702   4.775  0.3710 -0.3940  0.2025
  798SOL    HW1 3293   6.619   6.743   4.703 -0.1910  0.1724  0.0685
  798SOL    HW2 3294   6.597   6.729   4.865  1.7746 -2.0473  0.1931
  799SOL     OW 3295   4.159   5.235   3.275 -0.2798 -0.3506 -0.0472
  799SOL    HW1 3296   4.151   5.172   3.197  2.5855 -1.7098  0.6025
  799SOL    HW2 3297   4.119   5.192   3.356 -1.7502  0.3494 -0.3767
  800SOL     OW 3298   2.601   6.000   4.377 -0.5244 -0.0578  0.5077
  800SOL    HW1 3299   2.589   5.925   4.312  0.8312  0.7194 -0.7355
  800SOL    HW2 3300   2.648   5.967   4.458 -0.3947 -0.6624  0.1906
  801SOL     OW 3301   6.851   3.165   0.751 -0.3448 -0.0600 -0.2866
  801SOL    HW1 3302   6.758   3.148   0.782 -0.1822 -0.7472 -0.1734
  801SOL    HW2 3303   6.857   3.258   0.714 -0.3412  1.1725  2.5357
  802SOL     OW 3304   1.251   2.160   6.427 -0.2809  0.6536  0.3339
  802SOL    HW1 3305   1.281   2.152   6.522 -0.3990  0.5847  0.3657
  802SOL    HW2 3306   1.331   2.159   6.367 -0.2038  0.7345  0.4342
  803SOL     OW 3307   5.489   2.198   4.806 -0.5161 -0.2831 -0.7532
  803SOL    HW1 3308   5.477   2.206   4.905  0.7021 -0.5661 -0.5750
  803SOL    HW2 3309   5.422   2.134   4.770 -1.9520  0.9272 -0.3454
  804SOL     OW 3310   6.521   2.653   4.804 -0.4472  0.1740  0.1483
  804SOL    HW1 3311   6.428   2.686   4.787 -0.7173  0.1417  1.4347
  804SOL    HW2 3312   6.531   2.634   4.902  0.8144 -0.1433 -0.0369
  805SOL     OW 3313   5.705   3.099   4.828 -0.9045 -0.2286  0.2723
  805SOL    HW1 3314   5.717   3.185   4.777 -0.1610  0.5272  1.6542
  805SOL    HW2 3315   5.794   3.055   4.840 -1.4212 -1.9080 -1.5330
  806SOL     OW 3316   1.446   3.541   4.402 -0.2838  0.9950 -0.0147
  806SOL    HW1 3317   1.469   3.544   4.305 -3.5183  2.3357 -0.8596
  806SOL    HW2 3318   1.494   3.464   4.445  1.9521  0.9154 -2.3991
  807SOL     OW 3319   2.361   4.164   1.490 -0.7916  0.1437  0.1722
  807SOL    HW1 3320   2.271   4.135   1.460 -0.6133 -0.7101  0.4393
  807SOL    HW2 3321   2.369   4.263   1.481 -1.1113  0.0336 -1.6050
  808SOL     OW 3322   0.478   6.831   4.125 -0.0712  0.2216 -0.2610
  808SOL    HW1 3323   0.497   6.918   4.080 -0.5866 -0.2310 -1.4043
  808SOL    HW2 3324   0.524   6.757   4.076  0.6858 -0.1244  0.9302
  809SOL     OW 3325   2.317   1.727   3.938 -0.3924 -0.3603  0.1978
  809SOL    HW1 3326   2.408   1.686   3.936 -0.6279 -0.9088  0.4509
  809SOL    HW2 3327   2.310   1.790   4.015  0.5964  1.6674 -1.2943
  810SOL     OW 3328   2.369   0.681   3.138 -0.2072  0.1972  0.2547
  810SOL    HW1 3329   2.293   0.717   3.083 -0.2983  1.6301  1.2728
  810SOL    HW2 3330   2.419   0.757   3.179  1.6111 -0.7351 -0.1371
  811SOL     OW 3331   3.130   1.908   4.692 -0.2642 -0.0039  0.1307
  811SOL    HW1 3332   3.108   2.006   4.692  0.7367  0.3000  2.6654
  811SOL    HW2 3333   3.215   1.893   4.642  0.0762  0.5689  0.5285
  812SOL     OW 3334   3.333   1.494   2.563  0.5112 -0.0831 -0.2010
  812SOL    HW1 3335   3.239   1.460   2.566  0.4172  0.0541 -1.0569
  812SOL    HW2 3336   3.396   1.424   2.594  0.0613  0.1260  1.2425
  813SOL     OW 3337   6.957   5.822   1.277 -0.1201  0.2590 -0.1313
  813SOL    HW1 3338   6.881   5.834   1.341  0.4493 -1.0348  0.8439
  813SOL    HW2 3339   7.023   5.895   1.291 -1.0326  1.2402 -0.7999
  814SOL     OW 3340   5.776   0.568   3.306  0.8202  0.0660  0.2194
  814SOL    HW1 3341   5.774   0.666   3.325  1.3061  0.2903 -0.7898
  814SOL    HW2 3342   5.846   0.524   3.361 -0.1647  0.0696  1.5276
  815SOL     OW 3343   5.749   3.843   2.027 -0.1655 -0.5199  0.2266
  815SOL    HW1 3344   5.797   3.782   2.090 -0.1285  0.0858  0.7906
  815SOL    HW2 3345   5.748   3.935   2.064 -1.0644 -0.3656 -0.1641
  816SOL     OW 3346   1.270   4.080   0.926  0.7156 -0.4181  0.5088
  816SOL    HW1 3347   1.340   4.048   0.862  0.6393  0.7278 -0.1762
  816SOL    HW2 3348   1.203   4.135   0.877 -1.1838 -2.2021  0.9743
  817SOL     OW 3349   5.339   3.968   5.732 -0.2808  0.1217 -0.1236
  817SOL    HW1 3350   5.257   3.984   5.676  0.1230 -0.0789 -0.7747
  817SOL    HW2 3351   5.393   4.051   5.737 -0.5684  0.2870  0.3997
  818SOL     OW 3352   5.049   2.161   4.262  0.6004  0.3502  0.2776
  818SOL    HW1 3353   5.115   2.171   4.336  0.7527 -3.7907  0.9068
  818SOL    HW2 3354   5.096   2.143   4.176  0.3043  1.7721 -0.2245
  819SOL     OW 3355   6.667   1.158   3.369 -0.6430 -0.2204  0.1663
  819SOL    HW1 3356   6.744   1.152   3.306 -1.6182 -0.6830 -1.0076
  819SOL    HW2 3357   6.585   1.188   3.320 -1.7525 -1.8849  0.8941
  820SOL     OW 3358   4.370   1.598   3.069  0.3281  0.3727  0.1943
  820SOL    HW1 3359   4.304   1.672   3.053  0.7883  0.7401 -0.0306
  820SOL    HW2 3360   4.415   1.612   3.158 -0.8219 -0.5939  0.9559
  821SOL     OW 3361   6.464   3.302   1.012 -0.1767 -0.5081 -0.6453
  821SOL    HW1 3362   6.413   3.373   0.963  0.6810  1.6032  1.3512
  821SOL    HW2 3363   6.403   3.225   1.031 -2.0225  0.9496 -0.2925
  822SOL     OW 3364   4.355   0.835   6.523 -0.2351  0.1958  0.2130
  822SOL    HW1 3365   4.395   0.875   6.605 -2.1919  0.0057  1.3193
  822SOL    HW2 3366   4.273   0.887   6.497  0.0591 -0.0670 -1.3202
  823SOL     OW 3367   5.657   0.129   4.156 -0.8967  0.2859 -0.5716
  823SOL    HW1 3368   5.688   0.216   4.194  1.1852 -0.8830  0.5776
  823SOL    HW2 3369   5.654   0.136   4.056  0.3486  1.3789 -0.5699
  824SOL     OW 3370   6.700   1.041   6.148  0.3954  0.3428 -0.2717
  824SOL    HW1 3371   6.604   1.024   6.170  0.3640 -0.5646 -1.0388
  824SOL    HW2 3372   6.709   1.061   6.050  1.0017  0.2681 -0.2378
  825SOL     OW 3373   1.670   3.740   6.185  0.2803 -0.3163 -0.0842
  825SOL    HW1 3374   1.730   3.719   6.108  0.2310 -4.1497  0.7253
  825SOL    HW2 3375   1.721   3.732   6.270 -0.6750 -0.6636  0.4677
  826SOL     OW 3376   3.092   2.461   0.941 -0.4138  0.2630 -0.3524
  826SOL    HW1 3377   3.034   2.530   0.984 -0.4743  0.5030 -0.8164
  826SOL    HW2 3378   3.134   2.404   1.012 -2.3907 -0.8830 -0.0351
  827SOL     OW 3379   2.692   1.900   2.402 -0.0360  0.8131  0.6218
  827SOL    HW1 3380   2.675   1.870   2.309 -0.0484 -1.5357  1.3249
  827SOL    HW2 3381   2.790   1.910   2.417  0.1818 -1.4351  1.0435
  828SOL     OW 3382   1.239   3.532   6.138  0.1288 -0.3653  0.4507
  828SOL    HW1 3383   1.276   3.612   6.185 -2.0826  0.6178  0.6434
  828SOL    HW2 3384   1.284   3.450   6.171  3.1344  0.8174 -0.4235
  829SOL     OW 3385   6.710   2.052   6.110  0.0069 -0.0049 -0.0993
  829SOL    HW1 3386   6.746   1.990   6.040  1.0780  0.7429 -0.2424
  829SOL    HW2 3387   6.692   2.141   6.068  2.3437  1.0030  0.8696
  830SOL     OW 3388   4.094   5.351   4.304  0.3788 -0.1518  0.3799
  830SOL    HW1 3389   4.021   5.308   4.250  0.3973 -0.4044  0.5541
  830SOL    HW2 3390   4.054   5.406   4.377  0.3434  0.4909 -0.1100
  831SOL     OW 3391   5.497   0.648   1.486 -0.0262 -0.5644 -0.4321
  831SOL    HW1 3392   5.453   0.563   1.459 -1.0978  0.0447 -0.6644
  831SOL    HW2 3393   5.516   0.704   1.405 -0.4377 -0.0672 -0.1947
  832SOL     OW 3394   6.868   5.462   5.285 -0.1582  0.5053 -0.1375
  832SOL    HW1 3395   6.882   5.560   5.269 -1.2594  0.3137 -2.7001
  832SOL    HW2 3396   6.770   5.443   5.286 -0.0072 -0.4016  1.8555
  833SOL     OW 3397   0.143   6.373   4.843  0.1484 -0.1284  0.1293
  833SOL    HW1 3398   0.103   6.364   4.752  1.6541 -0.9150 -0.4853
  833SOL    HW2 3399   0.172   6.283   4.876  0.1384  0.2307  1.1531
  834SOL     OW 3400   0.180   2.787   2.736  0.0955 -0.3938 -0.4971
  834SOL    HW1 3401   0.116   2.735   2.680 -0.3203  1.3232 -1.7066
  834SOL    HW2 3402   0.267   2.796   2.689  0.5819 -1.0596  0.2674
  835SOL     OW 3403   1.960   1.204   6.817  0.4524 -0.7043 -0.0481
  835SOL    HW1 3404   1.907   1.122   6.795 -0.2468 -0.3385  0.2105
  835SOL    HW2 3405   2.011   1.234   6.736  1.1083 -1.6724  0.0029
  836SOL     OW 3406   3.472   3.907   5.987  0.2241  0.0500  0.4237
  836SOL    HW1 3407   3.388   3.854   5.972  0.4249 -0.0277 -0.4650
  836SOL    HW2 3408   3.477   3.934   6.083  0.0095 -1.3713  0.8613
  837SOL     OW 3409   0.158   0.065   6.347  0.0208  0.2136 -0.6529
  837SOL    HW1 3410   0.122  -0.015   6.300  0.8919 -1.0086  0.6539
  837SOL    HW2 3411   0.198   0.037   6.435 -0.0673  2.1540  0.0670
  838SOL     OW 3412   3.012   4.909   0.947 -0.2465 -0.1740 -0.2882
  838SOL    HW1 3413   3.013   4.961   1.032  0.9409  0.9105 -0.9298
  838SOL    HW2 3414   2.953   4.954   0.881  0.6085  0.2559 -0.7728
  839SOL     OW 3415   1.181   3.560   1.946  0.0484 -0.4193 -0.1126
  839SOL    HW1 3416   1.202   3.640   1.889  0.4573 -0.9747 -0.7583
  839SOL    HW2 3417   1.134   3.590   2.029 -1.3221  0.3290 -1.1207
  840SOL     OW 3418   3.499   5.453   3.186 -0.1302 -0.0223 -0.2892
  840SOL    HW1 3419   3.541   5.465   3.096 -2.1264 -0.3679 -1.3269
  840SOL    HW2 3420   3.561   5.400   3.244  2.0994  1.9438 -0.7170
  841SOL     OW 3421   1.272   6.827   6.743  0.8021 -0.5261  0.4103
  841SOL    HW1 3422   1.206   6.775   6.689 -0.4512  1.9440 -0.6444
  841SOL    HW2 3423   1.236   6.841   6.836  1.6895 -2.4486  1.0802
  842SOL     OW 3424   0.143   0.290   4.948  0.1153  0.2175  0.1596
  842SOL    HW1 3425   0.161   0.368   4.889  0.4006 -1.0034 -1.4342
  842SOL    HW2 3426   0.227   0.266   4.998  0.3344  0.2574 -0.1871
  843SOL     OW 3427   0.247   3.862   4.709  0.1956 -0.2613  0.5439
  843SOL    HW1 3428   0.202   3.796   4.650 -1.4435  1.0809  0.2106
  843SOL    HW2 3429   0.307   3.920   4.654 -0.4228  0.2302  0.3800
  844SOL     OW 3430   4.941   3.061   6.404 -0.2155  0.5999  0.0518
  844SOL    HW1 3431   5.011   3.128   6.381 -0.5237  1.1616  0.7220
  844SOL    HW2 3432   4.976   2.969   6.388  0.4144  0.9011 -0.3202
  845SOL     OW 3433   2.383   0.419   3.035  0.7060  0.1965 -0.1183
  845SOL    HW1 3434   2.318   0.368   3.092 -1.8929  1.6154 -1.6263
  845SOL    HW2 3435   2.376   0.516   3.055  3.2476  0.3266  0.4292
  846SOL     OW 3436   4.519   5.581   1.286  0.0536 -0.0122  0.3522
  846SOL    HW1 3437   4.614   5.608   1.301  0.3821  0.2647 -1.9677
  846SOL    HW2 3438   4.506   5.554   1.191 -2.2114 -0.0594  0.6154
  847SOL     OW 3439   1.955   6.444   4.151 -0.4942  0.1672  0.3683
  847SOL    HW1 3440   2.037   6.393   4.178 -1.6064 -1.3705  1.0068
  847SOL    HW2 3441   1.978   6.507   4.077  1.4443  0.4397  1.1274
  848SOL     OW 3442   3.609   6.779   3.220 -0.1520 -0.0320  0.1793
  848SOL    HW1 3443   3.647   6.833   3.145  0.1474  1.2310  1.2047
  848SOL    HW2 3444   3.646   6.686   3.215 -1.1390 -0.3784 -1.9619
  849SOL     OW 3445   0.204   6.610   3.695 -0.1910 -0.1531  0.5450
  849SOL    HW1 3446   0.160   6.695   3.724 -2.5394 -1.0085 -0.3161
  849SOL    HW2 3447   0.136   6.548   3.658  1.5264 -2.2776  0.7370
  850SOL     OW 3448   1.709   3.061   5.968 -0.7120 -0.4681  0.0223
  850SOL    HW1 3449   1.749   3.114   6.042 -0.2049 -0.1750 -0.4528
  850SOL    HW2 3450   1.609   3.073   5.968 -0.7144 -0.5013  0.6708
  851SOL     OW 3451   4.845   4.109   5.639 -0.2206  0.4100 -0.1076
  851SOL    HW1 3452   4.850   4.057   5.554 -1.0102  0.2748 -0.0817
  851SOL    HW2 3453   4.870   4.205   5.621 -0.1501  0.3298 -0.4373
  852SOL     OW 3454   6.971   3.027   3.033 -0.5391  0.0666  0.0640
  852SOL    HW1 3455   7.048   2.987   2.982  0.3367  1.2976  0.3725
  852SOL    HW2 3456   6.895   3.044   2.970 -0.7590 -1.5783 -0.1639
  853SOL     OW 3457   4.475   5.771   1.808 -0.4454 -0.2712 -0.0881
  853SOL    HW1 3458   4.528   5.701   1.855  0.8593  0.6902 -0.0818
  853SOL    HW2 3459   4.424   5.825   1.875  1.5728  1.2324  0.3190
  854SOL     OW 3460   5.709   2.324   0.630 -0.3025 -0.1431  0.3526
  854SOL    HW1 3461   5.628   2.382   0.615  1.5071  2.1023 -1.4909
  854SOL    HW2 3462   5.748   2.346   0.719 -0.8192 -0.0783  0.5711
  855SOL     OW 3463   6.766   0.636   0.797  0.3196 -0.1431  0.1450
  855SOL    HW1 3464   6.688   0.634   0.859  1.0885 -0.3026  1.1449
  855SOL    HW2 3465   6.765   0.721   0.744 -0.4905 -0.1185  0.1886
  856SOL     OW 3466   1.865   1.681   0.021 -0.4953 -0.1615 -0.4901
  856SOL    HW1 3467   1.960   1.658   0.040 -0.0528  1.5475 -0.4752
  856SOL    HW2 3468   1.859   1.733  -0.065 -1.5532 -1.1379 -1.0434
  857SOL     OW 3469   5.358   1.234   2.333 -0.0803 -0.5543 -0.2415
  857SOL    HW1 3470   5.449   1.275   2.324 -0.4856  0.1137 -1.6330
  857SOL    HW2 3471   5.291   1.307   2.345 -0.5379 -0.9755 -0.2281
  858SOL     OW 3472   2.454   6.801   1.154 -0.1178  0.2650  0.4201
  858SOL    HW1 3473   2.383   6.755   1.209 -2.5309  3.7414  0.5628
  858SOL    HW2 3474   2.519   6.845   1.215 -0.4142  0.6990  0.4312
  859SOL     OW 3475   0.051   0.949   1.491  0.7479 -0.4326 -0.3754
  859SOL    HW1 3476  -0.024   1.012   1.511  0.2862 -0.1545 -2.7229
  859SOL    HW2 3477   0.061   0.884   1.567 -2.0031 -0.6092 -0.0752
  860SOL     OW 3478   3.080   6.313   1.823  0.6669 -0.4568 -0.7036
  860SOL    HW1 3479   3.170   6.356   1.834  0.6714 -0.7499  0.6878
  860SOL    HW2 3480   3.065   6.249   1.899 -0.5349 -0.7531 -1.1691
  861SOL     OW 3481   3.738   6.030   0.131 -0.0807 -0.3964  0.1299
  861SOL    HW1 3482   3.729   5.941   0.176 -3.2172 -0.9584 -1.3238
  861SOL    HW2 3483   3.765   6.016   0.035  0.4194  0.3103  0.1626
  862SOL     OW 3484   3.362   1.782   4.956  0.1843  0.1222  0.1154
  862SOL    HW1 3485   3.344   1.760   4.860 -1.0348  1.2922  0.0375
  862SOL    HW2 3486   3.430   1.719   4.993 -1.2763 -2.0544 -0.7520
  863SOL     OW 3487   5.666   5.366   0.858  0.0160  0.2362  0.0960
  863SOL    HW1 3488   5.728   5.295   0.824  0.4389 -0.1713  1.6294
  863SOL    HW2 3489   5.645   5.348   0.955 -0.7234  1.6148  0.2119
  864SOL     OW 3490   1.281   1.324   3.670  0.3102  0.3775 -0.2053
  864SOL    HW1 3491   1.366   1.280   3.701 -0.7191 -0.4826  1.5957
  864SOL    HW2 3492   1.242   1.271   3.595 -0.7158 -1.7323  1.6852
  865SOL     OW 3493   4.405   3.137   5.846 -0.7151  0.1064 -0.2466
  865SOL    HW1 3494   4.425   3.062   5.909  0.9440  1.2491  0.6371
  865SOL    HW2 3495   4.392   3.100   5.754 -1.6168 -1.4220  0.4448
  866SOL     OW 3496   3.313   2.914   3.573  0.0703 -0.0383 -0.1454
  866SOL    HW1 3497   3.346   2.883   3.662 -0.0979  1.3152  0.4109
  866SOL    HW2 3498   3.267   3.002   3.583  1.7180  1.1061 -1.8211
  867SOL     OW 3499   4.898   0.937   6.199  0.1367 -0.2137  0.1774
  867SOL    HW1 3500   4.959   0.934   6.120 -0.7340 -0.0240 -0.5027
  867SOL    HW2 3501   4.887   0.845   6.237 -0.0830 -0.4290 -0.4091
  868SOL     OW 3502   2.451   4.434   1.448 -0.1552  0.0843 -0.2260
  868SOL    HW1 3503   2.400   4.441   1.362  1.3088  0.3238 -1.1208
  868SOL    HW2 3504   2.536   4.486   1.440  0.9869 -1.5563  0.6031
  869SOL     OW 3505   1.446   5.025   3.146  0.0412  0.5577 -0.3373
  869SOL    HW1 3506   1.486   5.084   3.217 -0.0241  0.4379 -0.1994
  869SOL    HW2 3507   1.361   5.066   3.114  0.0482  0.5903 -0.3155
  870SOL     OW 3508   5.045   5.822   3.741 -0.4388  0.4539 -0.2508
  870SOL    HW1 3509   4.955   5.860   3.717 -0.9868 -0.7791 -0.2232
  870SOL    HW2 3510   5.092   5.793   3.658 -0.0141  1.1653 -0.2716
  871SOL     OW 3511   2.107   4.647   0.597  0.0533  0.5253 -0.5513
  871SOL    HW1 3512   2.058   4.669   0.681  1.5291 -0.1075  0.5198
  871SOL    HW2 3513   2.192   4.698   0.594  1.2561 -1.3476 -0.3507
  872SOL     OW 3514   4.294   2.154   0.908 -0.0789 -0.2988  0.0656
  872SOL    HW1 3515   4.253   2.245   0.914 -0.3379 -0.4303  0.3227
  872SOL    HW2 3516   4.242   2.099   0.842 -1.4704 -1.0494  1.6914
  873SOL     OW 3517   0.282   1.136   2.733 -0.1814 -0.1495 -0.3906
  873SOL    HW1 3518   0.282   1.158   2.831  0.7964 -1.4682 -0.0540
  873SOL    HW2 3519   0.196   1.164   2.692 -0.3069  1.1273  0.6821
  874SOL     OW 3520   0.569   5.486   3.978 -0.6182 -0.2119 -0.0784
  874SOL    HW1 3521   0.668   5.479   3.992 -1.0004 -1.1438  2.9773
  874SOL    HW2 3522   0.540   5.419   3.909  0.7877 -0.5706 -0.3455
  875SOL     OW 3523   1.679   0.344   2.890  0.2500 -0.1072  0.6023
  875SOL    HW1 3524   1.688   0.278   2.815 -2.1103 -0.5942  0.6735
  875SOL    HW2 3525   1.759   0.338   2.950  0.1608 -2.8764  0.5492
  876SOL     OW 3526   1.202   6.403   5.970 -0.5401 -0.1547 -0.8755
  876SOL    HW1 3527   1.257   6.435   6.047  0.3567  0.9297 -1.9321
  876SOL    HW2 3528   1.215   6.304   5.959  1.7908  0.1677 -1.4989
  877SOL     OW 3529   6.070   4.770   5.798 -0.7791 -0.6055 -0.1964
  877SOL    HW1 3530   5.973   4.795   5.796 -0.9808 -1.1865  1.0631
  877SOL    HW2 3531   6.089   4.706   5.723 -1.4911 -0.8795 -0.1559
  878SOL     OW 3532   4.099   3.952   5.673  0.4786  0.5707 -0.4422
  878SOL    HW1 3533   4.053   3.979   5.758  1.2770 -0.3256  0.2955
  878SOL    HW2 3534   4.187   3.998   5.666  0.1158  1.1849 -1.1502
  879SOL     OW 3535   3.830   3.328   6.974 -0.2896 -0.9444 -0.2149
  879SOL    HW1 3536   3.731   3.345   6.972 -0.1062  0.1701 -0.5914
  879SOL    HW2 3537   3.862   3.328   7.068 -0.3524  0.7175 -0.1504
  880SOL     OW 3538   2.560   2.489   2.650  0.0296 -0.2759  0.1901
  880SOL    HW1 3539   2.590   2.555   2.582  0.1210  0.7935  1.2292
  880SOL    HW2 3540   2.460   2.483   2.650 -0.0099  0.3307  0.5058
  881SOL     OW 3541   0.026   6.050   6.293  0.0702  0.2469 -0.1664
  881SOL    HW1 3542  -0.073   6.060   6.294  0.1788  1.3880  0.3234
  881SOL    HW2 3543   0.069   6.136   6.266  0.9313 -0.2787 -0.5548
  882SOL     OW 3544   2.550   0.947   5.956  0.0213 -0.4658 -0.2204
  882SOL    HW1 3545   2.515   0.918   6.045  0.0397  0.0204 -0.0573
  882SOL    HW2 3546   2.587   1.039   5.962 -2.3376  0.6206 -1.3257
  883SOL     OW 3547   5.501   2.845   3.419  0.3964 -0.1673  0.1319
  883SOL    HW1 3548   5.586   2.856   3.367  0.0737  0.4446 -0.2823
  883SOL    HW2 3549   5.438   2.919   3.395 -0.1543 -0.4686  0.6303
  884SOL     OW 3550   4.824   0.891   1.063  0.5073  0.1203 -0.4862
  884SOL    HW1 3551   4.914   0.871   1.024  1.1831  0.2363  0.9760
  884SOL    HW2 3552   4.799   0.820   1.129 -0.2768  0.3376 -0.5342
  885SOL     OW 3553   1.817   1.240   5.265  0.3637  0.5191  0.7174
  885SOL    HW1 3554   1.776   1.297   5.193 -1.2657 -0.1148  1.0844
  885SOL    HW2 3555   1.805   1.284   5.354 -0.9502 -0.3706  1.0084
  886SOL     OW 3556   5.475   1.492   0.487 -0.6768 -0.4332 -0.1720
  886SOL    HW1 3557   5.567   1.455   0.502 -0.5971 -1.2024 -2.2325
  886SOL    HW2 3558   5.474   1.589   0.509  1.1548  0.0399 -1.8531
  887SOL     OW 3559   5.847   0.729   6.399 -0.0290  0.5305 -0.0744
  887SOL    HW1 3560   5.880   0.671   6.324  2.3263  0.4073  0.9629
  887SOL    HW2 3561   5.764   0.777   6.370 -1.2074 -2.1606 -1.4911
  888SOL     OW 3562   1.988   5.835   3.327 -0.2299 -0.4914  0.2693
  888SOL    HW1 3563   1.893   5.836   3.360 -0.5832  0.5843 -0.7218
  888SOL    HW2 3564   2.001   5.909   3.261  1.3862 -0.4415  0.6087
  889SOL     OW 3565   1.288   1.143   5.758 -0.0756 -0.3810  0.8793
  889SOL    HW1 3566   1.263   1.146   5.661 -1.0142 -0.2909  1.1202
  889SOL    HW2 3567   1.377   1.187   5.770 -1.3774  2.6118  0.4871
  890SOL     OW 3568   2.061   1.656   0.662  0.2474  0.2476 -0.2616
  890SOL    HW1 3569   2.054   1.638   0.760  2.0672 -2.9520 -0.5618
  890SOL    HW2 3570   1.972   1.642   0.619 -0.9224  3.0970  1.0097
  891SOL     OW 3571   2.823   1.350   0.227 -0.5312 -0.0828  0.7821
  891SOL    HW1 3572   2.750   1.286   0.205  0.1312 -0.2604 -1.0657
  891SOL    HW2 3573   2.814   1.432   0.171  1.1207 -0.4574 -0.1272
  892SOL     OW 3574   3.714   3.587   3.221  0.2580 -0.4476 -0.1480
  892SOL    HW1 3575   3.616   3.573   3.203  0.4298 -0.6047 -0.9821
  892SOL    HW2 3576   3.749   3.657   3.159  0.7523 -0.6329 -0.0782
  893SOL     OW 3577   5.207   0.451   2.001  0.3790  0.0148 -0.4628
  893SOL    HW1 3578   5.269   0.445   1.922 -1.0574 -1.9075 -1.5398
  893SOL    HW2 3579   5.131   0.512   1.979  1.0120  1.0749  0.2331
  894SOL     OW 3580   5.971   4.661   4.341 -0.0855 -0.4352  0.2884
  894SOL    HW1 3581   5.938   4.590   4.402  0.6133 -0.5287  0.5613
  894SOL    HW2 3582   5.897   4.687   4.278 -0.5615 -0.8954  0.6438
  895SOL     OW 3583   2.345   0.293   3.674  0.0223 -0.2193 -0.5337
  895SOL    HW1 3584   2.382   0.383   3.651 -2.3319  1.2978  1.1463
  895SOL    HW2 3585   2.260   0.278   3.623 -1.3052 -0.0144  1.5100
  896SOL     OW 3586   0.877   6.296   2.420 -0.3069  0.0615  0.7324
  896SOL    HW1 3587   0.868   6.290   2.519  0.4119 -2.0973  0.7329
  896SOL    HW2 3588   0.789   6.322   2.380  0.1648  4.3577  2.0346
  897SOL     OW 3589   0.022   1.349   4.554  0.0954  0.0595 -0.4533
  897SOL    HW1 3590   0.007   1.419   4.485 -0.8946  0.2371 -0.0666
  897SOL    HW2 3591  -0.006   1.383   4.644  2.1200  0.1355  0.2144
  898SOL     OW 3592   3.322   2.128   4.404  0.3312  0.1892  0.1858
  898SOL    HW1 3593   3.405   2.135   4.349 -0.7665  0.5159 -1.5123
  898SOL    HW2 3594   3.346   2.116   4.500  2.3515  1.7182 -0.0621
  899SOL     OW 3595   3.539   4.926   5.157  0.4490 -0.1553 -0.4132
  899SOL    HW1 3596   3.552   4.830   5.182  2.7248 -0.0062 -0.7905
  899SOL    HW2 3597   3.579   4.984   5.227 -1.3874  0.5969  0.0846
  900SOL     OW 3598   2.935   1.413   6.079 -0.3001  0.6599  0.0639
  900SOL    HW1 3599   3.013   1.403   6.017  0.4906  1.1091  0.9661
  900SOL    HW2 3600   2.869   1.478   6.040 -0.4618 -0.0849 -0.9249
  901SOL     OW 3601   6.093   3.655   6.724 -0.4974  0.2978 -0.4449
  901SOL    HW1 3602   6.021   3.675   6.658 -0.6335 -1.6911 -0.9864
  901SOL    HW2 3603   6.079   3.563   6.761  3.1240 -1.3956 -2.6160
  902SOL     OW 3604   1.261   6.594   0.065  0.2575 -0.2868 -0.0288
  902SOL    HW1 3605   1.311   6.648  -0.003  1.1135 -1.0375 -0.0110
  902SOL    HW2 3606   1.171   6.570   0.028  0.2878  0.2450 -0.4556
  903SOL     OW 3607   0.323   5.338   6.086 -0.0809 -0.2960  0.5988
  903SOL    HW1 3608   0.285   5.270   6.149 -1.7614  0.7690  0.8057
  903SOL    HW2 3609   0.249   5.381   6.035  0.9355  1.2502  0.3583
  904SOL     OW 3610   2.066   2.737   4.544 -0.3434 -0.2066  0.7536
  904SOL    HW1 3611   2.120   2.821   4.557 -0.5733  0.3871 -1.5943
  904SOL    HW2 3612   2.107   2.683   4.471 -3.2900  0.6847 -1.7245
  905SOL     OW 3613   2.042   1.154   2.847 -0.3803 -0.7247 -0.3571
  905SOL    HW1 3614   2.077   1.226   2.907  1.4911 -0.7104 -1.3942
  905SOL    HW2 3615   2.074   1.169   2.753  0.0355 -2.8538 -0.6215
  906SOL     OW 3616   4.793   4.985   4.108 -0.2270  0.0653  0.2700
  906SOL    HW1 3617   4.731   4.998   4.031 -0.2774  0.5231  0.3811
  906SOL    HW2 3618   4.748   5.016   4.192  0.3035  0.8330  0.2874
  907SOL     OW 3619   2.108   1.953   3.835  0.1646  0.1191 -0.4110
  907SOL    HW1 3620   2.207   1.959   3.848 -0.0289 -0.2059  1.5190
  907SOL    HW2 3621   2.071   2.045   3.819  0.6877  0.3506 -0.3119
  908SOL     OW 3622   4.876   3.534   2.740  0.1892 -0.0033  0.1663
  908SOL    HW1 3623   4.807   3.499   2.677 -1.3209 -0.1780  1.8401
  908SOL    HW2 3624   4.921   3.458   2.787  0.5021  0.1668  0.1482
  909SOL     OW 3625   2.505   4.193   1.781  0.3188 -0.0623 -0.5752
  909SOL    HW1 3626   2.456   4.214   1.866  1.3761 -1.8009  0.5352
  909SOL    HW2 3627   2.439   4.180   1.707 -0.5639  2.8060 -0.4153
  910SOL     OW 3628   2.505   3.945   5.458 -0.2049 -0.9073  0.1632
  910SOL    HW1 3629   2.458   3.995   5.385 -1.3187 -0.3480  1.2242
  910SOL    HW2 3630   2.535   3.856   5.424 -1.0203 -0.8051 -0.8768
  911SOL     OW 3631   4.908   1.829   2.123 -0.2029 -0.6352 -0.7740
  911SOL    HW1 3632   4.808   1.828   2.117 -0.4227  1.4350  1.2826
  911SOL    HW2 3633   4.944   1.910   2.077  0.2213  0.2881  1.0832
  912SOL     OW 3634   2.589   3.280   0.308 -0.3280 -0.0300  0.5710
  912SOL    HW1 3635   2.654   3.339   0.356 -0.5519  1.4814 -0.8798
  912SOL    HW2 3636   2.496   3.315   0.321 -0.3147  1.0269 -1.6515
  913SOL     OW 3637   4.160   0.224   2.422 -0.1630 -0.1004 -0.1621
  913SOL    HW1 3638   4.232   0.289   2.399 -1.3834  0.6770 -2.0723
  913SOL    HW2 3639   4.072   0.260   2.391 -1.1092 -1.9104  0.2787
  914SOL     OW 3640   3.136   1.026   2.038  0.3799  0.0605  0.0556
  914SOL    HW1 3641   3.228   1.003   2.008  0.5066 -0.6603  0.9668
  914SOL    HW2 3642   3.072   0.956   2.006  0.1583  0.5020 -0.4821
  915SOL     OW 3643   4.451   0.398   5.311 -0.3362 -0.2274 -0.4228
  915SOL    HW1 3644   4.486   0.479   5.358 -0.5183  0.1629 -0.9477
  915SOL    HW2 3645   4.355   0.413   5.286 -1.2472 -1.6572  1.8777
  916SOL     OW 3646   3.217   7.011   3.606 -0.5035 -0.8416  0.3041
  916SOL    HW1 3647   3.148   7.073   3.644 -0.7574 -0.9109 -0.0409
  916SOL    HW2 3648   3.174   6.948   3.541  0.0609 -0.1923 -0.7310
  917SOL     OW 3649   4.474   6.725   1.211 -0.0567 -0.0021  0.4018
  917SOL    HW1 3650   4.514   6.712   1.301  0.6606 -1.5817 -0.1107
  917SOL    HW2 3651   4.441   6.638   1.176 -1.1781  0.7484 -0.4870
  918SOL     OW 3652   3.488   4.567   6.108 -0.3671 -0.0083  0.0240
  918SOL    HW1 3653   3.396   4.526   6.108 -0.9217  0.9622 -3.1398
  918SOL    HW2 3654   3.554   4.500   6.073  0.0741 -0.4951  1.7056
  919SOL     OW 3655   3.681   5.329   5.240 -0.2129  0.1156  0.1334
  919SOL    HW1 3656   3.742   5.397   5.282  0.5641 -0.2943 -0.2951
  919SOL    HW2 3657   3.589   5.340   5.276  0.2946  0.1833  1.4634
  920SOL     OW 3658   2.334   6.872   6.329 -0.5939 -0.3032 -0.3878
  920SOL    HW1 3659   2.336   6.933   6.250 -0.1557  1.1227  0.6750
  920SOL    HW2 3660   2.326   6.777   6.298  0.9933  0.0874 -2.1814
  921SOL     OW 3661   3.489   1.549   2.039  0.2761 -1.0123  0.1403
  921SOL    HW1 3662   3.537   1.553   1.952  0.3121 -1.2319  0.1496
  921SOL    HW2 3663   3.405   1.495   2.028 -0.4606  0.1296 -0.1109
  922SOL     OW 3664   4.106   2.254   4.562 -0.3809 -0.1129 -0.1468
  922SOL    HW1 3665   4.171   2.230   4.489 -0.4204 -1.1458  0.1401
  922SOL    HW2 3666   4.145   2.326   4.619  0.2505 -0.2832 -0.3539
  923SOL     OW 3667   5.579   1.758   4.140  0.5196  0.5189 -0.2899
  923SOL    HW1 3668   5.653   1.820   4.115 -0.0970  1.7340  0.7196
  923SOL    HW2 3669   5.571   1.755   4.240 -0.1401 -0.3867 -0.3601
  924SOL     OW 3670   6.166   1.660   0.210 -0.1380  0.2631 -0.0800
  924SOL    HW1 3671   6.152   1.581   0.150 -0.1239  0.9989 -1.0734
  924SOL    HW2 3672   6.100   1.731   0.187 -1.1996 -0.0423  1.8679
  925SOL     OW 3673   1.351   5.975   4.249  0.2311 -0.1243 -0.3520
  925SOL    HW1 3674   1.401   5.907   4.304  2.4563  1.6262 -0.0676
  925SOL    HW2 3675   1.270   5.932   4.209  0.0530 -2.2116  1.9983
  926SOL     OW 3676   4.868   6.504   6.115  0.2988  0.0821 -0.0341
  926SOL    HW1 3677   4.771   6.509   6.094  0.4863  2.5019 -0.6537
  926SOL    HW2 3678   4.881   6.506   6.214 -0.2810 -0.7506  0.0638
  927SOL     OW 3679   6.232   4.175   3.066  0.1068  0.2670 -0.5541
  927SOL    HW1 3680   6.289   4.120   3.127  0.2434  0.5846 -0.3932
  927SOL    HW2 3681   6.191   4.115   2.996 -0.9592 -0.2963  0.5150
  928SOL     OW 3682   6.372   5.413   5.619  0.0190 -0.5149 -0.1349
  928SOL    HW1 3683   6.424   5.333   5.648  0.3692  0.1644  1.2191
  928SOL    HW2 3684   6.307   5.438   5.691 -1.2987 -0.5912 -1.2632
  929SOL     OW 3685   6.360   5.675   0.859 -0.2235 -0.0234  0.9475
  929SOL    HW1 3686   6.282   5.697   0.917  0.6285  0.4249  1.9640
  929SOL    HW2 3687   6.445   5.695   0.908  0.5796  2.1532 -1.0711
  930SOL     OW 3688   6.016   1.999   6.909  0.0620 -0.0439  0.2481
  930SOL    HW1 3689   5.995   1.937   6.985  1.6657 -1.2432 -0.2148
  930SOL    HW2 3690   6.112   2.028   6.916  0.8035 -1.6114 -2.2170
  931SOL     OW 3691   5.005   0.471   4.332 -0.4713  0.1461 -0.1965
  931SOL    HW1 3692   5.070   0.542   4.358  0.9112 -1.8780  2.4803
  931SOL    HW2 3693   4.916   0.489   4.375 -0.6173  1.0286 -0.8445
  932SOL     OW 3694   2.373   2.218   4.644 -0.1054 -0.1321  0.6620
  932SOL    HW1 3695   2.287   2.260   4.671  0.1436  2.5331 -2.0884
  932SOL    HW2 3696   2.448   2.282   4.661  0.8067 -0.8642 -0.4534
  933SOL     OW 3697   4.135   4.730   3.022  0.4737 -0.1041  0.2705
  933SOL    HW1 3698   4.128   4.709   2.924  0.9751 -0.9213  0.4027
  933SOL    HW2 3699   4.229   4.712   3.053 -0.0844 -1.4517  1.2577
  934SOL     OW 3700   2.515   4.229   1.166  0.1264  0.3800 -0.1439
  934SOL    HW1 3701   2.490   4.231   1.069 -0.4183 -0.8526 -0.0415
  934SOL    HW2 3702   2.433   4.230   1.222  0.4455  2.3388  0.3734
  935SOL     OW 3703   2.081   0.849   1.830  0.5459 -0.5778 -0.3496
  935SOL    HW1 3704   2.068   0.831   1.928  0.7321  0.0239 -0.2114
  935SOL    HW2 3705   2.174   0.881   1.814  0.0824  0.7638 -0.5054
  936SOL     OW 3706   3.779   6.862   6.983  0.4168 -0.6281  0.2956
  936SOL    HW1 3707   3.698   6.907   7.019 -0.4090 -1.7683 -0.0837
  936SOL    HW2 3708   3.805   6.904   6.896  0.9857  0.5426  1.0019
  937SOL     OW 3709   5.140   2.778   3.466 -0.7411  0.7404 -0.3991
  937SOL    HW1 3710   5.089   2.812   3.387 -2.3408 -0.0368  0.2654
  937SOL    HW2 3711   5.166   2.682   3.450 -1.3115  0.4931  0.1108
  938SOL     OW 3712   0.415   6.857   5.668  0.0437 -0.3153 -0.1797
  938SOL    HW1 3713   0.428   6.863   5.767  1.0480 -0.0428 -0.3200
  938SOL    HW2 3714   0.467   6.780   5.632 -0.4257 -0.4946 -0.4800
  939SOL     OW 3715   3.583   6.021   3.731  0.5631 -0.3424 -0.5315
  939SOL    HW1 3716   3.488   5.991   3.739  0.8880 -1.1885  0.3695
  939SOL    HW2 3717   3.585   6.115   3.698 -0.7870  1.3450  3.6032
  940SOL     OW 3718   4.546   5.420   3.466  0.0395 -0.7663  0.3565
  940SOL    HW1 3719   4.534   5.354   3.540 -2.4349 -0.3050  0.4460
  940SOL    HW2 3720   4.488   5.394   3.389  0.6531  0.1736 -0.4513
  941SOL     OW 3721   2.689   0.128   2.038 -0.6368 -0.1932 -0.4205
  941SOL    HW1 3722   2.765   0.065   2.055 -0.4342  0.1970  0.1759
  941SOL    HW2 3723   2.719   0.222   2.055 -1.8386 -0.1870  2.1237
  942SOL     OW 3724   4.638   3.787   6.907 -0.1683  0.5794  0.0539
  942SOL    HW1 3725   4.726   3.739   6.902 -1.4515 -2.0731  1.0064
  942SOL    HW2 3726   4.644   3.861   6.973  1.1703 -0.0445  0.6739
  943SOL     OW 3727   6.905   5.349   0.175  0.8526  0.1849  0.2377
  943SOL    HW1 3728   6.878   5.259   0.208 -0.6278  0.5705  0.1825
  943SOL    HW2 3729   6.876   5.418   0.241 -1.2679  0.8890 -1.2989
  944SOL     OW 3730   1.002   4.499   5.074 -0.3057  0.4119  0.4661
  944SOL    HW1 3731   1.008   4.580   5.016 -0.6918  0.0795 -0.0484
  944SOL    HW2 3732   1.094   4.463   5.090 -0.2432  0.1171 -0.4982
  945SOL     OW 3733   1.720   3.619   4.650 -0.1410 -0.0041  0.0310
  945SOL    HW1 3734   1.744   3.716   4.642  2.9204 -0.6835 -0.4483
  945SOL    HW2 3735   1.750   3.571   4.567 -1.5590 -1.3969  0.2843
  946SOL     OW 3736   4.735   0.522   5.081 -0.1022  0.4486 -0.6169
  946SOL    HW1 3737   4.819   0.558   5.041  0.6922 -0.1043  0.4769
  946SOL    HW2 3738   4.714   0.433   5.041 -0.0263  0.4848 -0.7355
  947SOL     OW 3739   2.056   0.864   6.003  0.7410  0.3309  0.4514
  947SOL    HW1 3740   2.052   0.794   6.074 -0.0805  0.2651  0.3511
  947SOL    HW2 3741   1.966   0.908   5.995  1.0706  0.9464  0.0637
  948SOL     OW 3742   3.268   0.747   4.133 -0.4180  0.6998 -0.5164
  948SOL    HW1 3743   3.257   0.648   4.138 -3.4374  0.9390 -0.6919
  948SOL    HW2 3744   3.348   0.769   4.077  0.8280 -1.5893  0.2142
  949SOL     OW 3745   1.885   2.788   3.791 -0.2888 -0.1634 -0.0384
  949SOL    HW1 3746   1.793   2.748   3.797 -0.7795  1.0142  0.5423
  949SOL    HW2 3747   1.952   2.721   3.822 -1.2700  0.0626  2.8289
  950SOL     OW 3748   3.753   2.057   5.452 -0.1944  0.4285 -0.6588
  950SOL    HW1 3749   3.765   2.157   5.450  1.5941  0.2641 -2.5631
  950SOL    HW2 3750   3.661   2.034   5.420 -0.7885  1.4648  0.2418
  951SOL     OW 3751   1.104   4.645   1.054  0.2988 -0.4030 -0.1116
  951SOL    HW1 3752   1.149   4.733   1.068  0.6147 -0.3833 -1.1871
  951SOL    HW2 3753   1.044   4.625   1.132 -0.7415  1.3466 -0.4141
  952SOL     OW 3754   4.275   3.978   6.606  0.3552  0.6771  0.5553
  952SOL    HW1 3755   4.374   3.990   6.595  0.6330 -1.3071  0.4551
  952SOL    HW2 3756   4.257   3.886   6.641 -1.3730  1.6330  2.3203
  953SOL     OW 3757   2.164   3.694   4.479  0.4532  0.5358  0.2132
  953SOL    HW1 3758   2.124   3.732   4.562  0.5442 -0.9584  0.9724
  953SOL    HW2 3759   2.263   3.705   4.482  0.4908  0.1082  0.4931
  954SOL     OW 3760   1.696   6.809   3.162  0.3085  0.5448  0.4480
  954SOL    HW1 3761   1.611   6.803   3.214 -0.8701  0.2863 -1.4117
  954SOL    HW2 3762   1.748   6.724   3.174 -1.0790 -0.5030 -0.6220
  955SOL     OW 3763   5.507   3.123   1.667  0.3017 -0.3461 -0.3787
  955SOL    HW1 3764   5.466   3.031   1.663  1.6546 -1.0156  0.5019
  955SOL    HW2 3765   5.604   3.116   1.646  0.2052  1.0644 -1.3832
  956SOL     OW 3766   1.750   1.715   0.864  0.0259 -0.4326  0.7389
  956SOL    HW1 3767   1.680   1.743   0.931 -1.2033 -1.2891 -0.1449
  956SOL    HW2 3768   1.706   1.699   0.776  1.2005 -1.9462  0.4029
  957SOL     OW 3769   6.233   6.822   3.269  0.4344 -0.6606 -0.0013
  957SOL    HW1 3770   6.321   6.777   3.252  0.1889 -0.3926 -2.2994
  957SOL    HW2 3771   6.228   6.850   3.366  3.4247  0.4387 -0.0442
  958SOL     OW 3772   5.172   3.470   2.323 -0.0751 -0.6128 -0.2943
  958SOL    HW1 3773   5.181   3.477   2.423  0.4864 -1.0633 -0.3063
  958SOL    HW2 3774   5.075   3.471   2.298 -0.2189 -0.5141  0.2592
  959SOL     OW 3775   1.391   3.333   0.742 -0.3276  0.2676 -0.1424
  959SOL    HW1 3776   1.462   3.371   0.801 -0.0586  1.3427 -1.1259
  959SOL    HW2 3777   1.313   3.396   0.740  0.3139  1.0556 -2.1621
  960SOL     OW 3778   0.751   6.303   3.294 -0.7312  0.2831 -0.0155
  960SOL    HW1 3779   0.787   6.392   3.267 -1.1171  0.3298 -0.3975
  960SOL    HW2 3780   0.654   6.312   3.319 -0.8182 -0.0580 -0.2203
  961SOL     OW 3781   4.603   4.380   3.615 -0.5736  0.2717 -0.1870
  961SOL    HW1 3782   4.564   4.419   3.532  1.3923  0.2102 -1.2073
  961SOL    HW2 3783   4.642   4.290   3.594  2.0696  1.2651  0.1677
  962SOL     OW 3784   2.158   5.575   3.207  0.1069  0.0560  0.2754
  962SOL    HW1 3785   2.099   5.637   3.259 -0.8801  0.2488 -1.0111
  962SOL    HW2 3786   2.132   5.577   3.110  1.4524 -0.7820 -0.1400
  963SOL     OW 3787   0.297   3.785   1.029 -0.1158  0.7276  0.7177
  963SOL    HW1 3788   0.214   3.737   1.002 -1.9043  2.5680  2.5922
  963SOL    HW2 3789   0.334   3.835   0.951  0.6390 -1.8885 -0.7320
  964SOL     OW 3790   6.088   3.013   5.303  0.1895 -0.2642  0.3735
  964SOL    HW1 3791   6.090   2.972   5.212 -2.3053 -0.4115  0.3187
  964SOL    HW2 3792   6.154   3.088   5.308 -0.7706  0.8487 -2.1437
  965SOL     OW 3793   5.650   3.782   3.257  0.0501  0.2276 -0.1458
  965SOL    HW1 3794   5.562   3.737   3.268 -0.0407  0.6013  0.7865
  965SOL    HW2 3795   5.655   3.825   3.167 -1.1512  1.0973  0.1762
  966SOL     OW 3796   1.892   1.449   3.399 -0.1682 -0.0558 -0.1138
  966SOL    HW1 3797   1.823   1.380   3.378 -0.2511 -0.5877  1.7627
  966SOL    HW2 3798   1.893   1.517   3.326 -2.3196 -0.3184 -0.4701
  967SOL     OW 3799   4.210   1.768   6.884 -0.4017 -0.2552  0.5233
  967SOL    HW1 3800   4.287   1.803   6.832 -0.4746 -0.4997  0.2466
  967SOL    HW2 3801   4.236   1.681   6.928 -0.3571 -0.0787  0.8504
  968SOL     OW 3802   6.000   4.362   1.500  0.0488  0.3510  0.5707
  968SOL    HW1 3803   5.971   4.455   1.475  0.3757  0.3460  0.1678
  968SOL    HW2 3804   5.928   4.297   1.475  0.5203  0.2974 -0.7403
  969SOL     OW 3805   1.834   6.557   3.277  0.3389 -0.3151  0.7573
  969SOL    HW1 3806   1.854   6.614   3.357  1.2588 -0.7648  0.8563
  969SOL    HW2 3807   1.887   6.590   3.199 -2.9830  2.2717 -0.6783
  970SOL     OW 3808   1.692   2.415   2.611  0.4844  0.3613  0.1793
  970SOL    HW1 3809   1.624   2.463   2.555  0.9175  0.6838 -0.0789
  970SOL    HW2 3810   1.716   2.471   2.690  1.4809  0.8852 -0.4720
  971SOL     OW 3811   5.899   0.778   2.780 -0.4533 -0.2298 -0.3702
  971SOL    HW1 3812   5.938   0.727   2.704 -1.2708  0.9658 -1.6404
  971SOL    HW2 3813   5.863   0.713   2.848  0.9911 -1.3182 -0.5985
  972SOL     OW 3814   2.349   2.595   3.803  0.7840  0.0704 -0.3427
  972SOL    HW1 3815   2.295   2.677   3.782  1.7016  1.3323  1.8632
  972SOL    HW2 3816   2.396   2.564   3.720 -2.6403 -0.6489 -2.1709
  973SOL     OW 3817   4.292   6.586   1.032  0.1053 -0.4437 -0.3767
  973SOL    HW1 3818   4.240   6.636   0.963 -0.9670 -0.9591  0.0292
  973SOL    HW2 3819   4.238   6.579   1.116  1.6384  0.7434  0.7780
  974SOL     OW 3820   3.092   6.105   5.968  0.5726  0.0574  0.1256
  974SOL    HW1 3821   3.006   6.136   5.929  0.1090 -0.9593  0.3113
  974SOL    HW2 3822   3.155   6.183   5.977 -0.4609  0.8759  0.3710
  975SOL     OW 3823   0.896   1.826   5.399 -0.7516 -0.4105 -0.0835
  975SOL    HW1 3824   0.821   1.782   5.449 -1.5835  0.3312 -0.6518
  975SOL    HW2 3825   0.971   1.761   5.387 -0.3372 -0.5075  2.4781
  976SOL     OW 3826   3.247   1.486   6.280  0.8317  0.1879 -0.0228
  976SOL    HW1 3827   3.260   1.542   6.362 -1.1797  0.6210  0.0524
  976SOL    HW2 3828   3.169   1.426   6.293  0.3674  0.3740 -1.6796
  977SOL     OW 3829   0.396   6.740   4.371 -0.0462  0.0514  0.0358
  977SOL    HW1 3830   0.309   6.780   4.400 -0.4483 -1.2168  0.6420
  977SOL    HW2 3831   0.418   6.772   4.279 -2.1903 -1.1771 -0.9875
  978SOL     OW 3832   4.252   5.800   3.864 -0.3599 -0.3247  0.1291
  978SOL    HW1 3833   4.258   5.734   3.939 -0.9278 -2.1604 -1.3225
  978SOL    HW2 3834   4.164   5.848   3.869  0.7059  1.5664  2.0951
  979SOL     OW 3835   5.167   4.263   4.407  0.3519 -0.1277  0.3007
  979SOL    HW1 3836   5.195   4.321   4.484 -0.3236 -0.3426  0.7109
  979SOL    HW2 3837   5.203   4.302   4.322  0.2737  0.6635  0.6191
  980SOL     OW 3838   2.763   0.786   5.845  0.6708  0.1723  0.1164
  980SOL    HW1 3839   2.683   0.837   5.877  1.0292  0.8864 -0.1073
  980SOL    HW2 3840   2.735   0.694   5.819 -0.1592  0.5452 -0.3503
  981SOL     OW 3841   2.011   5.239   2.620 -0.2273 -0.1115  0.7116
  981SOL    HW1 3842   2.083   5.276   2.561 -0.5761  2.0249  1.5329
  981SOL    HW2 3843   1.972   5.157   2.578  0.8672  0.2178 -1.0434
  982SOL     OW 3844   1.916   2.121   6.252 -0.0740 -0.0557  0.2685
  982SOL    HW1 3845   1.876   2.093   6.165  0.8261 -0.0167 -0.1758
  982SOL    HW2 3846   1.916   2.221   6.258  0.2779 -0.0455  0.1087
  983SOL     OW 3847   4.976   0.101   5.071 -0.3912 -0.1153 -0.7045
  983SOL    HW1 3848   4.977   0.183   5.130 -1.4411 -0.7028  0.1712
  983SOL    HW2 3849   5.008   0.022   5.124 -3.8200 -1.1876 -0.0148
  984SOL     OW 3850   6.819   1.660   5.824 -0.3171  0.6866 -0.3528
  984SOL    HW1 3851   6.806   1.755   5.854 -1.2466  0.3852  0.2304
  984SOL    HW2 3852   6.757   1.600   5.875  0.4257 -0.2727 -0.5462
  985SOL     OW 3853   5.458   3.431   0.715  0.3331  0.0979  0.0062
  985SOL    HW1 3854   5.484   3.355   0.655  1.3839  0.8140 -0.4768
  985SOL    HW2 3855   5.359   3.444   0.712  0.0514 -1.6531  0.6025
  986SOL     OW 3856   4.211   0.026   3.771  0.0371 -0.0641  0.1169
  986SOL    HW1 3857   4.216   0.031   3.871 -0.5394 -1.2256  0.2101
  986SOL    HW2 3858   4.303   0.014   3.734  0.1729 -0.3903  0.5518
  987SOL     OW 3859   3.139   3.106   1.683 -0.6570 -0.9690 -0.1226
  987SOL    HW1 3860   3.230   3.068   1.668 -1.0996 -1.7490 -0.9416
  987SOL    HW2 3861   3.146   3.191   1.736  0.4327 -1.6953  0.9501
  988SOL     OW 3862   6.569   1.291   5.514  0.3249 -0.0621 -0.0978
  988SOL    HW1 3863   6.600   1.214   5.569 -0.2411 -1.6575 -1.8652
  988SOL    HW2 3864   6.470   1.302   5.524 -0.4782 -2.6863 -3.2426
  989SOL     OW 3865   0.374   0.377   0.375  0.4439  0.1524 -0.0029
  989SOL    HW1 3866   0.402   0.472   0.383 -1.1023  0.5177  1.8647
  989SOL    HW2 3867   0.275   0.370   0.390  0.2694 -1.5933 -1.5992
  990SOL     OW 3868   6.643   1.787   1.471 -0.1283  0.5171  0.0301
  990SOL    HW1 3869   6.627   1.875   1.428 -1.6471 -0.2368 -1.0195
  990SOL    HW2 3870   6.581   1.719   1.433  0.8301 -0.9643  0.9978
  991SOL     OW 3871   0.104   2.816   1.857  0.7017 -0.0979  0.0775
  991SOL    HW1 3872   0.198   2.817   1.891  1.2111  1.1263 -1.2643
  991SOL    HW2 3873   0.075   2.909   1.835 -0.2775 -0.6270 -0.9902
  992SOL     OW 3874   0.493   0.936   6.173  0.2303  0.4911  0.0068
  992SOL    HW1 3875   0.450   0.848   6.152 -0.5466  1.2916 -2.0148
  992SOL    HW2 3876   0.429   0.993   6.225  0.1805  0.3751  0.0709
  993SOL     OW 3877   0.757   4.474   2.202  0.9630 -0.2309 -0.2803
  993SOL    HW1 3878   0.723   4.528   2.279  3.1420 -0.1388  0.6881
  993SOL    HW2 3879   0.839   4.519   2.165  1.1981 -1.4290 -1.2488
  994SOL     OW 3880   1.772   0.295   4.644  0.6585 -0.2543  0.6094
  994SOL    HW1 3881   1.768   0.394   4.627  0.0827 -0.4529 -0.4883
  994SOL    HW2 3882   1.863   0.261   4.619  0.6410 -0.1116  0.3457
  995SOL     OW 3883   3.613   5.815   2.809  0.2019 -0.3430  0.4062
  995SOL    HW1 3884   3.650   5.850   2.723 -1.3260  0.0385 -0.1479
  995SOL    HW2 3885   3.527   5.767   2.790 -1.4587  1.8107  1.9290
  996SOL     OW 3886   0.833   5.409   1.959 -0.1619  0.3304 -0.0589
  996SOL    HW1 3887   0.926   5.432   1.932  0.2544  0.6607  1.5369
  996SOL    HW2 3888   0.836   5.342   2.033 -1.1990  0.3249 -0.0098
  997SOL     OW 3889   1.667   5.666   4.397 -0.8331  0.4861 -0.6420
  997SOL    HW1 3890   1.666   5.576   4.441  0.4612  0.4048 -0.7296
  997SOL    HW2 3891   1.578   5.709   4.408 -1.5759 -0.9282 -0.8580
  998SOL     OW 3892   0.018   3.919   1.172 -0.7920  0.2172 -0.1608
  998SOL    HW1 3893  -0.050   3.971   1.121 -0.1204  0.5718 -0.7201
  998SOL    HW2 3894   0.016   3.823   1.143 -0.8244  0.2978 -0.4276
  999SOL     OW 3895   3.307   5.638   0.575  0.2410  0.2078 -0.2173
  999SOL    HW1 3896   3.363   5.595   0.504  0.4323 -0.0376  0.0816
  999SOL    HW2 3897   3.292   5.734   0.552 -3.0232 -0.7174 -2.7013
 1000SOL     OW 3898   2.196   6.738   5.334 -0.0374 -0.2638  0.3139
 1000SOL    HW1 3899   2.097   6.757   5.337  0.3590  2.0352  2.6672
 1000SOL    HW2 3900   2.229   6.749   5.241 -1.5430  1.9674 -0.0467
 1001SOL     OW 3901   0.718   6.213   2.047  0.4407  0.0404  0.0534
 1001SOL    HW1 3902   0.787   6.227   1.976 -0.0283 -0.7051 -0.5595
 1001SOL    HW2 3903   0.707   6.115   2.065 -0.7891  0.1114 -0.1956
 1002SOL     OW 3904   1.585   1.447   1.578  0.1870  0.2411  0.4679
 1002SOL    HW1 3905   1.601   1.470   1.674 -1.3743 -1.0819  1.0952
 1002SOL    HW2 3906   1.496   1.403   1.568 -0.6980  2.3498 -1.9486
 1003SOL     OW 3907   2.210   1.443   0.570 -0.0554  0.2117 -0.6144
 1003SOL    HW1 3908   2.157   1.513   0.617  2.9115  1.3557  1.3275
 1003SOL    HW2 3909   2.244   1.377   0.637  0.4622 -0.8352 -1.8635
 1004SOL     OW 3910   0.437   3.689   5.998  0.2811 -0.0404  0.1461
 1004SOL    HW1 3911   0.483   3.778   5.988  1.9068 -0.3196  3.6585
 1004SOL    HW2 3912   0.504   3.621   6.027 -1.4935 -1.7442  0.3746
 1005SOL     OW 3913   3.725   0.938   1.251 -0.0011 -0.0808  0.4404
 1005SOL    HW1 3914   3.686   1.025   1.283  0.6406  0.5725 -0.5035
 1005SOL    HW2 3915   3.700   0.924   1.156  1.1178 -0.2064  0.1551
 1006SOL     OW 3916   0.119   6.169   0.788 -0.0318  0.3861 -0.6320
 1006SOL    HW1 3917   0.166   6.098   0.840  0.0104  0.1684 -0.9700
 1006SOL    HW2 3918   0.155   6.259   0.815  0.3963  0.2372 -0.6975
 1007SOL     OW 3919   1.106   5.406   0.557 -0.5593  0.4183  0.2133
 1007SOL    HW1 3920   1.079   5.473   0.488 -1.4311  0.6063  0.7108
 1007SOL    HW2 3921   1.045   5.327   0.553 -0.1449  0.0917  0.2708
 1008SOL     OW 3922   1.608   5.565   2.200  0.0670  0.0308  0.1819
 1008SOL    HW1 3923   1.605   5.492   2.268  0.8050  0.8531  1.1144
 1008SOL    HW2 3924   1.588   5.653   2.244 -1.3766  0.3574 -1.0246
 1009SOL     OW 3925   0.616   4.171   0.714  0.3778  0.1707  0.0781
 1009SOL    HW1 3926   0.581   4.250   0.664  0.9719 -0.0304 -0.6920
 1009SOL    HW2 3927   0.555   4.149   0.789 -1.6513 -0.6887 -1.7165
 1010SOL     OW 3928   2.682   2.726   1.448 -0.2678  0.5293 -0.1341
 1010SOL    HW1 3929   2.630   2.652   1.491 -0.0088 -0.0835 -0.8534
 1010SOL    HW2 3930   2.622   2.805   1.434 -0.6043  0.3830  0.4368
 1011SOL     OW 3931   5.341   4.506   6.521  0.5153 -0.3853 -0.3067
 1011SOL    HW1 3932   5.381   4.482   6.609  0.6064  0.7343 -0.0332
 1011SOL    HW2 3933   5.317   4.603   6.520  1.0636 -0.2406 -1.7187
 1012SOL     OW 3934   3.242   1.530   5.571  0.4609 -0.3028  0.5507
 1012SOL    HW1 3935   3.243   1.568   5.478 -0.6271 -0.5207  0.4328
 1012SOL    HW2 3936   3.200   1.440   5.570  3.3627 -1.7640  0.7774
 1013SOL     OW 3937   6.169   4.938   1.372  0.0007 -0.1487 -0.0589
 1013SOL    HW1 3938   6.075   4.933   1.405  0.0978 -1.3182  0.0846
 1013SOL    HW2 3939   6.197   5.034   1.366 -0.8444  0.1752  0.8954
 1014SOL     OW 3940   1.890   0.829   0.061 -0.2567 -0.0998  0.2166
 1014SOL    HW1 3941   1.843   0.872  -0.016  0.9723  1.1932  0.1518
 1014SOL    HW2 3942   1.889   0.730   0.050 -2.7662 -0.1323  0.1258
 1015SOL     OW 3943   2.672   5.293   5.196 -0.0130  0.1869 -0.4005
 1015SOL    HW1 3944   2.580   5.291   5.236  0.3371  0.9846  0.5067
 1015SOL    HW2 3945   2.669   5.257   5.103 -1.4586  1.2466 -0.8056
 1016SOL     OW 3946   5.208   5.769   6.216  0.0666  0.6204  0.2880
 1016SOL    HW1 3947   5.157   5.693   6.175 -0.6858  0.4689  1.4462
 1016SOL    HW2 3948   5.256   5.820   6.144  1.4358 -1.5349 -0.4324
 1017SOL     OW 3949   6.052   3.086   3.657  0.5902 -0.2878  0.0333
 1017SOL    HW1 3950   6.031   3.060   3.752  2.9914  0.5407  0.8723
 1017SOL    HW2 3951   6.049   3.186   3.649 -2.3072 -0.3838 -1.5564
 1018SOL     OW 3952   1.923   3.587   3.188 -0.1808 -0.1773  0.3171
 1018SOL    HW1 3953   1.933   3.644   3.106 -2.4336 -1.8518 -1.2309
 1018SOL    HW2 3954   2.001   3.525   3.196 -0.6552 -1.0573 -1.4953
 1019SOL     OW 3955   5.941   3.411   4.506 -0.0111 -0.1579 -0.2333
 1019SOL    HW1 3956   5.892   3.423   4.419 -1.0243  1.6057  0.5127
 1019SOL    HW2 3957   5.987   3.323   4.506  1.4373  0.4340 -3.2487
 1020SOL     OW 3958   6.973   6.879   5.167 -0.3200  0.1926 -0.5681
 1020SOL    HW1 3959   6.975   6.780   5.180  0.8146  0.3772  0.8577
 1020SOL    HW2 3960   7.026   6.903   5.086 -0.7187 -0.3632 -1.0034
 1021SOL     OW 3961   2.556   1.583   3.953 -0.4198 -0.2510 -0.0312
 1021SOL    HW1 3962   2.502   1.535   3.885 -0.1905 -0.7258  0.1141
 1021SOL    HW2 3963   2.642   1.614   3.912 -0.5419 -0.0214 -0.1105
 1022SOL     OW 3964   6.277   5.191   3.167 -0.3972 -0.0488  0.2430
 1022SOL    HW1 3965   6.234   5.144   3.091 -0.5751 -0.1162  0.3852
 1022SOL    HW2 3966   6.216   5.190   3.246 -0.7014  1.0370  0.0348
 1023SOL     OW 3967   3.352   6.006   0.022 -0.2208  0.0225 -0.4090
 1023SOL    HW1 3968   3.375   5.954  -0.060 -1.1579  0.4556 -0.9591
 1023SOL    HW2 3969   3.389   6.098   0.016  2.1335 -0.7617  0.9212
 1024SOL     OW 3970   5.237   6.813   6.941  0.4766  0.0774  0.0060
 1024SOL    HW1 3971   5.154   6.786   6.990  1.0335  0.9463  1.5140
 1024SOL    HW2 3972   5.298   6.734   6.932 -0.2583 -0.4338 -0.6151
 1025SOL     OW 3973   0.510   6.438   3.098 -0.1383 -0.1020 -0.1230
 1025SOL    HW1 3974   0.541   6.346   3.122  1.3279 -0.0538 -1.6884
 1025SOL    HW2 3975   0.587   6.501   3.101 -1.0358  0.9898  0.4270
 1026SOL     OW 3976   1.808   4.780   3.452 -0.3798  0.3992  0.4870
 1026SOL    HW1 3977   1.810   4.681   3.466 -0.6052  0.5138  1.4161
 1026SOL    HW2 3978   1.718   4.816   3.479 -0.6815  0.7277 -0.8665
 1027SOL     OW 3979   6.875   0.550   3.734  0.1064  0.4434 -0.8652
 1027SOL    HW1 3980   6.884   0.570   3.832 -0.1816 -1.0604 -0.5116
 1027SOL    HW2 3981   6.962   0.515   3.699  0.1751  0.8712 -1.1227
 1028SOL     OW 3982   1.165   5.753   5.592  0.1082  0.6976  0.3194
 1028SOL    HW1 3983   1.240   5.771   5.529  1.1434  0.5060  1.4821
 1028SOL    HW2 3984   1.118   5.669   5.564  0.3023  0.8252 -0.4114
 1029SOL     OW 3985   6.137   0.848   5.989  0.6860  0.4129 -0.7806
 1029SOL    HW1 3986   6.132   0.753   5.956  0.0264  0.2964 -0.3568
 1029SOL    HW2 3987   6.125   0.849   6.088  1.9007  0.8351 -0.6234
 1030SOL     OW 3988   1.670   3.846   6.717 -0.2296 -0.0114  0.5901
 1030SOL    HW1 3989   1.587   3.832   6.770  0.8224 -0.7303  2.0976
 1030SOL    HW2 3990   1.740   3.781   6.745  0.1048 -1.0940 -2.3404
 1031SOL     OW 3991   3.485   2.743   0.489 -0.1266  0.4218  0.0324
 1031SOL    HW1 3992   3.582   2.765   0.489  0.6996 -2.6449 -1.1942
 1031SOL    HW2 3993   3.459   2.706   0.578 -0.2018  1.2802  0.3735
 1032SOL     OW 3994   4.966   2.843   1.125  0.0422 -0.3328  0.7644
 1032SOL    HW1 3995   5.021   2.803   1.052 -0.0739 -2.2988  1.6746
 1032SOL    HW2 3996   4.869   2.828   1.105 -0.2878  2.9898 -0.7653
 1033SOL     OW 3997   0.560   3.970   5.990 -0.1636 -0.5190 -0.5082
 1033SOL    HW1 3998   0.555   3.949   5.892 -0.5866 -0.6209 -0.4665
 1033SOL    HW2 3999   0.547   4.068   6.005 -1.5788 -0.6985 -0.4468
 1034SOL     OW 4000   3.268   0.243   5.918  0.2989  0.1511 -0.0733
 1034SOL    HW1 4001   3.367   0.230   5.912  0.0151 -1.6678 -1.8307
 1034SOL    HW2 4002   3.233   0.273   5.830 -0.8972 -0.6379  0.1170
 1035SOL     OW 4003   0.464   0.577   5.475 -0.0647 -0.2485  0.4085
 1035SOL    HW1 4004   0.459   0.534   5.384 -0.8231  0.1363  0.2678
 1035SOL    HW2 4005   0.376   0.568   5.521 -0.2023  1.0682  0.4180
 1036SOL     OW 4006   6.260   2.667   4.687  0.0817  0.1092  0.6267
 1036SOL    HW1 4007   6.238   2.617   4.603  2.2532 -2.3444  1.4070
 1036SOL    HW2 4008   6.234   2.612   4.766 -1.1840  2.0522  1.6537
 1037SOL     OW 4009   0.016   4.106   5.003  0.4241  0.0547 -0.0100
 1037SOL    HW1 4010  -0.039   4.080   5.082  0.3891 -0.5003 -0.2157
 1037SOL    HW2 4011   0.099   4.051   5.000  0.0946 -0.4293 -0.7469
 1038SOL     OW 4012   1.061   2.205   1.166  0.5279  0.3130 -0.0605
 1038SOL    HW1 4013   1.130   2.252   1.221  0.8464  0.7130 -0.7863
 1038SOL    HW2 4014   0.995   2.159   1.227  0.4475  1.3516  0.6677
 1039SOL     OW 4015   7.002   1.182   3.578  0.2808 -0.3340 -0.1821
 1039SOL    HW1 4016   6.959   1.099   3.614  0.1501 -0.7629 -1.2853
 1039SOL    HW2 4017   6.980   1.259   3.637 -2.3398 -0.4433 -0.8774
 1040SOL     OW 4018   6.177   4.953   5.497  0.2845 -0.6272 -0.1615
 1040SOL    HW1 4019   6.206   4.859   5.476  2.2615 -0.1765  0.3420
 1040SOL    HW2 4020   6.228   4.986   5.576  0.3502  1.1969 -0.9198
 1041SOL     OW 4021   5.022   0.327   6.499 -0.0884  0.5553 -0.2716
 1041SOL    HW1 4022   5.070   0.258   6.554  1.4451  1.2748 -0.6604
 1041SOL    HW2 4023   4.929   0.294   6.478  0.5010 -1.2640 -0.2068
 1042SOL     OW 4024   5.449   4.634   1.768  0.1699 -0.2842 -0.4637
 1042SOL    HW1 4025   5.442   4.604   1.864  2.3355  1.3774  0.3018
 1042SOL    HW2 4026   5.382   4.585   1.713 -3.3702  0.8614  2.3869
 1043SOL     OW 4027   1.236   4.871   1.406 -0.0138  0.2637 -0.1446
 1043SOL    HW1 4028   1.329   4.854   1.438 -1.1528 -0.7234  3.0418
 1043SOL    HW2 4029   1.185   4.785   1.404 -1.5683  1.1216  0.7561
 1044SOL     OW 4030   4.638   2.517   4.311 -0.2930  0.2270 -0.5180
 1044SOL    HW1 4031   4.602   2.540   4.401 -0.7364  1.7798 -1.0565
 1044SOL    HW2 4032   4.719   2.572   4.291  0.0394 -0.3885 -0.9082
 1045SOL     OW 4033   0.623   3.774   1.013  0.3144 -0.4739  0.0471
 1045SOL    HW1 4034   0.647   3.805   0.921 -0.1031  1.4138  0.5406
 1045SOL    HW2 4035   0.528   3.743   1.013  0.6428 -1.5304 -0.3817
 1046SOL     OW 4036   3.921   0.938   6.738  0.1409  0.4045 -0.1265
 1046SOL    HW1 4037   3.964   0.954   6.649  0.4275 -1.5485 -0.3695
 1046SOL    HW2 4038   3.899   1.026   6.780 -0.8517  1.3821 -2.5304
 1047SOL     OW 4039   6.571   5.478   2.019  0.4638  0.2141 -0.4867
 1047SOL    HW1 4040   6.553   5.410   2.089 -0.4433  0.7589 -0.1860
 1047SOL    HW2 4041   6.553   5.438   1.929  0.2043 -0.0225 -0.3309
 1048SOL     OW 4042   5.520   6.298   6.973 -0.2911 -0.3147 -0.1170
 1048SOL    HW1 4043   5.521   6.234   7.050  3.3231  0.0129  0.2712
 1048SOL    HW2 4044   5.476   6.383   7.001 -1.6735 -1.2017  0.5689
 1049SOL     OW 4045   3.521   2.279   1.447  0.2201 -0.0473 -0.3688
 1049SOL    HW1 4046   3.549   2.306   1.355  0.0430 -1.8666 -0.9963
 1049SOL    HW2 4047   3.601   2.256   1.501  0.2407 -1.4819 -0.9373
 1050SOL     OW 4048   4.442   6.192   6.735 -0.0460 -0.4424 -0.7644
 1050SOL    HW1 4049   4.403   6.284   6.732 -0.2915 -0.5323 -0.3435
 1050SOL    HW2 4050   4.467   6.170   6.829  0.1767 -0.7416 -0.8922
 1051SOL     OW 4051   1.209   3.453   1.378 -0.7629  0.3717 -0.5290
 1051SOL    HW1 4052   1.150   3.523   1.338 -0.9260  0.0483 -0.8589
 1051SOL    HW2 4053   1.199   3.455   1.478 -1.8099 -0.0859 -0.6058
 1052SOL     OW 4054   2.321   5.780   2.161 -0.2487 -0.0675  0.8965
 1052SOL    HW1 4055   2.407   5.730   2.148 -0.4947 -0.0456 -1.2380
 1052SOL    HW2 4056   2.314   5.811   2.256  2.0087 -0.2090  1.1570
 1053SOL     OW 4057   4.593   4.980   6.497  0.3683 -0.8175 -0.1960
 1053SOL    HW1 4058   4.681   5.025   6.480  1.2787 -2.0569  1.0221
 1053SOL    HW2 4059   4.604   4.912   6.569 -2.3344  1.5046  2.6947
 1054SOL     OW 4060   3.643   6.334   1.783 -0.0728  0.2316 -0.1854
 1054SOL    HW1 4061   3.616   6.304   1.874 -0.4662 -0.8612 -0.6519
 1054SOL    HW2 4062   3.740   6.316   1.768 -0.1118 -0.0144 -0.1438
 1055SOL     OW 4063   5.226   0.149   4.873  0.2203 -0.0538  0.2012
 1055SOL    HW1 4064   5.254   0.241   4.843  1.2604  0.2365  1.9333
 1055SOL    HW2 4065   5.142   0.156   4.926 -0.7353 -0.3720 -1.2117
 1056SOL     OW 4066   6.448   4.777   5.726 -0.2237  0.2966  0.0428
 1056SOL    HW1 4067   6.383   4.853   5.727 -0.8849 -0.2226 -1.3061
 1056SOL    HW2 4068   6.512   4.788   5.650  0.5184  0.1720  0.6363
 1057SOL     OW 4069   2.630   0.548   0.000  0.8673  0.3043  0.5413
 1057SOL    HW1 4070   2.660   0.454  -0.017  1.0107  0.0506  2.0404
 1057SOL    HW2 4071   2.547   0.547   0.056 -1.1183  1.0351 -2.2258
 1058SOL     OW 4072   0.410   3.711   0.502 -0.3474 -0.8421 -0.2420
 1058SOL    HW1 4073   0.416   3.778   0.428  1.4984 -0.1482  0.4850
 1058SOL    HW2 4074   0.395   3.620   0.463 -1.9871 -0.1680 -1.2911
 1059SOL     OW 4075   6.612   3.833   6.756  0.1175 -0.8575  0.8285
 1059SOL    HW1 4076   6.649   3.774   6.684  0.5242 -1.6800  1.6777
 1059SOL    HW2 4077   6.648   3.803   6.844 -0.8026 -0.2143  1.4359
 1060SOL     OW 4078   0.921   6.732   1.332  0.0585 -0.4961  0.7570
 1060SOL    HW1 4079   0.891   6.721   1.427 -1.1171  0.3269  0.4978
 1060SOL    HW2 4080   1.010   6.687   1.320  2.4041  2.9154  3.3407
 1061SOL     OW 4081   6.008   2.353   2.248 -0.0232 -0.3237  0.1256
 1061SOL    HW1 4082   6.044   2.260   2.236  0.4386 -0.0117 -0.9816
 1061SOL    HW2 4083   6.036   2.410   2.171 -3.3596 -0.2086 -1.1625
 1062SOL     OW 4084   4.158   5.128   0.901  0.0563 -0.1360 -0.2454
 1062SOL    HW1 4085   4.065   5.108   0.933  0.0706  0.6878  0.3421
 1062SOL    HW2 4086   4.216   5.150   0.979  0.4727  0.4356 -0.7073
 1063SOL     OW 4087   2.544   5.211   1.276 -0.0917  0.0873  0.4043
 1063SOL    HW1 4088   2.636   5.239   1.301  0.8485 -0.8067 -1.8325
 1063SOL    HW2 4089   2.501   5.281   1.219  0.0286 -0.3822 -0.2861
 1064SOL     OW 4090   1.233   2.724   6.913 -0.3925  0.6888  0.6965
 1064SOL    HW1 4091   1.268   2.662   6.984 -0.8280  0.6192  0.8545
 1064SOL    HW2 4092   1.272   2.815   6.927  0.4509  0.3937  0.3083
 1065SOL     OW 4093   0.396   2.094   1.858 -0.2878  0.2431 -0.3231
 1065SOL    HW1 4094   0.486   2.058   1.835 -0.4948 -0.0024 -0.7612
 1065SOL    HW2 4095   0.346   2.116   1.774 -1.0133 -0.5681 -0.1190
 1066SOL     OW 4096   6.181   2.427   1.343  0.1447  0.3482 -0.9529
 1066SOL    HW1 4097   6.112   2.498   1.329 -1.1093 -0.4405  0.9093
 1066SOL    HW2 4098   6.272   2.469   1.344 -0.3690  1.5918 -2.1140
 1067SOL     OW 4099   0.416   0.841   3.650 -0.0955  0.0696  0.5288
 1067SOL    HW1 4100   0.503   0.831   3.698 -0.8290  3.3431  2.8878
 1067SOL    HW2 4101   0.422   0.917   3.585 -0.8450 -0.5276 -0.2710
 1068SOL     OW 4102   4.447   6.055   1.204 -0.2737  0.0245  0.0716
 1068SOL    HW1 4103   4.384   5.978   1.192 -1.9917  1.4138 -0.1102
 1068SOL    HW2 4104   4.504   6.064   1.122 -1.0353 -0.2006 -0.4894
 1069SOL     OW 4105   6.191   1.076   6.676 -0.3952 -0.3387  0.3927
 1069SOL    HW1 4106   6.233   1.080   6.586 -1.4702  0.3887 -0.1002
 1069SOL    HW2 4107   6.261   1.062   6.745  0.5969  0.4699 -0.4240
 1070SOL     OW 4108   1.940   1.144   2.501  0.1310  0.5432 -0.3384
 1070SOL    HW1 4109   2.037   1.142   2.526 -0.1673 -0.9463  0.8066
 1070SOL    HW2 4110   1.912   1.053   2.470 -0.8189  1.0625 -1.0371
 1071SOL     OW 4111   4.937   6.147   6.438  0.1098 -0.3580 -0.8095
 1071SOL    HW1 4112   4.909   6.108   6.526  0.5975 -0.4982 -0.7098
 1071SOL    HW2 4113   4.959   6.073   6.374  0.6175 -0.2564 -0.7587
 1072SOL     OW 4114   1.141   3.179   4.531 -0.4485  0.3830  0.2567
 1072SOL    HW1 4115   1.160   3.260   4.587 -0.4234 -0.4907  1.5572
 1072SOL    HW2 4116   1.049   3.146   4.550  0.8578 -2.2040  2.8429
 1073SOL     OW 4117   1.440   4.993   6.534  0.3990 -0.8444 -0.4826
 1073SOL    HW1 4118   1.503   4.919   6.509  0.7516 -1.2892  1.4882
 1073SOL    HW2 4119   1.357   4.987   6.479  0.4992 -2.6196 -0.5108
 1074SOL     OW 4120   2.462   2.590   4.399 -0.6237  0.1605  0.1924
 1074SOL    HW1 4121   2.508   2.529   4.335  1.3467  1.4114  0.3551
 1074SOL    HW2 4122   2.411   2.660   4.347 -2.3838 -1.1810  0.0166
 1075SOL     OW 4123   1.250   0.648   5.434  0.0695 -0.4992  0.4040
 1075SOL    HW1 4124   1.316   0.697   5.378  0.8610 -0.4128  1.3804
 1075SOL    HW2 4125   1.158   0.665   5.400  0.5703 -1.3815 -1.5818
 1076SOL     OW 4126   3.713   4.800   6.446  0.8330  0.3952  0.1169
 1076SOL    HW1 4127   3.768   4.874   6.486  0.1300  1.4472 -0.7710
 1076SOL    HW2 4128   3.660   4.755   6.518  2.6779 -0.5118  0.9524
 1077SOL     OW 4129   2.437   3.499   0.919  0.8547  0.5587  0.6627
 1077SOL    HW1 4130   2.448   3.559   0.839  3.7321 -0.2884  0.3095
 1077SOL    HW2 4131   2.462   3.548   1.002  0.9755  0.5317  0.6432
 1078SOL     OW 4132   3.398   0.923   3.275  0.3583  0.2193 -0.2903
 1078SOL    HW1 4133   3.329   0.984   3.313 -0.0491 -0.8500  0.7344
 1078SOL    HW2 4134   3.353   0.851   3.221  0.8328  0.7955 -1.4997
 1079SOL     OW 4135   0.070   0.402   6.693  0.1324  0.2172 -0.4360
 1079SOL    HW1 4136   0.006   0.414   6.769 -0.0042  3.0016 -0.8728
 1079SOL    HW2 4137   0.027   0.435   6.609  1.5556  0.6195 -1.0289
 1080SOL     OW 4138   5.402   0.898   6.948 -0.3473  0.3245 -0.4675
 1080SOL    HW1 4139   5.436   0.810   6.982  1.1627  0.5145 -1.4269
 1080SOL    HW2 4140   5.317   0.921   6.997 -0.3988 -1.3106  0.2965
 1081SOL     OW 4141   4.819   1.228   0.403  0.0921 -0.7883  0.1142
 1081SOL    HW1 4142   4.755   1.199   0.475 -3.1936 -0.1502 -2.3297
 1081SOL    HW2 4143   4.844   1.149   0.347  0.3462 -0.7940  0.2339
 1082SOL     OW 4144   6.309   6.217   1.406  0.1577 -0.3506 -0.7048
 1082SOL    HW1 4145   6.396   6.241   1.363  0.1571 -0.7572 -0.9445
 1082SOL    HW2 4146   6.282   6.125   1.376 -0.0525 -0.4675 -0.1607
 1083SOL     OW 4147   2.165   5.316   3.848 -0.1096 -0.1379 -0.4688
 1083SOL    HW1 4148   2.078   5.327   3.897 -0.1770  1.2869 -0.8734
 1083SOL    HW2 4149   2.184   5.399   3.796  1.9463 -0.0631  0.3210
 1084SOL     OW 4150   5.098   3.796   2.132  0.3044  0.1143 -0.1237
 1084SOL    HW1 4151   5.016   3.755   2.172 -0.4585  0.4963 -1.2301
 1084SOL    HW2 4152   5.126   3.875   2.187  2.3724 -2.2955  2.6142
 1085SOL     OW 4153   1.941   3.886   5.718  0.3300 -0.4707  0.4518
 1085SOL    HW1 4154   1.860   3.858   5.770  1.1580 -0.4824  1.7810
 1085SOL    HW2 4155   1.980   3.806   5.673  0.4668 -0.7425  1.0480
 1086SOL     OW 4156   2.269   6.653   0.943  0.1594 -0.3993 -0.1396
 1086SOL    HW1 4157   2.342   6.663   1.010  1.0922 -0.9498 -1.0438
 1086SOL    HW2 4158   2.277   6.724   0.873 -0.4379 -0.2006 -0.0125
 1087SOL     OW 4159   3.841   5.712   4.856 -0.1882  0.2969  0.0307
 1087SOL    HW1 4160   3.786   5.685   4.936  1.0158 -1.4151  0.3271
 1087SOL    HW2 4161   3.884   5.800   4.874  1.2237 -0.6969  1.9480
 1088SOL     OW 4162   6.411   4.646   0.790 -0.2848 -0.0119  0.3194
 1088SOL    HW1 4163   6.437   4.565   0.737  0.3682 -0.2313  0.9414
 1088SOL    HW2 4164   6.332   4.690   0.748  0.5959  0.1961 -1.1915
 1089SOL     OW 4165   5.934   2.971   4.785  0.0932 -0.0047 -0.6251
 1089SOL    HW1 4166   6.016   3.018   4.753  1.0240  0.2447  1.8409
 1089SOL    HW2 4167   5.922   2.886   4.734  0.4603  1.1229 -2.6848
 1090SOL     OW 4168   2.721   4.042   5.984  0.5400 -0.0557 -0.1428
 1090SOL    HW1 4169   2.685   4.067   5.894  0.3093  1.9920  0.4546
 1090SOL    HW2 4170   2.707   4.118   6.047  0.6216 -1.4746  1.6658
 1091SOL     OW 4171   1.267   0.448   2.956 -0.0157 -0.5671  0.1519
 1091SOL    HW1 4172   1.245   0.536   2.999  1.2536  0.2182 -0.7385
 1091SOL    HW2 4173   1.189   0.386   2.965 -1.4666  1.1049 -0.3732
 1092SOL     OW 4174   4.281   2.961   6.180  0.0534 -0.5969 -0.1503
 1092SOL    HW1 4175   4.188   2.989   6.157  0.0043  0.4857  1.2377
 1092SOL    HW2 4176   4.336   2.958   6.097 -1.5917 -2.9856 -1.2898
 1093SOL     OW 4177   1.309   3.115   5.679 -0.4294  0.0719  0.5210
 1093SOL    HW1 4178   1.312   3.015   5.672 -0.7284  0.1676 -1.9341
 1093SOL    HW2 4179   1.401   3.150   5.696  0.1048 -0.5513 -0.8897
 1094SOL     OW 4180   3.749   4.868   2.409  0.0693 -0.3024  0.2618
 1094SOL    HW1 4181   3.680   4.869   2.482  0.6914  0.5399  0.8543
 1094SOL    HW2 4182   3.707   4.894   2.323  0.1443  3.0560  1.1249
 1095SOL     OW 4183   0.692   2.638   3.340  0.4581 -0.3435  0.3621
 1095SOL    HW1 4184   0.764   2.589   3.290  0.5873  0.7583 -0.5718
 1095SOL    HW2 4185   0.726   2.665   3.430  2.1444  2.2966 -0.9567
 1096SOL     OW 4186   3.374   0.558   4.927  0.2678  0.0192 -0.1681
 1096SOL    HW1 4187   3.404   0.649   4.899 -1.3410  0.0709 -1.9326
 1096SOL    HW2 4188   3.278   0.546   4.903  0.6678 -2.4437 -0.7377
 1097SOL     OW 4189   6.867   3.517   1.468  0.3396  0.6005  0.1375
 1097SOL    HW1 4190   6.924   3.583   1.418  1.0836 -0.1239  0.0175
 1097SOL    HW2 4191   6.854   3.549   1.562 -1.6383  2.3271 -0.6432
 1098SOL     OW 4192   6.054   5.403   4.500  0.5720  0.2136 -0.4628
 1098SOL    HW1 4193   6.004   5.352   4.570  3.7218 -1.2540  0.9163
 1098SOL    HW2 4194   6.053   5.351   4.415 -1.2041  0.8106 -0.8434
 1099SOL     OW 4195   5.352   0.669   2.631 -0.2826  0.3417  0.6596
 1099SOL    HW1 4196   5.437   0.618   2.638 -0.2762  0.4876  2.0201
 1099SOL    HW2 4197   5.372   0.764   2.607 -0.0583  0.3818  1.0017
 1100SOL     OW 4198   6.146   5.328   6.225 -0.1784  0.1354 -0.8309
 1100SOL    HW1 4199   6.109   5.250   6.275  0.3391 -0.3658 -1.2221
 1100SOL    HW2 4200   6.070   5.388   6.196 -0.5717 -0.1897 -0.4933
 1101SOL     OW 4201   5.968   4.228   2.034 -0.1103  0.0895 -0.0416
 1101SOL    HW1 4202   5.923   4.288   2.100 -1.4477 -2.3342  1.4208
 1101SOL    HW2 4203   6.065   4.220   2.057 -0.2462  0.4889  0.6897
 1102SOL     OW 4204   5.871   1.107   5.710 -0.6233 -0.1949 -0.0003
 1102SOL    HW1 4205   5.893   1.081   5.616 -0.0785  1.7295 -0.4502
 1102SOL    HW2 4206   5.948   1.086   5.770 -0.6590 -0.6859 -0.1222
 1103SOL     OW 4207   2.219   5.356   1.642  0.7702  0.4050 -0.2022
 1103SOL    HW1 4208   2.123   5.360   1.669  1.3680  2.1729  1.9577
 1103SOL    HW2 4209   2.274   5.328   1.720  2.1121  0.4716 -1.0956
 1104SOL     OW 4210   0.836   4.293   6.684  0.4074 -0.1147 -0.2301
 1104SOL    HW1 4211   0.754   4.330   6.642 -0.1534 -1.1762 -0.0818
 1104SOL    HW2 4212   0.857   4.204   6.645  0.2781 -0.8087  1.2062
 1105SOL     OW 4213   1.060   6.732   2.172  0.0185  0.0804 -0.0383
 1105SOL    HW1 4214   1.061   6.655   2.234  0.9725  1.0067  1.1408
 1105SOL    HW2 4215   1.151   6.774   2.168 -0.6006  1.4859 -0.1842
 1106SOL     OW 4216   0.204   5.207   5.139  0.1154 -0.3209  0.0436
 1106SOL    HW1 4217   0.303   5.208   5.154  0.1748 -1.3831 -0.2393
 1106SOL    HW2 4218   0.182   5.141   5.067 -0.5930  1.3872 -1.4004
 1107SOL     OW 4219   1.824   4.498   1.535  0.5678 -0.0950 -0.4076
 1107SOL    HW1 4220   1.790   4.434   1.604 -1.4362  0.5338 -0.7543
 1107SOL    HW2 4221   1.914   4.532   1.563  0.4907 -1.0396  1.0998
 1108SOL     OW 4222   4.259   5.988   3.052 -0.2630 -0.0394 -0.0145
 1108SOL    HW1 4223   4.183   5.965   2.992  1.7800  0.7816 -3.1463
 1108SOL    HW2 4224   4.226   6.048   3.126 -2.6201  0.2728 -1.2228
 1109SOL     OW 4225   2.068   0.582   4.598  0.6722 -0.0347  0.0925
 1109SOL    HW1 4226   2.141   0.535   4.548  1.7000  0.6617  0.8749
 1109SOL    HW2 4227   2.094   0.591   4.695 -0.1835  0.7493  0.2684
 1110SOL     OW 4228   6.224   2.155   3.222 -0.1372 -0.1644 -0.3370
 1110SOL    HW1 4229   6.174   2.126   3.141  1.5887 -0.9481 -1.1880
 1110SOL    HW2 4230   6.303   2.210   3.193  0.3911 -0.2917  0.8291
 1111SOL     OW 4231   0.595   1.011   3.120  0.1517 -0.0716 -0.0155
 1111SOL    HW1 4232   0.660   1.076   3.082 -1.5052  1.8397  0.2326
 1111SOL    HW2 4233   0.582   0.935   3.056  2.0353 -0.1572 -0.3705
 1112SOL     OW 4234   0.062   4.413   5.007  0.7810 -0.3518  0.1798
 1112SOL    HW1 4235  -0.017   4.352   5.018  1.1883 -1.2883 -1.7942
 1112SOL    HW2 4236   0.145   4.365   5.034  0.7940  0.4144  1.6124
 1113SOL     OW 4237   1.760   5.118   2.513 -0.2977 -0.5637  0.5612
 1113SOL    HW1 4238   1.667   5.136   2.547 -1.4056 -0.3522 -2.2706
 1113SOL    HW2 4239   1.763   5.138   2.415  2.2942 -2.3196  0.2019
 1114SOL     OW 4240   6.755   5.580   0.746 -0.0671  0.7870 -0.3638
 1114SOL    HW1 4241   6.843   5.555   0.706 -0.7287 -0.5981 -1.0255
 1114SOL    HW2 4242   6.717   5.502   0.796 -0.7910  1.4495  0.1437
 1115SOL     OW 4243   6.348   1.889   3.932  0.1389 -0.0054  0.7692
 1115SOL    HW1 4244   6.326   1.799   3.894  0.4828 -0.1946  1.0154
 1115SOL    HW2 4245   6.447   1.898   3.940  0.1372  0.6555  0.1201
 1116SOL     OW 4246   6.931   1.435   4.783  0.5940  0.3693 -0.0613
 1116SOL    HW1 4247   6.913   1.496   4.861 -1.8693  0.2316 -0.4411
 1116SOL    HW2 4248   6.947   1.342   4.816  1.5065  0.6643  0.3590
 1117SOL     OW 4249   1.489   6.705   2.985  0.1000  1.1389 -0.6986
 1117SOL    HW1 4250   1.541   6.768   3.042  0.8849  0.0051 -0.1281
 1117SOL    HW2 4251   1.511   6.721   2.889  2.2267  0.1074 -0.4337
 1118SOL     OW 4252   3.099   2.161   3.438  0.5943 -0.0540 -0.1200
 1118SOL    HW1 4253   3.104   2.153   3.537  1.6196 -0.4205 -0.1931
 1118SOL    HW2 4254   3.190   2.149   3.398 -0.1465 -2.3318 -1.2764
 1119SOL     OW 4255   6.731   5.247   4.939 -0.3531  0.4906  0.0516
 1119SOL    HW1 4256   6.703   5.165   4.890 -0.8113  0.3402  0.5635
 1119SOL    HW2 4257   6.796   5.222   5.010 -0.8521  0.5041  0.5166
 1120SOL     OW 4258   5.512   6.143   5.913  0.1564 -0.1801 -0.5232
 1120SOL    HW1 4259   5.512   6.194   5.999  2.0773 -0.5528 -0.2465
 1120SOL    HW2 4260   5.483   6.202   5.839 -0.0290  0.6030  0.1553
 1121SOL     OW 4261   2.330   6.696   0.384  0.0327  0.0210 -0.4272
 1121SOL    HW1 4262   2.272   6.618   0.363  0.1655 -0.3560  0.5866
 1121SOL    HW2 4263   2.341   6.752   0.302 -0.8793 -0.4791 -0.9071
 1122SOL     OW 4264   2.594   0.067   0.672  0.2159 -0.0233 -0.3174
 1122SOL    HW1 4265   2.537   0.002   0.621 -0.0818 -0.8795  1.0535
 1122SOL    HW2 4266   2.676   0.020   0.705  2.6554  1.5522 -3.6104
 1123SOL     OW 4267   6.309   6.657   4.645  0.3032  0.1084  0.0563
 1123SOL    HW1 4268   6.397   6.659   4.693 -0.9727  0.0233  2.5756
 1123SOL    HW2 4269   6.292   6.565   4.609  1.1184  0.0719 -0.2553
 1124SOL     OW 4270   0.188   1.886   0.907 -0.2581 -0.2601 -0.1693
 1124SOL    HW1 4271   0.244   1.803   0.917  0.1165  0.1185  1.0879
 1124SOL    HW2 4272   0.119   1.889   0.979  0.9379  1.4141  0.9910
 1125SOL     OW 4273   3.231   6.862   1.256  0.3919 -0.0264  0.4969
 1125SOL    HW1 4274   3.195   6.942   1.209  0.8400 -0.4557 -0.6273
 1125SOL    HW2 4275   3.206   6.779   1.205  3.8924 -0.2922 -1.1110
 1126SOL     OW 4276   6.690   5.125   3.162  0.2329 -1.0968 -0.5829
 1126SOL    HW1 4277   6.690   5.033   3.122 -1.5632 -0.5707 -1.9397
 1126SOL    HW2 4278   6.604   5.139   3.212 -0.2305  0.3430 -1.7232
 1127SOL     OW 4279   2.873   1.552   4.621 -0.7617  0.8343 -0.1309
 1127SOL    HW1 4280   2.863   1.522   4.716  0.7680  1.0370  0.1182
 1127SOL    HW2 4281   2.788   1.534   4.571 -0.1462 -3.5100  0.0682
 1128SOL     OW 4282   1.060   3.984   6.959 -0.4206 -0.1055  0.4955
 1128SOL    HW1 4283   1.092   3.896   6.993 -0.1379  0.2034  1.0365
 1128SOL    HW2 4284   1.053   3.980   6.859  1.1512 -0.2530  0.3656
 1129SOL     OW 4285   3.342   2.148   2.786 -0.1414 -0.0144 -0.2231
 1129SOL    HW1 4286   3.324   2.246   2.779  0.6128  0.2444  1.1385
 1129SOL    HW2 4287   3.412   2.122   2.719  0.5395  0.6235  0.2354
 1130SOL     OW 4288   2.411   0.393   2.706  0.2185  0.2412  0.0961
 1130SOL    HW1 4289   2.391   0.397   2.804 -1.8743  0.1301 -0.2804
 1130SOL    HW2 4290   2.343   0.336   2.661  1.7449 -0.5345 -1.3156
 1131SOL     OW 4291   1.477   3.130   1.010 -0.1212  1.0941  0.0701
 1131SOL    HW1 4292   1.565   3.177   1.006 -0.1152  1.0055 -1.1090
 1131SOL    HW2 4293   1.407   3.186   0.966  0.3514 -0.9404 -3.6309
 1132SOL     OW 4294   5.567   6.614   4.069 -0.1887 -0.0451  0.0791
 1132SOL    HW1 4295   5.532   6.701   4.103  1.2398  0.2333  0.9295
 1132SOL    HW2 4296   5.667   6.613   4.077 -0.0072 -1.0246 -1.7021
 1133SOL     OW 4297   1.828   6.478   2.469  0.6691 -0.1608  0.2921
 1133SOL    HW1 4298   1.868   6.414   2.403  1.4697 -1.4711  1.9924
 1133SOL    HW2 4299   1.795   6.429   2.549  1.1453  1.5298  1.5925
 1134SOL     OW 4300   3.288   5.104   5.777 -0.2852 -0.0510  0.5207
 1134SOL    HW1 4301   3.291   5.179   5.843 -1.5203  1.1160 -0.6910
 1134SOL    HW2 4302   3.219   5.124   5.707  0.2413 -1.7463 -0.5322
 1135SOL     OW 4303   3.301   1.079   1.082  0.2742 -0.6567 -0.4172
 1135SOL    HW1 4304   3.329   1.029   1.000  2.5621 -1.6802  0.8945
 1135SOL    HW2 4305   3.365   1.154   1.099 -1.7133  1.2792 -0.9696
 1136SOL     OW 4306   2.954   6.468   0.106 -0.2361  0.0326  0.0701
 1136SOL    HW1 4307   2.933   6.472   0.204 -2.6357 -1.4078 -0.2992
 1136SOL    HW2 4308   3.050   6.443   0.094 -0.5732 -2.8338  2.1587
 1137SOL     OW 4309   2.142   2.944   1.558  0.4564  0.1455  0.0134
 1137SOL    HW1 4310   2.187   2.933   1.646  0.3067  0.1149  0.0874
 1137SOL    HW2 4311   2.181   2.879   1.492 -1.3284 -1.8585  0.8056
 1138SOL     OW 4312   3.027   3.414   3.896  0.2875 -0.0491  0.2327
 1138SOL    HW1 4313   2.977   3.432   3.981 -0.1692 -2.2589  0.4903
 1138SOL    HW2 4314   3.124   3.438   3.909 -0.4620  3.8704 -0.1350
 1139SOL     OW 4315   0.452   1.182   5.590  0.3021 -0.1398  0.1084
 1139SOL    HW1 4316   0.523   1.216   5.651  1.5792 -1.3241 -0.6491
 1139SOL    HW2 4317   0.483   1.097   5.547 -1.1846 -0.1667 -1.0054
 1140SOL     OW 4318   5.491   4.486   5.367 -0.0879  0.3382 -0.8194
 1140SOL    HW1 4319   5.571   4.460   5.421  0.2261  0.7648 -1.0752
 1140SOL    HW2 4320   5.460   4.408   5.313  1.4726  0.7409 -2.3687
 1141SOL     OW 4321   0.475   0.356   6.668 -0.6992 -0.6942 -0.6010
 1141SOL    HW1 4322   0.415   0.286   6.706  0.3012 -1.0445  0.4075
 1141SOL    HW2 4323   0.558   0.361   6.724 -0.4370  0.7851 -1.0983
 1142SOL     OW 4324   6.469   1.589   1.374  0.2515 -0.8176 -0.2659
 1142SOL    HW1 4325   6.517   1.531   1.440  1.0355 -1.2879 -1.2367
 1142SOL    HW2 4326   6.511   1.579   1.284 -0.6193  0.0490 -0.7795
 1143SOL     OW 4327   5.866   1.031   3.237  0.1231  0.2690 -0.2577
 1143SOL    HW1 4328   5.900   0.955   3.182  0.2982  1.4215 -1.8099
 1143SOL    HW2 4329   5.944   1.084   3.272 -0.0164  0.5381 -0.3524
 1144SOL     OW 4330   5.521   5.296   0.347  0.0272  0.2021 -0.1294
 1144SOL    HW1 4331   5.515   5.294   0.447  0.3995 -0.6124 -0.1142
 1144SOL    HW2 4332   5.616   5.283   0.319 -0.3999 -2.3953 -0.6121
 1145SOL     OW 4333   6.692   4.832   0.835  0.4975 -0.2484  0.6533
 1145SOL    HW1 4334   6.682   4.884   0.920 -1.3296 -1.8979  1.5470
 1145SOL    HW2 4335   6.622   4.861   0.769  1.0217  0.0730  0.2346
 1146SOL     OW 4336   3.655   3.030   3.037  0.0139  0.5202  0.0822
 1146SOL    HW1 4337   3.754   3.045   3.038  0.2469 -0.7352 -1.1434
 1146SOL    HW2 4338   3.611   3.105   2.986  0.2697  1.3142  1.0032
 1147SOL     OW 4339   3.805   3.988   2.154  0.0956  0.1758 -0.3315
 1147SOL    HW1 4340   3.764   3.917   2.096 -0.0196 -0.2662  0.2776
 1147SOL    HW2 4341   3.738   4.060   2.170 -0.8023 -0.9700  1.3936
 1148SOL     OW 4342   0.587   3.634   2.974 -0.2154  0.5007 -0.2135
 1148SOL    HW1 4343   0.517   3.563   2.982  0.2197  0.0907  0.0014
 1148SOL    HW2 4344   0.599   3.658   2.877 -0.7969  0.7254 -0.2334
 1149SOL     OW 4345   5.334   1.238   0.535  0.0459 -0.2481  0.1520
 1149SOL    HW1 4346   5.418   1.187   0.552  0.3050  0.3722  0.7624
 1149SOL    HW2 4347   5.357   1.328   0.497 -0.3884 -0.3943 -0.4853
 1150SOL     OW 4348   6.821   2.089   1.202  0.1878 -0.4756  0.3272
 1150SOL    HW1 4349   6.774   2.027   1.263  0.6885 -0.0363  1.1810
 1150SOL    HW2 4350   6.852   2.170   1.253 -0.5408  0.5316 -0.7704
 1151SOL     OW 4351   0.457   1.223   1.383  0.5913 -0.6498 -0.2145
 1151SOL    HW1 4352   0.500   1.149   1.331 -1.2577 -1.1064 -1.1722
 1151SOL    HW2 4353   0.384   1.186   1.440 -0.1644  0.3898 -0.4830
 1152SOL     OW 4354   6.155   4.930   4.059  0.1250 -0.1467  0.1140
 1152SOL    HW1 4355   6.132   4.942   4.155 -0.6877 -0.5388 -0.0166
 1152SOL    HW2 4356   6.118   5.007   4.006  0.7265  0.1604  0.1333
 1153SOL     OW 4357   1.014   6.076   4.236  0.2062  0.4671 -0.3577
 1153SOL    HW1 4358   1.072   6.008   4.191 -0.1285  0.1263 -0.2815
 1153SOL    HW2 4359   1.065   6.161   4.250  1.0130 -0.1687  0.6433
 1154SOL     OW 4360   3.000   5.241   3.891  0.6757 -0.1653 -0.0345
 1154SOL    HW1 4361   3.075   5.272   3.834 -0.3372  0.5820 -1.0036
 1154SOL    HW2 4362   2.916   5.236   3.837 -0.2775  0.3923  1.3260
 1155SOL     OW 4363   2.570   2.184   5.551  0.2049  0.4872  0.3516
 1155SOL    HW1 4364   2.666   2.210   5.547  0.1696  0.5324 -0.5127
 1155SOL    HW2 4365   2.521   2.225   5.473 -0.4462  0.2082  0.6046
 1156SOL     OW 4366   2.494   5.962   2.353 -0.3312 -0.7973  0.2516
 1156SOL    HW1 4367   2.467   6.054   2.324 -0.9529 -0.8876  0.5236
 1156SOL    HW2 4368   2.412   5.908   2.371 -0.1732 -2.5453 -3.3524
 1157SOL     OW 4369   6.374   2.473   1.568  0.1424  0.2909  0.0909
 1157SOL    HW1 4370   6.337   2.541   1.631 -2.0472  1.7651 -2.5256
 1157SOL    HW2 4371   6.364   2.382   1.607 -2.5315  0.9959  1.3268
 1158SOL     OW 4372   4.179   5.465   0.070  0.1022 -0.2181 -0.5441
 1158SOL    HW1 4373   4.211   5.371   0.067 -2.6791 -1.2615 -0.2057
 1158SOL    HW2 4374   4.258   5.527   0.072  2.3031 -2.5826  4.4747
 1159SOL     OW 4375   2.072   5.883   1.219  0.0459 -0.6381  0.5839
 1159SOL    HW1 4376   2.124   5.815   1.167 -0.2985 -0.0060 -0.6044
 1159SOL    HW2 4377   1.977   5.884   1.188 -1.0174 -2.4632  3.3934
 1160SOL     OW 4378   5.032   6.631   4.897 -0.0331  0.5301  0.3048
 1160SOL    HW1 4379   5.095   6.556   4.913  0.4320  0.7961 -0.2642
 1160SOL    HW2 4380   5.076   6.718   4.919 -0.5441  0.6464  0.8930
 1161SOL     OW 4381   2.042   4.509   0.197 -0.0684 -0.4214  0.2210
 1161SOL    HW1 4382   2.101   4.433   0.224  0.1812 -0.3554 -0.1386
 1161SOL    HW2 4383   1.993   4.486   0.113 -0.8462 -0.6248  0.7219
 1162SOL     OW 4384   4.277   0.262   1.594 -0.5450 -0.9372 -0.8671
 1162SOL    HW1 4385   4.287   0.358   1.621  0.6322 -1.5294  0.9883
 1162SOL    HW2 4386   4.222   0.214   1.663  0.7624 -2.0461 -0.5489
 1163SOL     OW 4387   2.013   6.239   1.630 -0.4348  0.4773 -0.1022
 1163SOL    HW1 4388   2.042   6.224   1.536  2.7617  2.5142  0.4080
 1163SOL    HW2 4389   1.976   6.154   1.667  1.2713 -1.3026 -2.1829
 1164SOL     OW 4390   0.793   5.920   6.609 -0.3629 -0.3239 -0.1261
 1164SOL    HW1 4391   0.759   5.951   6.698  0.2190  0.7278 -0.2584
 1164SOL    HW2 4392   0.738   5.961   6.536 -0.3311 -0.5430 -0.2735
 1165SOL     OW 4393   3.296   0.466   4.059  0.1097  0.2576 -0.6799
 1165SOL    HW1 4394   3.374   0.466   3.997  0.4205 -0.1155 -0.2926
 1165SOL    HW2 4395   3.229   0.397   4.030 -1.3573  2.3013 -2.5719
 1166SOL     OW 4396   3.818   6.161   3.136 -0.0835 -0.2422  0.4485
 1166SOL    HW1 4397   3.772   6.074   3.117 -0.1910 -0.1519  0.2975
 1166SOL    HW2 4398   3.821   6.216   3.053 -0.9549  0.3462  0.7936
 1167SOL     OW 4399   1.623   3.431   6.267  0.2808 -0.3781 -0.2667
 1167SOL    HW1 4400   1.674   3.513   6.293  1.3770 -1.1164 -0.0099
 1167SOL    HW2 4401   1.626   3.419   6.168 -0.7001  0.3973 -0.4041
 1168SOL     OW 4402   3.687   6.864   1.318  0.4804  0.3895 -0.0476
 1168SOL    HW1 4403   3.597   6.837   1.351  0.5926 -1.3676 -1.0668
 1168SOL    HW2 4404   3.752   6.863   1.395  0.0437 -0.3541  0.3246
 1169SOL     OW 4405   1.578   3.425   0.900  0.1164  0.4355  0.1129
 1169SOL    HW1 4406   1.617   3.516   0.884 -0.6626  1.1759  2.1824
 1169SOL    HW2 4407   1.645   3.368   0.946  0.7156 -0.1921 -1.4581
 1170SOL     OW 4408   6.207   2.928   4.659 -0.1636 -0.0690 -0.3280
 1170SOL    HW1 4409   6.236   2.841   4.699 -2.0731 -0.2351  0.7923
 1170SOL    HW2 4410   6.208   2.921   4.559 -0.1794 -1.3391 -0.2522
 1171SOL     OW 4411   6.064   3.730   2.411 -0.1537  0.2337  0.4972
 1171SOL    HW1 4412   6.137   3.664   2.429 -0.8985 -0.3900  1.2888
 1171SOL    HW2 4413   6.104   3.822   2.406  0.8767 -0.2443 -0.5162
 1172SOL     OW 4414   4.540   4.398   2.269  0.7384  0.1842 -0.1109
 1172SOL    HW1 4415   4.592   4.347   2.337 -0.5257 -0.8779  0.1077
 1172SOL    HW2 4416   4.523   4.339   2.189  1.2184  1.0327 -0.8603
 1173SOL     OW 4417   3.074   3.196   5.974 -0.2731 -0.4537  0.4360
 1173SOL    HW1 4418   3.130   3.277   5.956 -1.4175  0.2700  0.0562
 1173SOL    HW2 4419   3.072   3.138   5.892  0.0638 -0.5850  0.5164
 1174SOL     OW 4420   2.567   5.116   1.654  0.2177  0.0742 -0.0996
 1174SOL    HW1 4421   2.664   5.121   1.629  0.2412 -0.9117 -0.2426
 1174SOL    HW2 4422   2.515   5.074   1.579 -0.1157 -0.5701  0.4768
 1175SOL     OW 4423   5.337   3.109   1.410  0.4353 -0.2171 -0.4633
 1175SOL    HW1 4424   5.311   3.058   1.327 -0.6434 -1.6432  0.6909
 1175SOL    HW2 4425   5.379   3.046   1.475 -1.8578  0.0895  1.4244
 1176SOL     OW 4426   6.684   0.586   6.363  0.3397 -0.0319  0.0408
 1176SOL    HW1 4427   6.655   0.572   6.268 -2.5488  0.5820  0.7286
 1176SOL    HW2 4428   6.712   0.681   6.376  0.3847 -0.0255 -0.1033
 1177SOL     OW 4429   6.277   2.570   4.248 -0.0752  0.2177  0.2643
 1177SOL    HW1 4430   6.305   2.616   4.163  0.4529 -0.1278  0.2476
 1177SOL    HW2 4431   6.352   2.514   4.282 -0.4671 -0.0637  0.6798
 1178SOL     OW 4432   5.412   2.362   6.640 -0.6602  0.3652 -0.4568
 1178SOL    HW1 4433   5.340   2.295   6.661  0.9640 -1.5404 -0.6321
 1178SOL    HW2 4434   5.500   2.315   6.634  0.3616  2.3313 -2.0827
 1179SOL     OW 4435   0.749   0.789   5.149  0.3139 -0.5777  0.0238
 1179SOL    HW1 4436   0.750   0.701   5.195 -2.7469 -2.2032 -2.6223
 1179SOL    HW2 4437   0.796   0.782   5.061  2.0662  1.1445  0.7674
 1180SOL     OW 4438   0.095   6.392   0.042 -0.2458 -0.0814  0.0735
 1180SOL    HW1 4439   0.000   6.423   0.049 -0.6162 -1.2951  0.9422
 1180SOL    HW2 4440   0.118   6.338   0.123  0.7718 -0.8862 -0.7203
 1181SOL     OW 4441   0.077   2.662   2.263 -0.0074  0.0547 -0.6915
 1181SOL    HW1 4442   0.008   2.730   2.291 -1.4593 -1.0550 -1.4337
 1181SOL    HW2 4443   0.160   2.710   2.235 -0.5260  1.4557  0.0094
 1182SOL     OW 4444   6.835   5.916   0.743  0.5126 -0.3747  0.2339
 1182SOL    HW1 4445   6.764   5.922   0.813  0.6081 -1.0007  0.3875
 1182SOL    HW2 4446   6.916   5.870   0.780  1.1481  0.6760  0.1724
 1183SOL     OW 4447   3.910   2.131   2.221 -0.0936 -0.4645 -0.1051
 1183SOL    HW1 4448   3.995   2.156   2.174 -0.3348  1.4836  0.4333
 1183SOL    HW2 4449   3.832   2.164   2.168 -0.3725  1.6911  1.5234
 1184SOL     OW 4450   1.791   1.958   3.784  0.6301 -0.3994  0.3246
 1184SOL    HW1 4451   1.714   1.941   3.722  2.1673 -2.2872 -1.2102
 1184SOL    HW2 4452   1.805   1.877   3.841  2.7915 -1.0050 -0.9731
 1185SOL     OW 4453   4.479   2.687   1.730  0.2748  0.0146  0.3464
 1185SOL    HW1 4454   4.542   2.663   1.804  0.6533 -1.3563 -0.3806
 1185SOL    HW2 4455   4.513   2.767   1.681  1.5163 -0.7458 -0.0835
 1186SOL     OW 4456   6.555   3.550   6.913 -0.5955 -0.1243 -0.2927
 1186SOL    HW1 4457   6.506   3.636   6.906  1.8820  1.5974  1.4748
 1186SOL    HW2 4458   6.545   3.513   7.006 -0.2385 -0.8261 -0.5208
 1187SOL     OW 4459   1.166   4.302   5.265 -0.1913 -0.2649  0.1646
 1187SOL    HW1 4460   1.198   4.275   5.174 -1.5022  0.1200 -0.4427
 1187SOL    HW2 4461   1.241   4.344   5.316  0.4645 -0.1172 -0.8942
 1188SOL     OW 4462   2.367   6.673   6.108 -0.6030  0.5543  0.0765
 1188SOL    HW1 4463   2.449   6.718   6.072 -0.2496  0.5372  0.8360
 1188SOL    HW2 4464   2.383   6.574   6.113 -1.0281  0.4446 -0.6911
 1189SOL     OW 4465   0.724   0.609   2.323  0.0735 -0.3050  0.1735
 1189SOL    HW1 4466   0.752   0.549   2.248  0.8247 -0.8357  0.8611
 1189SOL    HW2 4467   0.667   0.557   2.387  2.1273 -0.8392  1.6751
 1190SOL     OW 4468   2.185   5.505   0.055 -0.3374  0.1495 -0.3835
 1190SOL    HW1 4469   2.105   5.445   0.057 -1.1181  1.1910  0.1438
 1190SOL    HW2 4470   2.268   5.449   0.066 -0.9941 -0.9137 -0.7078
 1191SOL     OW 4471   4.848   5.335   1.726  0.0675  0.4411 -0.1087
 1191SOL    HW1 4472   4.828   5.432   1.715  0.3226  0.4148 -0.8154
 1191SOL    HW2 4473   4.892   5.299   1.644 -0.9384 -0.5096 -0.2608
 1192SOL     OW 4474   2.423   1.067   6.776 -0.1565  0.4413 -0.0148
 1192SOL    HW1 4475   2.459   0.991   6.723 -0.4560 -0.0343  0.4509
 1192SOL    HW2 4476   2.421   1.043   6.873 -2.0765  0.2785 -0.0524
 1193SOL     OW 4477   6.389   4.761   1.282 -0.5116  0.2296  0.0464
 1193SOL    HW1 4478   6.305   4.810   1.305 -0.1998  0.3675  0.9010
 1193SOL    HW2 4479   6.416   4.702   1.358 -0.6828 -1.0150 -0.8290
 1194SOL     OW 4480   6.102   1.130   3.364 -0.0382 -0.4114  0.3678
 1194SOL    HW1 4481   6.043   1.144   3.443 -0.2037 -0.4726  0.2564
 1194SOL    HW2 4482   6.190   1.175   3.379  0.0989 -0.8076  0.7755
 1195SOL     OW 4483   1.864   0.515   2.575  0.0843  0.0842 -0.1073
 1195SOL    HW1 4484   1.865   0.439   2.640  3.7128  1.0538  1.2448
 1195SOL    HW2 4485   1.808   0.590   2.610 -0.6735 -0.6383  0.2454
 1196SOL     OW 4486   4.309   5.743   4.657  0.2190  0.2182  0.0751
 1196SOL    HW1 4487   4.394   5.794   4.672  0.9236 -1.0536  0.5694
 1196SOL    HW2 4488   4.299   5.674   4.728 -0.3777 -0.7563 -0.9297
 1197SOL     OW 4489   4.183   1.635   3.816 -0.3897 -0.6192 -0.9230
 1197SOL    HW1 4490   4.155   1.706   3.881  0.7775  0.9352 -2.0414
 1197SOL    HW2 4491   4.167   1.667   3.723  0.3606 -1.7447 -1.4603
 1198SOL     OW 4492   4.541   1.163   6.407 -1.0240  0.2353  0.1399
 1198SOL    HW1 4493   4.444   1.166   6.433 -1.2811 -1.3292 -0.5425
 1198SOL    HW2 4494   4.554   1.213   6.322 -1.6716 -1.4208 -0.9670
 1199SOL     OW 4495   2.173   3.950   3.515 -0.0691  0.0380 -0.6962
 1199SOL    HW1 4496   2.264   3.991   3.506 -0.2223  0.1470 -1.8702
 1199SOL    HW2 4497   2.105   4.022   3.531 -0.0419  0.0172 -0.4788
 1200SOL     OW 4498   5.820   0.999   0.417  0.1089 -0.0966  0.0046
 1200SOL    HW1 4499   5.903   1.028   0.369 -0.2751 -0.7842 -1.1396
 1200SOL    HW2 4500   5.744   1.058   0.390  0.1199  0.2314  0.6773
 1201SOL     OW 4501   1.287   6.937   3.691  0.2101  0.5916 -0.1400
 1201SOL    HW1 4502   1.263   7.019   3.744 -0.5860  1.8563 -2.3378
 1201SOL    HW2 4503   1.380   6.946   3.655 -0.0760  0.8057 -0.8409
 1202SOL     OW 4504   5.360   1.716   1.856 -0.2052  0.1333  0.1668
 1202SOL    HW1 4505   5.398   1.802   1.822  1.8024 -1.3448 -1.6995
 1202SOL    HW2 4506   5.424   1.641   1.834 -2.7917 -2.1271 -0.1951
 1203SOL     OW 4507   2.255   0.362   0.584  0.1630 -0.4787 -0.1890
 1203SOL    HW1 4508   2.330   0.350   0.649 -0.0352 -1.4432 -0.1209
 1203SOL    HW2 4509   2.292   0.390   0.496  0.3831  1.4354  0.4765
 1204SOL     OW 4510   6.815   4.257   3.296  0.2800  0.0594 -0.8813
 1204SOL    HW1 4511   6.788   4.179   3.240 -1.1062 -0.1814  0.0765
 1204SOL    HW2 4512   6.756   4.335   3.275  0.0282  0.0937 -0.1021
 1205SOL     OW 4513   6.897   5.097   5.169  0.4730  0.2259 -0.0980
 1205SOL    HW1 4514   6.830   5.082   5.241  0.7585 -1.2260 -0.0959
 1205SOL    HW2 4515   6.917   5.195   5.161 -0.1523  0.4849  1.2341
 1206SOL     OW 4516   1.179   2.999   2.863 -0.8157 -0.2821  0.2128
 1206SOL    HW1 4517   1.101   3.008   2.924 -0.0978  0.1791  1.0894
 1206SOL    HW2 4518   1.257   2.961   2.913 -0.9467 -2.3732 -1.0615
 1207SOL     OW 4519   1.106   1.534   4.364  0.1576  0.0592 -0.1170
 1207SOL    HW1 4520   1.106   1.544   4.464 -0.1856 -0.1587 -0.0912
 1207SOL    HW2 4521   1.123   1.438   4.341  2.8780  0.5202 -0.3413
 1208SOL     OW 4522   2.107   2.959   2.041 -0.0568 -0.3954 -0.4017
 1208SOL    HW1 4523   2.159   2.945   1.957 -0.2037  0.9618 -0.7502
 1208SOL    HW2 4524   2.054   3.043   2.033 -1.3096 -1.0847  0.4568
 1209SOL     OW 4525   6.574   6.652   2.802  0.1152 -0.0470  0.7891
 1209SOL    HW1 4526   6.672   6.674   2.805 -0.2576  1.9496 -0.1788
 1209SOL    HW2 4527   6.521   6.736   2.812 -1.5531 -1.2119  2.4158
 1210SOL     OW 4528   4.173   3.622   5.071  0.3009 -0.1872  0.0192
 1210SOL    HW1 4529   4.112   3.572   5.133 -1.7099  1.2103 -0.7367
 1210SOL    HW2 4530   4.156   3.595   4.977 -0.1280  1.1753 -0.3204
 1211SOL     OW 4531   3.534   1.061   0.164  0.0440  0.5238  0.4069
 1211SOL    HW1 4532   3.610   1.016   0.117 -0.0528  0.3856  0.3833
 1211SOL    HW2 4533   3.449   1.014   0.143  0.1556 -0.3128  1.7122
 1212SOL     OW 4534   2.426   4.755   5.950  0.5896  0.6720 -0.7513
 1212SOL    HW1 4535   2.371   4.758   5.867  1.2652 -0.9351 -1.3055
 1212SOL    HW2 4536   2.523   4.768   5.926  0.8849 -0.6186 -0.3595
 1213SOL     OW 4537   4.374   5.399   5.673 -0.5866 -0.0016  0.0048
 1213SOL    HW1 4538   4.411   5.306   5.666  0.1275  0.0814  1.9694
 1213SOL    HW2 4539   4.450   5.464   5.676 -1.0922  0.6957 -1.6136
 1214SOL     OW 4540   0.983   0.378   4.638  0.8455 -0.0993 -0.0582
 1214SOL    HW1 4541   1.078   0.405   4.653  0.9529 -0.4654 -0.0554
 1214SOL    HW2 4542   0.928   0.459   4.619  1.0910  0.1563  0.2901
 1215SOL     OW 4543   2.056   4.222   6.172  0.2186 -0.1905  0.3797
 1215SOL    HW1 4544   2.031   4.146   6.112  0.0835 -1.0284  1.4654
 1215SOL    HW2 4545   2.068   4.305   6.117  1.5921 -1.2386 -1.0229
 1216SOL     OW 4546   1.714   6.626   4.747  0.7972  0.4964  0.2571
 1216SOL    HW1 4547   1.640   6.675   4.702 -1.0927 -1.4152  1.0964
 1216SOL    HW2 4548   1.749   6.554   4.687  0.1538 -0.2876  0.8027
 1217SOL     OW 4549   6.465   2.304   1.195  0.4678  0.3516  0.6415
 1217SOL    HW1 4550   6.398   2.233   1.215 -0.9951  1.9103  1.5847
 1217SOL    HW2 4551   6.495   2.347   1.280  1.9236  0.3886  0.1491
 1218SOL     OW 4552   4.252   5.443   4.015 -0.0019  0.4034 -0.2639
 1218SOL    HW1 4553   4.158   5.420   3.991 -0.0405 -2.0159  1.7650
 1218SOL    HW2 4554   4.253   5.498   4.099  0.3634 -0.5264  0.3652
 1219SOL     OW 4555   3.973   1.214   0.864  0.4840 -0.5294  0.3219
 1219SOL    HW1 4556   3.916   1.245   0.789  3.1041  1.0350 -1.1531
 1219SOL    HW2 4557   4.019   1.129   0.838  0.4247 -0.6676  0.6626
 1220SOL     OW 4558   4.531   0.105   4.047  0.0102  0.7484 -0.5580
 1220SOL    HW1 4559   4.526   0.119   4.146 -2.0980 -0.3305 -0.4452
 1220SOL    HW2 4560   4.621   0.068   4.024  0.3321  0.4204  1.0402
 1221SOL     OW 4561   4.677   4.992   2.630  0.5789  0.6905  0.3505
 1221SOL    HW1 4562   4.627   5.032   2.553  0.0776  0.3617  0.4981
 1221SOL    HW2 4563   4.617   4.987   2.710  1.1268  1.1230  0.7941
 1222SOL     OW 4564   5.897   1.883   2.807 -0.4071  0.3048  0.4472
 1222SOL    HW1 4565   5.870   1.979   2.812  3.5171  1.5810  0.9549
 1222SOL    HW2 4566   5.954   1.860   2.886 -1.1093 -2.4257  0.2464
 1223SOL     OW 4567   3.704   1.008   4.809 -0.5858 -0.6305  0.1116
 1223SOL    HW1 4568   3.714   0.939   4.737  1.0850  0.0982 -0.4061
 1223SOL    HW2 4569   3.723   1.098   4.772 -0.3302 -0.1712  1.3246
 1224SOL     OW 4570   3.811   4.973   4.005 -0.4196 -0.1576 -0.5761
 1224SOL    HW1 4571   3.713   4.977   3.984 -1.1000 -2.1342  1.7348
 1224SOL    HW2 4572   3.851   4.893   3.961 -0.0940 -0.0006 -0.5697
 1225SOL     OW 4573   2.142   2.794   6.692 -0.4263 -0.6473  0.0981
 1225SOL    HW1 4574   2.144   2.799   6.593  1.2785  0.3453  0.1363
 1225SOL    HW2 4575   2.156   2.700   6.722 -3.1458 -1.3497 -0.5598
 1226SOL     OW 4576   3.621   2.845   2.139 -0.1577 -0.2759 -0.0206
 1226SOL    HW1 4577   3.653   2.751   2.124  0.4401 -0.3515  1.6070
 1226SOL    HW2 4578   3.698   2.908   2.131 -0.6616  0.1976 -1.7328
 1227SOL     OW 4579   2.594   2.058   3.175 -0.4951 -0.5702 -0.7204
 1227SOL    HW1 4580   2.596   1.972   3.124  0.9135 -0.2611 -1.2473
 1227SOL    HW2 4581   2.672   2.115   3.148 -2.0538  1.4255 -1.3035
 1228SOL     OW 4582   4.659   7.000   4.810 -0.7248  0.7933  0.7165
 1228SOL    HW1 4583   4.690   7.093   4.789 -1.1601  0.6067 -0.8921
 1228SOL    HW2 4584   4.591   7.003   4.883  0.0781  1.6152  1.4518
 1229SOL     OW 4585   0.106   0.865   0.769  0.0987  0.2906  0.2241
 1229SOL    HW1 4586   0.189   0.809   0.765  0.0893  0.2258  0.8333
 1229SOL    HW2 4587   0.038   0.827   0.707 -0.1977 -0.8661  1.2158
 1230SOL     OW 4588   6.137   5.677   2.007  0.3764 -0.1085 -0.3143
 1230SOL    HW1 4589   6.153   5.618   2.086 -1.1921 -2.2328 -1.4806
 1230SOL    HW2 4590   6.077   5.753   2.033  0.0349 -0.6705  0.5793
 1231SOL     OW 4591   1.694   0.209   4.139  0.5092 -0.3678  0.0928
 1231SOL    HW1 4592   1.742   0.245   4.059  0.8470  0.3206  0.5978
 1231SOL    HW2 4593   1.730   0.251   4.221 -1.2921  0.5644  0.4587
 1232SOL     OW 4594   3.149   0.824   2.858  0.9628  0.4352  0.1547
 1232SOL    HW1 4595   3.123   0.775   2.775  0.3930  0.6424  0.2074
 1232SOL    HW2 4596   3.244   0.854   2.850  1.6015 -1.3670  0.4512
 1233SOL     OW 4597   1.706   6.294   3.769 -0.3492 -0.2916  0.0709
 1233SOL    HW1 4598   1.702   6.315   3.867 -1.8647 -1.3416  0.2762
 1233SOL    HW2 4599   1.678   6.374   3.716  1.1009  0.4904  0.4296
 1234SOL     OW 4600   1.977   0.036   2.802  0.4437 -0.3271 -0.1844
 1234SOL    HW1 4601   2.056  -0.023   2.787  2.1502  1.7053  0.3798
 1234SOL    HW2 4602   1.951   0.034   2.898  1.3405  0.8016  0.0953
 1235SOL     OW 4603   5.941   5.078   1.810 -0.2175  0.7427 -0.0508
 1235SOL    HW1 4604   6.006   5.004   1.794 -2.0121 -1.2236  1.1664
 1235SOL    HW2 4605   5.885   5.092   1.728 -1.5971 -1.1336  0.5083
 1236SOL     OW 4606   0.548   4.885   0.556 -0.2705  0.0474 -0.4634
 1236SOL    HW1 4607   0.606   4.803   0.563 -0.4912 -0.0308  0.5279
 1236SOL    HW2 4608   0.458   4.859   0.520 -1.3870 -0.7160  2.5720
 1237SOL     OW 4609   6.423   6.884   0.544 -0.2960 -0.2277 -0.0823
 1237SOL    HW1 4610   6.461   6.956   0.602 -0.0906  0.2562 -0.8007
 1237SOL    HW2 4611   6.369   6.925   0.471 -2.4153 -0.9200  1.0265
 1238SOL     OW 4612   5.857   1.278   1.478  0.1022  0.7736 -0.0827
 1238SOL    HW1 4613   5.768   1.309   1.446  0.1110  1.4799  0.5448
 1238SOL    HW2 4614   5.846   1.231   1.566  0.4604  1.8724  0.5752
 1239SOL     OW 4615   3.928   3.576   6.380  0.2092  0.6311  0.3382
 1239SOL    HW1 4616   4.017   3.621   6.384  0.2318  0.4908  1.9027
 1239SOL    HW2 4617   3.860   3.630   6.430  0.0572 -0.6204  1.5394
 1240SOL     OW 4618   3.771   1.730   6.427 -0.2423 -0.0212  0.0645
 1240SOL    HW1 4619   3.695   1.721   6.363 -0.3716 -0.1053  0.2301
 1240SOL    HW2 4620   3.779   1.826   6.455 -0.3034 -0.0166  0.0665
 1241SOL     OW 4621   5.378   3.392   4.747 -0.0537  0.1704 -0.5345
 1241SOL    HW1 4622   5.336   3.303   4.766  2.5097 -0.9419  0.3428
 1241SOL    HW2 4623   5.403   3.398   4.651 -0.9226  0.2938 -0.7639
 1242SOL     OW 4624   0.238   0.780   5.921  0.2145  0.1242  0.2140
 1242SOL    HW1 4625   0.292   0.747   5.999  3.3695  1.4668 -1.2239
 1242SOL    HW2 4626   0.268   0.872   5.897 -2.2026  0.6014 -1.3028
 1243SOL     OW 4627   6.393   0.027   1.704 -0.3254  0.0227  1.1598
 1243SOL    HW1 4628   6.393  -0.072   1.692  2.4717  0.1729 -0.8747
 1243SOL    HW2 4629   6.313   0.066   1.658 -1.0318 -1.1911  1.3209
 1244SOL     OW 4630   6.456   3.833   2.392 -1.0599 -0.2796 -0.4284
 1244SOL    HW1 4631   6.525   3.853   2.322 -1.4783 -0.1536 -0.8083
 1244SOL    HW2 4632   6.368   3.870   2.364 -1.0694  0.4596  0.5398
 1245SOL     OW 4633   4.991   0.708   6.941 -0.2322 -0.7879  0.0390
 1245SOL    HW1 4634   5.005   0.807   6.942 -0.9831 -0.6039 -2.5165
 1245SOL    HW2 4635   5.060   0.665   6.999  2.7817  0.9499 -1.9658
 1246SOL     OW 4636   0.670   3.304   3.689 -0.2210  0.0209  0.1072
 1246SOL    HW1 4637   0.766   3.290   3.713  0.6461  2.5209 -1.5091
 1246SOL    HW2 4638   0.663   3.328   3.592 -2.3829  0.7253  0.3863
 1247SOL     OW 4639   4.157   0.838   4.783  0.1016 -0.7464 -0.1456
 1247SOL    HW1 4640   4.204   0.798   4.704  0.7711 -1.0068  0.3745
 1247SOL    HW2 4641   4.096   0.911   4.751  1.6131  0.3099 -0.7694
 1248SOL     OW 4642   6.067   0.039   6.951  0.7611 -0.0949  0.0350
 1248SOL    HW1 4643   5.980   0.070   6.913  1.4424  0.3584 -1.2258
 1248SOL    HW2 4644   6.138   0.045   6.881  1.6180 -1.3712  0.7448
 1249SOL     OW 4645   1.256   5.633   6.798  0.3981  0.1107 -0.0587
 1249SOL    HW1 4646   1.205   5.549   6.782  0.5650 -0.0600  0.3062
 1249SOL    HW2 4647   1.325   5.645   6.726  1.3620 -0.8167  0.6904
 1250SOL     OW 4648   6.847   6.721   1.715  0.4310 -0.4491  0.9245
 1250SOL    HW1 4649   6.864   6.641   1.772  0.0326 -0.5801  0.8559
 1250SOL    HW2 4650   6.765   6.769   1.747 -1.4924 -2.0834 -1.2329
 1251SOL     OW 4651   4.946   2.993   0.064 -0.1803 -0.0731 -0.3408
 1251SOL    HW1 4652   4.994   3.078   0.043 -0.4403  0.3195  0.5911
 1251SOL    HW2 4653   4.873   3.012   0.129 -1.7405 -0.6204 -1.8572
 1252SOL     OW 4654   6.654   0.410   3.061  0.2556  0.1083 -0.1448
 1252SOL    HW1 4655   6.624   0.504   3.077  2.4134  1.0880 -1.4048
 1252SOL    HW2 4656   6.720   0.383   3.131  2.6757  1.0629 -1.9254
 1253SOL     OW 4657   2.968   1.306   4.455 -0.5821 -0.5887 -0.1075
 1253SOL    HW1 4658   2.932   1.399   4.456  0.9516  0.0479 -0.0422
 1253SOL    HW2 4659   3.043   1.299   4.522 -1.5876 -2.2759  0.9065
 1254SOL     OW 4660   0.559   6.796   1.339  0.2552 -0.0238 -0.1990
 1254SOL    HW1 4661   0.586   6.748   1.423  0.6616  0.7575  0.1275
 1254SOL    HW2 4662   0.630   6.785   1.270  0.1636 -0.2271 -0.2611
 1255SOL     OW 4663   5.087   5.974   1.754 -0.1860  0.0933  0.2071
 1255SOL    HW1 4664   5.026   6.052   1.744  0.8944  1.0732  1.0131
 1255SOL    HW2 4665   5.181   6.006   1.762  0.0416 -1.0440  3.5399
 1256SOL     OW 4666   4.727   5.361   0.751  0.4215 -0.6099  0.0042
 1256SOL    HW1 4667   4.733   5.418   0.833 -1.2889 -1.0358  0.4576
 1256SOL    HW2 4668   4.632   5.337   0.734  0.8476 -1.2685 -1.6173
 1257SOL     OW 4669   4.400   6.338   4.648 -0.2754 -0.1052  0.0143
 1257SOL    HW1 4670   4.332   6.265   4.640 -1.5531  0.9491  0.7937
 1257SOL    HW2 4671   4.372   6.415   4.591 -0.5523  0.9073  1.4728
 1258SOL     OW 4672   5.679   1.000   1.658  0.5854 -0.4272  0.5306
 1258SOL    HW1 4673   5.619   0.950   1.720 -0.2625  0.9816  0.8903
 1258SOL    HW2 4674   5.708   0.940   1.584  0.2583 -1.6622  1.3740
 1259SOL     OW 4675   5.392   1.208   4.359 -0.3623 -0.7706  0.1782
 1259SOL    HW1 4676   5.403   1.290   4.303 -3.7378  0.9376  1.7651
 1259SOL    HW2 4677   5.358   1.133   4.302 -2.4023  0.5325 -0.4088
 1260SOL     OW 4678   0.095   3.448   1.607 -0.4789 -0.6127 -0.5513
 1260SOL    HW1 4679   0.057   3.458   1.515  0.7617  0.0303 -1.0214
 1260SOL    HW2 4680   0.123   3.538   1.641  0.5050 -1.0363 -0.1897
 1261SOL     OW 4681   4.792   4.942   3.055  0.2690  0.0596 -0.3254
 1261SOL    HW1 4682   4.760   4.999   3.131 -2.3271 -0.7093 -0.7466
 1261SOL    HW2 4683   4.844   4.998   2.991 -0.3278  1.4572  0.3752
 1262SOL     OW 4684   6.424   6.860   1.376 -0.2895 -0.3953  0.3962
 1262SOL    HW1 4685   6.327   6.857   1.401  0.3315  0.5312  3.1880
 1262SOL    HW2 4686   6.445   6.949   1.335 -0.0358  0.6567  2.6990
 1263SOL     OW 4687   6.755   3.046   3.384  0.0439 -0.2289  0.1307
 1263SOL    HW1 4688   6.805   2.960   3.385 -0.8757 -0.7816  1.0665
 1263SOL    HW2 4689   6.699   3.053   3.467 -1.0150  0.6055 -0.6195
 1264SOL     OW 4690   6.232   3.075   2.475  0.0040  0.4627 -0.3270
 1264SOL    HW1 4691   6.205   2.985   2.439 -0.8206  0.6829 -0.2890
 1264SOL    HW2 4692   6.151   3.121   2.511 -0.1596  2.4110 -2.9140
 1265SOL     OW 4693   3.788   6.654   0.437  0.3059 -0.1437  0.1832
 1265SOL    HW1 4694   3.826   6.566   0.407  2.1914  0.7586 -0.2076
 1265SOL    HW2 4695   3.799   6.721   0.363 -1.5940  0.3136  0.2784
 1266SOL     OW 4696   6.233   1.496   1.755  0.2195  0.2153  0.3549
 1266SOL    HW1 4697   6.328   1.521   1.771  0.4809 -0.9417  0.7395
 1266SOL    HW2 4698   6.230   1.408   1.706 -0.6384 -0.2967  1.2877
 1267SOL     OW 4699   5.358   5.239   1.584 -0.3369  0.0446 -0.2518
 1267SOL    HW1 4700   5.446   5.212   1.625  0.5050  1.0613 -1.3348
 1267SOL    HW2 4701   5.316   5.310   1.640  0.3401  0.7348 -0.6002
 1268SOL     OW 4702   6.264   0.392   1.801  0.6896  1.1545  0.3448
 1268SOL    HW1 4703   6.228   0.407   1.894  1.5120  1.3647  0.6390
 1268SOL    HW2 4704   6.188   0.393   1.736  0.2299  2.3437  0.8578
 1269SOL     OW 4705   0.197   6.010   6.509  0.4614 -0.1813 -0.4680
 1269SOL    HW1 4706   0.154   6.091   6.469  0.6780 -0.6703 -1.7346
 1269SOL    HW2 4707   0.296   6.024   6.515  0.3524  0.2354  0.7754
 1270SOL     OW 4708   0.992   4.424   0.317 -0.0267 -0.1108  0.6446
 1270SOL    HW1 4709   0.933   4.390   0.390  1.4639 -3.1328  0.6050
 1270SOL    HW2 4710   1.082   4.447   0.355  0.4188 -0.6627 -0.0520
 1271SOL     OW 4711   0.417   2.429   2.396  0.1506  0.6085 -0.6811
 1271SOL    HW1 4712   0.461   2.476   2.319  0.2710  2.5517  0.5120
 1271SOL    HW2 4713   0.438   2.476   2.481 -1.3695 -0.4846  0.3658
 1272SOL     OW 4714   3.457   6.855   0.647 -0.4344  0.1569  0.3939
 1272SOL    HW1 4715   3.401   6.782   0.685 -1.1590 -1.1474 -2.8054
 1272SOL    HW2 4716   3.554   6.831   0.655 -0.6698 -1.3331 -0.7678
 1273SOL     OW 4717   3.094   5.836   5.933  0.2309 -0.1841  0.7283
 1273SOL    HW1 4718   3.025   5.767   5.954  2.0725 -1.7567  1.8434
 1273SOL    HW2 4719   3.095   5.905   6.005 -2.2454  1.6748 -0.8334
 1274SOL     OW 4720   1.277   4.898   4.870 -0.2695  0.5742 -0.1676
 1274SOL    HW1 4721   1.369   4.865   4.849 -0.5206  0.9568 -1.9780
 1274SOL    HW2 4722   1.282   4.992   4.904  0.1089  0.0783  1.2265
 1275SOL     OW 4723   4.937   5.708   3.057 -0.4148  0.1195 -0.0111
 1275SOL    HW1 4724   4.884   5.738   3.136 -0.6438  1.9604 -0.8374
 1275SOL    HW2 4725   4.876   5.673   2.986 -0.3694  0.3204 -0.1510
 1276SOL     OW 4726   4.737   2.258   2.140  0.0186  0.4415 -0.3845
 1276SOL    HW1 4727   4.780   2.346   2.119 -0.5038  0.8362  0.1708
 1276SOL    HW2 4728   4.673   2.235   2.067  0.4411  0.3213 -0.7275
 1277SOL     OW 4729   4.771   6.495   5.269 -0.5415 -0.3829 -0.0447
 1277SOL    HW1 4730   4.768   6.523   5.173  0.8928 -0.6523 -0.1867
 1277SOL    HW2 4731   4.793   6.574   5.327 -2.3319 -0.0138  0.1920
 1278SOL     OW 4732   4.366   5.698   4.390  0.1428 -0.1733 -0.0088
 1278SOL    HW1 4733   4.304   5.704   4.469 -0.6574  0.5778 -0.6726
 1278SOL    HW2 4734   4.413   5.610   4.393 -0.1797 -0.3373  1.0799
 1279SOL     OW 4735   4.411   2.940   0.051  0.3770  0.3013 -0.1560
 1279SOL    HW1 4736   4.510   2.925   0.056 -0.0687 -2.7223  2.4912
 1279SOL    HW2 4737   4.373   2.883  -0.022  0.5514  1.8396 -1.5120
 1280SOL     OW 4738   2.645   6.914   2.443 -0.2473  0.0918 -0.1119
 1280SOL    HW1 4739   2.734   6.960   2.444  0.1810 -0.4937  3.5004
 1280SOL    HW2 4740   2.647   6.837   2.380  1.6356  0.4184 -0.4974
 1281SOL     OW 4741   0.589   2.432   0.529 -0.1153  0.1237  0.1903
 1281SOL    HW1 4742   0.504   2.425   0.477 -0.3760 -0.8297  0.7174
 1281SOL    HW2 4743   0.606   2.527   0.554 -1.5840  0.1957  1.0051
 1282SOL     OW 4744   1.546   3.191   5.320  0.4816 -0.4764 -0.3147
 1282SOL    HW1 4745   1.448   3.189   5.338  0.6891 -1.3781  0.8687
 1282SOL    HW2 4746   1.563   3.223   5.227 -0.9539 -0.7842 -0.7002
 1283SOL     OW 4747   2.822   1.575   5.746  0.3339 -0.0546 -0.6817
 1283SOL    HW1 4748   2.769   1.552   5.665 -0.7293 -1.0009  0.2413
 1283SOL    HW2 4749   2.780   1.532   5.826  0.8533  1.5514  0.5032
 1284SOL     OW 4750   5.358   0.738   6.619 -0.5801  1.0326 -0.2120
 1284SOL    HW1 4751   5.449   0.769   6.648  0.6030 -1.6573 -0.7154
 1284SOL    HW2 4752   5.289   0.781   6.676  1.2817  0.0061  3.1012
 1285SOL     OW 4753   4.205   1.253   1.090  0.3701 -0.2187  0.0469
 1285SOL    HW1 4754   4.114   1.231   1.056 -0.5863  1.6628  1.2743
 1285SOL    HW2 4755   4.226   1.195   1.169  0.2592 -0.6499 -0.2336
 1286SOL     OW 4756   6.938   6.258   1.537  0.3095  0.1474  0.7241
 1286SOL    HW1 4757   6.958   6.333   1.474  1.3342 -1.4630 -0.9518
 1286SOL    HW2 4758   6.997   6.266   1.618  0.9423  0.7511  0.2143
 1287SOL     OW 4759   2.097   5.280   6.427 -0.2103 -0.3903  0.3667
 1287SOL    HW1 4760   2.126   5.228   6.508 -1.4187  0.0739  1.1293
 1287SOL    HW2 4761   2.129   5.234   6.344  2.2140 -0.1820  1.1011
 1288SOL     OW 4762   6.757   5.252   1.651  0.0080 -0.9912 -0.4495
 1288SOL    HW1 4763   6.832   5.197   1.687  0.5880 -0.0369 -0.1711
 1288SOL    HW2 4764   6.685   5.259   1.720  0.5800 -0.1899  0.0849
 1289SOL     OW 4765   0.869   3.144   2.676 -0.1914  0.3525 -0.1987
 1289SOL    HW1 4766   0.814   3.215   2.721  1.9977  1.8501  0.2632
 1289SOL    HW2 4767   0.870   3.062   2.734  0.8750  1.5379  1.5704
 1290SOL     OW 4768   5.288   3.566   1.717 -0.2459 -0.3794 -0.2788
 1290SOL    HW1 4769   5.190   3.584   1.706 -0.3930 -1.1788 -0.3477
 1290SOL    HW2 4770   5.302   3.512   1.800 -0.0260 -1.4358 -0.9700
 1291SOL     OW 4771   4.276   2.196   4.948  0.0865 -0.3629 -0.3130
 1291SOL    HW1 4772   4.266   2.291   4.979 -0.1744 -0.1640 -0.9619
 1291SOL    HW2 4773   4.191   2.146   4.967 -1.3049  0.5830 -3.3525
 1292SOL     OW 4774   2.649   4.764   6.598  0.5858  0.1745 -0.2638
 1292SOL    HW1 4775   2.655   4.684   6.538  0.2445 -0.6778  0.8118
 1292SOL    HW2 4776   2.666   4.847   6.544  0.0139 -0.5334 -1.5997
 1293SOL     OW 4777   3.617   4.377   5.517 -0.1156 -0.0722  0.2831
 1293SOL    HW1 4778   3.538   4.317   5.502 -0.5029  0.5379 -0.1627
 1293SOL    HW2 4779   3.677   4.373   5.437 -0.1943  0.2018  0.2080
 1294SOL     OW 4780   6.792   1.461   1.917  0.4677  0.7245  0.1067
 1294SOL    HW1 4781   6.728   1.386   1.934  0.8923 -0.1981 -2.0174
 1294SOL    HW2 4782   6.868   1.456   1.982 -0.2300  0.1878  0.8928
 1295SOL     OW 4783   5.936   0.630   6.854 -0.4821  0.2502 -0.1177
 1295SOL    HW1 4784   5.948   0.582   6.941 -1.7184  0.3098  0.1000
 1295SOL    HW2 4785   5.979   0.720   6.859 -0.0729  0.0410  0.2318
 1296SOL     OW 4786   3.105   1.696   4.028 -0.3911 -0.5543  0.1936
 1296SOL    HW1 4787   3.145   1.628   4.089  0.2842  0.8304  1.3763
 1296SOL    HW2 4788   3.150   1.785   4.043 -3.2245  0.8821  0.9157
 1297SOL     OW 4789   1.235   4.114   0.547 -0.2009 -0.1601  0.1741
 1297SOL    HW1 4790   1.157   4.103   0.486 -0.4391  1.7189  0.0980
 1297SOL    HW2 4791   1.208   4.166   0.628  1.1803  1.4927 -0.3651
 1298SOL     OW 4792   6.848   0.341   1.878 -0.6047 -0.5379 -0.7235
 1298SOL    HW1 4793   6.850   0.263   1.942 -0.0845  0.2999  0.3135
 1298SOL    HW2 4794   6.941   0.364   1.851 -0.7267  0.0125 -0.6684
 1299SOL     OW 4795   4.710   2.271   2.452  0.5713  0.0193  0.4017
 1299SOL    HW1 4796   4.719   2.260   2.353 -0.7447 -0.2737  0.2891
 1299SOL    HW2 4797   4.614   2.288   2.475  1.3790  4.5411  1.2498
 1300SOL     OW 4798   6.970   5.716   2.931  0.4893  0.0639 -0.2214
 1300SOL    HW1 4799   6.931   5.633   2.971  1.5674 -0.2624  0.1915
 1300SOL    HW2 4800   6.994   5.699   2.835 -0.1992  0.2110 -0.4236
 1301SOL     OW 4801   5.474   2.226   0.331  0.5160  0.2036  0.4129
 1301SOL    HW1 4802   5.430   2.149   0.284  0.1131 -0.2077  1.4384
 1301SOL    HW2 4803   5.530   2.277   0.265  1.7253 -1.6340 -0.0545
 1302SOL     OW 4804   3.365   1.608   4.139 -0.6362  0.2544  0.0034
 1302SOL    HW1 4805   3.422   1.665   4.080  1.0029 -0.7409  0.5221
 1302SOL    HW2 4806   3.356   1.651   4.229 -2.1726  1.2236 -0.5853
 1303SOL     OW 4807   6.496   6.578   1.157 -0.0146  0.3083 -0.8336
 1303SOL    HW1 4808   6.407   6.622   1.147 -0.6492 -0.5670  0.6417
 1303SOL    HW2 4809   6.487   6.496   1.213  1.7445  0.2911 -0.5066
 1304SOL     OW 4810   3.390   2.546   5.957  0.3623  0.5211 -0.1957
 1304SOL    HW1 4811   3.442   2.608   5.898  1.2598 -0.4465 -0.4451
 1304SOL    HW2 4812   3.306   2.592   5.986  0.1319  1.2043 -1.8142
 1305SOL     OW 4813   4.153   1.594   5.679 -0.0498  0.2103 -0.0926
 1305SOL    HW1 4814   4.154   1.567   5.775 -1.0754  1.1873  0.2094
 1305SOL    HW2 4815   4.060   1.619   5.652 -0.1746 -1.8491 -1.8846
 1306SOL     OW 4816   2.202   5.576   4.046  0.0366  0.1255 -0.3705
 1306SOL    HW1 4817   2.218   5.662   4.095 -0.2434 -0.4581  0.7589
 1306SOL    HW2 4818   2.175   5.597   3.952  0.5414  1.2621 -0.2839
 1307SOL     OW 4819   3.933   4.355   6.310 -0.5382  0.2536 -0.6283
 1307SOL    HW1 4820   3.994   4.337   6.234  1.6417  1.9836  0.5931
 1307SOL    HW2 4821   3.919   4.454   6.318 -0.2275  0.1661  1.5293
 1308SOL     OW 4822   6.548   4.033   3.395  0.2161  0.2019  0.1660
 1308SOL    HW1 4823   6.557   4.107   3.461  1.3737  1.4815 -1.3638
 1308SOL    HW2 4824   6.457   4.036   3.354  0.1712  0.6312  0.2952
 1309SOL     OW 4825   6.479   6.201   2.757 -0.2936 -0.3853  0.5318
 1309SOL    HW1 4826   6.435   6.118   2.792 -1.2267  0.2940  1.0035
 1309SOL    HW2 4827   6.567   6.212   2.803 -0.9785 -0.1447  1.8568
 1310SOL     OW 4828   7.011   3.195   6.487 -0.1879 -0.8596  0.6254
 1310SOL    HW1 4829   7.024   3.235   6.578 -0.9188  0.8965 -0.0130
 1310SOL    HW2 4830   7.100   3.172   6.447  0.2282 -0.1599  1.1397
 1311SOL     OW 4831   1.045   4.758   4.960 -0.0616 -0.0149 -0.2580
 1311SOL    HW1 4832   0.973   4.805   5.011  1.0381  0.4066  0.9276
 1311SOL    HW2 4833   1.101   4.825   4.911 -1.5493 -0.4349 -2.7425
 1312SOL     OW 4834   2.143   3.851   1.484  0.2126  0.3851  0.2150
 1312SOL    HW1 4835   2.236   3.826   1.456  0.2111  1.7516 -1.1447
 1312SOL    HW2 4836   2.122   3.943   1.450 -1.1964  0.5959  1.5770
 1313SOL     OW 4837   6.821   1.255   0.517  0.4251  0.2139  0.1476
 1313SOL    HW1 4838   6.729   1.226   0.489  0.1666 -0.4071  1.5535
 1313SOL    HW2 4839   6.850   1.332   0.460  0.5414 -1.7945 -2.7493
 1314SOL     OW 4840   3.779   4.779   0.627  0.2389  0.2345 -0.3893
 1314SOL    HW1 4841   3.738   4.724   0.555  0.0060  0.9870 -0.8421
 1314SOL    HW2 4842   3.718   4.781   0.706  0.8476 -1.2443  0.1606
 1315SOL     OW 4843   5.031   1.271   2.283  0.5721  0.4670 -0.4755
 1315SOL    HW1 4844   4.968   1.300   2.356  1.7108  1.5374  0.1252
 1315SOL    HW2 4845   5.040   1.172   2.285 -0.3346  0.3755  0.0503
 1316SOL     OW 4846   5.499   0.744   2.185  0.2507  0.5346 -0.0233
 1316SOL    HW1 4847   5.562   0.778   2.115  0.9927  0.5065  0.6195
 1316SOL    HW2 4848   5.423   0.808   2.196  1.5111  1.9073  1.0065
 1317SOL     OW 4849   1.123   6.549   1.305 -0.1514 -0.3998  0.0556
 1317SOL    HW1 4850   1.074   6.474   1.261  1.3717  0.2725 -3.1024
 1317SOL    HW2 4851   1.187   6.512   1.373 -0.3132 -1.8306 -0.5446
 1318SOL     OW 4852   4.047   4.831   4.214 -0.4121 -0.2125  0.5335
 1318SOL    HW1 4853   3.985   4.854   4.289 -0.2191  1.7880  0.1540
 1318SOL    HW2 4854   4.136   4.804   4.250 -0.4641  0.2854  1.0365
 1319SOL     OW 4855   2.183   5.571   6.074 -0.0543 -0.6439 -0.4798
 1319SOL    HW1 4856   2.088   5.557   6.103  0.0459 -0.3984 -0.0425
 1319SOL    HW2 4857   2.235   5.614   6.147  0.2622 -0.2674 -0.9202
 1320SOL     OW 4858   3.560   0.396   4.739  0.1779  0.0354 -0.0972
 1320SOL    HW1 4859   3.553   0.466   4.810  0.2097 -0.6008  0.5357
 1320SOL    HW2 4860   3.468   0.363   4.715  0.1498  0.4043 -0.5157
 1321SOL     OW 4861   3.335   5.930   4.472  0.2773  0.7885 -0.1076
 1321SOL    HW1 4862   3.294   6.004   4.525 -0.3967  1.2277 -1.2150
 1321SOL    HW2 4863   3.270   5.898   4.403  0.5494 -0.8570  0.3569
 1322SOL     OW 4864   5.449   4.780   5.934  0.2326 -0.6639  0.4876
 1322SOL    HW1 4865   5.483   4.872   5.914 -0.8709 -0.4034 -0.2634
 1322SOL    HW2 4866   5.358   4.768   5.893  0.5525 -2.2456  0.1902
 1323SOL     OW 4867   6.526   1.969   1.805  0.2148  0.0539  0.1991
 1323SOL    HW1 4868   6.589   1.892   1.799  1.5596  1.0296  0.9609
 1323SOL    HW2 4869   6.489   1.974   1.898 -0.2272  0.0642  0.0248
 1324SOL     OW 4870   2.883   5.995   2.228  0.1520 -0.0618  0.5520
 1324SOL    HW1 4871   2.898   5.917   2.289 -2.5110 -0.3022  1.0220
 1324SOL    HW2 4872   2.796   5.982   2.179  0.9488  1.3803 -1.3570
 1325SOL     OW 4873   6.673   3.649   1.263  0.2913 -0.3463 -0.4094
 1325SOL    HW1 4874   6.625   3.609   1.341 -1.1246  0.7205 -0.7041
 1325SOL    HW2 4875   6.759   3.689   1.294  1.2040 -2.5287  0.0841
 1326SOL     OW 4876   5.196   3.746   3.081 -0.0421  0.1108 -0.0044
 1326SOL    HW1 4877   5.107   3.703   3.071 -0.4725  0.3676  2.1296
 1326SOL    HW2 4878   5.203   3.824   3.019 -1.4760  0.3448  0.0928
 1327SOL     OW 4879   6.980   4.891   3.638 -0.5102 -0.3322  0.2331
 1327SOL    HW1 4880   7.060   4.856   3.687 -1.4788 -3.6214 -0.2983
 1327SOL    HW2 4881   6.958   4.983   3.671  3.1551  0.5425  0.7034
 1328SOL     OW 4882   4.892   4.107   6.447 -0.7263  0.1883  0.0762
 1328SOL    HW1 4883   4.823   4.175   6.473 -1.0219 -0.2633  0.4864
 1328SOL    HW2 4884   4.888   4.030   6.509 -1.6934 -1.1015 -1.5076
 1329SOL     OW 4885   6.037   4.515   1.102  0.1575  0.7708 -0.0699
 1329SOL    HW1 4886   6.114   4.487   1.159 -1.0327 -0.9980  0.7541
 1329SOL    HW2 4887   6.060   4.503   1.006  1.4290  1.7631  0.0745
 1330SOL     OW 4888   1.010   2.844   3.379 -0.3786 -0.0323 -0.0944
 1330SOL    HW1 4889   0.927   2.885   3.417 -0.6992 -0.2628 -0.5286
 1330SOL    HW2 4890   1.050   2.780   3.445 -0.1052  0.6669  0.4219
 1331SOL     OW 4891   4.038   5.088   3.480  0.2010  0.1950  0.3943
 1331SOL    HW1 4892   4.038   4.995   3.515  0.7278 -0.2284 -0.6740
 1331SOL    HW2 4893   3.991   5.148   3.544 -0.5201 -0.8795  0.8984
 1332SOL     OW 4894   3.523   1.841   1.178 -0.0187  0.0423 -0.4243
 1332SOL    HW1 4895   3.530   1.766   1.244 -0.8374 -0.7857 -1.2465
 1332SOL    HW2 4896   3.600   1.838   1.115  0.2726  0.2691 -0.0799
 1333SOL     OW 4897   2.124   1.514   4.004 -0.3836 -0.6337 -0.0545
 1333SOL    HW1 4898   2.159   1.602   4.035  0.4916 -0.6108 -1.0628
 1333SOL    HW2 4899   2.200   1.454   3.980 -0.9946 -1.1372 -0.7970
 1334SOL     OW 4900   0.840   4.602   5.320 -0.1026 -1.0443  0.2479
 1334SOL    HW1 4901   0.865   4.638   5.410 -1.1761  2.4562 -0.6772
 1334SOL    HW2 4902   0.923   4.577   5.270  0.8947  1.0316  0.7318
 1335SOL     OW 4903   2.612   5.641   1.199  0.5730  0.1329  0.0322
 1335SOL    HW1 4904   2.613   5.705   1.122  0.9460 -1.1617 -1.0715
 1335SOL    HW2 4905   2.560   5.681   1.274  0.5454  1.6013 -0.7316
 1336SOL     OW 4906   4.160   4.953   6.095  0.2953 -0.0076 -0.3524
 1336SOL    HW1 4907   4.089   5.005   6.048 -0.2510 -1.0439 -0.7010
 1336SOL    HW2 4908   4.177   4.994   6.185 -1.4485 -0.3060  0.1524
 1337SOL     OW 4909   5.502   3.386   6.227 -0.2158 -0.1915 -0.2120
 1337SOL    HW1 4910   5.496   3.287   6.214  0.5640 -0.3743  0.6624
 1337SOL    HW2 4911   5.462   3.432   6.149 -1.5543 -1.1954 -0.1574
 1338SOL     OW 4912   1.830   6.008   5.774 -0.0779  0.1504  0.2158
 1338SOL    HW1 4913   1.885   6.038   5.696  1.6597 -0.7762  1.0023
 1338SOL    HW2 4914   1.734   6.002   5.748  0.4491 -0.1024 -1.8409
 1339SOL     OW 4915   6.338   2.716   4.007  0.6331  0.0427  0.1598
 1339SOL    HW1 4916   6.266   2.779   3.978  1.0891  0.0974 -0.8912
 1339SOL    HW2 4917   6.341   2.637   3.945  1.7406  0.2438 -0.0635
 1340SOL     OW 4918   3.609   5.554   4.712  0.0213 -0.1578  0.2022
 1340SOL    HW1 4919   3.675   5.575   4.784  1.0462 -1.7134 -0.2443
 1340SOL    HW2 4920   3.534   5.620   4.716  1.7104  1.8288  0.5489
 1341SOL     OW 4921   5.783   4.297   0.514  0.1141 -0.0701 -0.3438
 1341SOL    HW1 4922   5.751   4.391   0.527 -1.2894 -0.3839 -1.2805
 1341SOL    HW2 4923   5.804   4.256   0.603  1.1831  1.2492  0.0452
 1342SOL     OW 4924   0.460   0.752   4.641 -0.3673  0.1505  0.2110
 1342SOL    HW1 4925   0.469   0.675   4.577  0.9918 -0.0273  0.5838
 1342SOL    HW2 4926   0.365   0.759   4.671 -0.8100 -0.4352 -0.9858
 1343SOL     OW 4927   1.183   0.770   4.908 -0.0988  0.0672  0.1973
 1343SOL    HW1 4928   1.220   0.677   4.912  2.0016  0.7190 -1.7686
 1343SOL    HW2 4929   1.187   0.804   4.814 -0.2737  2.3524  0.9385
 1344SOL     OW 4930   1.768   1.394   5.467 -0.2581  0.2930  0.6557
 1344SOL    HW1 4931   1.863   1.417   5.490 -0.7079  2.1430  0.7991
 1344SOL    HW2 4932   1.707   1.467   5.498 -1.2378  1.6315 -3.7124
 1345SOL     OW 4933   1.427   0.883   1.211 -0.1011 -0.1205  0.4729
 1345SOL    HW1 4934   1.383   0.831   1.138  0.8795 -1.2105  0.6260
 1345SOL    HW2 4935   1.428   0.828   1.295  3.5272 -1.1835 -0.0899
 1346SOL     OW 4936   0.835   3.065   5.997  0.7539  0.0575  0.1182
 1346SOL    HW1 4937   0.746   3.055   5.954  1.4141  0.4058 -1.3690
 1346SOL    HW2 4938   0.850   3.160   6.023  0.2208 -0.2083  1.4653
 1347SOL     OW 4939   6.451   0.085   6.845  0.4077 -0.0627 -0.5799
 1347SOL    HW1 4940   6.478  -0.007   6.871 -0.5319 -0.6853 -1.7440
 1347SOL    HW2 4941   6.365   0.082   6.794  0.6596  1.4047 -1.1313
 1348SOL     OW 4942   4.726   4.675   3.018 -0.8778 -0.5140  0.7516
 1348SOL    HW1 4943   4.794   4.623   3.070 -1.3167 -1.8694  0.0155
 1348SOL    HW2 4944   4.747   4.773   3.024  1.6241 -0.9269 -0.1276
 1349SOL     OW 4945   5.200   4.884   1.879  0.0577 -0.1396  0.5265
 1349SOL    HW1 4946   5.163   4.797   1.846  0.6037 -0.1307 -0.1508
 1349SOL    HW2 4947   5.261   4.922   1.809 -0.4147  0.9407  0.6944
 1350SOL     OW 4948   2.210   6.289   1.844 -0.3629  0.5035  0.2359
 1350SOL    HW1 4949   2.166   6.261   1.758  1.6227 -0.5682 -0.5015
 1350SOL    HW2 4950   2.268   6.216   1.877  0.6440  1.7410  1.3175
 1351SOL     OW 4951   2.960   0.895   6.525  0.3314 -0.3309 -0.0501
 1351SOL    HW1 4952   2.946   0.994   6.523  2.3884  0.0030  0.1135
 1351SOL    HW2 4953   2.886   0.850   6.475 -0.2281  1.3444 -0.7958
 1352SOL     OW 4954   4.879   2.673   1.756  0.0382 -0.1018  0.1898
 1352SOL    HW1 4955   4.900   2.662   1.659 -0.3112 -0.9896  0.2015
 1352SOL    HW2 4956   4.938   2.614   1.811  0.8414  1.0451  0.6048
 1353SOL     OW 4957   6.610   1.824   4.719  0.3574 -0.3490 -0.4032
 1353SOL    HW1 4958   6.540   1.882   4.762  1.3783 -0.3589  1.3741
 1353SOL    HW2 4959   6.571   1.735   4.698  0.0216 -0.6872  1.4345
 1354SOL     OW 4960   0.755   2.559   5.976  0.5851 -0.6330 -0.3397
 1354SOL    HW1 4961   0.751   2.548   6.076 -2.2146 -1.1643 -0.4347
 1354SOL    HW2 4962   0.789   2.651   5.955  1.1840 -0.4886  1.0931
 1355SOL     OW 4963   2.966   3.220   2.979  0.1645  0.1683  0.2573
 1355SOL    HW1 4964   2.979   3.148   3.048 -0.6974 -0.4037 -0.1705
 1355SOL    HW2 4965   2.937   3.304   3.024  3.1430  0.9132  1.0255
 1356SOL     OW 4966   6.836   1.579   3.878 -0.8609 -0.1998 -0.2516
 1356SOL    HW1 4967   6.908   1.626   3.928 -1.0194  0.4985 -0.6621
 1356SOL    HW2 4968   6.797   1.641   3.809 -2.4455 -0.2563  0.5513
 1357SOL     OW 4969   6.131   2.623   0.712 -0.1933  0.4668 -0.2478
 1357SOL    HW1 4970   6.145   2.721   0.696  0.4965  0.1994 -1.3903
 1357SOL    HW2 4971   6.088   2.582   0.632 -0.0204 -0.2564  0.0229
 1358SOL     OW 4972   0.800   3.112   5.062 -0.3818  0.2515 -0.3294
 1358SOL    HW1 4973   0.863   3.150   5.130  0.3668 -1.0593 -0.2376
 1358SOL    HW2 4974   0.821   3.015   5.049 -3.6169 -0.7827  1.1392
 1359SOL     OW 4975   0.904   0.190   1.055  0.4244  0.1254  0.0751
 1359SOL    HW1 4976   0.970   0.222   1.123  1.1673 -0.6249 -0.2843
 1359SOL    HW2 4977   0.946   0.120   0.997 -0.7377 -0.4935 -0.0515
 1360SOL     OW 4978   1.910   3.898   1.198  0.2980  0.5448  0.3812
 1360SOL    HW1 4979   2.005   3.882   1.171  0.4852  1.2550  0.5848
 1360SOL    HW2 4980   1.861   3.811   1.204  0.7890  0.2156 -0.2627
 1361SOL     OW 4981   5.437   3.075   2.763  0.1531  0.4069 -0.1330
 1361SOL    HW1 4982   5.444   3.066   2.664 -0.3522 -0.0998 -0.1261
 1361SOL    HW2 4983   5.372   3.008   2.798  0.3787  0.5381  0.5505
 1362SOL     OW 4984   5.110   6.546   4.477  0.2918  0.9672 -0.4921
 1362SOL    HW1 4985   5.030   6.502   4.519  1.0001 -0.7355 -0.8320
 1362SOL    HW2 4986   5.154   6.606   4.544 -0.4999  0.8656  0.1301
 1363SOL     OW 4987   2.902   2.311   6.868 -0.4886 -0.7244  0.4913
 1363SOL    HW1 4988   2.856   2.354   6.945  1.3038 -0.1815  1.3002
 1363SOL    HW2 4989   2.999   2.300   6.888  0.0061 -0.7223 -1.6231
 1364SOL     OW 4990   4.388   0.432   0.904 -0.6114  0.3911 -0.0845
 1364SOL    HW1 4991   4.364   0.499   0.975 -1.2358  0.1256 -0.0417
 1364SOL    HW2 4992   4.360   0.341   0.934  0.1538  0.1163 -0.1811
 1365SOL     OW 4993   5.555   1.098   0.587  0.0185 -0.0662 -0.4343
 1365SOL    HW1 4994   5.572   1.006   0.551 -1.4424 -1.3622  1.9776
 1365SOL    HW2 4995   5.554   1.096   0.687 -0.5153  2.5164 -0.3053
 1366SOL     OW 4996   1.784   6.928   5.570 -0.2119 -0.2362 -0.4265
 1366SOL    HW1 4997   1.855   6.992   5.600 -0.1044 -0.0197 -1.1189
 1366SOL    HW2 4998   1.696   6.953   5.610 -0.0969  0.1252 -0.4031
 1367SOL     OW 4999   3.040   5.057   6.986 -0.8604 -0.2108  0.2442
 1367SOL    HW1 5000   3.085   5.039   7.074 -0.6069 -1.9162 -0.1932
 1367SOL    HW2 5001   2.948   5.092   7.002 -1.3746 -1.9055  1.2325
 1368SOL     OW 5002   6.565   3.621   1.895 -0.3787  0.0747 -0.4880
 1368SOL    HW1 5003   6.595   3.708   1.934  0.7640 -0.0937 -0.9471
 1368SOL    HW2 5004   6.467   3.624   1.879 -0.5259  0.8890  0.4802
 1369SOL     OW 5005   4.969   0.997   0.306 -0.0461 -0.1478  0.3978
 1369SOL    HW1 5006   5.043   1.008   0.373  1.2029 -1.3770 -0.7126
 1369SOL    HW2 5007   4.940   0.901   0.306  0.3414 -0.2946 -1.1419
 1370SOL     OW 5008   5.757   3.555   1.144 -0.2923 -0.1188  0.1867
 1370SOL    HW1 5009   5.723   3.509   1.062 -2.5723 -0.7557  1.4230
 1370SOL    HW2 5010   5.776   3.487   1.215  2.2079  0.3677  0.0962
 1371SOL     OW 5011   6.996   2.377   4.008  0.2094  0.9745 -0.7403
 1371SOL    HW1 5012   6.924   2.395   3.940  0.1405 -1.1861 -1.2992
 1371SOL    HW2 5013   6.954   2.363   4.097  0.0071  0.5562 -0.8993
 1372SOL     OW 5014   4.462   0.418   0.633 -0.0136  1.0824  0.0333
 1372SOL    HW1 5015   4.451   0.401   0.731 -2.0842  1.0756 -0.1562
 1372SOL    HW2 5016   4.397   0.362   0.582  0.0582  2.1270 -1.2544
 1373SOL     OW 5017   3.334   6.235   0.652 -0.0433  0.3507  0.1462
 1373SOL    HW1 5018   3.331   6.146   0.608 -1.1189 -1.1019  2.9356
 1373SOL    HW2 5019   3.392   6.230   0.733  0.6812  2.4928 -0.1770
 1374SOL     OW 5020   4.682   5.897   0.006 -0.3521  0.5924  0.1038
 1374SOL    HW1 5021   4.676   5.854  -0.084 -0.5184  0.0744  0.3599
 1374SOL    HW2 5022   4.776   5.929   0.022  0.5618 -2.2786  1.0800
 1375SOL     OW 5023   2.330   6.601   3.362  0.0970 -0.1797  0.3551
 1375SOL    HW1 5024   2.363   6.688   3.324 -0.5254 -0.4798 -0.9092
 1375SOL    HW2 5025   2.247   6.573   3.315  0.5475 -1.7076  0.4225
 1376SOL     OW 5026   0.505   2.103   2.819 -0.2776  0.0055  0.3986
 1376SOL    HW1 5027   0.438   2.060   2.880 -0.4410  0.2892  0.4218
 1376SOL    HW2 5028   0.457   2.140   2.739 -0.3394  1.3448  1.0190
 1377SOL     OW 5029   6.221   2.371   2.429  0.7905 -0.0257 -0.2951
 1377SOL    HW1 5030   6.145   2.385   2.364 -0.6030 -0.4353  1.1815
 1377SOL    HW2 5031   6.224   2.275   2.456  1.0208  0.2383  0.6418
 1378SOL     OW 5032   0.416   2.706   1.291  0.2760 -0.6645 -0.0170
 1378SOL    HW1 5033   0.424   2.724   1.389  1.2355  2.4402 -0.5569
 1378SOL    HW2 5034   0.500   2.663   1.259  1.1613  0.8534  0.1266
 1379SOL     OW 5035   6.856   1.106   1.611  0.1928  0.1695  0.2777
 1379SOL    HW1 5036   6.792   1.130   1.684  1.1182 -0.1005  1.1946
 1379SOL    HW2 5037   6.866   1.183   1.549 -1.8244 -0.1331 -0.5099
 1380SOL     OW 5038   4.193   2.995   1.351  0.9631  0.5370  0.0612
 1380SOL    HW1 5039   4.146   3.038   1.275 -0.6766  1.0589  1.3318
 1380SOL    HW2 5040   4.203   3.060   1.426  2.7547  0.1028  0.2575
 1381SOL     OW 5041   2.702   6.722   5.154 -0.2987  0.2723 -0.3405
 1381SOL    HW1 5042   2.698   6.814   5.194  2.9990  0.5387 -0.3769
 1381SOL    HW2 5043   2.687   6.654   5.226 -0.6724  0.8086  0.0964
 1382SOL     OW 5044   6.020   5.342   5.908  0.1951  0.1450  0.7716
 1382SOL    HW1 5045   5.927   5.376   5.923 -0.0108 -0.3004  0.4825
 1382SOL    HW2 5046   6.018   5.245   5.885  0.4245  0.9139 -2.9771
 1383SOL     OW 5047   5.692   0.379   2.467  0.6508 -0.2457  0.5222
 1383SOL    HW1 5048   5.734   0.300   2.510  0.6924 -1.3758 -1.4970
 1383SOL    HW2 5049   5.761   0.432   2.417  0.0253 -1.3134 -1.6047
 1384SOL     OW 5050   1.198   2.126   3.750  0.3587 -0.4432  0.0432
 1384SOL    HW1 5051   1.169   2.133   3.655  1.1674 -0.5980 -0.2193
 1384SOL    HW2 5052   1.226   2.032   3.770  2.1608  0.0074 -0.1614
 1385SOL     OW 5053   1.330   1.383   1.593 -0.2051 -0.3801  0.3583
 1385SOL    HW1 5054   1.294   1.394   1.500  0.0389  1.6721  0.4501
 1385SOL    HW2 5055   1.255   1.386   1.659 -0.1451  1.6867  0.4056
 1386SOL     OW 5056   2.665   0.315   4.064 -0.4877 -0.0302 -0.4759
 1386SOL    HW1 5057   2.727   0.328   4.141  0.5626  1.8154 -1.5644
 1386SOL    HW2 5058   2.670   0.221   4.031  0.2424 -0.4086  0.6901
 1387SOL     OW 5059   5.089   4.269   1.177 -0.6506  0.0995 -0.2063
 1387SOL    HW1 5060   5.004   4.316   1.154  0.2617  1.3688 -1.0702
 1387SOL    HW2 5061   5.138   4.245   1.093  0.3976  0.4152  0.3009
 1388SOL     OW 5062   4.122   6.338   4.847 -0.4956 -0.5719 -0.0487
 1388SOL    HW1 5063   4.218   6.349   4.822 -0.1575  0.0813  1.3782
 1388SOL    HW2 5064   4.071   6.421   4.823 -0.2546 -0.1052  0.9849
 1389SOL     OW 5065   1.512   4.783   1.470  0.4670  0.3793 -0.4269
 1389SOL    HW1 5066   1.590   4.768   1.408  0.9996  0.6564  0.1586
 1389SOL    HW2 5067   1.447   4.708   1.461 -1.4729  2.2224 -4.1760
 1390SOL     OW 5068   4.525   4.398   1.180 -0.0518 -0.4094 -0.2322
 1390SOL    HW1 5069   4.445   4.397   1.240 -0.8926 -1.0474 -1.3269
 1390SOL    HW2 5070   4.565   4.490   1.180 -0.0189 -0.4097  1.3018
 1391SOL     OW 5071   4.082   6.174   5.731  0.0735 -0.5412  0.0517
 1391SOL    HW1 5072   4.139   6.207   5.656  0.5118  0.1807  0.6916
 1391SOL    HW2 5073   4.097   6.075   5.743  1.6052 -0.2746  0.5515
 1392SOL     OW 5074   6.361   2.766   2.619  0.0742 -0.1699  0.5327
 1392SOL    HW1 5075   6.365   2.832   2.694  0.6214  0.8332 -0.3626
 1392SOL    HW2 5076   6.425   2.792   2.547 -2.0433  0.1766 -1.3300
 1393SOL     OW 5077   4.166   4.171   6.767  0.0140  0.1610  0.3347
 1393SOL    HW1 5078   4.225   4.252   6.772  0.1150  0.5471 -3.9190
 1393SOL    HW2 5079   4.204   4.106   6.702 -2.4063 -1.2759  0.2610
 1394SOL     OW 5080   1.506   5.521   6.536  0.4757 -0.4853 -0.3116
 1394SOL    HW1 5081   1.594   5.482   6.509  1.0121 -0.3627  1.1704
 1394SOL    HW2 5082   1.494   5.510   6.635 -0.7682  0.3228 -0.3582
 1395SOL     OW 5083   0.372   0.201   5.054 -0.4626  0.1070  0.0802
 1395SOL    HW1 5084   0.329   0.111   5.050 -0.9997  0.3868 -0.6832
 1395SOL    HW2 5085   0.468   0.192   5.027 -0.6124 -0.1823 -0.3778
 1396SOL     OW 5086   1.802   3.629   2.547  0.2204 -0.0680  0.4208
 1396SOL    HW1 5087   1.750   3.665   2.624 -0.1509  1.0555 -0.3197
 1396SOL    HW2 5088   1.892   3.675   2.543  0.1738 -0.0004  0.1028
 1397SOL     OW 5089   0.036   1.035   1.238  0.4497 -0.3196 -0.2464
 1397SOL    HW1 5090   0.027   0.986   1.324  1.7778  0.7453  0.5411
 1397SOL    HW2 5091   0.077   0.975   1.169 -0.6931 -1.1978 -0.1847
 1398SOL     OW 5092   6.034   2.902   2.670  0.0161  0.1683 -0.5247
 1398SOL    HW1 5093   5.945   2.922   2.629 -0.0689  0.7917 -0.0606
 1398SOL    HW2 5094   6.043   2.954   2.755  0.2325 -1.0046  0.1877
 1399SOL     OW 5095   4.611   3.439   6.878 -0.8806 -0.4976 -0.4391
 1399SOL    HW1 5096   4.691   3.402   6.830 -1.0834  0.1960 -1.3400
 1399SOL    HW2 5097   4.637   3.521   6.928 -1.3366  0.6959 -2.0790
 1400SOL     OW 5098   5.180   3.662   0.329 -0.5947  0.3598 -0.2994
 1400SOL    HW1 5099   5.213   3.657   0.234 -0.4979 -0.6924 -0.2244
 1400SOL    HW2 5100   5.258   3.659   0.391 -0.7169 -0.1885 -0.1649
 1401SOL     OW 5101   4.689   0.881   6.853  0.0958 -0.2960  0.1370
 1401SOL    HW1 5102   4.694   0.955   6.921  1.5678 -0.4184  0.2127
 1401SOL    HW2 5103   4.706   0.793   6.897 -0.2794 -0.5277 -0.1749
 1402SOL     OW 5104   1.076   6.591   5.800  0.1376  0.0070 -0.3532
 1402SOL    HW1 5105   1.109   6.502   5.832  0.3311 -0.1520 -0.9735
 1402SOL    HW2 5106   1.045   6.646   5.878  0.7113 -0.3162  0.1070
 1403SOL     OW 5107   3.740   5.875   4.615 -0.0646  0.3564  0.1178
 1403SOL    HW1 5108   3.693   5.874   4.527 -1.8729  3.5035  0.9243
 1403SOL    HW2 5109   3.679   5.839   4.686  0.0433  1.1373  0.6198
 1404SOL     OW 5110   3.980   4.181   0.242 -0.3854  0.3529  0.2175
 1404SOL    HW1 5111   4.010   4.177   0.147  0.3002  0.6995  0.4119
 1404SOL    HW2 5112   3.910   4.252   0.252 -2.6879 -1.6789 -0.5954
 1405SOL     OW 5113   3.671   5.909   2.011  0.2481 -0.4714 -0.2861
 1405SOL    HW1 5114   3.600   5.876   1.949  0.1874 -1.4533  0.2802
 1405SOL    HW2 5115   3.630   5.966   2.082  0.4359  1.4527 -1.6437
 1406SOL     OW 5116   2.322   6.964   4.539  0.4149  0.1819  0.2805
 1406SOL    HW1 5117   2.223   6.950   4.551  0.3436  0.8729  0.5372
 1406SOL    HW2 5118   2.371   6.890   4.585  0.0208 -0.0954  0.2652
 1407SOL     OW 5119   0.183   1.464   0.767 -0.3916 -0.1898  0.5180
 1407SOL    HW1 5120   0.119   1.394   0.735  1.3218 -1.7346  0.3460
 1407SOL    HW2 5121   0.175   1.473   0.866 -0.3942 -0.8874  0.5873
 1408SOL     OW 5122   5.436   2.145   0.890  0.3237  0.1992  0.2671
 1408SOL    HW1 5123   5.517   2.098   0.856 -0.0958  0.0386 -0.5404
 1408SOL    HW2 5124   5.463   2.226   0.941  0.9582  1.0119 -1.3032
 1409SOL     OW 5125   5.502   2.480   6.231 -0.0308  0.0043 -0.3354
 1409SOL    HW1 5126   5.425   2.502   6.292 -0.2063  1.3178 -0.9932
 1409SOL    HW2 5127   5.468   2.470   6.138  0.4769 -0.3364 -0.4854
 1410SOL     OW 5128   3.320   1.574   4.727  0.1366 -0.2188 -0.4127
 1410SOL    HW1 5129   3.315   1.490   4.782  0.1162  1.3818  2.1983
 1410SOL    HW2 5130   3.259   1.566   4.649  0.7601 -2.9276 -0.7422
 1411SOL     OW 5131   5.850   2.194   5.748  0.9506  0.1990 -0.6225
 1411SOL    HW1 5132   5.872   2.276   5.696  0.8282  0.0186 -0.9658
 1411SOL    HW2 5133   5.877   2.113   5.695  0.4069  0.0016 -0.6031
 1412SOL     OW 5134   0.808   1.356   4.555 -0.6808  0.1043  0.0014
 1412SOL    HW1 5135   0.880   1.358   4.486  0.0566 -1.3099  0.6850
 1412SOL    HW2 5136   0.785   1.450   4.581  0.3836  0.6050 -0.7717
 1413SOL     OW 5137   5.494   5.694   2.016 -0.1083  0.0820 -0.0141
 1413SOL    HW1 5138   5.570   5.745   2.057  1.0104 -0.3018 -1.5362
 1413SOL    HW2 5139   5.523   5.600   1.999 -1.3123 -0.3802  0.4197
 1414SOL     OW 5140   6.827   1.996   3.909  0.8543  0.2722 -0.0114
 1414SOL    HW1 5141   6.922   1.973   3.890  1.3201  1.0872  1.2072
 1414SOL    HW2 5142   6.817   2.096   3.914  0.8961  0.2592  4.0154
 1415SOL     OW 5143   4.838   2.765   3.130 -0.4027 -0.0785 -0.2198
 1415SOL    HW1 5144   4.817   2.695   3.198 -1.0129  1.1481  0.8773
 1415SOL    HW2 5145   4.815   2.855   3.165 -0.6151  0.6141 -2.0140
 1416SOL     OW 5146   0.829   2.503   4.461  0.2205  0.4408 -0.1373
 1416SOL    HW1 5147   0.791   2.523   4.551  1.1798  4.3351 -0.4175
 1416SOL    HW2 5148   0.922   2.469   4.471  0.9288  2.3929  0.4303
 1417SOL     OW 5149   4.500   0.142   1.717  0.1291 -0.9779 -0.1983
 1417SOL    HW1 5150   4.577   0.151   1.653  0.4138  0.5206  0.3234
 1417SOL    HW2 5151   4.414   0.158   1.669  0.3654  0.5145 -0.1762
 1418SOL     OW 5152   0.865   5.876   3.687 -0.2521 -0.6991  0.4308
 1418SOL    HW1 5153   0.894   5.962   3.729 -0.6203 -1.1166  1.5887
 1418SOL    HW2 5154   0.769   5.859   3.709 -0.3186 -1.1701 -0.1951
 1419SOL     OW 5155   0.009   6.090   1.322 -0.0572  0.1280 -0.3108
 1419SOL    HW1 5156  -0.050   6.145   1.263 -0.8945  0.0757  0.4539
 1419SOL    HW2 5157   0.032   6.143   1.404  1.0797  0.1948 -0.6487
 1420SOL     OW 5158   4.862   1.416   5.396 -0.1168 -0.1138 -0.3157
 1420SOL    HW1 5159   4.797   1.454   5.462  0.5037 -0.4848  0.5342
 1420SOL    HW2 5160   4.939   1.480   5.384  0.5394 -0.7237  0.5197
 1421SOL     OW 5161   5.907   5.237   1.020  0.3824  0.2578 -0.4763
 1421SOL    HW1 5162   5.936   5.318   0.968 -0.1098  0.2463 -0.7636
 1421SOL    HW2 5163   5.831   5.262   1.080  0.2872  0.0257 -0.5015
 1422SOL     OW 5164   2.158   5.059   4.819 -0.1533  0.0847  0.1310
 1422SOL    HW1 5165   2.149   5.147   4.772  1.2099  0.5706  0.7092
 1422SOL    HW2 5166   2.254   5.029   4.816 -0.9797 -2.7861 -2.4537
 1423SOL     OW 5167   1.136   1.727   5.300 -0.1517  0.1942 -0.3937
 1423SOL    HW1 5168   1.236   1.725   5.308 -0.1203  1.4448 -0.1584
 1423SOL    HW2 5169   1.108   1.678   5.218  0.5089 -1.7273  0.4800
 1424SOL     OW 5170   4.604   4.296   5.504  0.0299 -0.3402 -0.0890
 1424SOL    HW1 5171   4.544   4.323   5.429  0.3040 -1.0817 -0.5842
 1424SOL    HW2 5172   4.579   4.206   5.537  0.3426 -0.3022  0.2623
 1425SOL     OW 5173   1.098   5.096   5.370 -0.1534  0.1644  0.5457
 1425SOL    HW1 5174   1.005   5.076   5.402 -0.1744  0.3927  0.6264
 1425SOL    HW2 5175   1.109   5.194   5.359 -0.7520 -0.0031 -1.9705
 1426SOL     OW 5176   1.728   6.170   5.992 -0.4071 -0.3282 -0.0196
 1426SOL    HW1 5177   1.778   6.135   6.071 -0.5158  0.6211  0.4773
 1426SOL    HW2 5178   1.764   6.128   5.909 -0.1700 -1.2007  0.5095
 1427SOL     OW 5179   5.187   2.411   5.826 -0.1627  0.2811  0.2792
 1427SOL    HW1 5180   5.124   2.488   5.828 -0.8146 -0.2460  0.4770
 1427SOL    HW2 5181   5.139   2.329   5.796  0.5068 -0.0668  0.1314
 1428SOL     OW 5182   0.516   1.900   4.368 -0.1004  0.3970  0.1064
 1428SOL    HW1 5183   0.582   1.836   4.329 -0.1225 -0.1272  0.9294
 1428SOL    HW2 5184   0.541   1.993   4.340  1.0700  0.2258  0.5266
 1429SOL     OW 5185   5.801   6.212   1.697  0.1447 -0.4882  0.3728
 1429SOL    HW1 5186   5.842   6.270   1.627  0.0518  0.0908  0.7897
 1429SOL    HW2 5187   5.805   6.258   1.786  0.6950 -1.4152  0.8436
 1430SOL     OW 5188   1.008   2.574   5.676  0.2076  0.8714  0.0227
 1430SOL    HW1 5189   1.015   2.583   5.577 -1.0171 -0.0763 -0.1758
 1430SOL    HW2 5190   1.047   2.655   5.720 -0.0381  1.7164 -1.2619
 1431SOL     OW 5191   2.121   6.885   1.263 -0.1505  0.0882  0.0363
 1431SOL    HW1 5192   2.135   6.961   1.326 -2.7815  1.1121 -0.5111
 1431SOL    HW2 5193   2.191   6.815   1.280  2.7484  2.7926  0.1510
 1432SOL     OW 5194   2.553   1.387   6.992 -0.5865 -0.1835  0.4955
 1432SOL    HW1 5195   2.594   1.384   6.901 -0.2262  0.9660  0.6048
 1432SOL    HW2 5196   2.599   1.320   7.051 -0.9480 -1.0720 -0.1933
 1433SOL     OW 5197   2.763   1.266   2.455 -0.1035 -0.8824 -0.6265
 1433SOL    HW1 5198   2.768   1.343   2.392 -2.2178 -0.7783 -0.7294
 1433SOL    HW2 5199   2.759   1.181   2.403  2.5603 -1.1687 -0.5110
 1434SOL     OW 5200   1.719   2.998   0.791 -0.3968 -0.4645 -0.5623
 1434SOL    HW1 5201   1.808   2.957   0.771  1.4126  2.6425  0.5524
 1434SOL    HW2 5202   1.680   2.954   0.872  2.5327  1.2550  2.0011
 1435SOL     OW 5203   2.075   4.270   1.828 -0.6821 -0.3079  0.5769
 1435SOL    HW1 5204   2.157   4.268   1.886 -2.2440 -0.2033  2.9636
 1435SOL    HW2 5205   2.082   4.201   1.757  1.1376 -0.8458  1.2237
 1436SOL     OW 5206   6.968   0.610   1.161 -0.2432  0.7945 -0.9670
 1436SOL    HW1 5207   6.947   0.646   1.252 -2.5466 -1.9128 -0.2794
 1436SOL    HW2 5208   7.056   0.561   1.164 -0.8600 -0.3053  0.1905
 1437SOL     OW 5209   6.806   6.559   5.743 -0.4556  0.0109  0.4625
 1437SOL    HW1 5210   6.856   6.638   5.779  0.4593 -0.0464 -0.6266
 1437SOL    HW2 5211   6.800   6.489   5.814 -0.1199  0.5366  1.0201
 1438SOL     OW 5212   5.042   6.961   3.000  0.5084 -0.2150 -0.0310
 1438SOL    HW1 5213   5.047   6.938   2.903  0.7876 -1.3326  0.2340
 1438SOL    HW2 5214   5.097   7.043   3.017 -1.0597  1.1279 -1.1163
 1439SOL     OW 5215   6.387   6.609   1.456  0.2745 -0.4137 -0.6298
 1439SOL    HW1 5216   6.465   6.578   1.511  1.0475  1.3408 -0.6749
 1439SOL    HW2 5217   6.406   6.699   1.418 -2.3704  0.8493  0.6777
 1440SOL     OW 5218   3.596   6.069   2.216  0.1260 -0.1263 -0.1342
 1440SOL    HW1 5219   3.612   6.160   2.256 -0.9034 -0.2194  0.5480
 1440SOL    HW2 5220   3.600   6.000   2.288  0.7608 -0.6133 -0.6269
 1441SOL     OW 5221   3.366   1.770   2.594 -0.6236  0.4015  0.0436
 1441SOL    HW1 5222   3.335   1.781   2.688  0.9380  0.6626  0.5554
 1441SOL    HW2 5223   3.362   1.674   2.568 -0.3574  0.2251  0.6401
 1442SOL     OW 5224   1.588   5.037   5.431  0.2028 -0.0058 -0.0792
 1442SOL    HW1 5225   1.526   5.000   5.500  0.6450  2.1546  1.5879
 1442SOL    HW2 5226   1.683   5.025   5.462  0.5204 -0.7128 -1.2587
 1443SOL     OW 5227   3.573   1.330   2.498  0.0806 -0.3342 -0.5185
 1443SOL    HW1 5228   3.593   1.337   2.596 -1.4703 -0.3640 -0.1730
 1443SOL    HW2 5229   3.572   1.234   2.471  1.1678 -0.2941 -0.7183
 1444SOL     OW 5230   0.466   4.735   6.626  0.1776 -0.3646  0.2038
 1444SOL    HW1 5231   0.465   4.773   6.534  1.0002  0.2607  0.4346
 1444SOL    HW2 5232   0.410   4.791   6.687 -0.9826 -1.2025 -0.0522
 1445SOL     OW 5233   3.710   5.105   4.609  0.0025  0.5425 -1.0079
 1445SOL    HW1 5234   3.705   5.053   4.523  0.8562 -3.1120  0.9257
 1445SOL    HW2 5235   3.617   5.124   4.641 -0.3291  1.3584 -2.3611
 1446SOL     OW 5236   1.117   3.605   4.464  0.2778  0.4332  0.2908
 1446SOL    HW1 5237   1.060   3.624   4.385 -0.0386 -1.2657  0.0724
 1446SOL    HW2 5238   1.209   3.642   4.449  0.2730 -0.0152 -0.9508
 1447SOL     OW 5239   0.383   0.597   3.381 -0.2417  0.0745  0.4617
 1447SOL    HW1 5240   0.287   0.620   3.394  0.1046  0.7807  1.9757
 1447SOL    HW2 5241   0.431   0.603   3.468  1.1895 -0.2515 -0.2705
 1448SOL     OW 5242   3.362   0.936   1.965 -0.1064 -0.3700  0.7016
 1448SOL    HW1 5243   3.389   0.841   1.983  3.8610  0.3660 -0.3513
 1448SOL    HW2 5244   3.351   0.948   1.866 -2.3174 -0.0654  0.9539
 1449SOL     OW 5245   2.056   0.946   1.040  0.0177 -0.2816  0.3497
 1449SOL    HW1 5246   2.132   0.993   1.084 -0.1261  1.6875 -1.3314
 1449SOL    HW2 5247   1.972   0.999   1.052 -1.1096 -2.3002  1.9675
 1450SOL     OW 5248   5.605   1.220   1.203 -0.1653 -0.0610 -0.5091
 1450SOL    HW1 5249   5.507   1.207   1.183 -0.3340 -1.6003  1.0409
 1450SOL    HW2 5250   5.628   1.317   1.194 -1.7139  0.2700 -1.3677
 1451SOL     OW 5251   5.784   1.827   6.115  0.4056  0.1121  0.3705
 1451SOL    HW1 5252   5.880   1.825   6.142  0.2467  0.2721  0.9641
 1451SOL    HW2 5253   5.772   1.894   6.042  0.5681  0.8651  1.0233
 1452SOL     OW 5254   4.621   1.262   3.752  0.6177 -0.2123 -0.3576
 1452SOL    HW1 5255   4.688   1.336   3.758  1.7023 -1.1209 -0.8721
 1452SOL    HW2 5256   4.613   1.217   3.841  0.6506 -0.0585 -0.2772
 1453SOL     OW 5257   2.412   0.562   1.445 -0.0882  0.0120  0.7414
 1453SOL    HW1 5258   2.406   0.538   1.348  1.3362  0.2697  0.5621
 1453SOL    HW2 5259   2.413   0.661   1.454  0.8166  0.0014  0.9093
 1454SOL     OW 5260   2.816   2.043   1.030 -0.3118 -0.1034 -0.3884
 1454SOL    HW1 5261   2.886   2.108   1.060 -0.9066  0.2234  0.3454
 1454SOL    HW2 5262   2.749   2.031   1.104  0.5935 -2.7244  0.0926
 1455SOL     OW 5263   0.584   6.277   3.557 -0.1709  0.2269 -1.5204
 1455SOL    HW1 5264   0.632   6.195   3.526  0.0897  0.4228 -1.6365
 1455SOL    HW2 5265   0.487   6.256   3.570  0.0270 -0.3139 -0.7830
 1456SOL     OW 5266   0.275   6.290   4.487 -0.0540 -0.2831 -0.1167
 1456SOL    HW1 5267   0.306   6.201   4.456 -0.1557 -1.0273  1.7978
 1456SOL    HW2 5268   0.341   6.360   4.461 -0.1315 -0.8487 -1.9058
 1457SOL     OW 5269   3.520   3.923   6.244 -0.6034  0.2680 -0.5955
 1457SOL    HW1 5270   3.498   3.839   6.293  3.9391 -0.2236  1.0596
 1457SOL    HW2 5271   3.519   4.000   6.308 -0.3368  0.6913 -1.0974
 1458SOL     OW 5272   1.590   0.954   2.609 -0.1111  0.0628 -0.0108
 1458SOL    HW1 5273   1.598   0.905   2.522  1.3268  2.6024 -1.4249
 1458SOL    HW2 5274   1.679   0.955   2.655  0.0441  1.7797 -0.3014
 1459SOL     OW 5275   1.520   1.258   5.635  0.1097  0.4321  0.3118
 1459SOL    HW1 5276   1.503   1.291   5.542 -2.5514  0.3586  0.6793
 1459SOL    HW2 5277   1.563   1.168   5.632  1.4825  1.0807 -0.7836
 1460SOL     OW 5278   4.232   6.340   1.702  0.0605  0.2320  0.1375
 1460SOL    HW1 5279   4.287   6.415   1.739 -0.5763  0.8585 -0.1686
 1460SOL    HW2 5280   4.166   6.375   1.636 -1.0562 -0.4242  0.8603
 1461SOL     OW 5281   6.165   4.152   0.430  0.3261 -0.2707  0.3611
 1461SOL    HW1 5282   6.087   4.097   0.462  1.9747 -1.8900  1.8232
 1461SOL    HW2 5283   6.137   4.206   0.350 -2.1643 -1.0759  0.5950
 1462SOL     OW 5284   4.289   6.361   6.120 -0.0514  0.3817 -0.1697
 1462SOL    HW1 5285   4.239   6.432   6.069  1.4222  1.4624 -0.1786
 1462SOL    HW2 5286   4.319   6.398   6.208  0.6825 -0.2538 -0.1420
 1463SOL     OW 5287   1.914   0.585   2.244 -0.5618 -0.1583 -0.0184
 1463SOL    HW1 5288   1.951   0.631   2.325 -0.8867 -0.3892  0.2596
 1463SOL    HW2 5289   1.877   0.653   2.181 -1.4559 -0.0676  0.5982
 1464SOL     OW 5290   3.316   2.994   6.968 -0.0120  0.7406 -0.4138
 1464SOL    HW1 5291   3.229   2.948   6.990 -0.6347  1.4829 -1.2641
 1464SOL    HW2 5292   3.368   3.008   7.052  0.9638 -2.9006 -0.2155
 1465SOL     OW 5293   0.718   3.814   6.135  0.0187  0.6245  0.0640
 1465SOL    HW1 5294   0.659   3.885   6.097 -0.3610  1.3234  1.8513
 1465SOL    HW2 5295   0.787   3.856   6.194  1.2345 -0.3246 -0.6361
 1466SOL     OW 5296   2.163   5.279   5.120  0.3037 -0.6075 -0.1535
 1466SOL    HW1 5297   2.087   5.333   5.157  1.2869 -0.8866  2.5057
 1466SOL    HW2 5298   2.127   5.203   5.067 -1.1439  1.3521 -2.1447
 1467SOL     OW 5299   3.085   6.642   5.753  0.4214  0.7021 -0.2070
 1467SOL    HW1 5300   3.122   6.726   5.794  0.7877 -0.7340  2.7411
 1467SOL    HW2 5301   3.131   6.624   5.667  2.7472  1.8504  0.6972
 1468SOL     OW 5302   6.282   6.445   4.981  0.1089  0.3329 -0.0190
 1468SOL    HW1 5303   6.381   6.434   4.988  0.4019  2.0920 -0.8399
 1468SOL    HW2 5304   6.238   6.401   5.059  1.5799  0.0928  0.7048
 1469SOL     OW 5305   4.226   0.903   5.718  0.3257  0.5229  0.0284
 1469SOL    HW1 5306   4.316   0.924   5.756  0.4824 -0.3976  0.2026
 1469SOL    HW2 5307   4.214   0.950   5.631  1.3609 -0.0644 -0.4585
 1470SOL     OW 5308   1.411   3.652   0.424 -0.4497 -0.6211 -0.1075
 1470SOL    HW1 5309   1.382   3.647   0.519  1.3445 -0.0611  0.5176
 1470SOL    HW2 5310   1.390   3.566   0.378 -2.0903 -0.6069  0.5372
 1471SOL     OW 5311   1.966   0.106   3.758  0.1502 -0.4326  0.3768
 1471SOL    HW1 5312   1.868   0.115   3.775 -0.4543 -2.4573 -1.5765
 1471SOL    HW2 5313   2.005   0.196   3.737 -1.6097  0.1984 -0.3540
 1472SOL     OW 5314   1.398   0.098   2.378  0.1115 -0.2747  0.1819
 1472SOL    HW1 5315   1.471   0.119   2.314 -0.3338  1.2493  0.1294
 1472SOL    HW2 5316   1.310   0.097   2.330  0.0426 -1.9506  0.2691
 1473SOL     OW 5317   3.520   4.282   6.069 -0.4588 -0.4412 -0.4509
 1473SOL    HW1 5318   3.459   4.275   5.989 -0.0831  0.7573 -0.8564
 1473SOL    HW2 5319   3.465   4.298   6.151 -0.7372  0.0357 -0.7254
 1474SOL     OW 5320   5.788   7.005   5.504 -0.6633  0.1832 -0.3951
 1474SOL    HW1 5321   5.843   6.991   5.587 -2.8403 -0.5662  1.0055
 1474SOL    HW2 5322   5.764   6.916   5.466 -0.1907  0.5197 -1.5080
 1475SOL     OW 5323   2.396   6.104   3.635 -0.4233  0.5446  0.4553
 1475SOL    HW1 5324   2.328   6.041   3.672  1.0073 -0.7757  0.9171
 1475SOL    HW2 5325   2.424   6.168   3.707  1.5224 -1.3030  1.4573
 1476SOL     OW 5326   6.772   4.353   0.679  0.4440  0.2718  0.0373
 1476SOL    HW1 5327   6.859   4.366   0.726  0.6002 -0.2621 -0.1024
 1476SOL    HW2 5328   6.766   4.259   0.644 -0.9368 -0.2576  1.5957
 1477SOL     OW 5329   6.999   3.276   2.746 -0.0105  0.1726  0.5517
 1477SOL    HW1 5330   7.040   3.278   2.838 -0.0743  0.3598  0.5768
 1477SOL    HW2 5331   6.970   3.368   2.721  0.1383  0.1463  0.2831
 1478SOL     OW 5332   3.273   6.307   6.294  0.0545 -0.1849  0.0170
 1478SOL    HW1 5333   3.356   6.274   6.339  0.5034 -0.8039 -1.2244
 1478SOL    HW2 5334   3.298   6.369   6.220 -0.4849 -1.4882 -1.3015
 1479SOL     OW 5335   3.208   4.666   5.860 -0.5886 -0.2242 -0.7204
 1479SOL    HW1 5336   3.270   4.607   5.809 -1.4041  0.1007 -2.1307
 1479SOL    HW2 5337   3.239   4.761   5.852 -0.5779 -0.1965 -0.3784
 1480SOL     OW 5338   3.802   3.862   4.689  0.9099 -0.1854  0.2294
 1480SOL    HW1 5339   3.757   3.905   4.610 -2.0388 -2.9814  0.2222
 1480SOL    HW2 5340   3.879   3.807   4.657 -0.4889 -1.5990 -0.8217
 1481SOL     OW 5341   3.087   3.010   6.183  0.4156 -0.3579  0.4805
 1481SOL    HW1 5342   3.091   3.088   6.120 -0.7970 -0.5396  0.1457
 1481SOL    HW2 5343   2.997   2.966   6.175  1.1297 -1.8859  0.5514
 1482SOL     OW 5344   0.797   6.820   5.760  0.0212 -0.2549 -0.1960
 1482SOL    HW1 5345   0.790   6.746   5.692 -0.1473 -0.4776  0.0624
 1482SOL    HW2 5346   0.864   6.795   5.829  0.9512  0.4241 -0.8374
 1483SOL     OW 5347   0.206   2.389   2.166  0.0237 -0.5347  0.2289
 1483SOL    HW1 5348   0.203   2.489   2.178 -1.0255 -0.2222 -2.1059
 1483SOL    HW2 5349   0.296   2.355   2.192  0.0214  0.8248  2.2158
 1484SOL     OW 5350   3.424   5.153   0.840 -0.1599  0.5050 -0.1711
 1484SOL    HW1 5351   3.414   5.194   0.749  0.5017 -1.9958 -1.4313
 1484SOL    HW2 5352   3.362   5.075   0.848  1.9889 -1.2144  0.3492
 1485SOL     OW 5353   3.095   6.992   0.418 -0.8374 -0.6573 -0.3266
 1485SOL    HW1 5354   3.004   7.028   0.398 -1.1764 -1.0164  0.5444
 1485SOL    HW2 5355   3.089   6.894   0.437 -0.2920 -0.6496 -0.1043
 1486SOL     OW 5356   4.262   5.126   4.311  0.5531  0.4080 -0.4340
 1486SOL    HW1 5357   4.196   5.195   4.342  1.9053  0.4668  2.7168
 1486SOL    HW2 5358   4.238   5.038   4.351  1.5321  0.1117 -0.4729
 1487SOL     OW 5359   6.451   2.502   2.401 -0.7403 -0.0097  0.3490
 1487SOL    HW1 5360   6.521   2.438   2.434  2.0122  1.7422 -1.6568
 1487SOL    HW2 5361   6.361   2.467   2.423  0.7013 -2.6920  2.6217
 1488SOL     OW 5362   5.784   5.531   6.558  0.0476 -0.1315  0.4401
 1488SOL    HW1 5363   5.857   5.564   6.617  0.5339 -0.4577  0.0232
 1488SOL    HW2 5364   5.823   5.485   6.478 -0.6078 -0.1682  0.1330
 1489SOL     OW 5365   5.463   2.599   6.870 -0.1124 -0.2089  0.1178
 1489SOL    HW1 5366   5.445   2.504   6.896 -1.2121  0.3066  1.3457
 1489SOL    HW2 5367   5.549   2.604   6.820  0.6745 -1.6404  1.2564
 1490SOL     OW 5368   6.093   0.282   4.596  0.6100 -0.6492  0.0146
 1490SOL    HW1 5369   6.123   0.201   4.647  0.3572 -0.4330  0.5042
 1490SOL    HW2 5370   6.044   0.253   4.514 -1.2521 -1.0151  1.1949
 1491SOL     OW 5371   0.236   0.064   2.657  0.2302 -0.5498 -0.1796
 1491SOL    HW1 5372   0.308  -0.000   2.630 -0.0485 -0.1374 -2.0493
 1491SOL    HW2 5373   0.149   0.017   2.663  0.4197 -0.7919  0.7921
 1492SOL     OW 5374   1.456   4.339   6.646 -0.4652 -0.5845 -0.7875
 1492SOL    HW1 5375   1.443   4.378   6.737 -0.0261 -1.4514 -0.3334
 1492SOL    HW2 5376   1.538   4.377   6.604 -0.3185 -0.6460 -0.5573
 1493SOL     OW 5377   4.638   5.678   4.087 -0.1445  0.1505  0.0538
 1493SOL    HW1 5378   4.632   5.604   4.153 -2.5559  0.8624  0.7585
 1493SOL    HW2 5379   4.722   5.730   4.101  0.8719 -1.5565  0.4771
 1494SOL     OW 5380   2.776   6.566   2.776  0.6997  0.1778  0.0869
 1494SOL    HW1 5381   2.863   6.528   2.745  0.9900  1.2993 -0.5445
 1494SOL    HW2 5382   2.748   6.521   2.861  0.9159 -1.5269 -0.7028
 1495SOL     OW 5383   6.267   6.500   2.944  0.6114  0.3536  0.3868
 1495SOL    HW1 5384   6.349   6.506   3.001 -1.0071  2.4652  2.7145
 1495SOL    HW2 5385   6.284   6.439   2.867  4.2689  0.5592  0.8677
 1496SOL     OW 5386   0.645   3.542   6.202 -0.5024 -0.3784  0.7490
 1496SOL    HW1 5387   0.686   3.631   6.182  2.3637 -1.3587  1.7974
 1496SOL    HW2 5388   0.615   3.540   6.297  1.3195 -1.1168  1.3527
 1497SOL     OW 5389   3.741   1.580   0.988 -0.2571  0.7286 -0.0045
 1497SOL    HW1 5390   3.736   1.510   1.059  0.8327  0.6952  0.0451
 1497SOL    HW2 5391   3.757   1.536   0.899  0.4533  0.9105  0.0307
 1498SOL     OW 5392   3.626   5.921   5.374 -0.3282  0.1912 -0.3477
 1498SOL    HW1 5393   3.676   5.885   5.453  1.1455  1.1708 -0.7876
 1498SOL    HW2 5394   3.535   5.879   5.370  0.4334 -1.6319  0.5048
 1499SOL     OW 5395   5.953   1.092   4.428  0.0534 -0.1397 -0.1654
 1499SOL    HW1 5396   5.963   1.163   4.498 -1.1850 -0.6942  0.6032
 1499SOL    HW2 5397   5.866   1.046   4.440 -1.4969  1.5036 -3.7274
 1500SOL     OW 5398   4.940   6.866   6.100 -0.0575 -0.7870 -0.0612
 1500SOL    HW1 5399   4.885   6.859   6.184  1.4050 -1.4933  0.8850
 1500SOL    HW2 5400   5.000   6.787   6.094  2.4620  1.0176  0.1363
 1501SOL     OW 5401   6.750   1.655   5.368  0.5023  0.0590  0.5178
 1501SOL    HW1 5402   6.830   1.630   5.422  1.5762  2.1091 -0.0462
 1501SOL    HW2 5403   6.724   1.578   5.310  0.7793 -1.3401  2.1453
 1502SOL     OW 5404   2.055   5.837   5.809  0.6497 -0.3427 -0.0297
 1502SOL    HW1 5405   2.105   5.889   5.739 -0.2111 -2.7472 -2.5741
 1502SOL    HW2 5406   1.960   5.867   5.811  0.7613 -0.0058  0.4258
 1503SOL     OW 5407   2.318   3.998   6.905 -0.6294  0.5081 -0.3960
 1503SOL    HW1 5408   2.389   4.044   6.852 -0.5672  0.5951 -0.2379
 1503SOL    HW2 5409   2.231   4.004   6.856 -0.4647  0.1197 -0.7455
 1504SOL     OW 5410   2.661   0.362   1.422  0.0675 -0.4277  0.1466
 1504SOL    HW1 5411   2.655   0.343   1.324 -2.0643  0.5216  0.0605
 1504SOL    HW2 5412   2.618   0.450   1.443  0.4503 -0.6197  1.9596
 1505SOL     OW 5413   3.218   2.755   1.850  0.0429 -0.5015  0.1528
 1505SOL    HW1 5414   3.153   2.815   1.897  0.8899  1.3476 -0.9690
 1505SOL    HW2 5415   3.195   2.659   1.871 -0.2619  0.1612  3.4445
 1506SOL     OW 5416   4.715   4.848   0.210 -0.0354 -0.2966  0.4466
 1506SOL    HW1 5417   4.713   4.757   0.249  2.2543 -1.3879 -1.7173
 1506SOL    HW2 5418   4.644   4.856   0.140  0.9355 -1.1154 -0.6623
 1507SOL     OW 5419   6.762   3.783   5.778  0.2321  0.2511 -0.8106
 1507SOL    HW1 5420   6.804   3.848   5.840  1.6683 -0.4403 -1.0042
 1507SOL    HW2 5421   6.827   3.709   5.758 -1.3026 -1.2020 -0.6626
 1508SOL     OW 5422   2.958   3.794   0.959 -0.5862 -0.7067 -0.2467
 1508SOL    HW1 5423   2.911   3.799   1.047  0.0023  0.8754  0.0098
 1508SOL    HW2 5424   3.022   3.717   0.959 -0.6063 -0.7358  0.7027
 1509SOL     OW 5425   2.672   1.386   6.350 -0.5127  0.2939 -0.3914
 1509SOL    HW1 5426   2.723   1.317   6.298 -0.3658 -0.9629  1.3597
 1509SOL    HW2 5427   2.575   1.361   6.352 -0.8091  1.2593 -1.4539
 1510SOL     OW 5428   1.130   5.403   3.982 -0.7039  0.4313  0.3857
 1510SOL    HW1 5429   1.048   5.441   3.939 -1.8165  0.6112  2.5331
 1510SOL    HW2 5430   1.209   5.420   3.923 -1.6362  3.3553 -0.1725
 1511SOL     OW 5431   2.428   6.067   3.961  0.1351  0.8285  0.3935
 1511SOL    HW1 5432   2.331   6.043   3.971 -0.1826  1.1173 -1.6146
 1511SOL    HW2 5433   2.436   6.150   3.906  1.5427  0.3700 -0.1297
 1512SOL     OW 5434   6.918   5.557   0.340  0.0137 -0.0050  0.0019
 1512SOL    HW1 5435   7.005   5.557   0.389 -0.5158  1.6384  1.0330
 1512SOL    HW2 5436   6.854   5.619   0.385 -1.9696 -1.7112 -0.2936
 1513SOL     OW 5437   5.606   1.638   6.230 -0.2043 -0.2817 -0.2014
 1513SOL    HW1 5438   5.549   1.592   6.162 -0.4261 -2.2429  1.2255
 1513SOL    HW2 5439   5.657   1.712   6.186 -0.5453 -1.2833 -2.4271
 1514SOL     OW 5440   2.441   2.435   0.398 -0.0105 -0.0339 -0.6297
 1514SOL    HW1 5441   2.483   2.525   0.390 -0.2748  0.0360 -1.3195
 1514SOL    HW2 5442   2.400   2.425   0.489  1.0428  0.0843 -0.1365
 1515SOL     OW 5443   0.036   1.036   4.520  0.1337  0.6073  0.3683
 1515SOL    HW1 5444   0.031   1.136   4.523  2.9823  0.8149  1.2419
 1515SOL    HW2 5445  -0.018   0.998   4.594  1.4768  1.7075  1.9917
 1516SOL     OW 5446   5.043   1.700   0.431 -0.3883  1.0060  0.4471
 1516SOL    HW1 5447   4.957   1.681   0.385 -0.0547  1.3968 -0.3535
 1516SOL    HW2 5448   5.035   1.677   0.528 -0.1949 -2.8289 -0.2768
 1517SOL     OW 5449   6.229   4.688   5.480  0.2244  0.1790 -0.0733
 1517SOL    HW1 5450   6.283   4.627   5.538 -1.1240 -0.1905  0.8393
 1517SOL    HW2 5451   6.275   4.700   5.392  0.6016 -2.0948 -0.2476
 1518SOL     OW 5452   5.273   1.857   5.572  0.1964 -0.2353  0.0384
 1518SOL    HW1 5453   5.326   1.831   5.491  0.6664 -0.9337  0.5676
 1518SOL    HW2 5454   5.223   1.778   5.606 -1.5346  0.4911 -0.6806
 1519SOL     OW 5455   5.811   4.888   5.761  0.4003 -0.2902  0.4247
 1519SOL    HW1 5456   5.796   4.880   5.663  0.2945 -0.5616  0.4625
 1519SOL    HW2 5457   5.726   4.915   5.806 -0.8236 -4.3120  0.9502
 1520SOL     OW 5458   6.537   0.590   0.958 -0.2236  0.3251  0.0687
 1520SOL    HW1 5459   6.560   0.506   1.007 -0.1744  1.1802  1.5914
 1520SOL    HW2 5460   6.439   0.606   0.963 -0.5117 -0.5951 -1.8744
 1521SOL     OW 5461   2.689   5.386   2.013  0.8376  0.3584  0.4141
 1521SOL    HW1 5462   2.699   5.469   2.068  2.0199  0.6788 -0.2567
 1521SOL    HW2 5463   2.778   5.358   1.978  0.6271 -1.8156  1.4805
 1522SOL     OW 5464   2.459   6.360   2.892 -0.1808 -0.6706  0.0404
 1522SOL    HW1 5465   2.405   6.443   2.881  0.4150 -0.2596  0.1698
 1522SOL    HW2 5466   2.555   6.384   2.907  0.4680 -1.4383 -2.4307
 1523SOL     OW 5467   6.110   6.754   2.990  0.3506 -0.6481 -0.0315
 1523SOL    HW1 5468   6.031   6.696   3.012  0.7889 -0.9344  0.7999
 1523SOL    HW2 5469   6.148   6.792   3.074  1.2959 -0.7652 -0.4012
 1524SOL     OW 5470   5.047   0.208   0.237 -0.5551  0.1184 -0.3579
 1524SOL    HW1 5471   5.067   0.248   0.147 -1.2001 -0.3207 -0.6978
 1524SOL    HW2 5472   5.131   0.170   0.276 -0.2244  0.5217 -0.6676
 1525SOL     OW 5473   0.411   0.692   6.102  0.0014  0.0810  0.3827
 1525SOL    HW1 5474   0.459   0.652   6.024 -0.1451 -0.1380  0.4073
 1525SOL    HW2 5475   0.456   0.664   6.187  0.5602  0.8424  0.3527
 1526SOL     OW 5476   4.722   0.348   0.883 -0.2155  0.9221  0.0569
 1526SOL    HW1 5477   4.806   0.321   0.836  0.2532  1.6122  0.4687
 1526SOL    HW2 5478   4.694   0.438   0.851 -1.5981  0.1205 -1.0962
 1527SOL     OW 5479   5.340   3.903   6.173 -0.3339 -0.1880  0.0797
 1527SOL    HW1 5480   5.343   3.854   6.086 -1.4865 -1.1102  0.5290
 1527SOL    HW2 5481   5.368   3.998   6.160  1.5134 -0.8333 -0.9103
 1528SOL     OW 5482   0.966   0.185   0.141 -0.2360 -0.2405 -0.7122
 1528SOL    HW1 5483   1.012   0.109   0.187 -1.4360 -1.0626 -0.8077
 1528SOL    HW2 5484   0.990   0.271   0.186  2.3463 -0.4698 -1.5444
 1529SOL     OW 5485   4.574   5.830   5.448  0.0335  0.0273  0.0451
 1529SOL    HW1 5486   4.541   5.748   5.402 -0.3865 -0.4504  1.1629
 1529SOL    HW2 5487   4.667   5.814   5.481  0.6040  0.6137 -1.2079
 1530SOL     OW 5488   3.639   2.693   6.163  0.1255 -0.7398 -0.0189
 1530SOL    HW1 5489   3.630   2.743   6.077 -1.9108  1.5881  1.4289
 1530SOL    HW2 5490   3.615   2.597   6.148 -2.2250  0.0256 -1.6957
 1531SOL     OW 5491   0.644   6.611   2.053  0.3035  0.0168  0.2592
 1531SOL    HW1 5492   0.666   6.707   2.070  0.0715  0.2151 -0.5192
 1531SOL    HW2 5493   0.716   6.570   1.997  1.1821 -0.6903  1.8210
 1532SOL     OW 5494   3.928   3.923   4.344  0.2236 -1.0667  0.1552
 1532SOL    HW1 5495   3.837   3.881   4.346 -0.5192  0.4677  0.6265
 1532SOL    HW2 5496   3.971   3.907   4.256 -1.0055 -0.8352 -0.5080
 1533SOL     OW 5497   1.493   4.547   2.193  0.3699 -0.1590 -0.0022
 1533SOL    HW1 5498   1.460   4.593   2.111  0.4391 -2.7121 -1.5813
 1533SOL    HW2 5499   1.546   4.612   2.248 -2.6901  2.6159 -0.0423
 1534SOL     OW 5500   2.175   0.901   2.958 -0.2409  1.1071 -0.1234
 1534SOL    HW1 5501   2.138   0.973   2.900  0.8562  0.7229 -1.3471
 1534SOL    HW2 5502   2.161   0.926   3.054  0.1531  2.9888 -0.4980
 1535SOL     OW 5503   0.179   0.320   0.645  0.0151  0.0332 -0.2686
 1535SOL    HW1 5504   0.196   0.415   0.672 -0.3735 -0.0812  0.3889
 1535SOL    HW2 5505   0.082   0.299   0.655  0.2402 -0.7080  0.5145
 1536SOL     OW 5506   3.500   3.712   0.645 -0.2386 -0.2465 -0.9162
 1536SOL    HW1 5507   3.456   3.799   0.623 -0.4356 -0.4479 -1.3285
 1536SOL    HW2 5508   3.457   3.673   0.726  1.8049  1.4695  1.1341
 1537SOL     OW 5509   0.765   0.428   2.106 -0.1562 -0.2112 -0.4341
 1537SOL    HW1 5510   0.808   0.421   2.016 -0.0651 -0.6490 -0.3564
 1537SOL    HW2 5511   0.695   0.357   2.115  0.5850 -0.8668  0.2525
 1538SOL     OW 5512   3.785   4.722   1.166  0.0445 -0.1304  0.3217
 1538SOL    HW1 5513   3.810   4.653   1.234 -0.9773 -1.4567 -0.5785
 1538SOL    HW2 5514   3.817   4.693   1.076  0.7378  1.2364  0.1057
 1539SOL     OW 5515   4.288   0.527   1.659  0.5336 -0.1229 -0.2003
 1539SOL    HW1 5516   4.191   0.548   1.670  0.4789 -1.1685  1.6206
 1539SOL    HW2 5517   4.334   0.605   1.618 -0.9915  0.5581 -0.6915
 1540SOL     OW 5518   4.714   1.777   6.749  0.2527 -0.4845  0.1929
 1540SOL    HW1 5519   4.727   1.876   6.755 -0.0541 -0.3366 -1.1943
 1540SOL    HW2 5520   4.655   1.746   6.823 -1.1326  0.6668 -0.3842
 1541SOL     OW 5521   5.424   4.248   0.484  0.0862 -0.1481 -0.4128
 1541SOL    HW1 5522   5.510   4.264   0.533 -0.3974 -1.7981  1.0849
 1541SOL    HW2 5523   5.347   4.284   0.537 -0.7803 -4.6994  1.8849
 1542SOL     OW 5524   2.245   6.033   4.423 -0.1411 -0.0870  0.1336
 1542SOL    HW1 5525   2.285   5.997   4.508 -0.9741 -1.7002 -0.1267
 1542SOL    HW2 5526   2.230   5.958   4.359 -1.9601  0.7200 -0.4455
 1543SOL     OW 5527   5.204   5.239   2.790 -0.1644 -0.3273 -0.5328
 1543SOL    HW1 5528   5.146   5.263   2.712  0.0403  1.2893 -0.2258
 1543SOL    HW2 5529   5.202   5.314   2.857  1.6198 -0.5969 -0.1371
 1544SOL     OW 5530   0.539   2.559   2.179 -0.1241 -0.0980 -0.0028
 1544SOL    HW1 5531   0.507   2.545   2.085 -1.8346  0.5937  0.4275
 1544SOL    HW2 5532   0.605   2.634   2.181 -1.2425  0.9430 -0.4949
 1545SOL     OW 5533   3.479   5.814   3.852  0.2403  0.5133  0.2535
 1545SOL    HW1 5534   3.517   5.725   3.877  0.4076  0.6873  0.6237
 1545SOL    HW2 5535   3.552   5.873   3.817  0.3065  0.8357  0.9299
 1546SOL     OW 5536   1.352   0.636   6.396 -0.0518  0.2952  0.7309
 1546SOL    HW1 5537   1.347   0.542   6.363 -0.1656  0.2968  0.7422
 1546SOL    HW2 5538   1.445   0.656   6.426  0.4444  0.7786 -1.0331
 1547SOL     OW 5539   0.405   3.193   2.376  0.1156 -1.0996 -0.0881
 1547SOL    HW1 5540   0.330   3.204   2.440 -0.9407 -3.1585 -0.8589
 1547SOL    HW2 5541   0.392   3.255   2.298  0.1838 -0.2062  0.6008
 1548SOL     OW 5542   2.567   6.757   5.935  0.3347  0.0662  0.0275
 1548SOL    HW1 5543   2.523   6.840   5.902  0.8295 -0.2454 -1.4872
 1548SOL    HW2 5544   2.658   6.748   5.895 -0.4451 -2.1756 -1.4991
 1549SOL     OW 5545   0.527   6.996   4.567  0.5037 -0.1102 -0.3102
 1549SOL    HW1 5546   0.533   7.002   4.666  1.7991  0.3681 -0.3997
 1549SOL    HW2 5547   0.515   6.901   4.540 -0.5280 -0.1736  0.3207
 1550SOL     OW 5548   5.362   0.459   1.770  0.3299  0.2823 -0.2009
 1550SOL    HW1 5549   5.354   0.495   1.677  0.5125 -2.1861 -1.2460
 1550SOL    HW2 5550   5.455   0.475   1.804 -0.6410  4.4543  1.1371
 1551SOL     OW 5551   4.408   6.054   0.352 -0.2691  0.0404 -0.2354
 1551SOL    HW1 5552   4.374   6.093   0.267  0.5136  0.8182 -0.2095
 1551SOL    HW2 5553   4.482   5.989   0.333 -0.1682  0.1307 -0.1549
 1552SOL     OW 5554   4.302   0.254   0.457 -0.4805  0.6448 -0.3937
 1552SOL    HW1 5555   4.323   0.276   0.361  1.2343  0.9499  0.0219
 1552SOL    HW2 5556   4.209   0.218   0.463 -0.7642  0.9984 -2.1166
 1553SOL     OW 5557   6.708   5.302   2.472 -0.1455 -0.5544 -0.1043
 1553SOL    HW1 5558   6.687   5.246   2.552  0.1417 -0.2749  0.1677
 1553SOL    HW2 5559   6.625   5.316   2.418 -0.6822  0.5917  0.9757
 1554SOL     OW 5560   0.077   1.974   3.771  0.1138  0.7309  0.2336
 1554SOL    HW1 5561   0.112   1.961   3.678  0.1039 -0.2234  0.3542
 1554SOL    HW2 5562   0.153   1.994   3.833  0.3422 -0.2552  0.2986
 1555SOL     OW 5563   1.335   2.608   3.881  0.1473 -0.1102 -0.1420
 1555SOL    HW1 5564   1.373   2.585   3.971 -3.0007 -1.6557  0.9412
 1555SOL    HW2 5565   1.366   2.541   3.814  0.1048 -0.7571  0.4739
 1556SOL     OW 5566   1.429   2.276   5.218 -0.3354  0.3491  0.0393
 1556SOL    HW1 5567   1.494   2.350   5.199 -0.2562  0.5024  0.9056
 1556SOL    HW2 5568   1.390   2.244   5.131 -0.3027  1.3377 -0.3569
 1557SOL     OW 5569   5.311   1.012   3.921  0.1267  0.0004  0.4426
 1557SOL    HW1 5570   5.395   0.990   3.970 -0.3860 -0.1464  1.2733
 1557SOL    HW2 5571   5.282   1.105   3.944 -0.9632 -0.6231  1.6754
 1558SOL     OW 5572   0.859   1.509   5.942 -0.1690 -0.4113 -0.2287
 1558SOL    HW1 5573   0.894   1.578   6.006  0.4939  0.1043 -1.1145
 1558SOL    HW2 5574   0.925   1.434   5.934  0.7613  0.5122 -1.8235
 1559SOL     OW 5575   6.612   0.051   4.996  0.8254  0.2903 -0.2883
 1559SOL    HW1 5576   6.602   0.070   4.898  1.9667 -0.0938 -0.5061
 1559SOL    HW2 5577   6.639  -0.044   5.008 -0.1021  0.1101  0.4668
 1560SOL     OW 5578   5.632   2.545   2.544 -0.6216 -0.1391  0.5556
 1560SOL    HW1 5579   5.690   2.519   2.467 -0.6437 -1.6968  1.0209
 1560SOL    HW2 5580   5.650   2.485   2.621 -0.5855  1.4093  1.8053
 1561SOL     OW 5581   3.338   5.392   2.681 -0.0941  0.5585  0.5451
 1561SOL    HW1 5582   3.340   5.462   2.753 -1.3714  0.6260  0.5410
 1561SOL    HW2 5583   3.272   5.321   2.705  0.8384 -0.4243  0.3199
 1562SOL     OW 5584   6.803   0.221   0.808  0.2304 -0.2162 -0.4730
 1562SOL    HW1 5585   6.731   0.184   0.866  0.9016 -0.1731  0.4021
 1562SOL    HW2 5586   6.831   0.310   0.843 -2.0400  1.7061 -3.0806
 1563SOL     OW 5587   1.034   6.996   6.287  0.1510 -0.3720  0.1395
 1563SOL    HW1 5588   1.010   7.022   6.193 -1.1838 -0.3261  0.4725
 1563SOL    HW2 5589   1.044   6.896   6.292  0.2928 -0.3685 -0.0706
 1564SOL     OW 5590   4.520   1.261   5.596 -0.4848  0.3837  0.0551
 1564SOL    HW1 5591   4.566   1.338   5.552 -1.3945  1.7451  1.3836
 1564SOL    HW2 5592   4.465   1.212   5.528 -0.0634  1.0245 -0.7693
 1565SOL     OW 5593   4.075   2.021   6.575  0.3050 -0.0470  0.0479
 1565SOL    HW1 5594   4.012   1.944   6.579  0.5409 -0.1978  1.2433
 1565SOL    HW2 5595   4.026   2.105   6.601  0.6827 -0.2348  1.4238
 1566SOL     OW 5596   3.551   0.284   0.339  0.2498  0.6325 -0.3097
 1566SOL    HW1 5597   3.523   0.283   0.435  2.1829 -0.5949  0.3136
 1566SOL    HW2 5598   3.497   0.218   0.287  1.0460 -0.7562  0.5727
 1567SOL     OW 5599   6.584   5.239   1.840  0.0062 -0.5706  0.0104
 1567SOL    HW1 5600   6.575   5.153   1.890  1.2833 -0.2579  0.8318
 1567SOL    HW2 5601   6.493   5.274   1.816 -0.7129 -0.5558  2.4451
 1568SOL     OW 5602   6.535   5.642   4.789  0.1966 -0.2378  0.8121
 1568SOL    HW1 5603   6.438   5.641   4.814 -0.1824 -2.2157 -0.4840
 1568SOL    HW2 5604   6.550   5.710   4.717 -0.0200  0.7326  1.6639
 1569SOL     OW 5605   5.759   6.221   0.699 -0.1151  0.0469 -0.1571
 1569SOL    HW1 5606   5.852   6.210   0.734 -0.8516 -1.5832  1.4493
 1569SOL    HW2 5607   5.761   6.277   0.616  2.4010 -0.8266 -0.7657
 1570SOL     OW 5608   5.341   5.951   1.416 -0.4124 -0.1845 -0.2343
 1570SOL    HW1 5609   5.333   5.895   1.333  0.7965 -1.1372  0.2588
 1570SOL    HW2 5610   5.358   5.891   1.495 -1.3575  0.7206  0.6873
 1571SOL     OW 5611   3.388   5.977   3.206  0.3402 -0.1014 -0.6566
 1571SOL    HW1 5612   3.482   5.974   3.171  0.5180 -1.7868 -0.1381
 1571SOL    HW2 5613   3.387   5.953   3.303 -0.3721  2.5859  0.0887
 1572SOL     OW 5614   6.753   2.253   3.869 -0.4675  0.0712 -0.3726
 1572SOL    HW1 5615   6.811   2.263   3.788  0.0411 -0.3795 -0.0725
 1572SOL    HW2 5616   6.666   2.299   3.854 -0.1040  0.5993 -0.9049
 1573SOL     OW 5617   6.331   5.266   6.583 -0.0277  0.5110 -0.0207
 1573SOL    HW1 5618   6.426   5.242   6.605 -0.3989 -0.5017  0.5672
 1573SOL    HW2 5619   6.281   5.282   6.668 -0.9148 -1.1297 -0.1918
 1574SOL     OW 5620   6.511   3.092   4.790  0.7579 -0.5031 -0.6829
 1574SOL    HW1 5621   6.530   3.154   4.714  1.8327 -0.9215 -0.7697
 1574SOL    HW2 5622   6.586   3.096   4.856 -1.6669  2.5354  2.2542
 1575SOL     OW 5623   1.098   3.967   1.594  0.2351  0.1188  0.1465
 1575SOL    HW1 5624   1.012   3.976   1.643 -0.3035 -2.4380 -0.1995
 1575SOL    HW2 5625   1.081   3.978   1.496  0.5508  0.9073  0.1739
 1576SOL     OW 5626   5.132   3.827   3.323 -0.0268  0.1471  0.3182
 1576SOL    HW1 5627   5.129   3.926   3.340 -0.0477  0.3064 -0.5760
 1576SOL    HW2 5628   5.171   3.810   3.233  1.2820 -0.7323  1.0210
 1577SOL     OW 5629   4.801   4.753   3.830  0.4882 -0.0413 -0.0995
 1577SOL    HW1 5630   4.849   4.695   3.896 -0.6712 -2.3994 -1.2078
 1577SOL    HW2 5631   4.851   4.754   3.743 -1.0071 -2.0819 -1.0902
 1578SOL     OW 5632   3.427   2.876   1.275 -0.4651 -0.2733 -0.4470
 1578SOL    HW1 5633   3.511   2.899   1.226 -0.5628 -3.0722 -2.1268
 1578SOL    HW2 5634   3.448   2.854   1.370  0.1611  2.1666  0.0637
 1579SOL     OW 5635   5.540   3.685   2.819  0.3411  0.0410 -0.0182
 1579SOL    HW1 5636   5.521   3.657   2.913  0.4858  0.6624  0.2016
 1579SOL    HW2 5637   5.636   3.710   2.811 -0.3190  3.0242  0.4740
 1580SOL     OW 5638   6.468   5.775   6.777 -0.6528 -0.2611 -0.3078
 1580SOL    HW1 5639   6.555   5.796   6.733 -0.6415  0.3769  0.0163
 1580SOL    HW2 5640   6.395   5.826   6.732 -0.5828  0.7389  0.6758
 1581SOL     OW 5641   3.961   4.882   0.195  0.0718 -0.0266  0.2082
 1581SOL    HW1 5642   4.042   4.936   0.217 -1.0055  1.7843 -0.0722
 1581SOL    HW2 5643   3.966   4.794   0.242  2.5452 -0.2952 -0.4216
 1582SOL     OW 5644   3.320   0.781   6.791  0.1045  0.1314 -0.2328
 1582SOL    HW1 5645   3.360   0.817   6.875 -1.9650 -1.2371  1.4503
 1582SOL    HW2 5646   3.271   0.854   6.743  1.3288  0.9260 -0.3257
 1583SOL     OW 5647   4.944   3.017   1.539  0.2977 -0.0010  0.3546
 1583SOL    HW1 5648   4.944   3.007   1.639 -2.8024 -1.1865  0.3320
 1583SOL    HW2 5649   4.931   3.113   1.516  3.4507  0.6904  0.9580
 1584SOL     OW 5650   0.894   6.431   4.825  0.2562  0.3400  0.3601
 1584SOL    HW1 5651   0.899   6.370   4.905  0.3887  1.7300  1.4513
 1584SOL    HW2 5652   0.872   6.377   4.744  2.3785 -1.4910  0.8863
 1585SOL     OW 5653   5.294   4.807   6.296  0.3299  0.1988 -0.3342
 1585SOL    HW1 5654   5.381   4.809   6.247  0.5157  0.6685  0.0121
 1585SOL    HW2 5655   5.311   4.792   6.394  0.0979  1.4742 -0.0870
 1586SOL     OW 5656   5.537   2.326   3.153  0.1610  0.0138 -0.0272
 1586SOL    HW1 5657   5.495   2.404   3.200  2.0793  0.6577  0.7056
 1586SOL    HW2 5658   5.508   2.241   3.198  0.7359  0.5280  1.3898
 1587SOL     OW 5659   1.918   5.704   6.414  0.4113  0.3800  0.2713
 1587SOL    HW1 5660   1.968   5.790   6.417  1.3725 -0.1777  0.8379
 1587SOL    HW2 5661   1.943   5.648   6.493 -2.9918  1.0889  2.0721
 1588SOL     OW 5662   6.158   4.397   0.562  0.3680 -0.6018  0.0403
 1588SOL    HW1 5663   6.255   4.418   0.553  0.0259  0.7140 -0.8927
 1588SOL    HW2 5664   6.140   4.304   0.530  1.1014 -0.3257 -1.2378
 1589SOL     OW 5665   5.582   2.943   3.707 -0.1271 -0.5465  0.1369
 1589SOL    HW1 5666   5.557   2.899   3.621 -0.7643  0.0800 -0.0104
 1589SOL    HW2 5667   5.576   2.877   3.782  1.1543 -1.2987 -0.3818
 1590SOL     OW 5668   6.337   3.450   0.329 -0.0744 -0.2497  0.7957
 1590SOL    HW1 5669   6.244   3.417   0.347 -0.5597 -0.0991 -1.1441
 1590SOL    HW2 5670   6.354   3.532   0.383 -1.4343  0.2475  0.5097
 1591SOL     OW 5671   4.280   4.908   4.817  0.1723  0.7231  0.2752
 1591SOL    HW1 5672   4.354   4.886   4.881 -0.4999  0.0450  0.8428
 1591SOL    HW2 5673   4.192   4.895   4.862 -0.3012  2.5111 -0.0739
 1592SOL     OW 5674   0.635   2.806   0.343  0.0606 -0.3212 -0.0783
 1592SOL    HW1 5675   0.535   2.804   0.336  0.0392  0.0377  0.0924
 1592SOL    HW2 5676   0.675   2.795   0.252 -0.1541  0.6469 -0.3048
 1593SOL     OW 5677   0.631   5.313   5.415  0.4137 -0.5447  0.7263
 1593SOL    HW1 5678   0.655   5.216   5.411  1.2321 -0.3564  0.9046
 1593SOL    HW2 5679   0.604   5.336   5.509  0.2556 -0.5886  0.6923
 1594SOL     OW 5680   5.524   1.957   5.783 -0.2005  0.0661  0.1131
 1594SOL    HW1 5681   5.485   2.032   5.836 -1.1232 -0.9905  0.9726
 1594SOL    HW2 5682   5.456   1.924   5.717 -0.0091 -0.4097  0.1509
 1595SOL     OW 5683   0.882   2.177   6.485 -0.2616 -0.1511  0.4727
 1595SOL    HW1 5684   0.894   2.132   6.397 -0.9281 -2.2260  1.4018
 1595SOL    HW2 5685   0.899   2.112   6.559  0.1018  1.4945  1.9068
 1596SOL     OW 5686   1.912   4.955   4.694  0.4330 -0.8238  0.0696
 1596SOL    HW1 5687   1.895   4.857   4.690  1.5732 -1.0402 -3.5657
 1596SOL    HW2 5688   2.008   4.972   4.717  0.6698 -0.6926 -0.9517
 1597SOL     OW 5689   3.951   5.137   2.758 -0.1337 -0.0596 -0.2483
 1597SOL    HW1 5690   3.936   5.044   2.726 -2.3297  0.0398  0.3657
 1597SOL    HW2 5691   3.900   5.201   2.701  1.7185  0.8780 -0.9606
 1598SOL     OW 5692   6.073   4.599   0.397 -0.0067 -0.5474 -0.5044
 1598SOL    HW1 5693   6.082   4.516   0.452 -0.5182 -1.0922 -1.2183
 1598SOL    HW2 5694   5.992   4.591   0.338  0.5404 -0.0053 -1.3544
 1599SOL     OW 5695   0.343   4.493   6.816 -0.1091  0.1752  0.3670
 1599SOL    HW1 5696   0.358   4.412   6.872 -0.4710  0.6903  1.2457
 1599SOL    HW2 5697   0.384   4.572   6.862  0.5875  0.4384 -0.6645
 1600SOL     OW 5698   5.819   4.419   2.178 -0.2790  0.7992  0.2725
 1600SOL    HW1 5699   5.720   4.415   2.187 -0.3916 -0.2535 -1.1408
 1600SOL    HW2 5700   5.845   4.504   2.131 -0.6671  0.2282 -1.0015
 1601SOL     OW 5701   5.289   4.882   2.982 -0.2386 -0.4010 -0.2033
 1601SOL    HW1 5702   5.302   4.789   2.950 -1.4784 -0.4255 -0.6922
 1601SOL    HW2 5703   5.234   4.933   2.916 -2.5355 -0.3428  1.6197
 1602SOL     OW 5704   3.086   3.123   3.196 -0.3686 -0.0171  0.2476
 1602SOL    HW1 5705   3.134   3.039   3.220 -0.6624  0.1201  1.4041
 1602SOL    HW2 5706   3.052   3.167   3.280 -2.3001  0.0098 -0.4836
 1603SOL     OW 5707   0.867   0.496   3.662 -0.3182  0.1266 -0.1816
 1603SOL    HW1 5708   0.768   0.508   3.662 -0.5161 -0.8982  2.7481
 1603SOL    HW2 5709   0.891   0.417   3.605 -1.1237  0.4453 -0.9983
 1604SOL     OW 5710   1.525   0.220   2.111 -0.5198  0.0722  0.3759
 1604SOL    HW1 5711   1.575   0.307   2.109 -1.5097  0.6670  0.6985
 1604SOL    HW2 5712   1.590   0.144   2.101  0.2988  0.8613 -0.4840
 1605SOL     OW 5713   1.808   5.419   2.706  0.3619  0.1453 -0.0343
 1605SOL    HW1 5714   1.792   5.331   2.660  0.3910  0.2245 -0.1982
 1605SOL    HW2 5715   1.904   5.444   2.696  0.4077  0.0720  0.2322
 1606SOL     OW 5716   1.859   4.507   4.147 -0.5848  0.9886 -0.1077
 1606SOL    HW1 5717   1.828   4.454   4.226  1.6559  1.7799  1.4128
 1606SOL    HW2 5718   1.796   4.493   4.070 -2.5388 -0.2604  1.6153
 1607SOL     OW 5719   6.715   2.359   0.418 -0.2635 -0.3222  0.3668
 1607SOL    HW1 5720   6.662   2.432   0.375  0.2421  0.6074  1.2944
 1607SOL    HW2 5721   6.723   2.282   0.354  1.4851  1.4544 -1.7181
 1608SOL     OW 5722   0.188   1.542   3.717 -0.1777  0.5930 -0.1043
 1608SOL    HW1 5723   0.216   1.589   3.801  0.1785 -1.0359  0.7519
 1608SOL    HW2 5724   0.142   1.456   3.741 -0.2063  0.1629 -1.5767
 1609SOL     OW 5725   5.665   2.249   6.611 -0.2794 -0.3937 -0.0417
 1609SOL    HW1 5726   5.660   2.259   6.511  0.2408  3.1687  0.1285
 1609SOL    HW2 5727   5.759   2.228   6.637 -0.0549  0.3039 -0.2621
 1610SOL     OW 5728   6.798   6.252   3.530  0.0369  0.2191  0.2428
 1610SOL    HW1 5729   6.708   6.295   3.519  0.6609  1.9922  1.5577
 1610SOL    HW2 5730   6.789   6.167   3.582 -1.3162 -1.7689 -2.9140
 1611SOL     OW 5731   2.146   3.028   2.439  0.6178  0.1256  0.4648
 1611SOL    HW1 5732   2.168   2.999   2.532  3.5936  1.3626  0.2729
 1611SOL    HW2 5733   2.132   3.127   2.437  1.9705  0.3337 -0.5416
 1612SOL     OW 5734   2.328   4.713   1.525  0.2958 -0.4876  0.0610
 1612SOL    HW1 5735   2.295   4.778   1.594  0.4924 -0.6603  0.3216
 1612SOL    HW2 5736   2.254   4.693   1.461 -0.0465 -0.6925  0.5065
 1613SOL     OW 5737   2.414   1.321   1.032  0.0677 -0.1513  0.6215
 1613SOL    HW1 5738   2.512   1.315   1.017  0.1513  0.5550  0.8626
 1613SOL    HW2 5739   2.393   1.398   1.092 -0.4495 -1.6548  2.4849
 1614SOL     OW 5740   4.925   2.161   4.898  0.8393  0.1237  0.3912
 1614SOL    HW1 5741   4.969   2.189   4.814  0.1039 -0.8872 -0.3592
 1614SOL    HW2 5742   4.850   2.224   4.920  0.3064 -0.2388 -0.3394
 1615SOL     OW 5743   6.817   2.315   0.831  1.0245  0.0087 -0.2488
 1615SOL    HW1 5744   6.742   2.318   0.898  0.4451 -3.1215 -0.5957
 1615SOL    HW2 5745   6.806   2.391   0.766 -0.5018  0.9728  1.0377
 1616SOL     OW 5746   0.607   0.264   2.981 -0.2261 -0.8004 -0.4424
 1616SOL    HW1 5747   0.690   0.310   2.949 -0.2688 -0.4374 -0.0447
 1616SOL    HW2 5748   0.611   0.168   2.956 -0.3882 -0.4776 -1.7831
 1617SOL     OW 5749   1.767   5.167   2.251 -0.0278 -0.3297  0.0576
 1617SOL    HW1 5750   1.740   5.136   2.160  1.5447 -2.0228  0.1018
 1617SOL    HW2 5751   1.822   5.250   2.242  0.4185 -0.6825 -0.5865
 1618SOL     OW 5752   4.892   5.445   1.044 -0.2860  0.1367 -0.4069
 1618SOL    HW1 5753   4.867   5.351   1.022  0.4498  0.2858 -2.0707
 1618SOL    HW2 5754   4.809   5.501   1.050 -0.7365 -0.6171  0.7279
 1619SOL     OW 5755   0.216   0.625   5.674 -0.1319  0.1786  0.2641
 1619SOL    HW1 5756   0.232   0.533   5.711  0.6425  0.3762  0.4315
 1619SOL    HW2 5757   0.204   0.689   5.749 -0.4988  0.2480  0.1481
 1620SOL     OW 5758   3.806   2.938   3.650  0.1537 -0.0578 -0.4417
 1620SOL    HW1 5759   3.858   3.001   3.706  0.5987 -0.3501 -0.5234
 1620SOL    HW2 5760   3.798   2.850   3.697  1.2863 -0.5923 -1.1929
 1621SOL     OW 5761   2.740   3.115   1.455 -0.5607  0.1363 -0.0913
 1621SOL    HW1 5762   2.657   3.166   1.431 -0.8738 -0.7060 -0.8528
 1621SOL    HW2 5763   2.752   3.040   1.391  0.1072 -0.5163  0.7838
 1622SOL     OW 5764   4.032   2.199   4.247 -0.2571  0.5628 -0.0203
 1622SOL    HW1 5765   4.037   2.187   4.148  0.2160 -2.9942  0.2917
 1622SOL    HW2 5766   3.941   2.172   4.279  0.6537 -1.9295  0.7442
 1623SOL     OW 5767   4.150   7.005   5.440 -0.2001  0.2617  0.4967
 1623SOL    HW1 5768   4.189   7.094   5.463  3.6754 -1.3623  1.0025
 1623SOL    HW2 5769   4.188   6.973   5.353 -0.9558 -1.2445  0.6796
 1624SOL     OW 5770   6.508   3.670   4.943 -0.3477 -0.2280 -0.4693
 1624SOL    HW1 5771   6.580   3.630   4.999  0.3889  0.0068 -1.2351
 1624SOL    HW2 5772   6.548   3.716   4.864 -1.2908  0.5317 -0.5288
 1625SOL     OW 5773   4.540   2.926   1.230 -0.4328  0.2693 -0.4077
 1625SOL    HW1 5774   4.614   2.902   1.293  1.1624 -1.1218 -2.6835
 1625SOL    HW2 5775   4.469   2.856   1.233 -0.4815  0.3362  0.0165
 1626SOL     OW 5776   2.586   4.923   3.857 -0.1077  0.9075  0.2779
 1626SOL    HW1 5777   2.661   4.924   3.791 -0.5555  0.8625 -0.2426
 1626SOL    HW2 5778   2.570   5.016   3.891 -1.0355  1.2660 -1.0403
 1627SOL     OW 5779   3.413   6.637   0.934 -0.4612 -0.6331 -0.1235
 1627SOL    HW1 5780   3.458   6.712   0.983 -0.8230 -1.4570  1.5378
 1627SOL    HW2 5781   3.481   6.567   0.911 -0.3426 -0.3868 -0.5211
 1628SOL     OW 5782   4.210   5.722   6.035 -0.0937  0.4657  0.0996
 1628SOL    HW1 5783   4.205   5.745   5.938  0.1923  0.4547  0.0806
 1628SOL    HW2 5784   4.280   5.778   6.079 -0.4164  0.6699  0.3595
 1629SOL     OW 5785   0.934   3.792   3.158 -0.5888 -0.0056 -0.5229
 1629SOL    HW1 5786   0.859   3.730   3.180 -0.0178 -0.2138  0.9798
 1629SOL    HW2 5787   0.930   3.872   3.218  1.4928 -0.9581  0.9880
 1630SOL     OW 5788   0.550   6.565   1.520  0.2994  0.1791  0.0828
 1630SOL    HW1 5789   0.516   6.508   1.446  1.5627  0.1128 -0.4774
 1630SOL    HW2 5790   0.498   6.547   1.604 -1.3557  0.4790 -0.8361
 1631SOL     OW 5791   6.068   4.324   0.231  0.0103  0.3595  0.3569
 1631SOL    HW1 5792   5.968   4.319   0.226  0.0755 -0.8619 -0.0254
 1631SOL    HW2 5793   6.101   4.390   0.164 -0.6837  3.0492  2.4815
 1632SOL     OW 5794   6.540   4.959   4.447 -0.9326  0.6691 -0.5807
 1632SOL    HW1 5795   6.577   5.035   4.394 -0.6245  1.6792  0.9882
 1632SOL    HW2 5796   6.613   4.896   4.471 -0.9965  0.4356 -0.9969
 1633SOL     OW 5797   4.990   3.453   2.016 -0.1051  0.2917 -0.3179
 1633SOL    HW1 5798   5.045   3.383   1.970  0.0425  0.0241  0.2501
 1633SOL    HW2 5799   4.987   3.535   1.960  1.1157  0.4065 -0.2454
 1634SOL     OW 5800   2.354   4.956   0.403 -1.0243 -0.3803 -0.5825
 1634SOL    HW1 5801   2.396   4.865   0.407 -1.4552 -0.5572  0.7206
 1634SOL    HW2 5802   2.279   4.960   0.469 -0.8191  1.0255 -0.4062
 1635SOL     OW 5803   2.552   3.668   1.112  0.5743 -0.2782 -0.3534
 1635SOL    HW1 5804   2.634   3.724   1.107  1.4033 -1.4863 -0.7958
 1635SOL    HW2 5805   2.546   3.625   1.202  1.6957 -1.9899 -1.0476
 1636SOL     OW 5806   1.819   0.643   3.827 -0.2769 -0.2704  0.2305
 1636SOL    HW1 5807   1.905   0.693   3.820 -0.2433 -0.2556  0.6829
 1636SOL    HW2 5808   1.772   0.644   3.739 -0.0863  0.2150  0.1284
 1637SOL     OW 5809   2.156   3.169   0.234  0.1863 -0.2011 -0.0622
 1637SOL    HW1 5810   2.096   3.108   0.181  0.4747 -0.0999 -0.5146
 1637SOL    HW2 5811   2.243   3.122   0.252 -0.1133 -0.4414  0.8102
 1638SOL     OW 5812   5.098   0.294   4.147 -0.3533  0.0697 -0.2303
 1638SOL    HW1 5813   5.189   0.336   4.152 -0.2848 -0.1333  0.2718
 1638SOL    HW2 5814   5.037   0.339   4.213 -0.9475  0.9833 -1.3525
 1639SOL     OW 5815   4.037   6.052   2.087 -0.0316 -0.2468  0.2646
 1639SOL    HW1 5816   3.983   6.074   2.168 -0.6543  1.3536 -0.5482
 1639SOL    HW2 5817   3.976   6.036   2.010  0.6098 -0.1595 -0.2714
 1640SOL     OW 5818   2.599   1.956   6.396  0.6897  0.5694  0.5195
 1640SOL    HW1 5819   2.503   1.975   6.417  0.6093  1.8694 -0.8455
 1640SOL    HW2 5820   2.653   2.039   6.413  1.9696 -0.7111  3.2567
 1641SOL     OW 5821   3.332   3.986   5.361 -0.1281  0.4068 -0.4830
 1641SOL    HW1 5822   3.318   3.898   5.406  0.0306 -0.0885 -1.3871
 1641SOL    HW2 5823   3.366   3.972   5.268 -1.2791  1.3719 -1.0827
 1642SOL     OW 5824   5.736   0.570   5.160  0.0986  0.3201  0.0833
 1642SOL    HW1 5825   5.825   0.524   5.155 -0.2795 -0.3206 -1.3521
 1642SOL    HW2 5826   5.693   0.549   5.247  0.5441 -0.9404  0.0325
 1643SOL     OW 5827   0.863   0.874   4.543 -0.4443  0.1173  0.2146
 1643SOL    HW1 5828   0.954   0.837   4.561  0.4654  2.3876  0.6864
 1643SOL    HW2 5829   0.858   0.908   4.449 -0.9451 -0.3284  0.0726
 1644SOL     OW 5830   2.180   1.026   5.475  0.2499 -0.0914  0.2538
 1644SOL    HW1 5831   2.254   1.025   5.408  0.0547 -0.7186  0.0409
 1644SOL    HW2 5832   2.151   0.932   5.494  0.2784  0.0813  1.1950
 1645SOL     OW 5833   0.907   6.261   6.653  0.2359  0.0955 -0.2857
 1645SOL    HW1 5834   0.998   6.295   6.629  0.1915  0.6216  0.2625
 1645SOL    HW2 5835   0.914   6.203   6.735  0.0642  0.2252 -0.1796
 1646SOL     OW 5836   6.342   0.308   4.956 -0.0544  0.3403  0.0915
 1646SOL    HW1 5837   6.311   0.297   4.862 -1.9023  0.7122  0.6206
 1646SOL    HW2 5838   6.349   0.219   5.000  4.2244 -0.2753 -1.2972
 1647SOL     OW 5839   5.097   1.242   3.199  0.0079 -0.3874 -0.1929
 1647SOL    HW1 5840   5.007   1.282   3.214 -0.1926 -0.6789 -0.6005
 1647SOL    HW2 5841   5.099   1.149   3.237  0.7446  0.2865  1.5475
 1648SOL     OW 5842   5.012   3.662   0.590  0.0589  0.1673  0.4689
 1648SOL    HW1 5843   5.060   3.637   0.505  3.3621  0.4185  2.0980
 1648SOL    HW2 5844   4.987   3.759   0.587 -2.1128 -0.3580 -1.1050
 1649SOL     OW 5845   3.693   6.221   5.034 -0.5763 -0.0984 -0.9462
 1649SOL    HW1 5846   3.772   6.246   4.978 -0.9263  2.0132 -0.5508
 1649SOL    HW2 5847   3.723   6.160   5.108  0.7804  1.0421 -0.5090
 1650SOL     OW 5848   2.683   1.694   2.159  0.2962 -0.2445  0.0238
 1650SOL    HW1 5849   2.611   1.764   2.156  0.9058  0.3685 -1.0160
 1650SOL    HW2 5850   2.770   1.736   2.132  1.0583 -0.9675  1.2830
 1651SOL     OW 5851   5.281   6.531   5.412 -0.0705  0.2198  0.7409
 1651SOL    HW1 5852   5.181   6.522   5.408 -0.1889  1.5563  0.2713
 1651SOL    HW2 5853   5.320   6.505   5.323  0.1046 -1.2258  1.2134
 1652SOL     OW 5854   1.916   2.253   0.428  0.2418 -0.6888  0.0603
 1652SOL    HW1 5855   1.956   2.240   0.337 -1.9754  0.0085 -1.0836
 1652SOL    HW2 5856   1.973   2.315   0.481  0.7670  0.1517 -1.4410
 1653SOL     OW 5857   5.376   5.044   2.684 -0.3574 -0.5130 -0.4093
 1653SOL    HW1 5858   5.301   4.978   2.689 -1.0443  0.3303  2.0146
 1653SOL    HW2 5859   5.340   5.136   2.699  0.8415  0.2176 -1.8135
 1654SOL     OW 5860   5.255   0.538   0.430 -0.4513  0.0259 -0.1632
 1654SOL    HW1 5861   5.304   0.485   0.500 -0.6991 -1.2686 -0.9349
 1654SOL    HW2 5862   5.252   0.486   0.345 -1.7001  0.8087 -0.6262
 1655SOL     OW 5863   6.162   2.340   0.811  0.0281  0.1573  0.6539
 1655SOL    HW1 5864   6.081   2.353   0.754  1.0893 -0.8114 -1.1417
 1655SOL    HW2 5865   6.196   2.428   0.843 -0.7953  0.6807  0.0991
 1656SOL     OW 5866   5.315   1.209   4.765  0.4351 -0.3354 -0.9042
 1656SOL    HW1 5867   5.354   1.219   4.857 -0.8264  0.5429 -0.4448
 1656SOL    HW2 5868   5.390   1.203   4.698  1.3714  0.5977  0.0175
 1657SOL     OW 5869   3.545   4.834   6.948  0.0029 -0.3453 -0.3459
 1657SOL    HW1 5870   3.549   4.756   6.885 -0.0710 -0.1843 -0.5495
 1657SOL    HW2 5871   3.467   4.821   7.010 -1.3539  0.6119 -1.7750
 1658SOL     OW 5872   4.298   1.691   6.317 -0.2149  0.1798 -0.4170
 1658SOL    HW1 5873   4.202   1.679   6.342 -1.4131 -0.6613 -4.6036
 1658SOL    HW2 5874   4.354   1.623   6.363 -2.0989 -1.1719 -0.0236
 1659SOL     OW 5875   2.474   1.878   2.763  0.1469 -0.7448 -0.8725
 1659SOL    HW1 5876   2.392   1.913   2.717  0.9249 -0.4687 -2.0809
 1659SOL    HW2 5877   2.489   1.783   2.735 -1.0025 -1.5728  1.0973
 1660SOL     OW 5878   2.244   2.847   3.151 -0.8239  0.1945 -0.8831
 1660SOL    HW1 5879   2.240   2.923   3.087  1.3301  0.2257 -1.0519
 1660SOL    HW2 5880   2.304   2.776   3.115 -1.2566 -0.7232  0.1576
 1661SOL     OW 5881   4.122   0.804   2.825 -0.2971  0.0878  0.0319
 1661SOL    HW1 5882   4.218   0.829   2.828 -0.4318  0.7378  3.4323
 1661SOL    HW2 5883   4.112   0.705   2.835  0.0185  0.0311 -0.2324
 1662SOL     OW 5884   6.010   6.844   4.374  0.4180 -0.3809 -0.5301
 1662SOL    HW1 5885   5.949   6.895   4.435  0.3790 -1.1760  0.1133
 1662SOL    HW2 5886   5.996   6.874   4.280 -2.3265 -1.8385 -0.6674
 1663SOL     OW 5887   5.500   2.350   4.417 -0.5566  0.6987 -0.2852
 1663SOL    HW1 5888   5.535   2.350   4.324  1.2220 -0.3437  0.3287
 1663SOL    HW2 5889   5.496   2.444   4.451  1.0281  0.9396 -0.6533
 1664SOL     OW 5890   0.364   1.670   0.929  0.4177  0.7174 -0.3901
 1664SOL    HW1 5891   0.387   1.630   0.840  0.8774  2.3585 -1.0351
 1664SOL    HW2 5892   0.283   1.624   0.966 -1.4914  1.8084 -2.9475
 1665SOL     OW 5893   5.266   0.047   5.293 -0.5212  0.1522 -0.5807
 1665SOL    HW1 5894   5.300   0.141   5.288 -0.9924  0.3247 -0.5270
 1665SOL    HW2 5895   5.245   0.025   5.388 -0.7774  0.1242 -0.6430
 1666SOL     OW 5896   5.248   3.203   6.649 -0.1635  0.0014  0.3688
 1666SOL    HW1 5897   5.200   3.119   6.675 -0.7550  0.2321  0.0464
 1666SOL    HW2 5898   5.290   3.190   6.560 -2.0792  0.7264 -0.7087
 1667SOL     OW 5899   5.328   6.383   2.407 -0.3966 -0.5037  0.3770
 1667SOL    HW1 5900   5.318   6.463   2.347  0.1782 -0.5314  0.2433
 1667SOL    HW2 5901   5.388   6.406   2.483 -2.6265  0.1404  2.0370
 1668SOL     OW 5902   5.826   4.499   3.785  0.3663 -0.0086  0.2068
 1668SOL    HW1 5903   5.774   4.469   3.865  0.1424  0.0023  0.0641
 1668SOL    HW2 5904   5.873   4.584   3.807 -1.3536  1.1153 -0.3351
 1669SOL     OW 5905   5.283   0.929   4.292  0.4900  0.3078  0.2488
 1669SOL    HW1 5906   5.301   0.898   4.385 -1.4477 -0.3513  0.4437
 1669SOL    HW2 5907   5.288   0.851   4.229 -0.7883  0.2406  0.2044
 1670SOL     OW 5908   3.412   2.509   5.689 -0.1250  0.4174 -0.0549
 1670SOL    HW1 5909   3.416   2.452   5.771 -1.1483 -0.2591 -0.4576
 1670SOL    HW2 5910   3.501   2.509   5.644  0.0666 -0.3268  0.3080
 1671SOL     OW 5911   3.493   1.555   3.095  0.2766  0.2612  0.0051
 1671SOL    HW1 5912   3.543   1.520   3.174  0.3031  0.6184  0.1491
 1671SOL    HW2 5913   3.457   1.646   3.116 -2.2155 -0.7890  0.6865
 1672SOL     OW 5914   6.081   6.452   4.215  0.3046 -0.7221  0.7868
 1672SOL    HW1 5915   5.992   6.496   4.205 -0.7576 -3.0054 -0.4749
 1672SOL    HW2 5916   6.077   6.384   4.288  1.6614  0.5371  2.1101
 1673SOL     OW 5917   4.541   3.889   5.316  0.1361 -0.1876  0.5126
 1673SOL    HW1 5918   4.454   3.840   5.302  0.2263  0.1731 -1.8000
 1673SOL    HW2 5919   4.616   3.824   5.309  0.1107 -0.8620  4.4395
 1674SOL     OW 5920   4.942   5.011   1.344 -0.6118 -0.1626  0.5564
 1674SOL    HW1 5921   4.862   5.018   1.404 -0.2974  1.4285  0.8347
 1674SOL    HW2 5922   4.919   4.954   1.265 -2.2616  0.8548  0.2483
 1675SOL     OW 5923   0.149   1.063   6.802 -0.2433 -0.1850  0.0790
 1675SOL    HW1 5924   0.201   1.003   6.742 -2.2969 -2.2795  0.2727
 1675SOL    HW2 5925   0.157   1.031   6.896 -2.7084 -1.2899 -0.0139
 1676SOL     OW 5926   5.115   3.837   1.322 -0.1533 -0.1359  0.7932
 1676SOL    HW1 5927   5.207   3.861   1.291 -1.1772 -0.4584 -2.9784
 1676SOL    HW2 5928   5.063   3.920   1.340 -0.1859  0.2298 -0.7983
 1677SOL     OW 5929   5.403   2.479   1.797  0.2557 -0.4604 -0.3046
 1677SOL    HW1 5930   5.309   2.447   1.808  0.1966 -0.1288  0.1999
 1677SOL    HW2 5931   5.457   2.452   1.877  1.0108 -2.0879 -1.3303
 1678SOL     OW 5932   6.103   5.030   4.937 -0.0656 -0.6159 -0.2782
 1678SOL    HW1 5933   6.158   4.959   4.982  0.9477  0.5724  0.3952
 1678SOL    HW2 5934   6.079   5.100   5.004  1.4370  1.1863 -1.5611
 1679SOL     OW 5935   6.247   5.130   2.660 -0.5467  0.3881  0.2067
 1679SOL    HW1 5936   6.318   5.187   2.617  0.2692 -0.1723  0.7803
 1679SOL    HW2 5937   6.159   5.178   2.656 -0.2413  0.8884 -0.9456
 1680SOL     OW 5938   5.554   3.174   5.976  0.2799  0.9086  0.2272
 1680SOL    HW1 5939   5.514   3.264   5.956 -3.3784 -0.2549  1.5057
 1680SOL    HW2 5940   5.524   3.144   6.066  2.7766 -0.9615  0.5311
 1681SOL     OW 5941   2.155   3.804   0.811  0.0779 -0.1115  0.0345
 1681SOL    HW1 5942   2.131   3.874   0.745 -0.9713  0.8893  1.4225
 1681SOL    HW2 5943   2.239   3.758   0.782  0.4986  1.3468 -1.1693
 1682SOL     OW 5944   0.283   4.205   3.052  0.1826  0.1500 -0.4932
 1682SOL    HW1 5945   0.277   4.182   2.955 -0.9897 -2.3453  0.1098
 1682SOL    HW2 5946   0.335   4.135   3.100  0.1818  1.0075  0.8216
 1683SOL     OW 5947   1.935   5.118   6.858  0.2555  0.4013 -0.9406
 1683SOL    HW1 5948   1.985   5.031   6.851  0.4250  0.5447 -1.5742
 1683SOL    HW2 5949   1.837   5.099   6.867  0.4298  0.1125  0.5897
 1684SOL     OW 5950   1.685   2.501   5.543  0.3748  0.4716 -0.0698
 1684SOL    HW1 5951   1.705   2.411   5.505 -1.3595  0.5029 -1.1494
 1684SOL    HW2 5952   1.608   2.494   5.606 -0.2726  1.3128 -0.7473
 1685SOL     OW 5953   3.183   6.875   4.015 -0.4486  0.4930  0.2848
 1685SOL    HW1 5954   3.120   6.865   3.938 -3.7609 -2.4283  2.9955
 1685SOL    HW2 5955   3.276   6.856   3.985 -1.4105  0.4639 -3.0921
 1686SOL     OW 5956   2.009   2.782   6.319  0.4835  0.7486 -0.1773
 1686SOL    HW1 5957   1.995   2.830   6.233 -2.0898  0.9446  0.2886
 1686SOL    HW2 5958   1.940   2.710   6.329  1.8171 -0.4415  0.9513
 1687SOL     OW 5959   3.354   3.157   4.763 -1.0056 -0.8895 -0.2182
 1687SOL    HW1 5960   3.282   3.112   4.815  0.0822 -4.4884 -1.5231
 1687SOL    HW2 5961   3.383   3.098   4.688  1.9589  1.2506 -0.9442
 1688SOL     OW 5962   0.942   0.629   5.894  0.4353  0.0252  0.4350
 1688SOL    HW1 5963   0.858   0.646   5.947 -0.4369 -0.9630 -0.5585
 1688SOL    HW2 5964   0.946   0.532   5.870  0.7432  0.4526 -1.3847
 1689SOL     OW 5965   4.585   5.872   4.687 -0.0022 -0.0096 -0.1780
 1689SOL    HW1 5966   4.613   5.924   4.605  1.0960 -1.1090 -0.5359
 1689SOL    HW2 5967   4.661   5.814   4.716 -0.2288  0.6469  1.8861
 1690SOL     OW 5968   6.773   2.400   1.129 -0.4640  0.0270  0.0358
 1690SOL    HW1 5969   6.694   2.384   1.188 -0.4351  2.1366  0.7301
 1690SOL    HW2 5970   6.856   2.402   1.184  0.1991 -2.4793 -0.7278
 1691SOL     OW 5971   2.922   0.088   4.391  0.4436 -0.2854 -0.1886
 1691SOL    HW1 5972   2.874   0.006   4.421 -0.3061 -0.1745 -1.0397
 1691SOL    HW2 5973   3.003   0.102   4.448 -0.5519 -0.4481  1.3093
 1692SOL     OW 5974   0.438   5.650   1.606  0.1148  0.0793 -0.3024
 1692SOL    HW1 5975   0.449   5.664   1.507  2.1585 -0.9920 -0.2690
 1692SOL    HW2 5976   0.516   5.690   1.654  0.9997 -2.4944  0.5404
 1693SOL     OW 5977   4.472   0.640   1.311  0.3407  0.0181  0.0111
 1693SOL    HW1 5978   4.426   0.672   1.395  0.9903 -0.0457  0.3979
 1693SOL    HW2 5979   4.404   0.626   1.239 -0.0360  1.6536  0.0255
 1694SOL     OW 5980   6.442   4.980   3.146  0.2361 -0.0398 -0.2172
 1694SOL    HW1 5981   6.379   4.903   3.138 -1.4240  1.4520 -2.7364
 1694SOL    HW2 5982   6.391   5.063   3.168  1.6974  0.7630  0.2966
 1695SOL     OW 5983   2.867   1.042   5.063  0.4635  0.2440  0.4272
 1695SOL    HW1 5984   2.797   1.113   5.071 -1.7909 -1.6313 -1.2222
 1695SOL    HW2 5985   2.872   0.991   5.149 -1.7939 -0.9197 -0.0706
 1696SOL     OW 5986   3.820   2.198   1.302  0.1252 -0.5431  0.2998
 1696SOL    HW1 5987   3.816   2.280   1.359 -1.1526 -1.0920  1.0275
 1696SOL    HW2 5988   3.890   2.136   1.338 -0.8619 -1.0061  1.4628
 1697SOL     OW 5989   3.104   1.066   6.143  0.0199  0.1580  0.2914
 1697SOL    HW1 5990   3.130   0.972   6.121 -1.7206 -0.9233  2.4461
 1697SOL    HW2 5991   3.163   1.101   6.215  1.7750  1.4328 -1.6619
 1698SOL     OW 5992   2.169   2.130   3.091 -0.6996 -0.1777  0.3247
 1698SOL    HW1 5993   2.096   2.192   3.120 -0.0470  1.7070 -1.8481
 1698SOL    HW2 5994   2.196   2.072   3.169 -2.0199  1.5470  2.1629
 1699SOL     OW 5995   3.523   1.562   2.348 -0.4363 -0.7702 -1.0374
 1699SOL    HW1 5996   3.489   1.496   2.415 -1.1049  1.6503  1.1460
 1699SOL    HW2 5997   3.512   1.523   2.256 -1.6347 -3.3021  0.0539
 1700SOL     OW 5998   2.603   1.917   3.430 -0.2702  0.2509 -0.0017
 1700SOL    HW1 5999   2.585   1.967   3.345  0.2725  0.6504  0.1106
 1700SOL    HW2 6000   2.616   1.820   3.410 -0.0896  0.3531 -0.3864
 1701SOL     OW 6001   6.971   6.678   6.549 -0.1686 -0.3108 -0.1352
 1701SOL    HW1 6002   6.903   6.660   6.621 -1.1767  2.5864 -0.2367
 1701SOL    HW2 6003   7.058   6.704   6.591  0.0920 -1.3507 -0.0050
 1702SOL     OW 6004   1.201   4.027   5.642  0.4068 -0.2956 -0.2464
 1702SOL    HW1 6005   1.175   3.952   5.582 -2.4341  0.2436  0.1631
 1702SOL    HW2 6006   1.166   4.010   5.734 -2.1008  2.2826 -0.5642
 1703SOL     OW 6007   6.290   3.282   1.685  0.4859 -0.0917  0.2985
 1703SOL    HW1 6008   6.284   3.183   1.696  1.2488 -0.4081 -1.7220
 1703SOL    HW2 6009   6.234   3.327   1.755 -0.6097 -1.9624  0.6819
 1704SOL     OW 6010   2.714   2.305   2.238 -0.2851 -0.2102 -0.2121
 1704SOL    HW1 6011   2.774   2.303   2.158 -1.1348 -0.8998 -0.8646
 1704SOL    HW2 6012   2.768   2.299   2.322  0.5628 -0.7043 -0.7835
 1705SOL     OW 6013   2.065   3.518   4.898 -0.1795  0.1679 -0.2558
 1705SOL    HW1 6014   1.983   3.467   4.871  0.8394  0.1252 -3.8351
 1705SOL    HW2 6015   2.132   3.456   4.938 -1.1469 -0.1343  0.9473
 1706SOL     OW 6016   3.528   6.286   2.024  0.5255  0.3465  0.5566
 1706SOL    HW1 6017   3.433   6.273   1.997  1.7800 -0.6363 -4.4723
 1706SOL    HW2 6018   3.553   6.219   2.094 -2.0614 -0.4338  0.8165
 1707SOL     OW 6019   2.698   0.962   0.520  0.4320 -0.1232 -0.3748
 1707SOL    HW1 6020   2.681   0.863   0.514  0.1835 -0.0296 -1.4589
 1707SOL    HW2 6021   2.796   0.979   0.531  0.2944 -0.5456  2.0769
 1708SOL     OW 6022   2.779   4.519   5.675 -0.3561 -0.2032  0.1323
 1708SOL    HW1 6023   2.747   4.613   5.688 -0.4698 -0.3988  1.3320
 1708SOL    HW2 6024   2.776   4.497   5.578  1.7941  1.7748 -0.4842
 1709SOL     OW 6025   2.062   1.658   2.053  0.0808  0.4710  0.1932
 1709SOL    HW1 6026   1.974   1.644   2.007  1.4091 -0.6040 -2.2155
 1709SOL    HW2 6027   2.059   1.618   2.145 -1.5441 -0.7140 -0.3358
 1710SOL     OW 6028   1.433   4.267   4.724 -0.5030  0.1899  1.3011
 1710SOL    HW1 6029   1.499   4.225   4.787  1.0185  1.3108  0.5362
 1710SOL    HW2 6030   1.458   4.363   4.710 -2.7059  0.8298  1.4720
 1711SOL     OW 6031   2.031   4.441   4.480 -0.0897 -0.1737 -0.4678
 1711SOL    HW1 6032   2.003   4.412   4.572  1.3749  0.6039  0.2740
 1711SOL    HW2 6033   2.131   4.436   4.473  0.1026  2.6462 -0.9483
 1712SOL     OW 6034   3.423   6.345   2.863  0.3278 -0.2336 -0.1159
 1712SOL    HW1 6035   3.362   6.391   2.798  2.3865 -0.0942 -2.0876
 1712SOL    HW2 6036   3.457   6.413   2.929 -0.6841 -0.0727  0.2622
 1713SOL     OW 6037   0.778   0.961   6.208 -0.2175  0.1749  0.3394
 1713SOL    HW1 6038   0.799   0.900   6.285  0.0268  0.6474  0.6518
 1713SOL    HW2 6039   0.680   0.956   6.188 -0.3308  0.2441  0.8538
 1714SOL     OW 6040   6.532   0.610   6.855  0.0627  0.3066  0.2782
 1714SOL    HW1 6041   6.632   0.608   6.853  0.0615 -0.4139  0.6646
 1714SOL    HW2 6042   6.500   0.562   6.937 -0.5909  0.8617  0.3508
 1715SOL     OW 6043   2.798   5.191   3.284  0.2200  0.1263  0.4978
 1715SOL    HW1 6044   2.803   5.150   3.193  1.2029 -3.0705  1.8592
 1715SOL    HW2 6045   2.706   5.228   3.299 -0.3318 -0.4130 -1.3388
 1716SOL     OW 6046   3.759   0.801   4.639  0.3196  0.2950  0.0807
 1716SOL    HW1 6047   3.821   0.727   4.667  1.4001  0.9494 -0.5382
 1716SOL    HW2 6048   3.678   0.761   4.596  1.0178 -0.5255 -0.5073
 1717SOL     OW 6049   0.633   0.767   4.025  0.1104  0.2738 -0.0739
 1717SOL    HW1 6050   0.669   0.753   3.932 -0.7291  0.3968 -0.4223
 1717SOL    HW2 6051   0.583   0.854   4.029  3.4969  2.3631  1.5370
 1718SOL     OW 6052   6.062   0.205   3.800 -0.2070  0.1122  0.0625
 1718SOL    HW1 6053   6.137   0.158   3.846 -0.6543  0.6941  1.4179
 1718SOL    HW2 6054   6.087   0.301   3.784 -0.5784  0.2537  0.3245
 1719SOL     OW 6055   5.434   1.492   2.544  0.3836 -0.2487 -0.1100
 1719SOL    HW1 6056   5.411   1.586   2.568 -0.3072 -0.3915 -0.1976
 1719SOL    HW2 6057   5.486   1.492   2.458 -0.3101  0.0010 -0.5378
 1720SOL     OW 6058   1.836   1.627   1.914 -0.0337  0.0213  0.2226
 1720SOL    HW1 6059   1.739   1.650   1.920 -0.3011 -1.3282  1.4596
 1720SOL    HW2 6060   1.879   1.684   1.844 -1.3555  1.8193  0.7891
 1721SOL     OW 6061   1.979   3.237   2.663 -0.0633 -0.0324  0.4910
 1721SOL    HW1 6062   1.958   3.324   2.707  0.9477 -0.0087  0.9540
 1721SOL    HW2 6063   2.045   3.252   2.589 -0.7866 -0.2478 -0.2071
 1722SOL     OW 6064   3.596   5.866   4.388 -1.1989 -0.6421  0.2831
 1722SOL    HW1 6065   3.504   5.880   4.425 -0.8485 -2.2183  1.8626
 1722SOL    HW2 6066   3.618   5.941   4.325 -2.2580  1.6191  2.4211
 1723SOL     OW 6067   6.938   3.337   6.223 -0.5441 -0.5210  0.1887
 1723SOL    HW1 6068   7.022   3.346   6.169  0.7967 -0.7454  2.1707
 1723SOL    HW2 6069   6.945   3.259   6.284 -2.1608 -0.4467  0.5215
 1724SOL     OW 6070   1.562   4.293   0.728  0.2228  0.5279  0.2383
 1724SOL    HW1 6071   1.659   4.303   0.706 -0.2249  2.0596 -1.2559
 1724SOL    HW2 6072   1.538   4.196   0.728  1.1821  0.2166 -2.1875
 1725SOL     OW 6073   2.789   6.156   0.360 -0.1148 -0.0818  0.2219
 1725SOL    HW1 6074   2.730   6.204   0.295  0.8981 -0.0049 -0.6628
 1725SOL    HW2 6075   2.821   6.071   0.319 -0.5512 -0.7074  1.1531
 1726SOL     OW 6076   6.677   5.163   2.703 -0.3246 -0.1855 -0.1896
 1726SOL    HW1 6077   6.591   5.130   2.744  0.2987 -0.8085  0.6675
 1726SOL    HW2 6078   6.745   5.177   2.775  0.1166  0.8947 -0.7921
 1727SOL     OW 6079   1.720   0.172   5.215  0.6427 -0.3139 -0.6943
 1727SOL    HW1 6080   1.790   0.210   5.274  0.0671 -0.5415  0.1536
 1727SOL    HW2 6081   1.740   0.197   5.120  0.5358  1.7345 -0.2398
 1728SOL     OW 6082   1.690   5.146   6.279  0.3531 -0.0974  0.1540
 1728SOL    HW1 6083   1.661   5.240   6.296  0.1573 -0.2875  0.9066
 1728SOL    HW2 6084   1.680   5.125   6.182 -0.4947  0.3625  0.1319
 1729SOL     OW 6085   0.316   0.983   1.426 -0.1553 -0.3641 -0.3754
 1729SOL    HW1 6086   0.348   0.944   1.339 -0.9957 -1.1627 -0.3402
 1729SOL    HW2 6087   0.216   0.987   1.426 -0.1975 -0.9222  0.7750
 1730SOL     OW 6088   2.114   6.474   3.201 -0.1162 -0.1199 -0.1066
 1730SOL    HW1 6089   2.052   6.531   3.148  3.3294  0.9535 -3.3968
 1730SOL    HW2 6090   2.107   6.379   3.169 -0.7033 -0.2276  0.3009
 1731SOL     OW 6091   5.124   6.995   1.595 -0.8336 -0.3364 -0.1911
 1731SOL    HW1 6092   5.165   6.905   1.580 -0.2144 -0.2574  0.9093
 1731SOL    HW2 6093   5.027   6.991   1.573 -0.3087 -0.5625 -2.7406
 1732SOL     OW 6094   3.927   3.060   4.286  0.2300  0.0168  0.5450
 1732SOL    HW1 6095   3.936   3.108   4.199 -2.1110  1.0281  0.7790
 1732SOL    HW2 6096   3.973   3.112   4.358 -0.2919  0.7323  0.3769
 1733SOL     OW 6097   3.056   2.240   1.152  0.5837 -0.0883 -0.3944
 1733SOL    HW1 6098   2.971   2.283   1.180  0.0789 -0.3161 -1.5248
 1733SOL    HW2 6099   3.120   2.238   1.230 -1.1715 -1.7823  1.1090
 1734SOL     OW 6100   0.886   4.844   3.458 -0.0951 -0.3748  0.6052
 1734SOL    HW1 6101   0.916   4.834   3.553  1.7424  1.6746  0.3106
 1734SOL    HW2 6102   0.966   4.856   3.399 -1.2003 -1.5535 -1.2448
 1735SOL     OW 6103   4.994   6.456   1.077  0.2942 -0.2572  0.3503
 1735SOL    HW1 6104   5.000   6.488   0.982 -1.3538 -0.2152  0.2356
 1735SOL    HW2 6105   5.074   6.401   1.098  0.5020 -0.6097 -1.2046
 1736SOL     OW 6106   0.200   2.231   5.341 -0.1263  0.0333  0.5532
 1736SOL    HW1 6107   0.187   2.324   5.375 -1.2710 -0.8225  2.7110
 1736SOL    HW2 6108   0.214   2.169   5.418 -0.2403 -1.7087 -0.7511
 1737SOL     OW 6109   6.209   4.156   3.955  0.3972 -0.2277 -1.2049
 1737SOL    HW1 6110   6.214   4.224   3.881 -0.1747 -0.1618 -1.1843
 1737SOL    HW2 6111   6.278   4.086   3.940 -0.2044 -0.6237 -2.2128
 1738SOL     OW 6112   3.961   5.178   6.857 -0.1594  0.1611  0.3101
 1738SOL    HW1 6113   3.943   5.271   6.887 -0.8186  0.1171  0.0763
 1738SOL    HW2 6114   3.904   5.114   6.910 -1.6915  0.1187 -1.2870
 1739SOL     OW 6115   1.417   5.766   5.453  0.0668  0.5656 -0.2443
 1739SOL    HW1 6116   1.441   5.704   5.378  1.3659  0.2404  0.4094
 1739SOL    HW2 6117   1.452   5.858   5.433 -0.7993  0.8111 -0.6591
 1740SOL     OW 6118   1.257   4.675   1.761  0.5761 -0.3764  0.0996
 1740SOL    HW1 6119   1.220   4.760   1.724 -1.4630 -1.1028  0.3721
 1740SOL    HW2 6120   1.285   4.689   1.856  1.8906  0.4071 -0.3794
 1741SOL     OW 6121   5.740   4.026   1.790  0.1442 -0.3049 -0.3598
 1741SOL    HW1 6122   5.791   4.016   1.875  1.1083  0.5501 -0.8180
 1741SOL    HW2 6123   5.712   4.121   1.778  1.1173 -0.1434 -1.5881
 1742SOL     OW 6124   5.226   0.345   6.295 -0.6725  0.0063  0.4144
 1742SOL    HW1 6125   5.150   0.337   6.359  1.1441 -0.3161  2.6596
 1742SOL    HW2 6126   5.290   0.414   6.327  0.5744 -0.5287 -0.8065
 1743SOL     OW 6127   4.780   6.071   1.883 -0.1013 -0.7746  0.1729
 1743SOL    HW1 6128   4.741   6.050   1.793 -1.4233 -0.6228  0.6934
 1743SOL    HW2 6129   4.725   6.028   1.954  1.2090 -1.2883  0.9105
 1744SOL     OW 6130   2.558   2.412   0.156 -0.3981  0.4592 -0.0297
 1744SOL    HW1 6131   2.516   2.391   0.245  0.3161 -0.0242  0.2038
 1744SOL    HW2 6132   2.488   2.447   0.094 -0.6716  2.0457  1.1201
 1745SOL     OW 6133   2.322   1.775   3.221 -0.4397 -0.5129  0.1936
 1745SOL    HW1 6134   2.368   1.765   3.309 -0.7512 -0.7734  0.3271
 1745SOL    HW2 6135   2.390   1.790   3.149 -0.1449 -0.9500  0.3831
 1746SOL     OW 6136   1.578   5.719   5.032 -0.7304 -0.3746 -0.0308
 1746SOL    HW1 6137   1.594   5.623   5.056  1.9921  0.0179  0.1030
 1746SOL    HW2 6138   1.627   5.778   5.096 -0.7053  1.0227 -1.2775
 1747SOL     OW 6139   6.972   5.406   0.665 -0.2908  0.3477 -0.0654
 1747SOL    HW1 6140   7.017   5.467   0.600 -0.5973  0.0887 -0.5270
 1747SOL    HW2 6141   7.041   5.361   0.722  0.0673 -0.2039 -0.9052
 1748SOL     OW 6142   1.401   3.667   2.576  0.3453 -0.5385  0.1342
 1748SOL    HW1 6143   1.401   3.623   2.486  0.0184  0.6169 -0.4585
 1748SOL    HW2 6144   1.342   3.616   2.639  1.8582 -2.2980  0.2036
 1749SOL     OW 6145   4.556   5.924   3.471  0.5035  0.4307 -0.3280
 1749SOL    HW1 6146   4.587   5.839   3.427  2.9729  0.1013  1.7591
 1749SOL    HW2 6147   4.459   5.916   3.494  0.5855 -1.7174 -0.4730
 1750SOL     OW 6148   2.228   5.535   6.766  0.2133 -0.0320 -0.1437
 1750SOL    HW1 6149   2.225   5.541   6.865 -0.5977  0.5318 -0.1930
 1750SOL    HW2 6150   2.232   5.627   6.727 -4.6801  0.1973 -0.7273
 1751SOL     OW 6151   5.131   2.979   4.954  0.1214  0.2264 -0.0665
 1751SOL    HW1 6152   5.045   3.005   4.909  0.1420 -0.8729 -0.7894
 1751SOL    HW2 6153   5.122   2.993   5.052 -0.6182  0.8387 -0.2075
 1752SOL     OW 6154   5.290   3.140   4.791 -0.3613 -0.5735 -0.4675
 1752SOL    HW1 6155   5.230   3.085   4.848  0.8156 -0.6192  0.7886
 1752SOL    HW2 6156   5.285   3.108   4.696 -1.7616 -1.0148 -0.2559
 1753SOL     OW 6157   1.535   0.573   5.664 -0.0007 -0.2179  1.0629
 1753SOL    HW1 6158   1.456   0.532   5.710  0.4651 -0.5656  1.5674
 1753SOL    HW2 6159   1.618   0.544   5.710  0.4848 -0.6118 -0.0412
 1754SOL     OW 6160   0.309   3.470   1.974  0.1082  0.1758 -0.0934
 1754SOL    HW1 6161   0.325   3.398   1.906  0.1269  0.9089 -0.8890
 1754SOL    HW2 6162   0.381   3.467   2.043 -0.3150 -1.0542  0.3224
 1755SOL     OW 6163   2.544   5.772   0.964 -0.0192  0.0136 -0.2073
 1755SOL    HW1 6164   2.459   5.820   0.942  0.1974 -0.1720 -1.5575
 1755SOL    HW2 6165   2.577   5.724   0.882  2.1794  1.3265 -0.1853
 1756SOL     OW 6166   4.106   3.128   5.320  0.5213 -0.0671  0.5615
 1756SOL    HW1 6167   4.033   3.077   5.273 -0.2788  1.1374  0.4488
 1756SOL    HW2 6168   4.182   3.066   5.341  0.0969 -1.0307 -0.6365
 1757SOL     OW 6169   4.208   2.255   1.743  0.5478  0.1853  0.4489
 1757SOL    HW1 6170   4.208   2.319   1.666  0.6205  0.1737  0.4392
 1757SOL    HW2 6171   4.117   2.253   1.785  0.0706 -0.9162 -0.5658
 1758SOL     OW 6172   1.910   1.212   1.685 -0.1371  0.2927 -0.7214
 1758SOL    HW1 6173   1.826   1.196   1.634 -0.4788 -0.2776  0.0002
 1758SOL    HW2 6174   1.889   1.267   1.767  0.1505 -0.0604 -0.4090
 1759SOL     OW 6175   2.549   5.364   6.593  0.5737 -0.3358  0.0378
 1759SOL    HW1 6176   2.526   5.451   6.639 -1.5564  0.1381 -1.7589
 1759SOL    HW2 6177   2.492   5.291   6.631 -0.8070 -0.0460 -1.3933
 1760SOL     OW 6178   1.577   4.040   4.820 -0.3894  0.1927 -0.4243
 1760SOL    HW1 6179   1.533   4.001   4.739 -0.6588 -0.1993 -0.0953
 1760SOL    HW2 6180   1.670   4.005   4.827 -0.3965  0.1534 -0.5152
 1761SOL     OW 6181   6.070   5.249   5.587  0.6053  0.2457 -0.7500
 1761SOL    HW1 6182   6.027   5.327   5.633  0.0349 -0.0815 -0.7256
 1761SOL    HW2 6183   6.083   5.174   5.653 -0.0407 -0.1563 -1.0726
 1762SOL     OW 6184   1.070   0.933   4.006  0.1056 -0.2444  0.1992
 1762SOL    HW1 6185   1.135   0.987   3.953 -0.5930 -0.5346 -1.0163
 1762SOL    HW2 6186   1.090   0.835   3.995  0.0980 -0.3031  0.6732
 1763SOL     OW 6187   2.712   5.702   6.584 -0.0537  0.7743  0.1353
 1763SOL    HW1 6188   2.763   5.644   6.520  1.5738  0.7703  1.3622
 1763SOL    HW2 6189   2.698   5.792   6.543  3.2035  1.6355  0.5992
 1764SOL     OW 6190   6.324   1.952   3.417 -0.0017 -0.0549  0.0157
 1764SOL    HW1 6191   6.411   1.974   3.373 -0.0630  1.7044  0.7124
 1764SOL    HW2 6192   6.250   2.003   3.373 -0.2568  0.6680  1.2311
 1765SOL     OW 6193   3.846   5.045   0.568 -0.5409 -0.2796  0.4643
 1765SOL    HW1 6194   3.766   5.100   0.544 -1.1763 -0.8108  1.3427
 1765SOL    HW2 6195   3.824   4.948   0.563  0.1254 -0.4404  0.4639
 1766SOL     OW 6196   1.297   6.516   0.557  0.5827 -0.1454  0.2622
 1766SOL    HW1 6197   1.225   6.567   0.604 -0.6199 -0.8865 -0.7100
 1766SOL    HW2 6198   1.312   6.429   0.603  1.8111  0.5652  1.2381
 1767SOL     OW 6199   6.740   4.525   0.459  0.6322 -0.0419  0.3001
 1767SOL    HW1 6200   6.687   4.610   0.457 -1.2844 -1.1958 -0.4637
 1767SOL    HW2 6201   6.709   4.469   0.535  2.1946  0.0771  1.0683
 1768SOL     OW 6202   3.171   5.007   2.614  0.7548  0.3077  0.3286
 1768SOL    HW1 6203   3.187   4.922   2.564  0.7484 -0.9244  2.2878
 1768SOL    HW2 6204   3.112   5.067   2.561  0.1808 -1.2043 -0.8121
 1769SOL     OW 6205   5.738   5.207   5.964 -0.1481  0.6369 -0.4478
 1769SOL    HW1 6206   5.705   5.177   5.874 -0.1914  1.3339 -0.6703
 1769SOL    HW2 6207   5.738   5.307   5.968  0.4755  0.6213  0.0992
 1770SOL     OW 6208   3.697   0.932   3.675 -0.1756  0.2509  0.1667
 1770SOL    HW1 6209   3.695   0.881   3.589 -1.6927 -0.2264  0.4474
 1770SOL    HW2 6210   3.705   0.867   3.751  1.5386  0.6898  0.3943
 1771SOL     OW 6211   0.433   3.740   2.370 -0.4340 -0.6102  0.5380
 1771SOL    HW1 6212   0.403   3.732   2.275 -0.7470  1.5598  0.3981
 1771SOL    HW2 6213   0.533   3.746   2.373 -0.2011 -3.4404  0.6325
 1772SOL     OW 6214   1.920   4.450   5.222 -0.1914 -0.0630  0.4273
 1772SOL    HW1 6215   1.934   4.460   5.123 -1.3194 -1.7158  0.0631
 1772SOL    HW2 6216   1.956   4.362   5.252  0.2482  0.4790  1.5294
 1773SOL     OW 6217   3.882   6.721   4.985 -0.2929 -0.0044 -0.3300
 1773SOL    HW1 6218   3.896   6.652   5.056  1.5770 -1.8528 -2.3600
 1773SOL    HW2 6219   3.932   6.695   4.902 -1.1471  2.8200 -1.8699
 1774SOL     OW 6220   5.456   5.536   2.796  0.8614 -0.4621  0.2805
 1774SOL    HW1 6221   5.433   5.580   2.709 -0.3664  2.0530  1.7572
 1774SOL    HW2 6222   5.494   5.445   2.779 -0.5690 -0.6036 -2.8152
 1775SOL     OW 6223   5.616   6.989   0.039  0.0618 -0.4644 -0.3155
 1775SOL    HW1 6224   5.632   7.002  -0.059 -0.6426  0.6563 -0.2932
 1775SOL    HW2 6225   5.690   7.032   0.091  0.4270 -1.0457 -0.3374
 1776SOL     OW 6226   4.781   3.654   1.108 -0.3214  0.2023  0.1843
 1776SOL    HW1 6227   4.840   3.706   1.045  1.9270 -1.1960  0.9981
 1776SOL    HW2 6228   4.837   3.587   1.156 -2.5435 -0.7552  1.5327
 1777SOL     OW 6229   3.497   2.700   0.220 -0.1661  0.3086 -0.2392
 1777SOL    HW1 6230   3.456   2.619   0.179  2.6707 -0.8253 -1.0750
 1777SOL    HW2 6231   3.478   2.700   0.318 -1.4993 -0.5036 -0.4680
 1778SOL     OW 6232   4.014   5.109   1.629  0.3384  0.6294 -0.1633
 1778SOL    HW1 6233   3.962   5.055   1.562  1.5363  1.0500 -1.4817
 1778SOL    HW2 6234   3.952   5.171   1.676 -0.5188  0.4688 -1.0356
 1779SOL     OW 6235   6.343   1.719   1.074  0.5468 -0.7580 -0.3827
 1779SOL    HW1 6236   6.344   1.751   1.169 -1.0153 -1.3659 -0.1360
 1779SOL    HW2 6237   6.427   1.749   1.028  1.0833  0.0003  1.0280
 1780SOL     OW 6238   4.179   6.061   6.850  0.1576  0.0977 -1.0666
 1780SOL    HW1 6239   4.222   6.150   6.864  1.3062 -0.4315 -1.0867
 1780SOL    HW2 6240   4.128   6.035   6.933  1.6884 -0.2153 -0.1840
 1781SOL     OW 6241   6.009   1.736   4.644 -0.1384  0.1554  0.7598
 1781SOL    HW1 6242   5.972   1.829   4.646  2.0728  1.0861  1.3458
 1781SOL    HW2 6243   6.031   1.706   4.736  0.5176 -0.3869  0.4344
 1782SOL     OW 6244   1.034   2.662   1.242 -0.4039 -0.5575  0.3437
 1782SOL    HW1 6245   0.980   2.580   1.261  0.1614 -0.7010  1.4264
 1782SOL    HW2 6246   0.992   2.741   1.286 -0.9233 -0.2548 -0.6630
 1783SOL     OW 6247   2.281   4.291   4.989  0.1726 -0.4992  0.6129
 1783SOL    HW1 6248   2.298   4.194   5.006 -2.8410 -1.0481  1.1254
 1783SOL    HW2 6249   2.184   4.311   5.005  0.4377  2.3593 -0.6956
 1784SOL     OW 6250   6.580   5.098   4.037  0.2774 -0.8564  0.1063
 1784SOL    HW1 6251   6.531   5.011   4.041 -1.9076  0.3074 -0.1417
 1784SOL    HW2 6252   6.519   5.170   4.006  2.6771  0.3657 -2.1834
 1785SOL     OW 6253   5.910   2.529   5.343 -0.2590  0.2204  0.0853
 1785SOL    HW1 6254   5.881   2.461   5.410 -0.3337  0.7510  0.5909
 1785SOL    HW2 6255   6.010   2.529   5.337 -0.2479  0.2388  0.2656
 1786SOL     OW 6256   5.077   1.728   2.339  0.3992  0.1412 -0.4049
 1786SOL    HW1 6257   5.028   1.730   2.252  2.8814  0.9770 -1.9109
 1786SOL    HW2 6258   5.077   1.820   2.378 -1.7088 -0.4634  1.1579
 1787SOL     OW 6259   5.023   3.019   5.654  0.6621  0.1071 -0.0882
 1787SOL    HW1 6260   4.986   2.984   5.569  0.4969 -2.4568  0.9647
 1787SOL    HW2 6261   5.095   2.958   5.687  0.9606  1.2260  1.4386
 1788SOL     OW 6262   4.232   1.192   6.609  0.0235  0.1651  0.2118
 1788SOL    HW1 6263   4.294   1.200   6.688  0.9458  2.6160 -0.6717
 1788SOL    HW2 6264   4.195   1.282   6.587  0.4626 -0.2707 -2.6552
 1789SOL     OW 6265   4.172   0.241   4.340 -0.1091  0.5128  0.5672
 1789SOL    HW1 6266   4.130   0.332   4.338 -1.2999  0.0187 -2.1456
 1789SOL    HW2 6267   4.251   0.240   4.278  0.1722 -0.1963  0.9298
 1790SOL     OW 6268   4.676   6.158   3.422 -0.1708 -0.0929 -0.3825
 1790SOL    HW1 6269   4.619   6.078   3.437 -0.4872 -0.1912 -1.9664
 1790SOL    HW2 6270   4.668   6.188   3.327  0.3189  1.5277  0.0434
 1791SOL     OW 6271   0.030   5.237   2.128  0.3313  0.2259  0.3390
 1791SOL    HW1 6272   0.084   5.182   2.064 -0.1839  1.3445 -1.1116
 1791SOL    HW2 6273  -0.067   5.231   2.105  0.3056  2.1271 -0.1978
 1792SOL     OW 6274   0.942   6.134   2.926  0.7044  0.0719 -0.4945
 1792SOL    HW1 6275   0.979   6.044   2.900 -1.1009 -0.5959 -0.8895
 1792SOL    HW2 6276   0.888   6.126   3.009  0.1786  0.6992 -0.7622
 1793SOL     OW 6277   3.749   5.689   6.483  0.0320  0.1868 -0.1241
 1793SOL    HW1 6278   3.739   5.616   6.551 -1.0079  0.2984 -0.1266
 1793SOL    HW2 6279   3.845   5.710   6.470  0.2741  2.4876  3.8339
 1794SOL     OW 6280   1.482   4.314   2.047  0.1669  0.3281  0.4288
 1794SOL    HW1 6281   1.474   4.397   2.103  2.2329  0.3756  0.7277
 1794SOL    HW2 6282   1.574   4.308   2.009  0.0551 -1.7994  0.3544
 1795SOL     OW 6283   2.124   1.601   1.162 -0.1732  0.2192  0.0984
 1795SOL    HW1 6284   2.089   1.587   1.070 -0.1490 -1.0543  0.2581
 1795SOL    HW2 6285   2.214   1.558   1.170 -0.1080  0.4467  0.6756
 1796SOL     OW 6286   4.650   0.022   6.492 -0.2430 -0.4678 -0.1101
 1796SOL    HW1 6287   4.685   0.003   6.584 -1.0741 -1.1750  0.0703
 1796SOL    HW2 6288   4.675   0.115   6.466 -0.6407  0.0172  1.1516
 1797SOL     OW 6289   3.786   0.576   2.446 -0.4769  0.1228 -0.3738
 1797SOL    HW1 6290   3.818   0.545   2.535 -0.8526  1.3017  0.1786
 1797SOL    HW2 6291   3.742   0.665   2.454 -0.6733  0.1770 -1.7117
 1798SOL     OW 6292   3.872   0.957   3.985 -0.1058  0.2773 -0.4076
 1798SOL    HW1 6293   3.923   0.878   3.952 -0.8371 -0.5855  0.4438
 1798SOL    HW2 6294   3.919   0.996   4.064  0.0462  0.4474 -0.5817
 1799SOL     OW 6295   6.262   4.162   3.517  0.4627 -0.4294 -0.4936
 1799SOL    HW1 6296   6.214   4.216   3.448  0.7007  0.0420 -0.2968
 1799SOL    HW2 6297   6.221   4.071   3.524  0.2643 -0.3817 -1.0576
 1800SOL     OW 6298   0.024   2.458   0.277  0.1511 -0.3107 -0.5776
 1800SOL    HW1 6299   0.024   2.361   0.252 -0.5231 -0.6713  0.7091
 1800SOL    HW2 6300   0.073   2.469   0.364 -0.9966  0.2922  0.0043
 1801SOL     OW 6301   0.153   1.582   1.055  0.2600  0.2135 -0.5916
 1801SOL    HW1 6302   0.169   1.505   1.116  0.6120  0.3202 -0.5475
 1801SOL    HW2 6303   0.064   1.622   1.075 -0.0305 -0.3291 -0.7770
 1802SOL     OW 6304   4.711   0.970   0.115  0.4646  0.6345  0.8315
 1802SOL    HW1 6305   4.770   0.918   0.177 -0.0313  0.7563  1.4154
 1802SOL    HW2 6306   4.759   1.053   0.086 -0.3543  2.1152  3.4108
 1803SOL     OW 6307   2.882   3.538   2.683 -0.4263  0.9442 -0.3731
 1803SOL    HW1 6308   2.895   3.563   2.779 -0.7024  0.4017 -0.1871
 1803SOL    HW2 6309   2.925   3.449   2.666  0.0171  1.2472 -0.8681
 1804SOL     OW 6310   0.225   0.571   4.839 -0.5430  0.2196  0.0590
 1804SOL    HW1 6311   0.188   0.646   4.784 -0.0383  1.5133  1.3885
 1804SOL    HW2 6312   0.302   0.529   4.791 -1.1483  0.2251 -0.9251
 1805SOL     OW 6313   0.414   6.073   1.959  0.2824  0.2946 -0.3863
 1805SOL    HW1 6314   0.424   6.125   1.874 -2.9682  0.3438 -0.8630
 1805SOL    HW2 6315   0.356   6.124   2.023  0.4898 -0.9136  0.7997
 1806SOL     OW 6316   5.131   6.830   5.292 -0.1212 -0.1551 -0.1033
 1806SOL    HW1 6317   5.160   6.925   5.275 -0.9067 -0.0917 -1.2379
 1806SOL    HW2 6318   5.093   6.792   5.207 -0.6538 -1.1841  0.5835
 1807SOL     OW 6319   5.142   3.413   5.813  0.5359  0.3335  0.9852
 1807SOL    HW1 6320   5.152   3.369   5.902  1.6749  0.3294  0.8591
 1807SOL    HW2 6321   5.067   3.479   5.818 -2.1537 -2.4625  0.8245
 1808SOL     OW 6322   4.687   5.490   6.270 -0.2652 -0.4352 -0.3280
 1808SOL    HW1 6323   4.720   5.559   6.205 -1.7896  0.2379 -0.4181
 1808SOL    HW2 6324   4.611   5.439   6.229 -1.0051 -0.2577  0.7915
 1809SOL     OW 6325   4.476   5.401   4.708  0.1770 -0.0155  0.6351
 1809SOL    HW1 6326   4.413   5.325   4.724  0.0531  0.3507  2.0517
 1809SOL    HW2 6327   4.531   5.417   4.790  0.6319  1.0390  0.1538
 1810SOL     OW 6328   0.259   2.314   4.034 -0.0051  0.3370  0.7408
 1810SOL    HW1 6329   0.314   2.330   3.952  0.4411  0.6477  1.0975
 1810SOL    HW2 6330   0.162   2.327   4.012  0.1601  1.0572  0.4087
 1811SOL     OW 6331   1.571   2.866   0.093  0.6467  0.0200 -0.1342
 1811SOL    HW1 6332   1.557   2.793   0.160 -0.6953  0.5702  0.2284
 1811SOL    HW2 6333   1.630   2.834   0.020  3.9789  0.0143  2.3184
 1812SOL     OW 6334   3.898   0.936   2.409  0.1613 -0.7412 -0.2276
 1812SOL    HW1 6335   3.837   0.876   2.462 -0.6692 -0.6350 -1.0335
 1812SOL    HW2 6336   3.979   0.958   2.463 -2.3914  2.6666  2.7055
 1813SOL     OW 6337   2.010   6.469   1.425  0.8432  0.3549  0.1151
 1813SOL    HW1 6338   1.959   6.517   1.353 -1.9249  0.5174  2.0509
 1813SOL    HW2 6339   2.003   6.370   1.411 -0.3816  0.3661  0.5674
 1814SOL     OW 6340   5.973   3.788   4.290 -0.8391  0.3009  0.5206
 1814SOL    HW1 6341   6.061   3.772   4.244 -0.2234  0.1120  1.7151
 1814SOL    HW2 6342   5.902   3.732   4.247  0.6550 -3.6843  2.7462
 1815SOL     OW 6343   3.723   3.671   6.766 -0.0710  0.4226 -0.6268
 1815SOL    HW1 6344   3.748   3.596   6.705  0.5522  0.6951 -0.7207
 1815SOL    HW2 6345   3.804   3.727   6.784 -0.1307  0.0931  0.7985
 1816SOL     OW 6346   0.243   4.369   3.486 -0.4074 -0.0170 -0.0746
 1816SOL    HW1 6347   0.217   4.449   3.540 -0.1734 -1.7846  2.8674
 1816SOL    HW2 6348   0.177   4.296   3.500  0.7568 -1.2157 -0.5859
 1817SOL     OW 6349   1.620   5.406   4.495 -0.8343 -0.4066 -0.1944
 1817SOL    HW1 6350   1.530   5.398   4.538 -0.2350  0.1597  1.2296
 1817SOL    HW2 6351   1.676   5.328   4.523 -0.3846  0.0533  0.1919
 1818SOL     OW 6352   6.239   0.634   1.591  0.0757  0.7099  0.0563
 1818SOL    HW1 6353   6.298   0.698   1.542 -1.0737  0.5499 -1.6095
 1818SOL    HW2 6354   6.241   0.655   1.689  0.0720  3.0165 -0.3890
 1819SOL     OW 6355   1.277   0.878   5.827  0.4849  0.3179 -0.4573
 1819SOL    HW1 6356   1.282   0.976   5.807  0.8584 -0.0766 -2.5462
 1819SOL    HW2 6357   1.195   0.840   5.786  0.2118 -0.2165  0.5598
 1820SOL     OW 6358   3.336   1.181   5.784  0.2047 -0.3302  0.1284
 1820SOL    HW1 6359   3.285   1.229   5.855 -0.4765 -1.4214  0.3981
 1820SOL    HW2 6360   3.320   1.225   5.696  0.8021  0.8368  0.5887
 1821SOL     OW 6361   6.225   3.290   2.891  0.1761  0.0008  0.6411
 1821SOL    HW1 6362   6.152   3.229   2.861  0.7889  0.0753 -1.0741
 1821SOL    HW2 6363   6.261   3.257   2.979 -2.6834  0.6635  2.1884
 1822SOL     OW 6364   5.042   4.806   5.023  0.6638  0.4520  0.4805
 1822SOL    HW1 6365   5.018   4.743   4.949 -2.5752  2.0321  0.0200
 1822SOL    HW2 6366   5.094   4.756   5.093 -0.5847 -2.3979 -0.4601
 1823SOL     OW 6367   1.926   0.276   4.291  0.6864  0.1755 -0.0852
 1823SOL    HW1 6368   1.993   0.271   4.366  0.0887  4.0514  0.9756
 1823SOL    HW2 6369   1.972   0.262   4.204  2.2008 -0.5066  0.7789
 1824SOL     OW 6370   5.041   2.731   2.717 -0.4630  0.3740  0.1601
 1824SOL    HW1 6371   4.967   2.795   2.738 -1.4213 -0.2559 -1.2052
 1824SOL    HW2 6372   5.018   2.677   2.636  1.5725  0.3037 -0.4496
 1825SOL     OW 6373   6.570   3.830   4.696  0.0566 -0.3717 -0.2654
 1825SOL    HW1 6374   6.609   3.880   4.774 -0.2872 -1.0208  0.3220
 1825SOL    HW2 6375   6.589   3.882   4.612  1.3802 -0.2012  0.1034
 1826SOL     OW 6376   2.627   5.929   2.114 -0.5193 -0.3070 -0.3857
 1826SOL    HW1 6377   2.586   5.936   2.205 -2.1097  0.4221 -1.1204
 1826SOL    HW2 6378   2.579   5.858   2.062 -1.3754  1.0225 -1.4932
 1827SOL     OW 6379   4.108   3.654   4.807  0.4887  0.5603 -0.2239
 1827SOL    HW1 6380   4.053   3.680   4.728 -0.4483  0.6019  0.4245
 1827SOL    HW2 6381   4.193   3.707   4.807  0.5235  0.5203 -1.2247
 1828SOL     OW 6382   2.055   3.666   1.983 -0.4800  0.1009 -0.5769
 1828SOL    HW1 6383   1.982   3.635   1.922 -0.4604  1.1663 -1.1769
 1828SOL    HW2 6384   2.115   3.590   2.006 -1.9670 -0.8748  0.2009
 1829SOL     OW 6385   3.452   4.037   3.690  0.5248  0.2700  0.8313
 1829SOL    HW1 6386   3.524   4.076   3.747  0.9945  0.2966  0.2339
 1829SOL    HW2 6387   3.369   4.025   3.744  1.0336  0.0601  1.5748
 1830SOL     OW 6388   0.826   5.849   2.919 -0.2866 -1.1145  0.1854
 1830SOL    HW1 6389   0.866   5.765   2.956  0.7578 -0.3849  0.7736
 1830SOL    HW2 6390   0.792   5.906   2.994  0.4937 -0.2914 -0.0688
 1831SOL     OW 6391   4.152   1.746   3.572  0.1055  0.3062  0.2138
 1831SOL    HW1 6392   4.143   1.843   3.598 -1.5563  0.1893  0.1571
 1831SOL    HW2 6393   4.128   1.735   3.476 -2.4029 -0.5180  0.8728
 1832SOL     OW 6394   2.498   4.527   5.456 -0.1425 -0.4248 -0.2608
 1832SOL    HW1 6395   2.546   4.605   5.496 -0.5935  1.1737 -2.6558
 1832SOL    HW2 6396   2.560   4.474   5.398 -0.5723 -0.0117 -1.1100
 1833SOL     OW 6397   3.575   6.142   1.575  0.1059 -0.3005  0.0181
 1833SOL    HW1 6398   3.603   6.194   1.655  0.2431 -2.4995  1.5027
 1833SOL    HW2 6399   3.477   6.152   1.561  0.3776  1.6834 -0.8227
 1834SOL     OW 6400   3.891   3.990   5.317 -0.2128 -0.2942  0.2247
 1834SOL    HW1 6401   3.874   3.982   5.415 -0.4233 -1.2869  0.1166
 1834SOL    HW2 6402   3.984   3.958   5.296  0.5073  1.6368  0.3290
 1835SOL     OW 6403   1.810   6.853   4.892  0.2040 -0.7466 -0.4507
 1835SOL    HW1 6404   1.717   6.870   4.925  0.4327 -0.9114  0.2917
 1835SOL    HW2 6405   1.809   6.775   4.830 -0.4539  0.4022 -1.9592
 1836SOL     OW 6406   6.337   1.880   4.378  0.1700 -0.7437 -0.1831
 1836SOL    HW1 6407   6.300   1.802   4.428 -1.1567  0.3829  0.6993
 1836SOL    HW2 6408   6.433   1.893   4.402 -0.1474 -0.8896  1.2504
 1837SOL     OW 6409   1.334   2.485   4.302 -0.1276 -0.0017  0.8167
 1837SOL    HW1 6410   1.369   2.399   4.339 -0.1721 -1.9957 -3.1835
 1837SOL    HW2 6411   1.235   2.478   4.290 -0.4281  1.4142  2.1633
 1838SOL     OW 6412   5.479   3.254   6.886  0.0562  0.3408 -0.3259
 1838SOL    HW1 6413   5.556   3.291   6.835  0.7726 -2.3240 -1.3733
 1838SOL    HW2 6414   5.408   3.224   6.822  0.0270 -1.0789  0.3198
 1839SOL     OW 6415   4.147   0.911   6.122 -0.0803 -0.0471 -0.1637
 1839SOL    HW1 6416   4.118   0.841   6.057 -1.3549  3.1456 -3.3924
 1839SOL    HW2 6417   4.068   0.938   6.178  0.1041 -0.3222  0.2349
 1840SOL     OW 6418   2.459   5.167   0.305 -0.6367  0.2056  0.0550
 1840SOL    HW1 6419   2.555   5.152   0.279 -0.4180 -0.0228  0.9705
 1840SOL    HW2 6420   2.423   5.083   0.346 -0.2117  1.2696  2.8055
 1841SOL     OW 6421   5.906   5.517   0.892 -1.0156 -0.8961 -0.9296
 1841SOL    HW1 6422   5.959   5.567   0.824 -1.6377 -2.1780 -2.4327
 1841SOL    HW2 6423   5.813   5.504   0.858 -2.5301  1.6267  1.7835
 1842SOL     OW 6424   4.803   5.442   3.288  0.4397  0.0955 -0.4506
 1842SOL    HW1 6425   4.756   5.398   3.365 -0.0921 -2.4995 -2.1224
 1842SOL    HW2 6426   4.874   5.504   3.323  0.3109 -1.0690  2.1067
 1843SOL     OW 6427   3.948   5.237   0.692  0.2656 -0.3095 -0.1050
 1843SOL    HW1 6428   3.912   5.157   0.643 -1.9521  0.7104 -0.2743
 1843SOL    HW2 6429   3.920   5.232   0.788 -0.9550  0.8162 -0.3730
 1844SOL     OW 6430   4.312   1.280   0.027 -0.6096 -0.3849 -0.9768
 1844SOL    HW1 6431   4.222   1.247  -0.002 -1.0648 -0.0486 -0.0165
 1844SOL    HW2 6432   4.332   1.245   0.119 -0.7461  1.2900 -0.2642
 1845SOL     OW 6433   0.726   5.422   5.950 -0.2682 -0.4869 -0.8644
 1845SOL    HW1 6434   0.777   5.407   5.865 -0.0017  0.2318 -0.8360
 1845SOL    HW2 6435   0.724   5.337   6.003  1.9912 -0.2356 -0.2704
 1846SOL     OW 6436   4.671   1.835   0.347 -0.4562  0.2916 -0.1161
 1846SOL    HW1 6437   4.592   1.890   0.322 -0.4660  0.2309 -0.2209
 1846SOL    HW2 6438   4.748   1.858   0.287 -0.1318  0.9700  0.5381
 1847SOL     OW 6439   6.183   4.581   3.751  0.7943 -0.6877  0.7142
 1847SOL    HW1 6440   6.259   4.516   3.758  1.3000 -0.0620  1.1016
 1847SOL    HW2 6441   6.195   4.638   3.671 -0.9037 -2.6218 -1.0469
 1848SOL     OW 6442   5.172   2.254   1.540  0.3379  0.0502  0.3191
 1848SOL    HW1 6443   5.153   2.345   1.576 -1.8218  0.7215 -2.2054
 1848SOL    HW2 6444   5.191   2.260   1.442  0.0050 -2.2280  0.0650
 1849SOL     OW 6445   3.420   0.111   4.064 -0.8730 -0.2356 -0.1057
 1849SOL    HW1 6446   3.444   0.127   4.159  1.2174  1.6847 -0.8556
 1849SOL    HW2 6447   3.333   0.156   4.043 -0.6104  0.5989  0.5477
 1850SOL     OW 6448   0.836   1.504   1.395  0.8822 -0.9361  0.9078
 1850SOL    HW1 6449   0.756   1.532   1.447  0.9854 -2.5116  1.9719
 1850SOL    HW2 6450   0.831   1.542   1.302 -1.5566 -1.7428  0.6336
 1851SOL     OW 6451   6.521   1.560   5.021  0.0026  0.3911 -0.1628
 1851SOL    HW1 6452   6.612   1.552   5.063 -0.4761 -0.7815  0.6920
 1851SOL    HW2 6453   6.482   1.649   5.043  0.1876  0.1874  1.0404
 1852SOL     OW 6454   2.966   3.698   4.211  0.1147 -0.7685 -0.2808
 1852SOL    HW1 6455   3.044   3.760   4.222 -0.6111  0.5551 -2.0498
 1852SOL    HW2 6456   2.924   3.712   4.121 -0.5610 -3.3420 -0.4523
 1853SOL     OW 6457   4.573   3.269   0.132 -0.4628  0.6408  0.2803
 1853SOL    HW1 6458   4.490   3.224   0.165 -0.4585 -0.1144 -0.6937
 1853SOL    HW2 6459   4.559   3.298   0.037 -0.6332  3.1295  0.9958
 1854SOL     OW 6460   4.269   5.214   0.034  0.1845  0.2683  0.1562
 1854SOL    HW1 6461   4.368   5.229   0.042  0.2920 -0.1876 -0.2234
 1854SOL    HW2 6462   4.248   5.120   0.062 -0.0178  0.0845 -0.5772
 1855SOL     OW 6463   0.606   5.671   0.753 -0.4539  0.3517  0.0073
 1855SOL    HW1 6464   0.509   5.676   0.729  0.1641 -0.3724 -2.9935
 1855SOL    HW2 6465   0.630   5.575   0.772  0.0672  0.2297 -1.2202
 1856SOL     OW 6466   6.022   5.511   6.722  1.1984  0.4457 -0.2655
 1856SOL    HW1 6467   6.083   5.538   6.648  0.2477 -0.7314 -1.5386
 1856SOL    HW2 6468   5.999   5.414   6.712  1.9715 -0.0803  2.2767
 1857SOL     OW 6469   4.569   0.021   0.198 -0.0428 -0.4467  0.0206
 1857SOL    HW1 6470   4.591   0.050   0.105  0.2110 -0.9716 -0.0830
 1857SOL    HW2 6471   4.632  -0.051   0.227 -0.1776 -0.3506  0.5661
 1858SOL     OW 6472   2.970   5.815   3.142  0.2404  0.5840 -0.8135
 1858SOL    HW1 6473   2.931   5.902   3.114  2.2572  1.4057 -1.2350
 1858SOL    HW2 6474   3.026   5.828   3.224 -0.5095 -0.5975 -0.0781
 1859SOL     OW 6475   2.020   4.642   1.742  0.5035  0.4373  0.1931
 1859SOL    HW1 6476   1.949   4.677   1.804  0.6947 -0.8791  1.1932
 1859SOL    HW2 6477   2.073   4.719   1.707 -0.5220  1.3349  0.5283
 1860SOL     OW 6478   0.359   5.614   0.252  0.1116  0.3831  0.2317
 1860SOL    HW1 6479   0.375   5.583   0.159 -1.8513  0.2881 -0.1198
 1860SOL    HW2 6480   0.432   5.581   0.312 -0.5974 -2.9730 -0.5447
 1861SOL     OW 6481   0.929   6.117   3.792 -0.1513  0.2633  0.4774
 1861SOL    HW1 6482   0.918   6.153   3.700  0.7002  2.6351  1.2065
 1861SOL    HW2 6483   1.006   6.163   3.836  0.1221 -1.5720  2.0271
 1862SOL     OW 6484   2.478   1.942   5.748  0.4044  0.1201 -0.3093
 1862SOL    HW1 6485   2.390   1.964   5.791  1.4201 -0.2577  2.0805
 1862SOL    HW2 6486   2.524   2.027   5.722  0.6797  0.5260  1.3530
 1863SOL     OW 6487   2.920   2.457   5.772 -0.2797  0.1812 -0.5477
 1863SOL    HW1 6488   2.970   2.391   5.828 -2.3969 -0.0869  1.1862
 1863SOL    HW2 6489   2.962   2.547   5.780 -0.6371  0.2024  1.7885
 1864SOL     OW 6490   2.731   5.230   4.161  0.1658 -0.5632  0.3223
 1864SOL    HW1 6491   2.761   5.297   4.229  0.6486 -0.2456 -0.1904
 1864SOL    HW2 6492   2.809   5.201   4.106 -0.2726 -0.5338 -0.3369
 1865SOL     OW 6493   2.265   2.923   4.580 -0.7200  0.3360  0.0619
 1865SOL    HW1 6494   2.268   2.908   4.679 -0.1477  2.4065  0.4086
 1865SOL    HW2 6495   2.272   3.021   4.561 -1.5965  0.0478 -2.0174
 1866SOL     OW 6496   4.186   6.537   5.959  0.4454  0.3514 -0.2708
 1866SOL    HW1 6497   4.211   6.491   5.874  2.7135  0.6377  0.1795
 1866SOL    HW2 6498   4.226   6.628   5.960 -1.5041  1.2534  0.1455
 1867SOL     OW 6499   5.570   1.595   3.574 -0.0181  0.7537  0.6696
 1867SOL    HW1 6500   5.471   1.605   3.588 -0.3970 -0.4838 -0.8643
 1867SOL    HW2 6501   5.615   1.681   3.598 -1.7699  2.2428 -0.9790
 1868SOL     OW 6502   1.712   2.531   4.207  0.4729 -0.3351 -0.1964
 1868SOL    HW1 6503   1.778   2.458   4.188  0.0126 -1.0829  0.9153
 1868SOL    HW2 6504   1.759   2.608   4.249  0.5401 -1.2964  1.6141
 1869SOL     OW 6505   2.529   1.871   4.379  0.5680  0.1698  0.3754
 1869SOL    HW1 6506   2.496   1.799   4.440  0.9857 -0.9261 -0.6590
 1869SOL    HW2 6507   2.465   1.948   4.380 -1.6919 -1.5913 -1.0340
 1870SOL     OW 6508   2.013   1.292   6.002  0.8720  0.4971 -0.4011
 1870SOL    HW1 6509   2.079   1.225   6.033  1.1517  0.1870 -1.6004
 1870SOL    HW2 6510   2.039   1.325   5.911 -1.2827 -0.5756 -1.4696
 1871SOL     OW 6511   3.396   4.533   0.607 -0.0507 -0.1539  0.2488
 1871SOL    HW1 6512   3.408   4.546   0.509 -0.0397 -1.2890  0.0843
 1871SOL    HW2 6513   3.470   4.476   0.642  0.4107  0.9129  1.0890
 1872SOL     OW 6514   1.367   5.688   1.540  0.4846  0.5302 -0.5004
 1872SOL    HW1 6515   1.307   5.763   1.512 -3.2419 -2.1530 -0.5873
 1872SOL    HW2 6516   1.398   5.638   1.459 -0.4095 -0.2854 -0.3647
 1873SOL     OW 6517   0.960   1.996   4.785 -0.1672 -0.0244  0.5494
 1873SOL    HW1 6518   1.039   2.041   4.827 -0.0077 -0.2346  0.4784
 1873SOL    HW2 6519   0.897   2.065   4.749  0.3777  0.1305 -0.1279
 1874SOL     OW 6520   2.832   2.298   3.498 -0.4275 -0.2923  0.1253
 1874SOL    HW1 6521   2.798   2.222   3.553 -0.1671  1.4103  2.7925
 1874SOL    HW2 6522   2.928   2.283   3.475 -0.4163 -0.8053  0.5053
 1875SOL     OW 6523   6.553   4.832   5.467 -0.0010 -0.1114 -0.1093
 1875SOL    HW1 6524   6.633   4.772   5.473 -0.0446 -0.1660 -0.0581
 1875SOL    HW2 6525   6.495   4.802   5.391  0.1930  0.1340 -0.3548
 1876SOL     OW 6526   5.480   4.316   1.767 -0.3125 -0.0129  0.0389
 1876SOL    HW1 6527   5.462   4.375   1.688  0.7493  1.0683  0.5681
 1876SOL    HW2 6528   5.516   4.371   1.842 -0.7805 -1.1097  1.1056
 1877SOL     OW 6529   3.253   3.356   1.452  0.0304 -0.3239 -0.0488
 1877SOL    HW1 6530   3.308   3.278   1.422  0.4877 -1.0347  2.4191
 1877SOL    HW2 6531   3.156   3.333   1.447  0.1819 -1.3348  1.2710
 1878SOL     OW 6532   2.294   5.059   4.040  0.6282 -0.5142  0.4187
 1878SOL    HW1 6533   2.387   5.083   4.014  0.2185  1.1348  0.3677
 1878SOL    HW2 6534   2.290   4.961   4.062  2.3656 -0.6116  0.4731
 1879SOL     OW 6535   4.526   2.008   2.685 -0.3929  0.6140 -0.6061
 1879SOL    HW1 6536   4.621   2.002   2.653 -0.8379  2.2138 -2.4530
 1879SOL    HW2 6537   4.476   1.926   2.657  0.4250 -0.2846  0.4597
 1880SOL     OW 6538   6.565   5.430   1.507  0.1143  0.1143 -0.3278
 1880SOL    HW1 6539   6.613   5.360   1.560  0.1210  1.0079  0.8758
 1880SOL    HW2 6540   6.631   5.481   1.452  0.2493 -0.1278 -0.3910
 1881SOL     OW 6541   3.184   3.176   3.933 -0.1690 -0.2817 -0.4577
 1881SOL    HW1 6542   3.117   3.221   3.875  1.1032  0.6757 -1.2412
 1881SOL    HW2 6543   3.251   3.128   3.876 -0.0334 -1.0207  0.2926
 1882SOL     OW 6544   6.539   3.685   3.216  0.1589  0.1074  0.2770
 1882SOL    HW1 6545   6.480   3.607   3.192  0.3342  0.3277 -0.9390
 1882SOL    HW2 6546   6.511   3.722   3.304 -1.6355  0.2932 -0.3268
 1883SOL     OW 6547   6.013   3.965   1.099  0.0349  0.1434  0.4579
 1883SOL    HW1 6548   6.107   3.955   1.130  0.2896  0.2316 -0.2704
 1883SOL    HW2 6549   5.990   4.062   1.093  0.4003  0.1633 -0.8237
 1884SOL     OW 6550   4.495   6.025   2.450 -0.0906  0.0183  0.0115
 1884SOL    HW1 6551   4.401   6.031   2.416 -0.0394  4.1011  0.2078
 1884SOL    HW2 6552   4.559   6.048   2.376  0.5377  0.6207  0.7289
 1885SOL     OW 6553   2.166   6.759   0.121 -0.3333  0.4355  0.0501
 1885SOL    HW1 6554   2.164   6.659   0.127  0.5927  0.4252  0.2610
 1885SOL    HW2 6555   2.078   6.792   0.086  0.2304 -0.6062 -2.5590
 1886SOL     OW 6556   5.160   2.236   0.884 -0.4835 -0.3563 -0.4807
 1886SOL    HW1 6557   5.247   2.188   0.870 -0.9040 -1.5645  0.8989
 1886SOL    HW2 6558   5.092   2.172   0.918 -1.0964  1.1904  1.3166
 1887SOL     OW 6559   1.655   0.489   1.543  0.6820  0.4366  0.2423
 1887SOL    HW1 6560   1.629   0.403   1.586 -1.4493  0.8265 -0.1062
 1887SOL    HW2 6561   1.664   0.475   1.444  1.6733  0.3467  0.3411
 1888SOL     OW 6562   1.407   3.717   6.253  0.0867  0.1527  0.2732
 1888SOL    HW1 6563   1.498   3.734   6.217 -0.5950  0.4130 -1.4453
 1888SOL    HW2 6564   1.367   3.804   6.284  0.9914 -0.1832  2.6114
 1889SOL     OW 6565   4.850   4.377   1.111 -0.0221 -0.4052  0.0238
 1889SOL    HW1 6566   4.851   4.474   1.088 -2.9532 -0.0618  1.0128
 1889SOL    HW2 6567   4.830   4.366   1.208  1.1798 -2.0423  0.1406
 1890SOL     OW 6568   4.904   3.264   2.929 -0.4287 -0.2073 -0.6039
 1890SOL    HW1 6569   4.897   3.356   2.967  0.3397 -1.2277  2.2514
 1890SOL    HW2 6570   5.000   3.243   2.912 -0.2124 -1.5381  1.8459
 1891SOL     OW 6571   1.145   5.404   6.691 -0.2016 -0.1053 -0.7727
 1891SOL    HW1 6572   1.171   5.371   6.600 -2.0099  0.4216 -1.5237
 1891SOL    HW2 6573   1.108   5.328   6.745  1.7244 -0.6210 -0.0915
 1892SOL     OW 6574   3.685   1.603   0.053  0.0354  0.3726  0.1316
 1892SOL    HW1 6575   3.725   1.648  -0.027 -1.6572 -0.8983 -1.5111
 1892SOL    HW2 6576   3.757   1.584   0.120  1.6818  0.6140 -1.5045
 1893SOL     OW 6577   1.218   0.792   3.619  0.1735 -0.1959 -0.7678
 1893SOL    HW1 6578   1.223   0.758   3.713 -0.4983 -0.9093 -0.9810
 1893SOL    HW2 6579   1.123   0.808   3.594  0.2756 -0.8955 -1.6357
 1894SOL     OW 6580   4.877   2.611   4.993  0.0363 -0.8043  0.4542
 1894SOL    HW1 6581   4.830   2.522   4.989  1.4680 -1.6530  1.5922
 1894SOL    HW2 6582   4.975   2.596   5.004  0.2538  0.9388  1.1773
 1895SOL     OW 6583   5.799   2.602   3.419 -0.3123  0.2484 -0.7492
 1895SOL    HW1 6584   5.810   2.701   3.428  0.5205  0.1230 -0.2072
 1895SOL    HW2 6585   5.825   2.573   3.327  2.5372  0.1927 -0.0330
 1896SOL     OW 6586   3.994   3.237   4.533  0.1796 -0.4397 -0.8941
 1896SOL    HW1 6587   4.041   3.208   4.617  0.9640 -1.5613 -1.6884
 1896SOL    HW2 6588   3.899   3.260   4.554  0.6857  0.4745  0.5011
 1897SOL     OW 6589   5.804   2.520   2.343  0.4259  0.0260  0.3067
 1897SOL    HW1 6590   5.889   2.467   2.344  0.5736  0.2321 -0.3253
 1897SOL    HW2 6591   5.763   2.514   2.252  0.4466  0.9902  0.2249
 1898SOL     OW 6592   3.464   0.296   5.022 -0.0961  0.4384 -0.5377
 1898SOL    HW1 6593   3.464   0.394   5.000  2.8925  0.5358 -0.5542
 1898SOL    HW2 6594   3.519   0.248   4.955 -0.6991 -1.1286  0.0571
 1899SOL     OW 6595   2.058   1.205   3.246  0.9776  0.4024  0.2223
 1899SOL    HW1 6596   1.961   1.227   3.234  1.5082  1.9487 -1.8145
 1899SOL    HW2 6597   2.113   1.264   3.186  3.0811 -1.5189  0.1543
 1900SOL     OW 6598   6.447   5.352   3.665 -0.2560  0.3235 -0.1347
 1900SOL    HW1 6599   6.457   5.377   3.762  1.4572 -1.8839  0.3499
 1900SOL    HW2 6600   6.396   5.424   3.617  1.6608  3.0881  1.6775
 1901SOL     OW 6601   0.909   2.199   0.017  0.3007 -0.1665 -0.2607
 1901SOL    HW1 6602   0.830   2.183   0.076 -0.0226 -2.3302 -1.2024
 1901SOL    HW2 6603   0.912   2.295  -0.009 -0.4808  0.5069  1.9177
 1902SOL     OW 6604   2.787   0.220   2.335  0.4696 -0.4464  0.0072
 1902SOL    HW1 6605   2.764   0.304   2.385  0.2763 -1.5270  1.8071
 1902SOL    HW2 6606   2.841   0.160   2.394  3.3592 -0.3138 -2.2742
 1903SOL     OW 6607   0.608   5.680   6.281  0.9073  0.5757  0.5087
 1903SOL    HW1 6608   0.578   5.589   6.252  0.6918  0.3924  1.2846
 1903SOL    HW2 6609   0.708   5.685   6.276  1.1076 -0.4867  2.6100
 1904SOL     OW 6610   0.238   4.248   6.938  0.1411  0.2187 -0.2230
 1904SOL    HW1 6611   0.158   4.267   6.882  0.5579  2.7024 -0.0772
 1904SOL    HW2 6612   0.219   4.273   7.033  0.8353  0.0785 -0.0389
 1905SOL     OW 6613   6.358   1.656   2.411 -0.3173 -0.3230  0.6296
 1905SOL    HW1 6614   6.431   1.596   2.377 -1.7384 -1.5102 -0.4773
 1905SOL    HW2 6615   6.325   1.622   2.499 -1.2739 -1.3909 -0.0987
 1906SOL     OW 6616   5.083   1.124   4.289  0.2948 -0.0886 -0.2982
 1906SOL    HW1 6617   5.160   1.060   4.284  0.2323 -0.2124  0.3247
 1906SOL    HW2 6618   5.001   1.075   4.319  0.7744  0.7182  2.6100
 1907SOL     OW 6619   1.340   1.416   5.230  0.2185  0.4113  0.5751
 1907SOL    HW1 6620   1.339   1.491   5.296  0.7400 -0.6244  1.7972
 1907SOL    HW2 6621   1.249   1.376   5.223 -0.4457  2.0901 -1.2357
 1908SOL     OW 6622   3.757   6.911   3.989  0.1468 -0.0605 -0.4081
 1908SOL    HW1 6623   3.724   7.005   3.975 -3.5422 -1.0906  0.2769
 1908SOL    HW2 6624   3.804   6.906   4.077 -2.6052  0.6115  1.2421
 1909SOL     OW 6625   6.951   5.264   3.203  0.2110  0.2796 -0.2298
 1909SOL    HW1 6626   6.881   5.239   3.137  0.0909 -1.6694  0.5769
 1909SOL    HW2 6627   6.984   5.182   3.250  0.4747  1.5378  1.9424
 1910SOL     OW 6628   0.531   1.720   1.148  0.1246 -0.2580 -0.1399
 1910SOL    HW1 6629   0.617   1.670   1.155  1.3927  1.7771 -0.2474
 1910SOL    HW2 6630   0.498   1.716   1.054  0.6220 -0.2812 -0.3175
 1911SOL     OW 6631   1.384   3.466   2.830 -0.7330 -0.0059 -0.2930
 1911SOL    HW1 6632   1.454   3.442   2.762  1.7577 -1.3419  2.5160
 1911SOL    HW2 6633   1.356   3.384   2.879  0.0102  1.2116  2.4025
 1912SOL     OW 6634   2.058   3.602   4.239  0.1599 -0.3694  0.0190
 1912SOL    HW1 6635   2.040   3.680   4.179 -0.3846 -0.9488 -0.5818
 1912SOL    HW2 6636   2.089   3.635   4.328  1.6215  0.4880 -0.7774
 1913SOL     OW 6637   4.213   5.303   2.525  0.1655 -0.4300  0.6791
 1913SOL    HW1 6638   4.216   5.204   2.534  1.3561 -0.4881 -0.1878
 1913SOL    HW2 6639   4.147   5.329   2.455 -1.4786 -0.4903  2.1431
 1914SOL     OW 6640   1.712   1.334   4.983 -0.1692  0.3160  0.0252
 1914SOL    HW1 6641   1.791   1.316   4.925 -1.0610 -1.5317 -0.7155
 1914SOL    HW2 6642   1.730   1.413   5.041  2.4787 -0.4773  0.4095
 1915SOL     OW 6643   4.615   5.364   3.079 -0.2892  0.4897  0.1841
 1915SOL    HW1 6644   4.700   5.378   3.130 -0.5068 -0.4885  0.8415
 1915SOL    HW2 6645   4.537   5.369   3.142 -0.6870  0.7774 -0.3158
 1916SOL     OW 6646   0.599   4.718   1.835  0.1364 -0.3054  0.0007
 1916SOL    HW1 6647   0.549   4.791   1.789 -0.0874 -1.9625 -2.5811
 1916SOL    HW2 6648   0.534   4.655   1.878  0.3127  0.6608  1.7822
 1917SOL     OW 6649   1.225   2.799   5.342  0.3436 -0.1464  0.4281
 1917SOL    HW1 6650   1.232   2.779   5.244  0.2940 -0.9340  0.5718
 1917SOL    HW2 6651   1.171   2.882   5.356  0.0094 -0.2507 -0.2027
 1918SOL     OW 6652   2.052   1.471   1.633 -0.2534  0.3608  0.1503
 1918SOL    HW1 6653   1.971   1.434   1.588  1.0605 -1.2121 -1.0619
 1918SOL    HW2 6654   2.031   1.562   1.670 -2.2576  0.4412 -1.0258
 1919SOL     OW 6655   4.299   0.655   1.100 -0.6310  0.6320 -0.1103
 1919SOL    HW1 6656   4.344   0.742   1.078  0.0022  1.0031  2.3526
 1919SOL    HW2 6657   4.209   0.673   1.139 -1.2887  0.0475 -1.2850
 1920SOL     OW 6658   1.990   2.313   3.551  0.7527  0.5586 -0.0870
 1920SOL    HW1 6659   1.995   2.413   3.556  0.4800  0.5446  0.6359
 1920SOL    HW2 6660   1.894   2.284   3.543  0.6398  0.3003  1.7447
 1921SOL     OW 6661   1.365   3.330   6.282  0.0516 -0.4213 -0.1831
 1921SOL    HW1 6662   1.379   3.232   6.299  0.7554 -0.2699  0.1619
 1921SOL    HW2 6663   1.451   3.378   6.296 -0.3647  0.2930 -0.0557
 1922SOL     OW 6664   6.132   4.493   6.064 -0.3477  0.3821  0.1165
 1922SOL    HW1 6665   6.162   4.413   6.012 -0.3224 -0.4184  1.3324
 1922SOL    HW2 6666   6.037   4.480   6.093 -0.4741  0.9744 -0.0315
 1923SOL     OW 6667   6.399   1.190   3.982  0.2893 -0.0094  0.2631
 1923SOL    HW1 6668   6.443   1.124   3.923  1.2690  1.1040 -0.2847
 1923SOL    HW2 6669   6.419   1.283   3.950 -1.1371  0.5738  0.9364
 1924SOL     OW 6670   4.885   1.761   3.622 -0.5488  0.3370  0.2311
 1924SOL    HW1 6671   4.961   1.720   3.672  0.6610 -0.6965 -2.2838
 1924SOL    HW2 6672   4.888   1.732   3.527 -1.9424  3.2374 -0.8152
 1925SOL     OW 6673   4.307   4.042   1.393 -0.4161  0.1382  0.5395
 1925SOL    HW1 6674   4.219   4.073   1.357  0.0205  0.5513 -0.1967
 1925SOL    HW2 6675   4.309   4.056   1.492 -0.5608  1.6808  0.3504
 1926SOL     OW 6676   6.745   1.688   3.630 -0.2693  0.4937  0.6182
 1926SOL    HW1 6677   6.727   1.779   3.666  1.0685  0.1838  2.1867
 1926SOL    HW2 6678   6.693   1.674   3.545  0.7245  3.2699 -0.5515
 1927SOL     OW 6679   6.431   4.098   1.246  0.0479 -0.0401 -0.4906
 1927SOL    HW1 6680   6.354   4.160   1.266 -0.2998 -0.4801 -0.4457
 1927SOL    HW2 6681   6.517   4.145   1.265 -0.2287  0.2182  0.1588
 1928SOL     OW 6682   1.535   2.901   0.476 -0.4651 -0.4197 -0.1088
 1928SOL    HW1 6683   1.607   2.969   0.485 -0.2340 -0.8936  2.1323
 1928SOL    HW2 6684   1.447   2.943   0.495 -0.2362 -0.8436  2.2367
 1929SOL     OW 6685   6.314   0.213   2.341  0.2684 -0.2974  0.3325
 1929SOL    HW1 6686   6.256   0.134   2.358  0.0400  0.0000  0.9697
 1929SOL    HW2 6687   6.331   0.221   2.243 -0.8223 -0.3539  0.1209
 1930SOL     OW 6688   0.052   6.603   1.162  0.0069  0.5015  0.2289
 1930SOL    HW1 6689   0.031   6.636   1.070  0.2057  0.1030  0.0354
 1930SOL    HW2 6690   0.150   6.591   1.171 -0.0134  0.5368  0.4924
 1931SOL     OW 6691   1.698   2.750   6.478 -0.1661 -1.0141  0.2645
 1931SOL    HW1 6692   1.634   2.714   6.546 -1.9323 -0.8960 -1.2695
 1931SOL    HW2 6693   1.711   2.683   6.405 -0.8315  0.0813 -0.8974
 1932SOL     OW 6694   2.622   2.069   1.248 -0.2681 -0.3025 -0.5802
 1932SOL    HW1 6695   2.660   2.007   1.317 -1.6485 -1.5347 -0.8821
 1932SOL    HW2 6696   2.545   2.119   1.288  0.0532  0.3019 -0.7120
 1933SOL     OW 6697   0.773   1.155   2.850  0.2129 -0.6410  0.0009
 1933SOL    HW1 6698   0.688   1.154   2.796  1.3730  0.2363 -1.9420
 1933SOL    HW2 6699   0.844   1.105   2.801  1.4606  0.6600  0.4162
 1934SOL     OW 6700   4.341   1.735   2.202  0.2871 -0.0867 -0.1170
 1934SOL    HW1 6701   4.403   1.694   2.270  0.4767 -2.2115 -1.4645
 1934SOL    HW2 6702   4.261   1.675   2.190 -1.2424  1.7666  0.3621
 1935SOL     OW 6703   1.710   6.820   5.867 -0.5797  0.1703  0.5168
 1935SOL    HW1 6704   1.766   6.828   5.785 -0.3060  0.8304  0.7564
 1935SOL    HW2 6705   1.625   6.773   5.845 -0.6031  0.5340 -0.1956
 1936SOL     OW 6706   4.618   1.676   2.056  0.2133  0.0298 -0.1723
 1936SOL    HW1 6707   4.575   1.598   2.010 -1.4097  0.6838  0.1418
 1936SOL    HW2 6708   4.607   1.666   2.155  0.4349  0.4127 -0.1071
 1937SOL     OW 6709   4.673   0.722   3.084  0.0464 -0.1286 -0.0646
 1937SOL    HW1 6710   4.700   0.635   3.044  0.3292  1.0829 -2.6866
 1937SOL    HW2 6711   4.705   0.798   3.027 -1.8315  1.6598  1.0810
 1938SOL     OW 6712   3.666   1.048   2.681  0.3069  0.7237 -0.7977
 1938SOL    HW1 6713   3.731   1.115   2.646  0.9282  0.5402 -0.0513
 1938SOL    HW2 6714   3.650   1.065   2.779 -1.5581  1.3788 -1.1775
 1939SOL     OW 6715   0.814   5.983   2.688 -0.8331  0.5456 -0.2506
 1939SOL    HW1 6716   0.892   6.045   2.689  0.2846 -0.8049 -0.7649
 1939SOL    HW2 6717   0.820   5.920   2.765 -0.5119 -0.6133 -1.1914
 1940SOL     OW 6718   1.185   6.481   5.214  0.5196 -0.4014 -0.5420
 1940SOL    HW1 6719   1.160   6.540   5.137  0.3868 -0.1209 -0.2870
 1940SOL    HW2 6720   1.155   6.523   5.300  0.1643 -0.9805 -0.3774
 1941SOL     OW 6721   2.939   3.734   4.693 -0.2175  0.1503 -0.1432
 1941SOL    HW1 6722   2.880   3.659   4.723  1.6212 -0.7752  1.3688
 1941SOL    HW2 6723   2.997   3.764   4.769  0.4651  1.7920 -1.2546
 1942SOL     OW 6724   1.208   1.804   5.550  0.0107 -0.6098  0.1389
 1942SOL    HW1 6725   1.307   1.810   5.538 -0.0827 -0.5782 -0.7052
 1942SOL    HW2 6726   1.165   1.791   5.461 -0.6941 -1.3293  0.5733
 1943SOL     OW 6727   4.488   1.038   3.449  0.0606 -0.0668  0.2015
 1943SOL    HW1 6728   4.505   0.980   3.370  0.7421 -1.5729  1.3992
 1943SOL    HW2 6729   4.401   1.087   3.437 -0.6818 -1.5629 -0.7214
 1944SOL     OW 6730   6.430   5.721   6.448 -0.3798 -0.1453 -0.1392
 1944SOL    HW1 6731   6.518   5.725   6.401 -0.5296  1.3482 -0.3178
 1944SOL    HW2 6732   6.395   5.627   6.443  1.9631 -1.2033  1.3996
 1945SOL     OW 6733   1.658   0.920   3.729 -0.1109  0.7722 -0.3204
 1945SOL    HW1 6734   1.671   0.921   3.630 -1.8207  1.0950 -0.5778
 1945SOL    HW2 6735   1.621   0.832   3.757  0.2853  0.7127  0.0201
 1946SOL     OW 6736   6.819   3.020   6.889  0.4326 -1.0540 -0.1270
 1946SOL    HW1 6737   6.846   2.924   6.876  0.7773 -0.6908 -2.6868
 1946SOL    HW2 6738   6.756   3.047   6.816 -0.8380  0.3020  1.3967
 1947SOL     OW 6739   5.527   0.788   1.256 -0.5130 -0.0777 -0.7298
 1947SOL    HW1 6740   5.592   0.860   1.231 -0.1318  0.1688  0.8360
 1947SOL    HW2 6741   5.434   0.826   1.259 -0.1788  0.7227  1.2695
 1948SOL     OW 6742   4.763   4.761   5.179 -0.2631  0.1763 -0.1352
 1948SOL    HW1 6743   4.810   4.837   5.224 -0.4698  0.5339 -0.5260
 1948SOL    HW2 6744   4.686   4.731   5.236  0.7541 -0.7911  0.7938
 1949SOL     OW 6745   5.011   5.936   6.250 -0.0253 -0.0076 -0.6843
 1949SOL    HW1 6746   5.086   5.870   6.240 -0.9590 -1.0399 -1.1168
 1949SOL    HW2 6747   5.007   5.994   6.168  0.4844  0.2506 -0.5287
 1950SOL     OW 6748   1.372   4.887   6.933 -0.0423  0.1035  0.4327
 1950SOL    HW1 6749   1.355   4.789   6.922 -0.0112  0.0411  0.9463
 1950SOL    HW2 6750   1.466   4.901   6.963 -0.1829  0.2605  0.8058
 1951SOL     OW 6751   6.201   0.026   0.778  0.1696 -0.1196 -0.1446
 1951SOL    HW1 6752   6.181   0.039   0.875 -0.1020  0.2160 -0.2441
 1951SOL    HW2 6753   6.294  -0.010   0.767 -0.0010 -0.6997  0.2682
 1952SOL     OW 6754   3.265   4.421   1.693 -0.6022 -0.2974 -0.2740
 1952SOL    HW1 6755   3.324   4.491   1.652  0.2350  0.7882  2.5343
 1952SOL    HW2 6756   3.170   4.452   1.691 -0.3987  0.3530 -0.2318
 1953SOL     OW 6757   0.169   3.836   5.552 -0.8144  0.3432 -0.5344
 1953SOL    HW1 6758   0.252   3.803   5.596 -1.3429  0.3478  0.4978
 1953SOL    HW2 6759   0.159   3.794   5.462 -0.1259 -0.2780 -0.3246
 1954SOL     OW 6760   0.751   0.624   6.077  0.0807 -0.0067  0.3612
 1954SOL    HW1 6761   0.699   0.538   6.079 -0.6449  0.3386 -1.5975
 1954SOL    HW2 6762   0.765   0.656   6.171  0.7182 -2.4387  1.1746
 1955SOL     OW 6763   1.330   0.191   6.878  0.0095  0.2909 -0.2365
 1955SOL    HW1 6764   1.326   0.287   6.905 -0.7707  0.0108  0.7197
 1955SOL    HW2 6765   1.418   0.152   6.904 -0.8486 -0.0868  2.5163
 1956SOL     OW 6766   4.195   6.338   6.999  0.3965  0.1362 -0.2087
 1956SOL    HW1 6767   4.249   6.381   6.927 -0.2825  0.8218 -0.3127
 1956SOL    HW2 6768   4.104   6.378   7.002  0.6505  0.6820  1.5461
 1957SOL     OW 6769   1.478   3.477   2.350  0.1334 -0.2742 -0.3284
 1957SOL    HW1 6770   1.533   3.423   2.284 -1.1121 -1.1138 -0.7164
 1957SOL    HW2 6771   1.444   3.559   2.305  0.5255 -0.0865 -0.2840
 1958SOL     OW 6772   5.788   1.995   0.933  0.2827  0.1446  0.0679
 1958SOL    HW1 6773   5.789   2.090   0.963 -3.0581 -0.9823  4.9707
 1958SOL    HW2 6774   5.851   1.941   0.990 -3.2409 -1.4470  2.9230
 1959SOL     OW 6775   5.249   0.888   1.212  0.8906 -0.0647  0.2258
 1959SOL    HW1 6776   5.188   0.941   1.272 -0.5903 -0.0411 -1.2331
 1959SOL    HW2 6777   5.207   0.878   1.122  1.7425 -2.5644  0.0244
 1960SOL     OW 6778   0.248   4.077   6.284  0.1839  0.6386  0.6051
 1960SOL    HW1 6779   0.234   4.079   6.185  1.0009  1.3281  0.4980
 1960SOL    HW2 6780   0.315   4.006   6.306 -1.0557 -0.5248  0.8285
 1961SOL     OW 6781   1.500   6.052   2.095 -0.2949 -0.2380 -0.1497
 1961SOL    HW1 6782   1.462   6.144   2.086 -0.7291 -0.2895  0.9973
 1961SOL    HW2 6783   1.565   6.051   2.170 -0.8713 -1.0465  0.3452
 1962SOL     OW 6784   5.134   0.297   7.007 -0.0940 -0.2219 -0.1523
 1962SOL    HW1 6785   5.170   0.337   6.923 -1.5268 -1.1246 -1.2336
 1962SOL    HW2 6786   5.166   0.202   7.014  0.1507 -0.1025  0.4270
 1963SOL     OW 6787   4.504   6.478   5.313 -0.0501 -0.0008  0.0658
 1963SOL    HW1 6788   4.439   6.502   5.241  0.1043  2.6143  0.6885
 1963SOL    HW2 6789   4.597   6.493   5.279  0.1597 -1.5228 -0.0790
 1964SOL     OW 6790   1.379   2.892   4.114 -0.6904 -0.6818 -0.2037
 1964SOL    HW1 6791   1.417   2.800   4.126 -2.3481 -1.4321 -0.4615
 1964SOL    HW2 6792   1.296   2.887   4.058 -0.1555  1.1344 -1.2563
 1965SOL     OW 6793   3.325   0.492   3.472  0.3984 -0.4964  0.0237
 1965SOL    HW1 6794   3.399   0.545   3.513 -1.3737  2.2728 -0.0756
 1965SOL    HW2 6795   3.290   0.426   3.539 -0.7126  2.1077  2.2232
 1966SOL     OW 6796   5.998   5.790   6.789  0.1583  0.0942  0.1214
 1966SOL    HW1 6797   6.049   5.870   6.757  1.0937 -1.1774 -1.7990
 1966SOL    HW2 6798   6.060   5.712   6.796 -1.1159 -0.9790 -0.1305
 1967SOL     OW 6799   5.520   6.037   0.731  0.4477 -0.4032  0.2097
 1967SOL    HW1 6800   5.539   6.135   0.721 -0.0719 -0.1692  1.3619
 1967SOL    HW2 6801   5.478   6.020   0.820 -2.1009 -1.2823 -1.0547
 1968SOL     OW 6802   2.133   5.885   2.828  0.3473  0.1477  0.0669
 1968SOL    HW1 6803   2.097   5.949   2.896  1.6049  1.4531 -0.4281
 1968SOL    HW2 6804   2.057   5.840   2.782 -0.5416 -0.1088  1.7045
 1969SOL     OW 6805   0.339   4.213   2.221  0.2406 -0.0425 -0.4192
 1969SOL    HW1 6806   0.331   4.185   2.126 -0.4343 -1.3774 -0.0009
 1969SOL    HW2 6807   0.383   4.302   2.226 -0.0747  0.2305 -1.9916
 1970SOL     OW 6808   1.785   4.471   3.872 -0.4021 -0.4073  0.3724
 1970SOL    HW1 6809   1.755   4.558   3.834  1.2442 -0.2091 -0.5810
 1970SOL    HW2 6810   1.759   4.397   3.810  2.7915 -0.0323 -1.6692
 1971SOL     OW 6811   2.405   6.897   5.174 -0.2833 -0.0373 -0.5535
 1971SOL    HW1 6812   2.429   6.993   5.185 -0.8055 -0.0946  1.5022
 1971SOL    HW2 6813   2.442   6.862   5.088  2.8589  1.0834  0.2315
 1972SOL     OW 6814   2.981   5.370   4.132 -0.6225  0.8688  0.4753
 1972SOL    HW1 6815   2.914   5.445   4.138 -0.3791  1.0498  0.9726
 1972SOL    HW2 6816   2.986   5.338   4.037 -0.5531  1.6475  0.2052
 1973SOL     OW 6817   4.603   2.910   5.239 -1.2312 -0.9408  0.3001
 1973SOL    HW1 6818   4.673   2.908   5.168 -1.0357 -0.9314  0.4902
 1973SOL    HW2 6819   4.620   2.836   5.304 -0.3604  0.1002  1.3149
 1974SOL     OW 6820   0.408   3.763   2.769 -0.2677  0.0736 -0.2321
 1974SOL    HW1 6821   0.434   3.823   2.693 -0.5125  0.1929 -0.2229
 1974SOL    HW2 6822   0.372   3.677   2.732 -1.5904  0.6227 -0.2875
 1975SOL     OW 6823   5.500   1.784   5.447 -0.2921 -0.7511  0.4062
 1975SOL    HW1 6824   5.526   1.717   5.516 -2.5551 -1.3337  0.7592
 1975SOL    HW2 6825   5.484   1.738   5.360 -1.8092 -0.7249  0.6388
 1976SOL     OW 6826   0.544   3.717   3.481 -0.1230  0.3772 -0.2206
 1976SOL    HW1 6827   0.524   3.810   3.511 -1.7746  0.4196 -1.3159
 1976SOL    HW2 6828   0.504   3.651   3.545 -1.6749  0.4630 -1.0494
 1977SOL     OW 6829   6.564   6.395   4.975  0.1716  0.3106  0.2918
 1977SOL    HW1 6830   6.584   6.316   4.917  0.0340 -0.0290  0.7108
 1977SOL    HW2 6831   6.570   6.478   4.919 -1.7337 -0.1386 -0.6543
 1978SOL     OW 6832   1.567   4.934   5.075 -0.1942 -0.1183  0.0781
 1978SOL    HW1 6833   1.629   4.887   5.138  0.5361  0.6827 -0.0214
 1978SOL    HW2 6834   1.489   4.970   5.126 -0.9763 -1.7305  0.1008
 1979SOL     OW 6835   0.577   2.311   3.240  0.1786  0.6953 -0.5334
 1979SOL    HW1 6836   0.481   2.286   3.237 -0.3767  2.2685  1.5788
 1979SOL    HW2 6837   0.603   2.358   3.156 -0.3740 -1.3255 -1.8779
 1980SOL     OW 6838   3.149   1.808   3.083 -0.8856 -0.6666 -0.8149
 1980SOL    HW1 6839   3.135   1.836   3.178  0.1474  0.8043 -1.0630
 1980SOL    HW2 6840   3.138   1.709   3.075 -1.8953 -0.6943  0.6547
 1981SOL     OW 6841   5.053   5.196   1.871 -0.3957  0.2298 -0.6708
 1981SOL    HW1 6842   5.105   5.134   1.813 -0.1642 -0.5023  0.3033
 1981SOL    HW2 6843   4.990   5.249   1.814  0.3651  0.0957 -1.6844
 1982SOL     OW 6844   4.725   5.813   2.605 -0.2768 -0.0892  0.1608
 1982SOL    HW1 6845   4.670   5.729   2.607 -2.2059  1.1211  0.2394
 1982SOL    HW2 6846   4.773   5.823   2.692  0.5090 -1.4069 -0.0858
 1983SOL     OW 6847   2.281   6.633   1.299  0.1324  0.4821  0.5495
 1983SOL    HW1 6848   2.245   6.598   1.386  0.2598  2.6750  1.5520
 1983SOL    HW2 6849   2.276   6.562   1.230  0.1677 -1.3952  2.3867
 1984SOL     OW 6850   3.188   3.403   4.277  0.4357 -0.3415 -0.6498
 1984SOL    HW1 6851   3.151   3.316   4.246 -3.6804  2.2258 -4.1813
 1984SOL    HW2 6852   3.129   3.440   4.349  1.0216  0.3008 -0.4932
 1985SOL     OW 6853   0.808   2.999   5.373  0.1981  0.3308  0.0905
 1985SOL    HW1 6854   0.902   2.993   5.409 -0.6189 -0.6484  2.2457
 1985SOL    HW2 6855   0.757   3.067   5.425 -1.0143 -1.0883  0.8710
 1986SOL     OW 6856   2.424   0.141   3.387  0.3627  0.0344 -0.1239
 1986SOL    HW1 6857   2.369   0.123   3.468  0.2052  0.7021 -0.0751
 1986SOL    HW2 6858   2.431   0.240   3.373  0.5963 -0.0708 -0.7830
 1987SOL     OW 6859   6.039   6.076   6.759  0.1945  0.2286  0.2432
 1987SOL    HW1 6860   5.985   6.092   6.676 -0.2673 -0.6893  0.3481
 1987SOL    HW2 6861   6.047   6.161   6.810  1.2731  1.0284 -1.1949
 1988SOL     OW 6862   4.591   2.632   6.360  0.4695  0.0222  0.5256
 1988SOL    HW1 6863   4.612   2.550   6.307  1.0703  0.6902 -0.2953
 1988SOL    HW2 6864   4.500   2.667   6.335  0.5596  0.0747  0.2734
 1989SOL     OW 6865   1.025   4.276   4.119  0.3925  0.0817  0.3317
 1989SOL    HW1 6866   1.091   4.207   4.149 -0.1795 -0.4063  0.5045
 1989SOL    HW2 6867   0.946   4.275   4.180 -1.0950 -1.3720 -1.4724
 1990SOL     OW 6868   5.432   1.780   1.288 -0.3169  0.2631 -0.0602
 1990SOL    HW1 6869   5.424   1.854   1.355 -2.7264  2.7642 -2.8183
 1990SOL    HW2 6870   5.520   1.787   1.240  0.1684  0.2668  0.8135
 1991SOL     OW 6871   5.973   0.521   3.487  0.9352  0.3733 -0.8927
 1991SOL    HW1 6872   5.940   0.569   3.569  0.7843 -1.3537  0.1059
 1991SOL    HW2 6873   6.070   0.499   3.498  0.6305 -0.9129 -0.6282
 1992SOL     OW 6874   5.110   0.116   2.200 -0.0723  0.3082  0.0967
 1992SOL    HW1 6875   5.199   0.109   2.246 -0.7422 -0.0960  1.3951
 1992SOL    HW2 6876   5.037   0.091   2.265 -1.0815 -0.1254 -1.1655
 1993SOL     OW 6877   2.263   5.312   3.277 -0.1726  0.4390  0.2466
 1993SOL    HW1 6878   2.227   5.273   3.362 -0.2312 -1.9633 -0.7761
 1993SOL    HW2 6879   2.217   5.397   3.256 -1.5924  0.0382  1.5835
 1994SOL     OW 6880   2.408   5.252   5.604 -0.0623  0.5902  0.2261
 1994SOL    HW1 6881   2.377   5.177   5.663 -1.6402  2.1364  1.4932
 1994SOL    HW2 6882   2.490   5.293   5.643 -0.2003  0.6194  0.4883
 1995SOL     OW 6883   0.916   0.738   0.805  0.1414 -0.0658  0.2349
 1995SOL    HW1 6884   0.901   0.662   0.869 -0.2457  0.1720  0.4310
 1995SOL    HW2 6885   0.853   0.729   0.728 -0.4186  0.4556  0.6240
 1996SOL     OW 6886   0.549   6.892   4.839 -0.1367 -0.0000 -0.7140
 1996SOL    HW1 6887   0.529   6.804   4.883 -2.8518 -0.3255 -2.3849
 1996SOL    HW2 6888   0.559   6.963   4.910  0.1507 -1.2719  0.5654
 1997SOL     OW 6889   5.036   4.744   0.071  0.2624  0.7793 -0.4881
 1997SOL    HW1 6890   5.030   4.715   0.167 -1.6571  1.0549 -0.4909
 1997SOL    HW2 6891   5.109   4.693   0.026 -0.2880 -1.0244  0.5406
 1998SOL     OW 6892   4.468   5.570   6.743  0.3118 -0.1058 -0.2786
 1998SOL    HW1 6893   4.390   5.510   6.761  0.6078 -0.4777 -0.2285
 1998SOL    HW2 6894   4.491   5.567   6.646  0.0131  0.3161 -0.3667
 1999SOL     OW 6895   5.757   3.397   5.155  0.1560  0.0461 -0.2350
 1999SOL    HW1 6896   5.684   3.399   5.087 -0.0796 -1.3629 -0.0460
 1999SOL    HW2 6897   5.845   3.411   5.111 -0.2396  2.7011 -0.3620
 2000SOL     OW 6898   4.785   5.681   5.113 -0.2347 -0.2650 -0.0883
 2000SOL    HW1 6899   4.722   5.649   5.043  0.4405 -2.8961  0.4006
 2000SOL    HW2 6900   4.879   5.656   5.088  0.2636  0.6855  0.7420
 2001SOL     OW 6901   6.178   5.777   5.707 -0.4657  0.0903  0.3116
 2001SOL    HW1 6902   6.132   5.781   5.619  1.1557 -0.6303 -0.6089
 2001SOL    HW2 6903   6.178   5.683   5.741  1.5125 -0.2142 -0.4102
 2002SOL     OW 6904   5.828   6.616   6.957  0.1420 -0.1725 -0.4672
 2002SOL    HW1 6905   5.828   6.516   6.964 -1.2810 -0.2931 -1.6721
 2002SOL    HW2 6906   5.922   6.648   6.943  0.6567 -1.3017  0.2078
 2003SOL     OW 6907   6.620   2.847   4.227  0.0498 -0.4732  0.4831
 2003SOL    HW1 6908   6.600   2.898   4.143  0.0085 -1.3703 -0.0668
 2003SOL    HW2 6909   6.712   2.870   4.259  0.8374 -1.5720 -0.9044
 2004SOL     OW 6910   0.732   2.295   5.490  0.4245 -0.0819 -0.4011
 2004SOL    HW1 6911   0.653   2.329   5.438  2.3167  1.1523 -2.6619
 2004SOL    HW2 6912   0.744   2.351   5.572 -1.2041 -0.4905  0.1416
 2005SOL     OW 6913   2.180   5.272   0.568  0.2623 -0.4333  0.6770
 2005SOL    HW1 6914   2.160   5.175   0.553 -0.4553 -0.7842  3.2665
 2005SOL    HW2 6915   2.121   5.306   0.642  0.8420  1.8643  0.1459
 2006SOL     OW 6916   4.827   3.042   2.737 -0.1645 -0.8441  0.0404
 2006SOL    HW1 6917   4.859   3.114   2.800 -0.7532 -1.1264  0.6764
 2006SOL    HW2 6918   4.798   2.962   2.790  2.7354 -2.5442 -0.7270
 2007SOL     OW 6919   4.772   0.994   3.419 -0.0319  0.4980  0.2827
 2007SOL    HW1 6920   4.744   1.008   3.324  2.2382 -0.0526 -0.5402
 2007SOL    HW2 6921   4.692   0.975   3.475 -1.3804  0.2391 -1.6286
 2008SOL     OW 6922   2.607   6.704   6.603 -0.0113 -0.1537 -0.4882
 2008SOL    HW1 6923   2.610   6.611   6.640  0.4299 -0.1044 -0.3930
 2008SOL    HW2 6924   2.619   6.700   6.504  1.5892 -0.1001 -0.3216
 2009SOL     OW 6925   2.947   0.828   1.977  0.4661  0.1998  0.4295
 2009SOL    HW1 6926   2.894   0.860   1.898  2.1160 -1.3457 -1.4273
 2009SOL    HW2 6927   2.892   0.835   2.060 -1.4887  1.5340 -0.9087
 2010SOL     OW 6928   5.969   3.085   0.199 -0.4054  0.2073  0.5757
 2010SOL    HW1 6929   6.060   3.057   0.232  1.1371  2.3227 -1.5115
 2010SOL    HW2 6930   5.951   3.041   0.111 -0.8281  0.7981  0.3661
 2011SOL     OW 6931   1.485   3.420   4.684 -0.1584 -0.4795  0.2630
 2011SOL    HW1 6932   1.555   3.363   4.643  0.5406 -0.1982  1.0465
 2011SOL    HW2 6933   1.516   3.515   4.686 -1.7354  0.2031 -2.0464
 2012SOL     OW 6934   6.060   3.633   1.929  0.1338 -0.6098 -0.1856
 2012SOL    HW1 6935   5.996   3.645   2.005  0.4985  1.5836 -0.1579
 2012SOL    HW2 6936   6.099   3.721   1.904 -1.0617 -0.9303 -3.9085
 2013SOL     OW 6937   1.304   5.520   1.750 -0.4337 -0.8407 -0.6472
 2013SOL    HW1 6938   1.391   5.501   1.794 -0.7021  0.7622  0.6380
 2013SOL    HW2 6939   1.317   5.583   1.673 -0.3129 -1.6091 -1.2709
 2014SOL     OW 6940   0.752   6.589   6.455  0.2928 -0.1112  0.0658
 2014SOL    HW1 6941   0.839   6.634   6.436 -0.7807  2.1335  0.1880
 2014SOL    HW2 6942   0.754   6.497   6.416  2.0031  0.5610 -1.6347
 2015SOL     OW 6943   0.758   4.215   2.345  0.3780 -0.2019 -0.2847
 2015SOL    HW1 6944   0.711   4.301   2.327 -0.4582 -0.6827 -0.4720
 2015SOL    HW2 6945   0.724   4.176   2.431 -0.1201 -0.9136 -0.7891
 2016SOL     OW 6946   6.211   2.320   0.345 -0.1897 -0.6474 -0.5245
 2016SOL    HW1 6947   6.298   2.318   0.296  0.9471  1.4372  1.2806
 2016SOL    HW2 6948   6.153   2.392   0.307  0.5656  0.7532  0.8726
 2017SOL     OW 6949   2.202   5.705   1.044  0.0454 -0.2120 -0.1026
 2017SOL    HW1 6950   2.207   5.642   0.967 -0.9889 -0.0029 -0.3572
 2017SOL    HW2 6951   2.246   5.792   1.018  1.3285 -0.7489  0.1951
 2018SOL     OW 6952   3.540   0.775   4.879 -0.0854 -0.1004 -0.3137
 2018SOL    HW1 6953   3.540   0.758   4.780 -0.9112 -1.2345 -0.1365
 2018SOL    HW2 6954   3.588   0.861   4.898 -1.3474  1.0169 -1.8536
 2019SOL     OW 6955   1.697   5.544   0.131 -0.0637  0.6370 -0.3265
 2019SOL    HW1 6956   1.603   5.550   0.163 -0.0695  0.9580 -0.4051
 2019SOL    HW2 6957   1.736   5.636   0.123  0.2047  0.5146 -0.4423
 2020SOL     OW 6958   2.387   4.378   4.117 -0.0168  0.1633  0.5220
 2020SOL    HW1 6959   2.462   4.313   4.108  0.0686  0.4363 -1.1277
 2020SOL    HW2 6960   2.391   4.444   4.041  0.0877  2.3015  2.2824
 2021SOL     OW 6961   5.484   1.220   3.437 -0.0275 -0.0564  0.0154
 2021SOL    HW1 6962   5.433   1.306   3.432 -1.2198 -0.7263  0.4265
 2021SOL    HW2 6963   5.487   1.177   3.346  0.0334  0.1046 -0.0591
 2022SOL     OW 6964   4.604   0.255   2.371  0.0059 -0.3412 -0.0847
 2022SOL    HW1 6965   4.563   0.212   2.451  0.2992  0.5359  0.5493
 2022SOL    HW2 6966   4.654   0.337   2.398  1.2260 -0.7459 -1.0009
 2023SOL     OW 6967   3.363   1.698   4.393 -0.1731 -0.1285  0.2627
 2023SOL    HW1 6968   3.288   1.648   4.436  0.9373 -1.8523  0.2993
 2023SOL    HW2 6969   3.404   1.760   4.460 -0.9968  0.1815  0.4906
 2024SOL     OW 6970   5.984   5.197   5.122 -0.0843  0.7274 -0.7535
 2024SOL    HW1 6971   5.941   5.111   5.149 -0.3133  0.7969 -0.8853
 2024SOL    HW2 6972   5.914   5.259   5.085 -0.0749  1.3035  0.1693
 2025SOL     OW 6973   3.399   4.579   0.325 -0.0674 -0.2193  0.5562
 2025SOL    HW1 6974   3.428   4.524   0.246  0.2268  0.5938  0.0789
 2025SOL    HW2 6975   3.328   4.643   0.296 -0.0238  0.0162  0.9688
 2026SOL     OW 6976   1.565   6.952   3.604 -0.9428  0.0985  0.9246
 2026SOL    HW1 6977   1.601   7.045   3.598  0.1402 -0.4033 -0.8051
 2026SOL    HW2 6978   1.540   6.920   3.513 -0.1678 -1.7302  1.3207
 2027SOL     OW 6979   1.946   6.537   0.680  0.1987 -0.2649  0.2503
 2027SOL    HW1 6980   1.992   6.608   0.627  0.0957 -0.6751 -0.4040
 2027SOL    HW2 6981   1.861   6.510   0.634  0.7084 -1.4770 -0.0316
 2028SOL     OW 6982   6.461   2.561   5.085 -0.8052 -0.2080  0.2607
 2028SOL    HW1 6983   6.503   2.495   5.022 -0.4335  1.8915 -1.8468
 2028SOL    HW2 6984   6.496   2.546   5.177 -0.1719 -2.4277 -0.2769
 2029SOL     OW 6985   2.394   0.823   1.402  0.0773  0.0234 -0.2578
 2029SOL    HW1 6986   2.315   0.855   1.454 -0.0494 -0.9022  0.1299
 2029SOL    HW2 6987   2.408   0.883   1.323 -1.1408  0.0787 -0.4490
 2030SOL     OW 6988   4.096   2.113   3.180 -0.5397 -0.1783  0.9839
 2030SOL    HW1 6989   4.003   2.119   3.216 -0.5974 -0.1799  0.8341
 2030SOL    HW2 6990   4.152   2.187   3.217 -1.1446  1.0982 -0.5579
 2031SOL     OW 6991   6.905   0.424   6.891  0.0029 -0.0421  0.2653
 2031SOL    HW1 6992   6.958   0.410   6.975 -0.0492  0.5505  0.3976
 2031SOL    HW2 6993   6.832   0.355   6.886  1.2623 -1.3683 -0.3210
 2032SOL     OW 6994   1.130   0.287   1.189  0.2038 -0.6716  0.2915
 2032SOL    HW1 6995   1.119   0.345   1.270  1.2672  0.4872 -0.3458
 2032SOL    HW2 6996   1.191   0.211   1.211  1.0858  0.0526  0.4081
 2033SOL     OW 6997   4.838   3.544   6.018 -0.2831  0.4685  0.9080
 2033SOL    HW1 6998   4.819   3.627   6.071 -1.9096 -0.0338  1.1586
 2033SOL    HW2 6999   4.803   3.556   5.925  1.2291  0.7751  0.3466
 2034SOL     OW 7000   1.961   4.935   2.490 -0.1860  0.3350 -0.4444
 2034SOL    HW1 7001   1.915   4.852   2.458 -0.8812  1.0074 -1.2446
 2034SOL    HW2 7002   1.892   5.003   2.514  0.3811  0.8468 -0.2554
 2035SOL     OW 7003   4.670   5.623   3.636  0.4550  0.1127 -0.2177
 2035SOL    HW1 7004   4.711   5.558   3.701  0.2156  0.5912  0.4268
 2035SOL    HW2 7005   4.631   5.573   3.559 -0.1777 -0.5562  0.5156
 2036SOL     OW 7006   1.775   4.293   5.810 -0.1295  0.1715 -0.0802
 2036SOL    HW1 7007   1.692   4.256   5.851 -1.1587  0.4647 -1.8160
 2036SOL    HW2 7008   1.838   4.219   5.787  0.5204  0.0052  2.0266
 2037SOL     OW 7009   4.315   6.640   0.415  0.6918  0.0833  0.2873
 2037SOL    HW1 7010   4.242   6.620   0.480  0.6252  3.4010  1.4336
 2037SOL    HW2 7011   4.300   6.588   0.331 -1.2460 -1.6105  1.5879
 2038SOL     OW 7012   5.784   1.409   3.009 -0.5257 -0.3878 -0.3465
 2038SOL    HW1 7013   5.816   1.435   3.100  0.3352  1.1838 -1.0467
 2038SOL    HW2 7014   5.745   1.317   3.012 -0.2722 -0.4757  1.5366
 2039SOL     OW 7015   5.912   1.414   5.213 -0.2450  0.5164  0.1179
 2039SOL    HW1 7016   5.846   1.469   5.265 -1.3516  0.5048 -1.2283
 2039SOL    HW2 7017   5.930   1.329   5.263 -0.6604  0.8627  0.8795
 2040SOL     OW 7018   2.212   3.061   2.950  0.2069 -0.3355 -0.0080
 2040SOL    HW1 7019   2.151   3.137   2.972  0.0873  0.0613 -1.5839
 2040SOL    HW2 7020   2.202   3.038   2.853  1.4084 -1.3196  0.0820
 2041SOL     OW 7021   5.827   4.050   3.904  0.4042 -0.1302  0.2115
 2041SOL    HW1 7022   5.863   4.122   3.844  0.7402  0.6107  1.2672
 2041SOL    HW2 7023   5.801   4.090   3.992 -1.2980 -0.9801  0.1264
 2042SOL     OW 7024   5.312   5.440   3.018  0.1364  0.7183 -0.3164
 2042SOL    HW1 7025   5.335   5.481   3.107 -1.3608  1.1616 -0.1075
 2042SOL    HW2 7026   5.352   5.495   2.945 -0.1879  1.4229  0.0266
 2043SOL     OW 7027   0.240   5.441   5.693 -0.7004 -0.1579 -0.3013
 2043SOL    HW1 7028   0.297   5.390   5.758 -2.1207 -0.5741  0.6626
 2043SOL    HW2 7029   0.160   5.386   5.668 -0.9075  0.5753 -1.2997
 2044SOL     OW 7030   1.949   6.704   0.417 -0.2076  0.1047  0.1865
 2044SOL    HW1 7031   2.029   6.659   0.377  1.7533  1.2767  2.5332
 2044SOL    HW2 7032   1.869   6.646   0.403  1.3103 -1.8833 -0.9083
 2045SOL     OW 7033   3.323   2.003   2.387 -0.3128 -0.2445  0.3918
 2045SOL    HW1 7034   3.367   2.087   2.355  1.9866 -1.5372 -0.0853
 2045SOL    HW2 7035   3.376   1.966   2.464 -0.6331 -1.8052 -0.1159
 2046SOL     OW 7036   4.078   5.869   2.582  0.3914  0.1083  0.7131
 2046SOL    HW1 7037   4.135   5.789   2.601 -0.4649 -0.5061  0.8018
 2046SOL    HW2 7038   4.114   5.919   2.503  0.9603 -0.3433  0.6828
 2047SOL     OW 7039   1.438   4.410   6.899 -0.2631 -0.3547 -0.2683
 2047SOL    HW1 7040   1.506   4.378   6.965 -0.8866  0.8728  1.0104
 2047SOL    HW2 7041   1.350   4.368   6.917 -0.1915 -0.8782 -1.0582
 2048SOL     OW 7042   0.795   6.476   3.634  0.0582 -0.1827 -0.4087
 2048SOL    HW1 7043   0.790   6.389   3.585 -1.7371 -0.2050 -0.2353
 2048SOL    HW2 7044   0.721   6.481   3.701 -0.5718  1.9248 -1.1784
 2049SOL     OW 7045   5.614   1.360   2.353  0.1145  0.0366  0.5128
 2049SOL    HW1 7046   5.699   1.342   2.403  0.3225  1.5143  0.7572
 2049SOL    HW2 7047   5.636   1.404   2.266 -0.3933  0.8173  0.7607
 2050SOL     OW 7048   0.399   6.489   4.081  0.3031  0.0658  0.1005
 2050SOL    HW1 7049   0.307   6.470   4.047 -0.1065  0.3529  1.0124
 2050SOL    HW2 7050   0.438   6.566   4.032  0.1242 -0.1628 -0.4051
 2051SOL     OW 7051   5.437   5.349   2.111  0.0635  0.3221 -0.1517
 2051SOL    HW1 7052   5.341   5.374   2.108  0.4129  1.8869  0.5261
 2051SOL    HW2 7053   5.484   5.385   2.031  0.3129  0.6596  0.1416
 2052SOL     OW 7054   3.272   4.775   5.505 -0.0118 -0.6275 -0.3859
 2052SOL    HW1 7055   3.349   4.718   5.477  1.2522 -0.5289  2.6136
 2052SOL    HW2 7056   3.274   4.861   5.454  1.7762 -0.6887 -0.4792
 2053SOL     OW 7057   5.979   2.146   0.685  0.0044  0.1882 -0.9204
 2053SOL    HW1 7058   6.021   2.072   0.738  1.0317  2.5016  1.7991
 2053SOL    HW2 7059   5.894   2.175   0.729  0.4275  1.5992 -0.9695
 2054SOL     OW 7060   1.005   3.309   5.494 -0.4489  0.0737  0.2345
 2054SOL    HW1 7061   1.103   3.324   5.485 -0.5757  0.8898  0.1071
 2054SOL    HW2 7062   0.960   3.334   5.408 -0.5706 -2.2574 -0.4479
 2055SOL     OW 7063   0.949   3.353   1.755 -0.3480  0.7281  0.4010
 2055SOL    HW1 7064   1.017   3.426   1.748  1.0509 -0.5976 -0.7113
 2055SOL    HW2 7065   0.916   3.330   1.664  0.3151 -0.9638  0.5590
 2056SOL     OW 7066   5.493   1.139   6.877 -0.3525 -0.3198  0.2692
 2056SOL    HW1 7067   5.494   1.040   6.892  2.0900 -0.3857  0.1658
 2056SOL    HW2 7068   5.556   1.183   6.942  0.2774  0.8929 -1.1059
 2057SOL     OW 7069   1.873   1.922   2.146  0.4165 -0.6056  0.4320
 2057SOL    HW1 7070   1.902   1.971   2.228  0.5088 -1.0459  0.6652
 2057SOL    HW2 7071   1.929   1.840   2.134 -2.4790 -3.1515  2.5533
 2058SOL     OW 7072   6.495   1.774   5.735  0.7383  0.0635  0.2218
 2058SOL    HW1 7073   6.399   1.774   5.706  0.7663  0.6934  0.1089
 2058SOL    HW2 7074   6.506   1.712   5.813  0.1704  0.2356  0.4483
 2059SOL     OW 7075   6.043   3.608   4.795 -0.5018  0.2676  0.4809
 2059SOL    HW1 7076   5.975   3.536   4.784 -2.3483  1.8870  0.7436
 2059SOL    HW2 7077   6.092   3.622   4.709  0.3522 -1.6885  0.6020
 2060SOL     OW 7078   3.125   5.221   2.940  0.3426 -0.8207  0.4294
 2060SOL    HW1 7079   3.220   5.242   2.963  0.7715  0.2170 -2.0121
 2060SOL    HW2 7080   3.096   5.140   2.991  2.8366 -1.7477  0.5320
 2061SOL     OW 7081   6.533   1.446   0.046  0.1522  0.9459 -0.1563
 2061SOL    HW1 7082   6.489   1.504   0.114 -0.0384  0.6939 -0.0660
 2061SOL    HW2 7083   6.464   1.395  -0.004  0.4144 -0.6689  1.0658
 2062SOL     OW 7084   1.213   3.484   1.652  0.0946  0.0889  0.2293
 2062SOL    HW1 7085   1.222   3.582   1.668  0.5231 -0.0112  0.6130
 2062SOL    HW2 7086   1.264   3.433   1.722 -1.6475 -0.4645  1.1532
 2063SOL     OW 7087   6.877   4.329   2.967 -0.3214  0.5813  0.3834
 2063SOL    HW1 7088   6.916   4.239   2.950  0.0297  0.9648 -0.9083
 2063SOL    HW2 7089   6.946   4.389   3.008 -0.1544  0.6609 -0.0145
 2064SOL     OW 7090   5.547   4.802   2.033  0.3729 -0.0210 -0.9724
 2064SOL    HW1 7091   5.513   4.853   2.112  2.0400  0.4951 -0.5538
 2064SOL    HW2 7092   5.494   4.717   2.023  0.2497 -0.1982  0.8046
 2065SOL     OW 7093   3.590   0.052   4.915  0.1597 -0.3980  0.2674
 2065SOL    HW1 7094   3.561   0.015   5.003 -0.5581 -0.2794  0.0833
 2065SOL    HW2 7095   3.524   0.027   4.845  1.0076 -0.9628 -0.3554
 2066SOL     OW 7096   0.323   5.310   2.702 -0.3895 -0.6236 -0.2596
 2066SOL    HW1 7097   0.315   5.299   2.801 -1.7227 -0.7317 -0.3721
 2066SOL    HW2 7098   0.261   5.247   2.656  0.6009 -0.9402 -1.1916
 2067SOL     OW 7099   4.699   2.536   0.540  0.3883 -0.0230 -0.6979
 2067SOL    HW1 7100   4.664   2.446   0.567 -0.2395  0.6377  0.8032
 2067SOL    HW2 7101   4.623   2.592   0.506 -0.5673  1.8952  3.8444
 2068SOL     OW 7102   3.898   6.708   5.817 -0.1971 -0.7461 -0.0799
 2068SOL    HW1 7103   3.949   6.768   5.755  0.3798  1.7862  2.5906
 2068SOL    HW2 7104   3.950   6.624   5.831  0.9628 -0.2245 -0.9930
 2069SOL     OW 7105   5.265   2.422   5.445  0.4867 -0.2119 -0.1099
 2069SOL    HW1 7106   5.172   2.431   5.480  0.2831 -1.0743 -0.4132
 2069SOL    HW2 7107   5.330   2.449   5.516  0.1573 -3.5802  1.6482
 2070SOL     OW 7108   1.725   5.094   6.571 -0.0197 -0.5285  0.1151
 2070SOL    HW1 7109   1.685   5.097   6.479  2.2656 -0.9157 -0.9783
 2070SOL    HW2 7110   1.756   5.185   6.597  1.4716 -0.8042 -0.5745
 2071SOL     OW 7111   5.930   4.392   4.173  0.4155 -0.6608  0.8128
 2071SOL    HW1 7112   5.910   4.484   4.138 -0.4042 -0.9587  0.4599
 2071SOL    HW2 7113   5.917   4.326   4.100  1.0242 -1.0629  1.0633
 2072SOL     OW 7114   1.181   1.007   1.822 -0.3631 -0.1004 -0.4883
 2072SOL    HW1 7115   1.244   0.955   1.764  1.1262  1.4297 -0.2972
 2072SOL    HW2 7116   1.097   1.027   1.771 -0.3410 -1.3769 -1.0567
 2073SOL     OW 7117   4.239   5.606   0.765  0.0448 -0.3955  1.1566
 2073SOL    HW1 7118   4.235   5.589   0.863  0.5581  0.1964  1.2882
 2073SOL    HW2 7119   4.323   5.655   0.743 -0.5108  0.3041  0.5436
 2074SOL     OW 7120   5.949   1.190   3.629 -0.1241  0.5568 -0.4933
 2074SOL    HW1 7121   5.897   1.273   3.608  0.8705  1.2223 -0.3902
 2074SOL    HW2 7122   5.906   1.142   3.706 -0.3872  1.2709 -0.1914
 2075SOL     OW 7123   1.214   4.855   2.845  0.1788 -0.3527  0.6389
 2075SOL    HW1 7124   1.231   4.762   2.877  1.7439 -0.3438 -0.0629
 2075SOL    HW2 7125   1.227   4.919   2.921  0.9759 -0.5640  0.6920
 2076SOL     OW 7126   5.391   0.528   6.428  0.1877 -0.2604 -0.3571
 2076SOL    HW1 7127   5.394   0.581   6.344 -0.5612 -0.9208 -0.8090
 2076SOL    HW2 7128   5.416   0.587   6.505  0.7326  0.3864 -1.0144
 2077SOL     OW 7129   4.581   0.938   3.213 -0.0218  0.5343 -0.2723
 2077SOL    HW1 7130   4.609   0.857   3.162 -0.7726  1.3081 -1.9933
 2077SOL    HW2 7131   4.505   0.982   3.166  0.6247  2.4702  0.3993
 2078SOL     OW 7132   3.133   5.475   0.690 -0.1177 -0.1310 -0.6016
 2078SOL    HW1 7133   3.194   5.534   0.637  0.0430 -0.6773 -1.0417
 2078SOL    HW2 7134   3.158   5.380   0.675 -1.0108 -0.3624 -0.7106
 2079SOL     OW 7135   1.885   2.654   0.745  0.5297  0.3424 -0.3966
 2079SOL    HW1 7136   1.925   2.737   0.707 -0.0391  1.6734  1.7134
 2079SOL    HW2 7137   1.807   2.626   0.689  0.2490  1.6966 -0.7340
 2080SOL     OW 7138   6.063   0.203   2.716 -0.1241  0.4672  0.4805
 2080SOL    HW1 7139   6.060   0.237   2.810 -0.6891 -0.0824  0.6682
 2080SOL    HW2 7140   5.978   0.227   2.669 -0.1797  0.0424  0.3600
 2081SOL     OW 7141   0.044   6.102   5.547 -0.6367  0.1994 -0.5042
 2081SOL    HW1 7142  -0.047   6.061   5.557  0.0965 -1.3892 -0.1804
 2081SOL    HW2 7143   0.066   6.154   5.630 -0.5357 -0.8835  0.1611
 2082SOL     OW 7144   3.106   5.989   4.272  0.0595 -0.2403 -0.6468
 2082SOL    HW1 7145   3.031   6.015   4.211  0.5688 -0.9647 -1.6125
 2082SOL    HW2 7146   3.181   5.950   4.218  1.9551  2.1807  0.0406
 2083SOL     OW 7147   5.193   5.804   0.767 -0.0809 -0.2972 -0.6148
 2083SOL    HW1 7148   5.229   5.851   0.686  1.8638  1.3061  1.0590
 2083SOL    HW2 7149   5.246   5.720   0.783 -1.0997 -1.1330 -1.5008
 2084SOL     OW 7150   6.433   0.484   6.428  0.8415 -0.0403  0.0004
 2084SOL    HW1 7151   6.528   0.507   6.404  0.6171  0.8527 -0.0710
 2084SOL    HW2 7152   6.400   0.411   6.369  1.3983 -0.1642 -0.1599
 2085SOL     OW 7153   6.831   0.045   2.907 -0.0301  0.4989  0.4999
 2085SOL    HW1 7154   6.907   0.056   2.971  0.6684 -3.0722  0.4889
 2085SOL    HW2 7155   6.860   0.071   2.815  0.5301  1.0662  0.8313
 2086SOL     OW 7156   6.684   6.785   2.104  0.0920  0.7199  0.2866
 2086SOL    HW1 7157   6.679   6.863   2.167 -0.1925 -0.8442  2.2861
 2086SOL    HW2 7158   6.610   6.721   2.124  0.5786 -0.2979 -1.0292
 2087SOL     OW 7159   2.492   1.871   6.138 -0.0319 -0.3501 -0.1629
 2087SOL    HW1 7160   2.535   1.881   6.229  0.3915 -1.2085 -0.2609
 2087SOL    HW2 7161   2.561   1.841   6.072 -0.3496  0.2228 -0.7683
 2088SOL     OW 7162   5.635   4.952   5.518 -0.1083 -0.5962  0.3066
 2088SOL    HW1 7163   5.576   4.872   5.524 -0.1881 -0.4854  1.0956
 2088SOL    HW2 7164   5.581   5.032   5.493 -0.4207 -0.3738  1.6244
 2089SOL     OW 7165   0.108   5.476   3.260 -0.0879  0.4127 -0.1862
 2089SOL    HW1 7166   0.032   5.411   3.271  1.6185 -1.6688  0.1981
 2089SOL    HW2 7167   0.131   5.484   3.164  1.0041 -1.2834 -0.1165
 2090SOL     OW 7168   4.227   1.586   0.688  0.0245  0.6672  0.1651
 2090SOL    HW1 7169   4.179   1.605   0.773  1.0656  3.1889  0.2744
 2090SOL    HW2 7170   4.286   1.506   0.700  0.0757  0.9213  1.7649
 2091SOL     OW 7171   3.113   4.860   4.007  0.1668  0.2196 -0.6706
 2091SOL    HW1 7172   3.018   4.859   4.040  0.8455  1.0524  1.4991
 2091SOL    HW2 7173   3.146   4.767   3.996  0.1794 -0.1861  2.1145
 2092SOL     OW 7174   6.520   0.448   1.877 -0.5505  0.1422  0.0173
 2092SOL    HW1 7175   6.434   0.425   1.830 -0.9714 -2.8423  1.9786
 2092SOL    HW2 7176   6.590   0.381   1.853  0.6433  1.2964  0.1356
 2093SOL     OW 7177   2.171   6.645   2.622  0.4205  0.4297 -0.3527
 2093SOL    HW1 7178   2.197   6.575   2.555  1.6112  0.6929 -0.1803
 2093SOL    HW2 7179   2.247   6.707   2.637  0.2517  0.2739  1.3811
 2094SOL     OW 7180   2.275   0.459   4.468  0.0237 -0.0372 -0.1009
 2094SOL    HW1 7181   2.374   0.467   4.465  0.0826  0.0121  1.3055
 2094SOL    HW2 7182   2.246   0.381   4.412  1.0775 -1.5166  1.3212
 2095SOL     OW 7183   0.836   2.587   6.607  0.2853 -0.0887 -0.5070
 2095SOL    HW1 7184   0.774   2.537   6.547  0.9440 -0.8683 -0.5555
 2095SOL    HW2 7185   0.912   2.528   6.633 -0.2515  0.0480  1.5332
 2096SOL     OW 7186   3.370   5.412   3.856  0.4901 -0.0660  0.4094
 2096SOL    HW1 7187   3.356   5.342   3.926  1.1389 -0.2309  0.3824
 2096SOL    HW2 7188   3.441   5.475   3.886  2.1159 -1.2028 -0.8631
 2097SOL     OW 7189   0.860   4.635   1.623  0.0081  0.2043  0.1304
 2097SOL    HW1 7190   0.863   4.614   1.720 -1.8717 -1.0752 -0.0430
 2097SOL    HW2 7191   0.873   4.734   1.610  0.5469  0.3609  1.6354
 2098SOL     OW 7192   2.394   1.745   5.584 -0.9429  0.4614 -0.1037
 2098SOL    HW1 7193   2.388   1.751   5.485 -2.2325  2.9673  0.0557
 2098SOL    HW2 7194   2.413   1.835   5.623 -0.0375 -0.5245  1.9390
 2099SOL     OW 7195   0.826   2.733   0.148  0.0595  0.0386  0.6824
 2099SOL    HW1 7196   0.897   2.698   0.087 -1.6271 -0.7051 -0.9580
 2099SOL    HW2 7197   0.807   2.665   0.219 -0.1141 -0.4630  0.1642
 2100SOL     OW 7198   5.828   5.065   4.281 -0.2497  0.3386  0.0909
 2100SOL    HW1 7199   5.771   5.089   4.360 -0.6581 -0.8388  0.1731
 2100SOL    HW2 7200   5.899   5.001   4.310 -0.5933 -0.3444 -0.5522
 2101SOL     OW 7201   0.626   4.806   3.387  0.3043  0.3947 -0.1573
 2101SOL    HW1 7202   0.569   4.809   3.469  1.0717  0.9462  0.3743
 2101SOL    HW2 7203   0.721   4.792   3.413  0.4302 -0.5099 -1.0340
 2102SOL     OW 7204   2.181   1.914   0.313  0.0480 -0.0511 -0.8695
 2102SOL    HW1 7205   2.259   1.976   0.322 -0.8932  1.0627 -0.0971
 2102SOL    HW2 7206   2.207   1.823   0.347  0.7767  0.5189  0.1662
 2103SOL     OW 7207   0.080   6.145   4.118  0.0931 -0.1545  0.0311
 2103SOL    HW1 7208   0.105   6.210   4.047 -0.9497  1.2084  0.8641
 2103SOL    HW2 7209  -0.019   6.149   4.133  0.2114 -0.8736  1.1183
 2104SOL     OW 7210   0.596   6.039   0.422 -0.0294  0.1851 -0.1056
 2104SOL    HW1 7211   0.539   6.120   0.434  0.7353  0.8729 -1.0588
 2104SOL    HW2 7212   0.613   6.024   0.325  1.2038 -0.1526  0.1461
 2105SOL     OW 7213   3.879   2.990   6.104 -0.4464 -0.1362 -0.3100
 2105SOL    HW1 7214   3.817   3.015   6.179  0.0528  2.9768 -0.8091
 2105SOL    HW2 7215   3.964   3.042   6.112  1.1355 -2.4477 -1.0716
 2106SOL     OW 7216   2.504   5.164   2.103 -0.0465 -0.0458 -0.6094
 2106SOL    HW1 7217   2.507   5.066   2.080 -0.6688  0.5183 -3.5274
 2106SOL    HW2 7218   2.569   5.213   2.045  0.1756  1.3187  0.7458
 2107SOL     OW 7219   6.705   5.060   5.373 -0.0785 -0.3098 -0.5338
 2107SOL    HW1 7220   6.653   5.144   5.358  0.8298  0.5951  1.0520
 2107SOL    HW2 7221   6.653   4.999   5.432  1.2753  1.4472  2.7797
 2108SOL     OW 7222   4.502   1.715   6.558 -0.0435 -0.3933 -0.1405
 2108SOL    HW1 7223   4.438   1.777   6.512 -1.6865  0.6293  3.2196
 2108SOL    HW2 7224   4.568   1.768   6.610 -1.1687 -1.3247  2.3884
 2109SOL     OW 7225   2.346   5.941   0.934  0.0741  0.3326  0.0712
 2109SOL    HW1 7226   2.255   5.982   0.925  0.5139  1.3397  0.0174
 2109SOL    HW2 7227   2.412   5.995   0.881  0.5641 -0.8778 -0.5874
 2110SOL     OW 7228   2.658   1.108   5.639 -0.4075  0.3392  0.1049
 2110SOL    HW1 7229   2.687   1.141   5.729  2.1475 -0.9423 -0.1477
 2110SOL    HW2 7230   2.694   1.170   5.568  1.2238 -0.8783 -0.1834
 2111SOL     OW 7231   3.487   3.375   2.609  0.2455 -0.0531  0.3653
 2111SOL    HW1 7232   3.411   3.416   2.558  0.0713 -2.2523 -1.3236
 2111SOL    HW2 7233   3.565   3.437   2.607 -0.6137  1.0557 -0.3210
 2112SOL     OW 7234   2.636   2.058   0.577  0.5101  0.1922 -0.3425
 2112SOL    HW1 7235   2.649   2.023   0.485  2.0920  0.5365 -0.2878
 2112SOL    HW2 7236   2.642   1.983   0.643  2.8523  0.3413 -0.3020
 2113SOL     OW 7237   2.631   1.176   0.201  0.3978 -0.0387 -0.4208
 2113SOL    HW1 7238   2.650   1.080   0.220  1.7470  0.5819  1.6634
 2113SOL    HW2 7239   2.590   1.219   0.281  2.7311  1.8211 -0.1089
 2114SOL     OW 7240   5.911   4.239   0.991 -0.2556  0.7143  0.9369
 2114SOL    HW1 7241   5.836   4.234   1.057 -1.6547 -0.1708 -0.6523
 2114SOL    HW2 7242   5.935   4.334   0.974  0.1055  0.9718  2.6225
 2115SOL     OW 7243   3.653   1.145   4.075 -0.0446  0.1376  0.3565
 2115SOL    HW1 7244   3.731   1.099   4.032  0.2524  0.2107  0.8143
 2115SOL    HW2 7245   3.569   1.121   4.025  0.1995 -0.3366  0.1637
 2116SOL     OW 7246   6.642   3.111   3.124 -0.1269  0.3644 -0.3840
 2116SOL    HW1 7247   6.698   3.089   3.204 -0.8195 -1.0595 -0.2563
 2116SOL    HW2 7248   6.654   3.207   3.101 -0.0395  0.8609  1.5324
 2117SOL     OW 7249   2.795   6.098   4.775  0.1654  0.0275 -0.7143
 2117SOL    HW1 7250   2.895   6.103   4.772  0.2279 -0.7239 -0.1366
 2117SOL    HW2 7251   2.767   6.029   4.842 -0.7201 -0.5919 -1.6851
 2118SOL     OW 7252   4.288   3.221   6.984  0.4470  0.3450  0.3033
 2118SOL    HW1 7253   4.314   3.312   6.950  1.7638 -0.1635 -0.1124
 2118SOL    HW2 7254   4.278   3.158   6.908 -1.7407  0.4098  0.4820
 2119SOL     OW 7255   0.446   4.283   0.319 -0.2360  0.3199  0.1460
 2119SOL    HW1 7256   0.480   4.193   0.346  0.9141  0.6703 -0.0820
 2119SOL    HW2 7257   0.488   4.309   0.232 -0.6363  1.0404  0.1648
 2120SOL     OW 7258   4.898   1.896   5.046 -0.6385  0.3689  0.3211
 2120SOL    HW1 7259   4.812   1.861   5.009  1.1868 -1.1595 -2.8973
 2120SOL    HW2 7260   4.921   1.982   5.001  0.6951 -0.5303 -0.7729
 2121SOL     OW 7261   0.636   4.710   5.580 -0.6208 -0.6271 -0.2809
 2121SOL    HW1 7262   0.668   4.801   5.604 -0.0260 -1.1156  0.8494
 2121SOL    HW2 7263   0.697   4.641   5.619  0.0892 -1.5198 -2.7666
 2122SOL     OW 7264   6.011   6.255   1.260  0.1797 -0.1060  0.8943
 2122SOL    HW1 7265   5.929   6.249   1.316 -0.6284  0.3416 -0.2042
 2122SOL    HW2 7266   6.059   6.341   1.281 -0.0256 -0.0185  1.0107
 2123SOL     OW 7267   4.449   4.608   4.076 -0.0641 -0.4270 -0.3895
 2123SOL    HW1 7268   4.533   4.589   4.024  0.2685 -0.0673  0.0095
 2123SOL    HW2 7269   4.466   4.595   4.173 -1.2804 -3.2642 -0.4822
 2124SOL     OW 7270   0.035   1.233   2.666  0.1165 -0.0815  0.8510
 2124SOL    HW1 7271  -0.053   1.192   2.638 -0.3671  1.3297  0.2242
 2124SOL    HW2 7272   0.040   1.327   2.632  2.1834 -0.3650  0.2527
 2125SOL     OW 7273   3.109   1.110   4.012 -0.3551 -0.9195 -0.0732
 2125SOL    HW1 7274   3.077   1.111   4.106 -0.4582 -0.0104 -0.1107
 2125SOL    HW2 7275   3.053   1.047   3.958 -1.8110  0.3129 -0.0440
 2126SOL     OW 7276   3.770   0.487   5.728 -0.6257  0.2255 -0.1813
 2126SOL    HW1 7277   3.805   0.510   5.819  1.0004 -0.7757 -0.5160
 2126SOL    HW2 7278   3.685   0.538   5.711 -1.0932  0.2653  1.9637
 2127SOL     OW 7279   3.125   3.459   0.375  0.5279 -0.0908 -0.5614
 2127SOL    HW1 7280   3.129   3.362   0.351  0.9706 -0.0017 -0.8642
 2127SOL    HW2 7281   3.196   3.509   0.325 -0.6094  0.6256 -1.5224
 2128SOL     OW 7282   3.359   1.780   5.386  0.2541 -0.2757 -0.5266
 2128SOL    HW1 7283   3.402   1.856   5.337  0.3986  0.1593  0.2573
 2128SOL    HW2 7284   3.286   1.814   5.445 -1.8783 -1.1002 -2.5365
 2129SOL     OW 7285   2.842   0.530   1.173  0.2910  0.1152 -0.1120
 2129SOL    HW1 7286   2.905   0.486   1.109 -0.6817 -0.3761 -0.7588
 2129SOL    HW2 7287   2.888   0.545   1.261  0.5247 -2.7894  0.3806
 2130SOL     OW 7288   2.404   2.543   1.402 -0.4458 -0.1768  0.0237
 2130SOL    HW1 7289   2.448   2.518   1.316 -0.6272 -0.3322 -0.0243
 2130SOL    HW2 7290   2.425   2.475   1.472  0.3022  0.3327  0.3020
 2131SOL     OW 7291   4.004   5.650   0.589 -0.0369 -0.2214 -0.0675
 2131SOL    HW1 7292   4.085   5.629   0.643 -0.2496 -0.6197  0.1051
 2131SOL    HW2 7293   4.012   5.608   0.499  0.2802  0.3711 -0.3194
 2132SOL     OW 7294   1.699   2.499   0.557  0.4273 -0.5601  0.3363
 2132SOL    HW1 7295   1.626   2.566   0.574  0.6105 -0.5235  1.0180
 2132SOL    HW2 7296   1.724   2.501   0.460 -0.0823 -0.1682  0.2071
 2133SOL     OW 7297   4.398   4.569   4.388 -0.0877 -0.3735 -0.2065
 2133SOL    HW1 7298   4.358   4.564   4.480 -0.8471  0.8398 -0.4522
 2133SOL    HW2 7299   4.457   4.490   4.374  1.6821  0.4080  2.0865
 2134SOL     OW 7300   3.491   3.639   0.280 -0.0837 -0.4622  0.3612
 2134SOL    HW1 7301   3.429   3.718   0.273 -1.0475 -1.2846 -0.8511
 2134SOL    HW2 7302   3.547   3.634   0.198 -0.8261 -1.6592 -0.0993
 2135SOL     OW 7303   2.529   4.509   3.178  0.3881 -0.7465 -0.0776
 2135SOL    HW1 7304   2.575   4.480   3.262 -0.3643 -1.7096  0.0172
 2135SOL    HW2 7305   2.596   4.543   3.113  1.0118 -0.2573  0.7967
 2136SOL     OW 7306   2.863   3.336   1.993 -0.4951  0.2056  0.3854
 2136SOL    HW1 7307   2.778   3.304   1.950  0.3623  0.1524 -1.3461
 2136SOL    HW2 7308   2.925   3.259   2.006  0.1838  0.5872 -0.5154
 2137SOL     OW 7309   4.281   0.222   5.498  0.2204 -0.4785 -0.4836
 2137SOL    HW1 7310   4.373   0.196   5.467  0.2990  0.0329 -0.6831
 2137SOL    HW2 7311   4.239   0.283   5.430  0.1264  0.0964  0.0852
 2138SOL     OW 7312   6.698   2.153   0.241  0.1006 -0.1617  0.0988
 2138SOL    HW1 7313   6.772   2.144   0.174 -0.9881  0.9189 -1.3285
 2138SOL    HW2 7314   6.652   2.065   0.252  0.4208 -0.4034 -0.4287
 2139SOL     OW 7315   5.232   6.205   3.257  0.3492 -0.1840 -0.3630
 2139SOL    HW1 7316   5.224   6.267   3.335  0.2368 -0.4351 -0.1714
 2139SOL    HW2 7317   5.175   6.124   3.273  0.1364 -0.1246 -0.8165
 2140SOL     OW 7318   1.105   3.916   5.392  0.2734 -0.0381  0.3193
 2140SOL    HW1 7319   1.187   3.959   5.355 -0.2744  0.0716 -0.7931
 2140SOL    HW2 7320   1.038   3.903   5.319 -0.2730 -1.1412  0.9914
 2141SOL     OW 7321   0.052   0.725   6.227 -0.7731 -0.0490  0.1569
 2141SOL    HW1 7322  -0.044   0.716   6.252 -1.5736 -0.5353 -2.7698
 2141SOL    HW2 7323   0.082   0.642   6.180 -0.0637  1.5377 -2.3577
 2142SOL     OW 7324   0.834   3.072   2.425  0.6858  0.2573  0.2820
 2142SOL    HW1 7325   0.866   3.109   2.513  1.7959  0.2967 -0.1176
 2142SOL    HW2 7326   0.890   2.992   2.401  0.3295  0.1956 -0.3520
 2143SOL     OW 7327   0.874   3.852   0.449  0.6881  0.0002 -0.5490
 2143SOL    HW1 7328   0.914   3.814   0.533  0.3447 -0.4283 -0.5705
 2143SOL    HW2 7329   0.910   3.943   0.433 -0.6512  0.8823  1.0977
 2144SOL     OW 7330   5.346   6.023   1.837  0.1261  0.1254 -0.6936
 2144SOL    HW1 7331   5.338   5.948   1.903  1.3867 -0.4162 -1.1285
 2144SOL    HW2 7332   5.441   6.032   1.807  0.2493  2.6806  0.2138
 2145SOL     OW 7333   0.327   2.700   3.123  0.0985 -0.1117  0.5702
 2145SOL    HW1 7334   0.393   2.734   3.056 -0.4531  2.3952  1.1791
 2145SOL    HW2 7335   0.367   2.704   3.214  0.0550 -1.3063  0.6540
 2146SOL     OW 7336   1.122   4.277   3.121  0.3068 -0.2889  0.6136
 2146SOL    HW1 7337   1.091   4.210   3.053  0.9224 -1.4709  1.4687
 2146SOL    HW2 7338   1.058   4.279   3.197  1.0977 -1.0578  1.3140
 2147SOL     OW 7339   0.469   1.769   0.192 -0.4786 -0.1870  0.2963
 2147SOL    HW1 7340   0.534   1.767   0.268 -0.8515 -0.2855  0.6186
 2147SOL    HW2 7341   0.507   1.719   0.114  0.0839  0.2670  0.2707
 2148SOL     OW 7342   5.481   6.157   3.144  0.6688 -0.0983  0.4637
 2148SOL    HW1 7343   5.521   6.229   3.088 -0.0611  0.3320  0.4849
 2148SOL    HW2 7344   5.390   6.184   3.174  0.5010 -0.9068  0.7214
 2149SOL     OW 7345   4.670   2.348   1.404 -0.0222  0.2817 -0.4173
 2149SOL    HW1 7346   4.588   2.392   1.441  0.2355  1.1802 -0.8887
 2149SOL    HW2 7347   4.718   2.299   1.477 -1.6859 -1.4153 -0.3895
 2150SOL     OW 7348   1.440   4.487   0.570 -0.1224 -0.2810 -0.1612
 2150SOL    HW1 7349   1.478   4.447   0.654 -1.4127  2.1665  1.7489
 2150SOL    HW2 7350   1.503   4.556   0.534 -0.6110  0.4062  0.2629
 2151SOL     OW 7351   2.122   6.985   6.465 -0.4051 -0.0280  0.2113
 2151SOL    HW1 7352   2.174   6.925   6.526 -2.9423 -1.2710  1.3183
 2151SOL    HW2 7353   2.168   6.990   6.377  0.7902 -2.2793  0.6167
 2152SOL     OW 7354   6.677   1.512   6.404 -0.6062  0.3787 -0.4921
 2152SOL    HW1 7355   6.620   1.584   6.442 -2.7744 -1.1344 -0.7296
 2152SOL    HW2 7356   6.620   1.444   6.358  1.3431 -1.5545 -0.2251
 2153SOL     OW 7357   1.210   2.099   1.652 -0.3365  0.1087 -0.3422
 2153SOL    HW1 7358   1.125   2.150   1.639 -1.6364 -1.9264 -0.2522
 2153SOL    HW2 7359   1.204   2.011   1.606  1.3779 -0.4672  0.4409
 2154SOL     OW 7360   1.604   5.445   5.066  0.7536 -0.1641 -0.0759
 2154SOL    HW1 7361   1.628   5.382   5.140 -1.6566 -0.7599  0.2720
 2154SOL    HW2 7362   1.585   5.393   4.982 -1.8139 -0.0444  0.3614
 2155SOL     OW 7363   0.653   0.116   4.999  0.3694  0.2929  0.4618
 2155SOL    HW1 7364   0.695   0.124   5.089  1.4015  0.1876  0.0125
 2155SOL    HW2 7365   0.716   0.152   4.930 -0.6037  0.8201 -0.1729
 2156SOL     OW 7366   1.916   3.929   0.439  0.4842  0.1271  0.1086
 2156SOL    HW1 7367   1.854   3.956   0.365 -2.2364  1.1865  2.5410
 2156SOL    HW2 7368   1.900   3.833   0.461 -0.2224  0.3514  0.6158
 2157SOL     OW 7369   3.469   1.557   5.283  0.6611 -0.4907  0.3300
 2157SOL    HW1 7370   3.428   1.646   5.303  0.0859 -0.9603  1.3387
 2157SOL    HW2 7371   3.508   1.558   5.191  1.5779  1.1231  0.7101
 2158SOL     OW 7372   4.880   3.692   4.677 -0.2676  0.7791 -0.0130
 2158SOL    HW1 7373   4.979   3.702   4.681 -0.0943 -0.2393 -1.2207
 2158SOL    HW2 7374   4.846   3.659   4.766  0.5269  0.6719  0.2564
 2159SOL     OW 7375   5.003   6.983   1.116 -0.3189  0.1352  0.6838
 2159SOL    HW1 7376   5.051   6.928   1.185 -1.0583 -0.2132  0.9330
 2159SOL    HW2 7377   5.047   6.970   1.027 -1.0825 -1.7146  0.5253
 2160SOL     OW 7378   5.335   0.422   4.149 -0.3392 -0.3570  0.4964
 2160SOL    HW1 7379   5.370   0.408   4.242  1.6548 -0.4823 -0.2140
 2160SOL    HW2 7380   5.380   0.357   4.087  0.6417  1.6862 -1.0387
 2161SOL     OW 7381   0.689   6.071   4.804 -0.6081 -0.0125 -0.4559
 2161SOL    HW1 7382   0.650   6.112   4.886 -0.8938 -1.3684  0.1201
 2161SOL    HW2 7383   0.788   6.060   4.816 -0.7394 -0.7865 -0.0173
 2162SOL     OW 7384   1.698   1.483   2.963  0.1107 -0.2940 -0.2821
 2162SOL    HW1 7385   1.793   1.498   2.936  0.0788 -1.0818 -0.8854
 2162SOL    HW2 7386   1.650   1.433   2.890 -0.4018 -1.1162  0.5952
 2163SOL     OW 7387   4.231   0.044   3.432 -0.2303 -0.1828  0.0329
 2163SOL    HW1 7388   4.300   0.078   3.496  2.7220 -0.6153 -2.6903
 2163SOL    HW2 7389   4.192  -0.041   3.467  1.8053 -0.7938  1.0030
 2164SOL     OW 7390   5.616   5.012   5.175  0.6423  0.0102  0.3999
 2164SOL    HW1 7391   5.550   5.019   5.250 -1.0399  0.2702 -1.0141
 2164SOL    HW2 7392   5.631   4.916   5.152 -2.0833 -0.0933 -1.5075
 2165SOL     OW 7393   5.056   4.538   5.502 -0.1218  1.0333  0.2042
 2165SOL    HW1 7394   4.967   4.578   5.486 -0.1859  0.2255 -1.6628
 2165SOL    HW2 7395   5.048   4.438   5.506  0.3123  1.0273  2.8651
 2166SOL     OW 7396   1.745   3.800   2.312  0.0273  0.5446 -0.7478
 2166SOL    HW1 7397   1.739   3.739   2.390  1.3487  0.1921 -0.9070
 2166SOL    HW2 7398   1.654   3.840   2.294 -0.8936 -1.4020 -0.6830
 2167SOL     OW 7399   6.371   3.300   3.800  0.1339  0.2460 -0.1311
 2167SOL    HW1 7400   6.319   3.368   3.852 -0.0643 -0.2049  0.2634
 2167SOL    HW2 7401   6.325   3.284   3.712 -1.4414 -1.4828  0.9452
 2168SOL     OW 7402   6.188   4.319   4.182 -0.2445  0.1132 -0.4449
 2168SOL    HW1 7403   6.108   4.378   4.176  0.4391  1.0572 -0.4694
 2168SOL    HW2 7404   6.187   4.255   4.105 -1.1911 -0.1806 -0.2062
 2169SOL     OW 7405   1.088   0.435   3.443  0.1599  0.3306 -0.2619
 2169SOL    HW1 7406   1.144   0.454   3.524  1.9972  1.3425 -1.6749
 2169SOL    HW2 7407   1.107   0.505   3.373 -1.4831 -0.4127 -1.5113
 2170SOL     OW 7408   6.202   3.979   6.352  0.2278 -0.0529 -1.0373
 2170SOL    HW1 7409   6.169   4.072   6.363 -0.2771 -0.3846  0.6453
 2170SOL    HW2 7410   6.281   3.965   6.412 -1.2323 -1.3726  0.6941
 2171SOL     OW 7411   4.036   0.032   0.248  0.7441 -0.3441 -0.1907
 2171SOL    HW1 7412   3.943   0.067   0.241 -0.1508 -2.8393 -2.3625
 2171SOL    HW2 7413   4.099   0.094   0.201  0.1760  1.1443  0.9368
 2172SOL     OW 7414   4.224   2.011   0.335 -0.0177  0.5765 -0.5758
 2172SOL    HW1 7415   4.314   1.980   0.304  0.0249 -0.0744  0.1703
 2172SOL    HW2 7416   4.232   2.104   0.370  0.0551  1.0917 -1.9037
 2173SOL     OW 7417   6.095   0.137   3.533  0.1146 -0.4358  0.8220
 2173SOL    HW1 7418   6.076   0.143   3.632 -1.2401 -1.0993  0.6260
 2173SOL    HW2 7419   6.135   0.223   3.502  0.9644 -0.3590  2.0180
 2174SOL     OW 7420   0.103   6.535   1.722  0.4247 -0.2440 -0.1946
 2174SOL    HW1 7421   0.163   6.581   1.788 -0.2578  0.5221 -0.0839
 2174SOL    HW2 7422   0.062   6.604   1.662 -1.1501 -0.6099  0.3986
 2175SOL     OW 7423   3.767   0.943   0.042  0.5633  0.0881 -0.1153
 2175SOL    HW1 7424   3.776   1.011  -0.031  0.1618 -0.7749 -0.9876
 2175SOL    HW2 7425   3.780   0.852   0.004  1.3089 -0.3302  1.0802
 2176SOL     OW 7426   3.485   3.676   6.363  0.7695 -0.0832 -0.2706
 2176SOL    HW1 7427   3.510   3.610   6.292  0.2736 -0.1442 -0.3953
 2176SOL    HW2 7428   3.399   3.648   6.405  2.0523 -1.1885  1.7924
 2177SOL     OW 7429   5.699   2.915   3.983 -0.6680 -0.1192  0.6657
 2177SOL    HW1 7430   5.728   2.951   3.894  1.1535 -0.3697  1.1156
 2177SOL    HW2 7431   5.708   2.815   3.984  0.0407 -0.0577  1.3623
 2178SOL     OW 7432   2.315   2.866   3.697  0.5717 -0.2741 -0.2358
 2178SOL    HW1 7433   2.307   2.812   3.613  0.6775  0.1454 -0.5176
 2178SOL    HW2 7434   2.311   2.963   3.675 -0.2879 -0.1627  0.3283
 2179SOL     OW 7435   0.431   2.392   5.597  0.1379 -0.0407  0.0251
 2179SOL    HW1 7436   0.452   2.484   5.630  0.4433 -0.1858  0.2392
 2179SOL    HW2 7437   0.443   2.389   5.497  2.6796 -0.5063  0.2841
 2180SOL     OW 7438   5.202   5.427   0.569 -0.4887 -0.1607 -0.0759
 2180SOL    HW1 7439   5.206   5.468   0.660  0.1309 -0.3223 -0.0263
 2180SOL    HW2 7440   5.176   5.497   0.502 -0.8584 -0.0231  0.2130
 2181SOL     OW 7441   1.749   5.917   2.893 -0.2735  0.1989  0.2857
 2181SOL    HW1 7442   1.817   5.920   2.820  0.4689  1.5414  0.9949
 2181SOL    HW2 7443   1.662   5.953   2.860 -0.1005  0.2717 -0.0886
 2182SOL     OW 7444   0.499   1.069   2.101 -0.1189  0.5067 -0.4366
 2182SOL    HW1 7445   0.549   1.156   2.097  0.2804  0.2951 -0.0895
 2182SOL    HW2 7446   0.402   1.088   2.117  0.1942  0.8441  1.2583
 2183SOL     OW 7447   6.987   6.822   5.547  1.0530  0.3338  0.1905
 2183SOL    HW1 7448   6.931   6.746   5.514 -0.0538  2.0195 -2.1813
 2183SOL    HW2 7449   7.071   6.827   5.492  0.5709  1.4418 -0.4939
 2184SOL     OW 7450   6.457   6.377   3.926  0.0937 -0.0203 -0.5292
 2184SOL    HW1 7451   6.438   6.443   3.853 -0.1609 -0.4593 -0.8620
 2184SOL    HW2 7452   6.545   6.400   3.969 -0.6931  1.4514  0.3877
 2185SOL     OW 7453   5.600   6.492   6.556  0.2179  0.5006 -0.4084
 2185SOL    HW1 7454   5.667   6.419   6.573  0.4883  0.1897 -2.5098
 2185SOL    HW2 7455   5.592   6.507   6.457 -2.0589  1.2626 -0.1563
 2186SOL     OW 7456   6.551   1.968   3.273 -0.0449  0.8569 -0.4318
 2186SOL    HW1 7457   6.647   1.966   3.298 -0.0950 -0.1518 -0.2614
 2186SOL    HW2 7458   6.541   1.997   3.178  0.6541 -1.4513 -1.2920
 2187SOL     OW 7459   6.601   4.767   0.454 -0.0763 -0.5048 -0.7399
 2187SOL    HW1 7460   6.529   4.767   0.385 -1.1267 -1.7716  0.2928
 2187SOL    HW2 7461   6.562   4.743   0.543  1.2823  0.7990  0.2656
 2188SOL     OW 7462   5.249   1.810   3.512  0.2836 -0.3769 -0.2390
 2188SOL    HW1 7463   5.235   1.756   3.429  1.4630  0.4684 -1.0056
 2188SOL    HW2 7464   5.241   1.907   3.491 -1.4412 -0.1727  1.0573
 2189SOL     OW 7465   5.243   0.843   1.823  0.1454 -0.1689  0.5927
 2189SOL    HW1 7466   5.223   0.930   1.867 -0.0839  0.2286 -0.2801
 2189SOL    HW2 7467   5.203   0.768   1.876 -1.3566  0.4014  0.3113
 2190SOL     OW 7468   3.828   1.654   5.076  0.1620  0.1433 -0.5001
 2190SOL    HW1 7469   3.926   1.640   5.068  0.1847  0.3242 -0.5552
 2190SOL    HW2 7470   3.809   1.711   5.156  0.0479 -0.4615 -0.0960
 2191SOL     OW 7471   0.331   4.365   1.327  0.4687  0.0002  0.1271
 2191SOL    HW1 7472   0.278   4.305   1.267  1.2355  1.4143 -2.0691
 2191SOL    HW2 7473   0.421   4.325   1.341  0.8047  0.3625 -0.9186
 2192SOL     OW 7474   1.185   5.248   1.345 -0.1750 -0.0262  0.4643
 2192SOL    HW1 7475   1.207   5.152   1.363 -1.5391 -0.5490 -0.4612
 2192SOL    HW2 7476   1.163   5.260   1.248  1.6303  1.5924  0.1899
 2193SOL     OW 7477   5.778   0.080   0.436  0.1432 -0.4776  0.2845
 2193SOL    HW1 7478   5.799   0.078   0.339  0.2781 -0.9773  0.3193
 2193SOL    HW2 7479   5.861   0.068   0.489  0.0187 -0.6197  0.4515
 2194SOL     OW 7480   0.005   4.699   4.477 -0.4811 -0.0462  0.0231
 2194SOL    HW1 7481  -0.055   4.777   4.490  0.1470  0.7013 -1.3159
 2194SOL    HW2 7482   0.047   4.704   4.386  0.6623 -1.1830  0.4527
 2195SOL     OW 7483   0.652   5.689   0.080 -0.2464  0.2003 -0.3702
 2195SOL    HW1 7484   0.678   5.620   0.147 -1.2702  1.1533  1.0507
 2195SOL    HW2 7485   0.563   5.667   0.041 -0.9077  1.0533  0.6123
 2196SOL     OW 7486   3.403   3.826   2.076 -0.2807 -0.0187  0.3605
 2196SOL    HW1 7487   3.310   3.812   2.042 -0.1535  1.3715 -0.6020
 2196SOL    HW2 7488   3.417   3.922   2.097  1.3315  0.0043 -0.6850
 2197SOL     OW 7489   2.837   1.826   6.156  0.9084  0.3323 -0.4103
 2197SOL    HW1 7490   2.843   1.886   6.236 -0.6392  2.8662 -2.0502
 2197SOL    HW2 7491   2.878   1.871   6.077 -2.6311  0.5646 -2.3396
 2198SOL     OW 7492   2.201   3.381   5.170  0.1085  0.1593 -0.2898
 2198SOL    HW1 7493   2.272   3.333   5.221  0.6363  1.0201 -0.1999
 2198SOL    HW2 7494   2.195   3.475   5.201 -1.8231 -0.1552  0.4676
 2199SOL     OW 7495   2.358   2.388   0.704  0.2551  0.2947 -0.0621
 2199SOL    HW1 7496   2.427   2.421   0.768  0.2373  0.6766 -0.2373
 2199SOL    HW2 7497   2.353   2.288   0.708 -0.1202  0.3447  0.9172
 2200SOL     OW 7498   2.953   3.794   3.976 -0.0149 -0.0690  0.0612
 2200SOL    HW1 7499   2.929   3.771   3.881 -0.9437 -0.1756  0.3118
 2200SOL    HW2 7500   2.979   3.890   3.980  1.7140 -0.4843 -0.5957
 2201SOL     OW 7501   0.338   3.529   0.114  0.4088  0.5104 -0.0631
 2201SOL    HW1 7502   0.298   3.512   0.204 -0.7900 -0.2589 -0.7161
 2201SOL    HW2 7503   0.331   3.446   0.058  1.7464  0.7647 -0.6590
 2202SOL     OW 7504   3.558   3.889   6.817 -0.2387 -0.0153 -0.3750
 2202SOL    HW1 7505   3.459   3.894   6.802 -0.6159  0.4228  1.8760
 2202SOL    HW2 7506   3.589   3.795   6.805 -0.8259 -0.0890 -1.4756
 2203SOL     OW 7507   3.482   3.982   3.235 -0.2947  0.2369  0.2073
 2203SOL    HW1 7508   3.529   3.979   3.147  0.3314  1.3759  0.4821
 2203SOL    HW2 7509   3.403   4.043   3.229 -1.7036 -1.5461 -0.2067
 2204SOL     OW 7510   5.565   3.661   1.954 -0.2027 -0.0839  0.1126
 2204SOL    HW1 7511   5.624   3.740   1.971 -0.3289  0.1511 -0.5299
 2204SOL    HW2 7512   5.484   3.667   2.012 -0.6009  0.6822 -0.5085
 2205SOL     OW 7513   1.414   5.317   6.977 -0.0949 -0.3174  0.2108
 2205SOL    HW1 7514   1.367   5.249   6.922 -0.5583 -0.5362  0.8667
 2205SOL    HW2 7515   1.492   5.274   7.024  0.6692  0.0023 -0.7295
 2206SOL     OW 7516   5.067   2.471   6.513  0.0189 -0.2929  0.1653
 2206SOL    HW1 7517   5.104   2.463   6.420 -0.5310 -0.7060 -0.0211
 2206SOL    HW2 7518   5.077   2.565   6.544  1.3325 -0.4020  0.1671
 2207SOL     OW 7519   3.211   6.917   6.219 -0.4899 -0.0691 -0.3546
 2207SOL    HW1 7520   3.185   6.992   6.158  2.8077  0.7220 -1.0314
 2207SOL    HW2 7521   3.296   6.942   6.266  1.2583 -3.6526 -1.2697
 2208SOL     OW 7522   4.875   6.555   5.847  0.5570 -0.1236  0.0994
 2208SOL    HW1 7523   4.882   6.489   5.922 -0.4529  0.9827  1.2046
 2208SOL    HW2 7524   4.786   6.546   5.803  0.8245 -0.1949 -0.4392
 2209SOL     OW 7525   4.464   5.544   2.849 -0.5988 -0.1276 -0.4131
 2209SOL    HW1 7526   4.440   5.447   2.863 -1.2830  0.1101  0.1288
 2209SOL    HW2 7527   4.425   5.599   2.923 -2.0346  0.8361 -1.8116
 2210SOL     OW 7528   0.760   4.272   3.111 -0.3097  0.4397 -0.2389
 2210SOL    HW1 7529   0.767   4.363   3.070  1.9606 -0.0865 -1.1493
 2210SOL    HW2 7530   0.762   4.279   3.210  0.3249  1.3657 -0.3083
 2211SOL     OW 7531   5.217   6.528   1.562  0.1097 -0.2406 -0.2749
 2211SOL    HW1 7532   5.161   6.540   1.480  0.1784 -1.4850 -0.5344
 2211SOL    HW2 7533   5.162   6.487   1.635  0.2704  0.0431  0.0069
 2212SOL     OW 7534   5.560   0.851   0.484  0.1564 -0.4269 -0.0307
 2212SOL    HW1 7535   5.644   0.798   0.488  0.3575 -0.1275 -0.2088
 2212SOL    HW2 7536   5.488   0.796   0.441 -0.3006 -1.3945  1.8683
 2213SOL     OW 7537   2.525   4.326   0.067  0.2969  0.5044  0.1482
 2213SOL    HW1 7538   2.445   4.369   0.026  0.7690  1.2579  0.0029
 2213SOL    HW2 7539   2.604   4.338   0.008  0.8268  0.9810  0.9343
 2214SOL     OW 7540   5.517   1.773   0.571 -0.3421  0.3061  0.6505
 2214SOL    HW1 7541   5.583   1.822   0.627 -0.5774  0.6988  0.5922
 2214SOL    HW2 7542   5.539   1.787   0.474 -1.1405  1.3533  0.6022
 2215SOL     OW 7543   4.329   0.804   4.063  0.1153  0.1162 -0.7378
 2215SOL    HW1 7544   4.336   0.789   3.964  0.0415 -2.5785 -0.4310
 2215SOL    HW2 7545   4.235   0.788   4.093  0.6188 -1.7409  0.0443
 2216SOL     OW 7546   3.129   2.904   5.495  0.0888  0.5684  0.6364
 2216SOL    HW1 7547   3.176   2.821   5.526  0.5387  0.6060  0.0815
 2216SOL    HW2 7548   3.195   2.965   5.452 -0.1162  1.5282  1.6538
 2217SOL     OW 7549   5.142   3.169   1.123  0.0184  0.4627 -0.1359
 2217SOL    HW1 7550   5.065   3.230   1.104 -0.5258  0.3454  1.5429
 2217SOL    HW2 7551   5.112   3.095   1.183  1.8021  1.3913  2.0177
 2218SOL     OW 7552   5.492   4.316   3.523  0.0074  0.4303  0.8671
 2218SOL    HW1 7553   5.558   4.390   3.514 -0.3578  0.5572 -1.2339
 2218SOL    HW2 7554   5.510   4.246   3.453 -0.0004 -1.2321  2.4309
 2219SOL     OW 7555   6.183   6.821   0.130 -0.4092 -0.1114  0.3912
 2219SOL    HW1 7556   6.170   6.879   0.049  0.2953 -1.0197 -0.4138
 2219SOL    HW2 7557   6.226   6.874   0.202  1.8026  0.0083 -0.9129
 2220SOL     OW 7558   5.884   0.677   2.000  0.1630  0.4543  0.5195
 2220SOL    HW1 7559   5.907   0.712   1.909  2.2615  1.3658  1.3468
 2220SOL    HW2 7560   5.888   0.751   2.067  0.0995 -0.4705  1.5729
 2221SOL     OW 7561   5.850   2.647   6.436 -0.0703 -0.3367 -0.5350
 2221SOL    HW1 7562   5.910   2.602   6.503  0.9240  1.1367 -0.3892
 2221SOL    HW2 7563   5.757   2.649   6.471  0.6707  1.6876  1.5537
 2222SOL     OW 7564   5.089   2.155   4.625  0.3157 -0.4548 -0.7773
 2222SOL    HW1 7565   5.143   2.185   4.547  3.0965 -2.8052  0.0854
 2222SOL    HW2 7566   5.150   2.126   4.699 -2.1984 -0.9228  1.2600
 2223SOL     OW 7567   6.203   2.787   6.983  0.1480 -0.2836  0.4382
 2223SOL    HW1 7568   6.164   2.860   6.928 -1.6018 -0.8732  0.8430
 2223SOL    HW2 7569   6.294   2.814   7.014 -0.1931  1.4373  0.0547
 2224SOL     OW 7570   3.856   2.592   5.673 -0.7195  0.4112 -0.0633
 2224SOL    HW1 7571   3.837   2.602   5.771 -0.3393 -2.4133  0.3884
 2224SOL    HW2 7572   3.954   2.603   5.657 -0.6708  0.1165  0.0187
 2225SOL     OW 7573   1.320   2.615   5.508 -0.4980  0.1105 -0.7592
 2225SOL    HW1 7574   1.298   2.676   5.433  1.7948  0.1701 -1.4474
 2225SOL    HW2 7575   1.298   2.521   5.482 -0.3827  0.2112 -1.2255
 2226SOL     OW 7576   5.553   4.543   4.163  0.3351 -0.0759 -0.4502
 2226SOL    HW1 7577   5.461   4.526   4.197 -0.1981 -0.4934 -2.0194
 2226SOL    HW2 7578   5.607   4.589   4.234 -0.5261 -1.3971  1.1362
 2227SOL     OW 7579   2.644   5.844   2.553 -0.1979 -0.0301 -0.3971
 2227SOL    HW1 7580   2.578   5.874   2.484  0.2730  0.4307 -0.6493
 2227SOL    HW2 7581   2.685   5.757   2.525 -1.9819 -1.2786  0.6023
 2228SOL     OW 7582   0.743   1.546   5.578 -0.0956  0.2524 -0.1764
 2228SOL    HW1 7583   0.811   1.477   5.602 -1.0755 -0.8127 -0.4060
 2228SOL    HW2 7584   0.673   1.506   5.519 -1.4151  1.0957  0.7691
 2229SOL     OW 7585   4.802   2.757   3.639 -0.6656  0.5069 -0.4573
 2229SOL    HW1 7586   4.887   2.709   3.616 -0.1162 -0.0178  2.3228
 2229SOL    HW2 7587   4.786   2.829   3.571  0.8894 -0.6756 -2.1878
 2230SOL     OW 7588   2.457   0.506   6.710  0.0864  0.1210  0.4011
 2230SOL    HW1 7589   2.384   0.437   6.703  0.6563 -0.4441 -0.1202
 2230SOL    HW2 7590   2.446   0.573   6.637 -0.9061  1.0362  1.3508
 2231SOL     OW 7591   3.360   0.618   1.727  0.3993  0.4672  0.2633
 2231SOL    HW1 7592   3.426   0.693   1.719  1.4113 -0.5950 -2.7928
 2231SOL    HW2 7593   3.395   0.549   1.791  1.3914  0.7861  0.0869
 2232SOL     OW 7594   1.025   1.264   1.574 -0.2925  0.3386  0.0203
 2232SOL    HW1 7595   0.997   1.211   1.654  0.9907  1.9535  1.6325
 2232SOL    HW2 7596   0.972   1.236   1.495 -1.9047 -1.0534  1.5161
 2233SOL     OW 7597   1.353   2.128   0.174 -0.0542  0.0016  0.3803
 2233SOL    HW1 7598   1.390   2.073   0.100 -2.0791 -0.9477 -0.0085
 2233SOL    HW2 7599   1.309   2.210   0.136 -1.7606 -0.8627  0.3960
 2234SOL     OW 7600   2.059   0.862   2.553  0.7224  0.1617  0.0226
 2234SOL    HW1 7601   2.142   0.848   2.607 -0.0285 -0.0848  1.1603
 2234SOL    HW2 7602   1.981   0.821   2.600 -0.4031  2.1615  0.0388
 2235SOL     OW 7603   3.769   1.743   4.786 -0.1813 -0.5490  0.6028
 2235SOL    HW1 7604   3.777   1.723   4.884 -1.4536  0.0501  0.8508
 2235SOL    HW2 7605   3.743   1.660   4.737  2.3805 -1.3386  0.4522
 2236SOL     OW 7606   2.707   4.328   1.679 -0.2610  0.3471 -0.3391
 2236SOL    HW1 7607   2.742   4.392   1.748 -0.2125  0.8565 -0.8335
 2236SOL    HW2 7608   2.622   4.287   1.712 -2.0250  3.0237 -1.2857
 2237SOL     OW 7609   0.011   6.331   2.766  0.4916  0.4257  0.5861
 2237SOL    HW1 7610  -0.008   6.423   2.800 -0.5471  0.5908 -0.3622
 2237SOL    HW2 7611  -0.007   6.328   2.667 -2.3231 -1.4856  1.0345
 2238SOL     OW 7612   5.118   2.178   6.992 -0.6331  0.5251  0.4435
 2238SOL    HW1 7613   5.021   2.165   7.015 -0.3548 -0.6368  1.0540
 2238SOL    HW2 7614   5.166   2.091   7.003  0.3813  0.9674 -0.3763
 2239SOL     OW 7615   2.330   2.722   3.439  0.1890 -0.7984 -0.2156
 2239SOL    HW1 7616   2.286   2.798   3.392 -1.2353 -0.3241  1.7484
 2239SOL    HW2 7617   2.305   2.636   3.393 -1.7100 -0.4142  0.0055
 2240SOL     OW 7618   0.306   2.220   4.278  0.0673 -0.1884  0.6015
 2240SOL    HW1 7619   0.250   2.253   4.353 -0.1591  0.6502  0.0818
 2240SOL    HW2 7620   0.278   2.265   4.193  0.8984 -0.4645  0.1676
 2241SOL     OW 7621   5.123   4.337   5.788 -0.3607  0.0848  0.1136
 2241SOL    HW1 7622   5.066   4.280   5.729  0.8012  0.2765 -1.2355
 2241SOL    HW2 7623   5.147   4.422   5.740  2.0465 -0.5084  0.1507
 2242SOL     OW 7624   1.506   0.902   3.337 -0.3133 -0.1722  0.3014
 2242SOL    HW1 7625   1.459   0.922   3.251  1.7912  0.6608 -0.7373
 2242SOL    HW2 7626   1.563   0.821   3.325  0.9076  0.6357  0.5066
 2243SOL     OW 7627   3.379   4.176   0.914  0.0863  0.3106 -0.0032
 2243SOL    HW1 7628   3.347   4.266   0.884 -0.1570  0.6672  1.2722
 2243SOL    HW2 7629   3.409   4.181   1.009  2.0806 -0.4760 -0.5288
 2244SOL     OW 7630   6.721   5.842   6.700 -0.2291  0.2784  0.1258
 2244SOL    HW1 7631   6.774   5.883   6.626 -0.4209  3.1266  1.4611
 2244SOL    HW2 7632   6.783   5.791   6.760  0.4062  0.5581 -0.2766
 2245SOL     OW 7633   6.080   2.597   1.617  0.1872 -0.1174 -0.8683
 2245SOL    HW1 7634   5.987   2.597   1.582  0.1675  1.6528 -0.9362
 2245SOL    HW2 7635   6.133   2.525   1.573 -1.3913 -1.8599 -0.0443
 2246SOL     OW 7636   3.928   5.513   3.631  0.1379 -0.1243  0.1295
 2246SOL    HW1 7637   3.909   5.422   3.667 -0.5943  0.5049  1.4018
 2246SOL    HW2 7638   4.021   5.540   3.656  1.1228 -1.3080 -2.0214
 2247SOL     OW 7639   1.234   2.646   4.706 -0.9895 -0.2129 -0.6096
 2247SOL    HW1 7640   1.304   2.591   4.751 -1.7159 -0.8637 -0.2366
 2247SOL    HW2 7641   1.261   2.664   4.612 -0.4882 -0.7556 -0.5777
 2248SOL     OW 7642   4.725   2.905   1.434 -0.0820 -0.1035  0.2013
 2248SOL    HW1 7643   4.811   2.952   1.452  0.0915 -0.5438  0.5346
 2248SOL    HW2 7644   4.674   2.894   1.520 -0.2080 -0.3555  0.0944
 2249SOL     OW 7645   1.408   0.848   5.260 -0.7457 -0.5501  0.6871
 2249SOL    HW1 7646   1.466   0.798   5.196 -2.0947 -0.3815 -0.7327
 2249SOL    HW2 7647   1.424   0.946   5.251 -0.8108 -0.5337  0.7449
 2250SOL     OW 7648   4.931   3.483   4.495 -0.4668 -0.1892 -0.0551
 2250SOL    HW1 7649   4.934   3.386   4.517 -0.9014 -0.2932 -0.4443
 2250SOL    HW2 7650   4.878   3.532   4.564  1.5617  0.1283  1.3691
 2251SOL     OW 7651   4.020   1.292   4.589 -0.5219  0.3208  0.6296
 2251SOL    HW1 7652   3.948   1.312   4.523  0.3658  1.8300  0.0382
 2251SOL    HW2 7653   4.036   1.373   4.645 -1.0972 -0.8650  2.5824
 2252SOL     OW 7654   3.617   4.074   3.453  0.3801 -0.6919  0.0602
 2252SOL    HW1 7655   3.548   4.087   3.524  0.5917  3.3117 -0.2204
 2252SOL    HW2 7656   3.573   4.043   3.369 -0.7523 -0.3090  0.4939
 2253SOL     OW 7657   0.022   1.390   0.126 -0.0798  0.3387 -0.7982
 2253SOL    HW1 7658  -0.036   1.308   0.120 -1.0719  0.9623 -0.0833
 2253SOL    HW2 7659   0.103   1.368   0.180 -0.9719  0.1422  0.5204
 2254SOL     OW 7660   0.895   3.336   6.673  0.6865  0.5761 -0.8067
 2254SOL    HW1 7661   0.975   3.396   6.673 -0.2376  1.8409 -0.8265
 2254SOL    HW2 7662   0.868   3.317   6.767  2.1087 -1.4307 -0.7285
 2255SOL     OW 7663   5.602   0.476   3.117 -0.0903  0.4861  0.1588
 2255SOL    HW1 7664   5.623   0.515   3.207  0.6859 -0.9715  0.6487
 2255SOL    HW2 7665   5.633   0.539   3.046  2.1126  0.3523  0.9156
 2256SOL     OW 7666   4.810   2.177   3.043 -0.4879 -0.0171  0.0830
 2256SOL    HW1 7667   4.778   2.177   3.138  0.0573  0.1816  0.2718
 2256SOL    HW2 7668   4.739   2.215   2.984 -0.8872 -0.2764  0.3892
 2257SOL     OW 7669   1.435   3.548   5.537  0.0015 -0.2675  0.1137
 2257SOL    HW1 7670   1.360   3.581   5.595 -0.1004  0.3479 -0.3564
 2257SOL    HW2 7671   1.477   3.626   5.491  0.4848 -0.6898 -0.1579
 2258SOL     OW 7672   3.331   6.490   4.226 -0.2991  0.3729 -0.8189
 2258SOL    HW1 7673   3.286   6.570   4.267  0.6999  1.0680 -1.0281
 2258SOL    HW2 7674   3.424   6.515   4.199  0.2599 -1.0660 -0.2960
 2259SOL     OW 7675   3.946   0.410   0.457 -0.0451  0.2015 -0.5437
 2259SOL    HW1 7676   3.937   0.492   0.401 -0.7592 -0.6761 -1.7494
 2259SOL    HW2 7677   4.023   0.356   0.425  1.1642  0.9304  0.9912
 2260SOL     OW 7678   5.305   4.933   0.016 -0.4167 -0.5733 -0.3213
 2260SOL    HW1 7679   5.341   4.877   0.091 -1.5183  0.7680  1.2894
 2260SOL    HW2 7680   5.310   5.030   0.041 -0.3594 -0.0370 -2.2175
 2261SOL     OW 7681   6.802   1.376   6.756 -0.4242 -0.6692 -0.3074
 2261SOL    HW1 7682   6.706   1.404   6.744 -0.1651 -0.0324 -0.9505
 2261SOL    HW2 7683   6.861   1.457   6.750  0.2654 -1.2292 -1.2819
 2262SOL     OW 7684   2.167   6.471   2.406 -0.3631  0.4856 -0.1272
 2262SOL    HW1 7685   2.232   6.510   2.341  1.1105 -2.9197 -0.8839
 2262SOL    HW2 7686   2.118   6.395   2.363  1.1090 -2.3398  2.7910
 2263SOL     OW 7687   0.166   5.992   5.319  0.2022  0.0617 -0.0931
 2263SOL    HW1 7688   0.243   5.936   5.352 -0.0118 -1.3029 -1.7423
 2263SOL    HW2 7689   0.119   6.033   5.397  1.4653 -0.6020  1.0736
 2264SOL     OW 7690   0.204   1.589   5.156  0.1318 -0.6257  0.5670
 2264SOL    HW1 7691   0.231   1.684   5.173 -0.0793  0.0580 -2.4155
 2264SOL    HW2 7692   0.276   1.542   5.105  0.2789 -2.1890  2.0890
 2265SOL     OW 7693   2.869   3.574   2.969  0.2761  0.2889  0.2955
 2265SOL    HW1 7694   2.903   3.515   3.043  1.9485 -0.3523 -0.9365
 2265SOL    HW2 7695   2.769   3.574   2.971  0.2682 -0.0913  2.2481
 2266SOL     OW 7696   6.403   4.586   5.971  0.4145  0.5864 -0.0075
 2266SOL    HW1 7697   6.394   4.578   5.871  2.5394 -0.6411 -0.1604
 2266SOL    HW2 7698   6.313   4.574   6.013 -0.2418 -0.8675 -1.6791
 2267SOL     OW 7699   2.531   6.465   3.222  0.3741  0.4360 -0.5697
 2267SOL    HW1 7700   2.467   6.515   3.280 -0.5404  0.0260 -1.1940
 2267SOL    HW2 7701   2.522   6.367   3.238  0.0595  0.3111 -1.4288
 2268SOL     OW 7702   6.913   2.102   1.670 -0.8398  0.2316 -0.0077
 2268SOL    HW1 7703   7.010   2.077   1.667 -1.1943 -1.1710 -2.6611
 2268SOL    HW2 7704   6.873   2.071   1.756  0.9914  0.7544  1.1015
 2269SOL     OW 7705   4.692   2.207   6.660  0.7457  0.0969  0.0775
 2269SOL    HW1 7706   4.598   2.211   6.626 -0.0212  0.0137  2.0780
 2269SOL    HW2 7707   4.692   2.207   6.760  2.8441 -0.8859  0.1396
 2270SOL     OW 7708   2.602   0.972   6.272 -0.1337  0.6690  0.6802
 2270SOL    HW1 7709   2.565   1.058   6.305 -1.2038 -0.2377  1.9362
 2270SOL    HW2 7710   2.698   0.985   6.246 -0.5342  2.4353 -0.0881
 2271SOL     OW 7711   4.618   3.539   5.516  0.4419  0.4627  0.3394
 2271SOL    HW1 7712   4.600   3.443   5.497  1.3115  0.0515  1.4726
 2271SOL    HW2 7713   4.646   3.585   5.431  3.7692 -1.1909  0.3971
 2272SOL     OW 7714   6.160   6.475   1.365  0.1717 -0.5684 -0.2206
 2272SOL    HW1 7715   6.213   6.556   1.389 -0.7998 -0.3362  1.2580
 2272SOL    HW2 7716   6.215   6.393   1.381  0.4865 -0.2794  0.1991
 2273SOL     OW 7717   1.392   6.885   1.385 -0.0912 -0.4734 -0.1929
 2273SOL    HW1 7718   1.344   6.819   1.442  0.8599 -0.1067  1.0786
 2273SOL    HW2 7719   1.465   6.929   1.438  0.5636  0.1888 -1.5709
 2274SOL     OW 7720   5.973   5.811   3.153 -0.2825 -0.0111  1.2337
 2274SOL    HW1 7721   6.052   5.861   3.187  0.5422 -0.0944 -0.4948
 2274SOL    HW2 7722   5.923   5.867   3.087  0.2511 -1.1668 -0.1898
 2275SOL     OW 7723   0.312   1.960   5.581 -0.3756  0.0507  0.5945
 2275SOL    HW1 7724   0.312   1.895   5.656 -1.8309 -2.3293 -1.3352
 2275SOL    HW2 7725   0.232   2.019   5.587 -0.8222 -0.5514  0.5718
 2276SOL     OW 7726   3.168   3.661   1.721  0.0294 -0.7912  0.1309
 2276SOL    HW1 7727   3.186   3.564   1.701  0.2235 -0.8744  0.6878
 2276SOL    HW2 7728   3.193   3.716   1.641 -0.2120 -1.2105 -0.2411
 2277SOL     OW 7729   2.213   1.716   4.262 -0.1378 -0.2363  0.7426
 2277SOL    HW1 7730   2.167   1.745   4.346  0.2770  1.7564  0.3274
 2277SOL    HW2 7731   2.241   1.796   4.209 -0.5315 -1.4408 -1.4139
 2278SOL     OW 7732   2.810   5.415   6.582 -0.2669 -0.1712 -0.2033
 2278SOL    HW1 7733   2.725   5.389   6.628 -0.3340  0.5165  0.0841
 2278SOL    HW2 7734   2.805   5.389   6.486 -1.3999  1.0769 -0.5244
 2279SOL     OW 7735   6.222   0.709   1.860 -0.5231  0.5164 -0.1836
 2279SOL    HW1 7736   6.311   0.702   1.906 -2.0366 -2.2501  2.6889
 2279SOL    HW2 7737   6.168   0.781   1.902 -2.1184 -2.3607  3.2810
 2280SOL     OW 7738   0.048   6.894   6.205  0.1382  0.0304  0.7409
 2280SOL    HW1 7739  -0.040   6.854   6.230 -0.2716 -0.1476 -0.8881
 2280SOL    HW2 7740   0.114   6.821   6.187 -0.0065  0.1061 -0.1429
 2281SOL     OW 7741   1.355   4.550   5.462 -0.0838 -0.2424 -0.7228
 2281SOL    HW1 7742   1.413   4.572   5.384  1.7946  0.1411  0.7107
 2281SOL    HW2 7743   1.381   4.607   5.540 -1.3595 -1.1684  0.4239
 2282SOL     OW 7744   5.870   5.252   1.336 -0.8837  0.0540  0.8363
 2282SOL    HW1 7745   5.964   5.277   1.318 -0.6224 -1.0951  0.5030
 2282SOL    HW2 7746   5.808   5.309   1.282 -0.2873 -0.4845 -0.4479
 2283SOL     OW 7747   6.328   3.194   5.283  0.2185  0.3334  0.1906
 2283SOL    HW1 7748   6.284   3.267   5.335 -0.7097  0.9839 -1.4322
 2283SOL    HW2 7749   6.350   3.227   5.191  0.9190 -1.0642 -0.1703
 2284SOL     OW 7750   4.851   3.044   3.180  0.1898 -0.1052 -0.3417
 2284SOL    HW1 7751   4.871   3.129   3.229  1.8999  0.1031 -1.3307
 2284SOL    HW2 7752   4.835   3.064   3.083 -0.8131 -0.7798 -0.3386
 2285SOL     OW 7753   4.860   3.961   4.646  0.1339 -0.3040  0.0187
 2285SOL    HW1 7754   4.921   3.961   4.566  0.3661  0.5574  0.1842
 2285SOL    HW2 7755   4.836   3.867   4.669  0.0820 -0.5688 -1.0491
 2286SOL     OW 7756   5.259   3.922   2.886 -0.3974 -0.4116  0.1783
 2286SOL    HW1 7757   5.344   3.968   2.912  0.1391 -1.4551  0.3641
 2286SOL    HW2 7758   5.218   3.969   2.808 -1.4804  2.1452  2.1453
 2287SOL     OW 7759   1.511   5.428   0.368 -0.2948  0.4069  0.5097
 2287SOL    HW1 7760   1.488   5.332   0.351  0.1170  0.3791  0.0846
 2287SOL    HW2 7761   1.458   5.486   0.307 -0.2031  0.4208  0.4426
 2288SOL     OW 7762   1.120   5.103   0.728 -0.1757 -0.2036 -0.6630
 2288SOL    HW1 7763   1.144   5.006   0.730  0.8513 -0.0181 -2.2439
 2288SOL    HW2 7764   1.189   5.155   0.779 -1.0484 -0.3345  0.6960
 2289SOL     OW 7765   0.812   5.662   0.355 -0.3065  0.2478  0.2976
 2289SOL    HW1 7766   0.809   5.688   0.452  0.0271  0.4969  0.2433
 2289SOL    HW2 7767   0.736   5.704   0.307  0.2715  1.1990  0.1973
 2290SOL     OW 7768   6.408   6.415   5.710  0.0118  0.1417  0.1030
 2290SOL    HW1 7769   6.364   6.355   5.777 -0.2064 -1.5615 -1.4776
 2290SOL    HW2 7770   6.501   6.381   5.692 -0.2431  0.0184 -1.0765
 2291SOL     OW 7771   5.590   5.150   3.884  0.1051 -0.1789  0.4348
 2291SOL    HW1 7772   5.682   5.113   3.877  0.4098  0.0152  2.6414
 2291SOL    HW2 7773   5.524   5.078   3.861  0.7612 -1.2892  1.8491
 2292SOL     OW 7774   5.901   1.539   6.069 -0.0433 -0.2786  0.0038
 2292SOL    HW1 7775   5.854   1.626   6.053 -1.5473 -0.5505  2.4228
 2292SOL    HW2 7776   5.835   1.465   6.064  1.1908 -1.3139 -1.8378
 2293SOL     OW 7777   2.575   1.306   1.987  0.5639 -0.2962  0.5304
 2293SOL    HW1 7778   2.560   1.248   1.907  1.5589  0.1515 -0.0062
 2293SOL    HW2 7779   2.641   1.378   1.964 -0.7220  1.1324  1.1401
 2294SOL     OW 7780   2.482   1.254   0.393  0.2701 -0.2209 -0.5008
 2294SOL    HW1 7781   2.480   1.210   0.483  1.3623 -0.6577 -0.6737
 2294SOL    HW2 7782   2.394   1.242   0.348  0.5168 -2.2759 -0.5453
 2295SOL     OW 7783   6.259   3.096   4.928 -0.1317 -0.0226 -0.2477
 2295SOL    HW1 7784   6.327   3.087   4.856 -3.1453 -1.9481 -3.1933
 2295SOL    HW2 7785   6.183   3.152   4.895 -1.0714  0.1176  1.9704
 2296SOL     OW 7786   0.519   4.482   2.466 -0.4051  0.1637 -0.1390
 2296SOL    HW1 7787   0.462   4.551   2.422 -0.1399 -0.2781 -1.1885
 2296SOL    HW2 7788   0.604   4.525   2.497 -0.4452  0.3991 -0.3496
 2297SOL     OW 7789   3.665   6.962   6.048  0.3554  0.1681 -0.0490
 2297SOL    HW1 7790   3.754   6.998   6.022  0.8838  0.5143  2.0807
 2297SOL    HW2 7791   3.666   6.863   6.041  0.5850  0.2245 -0.9380
 2298SOL     OW 7792   1.803   4.763   6.146 -0.0695  1.0686  0.3008
 2298SOL    HW1 7793   1.732   4.803   6.088  0.6601  0.7708 -0.8089
 2298SOL    HW2 7794   1.828   4.829   6.217 -0.1882  1.8727 -0.3821
 2299SOL     OW 7795   1.605   6.552   4.269 -0.0578 -0.5395  0.3020
 2299SOL    HW1 7796   1.671   6.614   4.311  0.8039  0.1128 -1.8399
 2299SOL    HW2 7797   1.550   6.509   4.340  1.0937  0.6661  2.0266
 2300SOL     OW 7798   4.816   2.514   5.810 -0.0176 -0.4652 -0.0574
 2300SOL    HW1 7799   4.806   2.478   5.902 -0.8880 -1.3043 -0.4724
 2300SOL    HW2 7800   4.730   2.505   5.760  0.6216 -0.6213 -1.1710
 2301SOL     OW 7801   1.579   0.815   4.777 -0.4475  0.2861 -0.1762
 2301SOL    HW1 7802   1.542   0.722   4.774  1.4932 -0.5206 -0.4378
 2301SOL    HW2 7803   1.548   0.865   4.696 -1.0669 -0.3083 -0.3179
 2302SOL     OW 7804   0.934   2.516   5.407 -0.1647 -0.6021 -0.0676
 2302SOL    HW1 7805   0.883   2.430   5.403 -0.5063 -0.3809 -0.4887
 2302SOL    HW2 7806   1.023   2.503   5.362 -0.9058 -0.2689 -1.6817
 2303SOL     OW 7807   3.204   0.509   2.076 -0.1277  0.5415  0.4006
 2303SOL    HW1 7808   3.169   0.555   1.995  0.6258  0.7521  0.1921
 2303SOL    HW2 7809   3.189   0.410   2.068  2.8056  0.1269 -1.5022
 2304SOL     OW 7810   4.388   6.052   3.707  0.3875  0.4535  0.1219
 2304SOL    HW1 7811   4.461   6.105   3.665 -0.4947  2.1318  0.6058
 2304SOL    HW2 7812   4.427   5.974   3.755  1.6622  0.1917 -1.2629
 2305SOL     OW 7813   5.541   2.906   0.385  0.4233  0.3164 -0.3047
 2305SOL    HW1 7814   5.568   2.959   0.466 -0.2616 -0.5958  0.5399
 2305SOL    HW2 7815   5.466   2.844   0.409  0.8011 -0.6042 -1.4220
 2306SOL     OW 7816   2.907   3.717   2.236  0.0283  0.2980  0.5312
 2306SOL    HW1 7817   2.842   3.755   2.170 -0.2018 -1.9737 -0.6551
 2306SOL    HW2 7818   3.000   3.741   2.209 -0.0621 -0.6256 -0.6890
 2307SOL     OW 7819   1.290   6.684   3.365  1.5015  0.2102  0.1745
 2307SOL    HW1 7820   1.283   6.699   3.266 -0.5163  1.6695  0.4901
 2307SOL    HW2 7821   1.241   6.600   3.389  1.5228  0.1475  0.0036
 2308SOL     OW 7822   4.262   5.382   6.822 -0.1842 -0.1852  0.4184
 2308SOL    HW1 7823   4.191   5.445   6.853  0.2223  0.4292  0.1268
 2308SOL    HW2 7824   4.241   5.290   6.855  0.3045  0.4390  2.6414
 2309SOL     OW 7825   5.098   1.444   1.421 -0.5964  0.5570 -0.0847
 2309SOL    HW1 7826   5.130   1.516   1.359  0.5739  0.3363  0.2434
 2309SOL    HW2 7827   5.002   1.423   1.400 -0.2446  0.4965 -1.8042
 2310SOL     OW 7828   1.281   1.880   4.544  0.0634  0.6241  0.2430
 2310SOL    HW1 7829   1.306   1.906   4.451  0.6140  0.4159  0.3281
 2310SOL    HW2 7830   1.246   1.786   4.544 -0.7813  0.9289  0.1179
 2311SOL     OW 7831   6.297   6.394   0.100 -0.2127 -0.2448  0.1042
 2311SOL    HW1 7832   6.325   6.318   0.159  0.0901 -0.6875 -0.5896
 2311SOL    HW2 7833   6.253   6.465   0.155 -1.1634 -1.2408  0.6564
 2312SOL     OW 7834   1.814   3.519   6.973 -0.8261  0.4780  0.5298
 2312SOL    HW1 7835   1.735   3.541   6.917 -3.2860  0.6453  3.7809
 2312SOL    HW2 7836   1.827   3.420   6.974 -0.5580  0.4900 -0.5018
 2313SOL     OW 7837   6.046   0.398   1.610 -0.2369 -0.4046 -0.2438
 2313SOL    HW1 7838   6.095   0.479   1.577  0.7092 -0.9064 -0.1195
 2313SOL    HW2 7839   5.973   0.374   1.545  0.3874 -0.2809 -1.0082
 2314SOL     OW 7840   6.666   6.956   6.044 -0.1465 -0.4059 -0.6933
 2314SOL    HW1 7841   6.748   6.922   6.089 -0.9725 -1.0868  0.3584
 2314SOL    HW2 7842   6.604   6.880   6.025  0.2415 -0.1613 -3.1945
 2315SOL     OW 7843   6.313   5.935   2.734 -0.0051  0.0717 -0.6178
 2315SOL    HW1 7844   6.239   5.969   2.792 -0.0674  0.6852 -1.0445
 2315SOL    HW2 7845   6.396   5.927   2.788 -0.1307  0.3719 -0.3729
 2316SOL     OW 7846   5.429   4.652   1.049 -0.3022 -0.4947 -0.2497
 2316SOL    HW1 7847   5.427   4.621   0.954  1.3815  2.1772 -1.2527
 2316SOL    HW2 7848   5.408   4.749   1.053  0.4419 -0.3696  2.0445
 2317SOL     OW 7849   5.023   0.910   5.957  0.0443  0.4112 -0.3408
 2317SOL    HW1 7850   4.959   0.844   5.918 -0.0505  1.0041 -1.2058
 2317SOL    HW2 7851   5.068   0.961   5.883 -1.1710  2.5551  0.3184
 2318SOL     OW 7852   2.741   3.994   5.216  0.0374 -0.4463  0.1377
 2318SOL    HW1 7853   2.721   4.060   5.289  1.0287  0.7863 -0.6436
 2318SOL    HW2 7854   2.657   3.971   5.167 -0.1349  1.5613 -0.6077
 2319SOL     OW 7855   0.960   3.170   0.742  0.2319  0.7061  0.5452
 2319SOL    HW1 7856   0.928   3.075   0.736 -1.0913  1.1157  0.7626
 2319SOL    HW2 7857   0.943   3.216   0.655  1.1285  0.6757  0.3482
 2320SOL     OW 7858   3.742   4.317   0.340 -0.2288 -0.6958 -0.5526
 2320SOL    HW1 7859   3.743   4.291   0.436  0.6853  0.4087 -0.2334
 2320SOL    HW2 7860   3.698   4.406   0.330  0.6477 -0.2914 -0.9898
 2321SOL     OW 7861   6.686   5.742   4.407 -0.2875 -0.6684  0.4703
 2321SOL    HW1 7862   6.752   5.814   4.383  1.1777 -2.0987 -0.0295
 2321SOL    HW2 7863   6.637   5.768   4.490  1.0714  0.3607  0.9979
 2322SOL     OW 7864   1.355   1.580   2.171 -0.3647  0.7318  0.4223
 2322SOL    HW1 7865   1.435   1.549   2.223  0.0305 -0.0610 -0.6273
 2322SOL    HW2 7866   1.365   1.553   2.076 -1.2597  1.8353  0.0002
 2323SOL     OW 7867   1.836   3.245   6.429  0.4824  0.3137 -0.2360
 2323SOL    HW1 7868   1.912   3.291   6.475  0.4581 -0.3293  0.4785
 2323SOL    HW2 7869   1.753   3.300   6.439  0.5731  0.3913  0.1308
 2324SOL     OW 7870   4.843   4.515   5.073  0.4421  0.4825  0.1531
 2324SOL    HW1 7871   4.756   4.473   5.046  1.1527  0.1273 -1.8010
 2324SOL    HW2 7872   4.826   4.599   5.124 -1.0206 -0.7002  1.7301
 2325SOL     OW 7873   3.267   0.318   6.975  0.0170  0.2980 -0.0219
 2325SOL    HW1 7874   3.352   0.305   6.923  1.2528  0.8943  1.7323
 2325SOL    HW2 7875   3.281   0.391   7.043 -1.4544 -0.5460  1.2435
 2326SOL     OW 7876   4.500   4.479   6.783 -0.2896 -0.5159  0.0132
 2326SOL    HW1 7877   4.465   4.386   6.782 -1.6305 -0.0497 -1.7124
 2326SOL    HW2 7878   4.599   4.477   6.797 -0.3564 -2.1447  0.4927
 2327SOL     OW 7879   6.652   2.663   2.162  0.7011 -0.2490 -0.1800
 2327SOL    HW1 7880   6.679   2.713   2.080  1.7705 -2.4841 -1.2596
 2327SOL    HW2 7881   6.605   2.726   2.225 -1.6996  1.2003 -3.1539
 2328SOL     OW 7882   3.482   2.036   5.337 -0.3933 -0.4845 -0.4151
 2328SOL    HW1 7883   3.492   2.029   5.238 -1.7178  0.2241 -0.6285
 2328SOL    HW2 7884   3.447   2.126   5.360  0.2432 -0.5200  0.7388
 2329SOL     OW 7885   6.418   1.749   3.127  0.7280  0.2909 -0.0864
 2329SOL    HW1 7886   6.475   1.808   3.184  0.5927  0.6463 -0.3161
 2329SOL    HW2 7887   6.337   1.721   3.178  1.0961 -0.2017  0.2359
 2330SOL     OW 7888   4.446   1.447   2.032  0.3644  0.4844 -0.1066
 2330SOL    HW1 7889   4.472   1.351   2.028 -1.5848 -0.0601 -1.1428
 2330SOL    HW2 7890   4.403   1.467   2.120  0.2704  0.2686 -0.1035
 2331SOL     OW 7891   5.848   3.961   6.911  0.8320 -0.2932 -0.0575
 2331SOL    HW1 7892   5.760   3.927   6.879  0.0451 -0.4648  2.1271
 2331SOL    HW2 7893   5.895   3.890   6.962  1.7432  0.1622 -0.2285
 2332SOL     OW 7894   4.628   6.446   5.771  0.4394  0.1963  0.6126
 2332SOL    HW1 7895   4.651   6.352   5.744  0.3038  0.2961  0.1444
 2332SOL    HW2 7896   4.596   6.447   5.866  0.9203 -0.1606  0.7814
 2333SOL     OW 7897   3.840   0.932   5.812 -0.1601 -0.0337  0.4133
 2333SOL    HW1 7898   3.887   1.015   5.844 -1.3054  0.9922 -0.4434
 2333SOL    HW2 7899   3.836   0.934   5.712 -0.6850 -0.8615  0.4176
 2334SOL     OW 7900   5.589   3.176   5.584  0.5062 -0.2787  0.7986
 2334SOL    HW1 7901   5.495   3.209   5.593  0.9153  1.0217  0.5148
 2334SOL    HW2 7902   5.593   3.107   5.511 -0.0144  0.6190 -0.1179
 2335SOL     OW 7903   6.997   1.906   1.081  0.0025  0.2875  0.2317
 2335SOL    HW1 7904   6.956   1.975   1.140  1.3179  1.2605  0.0485
 2335SOL    HW2 7905   6.933   1.830   1.069 -1.8032  1.7901 -0.1661
 2336SOL     OW 7906   6.925   4.845   3.929 -0.0639  0.4120 -0.1223
 2336SOL    HW1 7907   6.912   4.944   3.932 -0.6953  0.3043  2.0991
 2336SOL    HW2 7908   7.022   4.823   3.933  0.0161  0.9441  2.2430
 2337SOL     OW 7909   1.145   4.621   1.442  0.1711 -0.1531 -0.3092
 2337SOL    HW1 7910   1.070   4.613   1.377  1.3639 -0.5699 -1.6792
 2337SOL    HW2 7911   1.143   4.544   1.506 -1.2812  0.5065  0.4762
 2338SOL     OW 7912   5.027   4.450   3.651  0.2245  0.2300  0.0918
 2338SOL    HW1 7913   4.986   4.371   3.696  1.6014 -1.2615 -1.2003
 2338SOL    HW2 7914   5.031   4.526   3.716 -0.0766 -1.1014  1.7323
 2339SOL     OW 7915   5.666   0.125   6.560  0.6721  0.7278 -0.2846
 2339SOL    HW1 7916   5.585   0.158   6.511 -0.0527 -0.0733  0.3482
 2339SOL    HW2 7917   5.737   0.195   6.557  0.1449  1.2493 -1.2818
 2340SOL     OW 7918   6.242   0.047   3.108 -0.3130 -0.2381  0.0822
 2340SOL    HW1 7919   6.291   0.017   3.026  2.2115  1.9917  0.6350
 2340SOL    HW2 7920   6.271  -0.009   3.186  0.9592  0.6330  0.2740
 2341SOL     OW 7921   6.299   2.845   0.392  0.3176 -0.1286 -0.1680
 2341SOL    HW1 7922   6.311   2.765   0.333 -0.6506 -0.9013  0.6552
 2341SOL    HW2 7923   6.370   2.846   0.462  1.8702  1.1466 -1.6821
 2342SOL     OW 7924   6.354   6.159   3.786 -0.0584  0.3197  0.5557
 2342SOL    HW1 7925   6.401   6.232   3.837 -0.5286  0.3672  0.9227
 2342SOL    HW2 7926   6.421   6.107   3.733  0.3953  0.4528  0.9969
 2343SOL     OW 7927   0.424   2.971   0.850  0.3646  0.0316  0.2509
 2343SOL    HW1 7928   0.409   2.875   0.875  0.0981  0.0303  0.0894
 2343SOL    HW2 7929   0.476   3.016   0.923  1.7597 -0.5902 -0.3359
 2344SOL     OW 7930   6.560   2.141   5.449 -0.1252 -0.3481  0.5180
 2344SOL    HW1 7931   6.554   2.044   5.472 -1.3216 -0.1445  1.1444
 2344SOL    HW2 7932   6.638   2.156   5.390  0.0454 -1.7067  0.3635
 2345SOL     OW 7933   6.183   0.923   4.330 -0.5176  0.2523 -0.1186
 2345SOL    HW1 7934   6.238   0.942   4.412 -0.0060  0.3314 -0.4732
 2345SOL    HW2 7935   6.112   0.993   4.321 -0.2903  0.5028  0.0096
 2346SOL     OW 7936   4.119   3.723   2.490 -0.1721 -0.8762 -0.6267
 2346SOL    HW1 7937   4.187   3.788   2.525 -0.9412 -0.9914  1.2138
 2346SOL    HW2 7938   4.050   3.772   2.437  0.1483 -0.4222 -0.6278
 2347SOL     OW 7939   2.396   4.523   4.682  0.3083 -0.0796 -0.0474
 2347SOL    HW1 7940   2.323   4.580   4.645 -0.6541 -2.0951 -1.4736
 2347SOL    HW2 7941   2.484   4.568   4.667 -0.4161  1.1470 -0.8512
 2348SOL     OW 7942   4.870   4.632   1.017  0.6768 -0.0826 -0.2784
 2348SOL    HW1 7943   4.786   4.674   1.053 -0.2167 -2.2294  0.3426
 2348SOL    HW2 7944   4.949   4.671   1.063 -0.0974  0.8580  0.2926
 2349SOL     OW 7945   5.085   4.327   0.083  0.4693 -0.1212 -0.1689
 2349SOL    HW1 7946   4.996   4.282   0.079 -0.1807  0.8269  2.1800
 2349SOL    HW2 7947   5.095   4.390   0.006 -0.0206 -1.6643 -1.5582
 2350SOL     OW 7948   4.940   5.850   0.872 -0.4315 -0.5561  0.5985
 2350SOL    HW1 7949   4.934   5.949   0.885  0.2518 -0.3890 -0.2768
 2350SOL    HW2 7950   5.008   5.829   0.802 -2.0890 -1.5368 -0.8148
 2351SOL     OW 7951   4.725   4.254   1.364  0.3023  0.5125 -0.7808
 2351SOL    HW1 7952   4.662   4.297   1.300 -0.6758 -2.4839 -2.0017
 2351SOL    HW2 7953   4.718   4.154   1.356  3.0670  0.0411  1.1799
 2352SOL     OW 7954   3.326   0.545   6.392  0.4307 -0.2746 -0.7085
 2352SOL    HW1 7955   3.410   0.575   6.346 -0.5768 -0.5010 -2.8247
 2352SOL    HW2 7956   3.330   0.446   6.405  1.4634 -0.0114  1.3968
 2353SOL     OW 7957   2.813   6.399   0.797  0.5911 -0.3784  0.4379
 2353SOL    HW1 7958   2.838   6.344   0.717  2.5463 -0.2583  0.9292
 2353SOL    HW2 7959   2.761   6.479   0.767  1.0786 -0.4714 -0.7066
 2354SOL     OW 7960   0.994   5.286   3.143 -0.2250  0.1925 -0.0908
 2354SOL    HW1 7961   1.024   5.379   3.120 -1.3701  0.2866 -1.3285
 2354SOL    HW2 7962   0.956   5.286   3.236 -0.9821  1.1619 -0.3764
 2355SOL     OW 7963   3.719   3.008   1.633 -0.6460 -0.0231  0.5196
 2355SOL    HW1 7964   3.705   2.929   1.693 -1.5783 -0.5093 -0.3001
 2355SOL    HW2 7965   3.722   2.976   1.538 -2.4300  1.0452  0.0567
 2356SOL     OW 7966   4.268   0.923   0.770 -0.6007  0.0713  0.5088
 2356SOL    HW1 7967   4.249   1.010   0.724 -0.5064  0.1745  0.6654
 2356SOL    HW2 7968   4.204   0.910   0.845 -0.4183  0.1521  0.6802
 2357SOL     OW 7969   5.862   6.047   0.134  0.3219  0.1949 -0.1915
 2357SOL    HW1 7970   5.802   6.122   0.166 -0.3796  0.5104 -2.1284
 2357SOL    HW2 7971   5.815   5.960   0.147  0.3150  0.2547  0.2118
 2358SOL     OW 7972   5.238   3.648   5.596 -0.0489 -0.0733  0.6011
 2358SOL    HW1 7973   5.232   3.578   5.525 -1.0302  0.5534  0.0363
 2358SOL    HW2 7974   5.152   3.652   5.647 -0.0772  0.8382  0.5026
 2359SOL     OW 7975   2.994   1.820   2.847  0.5401  0.6130 -0.1824
 2359SOL    HW1 7976   3.063   1.870   2.795 -1.3284  1.9009 -1.5422
 2359SOL    HW2 7977   2.979   1.865   2.935  1.0677  0.6055 -0.0873
 2360SOL     OW 7978   3.627   1.831   2.600 -0.1757  0.2902  0.3946
 2360SOL    HW1 7979   3.683   1.791   2.527 -0.0149 -1.6225  1.5021
 2360SOL    HW2 7980   3.531   1.805   2.587 -0.4065  1.2931  0.0014
 2361SOL     OW 7981   1.635   2.433   3.211 -0.1705 -0.0727  0.3954
 2361SOL    HW1 7982   1.567   2.494   3.169  0.4307  2.2441  2.5165
 2361SOL    HW2 7983   1.599   2.340   3.215 -1.4994  0.2447 -2.2037
 2362SOL     OW 7984   3.727   2.947   5.011 -0.3577  0.3114 -0.1144
 2362SOL    HW1 7985   3.688   2.939   4.919  0.9964 -1.3552 -0.6038
 2362SOL    HW2 7986   3.742   3.043   5.033 -1.1050  0.7590 -1.4534
 2363SOL     OW 7987   2.406   1.041   0.030  0.5696  0.1860  0.4893
 2363SOL    HW1 7988   2.335   0.973   0.048  0.2922  0.3480  0.0479
 2363SOL    HW2 7989   2.385   1.125   0.080 -0.7157  0.9652 -1.2330
 2364SOL     OW 7990   0.984   1.021   2.136 -0.7661  0.3631  0.4683
 2364SOL    HW1 7991   0.937   1.006   2.049 -0.8936 -0.0809  0.6132
 2364SOL    HW2 7992   0.924   0.994   2.211  0.0505 -1.0585  0.6314
 2365SOL     OW 7993   3.001   1.030   1.652 -0.1016  0.4761  0.2710
 2365SOL    HW1 7994   3.059   1.107   1.625  0.0981  0.3338  0.2875
 2365SOL    HW2 7995   3.026   0.950   1.598 -2.6698  1.2566 -2.3511
 2366SOL     OW 7996   1.079   6.820   3.544 -0.1317  0.2998 -0.5118
 2366SOL    HW1 7997   1.144   6.790   3.474  2.1049  3.1137  0.1428
 2366SOL    HW2 7998   1.128   6.869   3.616 -2.7949  0.6804  1.1951
 2367SOL     OW 7999   2.364   5.308   0.048  0.0198  0.7378 -0.2351
 2367SOL    HW1 8000   2.269   5.277   0.051  0.2942 -0.1746 -0.5396
 2367SOL    HW2 8001   2.422   5.244   0.098  0.3001  2.0521  1.1954
 2368SOL     OW 8002   4.809   4.039   1.152  0.1159 -0.4999 -0.2001
 2368SOL    HW1 8003   4.741   4.013   1.220 -1.6837  0.1533 -1.6775
 2368SOL    HW2 8004   4.892   4.070   1.198 -0.6734 -1.0189  1.6567
 2369SOL     OW 8005   4.585   5.059   3.909 -0.3324  0.4643 -0.1485
 2369SOL    HW1 8006   4.561   4.983   3.849 -0.5762 -0.1055  0.6554
 2369SOL    HW2 8007   4.502   5.101   3.945 -0.1906 -0.2135  1.0294
 2370SOL     OW 8008   6.670   1.941   3.643  0.0035  0.2221 -0.0778
 2370SOL    HW1 8009   6.712   1.959   3.732  0.1183 -1.0473  0.1430
 2370SOL    HW2 8010   6.603   2.012   3.623 -0.2552  0.3568  1.1753
 2371SOL     OW 8011   2.617   4.918   1.883 -0.3075  0.4488  0.3468
 2371SOL    HW1 8012   2.610   4.950   1.788  0.0349  0.0048  0.1733
 2371SOL    HW2 8013   2.694   4.964   1.928 -1.8096  2.3802  1.0995
 2372SOL     OW 8014   6.401   1.125   1.282  0.6822  0.6548  0.2347
 2372SOL    HW1 8015   6.414   1.163   1.190 -0.5790 -1.8329 -1.0967
 2372SOL    HW2 8016   6.304   1.128   1.306  0.3265 -2.3075 -0.3662
 2373SOL     OW 8017   1.268   2.880   0.366 -0.2003 -0.3087 -0.1482
 2373SOL    HW1 8018   1.223   2.794   0.346 -0.5931  0.2706 -1.9474
 2373SOL    HW2 8019   1.276   2.934   0.282  0.1049  1.3751  0.9111
 2374SOL     OW 8020   1.378   1.656   2.507  0.2051 -0.3188  0.2694
 2374SOL    HW1 8021   1.386   1.633   2.604  1.0444 -1.3373 -0.0139
 2374SOL    HW2 8022   1.455   1.616   2.457  0.8433  1.8112 -0.5436
 2375SOL     OW 8023   3.309   3.688   5.475  0.0911 -0.0111 -0.0197
 2375SOL    HW1 8024   3.389   3.657   5.528 -0.8056 -0.8374  0.9138
 2375SOL    HW2 8025   3.316   3.655   5.381  0.7253 -0.2916  0.1213
 2376SOL     OW 8026   3.574   0.570   1.919  0.4552 -0.2632 -0.3904
 2376SOL    HW1 8027   3.580   0.646   1.855 -0.3468  0.7143  0.6473
 2376SOL    HW2 8028   3.530   0.601   2.003  0.5027 -1.7812  0.2261
 2377SOL     OW 8029   1.833   0.968   1.774 -0.1280 -0.1921 -0.1184
 2377SOL    HW1 8030   1.904   0.899   1.785 -0.2290 -0.0554  1.6996
 2377SOL    HW2 8031   1.875   1.058   1.761  0.0122 -0.2776 -0.2576
 2378SOL     OW 8032   0.683   4.487   4.419  0.1246 -0.3910  0.0651
 2378SOL    HW1 8033   0.657   4.553   4.489 -0.5452  1.3271 -1.7334
 2378SOL    HW2 8034   0.601   4.448   4.378  0.4868 -0.3305 -0.7251
 2379SOL     OW 8035   0.499   0.997   4.074  0.3419 -0.4761 -0.5881
 2379SOL    HW1 8036   0.501   1.096   4.058 -0.0310 -0.3985 -0.1733
 2379SOL    HW2 8037   0.509   0.979   4.172 -1.7381 -0.7473 -0.3817
 2380SOL     OW 8038   0.700   6.774   4.328  0.1456 -0.3007 -0.4863
 2380SOL    HW1 8039   0.603   6.753   4.335  0.2812 -1.1588 -1.0799
 2380SOL    HW2 8040   0.742   6.715   4.259  1.0739  0.1080 -0.2804
 2381SOL     OW 8041   5.004   1.719   4.868  0.2418 -0.4532 -0.1684
 2381SOL    HW1 8042   4.961   1.785   4.929  0.3156 -0.6042  0.0483
 2381SOL    HW2 8043   4.933   1.668   4.819  0.1827  0.5413 -1.1680
 2382SOL     OW 8044   5.573   1.827   0.284 -0.5605 -0.0267  0.5324
 2382SOL    HW1 8045   5.554   1.888   0.207 -0.2427 -0.3301  0.2024
 2382SOL    HW2 8046   5.610   1.740   0.248 -1.8612 -0.7641  0.9213
 2383SOL     OW 8047   4.566   3.728   1.270 -0.2364  0.0366 -0.3161
 2383SOL    HW1 8048   4.580   3.827   1.263 -1.4608  0.3488  1.1650
 2383SOL    HW2 8049   4.638   3.681   1.218  1.5767  1.6553  0.5787
 2384SOL     OW 8050   6.266   0.985   2.389  0.1884 -0.1503 -0.4390
 2384SOL    HW1 8051   6.274   1.036   2.304  0.0724 -1.3674 -1.2069
 2384SOL    HW2 8052   6.230   1.044   2.461 -2.2027  0.2399 -1.8745
 2385SOL     OW 8053   6.852   3.838   1.435 -0.4583  0.6795  0.0887
 2385SOL    HW1 8054   6.793   3.904   1.389  0.6387  1.3250 -0.4470
 2385SOL    HW2 8055   6.947   3.856   1.410  0.3003  1.5069  3.0839
 2386SOL     OW 8056   4.939   5.761   1.922 -0.1954 -0.7786 -0.4275
 2386SOL    HW1 8057   4.977   5.848   1.892 -1.3243  0.3156  1.1832
 2386SOL    HW2 8058   4.884   5.722   1.848 -0.4664  0.3526 -0.8423
 2387SOL     OW 8059   5.368   2.161   5.401  0.0595 -0.2857  0.3504
 2387SOL    HW1 8060   5.456   2.174   5.357 -0.1677 -0.4531 -0.1602
 2387SOL    HW2 8061   5.332   2.250   5.431  0.3811 -0.2155  0.5311
 2388SOL     OW 8062   6.123   0.489   3.755 -0.0013 -0.0746  0.1914
 2388SOL    HW1 8063   6.036   0.507   3.802  0.1861 -1.4825  1.1254
 2388SOL    HW2 8064   6.197   0.534   3.804 -0.0222 -0.1283  0.2737
 2389SOL     OW 8065   0.720   0.053   4.334 -0.4186 -0.8843  0.0048
 2389SOL    HW1 8066   0.731  -0.046   4.345  0.5738 -0.8725 -0.7782
 2389SOL    HW2 8067   0.679   0.091   4.417  0.8202 -1.7010  1.0402
 2390SOL     OW 8068   0.346   4.663   0.515  0.3782  0.4196  0.3432
 2390SOL    HW1 8069   0.271   4.634   0.455  1.2646  2.9249 -2.2256
 2390SOL    HW2 8070   0.313   4.729   0.582  0.0854  0.7937 -0.1629
 2391SOL     OW 8071   5.920   5.093   4.682 -0.1909 -0.0041 -0.4064
 2391SOL    HW1 8072   5.980   5.056   4.753 -1.1508 -1.6393 -0.4109
 2391SOL    HW2 8073   5.826   5.097   4.716 -0.5373 -0.0666 -1.3197
 2392SOL     OW 8074   2.788   5.622   3.350 -0.0390  0.2374  0.2470
 2392SOL    HW1 8075   2.789   5.616   3.250 -0.7842  0.4863  0.2188
 2392SOL    HW2 8076   2.758   5.714   3.377 -2.7180 -0.6915  0.6937
 2393SOL     OW 8077   1.496   0.872   4.289  0.3288 -0.4902  0.3311
 2393SOL    HW1 8078   1.502   0.965   4.252 -1.1009  0.2340  1.8390
 2393SOL    HW2 8079   1.571   0.856   4.353  0.9335 -0.6166 -0.3940
 2394SOL     OW 8080   5.510   1.023   2.728 -0.2652  0.6113 -0.5203
 2394SOL    HW1 8081   5.472   1.001   2.638 -1.7316  0.9845 -0.0267
 2394SOL    HW2 8082   5.461   1.101   2.766 -0.6051 -0.3851  1.1773
 2395SOL     OW 8083   1.603   1.605   5.570 -0.4239  0.2062  0.0222
 2395SOL    HW1 8084   1.601   1.617   5.669 -0.3046  0.9499 -0.0583
 2395SOL    HW2 8085   1.674   1.664   5.531 -0.5610  0.0178 -0.5202
 2396SOL     OW 8086   6.962   6.937   0.571  0.1589 -0.3853  0.1729
 2396SOL    HW1 8087   6.987   6.979   0.659 -0.6480  3.1308 -1.1047
 2396SOL    HW2 8088   7.022   6.971   0.499 -1.6642 -0.0181 -1.2541
 2397SOL     OW 8089   0.450   6.442   6.341  0.6011 -0.1423 -0.6549
 2397SOL    HW1 8090   0.503   6.451   6.425 -0.2134 -1.9613  0.1221
 2397SOL    HW2 8091   0.491   6.372   6.283  0.6966  0.5304 -1.4119
 2398SOL     OW 8092   6.073   6.225   3.086  0.7007  0.5869 -0.1118
 2398SOL    HW1 8093   6.058   6.171   3.168 -1.1111 -0.2806 -0.9475
 2398SOL    HW2 8094   5.985   6.256   3.049  1.4882  1.3663 -1.4533
 2399SOL     OW 8095   0.252   4.923   6.382 -0.1944  0.0590 -0.2087
 2399SOL    HW1 8096   0.175   4.859   6.383  0.1050 -0.3160  0.8605
 2399SOL    HW2 8097   0.310   4.905   6.303 -1.8422  1.1610 -1.7398
 2400SOL     OW 8098   5.203   1.643   1.266  0.3184 -0.2562  0.7861
 2400SOL    HW1 8099   5.175   1.657   1.171 -0.2574  1.3744  1.1803
 2400SOL    HW2 8100   5.287   1.694   1.283 -1.4564  2.4548  2.0657
 2401SOL     OW 8101   4.890   1.637   6.609  0.5900 -0.4194  0.7242
 2401SOL    HW1 8102   4.822   1.677   6.671 -0.7052 -0.9206 -0.3307
 2401SOL    HW2 8103   4.927   1.707   6.549 -0.8723 -0.5462 -0.3844
 2402SOL     OW 8104   5.511   4.709   5.557 -0.0434 -0.2379  0.4025
 2402SOL    HW1 8105   5.435   4.690   5.619  0.0380  2.4804  1.5071
 2402SOL    HW2 8106   5.504   4.650   5.477 -2.7624 -0.7530  0.9044
 2403SOL     OW 8107   6.209   5.452   4.849 -0.3934 -0.8425  0.0806
 2403SOL    HW1 8108   6.213   5.501   4.762  0.7652  0.4712  0.8485
 2403SOL    HW2 8109   6.133   5.486   4.904 -0.9249 -1.4493 -0.2542
 2404SOL     OW 8110   3.265   5.179   1.072  0.5704 -0.1605  0.6977
 2404SOL    HW1 8111   3.322   5.139   1.144  0.6347 -0.3680  0.5348
 2404SOL    HW2 8112   3.316   5.179   0.985  0.2930 -0.4275  0.5331
 2405SOL     OW 8113   3.440   2.055   3.647  1.0185  0.5765 -0.0690
 2405SOL    HW1 8114   3.464   2.147   3.679  1.6550  0.1244  0.7941
 2405SOL    HW2 8115   3.403   2.002   3.724  0.8113  0.0573 -0.5244
 2406SOL     OW 8116   2.192   3.889   2.791  0.9937 -0.1588  0.3083
 2406SOL    HW1 8117   2.236   3.924   2.874  1.3442 -0.6341  0.3301
 2406SOL    HW2 8118   2.172   3.964   2.729  2.6991 -0.0068 -0.1076
 2407SOL     OW 8119   2.387   6.375   4.183 -0.1841  0.5950 -0.1690
 2407SOL    HW1 8120   2.299   6.328   4.189 -0.2183  0.6860  0.0580
 2407SOL    HW2 8121   2.461   6.308   4.190 -0.2100  0.7305  1.8586
 2408SOL     OW 8122   2.783   5.913   6.860 -0.0322 -0.7180 -0.7042
 2408SOL    HW1 8123   2.883   5.909   6.856  0.1704  1.4481  0.5451
 2408SOL    HW2 8124   2.746   5.821   6.864  1.8795 -1.5747 -1.7014
 2409SOL     OW 8125   2.178   3.987   4.004  0.5948  0.3031  0.3211
 2409SOL    HW1 8126   2.127   3.937   4.074  0.7402  0.0928  0.2771
 2409SOL    HW2 8127   2.170   4.085   4.021 -0.1907  0.2971  0.0616
 2410SOL     OW 8128   2.330   6.785   2.204  0.4241 -0.3364 -0.1502
 2410SOL    HW1 8129   2.323   6.853   2.277 -0.8878 -1.0260  0.4074
 2410SOL    HW2 8130   2.406   6.808   2.144  0.1807  1.4725  0.1741
 2411SOL     OW 8131   3.712   0.127   1.157 -0.5139  0.8126  0.3187
 2411SOL    HW1 8132   3.807   0.099   1.165 -0.7117  0.0289  0.0192
 2411SOL    HW2 8133   3.675   0.147   1.248 -0.7419 -1.2072  0.7156
 2412SOL     OW 8134   2.792   1.850   6.834  0.6010  0.3303 -0.0667
 2412SOL    HW1 8135   2.706   1.809   6.867  0.4350  0.3729 -0.4400
 2412SOL    HW2 8136   2.817   1.808   6.747  1.2255 -0.0334  0.2874
 2413SOL     OW 8137   3.735   4.892   3.678 -0.3251 -0.1831 -0.0608
 2413SOL    HW1 8138   3.713   4.932   3.588  1.4422 -0.1861 -0.5324
 2413SOL    HW2 8139   3.831   4.867   3.680 -0.4607 -0.6591  1.6877
 2414SOL     OW 8140   4.746   2.264   5.600  0.0161 -0.2149  0.3106
 2414SOL    HW1 8141   4.736   2.256   5.501  1.7421 -0.6995  0.1393
 2414SOL    HW2 8142   4.661   2.297   5.640 -0.9840 -0.8459 -1.2317
 2415SOL     OW 8143   6.874   5.587   1.577 -0.0600  0.6382  0.3224
 2415SOL    HW1 8144   6.960   5.574   1.626 -0.1133 -0.3185  0.1750
 2415SOL    HW2 8145   6.799   5.587   1.642 -0.0277  0.5022  0.3614
 2416SOL     OW 8146   0.438   3.620   1.571  0.2192 -0.3156 -0.1292
 2416SOL    HW1 8147   0.419   3.632   1.474  0.4928  0.1982 -0.1264
 2416SOL    HW2 8148   0.515   3.678   1.597 -0.4517  0.2835  0.5880
 2417SOL     OW 8149   4.335   2.741   1.162  0.8237  0.5008 -0.2290
 2417SOL    HW1 8150   4.244   2.773   1.135  1.4794  3.0966  0.4194
 2417SOL    HW2 8151   4.333   2.716   1.259  0.2400 -1.9600 -0.7963
 2418SOL     OW 8152   5.923   6.768   0.633  0.1132  0.3078  0.2608
 2418SOL    HW1 8153   5.836   6.720   0.626  1.0625 -1.3762 -0.3502
 2418SOL    HW2 8154   5.976   6.731   0.710  1.6740 -1.0425 -1.3944
 2419SOL     OW 8155   6.668   1.727   2.319  0.3160 -0.0182 -0.1951
 2419SOL    HW1 8156   6.760   1.701   2.345  1.1006  3.2213  0.7714
 2419SOL    HW2 8157   6.662   1.737   2.220  0.9616 -0.4124 -0.2742
 2420SOL     OW 8158   0.722   2.950   0.001  0.3248  0.3275  0.3283
 2420SOL    HW1 8159   0.807   2.978  -0.044 -0.3091  2.0783  0.1578
 2420SOL    HW2 8160   0.743   2.888   0.077  1.6909  0.2502 -0.0856
 2421SOL     OW 8161   1.061   3.537   2.601 -0.2085  0.3049 -0.4126
 2421SOL    HW1 8162   1.079   3.635   2.593 -0.0089  0.1554 -2.2118
 2421SOL    HW2 8163   1.144   3.486   2.583 -0.2099 -0.2118  0.9511
 2422SOL     OW 8164   5.971   1.025   5.461 -0.2780  0.1950  0.2432
 2422SOL    HW1 8165   5.994   0.931   5.487 -1.0307  0.4486  1.9936
 2422SOL    HW2 8166   5.972   1.033   5.361 -0.1971 -1.6644  0.0509
 2423SOL     OW 8167   3.916   3.111   0.688  0.0124  0.0663 -0.1844
 2423SOL    HW1 8168   3.979   3.096   0.611 -1.0888 -0.2823 -1.0389
 2423SOL    HW2 8169   3.958   3.175   0.752  1.6248 -0.8271 -0.2714
 2424SOL     OW 8170   2.971   4.222   6.839 -0.4800  0.0883  0.2759
 2424SOL    HW1 8171   2.935   4.129   6.834 -1.1902  0.2102  2.1643
 2424SOL    HW2 8172   3.037   4.237   6.765 -1.0415 -1.5934 -0.6103
 2425SOL     OW 8173   2.360   2.953   0.262  0.5059 -0.2168 -0.3921
 2425SOL    HW1 8174   2.331   2.931   0.355  1.5883 -1.8227 -0.4030
 2425SOL    HW2 8175   2.356   2.871   0.205  1.5735  0.3354 -1.3078
 2426SOL     OW 8176   5.867   0.037   1.044 -0.2843 -0.2764 -0.2903
 2426SOL    HW1 8177   5.915   0.113   1.002  1.6727 -0.7786  0.9195
 2426SOL    HW2 8178   5.794   0.006   0.983  0.5128  0.9242 -1.9235
 2427SOL     OW 8179   6.342   1.647   3.788  0.0772  0.6859  0.0359
 2427SOL    HW1 8180   6.362   1.679   3.695 -0.6033  2.2789  0.3986
 2427SOL    HW2 8181   6.257   1.595   3.788  1.3962 -1.6216 -0.6314
 2428SOL     OW 8182   3.154   4.184   5.877 -0.2756 -0.4231  0.4520
 2428SOL    HW1 8183   3.112   4.271   5.902  0.1964 -0.3114  0.8744
 2428SOL    HW2 8184   3.127   4.114   5.943  0.5439 -0.2495  0.9908
 2429SOL     OW 8185   1.975   5.830   6.684  0.1599  0.3707  0.3307
 2429SOL    HW1 8186   1.893   5.777   6.664  0.1371  0.2773  0.6693
 2429SOL    HW2 8187   1.995   5.825   6.782  1.6901 -1.2417 -0.0195
 2430SOL     OW 8188   1.007   1.311   6.978 -0.2070 -0.0593 -0.4505
 2430SOL    HW1 8189   0.990   1.213   6.965  1.3754 -0.4937  0.5161
 2430SOL    HW2 8190   0.936   1.350   7.036 -0.2747 -0.8894  0.0437
 2431SOL     OW 8191   3.396   6.030   4.159 -0.1382 -0.2807 -0.9192
 2431SOL    HW1 8192   3.381   6.025   4.257  1.2717 -2.0574 -0.7310
 2431SOL    HW2 8193   3.372   5.941   4.117 -0.8398  0.4817 -2.2192
 2432SOL     OW 8194   1.317   3.055   3.221 -0.0411  0.6182  0.1254
 2432SOL    HW1 8195   1.231   3.005   3.215  0.5833 -0.3695 -1.0876
 2432SOL    HW2 8196   1.347   3.081   3.129  0.8285  1.1728  0.5517
 2433SOL     OW 8197   2.014   3.294   2.989  0.0445  0.1869  0.5740
 2433SOL    HW1 8198   1.976   3.361   2.925  0.5294 -0.2846 -0.2214
 2433SOL    HW2 8199   2.083   3.338   3.045  0.5817  0.2929 -0.1544
 2434SOL     OW 8200   5.028   1.670   6.248  0.3723  0.1200 -0.1305
 2434SOL    HW1 8201   4.969   1.594   6.278 -0.5285  0.5691 -0.7098
 2434SOL    HW2 8202   5.096   1.637   6.183  0.2754 -0.2686 -0.0369
 2435SOL     OW 8203   2.896   6.099   4.108  0.0807  0.3304 -0.0615
 2435SOL    HW1 8204   2.892   6.027   4.040  0.3506  0.3545 -0.1038
 2435SOL    HW2 8205   2.803   6.125   4.135 -0.1236  1.5855 -1.7621
 2436SOL     OW 8206   0.597   1.354   3.753  0.8283 -0.1059  0.1194
 2436SOL    HW1 8207   0.517   1.345   3.813  0.8994  0.5165  0.3102
 2436SOL    HW2 8208   0.635   1.263   3.734  0.0640 -0.4071  0.0074
 2437SOL     OW 8209   0.102   5.884   3.104 -0.5808 -0.2075  0.1463
 2437SOL    HW1 8210   0.056   5.901   3.191 -2.6589 -0.2280 -0.8852
 2437SOL    HW2 8211   0.064   5.802   3.062  1.7433 -1.3263  0.0503
 2438SOL     OW 8212   1.327   3.501   7.000 -0.5426  0.2696 -0.2460
 2438SOL    HW1 8213   1.297   3.457   6.916 -1.2997 -0.3467  0.3280
 2438SOL    HW2 8214   1.267   3.579   7.020 -2.4835 -1.4968  1.3774
 2439SOL     OW 8215   2.091   4.962   3.172  0.9120 -0.0383  0.2222
 2439SOL    HW1 8216   2.098   4.949   3.073  3.1428 -1.2988  0.4856
 2439SOL    HW2 8217   2.175   4.931   3.216  0.0700  0.7220  2.5193
 2440SOL     OW 8218   1.383   2.750   1.547 -0.2769 -0.2477  0.1141
 2440SOL    HW1 8219   1.389   2.835   1.495 -0.9839 -0.7116 -0.7529
 2440SOL    HW2 8220   1.431   2.677   1.498 -0.6178 -0.6023  0.2998
 2441SOL     OW 8221   6.502   1.438   3.857 -0.3370  0.0518 -0.7116
 2441SOL    HW1 8222   6.447   1.522   3.862 -0.5560 -0.0182 -1.7260
 2441SOL    HW2 8223   6.594   1.461   3.824 -0.5130 -0.1492 -1.3552
 2442SOL     OW 8224   6.033   6.477   0.578 -0.1892  0.3719 -0.1194
 2442SOL    HW1 8225   5.964   6.515   0.639  0.1413  0.7312  0.0328
 2442SOL    HW2 8226   6.092   6.550   0.545  0.6462 -0.0436  0.4211
 2443SOL     OW 8227   4.712   5.361   4.993  0.4144 -0.6682 -0.2282
 2443SOL    HW1 8228   4.640   5.293   4.981 -0.5323  0.3011 -0.1798
 2443SOL    HW2 8229   4.676   5.452   4.973  0.8929  0.1516  2.2511
 2444SOL     OW 8230   6.267   2.871   6.306 -0.3888  0.1467  0.2537
 2444SOL    HW1 8231   6.297   2.965   6.287 -0.4400 -0.0119 -0.6597
 2444SOL    HW2 8232   6.340   2.807   6.281 -1.0377 -0.1671 -0.9293
 2445SOL     OW 8233   0.979   4.071   2.265  0.1322 -0.0479  0.6159
 2445SOL    HW1 8234   1.032   4.059   2.349 -0.8361 -0.7823  1.1378
 2445SOL    HW2 8235   0.889   4.108   2.287 -0.2438 -0.5426 -0.0583
 2446SOL     OW 8236   1.996   6.389   6.564 -0.5762  0.4105  0.0480
 2446SOL    HW1 8237   2.067   6.381   6.633  1.4730  2.4832 -1.6716
 2446SOL    HW2 8238   2.014   6.324   6.490 -0.6268  0.7493 -0.2648
 2447SOL     OW 8239   5.321   0.392   5.754  0.4599  0.1113 -0.4773
 2447SOL    HW1 8240   5.277   0.329   5.817 -0.2550  0.9719 -0.1073
 2447SOL    HW2 8241   5.299   0.486   5.778  1.0243  0.4978 -1.3824
 2448SOL     OW 8242   3.977   5.322   5.417 -0.5111  0.4170  0.2419
 2448SOL    HW1 8243   3.944   5.236   5.379 -0.5092  0.2629  0.5921
 2448SOL    HW2 8244   3.920   5.349   5.494 -0.5661  0.7773  0.0783
 2449SOL     OW 8245   0.295   1.021   6.570 -0.5722  0.2520 -0.1858
 2449SOL    HW1 8246   0.296   0.965   6.488  0.3698  0.5968 -0.4162
 2449SOL    HW2 8247   0.386   1.024   6.611 -0.6216  1.4982 -0.1019
 2450SOL     OW 8248   3.265   4.942   0.841 -0.2339  0.1954 -0.0677
 2450SOL    HW1 8249   3.179   4.953   0.890 -0.8438  1.9556 -1.4284
 2450SOL    HW2 8250   3.254   4.875   0.768 -0.2311 -0.1219  0.2223
 2451SOL     OW 8251   3.396   3.361   4.958 -0.1166  0.2281  0.2510
 2451SOL    HW1 8252   3.494   3.344   4.960 -0.2704 -0.7453  0.0339
 2451SOL    HW2 8253   3.354   3.306   4.885 -0.7097  1.2621 -0.2127
 2452SOL     OW 8254   2.078   0.980   6.518 -0.4202  0.6667 -0.9560
 2452SOL    HW1 8255   2.001   1.025   6.474 -1.2883 -1.6161 -1.8960
 2452SOL    HW2 8256   2.163   1.006   6.470 -0.8428  1.4879 -1.2871
 2453SOL     OW 8257   4.110   7.001   2.996  0.2523 -0.2054 -0.1220
 2453SOL    HW1 8258   4.196   6.952   3.010  0.9411  0.9966 -0.0423
 2453SOL    HW2 8259   4.126   7.099   3.001 -1.0686  0.0496 -0.4801
 2454SOL     OW 8260   2.046   5.662   3.553  0.1051 -0.2193 -0.2422
 2454SOL    HW1 8261   2.021   5.749   3.513 -2.1440 -0.9973 -0.6522
 2454SOL    HW2 8262   2.003   5.587   3.502  2.0771 -1.6096  0.0076
 2455SOL     OW 8263   4.317   4.474   6.251 -0.5371  0.4377 -0.2034
 2455SOL    HW1 8264   4.289   4.567   6.274  1.4291  0.8660  0.7423
 2455SOL    HW2 8265   4.392   4.477   6.185  1.3006 -0.2815  1.7193
 2456SOL     OW 8266   3.296   4.060   3.946  0.1149 -0.0316 -0.4937
 2456SOL    HW1 8267   3.260   4.062   4.040  0.7478 -1.4965 -0.1848
 2456SOL    HW2 8268   3.391   4.092   3.946  0.5788 -1.3150 -0.3628
 2457SOL     OW 8269   2.272   3.210   6.501 -0.2381 -0.9049  0.2858
 2457SOL    HW1 8270   2.240   3.116   6.490 -0.0123 -1.0381  0.7425
 2457SOL    HW2 8271   2.239   3.265   6.425 -0.5282 -1.3128  0.1105
 2458SOL     OW 8272   0.881   1.926   3.708  0.5515 -0.1357 -0.1014
 2458SOL    HW1 8273   0.797   1.902   3.660  0.3124 -0.2456  0.3701
 2458SOL    HW2 8274   0.938   1.844   3.719 -0.4764 -0.6458  1.9303
 2459SOL     OW 8275   4.838   0.244   1.888  0.1478 -0.5429  0.1272
 2459SOL    HW1 8276   4.817   0.156   1.931  1.1007 -1.3371 -0.9928
 2459SOL    HW2 8277   4.936   0.251   1.873 -0.0651  0.1261 -1.0433
 2460SOL     OW 8278   4.372   1.178   0.884 -0.0160  0.5706  0.6560
 2460SOL    HW1 8279   4.304   1.202   0.953 -0.6435 -2.5384  1.2688
 2460SOL    HW2 8280   4.462   1.168   0.927 -0.4372 -1.5259  1.1576
 2461SOL     OW 8281   6.444   0.096   6.387 -0.4932  0.2596  0.0955
 2461SOL    HW1 8282   6.392   0.168   6.340 -0.3141  1.7422  2.0801
 2461SOL    HW2 8283   6.537   0.128   6.405  0.1798 -1.1989 -0.6158
 2462SOL     OW 8284   6.586   3.375   3.047 -0.6444 -0.1444  0.2796
 2462SOL    HW1 8285   6.586   3.474   3.045  2.9098  0.0541  1.6461
 2462SOL    HW2 8286   6.604   3.339   2.955  0.5405  0.6610  0.1719
 2463SOL     OW 8287   6.190   2.314   4.638 -0.0528  0.5125 -0.2293
 2463SOL    HW1 8288   6.175   2.380   4.565  1.1967 -0.8400 -1.7803
 2463SOL    HW2 8289   6.106   2.264   4.656 -0.0143 -0.1933 -1.8544
 2464SOL     OW 8290   4.341   2.213   5.688 -0.2395 -0.1903 -0.2766
 2464SOL    HW1 8291   4.328   2.254   5.599 -1.1935 -0.6051 -0.3417
 2464SOL    HW2 8292   4.342   2.113   5.679 -3.2690 -0.3665  0.4828
 2465SOL     OW 8293   1.254   6.795   3.103 -0.2145 -0.1552 -0.0310
 2465SOL    HW1 8294   1.337   6.756   3.062 -0.7013 -1.7148  0.4048
 2465SOL    HW2 8295   1.273   6.888   3.135  1.4220 -0.5459  0.2150
 2466SOL     OW 8296   1.391   5.810   5.983  0.1629 -0.2193  0.1271
 2466SOL    HW1 8297   1.422   5.862   6.063  0.3626 -1.2724  0.7422
 2466SOL    HW2 8298   1.330   5.737   6.012 -1.7857  0.8879 -0.9089
 2467SOL     OW 8299   4.705   5.422   5.885 -0.2859 -0.2628  0.7496
 2467SOL    HW1 8300   4.789   5.454   5.841  1.0206 -2.2115  1.7022
 2467SOL    HW2 8301   4.652   5.501   5.916  2.8350  1.1367  3.0912
 2468SOL     OW 8302   3.752   0.057   1.944 -0.2863  0.6786 -0.2196
 2468SOL    HW1 8303   3.785   0.113   1.868  2.4261 -1.0414 -0.4403
 2468SOL    HW2 8304   3.686  -0.010   1.911 -0.6604  1.2439 -0.6439
 2469SOL     OW 8305   0.717   6.922   1.710  0.2677 -0.3171 -0.1146
 2469SOL    HW1 8306   0.764   6.970   1.636  1.3777  1.0393  1.3874
 2469SOL    HW2 8307   0.777   6.919   1.790 -0.8757 -1.7819  0.7296
 2470SOL     OW 8308   4.544   6.570   0.961 -0.3868 -0.4280 -0.3812
 2470SOL    HW1 8309   4.449   6.554   0.989 -0.0485  0.8877  1.8294
 2470SOL    HW2 8310   4.556   6.667   0.942  0.6323 -0.4982 -0.1200
 2471SOL     OW 8311   4.800   4.283   4.519 -0.3237 -0.5350 -0.0057
 2471SOL    HW1 8312   4.776   4.232   4.602 -1.0194  1.6967  1.2546
 2471SOL    HW2 8313   4.851   4.366   4.545 -0.7845  0.3570 -1.7982
 2472SOL     OW 8314   6.451   5.017   3.785  0.1219  0.0015  0.1619
 2472SOL    HW1 8315   6.408   5.096   3.829 -0.0527 -0.1420  0.2472
 2472SOL    HW2 8316   6.458   4.942   3.850  1.4154  0.3489  0.4559
 2473SOL     OW 8317   2.341   2.188   0.936 -0.1862  0.1176  0.3914
 2473SOL    HW1 8318   2.437   2.178   0.912 -0.3416  1.6889 -1.0374
 2473SOL    HW2 8319   2.292   2.104   0.914  0.5270 -0.0393 -0.6340
 2474SOL     OW 8320   0.183   1.671   3.327  0.2452  0.3133  0.0955
 2474SOL    HW1 8321   0.125   1.662   3.408  0.9379  1.2062  0.7102
 2474SOL    HW2 8322   0.128   1.654   3.245 -0.0716 -2.5094  0.7643
 2475SOL     OW 8323   4.820   1.595   0.340  0.4462 -1.1491 -0.4252
 2475SOL    HW1 8324   4.746   1.637   0.287 -0.0382  1.2701  1.9510
 2475SOL    HW2 8325   4.781   1.549   0.420  1.4302 -1.1723  0.0540
 2476SOL     OW 8326   6.168   1.185   4.997  0.1381 -0.3244 -0.5096
 2476SOL    HW1 8327   6.258   1.200   5.037 -0.8758  3.4950  0.6770
 2476SOL    HW2 8328   6.168   1.215   4.901 -0.1699  0.9288 -0.1270
 2477SOL     OW 8329   2.615   0.594   1.824 -0.2025 -0.1725  0.0201
 2477SOL    HW1 8330   2.559   0.513   1.804 -0.7304 -0.0600  1.0184
 2477SOL    HW2 8331   2.564   0.676   1.800 -0.6158 -0.0571  1.2521
 2478SOL     OW 8332   2.563   0.410   4.416 -0.2812 -0.1084 -0.0818
 2478SOL    HW1 8333   2.596   0.323   4.378  0.5910 -0.8780  2.2489
 2478SOL    HW2 8334   2.605   0.486   4.366 -2.2108 -0.8990 -3.1553
 2479SOL     OW 8335   3.781   7.001   6.636  0.0846 -0.2261  0.0051
 2479SOL    HW1 8336   3.688   7.034   6.653 -0.3348 -2.0300  1.5666
 2479SOL    HW2 8337   3.778   6.908   6.600  1.2826  0.4678 -2.0814
 2480SOL     OW 8338   1.170   2.452   5.242 -0.1410 -0.2351 -0.0391
 2480SOL    HW1 8339   1.254   2.499   5.214  0.9661 -0.9440  1.8890
 2480SOL    HW2 8340   1.178   2.354   5.222  0.1431 -0.5414  1.4719
 2481SOL     OW 8341   0.177   4.413   1.784 -0.4302 -0.3830 -0.3641
 2481SOL    HW1 8342   0.267   4.381   1.811 -1.0031 -0.8779  1.0482
 2481SOL    HW2 8343   0.176   4.513   1.783 -0.0838 -0.3687  0.4135
 2482SOL     OW 8344   3.396   3.338   3.368 -0.0084  0.1070  0.1128
 2482SOL    HW1 8345   3.447   3.252   3.368  0.4702  0.3322  2.1522
 2482SOL    HW2 8346   3.437   3.401   3.435 -2.1501  0.7856  0.8748
 2483SOL     OW 8347   3.145   5.051   4.256 -0.2763  0.2036 -0.3039
 2483SOL    HW1 8348   3.089   4.995   4.195 -0.0381  0.5479 -0.8489
 2483SOL    HW2 8349   3.217   5.095   4.204  0.8267 -0.6188  0.4683
 2484SOL     OW 8350   6.381   6.109   6.534  0.3726 -0.4214 -0.1367
 2484SOL    HW1 8351   6.332   6.025   6.560 -0.4916  0.6361  1.8315
 2484SOL    HW2 8352   6.347   6.186   6.587 -0.8989  1.8501 -3.8434
 2485SOL     OW 8353   5.026   0.850   5.044 -0.7698 -0.0439 -0.1232
 2485SOL    HW1 8354   5.090   0.774   5.039  0.2657  0.8223 -0.4167
 2485SOL    HW2 8355   5.004   0.870   5.139 -2.1407 -1.5850 -0.0926
 2486SOL     OW 8356   6.391   5.836   4.241 -0.3502 -0.3724 -0.4803
 2486SOL    HW1 8357   6.296   5.869   4.247 -0.6488 -0.9837 -1.5804
 2486SOL    HW2 8358   6.425   5.817   4.333 -0.4424  2.1777  0.1537
 2487SOL     OW 8359   1.047   6.599   0.644 -0.1295  0.4633 -0.8930
 2487SOL    HW1 8360   0.976   6.536   0.613 -0.1642  0.1501 -0.1824
 2487SOL    HW2 8361   1.039   6.613   0.743  2.0464 -1.1785 -0.4094
 2488SOL     OW 8362   4.846   3.786   0.280 -0.3573 -0.1921 -0.3582
 2488SOL    HW1 8363   4.807   3.736   0.357  0.2284  0.3100  0.2722
 2488SOL    HW2 8364   4.911   3.854   0.313  0.0688 -0.1147 -1.3073
 2489SOL     OW 8365   6.861   2.018   2.425  0.4368 -0.1964  0.0807
 2489SOL    HW1 8366   6.929   1.957   2.384  1.7757  0.1721  1.6608
 2489SOL    HW2 8367   6.877   2.111   2.394  2.0015  0.2292  1.9757
 2490SOL     OW 8368   2.015   5.426   0.392  0.4036 -0.1075 -0.6073
 2490SOL    HW1 8369   2.048   5.519   0.381  2.2262 -0.5409  0.7636
 2490SOL    HW2 8370   2.078   5.374   0.451 -0.7680 -2.0913 -0.9935
 2491SOL     OW 8371   4.570   1.027   5.195 -0.5849  0.0551  0.0935
 2491SOL    HW1 8372   4.565   0.927   5.202  0.3419  0.0752  1.7704
 2491SOL    HW2 8373   4.652   1.053   5.143  0.1908 -0.0904  1.1889
 2492SOL     OW 8374   4.785   0.514   4.481  0.4393  0.1407  0.3403
 2492SOL    HW1 8375   4.698   0.464   4.488  0.8292 -0.3287  2.4263
 2492SOL    HW2 8376   4.768   0.607   4.449 -0.6086 -0.4620 -0.9594
 2493SOL     OW 8377   4.821   3.883   0.951 -0.1862  0.5934 -0.0610
 2493SOL    HW1 8378   4.908   3.861   0.906  0.0747  0.5537  0.4619
 2493SOL    HW2 8379   4.839   3.938   1.033 -0.4125 -1.8741  1.7478
 2494SOL     OW 8380   1.819   1.390   4.415 -0.2248 -0.1434 -0.3072
 2494SOL    HW1 8381   1.849   1.481   4.387  0.0918 -0.6602 -1.7845
 2494SOL    HW2 8382   1.873   1.321   4.365 -0.9091 -1.1359  0.2839
 2495SOL     OW 8383   6.628   3.256   2.814 -0.1683 -0.0328  0.4170
 2495SOL    HW1 8384   6.717   3.253   2.769 -0.4695  0.2971 -0.2119
 2495SOL    HW2 8385   6.565   3.193   2.768  0.4638 -2.4206  2.5341
 2496SOL     OW 8386   1.625   4.102   2.494  0.4326 -0.3884 -0.2824
 2496SOL    HW1 8387   1.569   4.164   2.548 -0.6216 -1.2026 -0.4110
 2496SOL    HW2 8388   1.684   4.048   2.554  0.2293 -0.3607 -0.0607
 2497SOL     OW 8389   2.294   0.275   2.484 -0.2809  0.1598 -0.0897
 2497SOL    HW1 8390   2.375   0.330   2.463  0.9993 -0.1665  3.3791
 2497SOL    HW2 8391   2.212   0.324   2.454  0.9857  2.2830 -0.2889
 2498SOL     OW 8392   2.387   3.374   0.482  0.0983  0.0189  0.5614
 2498SOL    HW1 8393   2.296   3.347   0.452 -0.5836  0.6571  2.0077
 2498SOL    HW2 8394   2.386   3.469   0.513  1.5984  0.5210 -0.7577
 2499SOL     OW 8395   4.433   0.447   3.591 -0.4038  0.2453  0.5476
 2499SOL    HW1 8396   4.507   0.385   3.616 -0.9476 -1.2746 -1.4437
 2499SOL    HW2 8397   4.466   0.542   3.596  0.8556 -0.2304  2.2413
 2500SOL     OW 8398   5.252   3.984   5.151  0.0643  0.1935  0.2479
 2500SOL    HW1 8399   5.154   3.992   5.139 -0.0777  0.0839  1.1944
 2500SOL    HW2 8400   5.271   3.911   5.217  0.7193  0.9039  0.8663
 2501SOL     OW 8401   6.550   4.040   2.973  0.0857  0.0456 -0.1118
 2501SOL    HW1 8402   6.642   4.043   3.012  0.3609  0.7435 -0.7913
 2501SOL    HW2 8403   6.539   3.954   2.922  0.2485 -0.1878  0.2444
 2502SOL     OW 8404   0.273   0.796   6.387 -0.1233 -0.1414  0.2799
 2502SOL    HW1 8405   0.317   0.712   6.416  0.3299  0.4180  1.2731
 2502SOL    HW2 8406   0.211   0.777   6.311 -0.5515 -1.4813  0.9344
 2503SOL     OW 8407   5.925   0.510   3.076 -0.3513 -0.4227 -0.0443
 2503SOL    HW1 8408   5.850   0.507   3.143 -1.2287 -1.2044 -1.0232
 2503SOL    HW2 8409   5.998   0.569   3.110 -0.3420 -1.5316  2.0373
 2504SOL     OW 8410   2.190   0.009   1.694  0.0424  0.7267 -0.2846
 2504SOL    HW1 8411   2.111  -0.051   1.707 -0.7526  1.3653 -1.9319
 2504SOL    HW2 8412   2.262  -0.016   1.759 -0.5672 -1.4914 -0.3933
 2505SOL     OW 8413   2.248   1.909   0.852  0.0550  0.3106  0.3524
 2505SOL    HW1 8414   2.285   1.914   0.944 -1.4851  1.3782  0.9561
 2505SOL    HW2 8415   2.148   1.915   0.856 -0.1869 -1.5213 -1.2593
 2506SOL     OW 8416   6.647   5.618   1.733  0.1089 -0.0238  0.1094
 2506SOL    HW1 8417   6.585   5.566   1.675  0.8398 -0.6778 -0.1141
 2506SOL    HW2 8418   6.607   5.707   1.756 -0.0194  0.4221 -1.7357
 2507SOL     OW 8419   5.332   1.603   3.020 -0.5299 -0.3085  0.1473
 2507SOL    HW1 8420   5.306   1.678   2.959 -0.4979  1.1509  1.8538
 2507SOL    HW2 8421   5.404   1.549   2.976 -1.5254 -0.2120 -1.7030
 2508SOL     OW 8422   0.862   4.879   0.411  0.1123 -0.0576  0.1065
 2508SOL    HW1 8423   0.796   4.872   0.336  1.2589 -3.5814 -0.7462
 2508SOL    HW2 8424   0.903   4.970   0.410 -1.8890  0.9342 -1.7486
 2509SOL     OW 8425   5.738   2.049   5.949  1.3439 -0.2109  0.3441
 2509SOL    HW1 8426   5.779   2.114   5.886  0.7902  0.9269  1.1286
 2509SOL    HW2 8427   5.660   2.004   5.906  2.1873 -0.9467 -0.4676
 2510SOL     OW 8428   1.667   3.673   3.837  0.5752  0.0517 -0.2727
 2510SOL    HW1 8429   1.647   3.770   3.846 -0.4957 -0.0838 -1.0206
 2510SOL    HW2 8430   1.582   3.621   3.841  0.8985 -0.6888 -1.9888
 2511SOL     OW 8431   4.121   5.326   1.488 -0.1226 -0.2174  0.4741
 2511SOL    HW1 8432   4.086   5.244   1.535 -1.7214  0.6971  0.9900
 2511SOL    HW2 8433   4.054   5.356   1.419  0.0044  1.1287  0.8997
 2512SOL     OW 8434   0.940   1.092   5.768  0.2537 -0.1554  0.0717
 2512SOL    HW1 8435   0.851   1.076   5.811  0.6608  1.7568  1.7898
 2512SOL    HW2 8436   0.978   1.005   5.737 -2.4817 -0.9612 -1.4052
 2513SOL     OW 8437   4.226   4.962   4.552 -0.6522  0.0306  0.2779
 2513SOL    HW1 8438   4.245   4.893   4.482 -1.3788  1.5546 -1.4980
 2513SOL    HW2 8439   4.254   4.927   4.641 -1.8640 -2.9500 -0.3842
 2514SOL     OW 8440   1.377   1.243   6.591  0.1782  0.6744 -0.2068
 2514SOL    HW1 8441   1.394   1.271   6.497 -0.8074  1.9434 -0.0333
 2514SOL    HW2 8442   1.327   1.315   6.639 -1.4106 -0.8801  0.6228
 2515SOL     OW 8443   6.723   2.887   2.028 -0.4828 -0.1620  0.6143
 2515SOL    HW1 8444   6.812   2.846   2.049  0.0244 -0.0556 -1.1409
 2515SOL    HW2 8445   6.737   2.978   1.990 -1.2292 -0.6131 -0.8309
 2516SOL     OW 8446   5.867   1.792   2.031 -0.2578 -0.0793  0.4154
 2516SOL    HW1 8447   5.908   1.836   2.111 -0.2687 -1.9740  1.5320
 2516SOL    HW2 8448   5.928   1.721   1.997 -0.8246 -0.1605 -0.4536
 2517SOL     OW 8449   4.268   0.562   6.024  0.1346 -0.3759  0.2557
 2517SOL    HW1 8450   4.179   0.604   6.043  1.0264  0.8492  1.9891
 2517SOL    HW2 8451   4.339   0.632   6.029  1.4796 -1.7715  1.3604
 2518SOL     OW 8452   4.216   0.978   1.623  0.2875  0.6326 -0.1056
 2518SOL    HW1 8453   4.125   0.948   1.654 -0.7937 -0.1556 -3.4920
 2518SOL    HW2 8454   4.225   1.077   1.636 -1.3774  0.8446 -0.2842
 2519SOL     OW 8455   6.639   6.670   3.763  0.3486  0.1940 -0.0705
 2519SOL    HW1 8456   6.721   6.614   3.774  0.1178 -0.1503 -0.0930
 2519SOL    HW2 8457   6.558   6.612   3.768  0.1126  0.5052 -0.2422
 2520SOL     OW 8458   2.533   5.530   5.406  0.0279 -0.2159 -0.2687
 2520SOL    HW1 8459   2.463   5.585   5.451 -0.7748  0.0263 -1.7301
 2520SOL    HW2 8460   2.495   5.443   5.377  1.2997 -1.6295  2.0335
 2521SOL     OW 8461   6.995   5.470   3.904  0.0279 -0.0666 -0.0991
 2521SOL    HW1 8462   6.952   5.430   3.822 -1.7454  0.7450  0.3832
 2521SOL    HW2 8463   7.007   5.398   3.973  0.5744 -0.5474 -0.6833
 2522SOL     OW 8464   5.928   0.252   5.705  0.0187  0.0843  0.2674
 2522SOL    HW1 8465   5.939   0.216   5.613  0.2666  1.0042 -0.0709
 2522SOL    HW2 8466   5.844   0.215   5.746  0.0654 -0.5508 -0.2142
 2523SOL     OW 8467   2.511   2.384   6.233 -0.0791  0.0875 -0.0553
 2523SOL    HW1 8468   2.431   2.419   6.282  0.1595 -0.9625  1.1438
 2523SOL    HW2 8469   2.498   2.287   6.212  0.6771  0.0234 -0.2582
 2524SOL     OW 8470   5.561   4.795   3.924  0.1719  0.2827  0.0772
 2524SOL    HW1 8471   5.518   4.736   3.993 -0.4554 -0.8320 -1.2218
 2524SOL    HW2 8472   5.496   4.866   3.897  0.6234  1.0796  1.0188
 2525SOL     OW 8473   0.512   4.360   0.044 -0.4098 -0.4048 -0.1179
 2525SOL    HW1 8474   0.568   4.287   0.005 -1.5316 -0.5052 -1.6991
 2525SOL    HW2 8475   0.549   4.449   0.017  0.0577 -0.4288  0.4494
 2526SOL     OW 8476   6.036   7.003   0.561 -0.4393 -0.6709 -0.2724
 2526SOL    HW1 8477   6.089   7.031   0.641 -0.3131 -1.1820 -0.1732
 2526SOL    HW2 8478   5.989   6.918   0.582 -1.2289 -0.2671 -0.3944
 2527SOL     OW 8479   4.460   2.331   4.173 -0.2457 -0.3525 -0.1855
 2527SOL    HW1 8480   4.480   2.412   4.229 -2.7070  0.4965 -0.4156
 2527SOL    HW2 8481   4.455   2.357   4.077 -1.8282 -0.5687 -0.1873
 2528SOL     OW 8482   3.639   0.109   3.446  0.1333  0.1823 -0.7440
 2528SOL    HW1 8483   3.600   0.169   3.516  0.1836 -0.2696 -0.3245
 2528SOL    HW2 8484   3.605   0.136   3.356  0.1791  0.8590 -0.5631
 2529SOL     OW 8485   1.849   2.551   5.905 -0.0572 -0.5579  0.3349
 2529SOL    HW1 8486   1.778   2.502   5.956 -0.7424  0.9978  0.9432
 2529SOL    HW2 8487   1.847   2.648   5.930  1.3599 -0.2288 -0.7033
 2530SOL     OW 8488   0.733   0.417   6.769 -0.5016 -0.8572 -0.3698
 2530SOL    HW1 8489   0.724   0.501   6.821  0.5242 -0.0392 -1.4734
 2530SOL    HW2 8490   0.768   0.344   6.828  1.3360  0.2310 -0.0468
 2531SOL     OW 8491   5.705   4.659   1.661 -0.0667 -0.2105  0.0939
 2531SOL    HW1 8492   5.675   4.639   1.567  0.6061 -0.5141 -0.0613
 2531SOL    HW2 8493   5.630   4.643   1.724 -0.1796 -1.1541 -0.2686
 2532SOL     OW 8494   6.183   1.677   2.675 -0.0431  0.0125  0.5606
 2532SOL    HW1 8495   6.249   1.687   2.750  1.0778  1.8609 -0.6105
 2532SOL    HW2 8496   6.129   1.760   2.667 -1.3724 -0.8391  0.3919
 2533SOL     OW 8497   4.125   5.810   1.629  0.2772  0.5693 -0.3190
 2533SOL    HW1 8498   4.136   5.904   1.596  1.1041  0.2836 -0.9082
 2533SOL    HW2 8499   4.192   5.752   1.584  0.0674 -0.2264  0.3758
 2534SOL     OW 8500   1.458   1.001   4.628 -0.1428  0.2523  0.0501
 2534SOL    HW1 8501   1.482   1.046   4.714 -1.4347 -0.9527  1.0778
 2534SOL    HW2 8502   1.366   1.029   4.601 -0.4927 -0.8467  0.0799
 2535SOL     OW 8503   1.524   2.568   2.439 -0.7403 -0.2310  0.7990
 2535SOL    HW1 8504   1.466   2.627   2.496 -0.4095  1.3308 -0.4004
 2535SOL    HW2 8505   1.569   2.624   2.369 -1.0011 -2.0364 -0.8933
 2536SOL     OW 8506   6.922   2.699   1.999  0.1407  0.4093 -0.1001
 2536SOL    HW1 8507   6.977   2.724   1.920  1.1987 -0.6773  0.2504
 2536SOL    HW2 8508   6.968   2.730   2.083  1.7622 -2.8822  0.3856
 2537SOL     OW 8509   4.294   4.152   5.643 -0.2980 -0.0225 -0.3307
 2537SOL    HW1 8510   4.306   4.251   5.636  0.2376 -0.0271  0.4324
 2537SOL    HW2 8511   4.376   4.105   5.610 -0.7803 -0.2388 -1.2575
 2538SOL     OW 8512   5.575   1.317   2.688  0.0266 -0.0564  0.2343
 2538SOL    HW1 8513   5.539   1.364   2.607  0.2095  0.3542  0.3864
 2538SOL    HW2 8514   5.664   1.276   2.666  0.2206  0.3173  0.3082
 2539SOL     OW 8515   1.148   0.627   4.365  0.3455  0.1854 -0.6379
 2539SOL    HW1 8516   1.080   0.674   4.308 -1.1338 -1.3916 -0.2867
 2539SOL    HW2 8517   1.185   0.549   4.315  1.0486  0.3706 -0.4098
 2540SOL     OW 8518   3.125   0.174   6.570 -0.3303 -0.0554 -0.3498
 2540SOL    HW1 8519   3.217   0.214   6.574 -1.2075  1.9222  1.8036
 2540SOL    HW2 8520   3.118   0.100   6.636 -0.6543  0.7040  0.4856
 2541SOL     OW 8521   1.225   1.537   3.090  0.2434  0.2521  0.2898
 2541SOL    HW1 8522   1.221   1.504   2.996 -2.8928 -0.0231  0.4195
 2541SOL    HW2 8523   1.307   1.501   3.135  1.1009 -0.6992 -1.9080
 2542SOL     OW 8524   6.236   1.155   2.635  0.2766  0.1019  0.3472
 2542SOL    HW1 8525   6.293   1.090   2.685 -0.5225 -1.2837 -0.4631
 2542SOL    HW2 8526   6.140   1.143   2.660  0.0907  0.8531  0.0468
 2543SOL     OW 8527   3.455   2.777   6.838 -0.4130 -0.3983  0.7191
 2543SOL    HW1 8528   3.430   2.870   6.866 -0.0187 -0.6741  2.0643
 2543SOL    HW2 8529   3.555   2.770   6.834 -0.4461 -0.7031  0.4141
 2544SOL     OW 8530   2.773   2.495   0.018 -0.1029  0.3536 -0.1291
 2544SOL    HW1 8531   2.688   2.483   0.070 -0.2479 -0.5084 -0.5453
 2544SOL    HW2 8532   2.754   2.545  -0.066 -0.2158  0.1013 -0.2555
 2545SOL     OW 8533   7.004   2.419   5.870 -0.2185 -0.5517  0.3744
 2545SOL    HW1 8534   7.096   2.392   5.844  0.8177  2.8625 -0.0448
 2545SOL    HW2 8535   6.987   2.395   5.966  1.6218 -0.0901  0.8500
 2546SOL     OW 8536   2.020   4.313   0.596 -0.2830  0.2222 -0.1568
 2546SOL    HW1 8537   2.063   4.228   0.626  0.4015  0.1610 -1.2546
 2546SOL    HW2 8538   2.082   4.390   0.615 -1.3897  0.6544  1.9225
 2547SOL     OW 8539   6.210   0.702   6.461 -0.3962  0.2825 -0.7291
 2547SOL    HW1 8540   6.273   0.756   6.516 -1.0250 -0.6120  0.9222
 2547SOL    HW2 8541   6.258   0.625   6.420 -0.0988  0.5008 -0.7966
 2548SOL     OW 8542   0.647   4.180   6.435 -0.3350  0.1872  0.5528
 2548SOL    HW1 8543   0.682   4.159   6.344 -0.8164  0.0581  0.3938
 2548SOL    HW2 8544   0.628   4.277   6.443 -0.6779  0.1346  0.3793
 2549SOL     OW 8545   0.132   5.455   1.201  0.3270  0.8000  0.0628
 2549SOL    HW1 8546   0.042   5.497   1.193  0.7277  1.4370 -1.6251
 2549SOL    HW2 8547   0.203   5.521   1.176  0.9200 -1.0277 -3.9174
 2550SOL     OW 8548   0.495   4.645   5.937 -0.2710 -0.3849  0.5313
 2550SOL    HW1 8549   0.440   4.670   5.857 -1.2725 -0.5193  1.1525
 2550SOL    HW2 8550   0.540   4.558   5.920  0.5576  0.1947 -0.3660
 2551SOL     OW 8551   3.335   5.280   2.231 -0.5809 -0.1432 -0.2100
 2551SOL    HW1 8552   3.296   5.346   2.295 -0.0325 -0.3017  0.2918
 2551SOL    HW2 8553   3.370   5.201   2.281 -0.3105 -0.3529 -0.7207
 2552SOL     OW 8554   6.536   0.247   1.539 -0.3468  0.4268 -0.3380
 2552SOL    HW1 8555   6.579   0.187   1.471 -0.3838 -0.2068  0.1775
 2552SOL    HW2 8556   6.567   0.221   1.630 -0.5058  1.0880 -0.0885
 2553SOL     OW 8557   6.753   4.069   0.833 -0.0321  0.4296  0.0163
 2553SOL    HW1 8558   6.780   4.037   0.742 -0.4263  1.5248 -0.5181
 2553SOL    HW2 8559   6.760   3.995   0.899  0.5055 -0.3183 -0.8647
 2554SOL     OW 8560   5.583   1.326   1.455  0.8064 -0.4465 -0.0593
 2554SOL    HW1 8561   5.522   1.405   1.453  2.0831  0.5713  0.0459
 2554SOL    HW2 8562   5.542   1.251   1.404 -0.1083  0.5263 -0.7932
 2555SOL     OW 8563   0.571   1.145   5.217 -0.0190 -0.5571 -0.0625
 2555SOL    HW1 8564   0.573   1.104   5.126 -0.9344 -2.2973  0.6607
 2555SOL    HW2 8565   0.487   1.118   5.263  0.3783  0.4037  1.2732
 2556SOL     OW 8566   2.364   4.036   6.276 -0.1691 -0.1284 -0.0802
 2556SOL    HW1 8567   2.450   4.033   6.327 -0.0724 -0.3180 -0.2540
 2556SOL    HW2 8568   2.330   4.130   6.274  0.4296  0.0863 -0.6563
 2557SOL     OW 8569   3.959   2.226   1.881  0.7893 -0.4545 -0.1420
 2557SOL    HW1 8570   3.995   2.210   1.973 -0.0262  0.3520  0.3321
 2557SOL    HW2 8571   3.859   2.224   1.884  0.7644 -0.8994 -1.1096
 2558SOL     OW 8572   2.984   2.065   6.080 -0.3821 -0.2122  0.1842
 2558SOL    HW1 8573   3.060   2.014   6.039 -0.6830  0.0488 -0.7353
 2558SOL    HW2 8574   3.014   2.157   6.102 -0.2723 -0.2899  0.3585
 2559SOL     OW 8575   0.340   4.163   2.783  0.4264  0.1723 -0.1654
 2559SOL    HW1 8576   0.283   4.106   2.724 -0.0276  0.1953  0.2454
 2559SOL    HW2 8577   0.418   4.110   2.816 -0.1091 -0.2874  0.3889
 2560SOL     OW 8578   1.753   1.981   5.315 -0.1368  0.7936 -0.7380
 2560SOL    HW1 8579   1.788   1.941   5.231  0.9485  2.5591 -1.1958
 2560SOL    HW2 8580   1.654   1.994   5.307 -0.0998  0.6137 -1.6158
 2561SOL     OW 8581   1.185   1.671   0.639  0.5908  0.4448 -0.1279
 2561SOL    HW1 8582   1.239   1.724   0.704 -0.9479 -1.1146  2.6251
 2561SOL    HW2 8583   1.244   1.603   0.594  1.2456 -0.4129  1.9021
 2562SOL     OW 8584   2.238   1.856   2.154  0.6755  0.1382 -0.3515
 2562SOL    HW1 8585   2.189   1.786   2.103  0.6296 -0.1799  0.1196
 2562SOL    HW2 8586   2.247   1.828   2.250  0.9526  0.6213 -0.2285
 2563SOL     OW 8587   6.308   6.891   2.159 -0.2165 -0.1480 -0.6753
 2563SOL    HW1 8588   6.346   6.959   2.097 -0.7629  1.0290  0.2490
 2563SOL    HW2 8589   6.352   6.802   2.142  0.8960  0.5444 -1.5293
 2564SOL     OW 8590   6.505   1.949   0.232 -0.5091 -0.4305  0.3652
 2564SOL    HW1 8591   6.541   1.867   0.276 -1.1831  0.1654  2.1464
 2564SOL    HW2 8592   6.413   1.968   0.266 -0.0204  1.5611  0.7488
 2565SOL     OW 8593   1.657   1.011   5.130 -0.2680  0.1138  0.7045
 2565SOL    HW1 8594   1.741   1.057   5.157 -0.5916  0.4732  1.1006
 2565SOL    HW2 8595   1.578   1.058   5.170 -0.6045 -0.7568  1.0951
 2566SOL     OW 8596   5.232   1.375   0.111 -0.4865 -0.7959  0.0917
 2566SOL    HW1 8597   5.151   1.388   0.168  0.1835  0.0169  0.8923
 2566SOL    HW2 8598   5.206   1.379   0.015 -1.0771  2.3317  0.2586
 2567SOL     OW 8599   3.360   5.957   3.469  0.4518 -0.1919  0.8322
 2567SOL    HW1 8600   3.319   5.955   3.560  3.0825 -0.3528  2.0973
 2567SOL    HW2 8601   3.457   5.935   3.476  1.0023  1.0373 -1.8738
 2568SOL     OW 8602   3.911   0.542   3.182 -0.1919 -0.2851 -0.5152
 2568SOL    HW1 8603   3.905   0.616   3.114 -1.6556  0.7565  0.6700
 2568SOL    HW2 8604   3.958   0.576   3.263  0.1474 -1.0377 -0.3902
 2569SOL     OW 8605   5.941   1.497   6.741 -0.4990 -0.2757  0.2129
 2569SOL    HW1 8606   5.998   1.569   6.780 -0.8580 -0.5955  1.3805
 2569SOL    HW2 8607   5.932   1.511   6.643 -0.0747  0.9265  0.3273
 2570SOL     OW 8608   3.769   4.659   1.689 -0.4116 -0.6938  0.2089
 2570SOL    HW1 8609   3.724   4.617   1.610  1.3823 -0.5825 -0.9163
 2570SOL    HW2 8610   3.702   4.673   1.762 -1.9863 -1.3495 -1.0607
 2571SOL     OW 8611   1.022   4.330   3.381 -0.0238 -0.3225 -0.0280
 2571SOL    HW1 8612   1.007   4.274   3.462  0.7762  2.7166  2.4376
 2571SOL    HW2 8613   0.978   4.420   3.394 -1.2378 -0.1857 -3.7098
 2572SOL     OW 8614   4.349   5.598   5.092  0.0328  0.6473 -0.1878
 2572SOL    HW1 8615   4.370   5.693   5.070 -0.5412  0.5617 -1.1982
 2572SOL    HW2 8616   4.284   5.562   5.025  0.8133 -0.6844 -0.2725
 2573SOL     OW 8617   0.640   4.494   3.934 -0.4558  0.5319  0.3654
 2573SOL    HW1 8618   0.587   4.553   3.874  0.3744  0.4611 -0.4621
 2573SOL    HW2 8619   0.705   4.548   3.987 -0.5581  0.5011  0.5206
 2574SOL     OW 8620   1.527   4.776   3.056 -0.5948  0.3452  0.6577
 2574SOL    HW1 8621   1.496   4.861   3.099 -2.3113  1.5622 -2.6817
 2574SOL    HW2 8622   1.449   4.714   3.045 -0.0218 -0.2744  0.0291
 2575SOL     OW 8623   4.012   3.821   3.480  0.0782  0.6622  0.3292
 2575SOL    HW1 8624   3.999   3.733   3.435 -2.5420  0.5237  1.2084
 2575SOL    HW2 8625   3.970   3.893   3.425 -1.3019  0.7811  1.5014
 2576SOL     OW 8626   3.915   0.359   4.178 -0.1937 -0.3167 -0.0192
 2576SOL    HW1 8627   3.837   0.303   4.205  1.2609 -1.6948  1.5177
 2576SOL    HW2 8628   3.965   0.314   4.105 -1.8547  1.5115 -2.4391
 2577SOL     OW 8629   5.568   4.856   0.755  0.1995 -0.4641 -0.2113
 2577SOL    HW1 8630   5.502   4.781   0.750  1.2696 -1.4779  0.3155
 2577SOL    HW2 8631   5.526   4.940   0.720 -1.3189 -1.0921  0.0119
 2578SOL     OW 8632   6.311   6.188   4.143  0.0628 -0.1061 -0.4275
 2578SOL    HW1 8633   6.248   6.117   4.112 -1.1586  1.2471 -1.1860
 2578SOL    HW2 8634   6.309   6.265   4.079  0.0619  1.3448  1.2213
 2579SOL     OW 8635   5.680   0.424   3.977  0.0824  0.0506  1.1176
 2579SOL    HW1 8636   5.690   0.328   3.953  0.8106  0.4850 -0.4505
 2579SOL    HW2 8637   5.607   0.465   3.923 -1.0119  0.1335  2.6068
 2580SOL     OW 8638   6.478   0.087   0.114  0.0371  0.3409 -0.4991
 2580SOL    HW1 8639   6.561   0.057   0.160 -0.0662  0.7002 -0.0774
 2580SOL    HW2 8640   6.489   0.078   0.015 -0.0077 -1.1190 -0.3812
 2581SOL     OW 8641   4.817   5.001   2.012  0.7950  0.0443  0.6761
 2581SOL    HW1 8642   4.794   4.914   2.056  0.5088 -1.0652 -1.5026
 2581SOL    HW2 8643   4.866   5.060   2.076 -1.7549 -0.4043  3.2499
 2582SOL     OW 8644   5.969   0.934   4.904 -0.0340  0.0348  0.0018
 2582SOL    HW1 8645   6.040   0.890   4.958 -1.2222 -0.6334  1.0981
 2582SOL    HW2 8646   5.943   1.021   4.946 -0.1000  0.1107 -0.1935
 2583SOL     OW 8647   1.183   2.854   1.967  0.3161 -0.1426 -0.0891
 2583SOL    HW1 8648   1.254   2.819   2.028  0.4839  1.3236  0.6123
 2583SOL    HW2 8649   1.117   2.782   1.947  2.2363 -1.6814 -1.1576
 2584SOL     OW 8650   6.517   6.025   3.619 -0.1853  0.8119 -1.2981
 2584SOL    HW1 8651   6.616   6.028   3.623 -0.1814  0.0161  1.4918
 2584SOL    HW2 8652   6.487   5.939   3.578  0.4334 -1.2103  2.1050
 2585SOL     OW 8653   3.064   5.624   0.019 -0.2380  0.3033 -0.0018
 2585SOL    HW1 8654   2.991   5.575   0.067 -0.4915  1.7876  1.1976
 2585SOL    HW2 8655   3.068   5.593  -0.076 -1.5054 -0.8045  0.2799
 2586SOL     OW 8656   1.245   4.490   6.574  0.0753 -0.1630 -0.3741
 2586SOL    HW1 8657   1.318   4.426   6.600 -0.1004 -0.5189 -0.7399
 2586SOL    HW2 8658   1.166   4.475   6.634  0.6835  0.9906  0.7691
 2587SOL     OW 8659   2.632   1.221   2.732 -0.0381 -0.0696 -0.2098
 2587SOL    HW1 8660   2.560   1.152   2.722  0.1564 -0.3915  0.5617
 2587SOL    HW2 8661   2.662   1.251   2.642 -0.6452 -0.4483 -0.5453
 2588SOL     OW 8662   0.657   3.429   2.399  1.0688  0.3254  0.5319
 2588SOL    HW1 8663   0.754   3.414   2.413  0.6317 -3.6933  0.4118
 2588SOL    HW2 8664   0.614   3.453   2.487  2.1777  3.0027  0.4292
 2589SOL     OW 8665   3.877   1.444   2.398 -0.1541  0.6172  0.4553
 2589SOL    HW1 8666   3.840   1.534   2.418 -1.2428  0.4219 -0.5630
 2589SOL    HW2 8667   3.850   1.416   2.306  1.7745  0.0555  0.0027
 2590SOL     OW 8668   2.867   3.139   5.318  0.4249 -0.0888 -0.1923
 2590SOL    HW1 8669   2.785   3.082   5.321 -0.9665  1.8483  1.3716
 2590SOL    HW2 8670   2.913   3.137   5.407  1.0850  0.2034 -0.5188
 2591SOL     OW 8671   6.363   3.216   3.136 -0.0156 -0.3081  0.5822
 2591SOL    HW1 8672   6.451   3.212   3.089  0.1484 -1.4236  0.9429
 2591SOL    HW2 8673   6.350   3.306   3.175  1.2866 -0.3288  1.1092
 2592SOL     OW 8674   2.463   1.100   3.373 -0.1518  0.1816  0.0617
 2592SOL    HW1 8675   2.407   1.161   3.428  2.0731  1.8219  0.6635
 2592SOL    HW2 8676   2.478   1.140   3.283  0.8488  0.2687  0.2565
 2593SOL     OW 8677   5.383   3.585   4.338  0.2341  0.5850  0.0979
 2593SOL    HW1 8678   5.320   3.573   4.262  0.2195 -1.5413  0.4044
 2593SOL    HW2 8679   5.338   3.640   4.409 -2.1207 -2.4210  1.1356
 2594SOL     OW 8680   4.404   4.040   0.404  0.0616 -0.0835  0.6990
 2594SOL    HW1 8681   4.344   4.118   0.383 -0.7201 -0.6217  0.8827
 2594SOL    HW2 8682   4.433   4.046   0.499  0.9475  0.5896  0.4081
 2595SOL     OW 8683   0.714   4.488   3.648 -0.7883 -0.2814 -0.5893
 2595SOL    HW1 8684   0.764   4.487   3.735  1.1092  4.7309 -1.2752
 2595SOL    HW2 8685   0.619   4.463   3.665 -0.8886  1.8915  3.3733
 2596SOL     OW 8686   6.784   4.570   6.522  0.1777 -0.5916 -0.1052
 2596SOL    HW1 8687   6.771   4.527   6.433  0.7047 -0.1598 -0.4034
 2596SOL    HW2 8688   6.712   4.541   6.585 -0.5064 -0.4894 -0.8288
 2597SOL     OW 8689   2.589   3.282   6.733 -0.3092 -0.1009 -0.4727
 2597SOL    HW1 8690   2.629   3.341   6.803 -0.6292 -0.4476  0.0174
 2597SOL    HW2 8691   2.493   3.308   6.719 -0.6802 -0.9582  0.2970
 2598SOL     OW 8692   4.132   4.228   0.621 -0.0896 -0.6044 -0.2551
 2598SOL    HW1 8693   4.033   4.239   0.611 -0.2198 -0.7486  0.7863
 2598SOL    HW2 8694   4.177   4.254   0.535 -1.1281 -2.1235 -1.3068
 2599SOL     OW 8695   5.920   2.199   4.637 -0.1937 -0.3346  0.3030
 2599SOL    HW1 8696   5.821   2.202   4.640 -0.3548  0.1443 -2.9295
 2599SOL    HW2 8697   5.949   2.115   4.591  0.9040 -0.1159  0.5651
 2600SOL     OW 8698   3.006   0.769   4.087 -0.4691  0.6393 -0.1838
 2600SOL    HW1 8699   3.106   0.767   4.086 -0.4783 -0.4082 -0.7957
 2600SOL    HW2 8700   2.973   0.849   4.037  0.0581  1.2111  0.3701
 2601SOL     OW 8701   3.931   3.067   2.996  0.4047 -0.1395  0.0783
 2601SOL    HW1 8702   3.928   3.130   2.918  0.2887  2.1542  1.8306
 2601SOL    HW2 8703   4.004   3.095   3.059 -2.0629  0.6888  2.7912
 2602SOL     OW 8704   2.602   1.846   0.751 -0.2697  0.0142  0.2305
 2602SOL    HW1 8705   2.658   1.791   0.813 -1.7079 -1.3817  0.3596
 2602SOL    HW2 8706   2.510   1.808   0.748 -1.7484  3.1670  1.3118
 2603SOL     OW 8707   4.888   5.461   3.735  1.0191  0.8206 -0.1524
 2603SOL    HW1 8708   4.968   5.466   3.675  1.7586  0.9662  0.8292
 2603SOL    HW2 8709   4.855   5.366   3.738  1.2633  0.7263 -0.4153
 2604SOL     OW 8710   4.266   5.871   3.496  0.0652  0.5898 -0.1536
 2604SOL    HW1 8711   4.212   5.807   3.550  0.6456  1.0968  1.0620
 2604SOL    HW2 8712   4.239   5.965   3.518  1.1017  0.8353  0.1440
 2605SOL     OW 8713   6.403   0.777   3.279 -0.0261 -0.2960  0.5884
 2605SOL    HW1 8714   6.349   0.829   3.213  3.0198  0.2228 -1.7292
 2605SOL    HW2 8715   6.352   0.766   3.364 -2.9412  1.6633 -0.7845
 2606SOL     OW 8716   3.328   4.196   1.801 -0.5500  0.1992  0.0745
 2606SOL    HW1 8717   3.301   4.286   1.770 -3.2383 -0.3993  0.4145
 2606SOL    HW2 8718   3.302   4.185   1.898  0.1171 -0.7877  0.1582
 2607SOL     OW 8719   4.063   1.910   2.592  0.0435 -0.1924 -0.1643
 2607SOL    HW1 8720   4.063   1.976   2.666 -0.8776 -0.0841 -0.2475
 2607SOL    HW2 8721   4.119   1.944   2.516 -0.2302  0.3781 -0.1132
 2608SOL     OW 8722   1.194   3.751   1.754  0.2696 -0.3139 -0.1499
 2608SOL    HW1 8723   1.285   3.793   1.760 -0.1530  0.6860 -0.5299
 2608SOL    HW2 8724   1.132   3.814   1.707 -0.6637 -0.9142  0.2633
 2609SOL     OW 8725   3.139   6.665   3.217 -0.1423  0.7182  0.2705
 2609SOL    HW1 8726   3.178   6.628   3.301  1.1440  1.1215 -0.1286
 2609SOL    HW2 8727   3.198   6.641   3.139 -0.5680  1.5412 -0.3197
 2610SOL     OW 8728   5.181   4.029   0.717  0.0026  0.9745  0.5806
 2610SOL    HW1 8729   5.243   3.980   0.656 -0.1045  2.1631 -0.5309
 2610SOL    HW2 8730   5.118   4.084   0.663 -0.2589  1.8895  1.7687
 2611SOL     OW 8731   3.092   5.407   4.380  0.3461 -0.0383 -0.6239
 2611SOL    HW1 8732   3.070   5.397   4.283 -1.0558  0.5901 -0.3861
 2611SOL    HW2 8733   3.095   5.504   4.404 -0.0874 -0.2066  0.1353
 2612SOL     OW 8734   4.479   0.611   0.158  0.3762  0.0258  0.5183
 2612SOL    HW1 8735   4.447   0.704   0.140  0.1561 -0.0068  0.7392
 2612SOL    HW2 8736   4.411   0.562   0.213 -0.6733 -1.0663 -1.6202
 2613SOL     OW 8737   3.163   4.811   1.452  0.6074  0.2460  0.0276
 2613SOL    HW1 8738   3.223   4.803   1.372 -1.1787 -0.8613 -1.3051
 2613SOL    HW2 8739   3.199   4.879   1.515  0.9283  2.9389 -2.8326
 2614SOL     OW 8740   2.672   1.490   4.433 -0.2919 -0.0140 -0.3993
 2614SOL    HW1 8741   2.600   1.550   4.468 -0.2679 -1.1442  1.7866
 2614SOL    HW2 8742   2.647   1.456   4.343 -1.2059  1.7112 -0.8251
 2615SOL     OW 8743   4.290   4.834   4.332  0.2217  0.1461 -0.2862
 2615SOL    HW1 8744   4.315   4.874   4.244 -1.3448 -0.6925 -1.1613
 2615SOL    HW2 8745   4.310   4.737   4.332  0.4553  0.1899  0.3841
 2616SOL     OW 8746   5.248   4.108   0.058 -1.2789 -0.6075  0.3458
 2616SOL    HW1 8747   5.194   4.187   0.030 -1.3417 -0.9133 -0.4083
 2616SOL    HW2 8748   5.344   4.136   0.071 -1.1554 -0.5524 -0.6316
 2617SOL     OW 8749   5.820   4.838   3.065  0.0916 -0.1016  0.5554
 2617SOL    HW1 8750   5.745   4.772   3.063  0.5554 -0.6254 -0.1575
 2617SOL    HW2 8751   5.804   4.905   3.138 -2.8980  1.9062 -1.6497
 2618SOL     OW 8752   4.872   4.381   5.960 -0.4269  0.0205 -0.0283
 2618SOL    HW1 8753   4.953   4.347   5.912 -1.1728 -1.9004 -0.0269
 2618SOL    HW2 8754   4.811   4.427   5.896  0.3465  0.8905 -0.1536
 2619SOL     OW 8755   5.121   4.701   1.157  0.1325  0.2788 -0.3244
 2619SOL    HW1 8756   5.186   4.770   1.125  0.0632  0.7957  0.6082
 2619SOL    HW2 8757   5.106   4.712   1.256  0.3162 -1.2493 -0.1052
 2620SOL     OW 8758   0.538   6.381   4.705 -0.3637  0.7043  0.4138
 2620SOL    HW1 8759   0.628   6.340   4.690  0.3014  1.5056  2.0191
 2620SOL    HW2 8760   0.469   6.324   4.661  0.8574 -0.2336 -0.3781
 2621SOL     OW 8761   5.375   5.515   5.713  0.2928 -0.3902  0.5377
 2621SOL    HW1 8762   5.329   5.523   5.625 -0.1988  0.0864  0.8268
 2621SOL    HW2 8763   5.468   5.552   5.706 -0.2980  1.2136  0.6170
 2622SOL     OW 8764   3.502   3.116   0.584  0.2441  0.5885 -0.3518
 2622SOL    HW1 8765   3.454   3.186   0.637  0.9746  2.4474 -2.0183
 2622SOL    HW2 8766   3.437   3.066   0.527 -0.6875 -2.0074  2.7006
 2623SOL     OW 8767   4.900   1.621   1.895  0.1298  0.0093  0.3146
 2623SOL    HW1 8768   4.870   1.527   1.882 -1.4837  0.4235  0.8102
 2623SOL    HW2 8769   4.857   1.659   1.976 -0.3989  1.6323 -0.6744
 2624SOL     OW 8770   6.634   2.759   6.043 -0.3041 -0.3551 -0.0976
 2624SOL    HW1 8771   6.724   2.768   6.086  0.5904  0.9621 -2.0866
 2624SOL    HW2 8772   6.626   2.667   6.003  1.1434  0.2063 -1.8322
 2625SOL     OW 8773   3.731   1.701   2.384  0.4068 -0.7317 -0.2999
 2625SOL    HW1 8774   3.641   1.661   2.372 -0.2642  0.7014 -0.1937
 2625SOL    HW2 8775   3.754   1.758   2.305 -0.0247  1.1901  0.8854
 2626SOL     OW 8776   5.812   1.667   1.748  1.0837 -0.4356 -0.3995
 2626SOL    HW1 8777   5.829   1.738   1.816  2.2420 -0.1784 -0.9376
 2626SOL    HW2 8778   5.880   1.595   1.756  1.6194 -0.1037 -1.6529
 2627SOL     OW 8779   4.967   5.451   5.348 -0.1708  0.8234  0.0326
 2627SOL    HW1 8780   4.882   5.398   5.350 -0.3184  1.0280 -0.6031
 2627SOL    HW2 8781   4.965   5.520   5.420  0.7747 -1.1450  2.0724
 2628SOL     OW 8782   5.186   6.460   3.859 -0.1889  0.4169  0.2407
 2628SOL    HW1 8783   5.128   6.537   3.831 -2.3442 -0.5908  1.5892
 2628SOL    HW2 8784   5.129   6.378   3.869  1.8944 -1.1864 -0.3743
 2629SOL     OW 8785   3.857   2.699   6.325 -0.1367  0.2217  0.6312
 2629SOL    HW1 8786   3.772   2.716   6.275  0.0307 -2.2758 -0.6644
 2629SOL    HW2 8787   3.933   2.692   6.261  0.4965 -0.6485  1.4377
 2630SOL     OW 8788   2.811   0.301   0.676 -0.1833  0.2435 -0.2080
 2630SOL    HW1 8789   2.794   0.210   0.715  0.0203  0.0966 -0.4596
 2630SOL    HW2 8790   2.907   0.308   0.647 -0.6168 -0.0911 -1.8306
 2631SOL     OW 8791   4.120   3.106   0.210  0.3111 -0.1792  0.1921
 2631SOL    HW1 8792   4.039   3.152   0.173  0.2819  0.2681  0.7982
 2631SOL    HW2 8793   4.200   3.164   0.196  0.7185 -1.0366 -1.2840
 2632SOL     OW 8794   5.147   2.735   0.958 -0.0265 -0.4857  0.6921
 2632SOL    HW1 8795   5.147   2.642   0.921 -2.2945 -0.8735  1.4984
 2632SOL    HW2 8796   5.153   2.800   0.882  0.3175 -1.2813  0.0098
 2633SOL     OW 8797   2.831   6.828   5.852 -0.2777  0.1780 -0.8493
 2633SOL    HW1 8798   2.920   6.784   5.839 -0.1059 -0.2200  1.2508
 2633SOL    HW2 8799   2.837   6.925   5.830  0.3211 -0.1112 -1.9826
 2634SOL     OW 8800   6.664   4.224   1.291  0.2055 -0.2813 -0.3508
 2634SOL    HW1 8801   6.703   4.235   1.383 -0.9621  1.7554 -0.0395
 2634SOL    HW2 8802   6.664   4.312   1.244  2.9425 -1.6629 -3.3065
 2635SOL     OW 8803   5.681   2.524   3.663 -0.2409  0.1038  0.2009
 2635SOL    HW1 8804   5.732   2.554   3.582  1.0188  1.0031  1.2934
 2635SOL    HW2 8805   5.733   2.453   3.710  0.0028  0.9843  1.2942
 2636SOL     OW 8806   5.822   3.540   0.454  0.5515  0.6867  0.0259
 2636SOL    HW1 8807   5.828   3.630   0.411  0.8331  0.3878 -0.5642
 2636SOL    HW2 8808   5.744   3.489   0.417  1.0967  0.2315 -0.5182
 2637SOL     OW 8809   6.426   1.609   0.227  0.2929 -0.2903  0.3354
 2637SOL    HW1 8810   6.465   1.617   0.319  0.3962 -2.0723  0.4628
 2637SOL    HW2 8811   6.327   1.622   0.232  0.4204  0.7633  0.5047
 2638SOL     OW 8812   5.672   1.264   0.399  0.6298  0.2995  0.2809
 2638SOL    HW1 8813   5.631   1.215   0.476  0.3799 -1.2353 -0.7831
 2638SOL    HW2 8814   5.772   1.259   0.405  0.6096  0.1042  0.4414
 2639SOL     OW 8815   5.218   0.532   3.195 -0.0957  0.2076  0.3549
 2639SOL    HW1 8816   5.281   0.597   3.236  0.1032 -0.4553  1.1411
 2639SOL    HW2 8817   5.269   0.467   3.139 -0.3322  0.9245 -0.7082
 2640SOL     OW 8818   4.635   6.306   4.436 -0.7282 -0.1138 -0.1784
 2640SOL    HW1 8819   4.679   6.393   4.414 -0.1506 -0.4808 -0.5041
 2640SOL    HW2 8820   4.589   6.313   4.524  0.4759  0.1077  0.4476
 2641SOL     OW 8821   6.473   5.135   6.904 -0.2418  0.0944 -0.2299
 2641SOL    HW1 8822   6.506   5.176   6.989  1.5647  0.6720 -1.1584
 2641SOL    HW2 8823   6.545   5.139   6.835 -1.6987 -0.2588 -1.8384
 2642SOL     OW 8824   0.394   6.984   5.326 -0.3406  0.3419 -0.0177
 2642SOL    HW1 8825   0.405   7.080   5.350 -0.3212  0.5703 -0.9308
 2642SOL    HW2 8826   0.475   6.933   5.356  0.1930  0.8272 -0.6095
 2643SOL     OW 8827   0.125   0.067   5.628  0.4584  0.8431 -0.0136
 2643SOL    HW1 8828   0.049   0.003   5.642  1.9849 -1.1865 -0.5921
 2643SOL    HW2 8829   0.124   0.100   5.534 -0.0562  1.3085  0.1520
 2644SOL     OW 8830   3.573   1.901   4.076  0.4777  0.0738 -0.5773
 2644SOL    HW1 8831   3.641   1.864   4.139 -0.0117  0.6530  0.3094
 2644SOL    HW2 8832   3.568   1.842   3.995 -2.0139 -3.3661  1.8047
 2645SOL     OW 8833   1.185   5.950   2.292 -0.3727  0.4068 -0.4214
 2645SOL    HW1 8834   1.093   5.912   2.283  0.7519 -2.1813 -1.9293
 2645SOL    HW2 8835   1.223   5.966   2.201  1.1816  0.0980  0.1422
 2646SOL     OW 8836   5.470   1.366   0.828  0.1625 -0.2107 -0.0270
 2646SOL    HW1 8837   5.525   1.318   0.897  2.6188  0.4896 -1.3545
 2646SOL    HW2 8838   5.507   1.346   0.737 -2.3130 -0.2497 -1.0874
 2647SOL     OW 8839   2.849   2.360   1.288 -0.1185  0.5580 -0.1137
 2647SOL    HW1 8840   2.846   2.350   1.388  2.5338  0.7040  0.0510
 2647SOL    HW2 8841   2.787   2.433   1.260 -1.6346 -0.1217  1.2807
 2648SOL     OW 8842   6.514   2.423   3.770  0.7845  0.0142 -0.2118
 2648SOL    HW1 8843   6.546   2.503   3.719  1.3338 -0.1130 -0.0737
 2648SOL    HW2 8844   6.502   2.346   3.707  0.0320  0.2594 -0.3833
 2649SOL     OW 8845   1.674   3.962   6.476 -0.1121  0.3779 -0.2231
 2649SOL    HW1 8846   1.607   3.919   6.416 -1.2103  1.4377  0.2006
 2649SOL    HW2 8847   1.666   3.922   6.568  0.6992 -0.3543 -0.4579
 2650SOL     OW 8848   3.440   5.596   2.485  0.2172  0.8437 -0.3684
 2650SOL    HW1 8849   3.432   5.673   2.548  1.4809  0.5045  0.2443
 2650SOL    HW2 8850   3.412   5.512   2.531  2.2675  0.4102  0.1883
 2651SOL     OW 8851   1.773   1.855   4.432 -0.2881  0.3102 -0.2087
 2651SOL    HW1 8852   1.686   1.840   4.480 -1.7202  4.2084 -1.2607
 2651SOL    HW2 8853   1.828   1.921   4.483  0.9198 -0.1622 -0.8708
 2652SOL     OW 8854   5.843   4.266   4.936  0.2622 -0.6818  0.4602
 2652SOL    HW1 8855   5.743   4.270   4.928  0.3440  0.3182 -0.4233
 2652SOL    HW2 8856   5.883   4.256   4.844  1.0426  2.0142  0.4255
 2653SOL     OW 8857   1.673   1.859   2.563 -0.0030 -0.2809 -0.2030
 2653SOL    HW1 8858   1.672   1.958   2.567  0.7527 -0.2973  0.6428
 2653SOL    HW2 8859   1.624   1.821   2.642  0.0450 -0.5808 -0.3135
 2654SOL     OW 8860   0.621   0.612   0.812 -0.1837 -0.0897  0.1530
 2654SOL    HW1 8861   0.574   0.694   0.844 -1.2610 -0.9560  0.8584
 2654SOL    HW2 8862   0.631   0.617   0.713  0.5337  1.2678  0.2652
 2655SOL     OW 8863   5.404   6.633   6.689  0.8104  0.1546  0.0490
 2655SOL    HW1 8864   5.486   6.587   6.657  0.7144 -1.7565  2.2980
 2655SOL    HW2 8865   5.340   6.644   6.613  1.4058 -2.2187 -0.8736
 2656SOL     OW 8866   3.128   0.678   3.802 -0.7131  0.2576  0.3588
 2656SOL    HW1 8867   3.038   0.688   3.758 -1.0202 -0.2079  0.8657
 2656SOL    HW2 8868   3.116   0.674   3.901 -0.2254 -0.8106  0.3838
 2657SOL     OW 8869   1.191   1.060   2.827  0.3006  0.1995 -0.3085
 2657SOL    HW1 8870   1.214   1.105   2.740 -0.5737  1.9836  0.3199
 2657SOL    HW2 8871   1.263   1.080   2.894 -0.2817  1.0460  0.0843
 2658SOL     OW 8872   6.477   1.897   2.064  0.4243  0.2349  0.1849
 2658SOL    HW1 8873   6.549   1.830   2.045  1.1053  0.8353  0.5677
 2658SOL    HW2 8874   6.518   1.979   2.104 -0.7730 -0.5688  3.3210
 2659SOL     OW 8875   5.494   3.119   4.572 -0.5818  0.1413  0.2680
 2659SOL    HW1 8876   5.534   3.090   4.659  1.4481  0.6006 -0.4524
 2659SOL    HW2 8877   5.473   3.217   4.576  0.5263  0.4110 -0.0759
 2660SOL     OW 8878   1.632   4.329   0.063 -0.2639  0.3587  0.0282
 2660SOL    HW1 8879   1.613   4.408   0.122  1.6270  1.8737 -1.2439
 2660SOL    HW2 8880   1.693   4.266   0.110 -1.6241 -0.3055  0.9775
 2661SOL     OW 8881   6.414   0.271   4.694  0.1692  0.4030 -0.3305
 2661SOL    HW1 8882   6.397   0.295   4.599 -0.2084 -0.0990 -0.3948
 2661SOL    HW2 8883   6.419   0.171   4.703 -1.9642  0.2999  0.5095
 2662SOL     OW 8884   0.855   2.015   4.479 -0.1569  0.2629  0.5971
 2662SOL    HW1 8885   0.838   1.917   4.469 -0.2958  0.3265  0.1774
 2662SOL    HW2 8886   0.853   2.059   4.389 -0.7674  0.7580  0.8400
 2663SOL     OW 8887   0.580   2.460   4.944  0.0311 -0.3722 -0.3109
 2663SOL    HW1 8888   0.620   2.533   5.000  0.5165 -0.8583 -0.0134
 2663SOL    HW2 8889   0.484   2.447   4.968 -0.5440  1.2644 -1.4826
 2664SOL     OW 8890   5.770   2.732   0.342  0.2260 -0.1766  0.4012
 2664SOL    HW1 8891   5.837   2.736   0.417  1.0432  0.4567 -0.3427
 2664SOL    HW2 8892   5.686   2.777   0.370  0.7029  0.5056  0.7804
 2665SOL     OW 8893   6.726   2.796   0.305  0.1646  0.1007  0.2447
 2665SOL    HW1 8894   6.823   2.799   0.328 -0.0772  0.9609  1.1871
 2665SOL    HW2 8895   6.687   2.888   0.311 -1.0466 -0.4562  1.3703
 2666SOL     OW 8896   5.796   2.756   3.007 -0.1974  0.1541 -0.6666
 2666SOL    HW1 8897   5.744   2.785   2.926 -2.2838 -0.2666  0.4750
 2666SOL    HW2 8898   5.893   2.755   2.984 -0.6394  0.9863 -2.8807
 2667SOL     OW 8899   0.341   5.601   4.191  0.3317  0.2741  0.4242
 2667SOL    HW1 8900   0.258   5.616   4.137  0.2142 -0.6359  0.3424
 2667SOL    HW2 8901   0.317   5.570   4.283  0.5598 -2.7622 -0.4326
 2668SOL     OW 8902   2.333   4.500   3.469 -0.4993  0.2437  0.0132
 2668SOL    HW1 8903   2.429   4.477   3.453 -0.6483 -1.2757  1.0848
 2668SOL    HW2 8904   2.298   4.552   3.392  0.6202 -0.9568 -1.3637
 2669SOL     OW 8905   0.570   6.939   6.347 -0.5037 -0.9003 -0.0580
 2669SOL    HW1 8906   0.524   6.905   6.429 -0.3240 -1.0007  0.0005
 2669SOL    HW2 8907   0.555   6.874   6.272 -4.2058  1.0722 -1.3136
 2670SOL     OW 8908   5.524   4.619   4.761 -0.1046  0.1560 -0.4394
 2670SOL    HW1 8909   5.622   4.609   4.746 -0.2560 -1.1307 -0.7178
 2670SOL    HW2 8910   5.495   4.711   4.735  0.5634 -0.2937 -3.0154
 2671SOL     OW 8911   5.675   3.301   1.226 -0.0298 -0.5452  0.1857
 2671SOL    HW1 8912   5.608   3.360   1.180 -3.0830 -2.5605  1.6845
 2671SOL    HW2 8913   5.664   3.207   1.193 -0.2610 -1.5087  2.8125
 2672SOL     OW 8914   3.322   0.247   0.767  0.4059 -0.1960 -0.0365
 2672SOL    HW1 8915   3.347   0.163   0.719  0.7188 -0.4577  0.5620
 2672SOL    HW2 8916   3.326   0.324   0.704  2.5638 -0.2403 -0.0478
 2673SOL     OW 8917   3.146   2.517   1.365  0.0018 -0.5575 -0.5504
 2673SOL    HW1 8918   3.163   2.604   1.411  0.3356 -0.6688 -0.4592
 2673SOL    HW2 8919   3.047   2.501   1.358 -0.1219 -1.7958  2.5063
 2674SOL     OW 8920   0.303   0.555   4.156 -0.5192 -0.3957  0.5552
 2674SOL    HW1 8921   0.355   0.634   4.123  0.1534 -1.0803 -0.0342
 2674SOL    HW2 8922   0.265   0.505   4.078  2.0898 -2.7223  0.6469
 2675SOL     OW 8923   2.022   1.764   3.604 -0.3621  0.3239  0.2117
 2675SOL    HW1 8924   2.103   1.711   3.626  0.0387  0.8645  0.0717
 2675SOL    HW2 8925   2.014   1.841   3.667 -1.2612 -0.2188  0.7863
 2676SOL     OW 8926   1.398   6.757   6.182 -0.0059  0.0130  0.2462
 2676SOL    HW1 8927   1.456   6.784   6.259  0.1706  0.7087 -0.1177
 2676SOL    HW2 8928   1.359   6.839   6.140 -1.1002 -0.4263  0.3584
 2677SOL     OW 8929   4.594   4.612   2.095  0.2080  0.3869  0.5732
 2677SOL    HW1 8930   4.686   4.619   2.056  0.0893  0.8313  0.3546
 2677SOL    HW2 8931   4.586   4.527   2.147 -0.3892 -1.5202 -2.4049
 2678SOL     OW 8932   5.765   3.812   2.775  0.3798  0.0700  0.1004
 2678SOL    HW1 8933   5.844   3.758   2.748  0.1025 -0.9094  1.1760
 2678SOL    HW2 8934   5.771   3.903   2.734  1.1666 -0.5611 -1.2489
 2679SOL     OW 8935   4.810   3.339   6.737  0.8706 -0.0441  0.1927
 2679SOL    HW1 8936   4.799   3.350   6.638  3.5841  0.5249 -0.1120
 2679SOL    HW2 8937   4.809   3.242   6.760  1.6861 -0.2544 -0.6116
 2680SOL     OW 8938   1.922   5.857   4.898 -0.3351 -0.3127 -0.0878
 2680SOL    HW1 8939   1.963   5.946   4.913  1.0555 -0.7850 -0.9251
 2680SOL    HW2 8940   1.935   5.800   4.979 -0.2470 -0.1301  0.0269
 2681SOL     OW 8941   0.460   2.585   4.618 -0.1216  0.1572  0.0501
 2681SOL    HW1 8942   0.414   2.629   4.541  0.0961 -0.6758 -0.5724
 2681SOL    HW2 8943   0.398   2.581   4.696 -0.6412  0.2286 -0.3561
 2682SOL     OW 8944   5.277   1.974   6.524  0.0047 -0.0012  0.5208
 2682SOL    HW1 8945   5.224   1.965   6.439 -1.3682 -1.9538  1.4923
 2682SOL    HW2 8946   5.374   1.965   6.504 -0.3188 -0.7818 -0.8190
 2683SOL     OW 8947   6.932   5.003   3.342 -0.1684  0.2892 -0.5011
 2683SOL    HW1 8948   6.833   4.999   3.349 -0.1487 -0.3576 -0.5253
 2683SOL    HW2 8949   6.973   4.978   3.431 -0.0186 -1.0172 -0.9049
 2684SOL     OW 8950   4.921   5.152   0.963  0.0748 -0.0935  0.0471
 2684SOL    HW1 8951   5.007   5.102   0.949 -0.7753 -1.7144  0.3982
 2684SOL    HW2 8952   4.844   5.093   0.939 -0.9580  1.2639 -0.0483
 2685SOL     OW 8953   2.498   2.761   0.699  0.0505 -0.1015  0.0126
 2685SOL    HW1 8954   2.558   2.683   0.680  0.4121  0.1732  0.0131
 2685SOL    HW2 8955   2.550   2.832   0.746 -0.1869  0.2875 -0.3098
 2686SOL     OW 8956   0.804   1.279   3.323 -0.1072 -0.6971 -0.6911
 2686SOL    HW1 8957   0.751   1.349   3.370  0.8007 -0.1576 -0.4505
 2686SOL    HW2 8958   0.757   1.253   3.238 -0.2649  0.4791 -0.9803
 2687SOL     OW 8959   2.777   4.750   1.694  0.2904  0.0972  0.6319
 2687SOL    HW1 8960   2.796   4.698   1.611 -1.4013 -1.6362  1.2660
 2687SOL    HW2 8961   2.861   4.794   1.727  1.7501 -2.0654 -0.0586
 2688SOL     OW 8962   0.135   1.402   6.810  0.3856 -0.0835  0.1046
 2688SOL    HW1 8963   0.192   1.464   6.864 -0.1489  0.9168 -0.4444
 2688SOL    HW2 8964   0.041   1.405   6.843  0.4682 -1.0993  0.4727
 2689SOL     OW 8965   2.361   0.062   0.919 -0.3692  0.1562 -0.1242
 2689SOL    HW1 8966   2.396   0.149   0.886 -0.5105 -0.3790 -1.7486
 2689SOL    HW2 8967   2.269   0.075   0.958  0.1279  0.9263  0.8472
 2690SOL     OW 8968   1.830   6.455   1.699 -0.0732  0.2235  0.3353
 2690SOL    HW1 8969   1.894   6.381   1.679 -0.6245 -0.0029 -0.6363
 2690SOL    HW2 8970   1.810   6.506   1.616 -0.5316  0.7994  0.7875
 2691SOL     OW 8971   2.116   0.341   3.251  0.0898  0.1225 -0.1309
 2691SOL    HW1 8972   2.113   0.437   3.280  0.1240 -0.3920  1.6806
 2691SOL    HW2 8973   2.040   0.323   3.189 -0.6683  1.0174  0.5091
 2692SOL     OW 8974   3.776   1.341   5.449 -0.1374 -0.1065  0.1120
 2692SOL    HW1 8975   3.801   1.343   5.352 -0.2629 -1.6846  0.0312
 2692SOL    HW2 8976   3.854   1.308   5.502 -0.5216 -0.5499  0.3971
 2693SOL     OW 8977   2.543   6.102   0.787  0.2017 -0.6258 -0.0253
 2693SOL    HW1 8978   2.610   6.157   0.836 -0.5588  1.7096 -1.4468
 2693SOL    HW2 8979   2.585   6.061   0.706  0.7286 -2.1241  0.9537
 2694SOL     OW 8980   0.226   6.820   5.466  0.3641 -0.2362  0.0839
 2694SOL    HW1 8981   0.290   6.848   5.394  0.9164  1.3284  1.1272
 2694SOL    HW2 8982   0.259   6.853   5.555 -0.9607 -0.9985  0.8898
 2695SOL     OW 8983   6.157   6.859   4.016  0.0359 -0.3726  0.9820
 2695SOL    HW1 8984   6.198   6.770   4.037  1.6776 -0.2851 -1.4033
 2695SOL    HW2 8985   6.063   6.845   3.985 -0.3645 -1.0431  2.4202
 2696SOL     OW 8986   0.535   1.070   4.926  0.0584  0.1491 -0.6504
 2696SOL    HW1 8987   0.620   1.100   4.881 -0.2853 -0.2608 -1.6061
 2696SOL    HW2 8988   0.519   0.974   4.904 -1.5102  0.6484 -1.8729
 2697SOL     OW 8989   0.274   0.384   5.773 -0.1894 -0.4234  0.2052
 2697SOL    HW1 8990   0.213   0.322   5.823 -0.1182 -1.0974 -0.5258
 2697SOL    HW2 8991   0.367   0.350   5.777 -0.2088 -0.5753 -0.5192
 2698SOL     OW 8992   2.062   0.699   1.172 -0.2593  0.0211 -0.4404
 2698SOL    HW1 8993   2.059   0.787   1.125 -1.2906  0.9527  1.2616
 2698SOL    HW2 8994   2.131   0.701   1.244 -0.0753 -0.6769 -0.5867
 2699SOL     OW 8995   2.194   4.238   1.168  0.0582 -0.7251  0.0328
 2699SOL    HW1 8996   2.171   4.228   1.071 -2.1247  0.5556  0.3559
 2699SOL    HW2 8997   2.202   4.335   1.190 -1.3653 -0.9099  1.5077
 2700SOL     OW 8998   6.518   5.417   6.390  0.1093  0.2767 -0.3672
 2700SOL    HW1 8999   6.544   5.321   6.384 -1.7134 -0.3783  1.3191
 2700SOL    HW2 9000   6.518   5.447   6.485  1.2349  2.1687 -0.8974
 2701SOL     OW 9001   1.469   4.932   2.439 -0.6257  0.0519 -0.1241
 2701SOL    HW1 9002   1.526   4.864   2.394 -1.4474 -0.3037 -0.6629
 2701SOL    HW2 9003   1.490   4.935   2.537  2.3636  2.0021 -0.7268
 2702SOL     OW 9004   1.140   2.671   3.589 -0.1227 -0.3588 -0.1490
 2702SOL    HW1 9005   1.205   2.637   3.521  0.7880 -1.0042  0.9920
 2702SOL    HW2 9006   1.155   2.622   3.675 -0.5694  1.1254  0.8008
 2703SOL     OW 9007   6.326   2.848   5.958  0.1235  0.6846 -0.4965
 2703SOL    HW1 9008   6.415   2.803   5.963  0.2334  0.9685  0.1766
 2703SOL    HW2 9009   6.335   2.944   5.981 -0.1175  1.0816 -1.9383
 2704SOL     OW 9010   6.463   2.293   0.217  0.0433 -0.1020  0.0434
 2704SOL    HW1 9011   6.559   2.316   0.233  0.3090 -0.9871 -0.2199
 2704SOL    HW2 9012   6.456   2.238   0.135 -0.6800 -0.1608  0.1423
 2705SOL     OW 9013   4.327   5.956   0.773  0.4363 -0.0862  0.5478
 2705SOL    HW1 9014   4.377   5.876   0.740  0.7970  0.2319  0.3196
 2705SOL    HW2 9015   4.360   6.038   0.727 -1.0490  0.0091 -0.4284
 2706SOL     OW 9016   2.618   0.356   3.340 -0.4314 -0.5558  0.1071
 2706SOL    HW1 9017   2.634   0.287   3.269 -0.6466  0.7895 -1.2925
 2706SOL    HW2 9018   2.632   0.447   3.302 -1.1726  0.2323  1.6373
 2707SOL     OW 9019   2.780   1.521   0.023  0.6248  0.0685  0.2357
 2707SOL    HW1 9020   2.684   1.498   0.007  1.0102 -2.6699  1.2622
 2707SOL    HW2 9021   2.786   1.595   0.091 -0.7374  0.6416 -0.2389
 2708SOL     OW 9022   0.990   0.106   1.690  0.4837 -0.0373 -0.0419
 2708SOL    HW1 9023   0.953   0.077   1.602  0.8154  1.6608 -0.7869
 2708SOL    HW2 9024   1.024   0.027   1.740 -0.4537 -1.1336 -1.0785
 2709SOL     OW 9025   1.392   4.433   0.905  0.3788  0.2344 -0.3762
 2709SOL    HW1 9026   1.449   4.378   0.845  1.5745  2.7379 -1.7016
 2709SOL    HW2 9027   1.449   4.501   0.952 -1.1141  0.9386  0.4880
 2710SOL     OW 9028   4.836   1.215   6.054 -0.1160  0.2299 -0.3698
 2710SOL    HW1 9029   4.886   1.248   5.974  0.0934  0.5775 -0.0984
 2710SOL    HW2 9030   4.891   1.147   6.103 -0.0522  0.3597 -0.2616
 2711SOL     OW 9031   6.067   3.999   1.686 -0.4937 -0.3491  0.3849
 2711SOL    HW1 9032   5.985   3.943   1.701 -1.2273  0.5579 -0.1635
 2711SOL    HW2 9033   6.091   3.997   1.589 -0.1751 -0.1907  0.4608
 2712SOL     OW 9034   1.822   5.536   4.765  0.4002 -0.1704 -0.0449
 2712SOL    HW1 9035   1.725   5.538   4.787  0.3979 -1.2585  0.1189
 2712SOL    HW2 9036   1.876   5.545   4.848  0.4119 -1.4504  0.1056
 2713SOL     OW 9037   6.946   1.565   6.488  0.5574 -0.5710  0.3360
 2713SOL    HW1 9038   7.008   1.605   6.420  1.6448  2.0583  2.6658
 2713SOL    HW2 9039   6.852   1.570   6.454  1.1469 -0.2404 -1.3602
 2714SOL     OW 9040   5.136   2.557   3.282 -0.5276 -0.1684 -0.1525
 2714SOL    HW1 9041   5.169   2.574   3.190  1.1132  0.4795  0.5242
 2714SOL    HW2 9042   5.055   2.499   3.278  0.3446 -1.3305 -1.9123
 2715SOL     OW 9043   4.525   0.054   5.405  0.0901  0.4502  0.6239
 2715SOL    HW1 9044   4.528  -0.013   5.480  0.2537 -0.6342 -0.3279
 2715SOL    HW2 9045   4.583   0.023   5.330 -1.7727  0.3905 -0.8650
 2716SOL     OW 9046   1.305   0.154   5.293 -0.2076 -0.0531  0.0934
 2716SOL    HW1 9047   1.221   0.199   5.324  1.1347  0.4726  3.3698
 2716SOL    HW2 9048   1.383   0.192   5.343  1.8512 -1.4660 -1.8735
 2717SOL     OW 9049   4.768   2.912   2.490 -0.1017 -0.9999 -0.6542
 2717SOL    HW1 9050   4.811   2.951   2.409  1.9203 -1.2742  0.2307
 2717SOL    HW2 9051   4.803   2.957   2.572 -0.4219 -2.2469  0.1951
 2718SOL     OW 9052   4.505   0.523   6.859  0.0330 -0.8608  0.1579
 2718SOL    HW1 9053   4.449   0.542   6.939 -0.0248  0.2832 -0.1430
 2718SOL    HW2 9054   4.594   0.568   6.869  0.5112 -1.7788  0.1516
 2719SOL     OW 9055   2.956   0.501   4.116  0.0095  1.0219 -0.2206
 2719SOL    HW1 9056   2.965   0.601   4.108  3.0049  0.8430 -0.0084
 2719SOL    HW2 9057   3.025   0.457   4.059 -1.3651 -0.9710 -0.4233
 2720SOL     OW 9058   3.354   4.104   0.286  0.1621  0.1062 -0.1081
 2720SOL    HW1 9059   3.436   4.123   0.232  0.0175  0.0930 -0.3355
 2720SOL    HW2 9060   3.380   4.075   0.378  0.4347 -0.5768 -0.3906
 2721SOL     OW 9061   2.918   1.869   1.757  0.2881  0.0513 -0.1422
 2721SOL    HW1 9062   2.989   1.917   1.706 -0.3274 -0.5674 -1.6400
 2721SOL    HW2 9063   2.933   1.770   1.749 -0.4291 -0.0679 -0.0238
 2722SOL     OW 9064   5.785   6.334   6.981  0.5214  0.3785 -0.3618
 2722SOL    HW1 9065   5.691   6.310   6.960  1.0893 -0.1335 -2.6118
 2722SOL    HW2 9066   5.847   6.273   6.932  2.0477  0.4522  1.3682
 2723SOL     OW 9067   0.603   5.363   6.962 -0.3403  0.1903  0.4054
 2723SOL    HW1 9068   0.530   5.392   7.024 -0.0601  1.2322  0.2604
 2723SOL    HW2 9069   0.615   5.430   6.889  1.1199  0.3306  0.7283
 2724SOL     OW 9070   0.713   0.534   4.684  0.7741  0.0262 -0.3468
 2724SOL    HW1 9071   0.674   0.626   4.675 -2.0841 -1.0756 -0.2170
 2724SOL    HW2 9072   0.728   0.513   4.781  2.3192  0.6572 -0.4281
 2725SOL     OW 9073   0.180   4.890   0.127  0.3286 -0.1342 -0.6888
 2725SOL    HW1 9074   0.189   4.824   0.201 -2.0074  0.2516  0.0053
 2725SOL    HW2 9075   0.102   4.865   0.069  0.1529  1.3213 -1.1200
 2726SOL     OW 9076   1.221   6.537   1.891 -0.0228 -0.3769  0.4356
 2726SOL    HW1 9077   1.129   6.559   1.859  0.6231  0.3784 -0.9761
 2726SOL    HW2 9078   1.245   6.445   1.862  0.6148  0.3562 -1.4712
 2727SOL     OW 9079   6.658   1.709   6.617  0.3192 -0.0092  0.0177
 2727SOL    HW1 9080   6.618   1.792   6.657  0.8758  0.4845 -0.4372
 2727SOL    HW2 9081   6.628   1.629   6.670  0.2575  0.5352  0.8200
 2728SOL     OW 9082   5.828   1.538   4.911 -0.2026  0.1175 -0.2114
 2728SOL    HW1 9083   5.835   1.543   5.011  0.2402  1.7416 -0.3030
 2728SOL    HW2 9084   5.763   1.465   4.886 -2.1937  1.2487  1.3363
 2729SOL     OW 9085   3.489   6.944   6.281 -0.5439  0.4812  0.1176
 2729SOL    HW1 9086   3.557   6.910   6.346  0.5329  0.8779 -0.7793
 2729SOL    HW2 9087   3.534   6.973   6.197 -1.6697  1.9661 -0.0298
 2730SOL     OW 9088   1.709   6.308   4.622  0.2438  0.1839 -0.2636
 2730SOL    HW1 9089   1.766   6.321   4.703 -0.7497 -1.6210  0.7948
 2730SOL    HW2 9090   1.763   6.264   4.550  0.1798 -1.8380  0.8532
 2731SOL     OW 9091   6.310   0.066   4.313  0.1275  0.2151  0.0604
 2731SOL    HW1 9092   6.313  -0.010   4.378  2.6686 -0.6570 -0.9263
 2731SOL    HW2 9093   6.221   0.070   4.268 -1.5137  0.4938  3.0917
 2732SOL     OW 9094   5.979   4.194   6.959  0.4020  0.1833  0.6828
 2732SOL    HW1 9095   5.923   4.122   6.919  0.0479  0.8647 -0.0712
 2732SOL    HW2 9096   5.995   4.266   6.891  1.8496  0.1977  1.0116
 2733SOL     OW 9097   2.117   1.569   5.081 -0.5445  0.3135  0.3882
 2733SOL    HW1 9098   2.068   1.573   4.994 -0.9865  0.6645  0.6541
 2733SOL    HW2 9099   2.053   1.578   5.157 -0.0383  1.0966  0.7322
 2734SOL     OW 9100   0.454   6.186   1.721 -0.2034 -0.1695 -0.2680
 2734SOL    HW1 9101   0.443   6.277   1.682  0.6729  0.0019 -0.1383
 2734SOL    HW2 9102   0.547   6.154   1.705 -0.0226 -0.3770  1.0899
 2735SOL     OW 9103   7.012   6.358   2.500 -0.0090  0.1544 -0.0100
 2735SOL    HW1 9104   7.103   6.363   2.457  0.7345 -1.9716  1.1768
 2735SOL    HW2 9105   6.954   6.296   2.448 -0.2064  0.1442  0.2226
 2736SOL     OW 9106   2.713   6.541   0.012  0.0995 -0.4070 -0.1611
 2736SOL    HW1 9107   2.797   6.498   0.044  0.3374  0.2657  0.1479
 2736SOL    HW2 9108   2.735   6.632  -0.025 -0.8970  1.3578  3.2019
 2737SOL     OW 9109   1.415   4.173   4.477 -0.1416  0.3016 -0.1601
 2737SOL    HW1 9110   1.434   4.257   4.426  1.4975  0.3203  0.4189
 2737SOL    HW2 9111   1.422   4.192   4.575 -1.9439 -0.0369  0.0708
 2738SOL     OW 9112   4.295   4.813   5.674 -0.7649  0.0609 -0.0812
 2738SOL    HW1 9113   4.332   4.898   5.710 -0.4123 -0.8903  1.9117
 2738SOL    HW2 9114   4.224   4.834   5.606 -0.6427  1.9170  0.3054
 2739SOL     OW 9115   5.621   1.758   3.029  0.0779  0.2479  0.0948
 2739SOL    HW1 9116   5.560   1.828   2.993  1.0225  0.7062 -0.6606
 2739SOL    HW2 9117   5.602   1.670   2.986  0.6554  0.6196 -0.9487
 2740SOL     OW 9118   6.336   0.946   4.110  1.2739  0.0454  0.1195
 2740SOL    HW1 9119   6.355   1.044   4.103  0.4337  0.2101  0.0632
 2740SOL    HW2 9120   6.295   0.927   4.199  0.3127 -0.0543 -0.3339
 2741SOL     OW 9121   6.658   2.315   2.456  0.1980  0.1544  0.2294
 2741SOL    HW1 9122   6.733   2.290   2.517 -0.7089 -2.3975  0.4524
 2741SOL    HW2 9123   6.607   2.232   2.431 -1.5968  1.5917 -1.1738
 2742SOL     OW 9124   3.777   6.357   6.417 -0.3302 -0.2809  0.0114
 2742SOL    HW1 9125   3.842   6.295   6.460 -1.0928 -0.1992  1.3475
 2742SOL    HW2 9126   3.827   6.428   6.368  0.5567 -1.2541 -0.5335
 2743SOL     OW 9127   2.217   0.060   1.429 -0.0441 -0.4772 -0.5459
 2743SOL    HW1 9128   2.186   0.057   1.523 -0.9020 -1.7743 -0.8444
 2743SOL    HW2 9129   2.185   0.144   1.385 -0.4703 -0.3268  0.0472
 2744SOL     OW 9130   6.737   0.297   5.017 -0.1289  0.0212  0.0465
 2744SOL    HW1 9131   6.820   0.245   4.996 -0.2908  0.1532 -0.9263
 2744SOL    HW2 9132   6.657   0.241   4.998 -0.3326  0.9079 -1.8812
 2745SOL     OW 9133   5.956   4.596   2.901  0.6132 -0.5290 -0.1732
 2745SOL    HW1 9134   6.037   4.547   2.934  1.8346  0.8776 -0.9602
 2745SOL    HW2 9135   5.939   4.676   2.958 -1.4934 -1.8774  1.2298
 2746SOL     OW 9136   3.880   3.244   2.793 -0.1471  0.1826 -0.3418
 2746SOL    HW1 9137   3.833   3.300   2.862 -0.2358  1.2279 -1.2138
 2746SOL    HW2 9138   3.823   3.239   2.711 -0.5300 -1.9314 -0.0083
 2747SOL     OW 9139   5.919   3.041   4.130 -0.5735  0.1451  0.2599
 2747SOL    HW1 9140   5.875   2.962   4.086  1.9629 -1.4324  0.3052
 2747SOL    HW2 9141   6.018   3.024   4.136 -0.1764  2.5876  1.9342
 2748SOL     OW 9142   5.782   1.557   1.299  0.1465 -0.4091 -0.2310
 2748SOL    HW1 9143   5.880   1.574   1.313 -0.0677  1.8378 -1.0945
 2748SOL    HW2 9144   5.730   1.593   1.376 -0.1132  0.3080 -0.7217
 2749SOL     OW 9145   0.648   3.532   6.777  0.4671  0.0224  1.0498
 2749SOL    HW1 9146   0.623   3.589   6.855  0.2232  0.8684  0.3775
 2749SOL    HW2 9147   0.583   3.547   6.703  1.5570  0.4113  0.1390
 2750SOL     OW 9148   0.284   6.915   0.234 -0.0393 -0.1464 -0.7354
 2750SOL    HW1 9149   0.260   6.839   0.294 -1.4901  0.1521 -0.9127
 2750SOL    HW2 9150   0.312   6.879   0.145 -0.3612 -0.4944 -0.6988
 2751SOL     OW 9151   3.154   6.983   2.436 -0.1567 -0.0272  0.3533
 2751SOL    HW1 9152   3.242   6.962   2.479 -0.0228 -0.5826 -0.1842
 2751SOL    HW2 9153   3.157   6.958   2.339 -1.0212 -0.3754  0.4074
 2752SOL     OW 9154   1.149   4.466   4.734  0.0603  0.7209 -0.2740
 2752SOL    HW1 9155   1.058   4.506   4.732  0.2305  1.1377  0.2558
 2752SOL    HW2 9156   1.188   4.468   4.641  0.3062  2.3475 -0.1529
 2753SOL     OW 9157   3.104   0.523   6.219 -0.2766 -0.0789  0.1234
 2753SOL    HW1 9158   3.074   0.435   6.256 -1.8331  0.9824  1.5827
 2753SOL    HW2 9159   3.173   0.563   6.280 -0.0084 -0.0305 -0.2105
 2754SOL     OW 9160   3.095   4.422   5.987  0.4522 -0.0658  0.4379
 2754SOL    HW1 9161   3.100   4.463   5.895 -0.7313 -0.8982 -0.0330
 2754SOL    HW2 9162   3.018   4.462   6.036 -0.4330 -1.3298  0.1413
 2755SOL     OW 9163   0.613   4.868   3.939 -0.2652 -0.3564 -0.4868
 2755SOL    HW1 9164   0.694   4.847   3.885  1.1186  0.6389  1.0823
 2755SOL    HW2 9165   0.635   4.857   4.037 -0.6783  3.8792  0.2533
 2756SOL     OW 9166   2.713   4.538   6.486  0.5168 -0.5834 -0.1305
 2756SOL    HW1 9167   2.625   4.539   6.438 -0.1592  0.8943  1.0485
 2756SOL    HW2 9168   2.731   4.446   6.520 -0.4338 -0.9699 -0.6169
 2757SOL     OW 9169   3.332   4.901   2.132 -0.7102 -0.0295  0.2088
 2757SOL    HW1 9170   3.308   4.941   2.044  0.5561  1.1539  0.3587
 2757SOL    HW2 9171   3.413   4.947   2.168 -0.3848 -1.4286  1.3497
 2758SOL     OW 9172   6.286   2.024   1.296  0.0050  0.3705  0.1941
 2758SOL    HW1 9173   6.271   1.925   1.296  2.2633 -0.0465 -0.8221
 2758SOL    HW2 9174   6.199   2.071   1.287 -0.9775 -1.5921 -1.4291
 2759SOL     OW 9175   6.676   4.577   6.065 -0.0513 -0.3461  0.1151
 2759SOL    HW1 9176   6.730   4.655   6.034 -0.0361 -0.3152  0.2199
 2759SOL    HW2 9177   6.581   4.591   6.040  0.3641 -1.6415 -2.5481
 2760SOL     OW 9178   5.232   0.955   5.784 -0.0642  1.0920  0.2944
 2760SOL    HW1 9179   5.193   0.869   5.749 -2.3023  2.7859 -1.7115
 2760SOL    HW2 9180   5.325   0.966   5.750  0.1415 -0.3725  0.3253
 2761SOL     OW 9181   1.911   5.696   1.867 -0.1311 -0.4069  0.3340
 2761SOL    HW1 9182   1.980   5.758   1.904  0.0650  0.1143 -0.8520
 2761SOL    HW2 9183   1.909   5.704   1.768 -1.0004 -1.3792  0.2547
 2762SOL     OW 9184   4.154   0.588   6.907 -0.1049  0.0063 -0.2177
 2762SOL    HW1 9185   4.180   0.495   6.881 -2.1876 -0.3323 -1.2616
 2762SOL    HW2 9186   4.090   0.584   6.984  0.7609  0.6658  0.5566
 2763SOL     OW 9187   2.261   0.765   0.764  0.0531  0.5376 -0.2524
 2763SOL    HW1 9188   2.295   0.744   0.672 -1.7950 -0.5844 -0.7201
 2763SOL    HW2 9189   2.292   0.694   0.827  1.6898  1.5366  0.1353
 2764SOL     OW 9190   5.782   3.962   2.346 -0.0303  0.0553  0.4013
 2764SOL    HW1 9191   5.760   3.865   2.336 -0.9380  0.0150  2.3080
 2764SOL    HW2 9192   5.840   3.975   2.426  0.3669  1.0620 -0.0329
 2765SOL     OW 9193   5.044   6.285   1.589 -0.7150  0.7120 -0.4020
 2765SOL    HW1 9194   5.080   6.299   1.681 -0.4401  0.2852 -0.4439
 2765SOL    HW2 9195   4.957   6.335   1.579 -1.0590  0.2583  0.2814
 2766SOL     OW 9196   1.651   0.307   6.380  0.1718 -0.3556 -0.1537
 2766SOL    HW1 9197   1.729   0.288   6.439  0.0713  1.1274  0.5109
 2766SOL    HW2 9198   1.673   0.384   6.320 -0.1545 -1.0867 -1.2386
 2767SOL     OW 9199   0.193   0.388   1.610 -0.0772  0.1233  0.1271
 2767SOL    HW1 9200   0.280   0.437   1.605  0.2257 -0.5195 -2.8620
 2767SOL    HW2 9201   0.189   0.320   1.536 -2.2993 -1.2992  1.4448
 2768SOL     OW 9202   3.785   0.450   5.146  0.4551  0.4315  0.0098
 2768SOL    HW1 9203   3.836   0.509   5.083  0.4800  2.2164  1.6262
 2768SOL    HW2 9204   3.838   0.367   5.164  0.8746  0.3263 -1.5477
 2769SOL     OW 9205   6.632   0.421   1.166 -0.5399  0.6023 -0.7302
 2769SOL    HW1 9206   6.605   0.490   1.233 -0.1717  0.2433 -0.2059
 2769SOL    HW2 9207   6.712   0.371   1.199 -2.1288 -1.6405  0.0024
 2770SOL     OW 9208   4.263   6.563   4.590 -0.1247  0.3101  0.2382
 2770SOL    HW1 9209   4.337   6.599   4.532  1.4221 -1.5889  0.9249
 2770SOL    HW2 9210   4.277   6.595   4.684  0.3524 -0.7659  0.5415
 2771SOL     OW 9211   0.656   1.255   6.318  0.0110 -0.0570  0.0320
 2771SOL    HW1 9212   0.590   1.220   6.251 -1.2320  1.9660  0.1179
 2771SOL    HW2 9213   0.749   1.237   6.286 -0.4797 -3.3038  0.0761
 2772SOL     OW 9214   6.885   3.038   1.514  0.1202 -0.5538  0.3468
 2772SOL    HW1 9215   6.829   3.120   1.510  0.3679 -0.3335  1.1874
 2772SOL    HW2 9216   6.876   2.987   1.428  1.6383  1.4549 -1.1302
 2773SOL     OW 9217   5.622   0.516   3.598  0.1582  0.3174  0.1144
 2773SOL    HW1 9218   5.580   0.584   3.659  1.0740 -0.1264  1.2664
 2773SOL    HW2 9219   5.721   0.528   3.599  0.1768  0.4942 -1.5468
 2774SOL     OW 9220   6.740   6.563   4.106 -0.2624  0.0934 -0.2703
 2774SOL    HW1 9221   6.657   6.618   4.104  0.7911  1.8252  0.8510
 2774SOL    HW2 9222   6.740   6.505   4.188  0.2538  1.1890  0.5350
 2775SOL     OW 9223   0.724   1.996   0.444 -0.1933  0.2201  0.3754
 2775SOL    HW1 9224   0.756   2.091   0.452 -0.3948  0.2145  1.5389
 2775SOL    HW2 9225   0.682   1.969   0.531  0.9014 -1.3094  0.4687
 2776SOL     OW 9226   0.527   1.208   6.092  0.5149 -0.1443 -0.4451
 2776SOL    HW1 9227   0.437   1.169   6.111  2.0129 -2.4481  2.8999
 2776SOL    HW2 9228   0.571   1.158   6.018 -0.2071 -0.2588 -0.7993
 2777SOL     OW 9229   3.873   1.600   5.599 -0.2277 -0.0596  0.0168
 2777SOL    HW1 9230   3.814   1.529   5.561 -1.4959 -0.5394  2.6535
 2777SOL    HW2 9231   3.819   1.683   5.615  0.2268  0.1022  0.7699
 2778SOL     OW 9232   4.722   6.339   1.386 -0.7582 -0.2274 -0.4672
 2778SOL    HW1 9233   4.710   6.240   1.395  2.1683 -0.7236 -0.9524
 2778SOL    HW2 9234   4.704   6.366   1.291  0.6753 -0.7277 -0.9004
 2779SOL     OW 9235   1.604   2.756   3.861  0.1874  0.1630 -0.0713
 2779SOL    HW1 9236   1.644   2.823   3.924 -0.4721  0.3217  0.1907
 2779SOL    HW2 9237   1.508   2.741   3.886  0.6560 -1.8679  0.7216
 2780SOL     OW 9238   6.524   3.530   5.874 -0.0686  0.3086  0.0122
 2780SOL    HW1 9239   6.618   3.534   5.909  0.0192  0.3047 -0.2238
 2780SOL    HW2 9240   6.472   3.464   5.928  0.6950 -1.4816 -1.3252
 2781SOL     OW 9241   1.349   1.775   1.782 -0.2713  0.2145  0.2914
 2781SOL    HW1 9242   1.329   1.843   1.853  1.9307  1.5838 -0.2770
 2781SOL    HW2 9243   1.325   1.813   1.692  0.6231  0.1133  0.0006
 2782SOL     OW 9244   1.864   4.360   4.694 -0.4445  0.0149  0.1621
 2782SOL    HW1 9245   1.792   4.392   4.755 -0.0069  1.8556 -0.2336
 2782SOL    HW2 9246   1.824   4.303   4.622 -1.1921 -0.6889  1.0982
 2783SOL     OW 9247   2.231   6.982   2.835  0.4265  0.1836  0.0905
 2783SOL    HW1 9248   2.268   7.075   2.835 -0.4030  0.5336 -1.2957
 2783SOL    HW2 9249   2.280   6.926   2.768 -0.8405  0.3821 -1.0378
 2784SOL     OW 9250   6.648   0.659   4.484 -0.5243  0.1957 -0.7169
 2784SOL    HW1 9251   6.615   0.582   4.430  1.2021 -2.7298  2.0879
 2784SOL    HW2 9252   6.745   0.674   4.465 -0.5694  0.9259 -0.4065
 2785SOL     OW 9253   1.346   5.206   0.364  0.1217  0.4728  1.2266
 2785SOL    HW1 9254   1.258   5.236   0.398 -0.6848 -0.0681 -0.2903
 2785SOL    HW2 9255   1.337   5.116   0.321  1.3354  0.5611  0.7277
 2786SOL     OW 9256   3.715   2.945   4.374  0.4492 -1.1626  0.4955
 2786SOL    HW1 9257   3.805   2.976   4.343  0.0989 -0.4329  0.1688
 2786SOL    HW2 9258   3.720   2.850   4.404  1.4018 -1.0185  0.8056
 2787SOL     OW 9259   0.341   5.238   0.522  0.2261 -0.4962  0.4001
 2787SOL    HW1 9260   0.265   5.216   0.461  1.2147 -0.3985 -0.9113
 2787SOL    HW2 9261   0.423   5.192   0.491  0.7116 -0.6406  1.8306
 2788SOL     OW 9262   5.735   5.185   0.502 -0.4261  0.1837 -0.2725
 2788SOL    HW1 9263   5.695   5.101   0.466  1.3035 -0.6998 -0.2435
 2788SOL    HW2 9264   5.728   5.184   0.602 -0.4352  0.0811 -0.2737
 2789SOL     OW 9265   3.026   2.926   0.975 -0.2664 -0.7426  0.4960
 2789SOL    HW1 9266   3.071   3.004   0.931  0.6083 -1.2502  0.4557
 2789SOL    HW2 9267   3.094   2.875   1.028 -0.9605 -1.1098  1.0450
 2790SOL     OW 9268   5.216   2.908   0.762  0.0015 -0.0966 -0.6193
 2790SOL    HW1 9269   5.190   3.005   0.763 -0.3381 -0.1410 -2.0567
 2790SOL    HW2 9270   5.188   2.868   0.675  0.2656 -1.4621 -0.0944
 2791SOL     OW 9271   2.033   3.012   3.879 -0.2342  0.3224  0.3007
 2791SOL    HW1 9272   2.106   3.038   3.815  0.6043 -1.9755  0.2132
 2791SOL    HW2 9273   1.978   2.939   3.838 -1.1947  0.4885  1.2691
 2792SOL     OW 9274   6.499   1.531   1.813 -0.6849 -0.3568  0.5729
 2792SOL    HW1 9275   6.547   1.473   1.748 -1.7057 -0.7373  0.1254
 2792SOL    HW2 9276   6.545   1.620   1.819 -1.1608  0.1007 -1.5362
 2793SOL     OW 9277   4.731   5.510   0.084  0.3979 -0.2446 -0.1994
 2793SOL    HW1 9278   4.684   5.507   0.172  0.3340  2.2026 -0.0570
 2793SOL    HW2 9279   4.830   5.503   0.099  0.4679  1.2107  0.2498
 2794SOL     OW 9280   2.291   2.883   3.982  0.6116  0.0992 -0.7979
 2794SOL    HW1 9281   2.206   2.926   4.010 -1.0830 -4.1225  1.4691
 2794SOL    HW2 9282   2.310   2.905   3.886 -1.2020  3.6502 -0.5143
 2795SOL     OW 9283   0.073   2.438   0.825  0.6144 -0.3698 -0.0008
 2795SOL    HW1 9284  -0.015   2.392   0.840 -0.4436  1.4605 -0.1619
 2795SOL    HW2 9285   0.063   2.535   0.849  1.7206  0.5485 -2.8667
 2796SOL     OW 9286   0.383   1.099   0.877  0.2825  0.1360 -0.1738
 2796SOL    HW1 9287   0.285   1.098   0.897 -0.1661 -0.5784 -2.1908
 2796SOL    HW2 9288   0.409   1.191   0.847 -0.9514 -0.7228 -4.5168
 2797SOL     OW 9289   0.954   4.761   5.553  0.5294 -0.6497 -0.2931
 2797SOL    HW1 9290   0.939   4.695   5.627 -1.5394  0.7349  0.6066
 2797SOL    HW2 9291   0.971   4.851   5.591 -0.8753  0.1578 -1.4519
 2798SOL     OW 9292   1.815   3.922   3.386 -0.0119  0.3821  0.7165
 2798SOL    HW1 9293   1.733   3.869   3.407  0.1263  1.4305  4.7696
 2798SOL    HW2 9294   1.805   3.965   3.296 -3.3477 -0.4561  0.5471
 2799SOL     OW 9295   4.751   4.177   4.777 -0.5525  0.2178 -0.0050
 2799SOL    HW1 9296   4.798   4.094   4.747 -1.4475 -0.3214  0.0484
 2799SOL    HW2 9297   4.652   4.166   4.765 -0.7745  0.8046  1.1711
 2800SOL     OW 9298   6.024   1.564   1.904  0.5462 -0.0652  0.5020
 2800SOL    HW1 9299   6.091   1.552   1.830 -0.0358  0.1346 -0.0613
 2800SOL    HW2 9300   6.050   1.506   1.982 -0.8000 -3.1155 -1.1662
 2801SOL     OW 9301   3.861   0.090   4.896  0.1662 -0.0827  0.2183
 2801SOL    HW1 9302   3.763   0.073   4.901  0.0091  0.7230  0.0039
 2801SOL    HW2 9303   3.901   0.086   4.988 -0.4698  1.8728  0.6187
 2802SOL     OW 9304   5.358   4.605   1.307  0.5477 -0.0267  0.4143
 2802SOL    HW1 9305   5.271   4.557   1.321  0.3161  0.1768 -0.3149
 2802SOL    HW2 9306   5.385   4.599   1.211  1.5355 -0.4090  0.6930
 2803SOL     OW 9307   6.078   2.688   1.304 -0.1882  0.3651 -0.2427
 2803SOL    HW1 9308   6.177   2.676   1.307 -0.0579  1.5255  1.2324
 2803SOL    HW2 9309   6.057   2.776   1.262 -0.8118 -1.4171 -4.0534
 2804SOL     OW 9310   3.553   0.451   3.024  0.3411 -0.1824  0.7343
 2804SOL    HW1 9311   3.569   0.542   2.986 -1.6220  1.2209  2.9743
 2804SOL    HW2 9312   3.533   0.387   2.949  0.0426  1.6136 -0.8103
 2805SOL     OW 9313   2.574   1.183   1.432 -0.2418  0.4948 -0.3000
 2805SOL    HW1 9314   2.647   1.134   1.385 -0.0449 -0.2250  0.7122
 2805SOL    HW2 9315   2.486   1.162   1.390 -0.3279 -1.8374  0.9192
 2806SOL     OW 9316   4.108   3.936   1.598 -0.7349 -0.0139  0.5452
 2806SOL    HW1 9317   4.199   3.961   1.631  0.2574 -0.3071 -1.8295
 2806SOL    HW2 9318   4.039   3.982   1.655  0.9195  3.0367  0.2794
 2807SOL     OW 9319   6.548   4.190   2.716  0.3503  0.3206 -0.3881
 2807SOL    HW1 9320   6.552   4.144   2.628 -0.7632  1.1110 -0.8655
 2807SOL    HW2 9321   6.553   4.122   2.789  1.6334 -0.3174 -1.0302
 2808SOL     OW 9322   0.019   0.640   1.427  0.1432 -0.2189  0.0138
 2808SOL    HW1 9323   0.036   0.695   1.509 -1.0837 -0.1062  0.2205
 2808SOL    HW2 9324   0.001   0.545   1.453 -1.5037  0.0668  0.0195
 2809SOL     OW 9325   3.913   3.554   3.434 -0.4426 -0.3784  0.1691
 2809SOL    HW1 9326   3.883   3.533   3.528  1.3331  2.6027  1.5651
 2809SOL    HW2 9327   3.838   3.535   3.370 -1.3299 -3.6426  1.9401
 2810SOL     OW 9328   2.613   4.760   5.509  0.6034 -0.0991  0.6069
 2810SOL    HW1 9329   2.659   4.810   5.583 -0.3212  1.3712  0.2291
 2810SOL    HW2 9330   2.660   4.777   5.423 -1.1388  2.2270  0.0451
 2811SOL     OW 9331   4.636   4.623   6.283 -0.6898 -0.0385  0.8077
 2811SOL    HW1 9332   4.572   4.700   6.284  1.1170  1.5583  0.1204
 2811SOL    HW2 9333   4.631   4.577   6.194  0.4744  1.3411 -0.0114
 2812SOL     OW 9334   4.347   1.406   1.780  0.2721 -0.0894  0.0586
 2812SOL    HW1 9335   4.356   1.423   1.878  0.7208 -1.2815  0.2349
 2812SOL    HW2 9336   4.424   1.446   1.732  0.2565  0.1569  0.2382
 2813SOL     OW 9337   6.750   0.896   2.010 -0.2335 -0.0128  0.3415
 2813SOL    HW1 9338   6.721   0.897   1.914  0.6712 -1.9662  0.0006
 2813SOL    HW2 9339   6.783   0.804   2.034  0.8810  0.8014  2.1257
 2814SOL     OW 9340   0.439   5.110   2.421  0.0805 -0.4704 -0.0792
 2814SOL    HW1 9341   0.361   5.048   2.429  0.6185 -0.9985  1.2905
 2814SOL    HW2 9342   0.476   5.129   2.511  2.3040 -1.2168 -0.7626
 2815SOL     OW 9343   4.903   3.995   5.023  0.4321  0.3216  0.0287
 2815SOL    HW1 9344   4.934   4.070   4.965  1.1646  0.9531  1.2126
 2815SOL    HW2 9345   4.820   4.022   5.071 -0.0085 -0.0970 -0.4764
 2816SOL     OW 9346   4.412   5.381   4.426  0.2891  0.6589 -0.2533
 2816SOL    HW1 9347   4.337   5.315   4.427  1.4231 -0.6813 -0.5853
 2816SOL    HW2 9348   4.449   5.392   4.518  1.4458 -0.8100 -0.5044
 2817SOL     OW 9349   4.294   6.581   2.612  0.4804  0.3956 -0.2244
 2817SOL    HW1 9350   4.248   6.578   2.700 -0.9147 -2.4771 -0.9277
 2817SOL    HW2 9351   4.235   6.624   2.544  0.4676  0.2962 -0.2778
 2818SOL     OW 9352   4.307   1.521   0.998  0.3909  0.2420 -0.0203
 2818SOL    HW1 9353   4.286   1.424   0.985  2.2693 -0.7114  2.9341
 2818SOL    HW2 9354   4.222   1.574   0.997 -0.5649 -1.1473 -3.0821
 2819SOL     OW 9355   6.641   6.145   4.833  0.3826  0.0653  0.1009
 2819SOL    HW1 9356   6.664   6.058   4.878  0.0658  0.9128  1.9882
 2819SOL    HW2 9357   6.724   6.187   4.797  1.8745  2.1238  5.0748
 2820SOL     OW 9358   4.411   3.770   0.451 -0.0681 -0.3137  0.4743
 2820SOL    HW1 9359   4.394   3.869   0.450 -0.2785 -0.3437 -0.8540
 2820SOL    HW2 9360   4.508   3.754   0.433  0.2225 -0.3364  1.9080
 2821SOL     OW 9361   6.202   0.946   1.996 -0.3389 -0.6895 -0.0634
 2821SOL    HW1 9362   6.135   1.015   2.024 -1.7120 -1.7076 -0.7287
 2821SOL    HW2 9363   6.208   0.874   2.065  1.3584  0.2215  0.8045
 2822SOL     OW 9364   2.600   4.585   3.528 -0.2149 -0.3488 -0.2492
 2822SOL    HW1 9365   2.694   4.616   3.546  0.7067 -2.7392 -0.5932
 2822SOL    HW2 9366   2.543   4.606   3.607  1.1802 -0.9008  0.9748
 2823SOL     OW 9367   0.044   0.085   3.572  0.3607  0.1102  0.3836
 2823SOL    HW1 9368   0.141   0.073   3.596  0.4622  0.0593 -0.0518
 2823SOL    HW2 9369   0.036   0.140   3.489  0.0518 -0.5006 -0.0042
 2824SOL     OW 9370   0.757   1.636   6.247  0.5996  0.5978 -0.4593
 2824SOL    HW1 9371   0.776   1.664   6.342  3.2085  0.8304 -0.9750
 2824SOL    HW2 9372   0.817   1.687   6.185 -1.8410  1.2878 -2.3896
 2825SOL     OW 9373   4.764   0.278   4.976  0.3067 -0.2754  0.3812
 2825SOL    HW1 9374   4.791   0.269   4.880  0.4414 -1.7210  0.5413
 2825SOL    HW2 9375   4.827   0.226   5.033  0.0213  0.2971  1.2373
 2826SOL     OW 9376   0.379   4.352   6.305 -0.1870  0.6331  0.1219
 2826SOL    HW1 9377   0.306   4.363   6.373 -0.2003  0.7548  0.0891
 2826SOL    HW2 9378   0.361   4.272   6.248  0.2630  0.0354  0.8099
 2827SOL     OW 9379   1.615   0.037   1.505 -0.3590 -0.1695 -0.3334
 2827SOL    HW1 9380   1.632  -0.011   1.591 -0.1820 -2.2203 -1.4565
 2827SOL    HW2 9381   1.698   0.036   1.450 -0.5983  0.7441 -0.7337
 2828SOL     OW 9382   4.200   2.278   2.909 -0.3914 -0.1810  0.3188
 2828SOL    HW1 9383   4.132   2.267   2.981 -1.2741  1.6569 -0.1838
 2828SOL    HW2 9384   4.158   2.255   2.820 -0.0614  0.0138  0.1123
 2829SOL     OW 9385   2.901   4.786   3.330  0.0376  0.2262 -0.5266
 2829SOL    HW1 9386   2.986   4.748   3.294 -0.5786 -3.2481  1.2824
 2829SOL    HW2 9387   2.842   4.813   3.254  1.4255 -0.4147 -1.8801
 2830SOL     OW 9388   4.465   0.135   2.926 -0.3712 -0.2220  0.4235
 2830SOL    HW1 9389   4.388   0.195   2.948 -1.6872 -1.9491  0.7793
 2830SOL    HW2 9390   4.456   0.102   2.832 -0.1150 -0.5112  0.4988
 2831SOL     OW 9391   3.212   6.707   0.741  0.5023  0.0094 -0.3186
 2831SOL    HW1 9392   3.145   6.781   0.732  0.8534  0.6681  1.8630
 2831SOL    HW2 9393   3.169   6.629   0.784  0.5147 -0.5468 -1.2809
 2832SOL     OW 9394   3.117   5.160   6.507 -0.2439 -0.1137 -0.2549
 2832SOL    HW1 9395   3.113   5.167   6.408 -0.6590  1.1077 -0.1659
 2832SOL    HW2 9396   3.177   5.231   6.544 -0.7249 -0.0488  0.4232
 2833SOL     OW 9397   6.555   0.773   4.070  0.4467 -0.4319  0.8071
 2833SOL    HW1 9398   6.474   0.827   4.093 -0.8390 -0.1997 -3.5568
 2833SOL    HW2 9399   6.528   0.679   4.049  0.8483  0.1059 -2.5831
 2834SOL     OW 9400   1.081   3.769   6.049  0.2460 -0.2145  0.2695
 2834SOL    HW1 9401   1.052   3.769   6.145  0.1682  1.7477  0.2881
 2834SOL    HW2 9402   1.154   3.701   6.036  0.6160 -0.1577  1.8449
 2835SOL     OW 9403   2.648   1.601   1.590 -0.1667  0.2368 -0.1742
 2835SOL    HW1 9404   2.669   1.693   1.558  0.9718  0.5144  1.2586
 2835SOL    HW2 9405   2.722   1.538   1.564  0.0673  0.1722  0.6096
 2836SOL     OW 9406   3.971   0.108   1.214  0.2952 -0.4793 -0.3544
 2836SOL    HW1 9407   4.017   0.056   1.285 -1.8453  1.0273  2.2984
 2836SOL    HW2 9408   3.998   0.204   1.220  0.6809 -0.4244 -2.1855
 2837SOL     OW 9409   2.108   3.361   4.133  0.0307  0.0927  0.3326
 2837SOL    HW1 9410   2.135   3.294   4.202  0.6480 -0.0307 -0.0285
 2837SOL    HW2 9411   2.119   3.454   4.169 -0.0404  0.0203  0.5400
 2838SOL     OW 9412   3.326   0.061   0.575  0.0025  0.1682 -0.3410
 2838SOL    HW1 9413   3.376  -0.017   0.614  0.4989 -0.0821 -1.4542
 2838SOL    HW2 9414   3.258   0.028   0.511  1.8324  0.6892 -2.6938
 2839SOL     OW 9415   1.553   6.002   4.600  0.0682 -0.4614 -0.1613
 2839SOL    HW1 9416   1.608   5.980   4.681  0.5735 -0.8791 -0.6088
 2839SOL    HW2 9417   1.606   5.981   4.518 -0.2463  0.4240 -0.6086
 2840SOL     OW 9418   4.207   2.249   6.113 -0.6989 -0.0267  0.0886
 2840SOL    HW1 9419   4.172   2.289   6.197  1.2066 -1.1951  1.5417
 2840SOL    HW2 9420   4.173   2.155   6.105 -0.1317 -0.2355  0.0759
 2841SOL     OW 9421   4.834   6.713   6.720 -0.2910 -0.1003 -0.2228
 2841SOL    HW1 9422   4.788   6.665   6.794 -1.9074  1.8686  0.1370
 2841SOL    HW2 9423   4.788   6.800   6.702  1.1589  0.3284 -2.3276
 2842SOL     OW 9424   3.863   6.113   2.825  0.5245 -0.0840 -0.1206
 2842SOL    HW1 9425   3.918   6.181   2.776 -0.6687 -0.3708 -1.9746
 2842SOL    HW2 9426   3.779   6.157   2.858  1.3274  0.1117  1.7786
 2843SOL     OW 9427   6.154   4.389   2.354 -0.5052  0.2519 -0.3052
 2843SOL    HW1 9428   6.100   4.466   2.390  0.1575 -0.1636  1.6855
 2843SOL    HW2 9429   6.226   4.366   2.419 -0.2097 -1.5755 -1.2353
 2844SOL     OW 9430   3.748   5.404   0.570 -0.4982  0.0776 -0.4924
 2844SOL    HW1 9431   3.814   5.351   0.624 -0.3403  0.4844 -0.2820
 2844SOL    HW2 9432   3.731   5.492   0.615 -3.7690 -1.2942  1.3015
 2845SOL     OW 9433   4.616   6.888   0.629  0.4232 -0.8136  0.3276
 2845SOL    HW1 9434   4.567   6.872   0.715  0.0071  1.4970  0.5980
 2845SOL    HW2 9435   4.566   6.956   0.575  1.8915 -0.4804 -0.6638
 2846SOL     OW 9436   4.520   0.712   3.603 -0.6639 -0.3277  0.0665
 2846SOL    HW1 9437   4.531   0.807   3.630 -3.2275  0.6681 -2.0172
 2846SOL    HW2 9438   4.577   0.692   3.523 -1.5733  0.0435 -0.6835
 2847SOL     OW 9439   5.850   2.271   1.917  0.3637 -0.6239 -0.3480
 2847SOL    HW1 9440   5.806   2.210   1.850  0.2978  0.3488 -1.2199
 2847SOL    HW2 9441   5.944   2.240   1.934  0.1859 -1.2260 -0.4255
 2848SOL     OW 9442   2.359   2.556   6.985  0.1802 -0.6592  0.2807
 2848SOL    HW1 9443   2.339   2.603   7.071  1.3114 -0.1087  0.2672
 2848SOL    HW2 9444   2.370   2.624   6.912 -1.1278 -1.1397 -0.3898
 2849SOL     OW 9445   4.458   5.628   0.036 -0.3458  0.0657 -0.3025
 2849SOL    HW1 9446   4.422   5.669   0.120 -1.0100  1.4045 -1.2245
 2849SOL    HW2 9447   4.547   5.587   0.056  0.2845  1.8086  0.7219
 2850SOL     OW 9448   1.839   3.403   0.477  0.2808 -0.2127  0.0245
 2850SOL    HW1 9449   1.776   3.411   0.400 -0.5007 -0.1075  0.6519
 2850SOL    HW2 9450   1.797   3.345   0.548  0.2964  0.9569  1.0271
 2851SOL     OW 9451   0.781   3.727   4.409 -0.2247 -0.0710  0.4074
 2851SOL    HW1 9452   0.800   3.678   4.495  2.6700  0.4087  0.1473
 2851SOL    HW2 9453   0.714   3.799   4.427  1.1958  0.8324  2.6347
 2852SOL     OW 9454   5.869   5.564   3.908  0.0880  0.3364  0.4748
 2852SOL    HW1 9455   5.928   5.644   3.896  0.2832  0.0929 -0.2153
 2852SOL    HW2 9456   5.899   5.491   3.846  0.3489 -0.5235  1.5901
 2853SOL     OW 9457   4.330   4.732   0.486 -0.5725 -0.4041 -0.2340
 2853SOL    HW1 9458   4.256   4.773   0.432 -0.0050  0.8236 -0.1144
 2853SOL    HW2 9459   4.318   4.756   0.582  2.1640  3.5297 -0.6163
 2854SOL     OW 9460   6.281   0.027   1.108  0.0746 -0.0306  0.1351
 2854SOL    HW1 9461   6.222  -0.016   1.176 -0.4043 -0.8017 -0.7592
 2854SOL    HW2 9462   6.341   0.093   1.154 -0.4318 -0.3286  1.2617
 2855SOL     OW 9463   0.654   2.163   1.632  0.0027 -0.0242  0.0229
 2855SOL    HW1 9464   0.674   2.107   1.712 -2.1179  1.6052  1.8116
 2855SOL    HW2 9465   0.563   2.141   1.597  0.5149 -0.0396 -1.3724
 2856SOL     OW 9466   1.556   4.614   4.433  0.3526 -0.4395 -0.1495
 2856SOL    HW1 9467   1.525   4.657   4.349  1.8825 -0.5763 -0.8292
 2856SOL    HW2 9468   1.656   4.617   4.437  0.3733 -1.5713  1.0444
 2857SOL     OW 9469   6.786   4.312   4.779 -0.1877 -0.3382 -0.7942
 2857SOL    HW1 9470   6.880   4.332   4.752 -0.2235 -1.5146 -1.9118
 2857SOL    HW2 9471   6.754   4.381   4.844  1.1664  0.5227 -1.0048
 2858SOL     OW 9472   3.773   6.080   4.277  0.1988 -0.1480 -0.2173
 2858SOL    HW1 9473   3.793   6.116   4.186  0.4686  0.9322  0.2429
 2858SOL    HW2 9474   3.851   6.025   4.308  0.6171  0.4444 -0.1846
 2859SOL     OW 9475   5.077   6.792   3.591  0.4046  0.1045 -0.4110
 2859SOL    HW1 9476   5.021   6.755   3.517  1.6017  0.2699 -1.4364
 2859SOL    HW2 9477   5.060   6.890   3.599  2.5655  0.7563 -2.6727
 2860SOL     OW 9478   1.514   6.974   0.397 -0.1659  0.1975  0.2381
 2860SOL    HW1 9479   1.509   6.883   0.439 -3.5950  0.1015 -0.0973
 2860SOL    HW2 9480   1.474   7.041   0.460  0.6393  1.1813 -0.2771
 2861SOL     OW 9481   3.095   2.208   6.595 -0.2418 -0.0977  0.3225
 2861SOL    HW1 9482   3.057   2.295   6.563  0.4925 -0.2606 -1.0780
 2861SOL    HW2 9483   3.021   2.149   6.629 -0.6381  1.4405  2.3120
 2862SOL     OW 9484   2.742   6.502   6.016  0.1660 -0.0646  0.5988
 2862SOL    HW1 9485   2.837   6.479   5.993 -0.2417 -0.9317 -0.2806
 2862SOL    HW2 9486   2.725   6.598   5.992  0.2563 -0.4639 -1.2064
 2863SOL     OW 9487   1.079   4.115   6.181  0.2090  0.4374  0.2199
 2863SOL    HW1 9488   1.033   4.059   6.250  0.7694 -1.1166 -0.6463
 2863SOL    HW2 9489   1.162   4.155   6.221  0.6497 -0.6316  0.4172
 2864SOL     OW 9490   6.506   0.670   4.708  0.0399  0.5057  0.0262
 2864SOL    HW1 9491   6.549   0.643   4.621 -1.6549 -1.6473 -0.2107
 2864SOL    HW2 9492   6.515   0.596   4.774 -1.6614  0.7361  0.5599
 2865SOL     OW 9493   5.941   4.598   2.444 -0.3376 -0.3939 -0.3511
 2865SOL    HW1 9494   5.897   4.542   2.374 -0.1998 -0.1664 -0.6226
 2865SOL    HW2 9495   5.871   4.645   2.498 -0.4284  0.1036 -0.8932
 2866SOL     OW 9496   2.207   4.251   2.563  0.2123 -0.3155 -0.1488
 2866SOL    HW1 9497   2.168   4.294   2.482  0.0761  1.0750  0.6156
 2866SOL    HW2 9498   2.281   4.307   2.599 -0.7353 -0.0693  1.5500
 2867SOL     OW 9499   4.720   1.417   5.802  0.3178 -0.2751  0.7752
 2867SOL    HW1 9500   4.757   1.476   5.874 -0.1853  1.6346 -0.4669
 2867SOL    HW2 9501   4.638   1.371   5.836 -0.6295  1.5570  1.0883
 2868SOL     OW 9502   3.201   1.515   3.076 -0.2863  0.1674 -0.1569
 2868SOL    HW1 9503   3.301   1.514   3.078 -0.2826 -1.9917  0.8089
 2868SOL    HW2 9504   3.167   1.443   3.016 -1.2672  0.0982  0.4537
 2869SOL     OW 9505   1.443   1.689   3.319 -0.1126 -0.1508  0.1226
 2869SOL    HW1 9506   1.390   1.626   3.375  0.4232 -0.3474  0.4169
 2869SOL    HW2 9507   1.448   1.778   3.364 -0.3772 -0.0630 -0.0156
 2870SOL     OW 9508   6.829   2.463   4.942  0.2005  0.1241 -0.0071
 2870SOL    HW1 9509   6.906   2.449   5.004  0.9639  2.2428 -0.3905
 2870SOL    HW2 9510   6.837   2.401   4.864  1.1730 -0.1177  0.2672
 2871SOL     OW 9511   5.682   5.901   1.973  0.1189  0.4057 -0.1453
 2871SOL    HW1 9512   5.780   5.891   1.988  0.5311  2.3259 -1.3164
 2871SOL    HW2 9513   5.647   5.977   2.028 -1.0710 -1.1740  1.4180
 2872SOL     OW 9514   0.457   1.682   4.621 -0.1403 -0.2906 -0.3450
 2872SOL    HW1 9515   0.502   1.593   4.610  1.1892  0.4011 -0.8168
 2872SOL    HW2 9516   0.525   1.749   4.652 -1.3209  0.3644  0.9209
 2873SOL     OW 9517   0.576   3.724   5.382  0.3975 -0.2152 -0.8635
 2873SOL    HW1 9518   0.645   3.699   5.451  0.3921 -1.5195 -1.2909
 2873SOL    HW2 9519   0.559   3.822   5.386  1.1494 -0.1043  0.2988
 2874SOL     OW 9520   2.789   1.792   4.530 -0.3654  0.0132 -0.9044
 2874SOL    HW1 9521   2.850   1.714   4.545  1.0859  1.0188 -1.3636
 2874SOL    HW2 9522   2.754   1.789   4.436 -0.2297 -0.0230 -0.9534
 2875SOL     OW 9523   4.551   6.384   0.316 -0.2595  0.1093 -0.4150
 2875SOL    HW1 9524   4.547   6.324   0.396 -0.0385  0.2834 -0.2713
 2875SOL    HW2 9525   4.646   6.402   0.293 -0.3206 -0.1331 -0.8667
 2876SOL     OW 9526   1.893   3.703   6.788 -0.1518 -0.0335 -0.7940
 2876SOL    HW1 9527   1.891   3.696   6.888 -0.7828  0.2539 -0.7849
 2876SOL    HW2 9528   1.958   3.636   6.752  0.5083  0.2534 -0.1613
 2877SOL     OW 9529   3.729   0.633   4.389 -0.0344  0.5611 -0.0200
 2877SOL    HW1 9530   3.829   0.632   4.398 -0.2225  0.8860  3.2560
 2877SOL    HW2 9531   3.704   0.685   4.308  2.4389 -0.0681 -1.3040
 2878SOL     OW 9532   3.147   2.784   1.558  0.2261  0.5494 -0.6928
 2878SOL    HW1 9533   3.057   2.742   1.558 -0.1025  1.1833  1.0198
 2878SOL    HW2 9534   3.186   2.780   1.651  1.2006  1.8535 -1.0114
 2879SOL     OW 9535   0.718   1.058   6.985  0.3559 -0.2432 -0.0329
 2879SOL    HW1 9536   0.746   1.104   6.900  0.1909 -0.0399  0.0220
 2879SOL    HW2 9537   0.793   1.001   7.018  0.3370 -0.5109 -0.4440
 2880SOL     OW 9538   6.617   5.330   5.322 -0.1532 -0.0609 -0.4299
 2880SOL    HW1 9539   6.541   5.350   5.384  0.9119  1.1852  0.5173
 2880SOL    HW2 9540   6.584   5.335   5.227 -1.1438  1.0331 -0.0563
 2881SOL     OW 9541   3.525   1.685   5.956 -0.5918 -0.3535  0.5142
 2881SOL    HW1 9542   3.441   1.716   5.911  0.3154  0.5921 -0.5952
 2881SOL    HW2 9543   3.576   1.627   5.892 -0.4254 -0.9942  1.2167
 2882SOL     OW 9544   0.116   1.265   1.719  0.0283 -0.0524 -0.1851
 2882SOL    HW1 9545   0.107   1.167   1.736 -1.3631 -0.4854 -2.8015
 2882SOL    HW2 9546   0.171   1.279   1.637 -0.4516  1.3184 -0.2921
 2883SOL     OW 9547   4.548   1.717   3.528  0.3739  0.4162 -0.2611
 2883SOL    HW1 9548   4.517   1.687   3.618 -0.4580  0.3309 -0.5715
 2883SOL    HW2 9549   4.579   1.812   3.534  2.2125 -0.1940  0.5359
 2884SOL     OW 9550   0.072   1.537   4.354 -0.0980 -0.3602  0.4868
 2884SOL    HW1 9551   0.143   1.592   4.312  0.8213 -1.6127  0.3318
 2884SOL    HW2 9552   0.002   1.515   4.286 -1.0230  1.4466  0.8123
 2885SOL     OW 9553   6.028   5.263   4.242 -0.0810  0.2979 -0.0400
 2885SOL    HW1 9554   6.114   5.213   4.232 -1.0756 -1.2368 -1.5078
 2885SOL    HW2 9555   5.952   5.198   4.250 -1.2673  1.5864 -0.3301
 2886SOL     OW 9556   0.756   2.155   4.691 -0.0120 -0.2044  0.4783
 2886SOL    HW1 9557   0.681   2.220   4.676  1.8138  1.7236 -0.8282
 2886SOL    HW2 9558   0.793   2.125   4.603  3.3976  2.2084  0.8890
 2887SOL     OW 9559   4.998   6.220   2.925  0.4286  0.0564 -0.3169
 2887SOL    HW1 9560   4.931   6.271   2.980 -0.7089  0.2497 -1.8279
 2887SOL    HW2 9561   5.008   6.128   2.963 -0.6096  0.0645  0.0080
 2888SOL     OW 9562   1.971   6.664   3.082 -0.4277  0.1025 -0.3294
 2888SOL    HW1 9563   2.025   6.748   3.075 -0.0400 -0.1091  0.1189
 2888SOL    HW2 9564   1.985   6.609   2.999  1.0305 -0.5315  0.3048
 2889SOL     OW 9565   1.091   3.613   3.886  0.2855 -0.2046  1.0943
 2889SOL    HW1 9566   1.009   3.556   3.878  0.4494 -0.2527 -0.3723
 2889SOL    HW2 9567   1.130   3.600   3.977 -0.5299 -1.2719  1.3236
 2890SOL     OW 9568   3.575   2.076   4.310 -0.3366 -0.2649  0.1450
 2890SOL    HW1 9569   3.664   2.092   4.353 -0.8783 -0.0917  1.2562
 2890SOL    HW2 9570   3.587   2.029   4.223  0.7950 -0.9864  0.6670
 2891SOL     OW 9571   5.102   3.269   3.626 -1.2502  0.1396 -0.0704
 2891SOL    HW1 9572   5.200   3.264   3.646 -1.3545  0.0798  0.4173
 2891SOL    HW2 9573   5.057   3.184   3.652 -1.5537  0.4277  0.3705
 2892SOL     OW 9574   3.124   0.079   1.596  0.2602 -0.2299 -0.2605
 2892SOL    HW1 9575   3.085   0.140   1.527 -2.8079 -0.1127  1.4065
 2892SOL    HW2 9576   3.197   0.127   1.645 -1.0356  1.5881 -0.0123
 2893SOL     OW 9577   4.135   6.137   6.124 -0.5070 -0.0786 -0.3592
 2893SOL    HW1 9578   4.162   6.233   6.117  0.2712 -0.2414  0.2420
 2893SOL    HW2 9579   4.201   6.088   6.181  0.7979 -1.6260 -2.9791
 2894SOL     OW 9580   3.443   5.273   6.412  0.3374  0.7796  0.4973
 2894SOL    HW1 9581   3.395   5.334   6.475  0.5144  1.8687 -0.3752
 2894SOL    HW2 9582   3.535   5.308   6.396  0.3910  0.3649 -0.1414
 2895SOL     OW 9583   2.861   0.937   4.601 -0.0370 -0.4053  0.5119
 2895SOL    HW1 9584   2.769   0.909   4.573  0.7079 -0.6488 -1.8505
 2895SOL    HW2 9585   2.866   1.037   4.602  0.2599 -0.3537 -1.6545
 2896SOL     OW 9586   1.118   6.696   5.055  0.3954  0.4239 -0.1287
 2896SOL    HW1 9587   1.168   6.775   5.091 -0.8871  1.0289  0.4005
 2896SOL    HW2 9588   1.024   6.723   5.035 -0.5573 -1.3556  1.5988
 2897SOL     OW 9589   4.693   4.039   1.758  0.2276 -0.2510 -0.3860
 2897SOL    HW1 9590   4.604   4.075   1.785 -0.2618 -0.6929 -1.3759
 2897SOL    HW2 9591   4.745   4.111   1.711 -0.6341 -0.6708 -2.0934
 2898SOL     OW 9592   2.289   4.858   2.265 -0.1220  0.8959  0.0802
 2898SOL    HW1 9593   2.231   4.937   2.282 -1.0884  0.0011  1.1009
 2898SOL    HW2 9594   2.382   4.888   2.244 -0.1966  2.2643  1.5576
 2899SOL     OW 9595   0.021   2.968   0.805  0.3044  0.3369  0.3463
 2899SOL    HW1 9596  -0.058   3.029   0.792  1.9250  2.6368  0.5818
 2899SOL    HW2 9597   0.066   2.954   0.717  0.4536  0.2084  0.4442
 2900SOL     OW 9598   4.058   3.817   4.131 -0.4722  0.5839  0.2326
 2900SOL    HW1 9599   4.128   3.764   4.180 -3.2270 -1.4014  2.3374
 2900SOL    HW2 9600   4.033   3.770   4.047  1.8296  2.2424 -1.5251
 2901SOL     OW 9601   0.596   5.481   6.692  0.5194 -0.1601 -0.0396
 2901SOL    HW1 9602   0.580   5.575   6.663  1.3469  0.5331  1.6064
 2901SOL    HW2 9603   0.684   5.450   6.655  0.0440 -0.4549 -0.9417
 2902SOL     OW 9604   0.541   6.834   6.789  0.3595 -0.7890  0.2109
 2902SOL    HW1 9605   0.638   6.854   6.808  0.7082 -2.6614  0.6271
 2902SOL    HW2 9606   0.504   6.777   6.863 -0.8616 -0.7194 -0.3295
 2903SOL     OW 9607   4.333   6.444   6.761  0.3199 -0.5025 -0.2744
 2903SOL    HW1 9608   4.411   6.499   6.792  1.0860 -1.5937 -0.2469
 2903SOL    HW2 9609   4.262   6.505   6.725  0.8661  0.5535  0.3937
 2904SOL     OW 9610   5.972   4.159   6.121 -0.1060  0.2393  0.3298
 2904SOL    HW1 9611   5.927   4.232   6.070 -2.5214 -0.3442  1.4310
 2904SOL    HW2 9612   5.915   4.077   6.118  2.1194 -1.3600 -0.1557
 2905SOL     OW 9613   1.200   1.013   6.786  0.1369 -0.0739  0.2033
 2905SOL    HW1 9614   1.293   1.041   6.809 -0.4921  1.3163  1.2687
 2905SOL    HW2 9615   1.194   0.989   6.690  1.6186 -0.3220  0.1577
 2906SOL     OW 9616   4.284   6.123   0.116 -0.1917  0.0381  0.0482
 2906SOL    HW1 9617   4.217   6.055   0.086  0.7018  0.1880 -2.4922
 2906SOL    HW2 9618   4.250   6.215   0.094 -0.1650  0.2653  0.9167
 2907SOL     OW 9619   4.097   4.024   6.388 -0.0324  0.2143 -0.0008
 2907SOL    HW1 9620   4.146   4.020   6.475  0.3833 -1.3072 -0.2830
 2907SOL    HW2 9621   4.148   4.081   6.323 -0.5943  1.7769  0.8624
 2908SOL     OW 9622   1.847   1.379   4.732 -0.1044  0.7355 -0.0737
 2908SOL    HW1 9623   1.923   1.319   4.707 -0.9665 -0.4415  0.0020
 2908SOL    HW2 9624   1.809   1.421   4.650  1.2346  2.1388 -0.0201
 2909SOL     OW 9625   3.164   2.349   5.950  0.2109  0.9766 -0.1511
 2909SOL    HW1 9626   3.139   2.339   6.046  0.4526  1.5618 -0.0196
 2909SOL    HW2 9627   3.257   2.386   5.944 -0.0680  1.6263 -0.5954
 2910SOL     OW 9628   4.197   3.332   6.624  0.5317  0.1485  0.0468
 2910SOL    HW1 9629   4.273   3.380   6.669  0.4988  0.8219 -0.5893
 2910SOL    HW2 9630   4.229   3.294   6.537 -0.0727  1.2937 -0.7092
 2911SOL     OW 9631   6.301   6.266   6.731  0.5488 -0.0829  0.4374
 2911SOL    HW1 9632   6.316   6.188   6.791 -0.7809  0.5770  1.6995
 2911SOL    HW2 9633   6.359   6.342   6.761 -0.8657  0.5824  1.6068
 2912SOL     OW 9634   4.263   0.139   0.935 -0.1989  1.0727  0.2832
 2912SOL    HW1 9635   4.266   0.093   0.846 -3.7718  0.7538  0.1822
 2912SOL    HW2 9636   4.285   0.074   1.007 -1.5589  0.1442 -0.1136
 2913SOL     OW 9637   1.565   0.898   5.819  0.3796 -0.6567 -0.0812
 2913SOL    HW1 9638   1.597   0.927   5.729 -0.5710 -0.0190 -0.2295
 2913SOL    HW2 9639   1.469   0.869   5.812  0.8363 -2.4355  0.3594
 2914SOL     OW 9640   5.806   3.799   6.040 -0.0546 -0.2834 -0.1698
 2914SOL    HW1 9641   5.753   3.872   6.084 -1.9604 -0.2867 -2.2889
 2914SOL    HW2 9642   5.901   3.805   6.070 -0.7997  1.0116  2.2151
 2915SOL     OW 9643   5.209   2.466   0.481  0.3903  0.1963 -0.4580
 2915SOL    HW1 9644   5.134   2.508   0.431  0.6701  1.2409 -0.0350
 2915SOL    HW2 9645   5.173   2.404   0.550 -0.0755  0.5189 -0.4076
 2916SOL     OW 9646   0.134   4.652   0.335  0.2658  0.2927 -0.0248
 2916SOL    HW1 9647   0.071   4.587   0.377 -1.0877  1.0091 -0.8881
 2916SOL    HW2 9648   0.113   4.745   0.368  0.3643  0.6329 -0.9015
 2917SOL     OW 9649   3.494   3.982   2.402  0.4278 -0.2923 -0.1332
 2917SOL    HW1 9650   3.478   3.884   2.405 -0.3953 -0.1441  1.2394
 2917SOL    HW2 9651   3.561   4.008   2.472  2.7496 -0.1801 -2.2566
 2918SOL     OW 9652   6.449   1.554   4.718  0.1971  0.6595  0.2384
 2918SOL    HW1 9653   6.529   1.515   4.673 -1.1888 -0.0144 -1.7937
 2918SOL    HW2 9654   6.458   1.542   4.817  1.9773 -0.6118 -0.0171
 2919SOL     OW 9655   3.525   0.501   5.973  0.5119 -0.7837 -0.1709
 2919SOL    HW1 9656   3.535   0.402   5.964 -0.8771 -0.9372 -0.2570
 2919SOL    HW2 9657   3.530   0.544   5.883  0.1331 -0.8775 -0.2352
 2920SOL     OW 9658   2.641   0.057   3.190 -0.2789 -0.3992  0.1444
 2920SOL    HW1 9659   2.616  -0.011   3.121  1.9351  0.1536 -1.3030
 2920SOL    HW2 9660   2.561   0.080   3.245 -1.8328 -1.7795 -1.4355
 2921SOL     OW 9661   1.603   3.720   3.030  0.6439 -0.0064 -0.2434
 2921SOL    HW1 9662   1.654   3.718   2.944 -0.2397  0.7313 -0.8046
 2921SOL    HW2 9663   1.592   3.627   3.064  3.5608 -0.1213  0.6594
 2922SOL     OW 9664   0.098   0.507   2.663  0.4035  0.0441  0.2705
 2922SOL    HW1 9665   0.181   0.466   2.625 -1.2794 -0.3592 -3.4078
 2922SOL    HW2 9666   0.106   0.607   2.659 -0.4520  0.1167 -3.5420
 2923SOL     OW 9667   4.447   5.779   3.073  0.1329  0.4142 -0.2538
 2923SOL    HW1 9668   4.532   5.828   3.053 -0.2540 -0.0690 -3.6584
 2923SOL    HW2 9669   4.373   5.845   3.086  0.5628  0.7973  0.2812
 2924SOL     OW 9670   1.766   3.622   6.439  0.4687 -0.1162 -0.2585
 2924SOL    HW1 9671   1.806   3.701   6.487 -1.1423  0.2177  0.6122
 2924SOL    HW2 9672   1.839   3.571   6.394  1.9921  0.0477  1.8431
 2925SOL     OW 9673   5.831   1.699   3.764 -0.1965 -0.3790 -0.3400
 2925SOL    HW1 9674   5.772   1.773   3.732 -0.4025 -0.5610 -0.3857
 2925SOL    HW2 9675   5.894   1.672   3.691  2.0714  1.8695  0.6262
 2926SOL     OW 9676   1.736   2.271   5.421  0.2379  0.2671 -0.4497
 2926SOL    HW1 9677   1.768   2.340   5.356 -1.0897  0.0617 -1.3518
 2926SOL    HW2 9678   1.771   2.181   5.394 -0.3276  0.1787 -0.9164
 2927SOL     OW 9679   0.953   5.179   5.119 -0.3005 -0.3515 -0.5156
 2927SOL    HW1 9680   1.008   5.251   5.076  0.0624  0.4070  1.1242
 2927SOL    HW2 9681   0.865   5.217   5.147 -0.0007 -0.4435  0.6093
 2928SOL     OW 9682   3.894   5.031   5.581 -0.7787  0.1328 -0.2830
 2928SOL    HW1 9683   3.812   5.016   5.526 -0.6132 -0.0055 -0.4935
 2928SOL    HW2 9684   3.876   5.103   5.649 -0.7197  0.8962 -1.0617
 2929SOL     OW 9685   2.010   5.101   3.614  0.0439 -0.4528  0.5185
 2929SOL    HW1 9686   2.063   5.184   3.634  0.6673 -0.9637  1.0477
 2929SOL    HW2 9687   2.000   5.091   3.515  0.6034 -0.1424  0.4234
 2930SOL     OW 9688   4.467   4.322   0.923  0.4873 -0.1879 -0.1490
 2930SOL    HW1 9689   4.474   4.354   1.018 -2.2927 -0.3127  0.1978
 2930SOL    HW2 9690   4.481   4.223   0.920  0.3657 -0.2156  0.1708
 2931SOL     OW 9691   5.216   3.608   4.121 -0.1225  0.0346  0.1240
 2931SOL    HW1 9692   5.191   3.515   4.094 -2.0403  0.4063  0.4722
 2931SOL    HW2 9693   5.295   3.638   4.068 -0.2534 -1.3338 -0.8969
 2932SOL     OW 9694   2.446   2.757   5.254  0.2583  0.0185  0.0487
 2932SOL    HW1 9695   2.506   2.744   5.333 -0.8245 -0.3673  0.8308
 2932SOL    HW2 9696   2.454   2.851   5.221  1.4764 -0.0964 -0.0354
 2933SOL     OW 9697   6.409   1.927   6.036  0.5104 -0.2077  0.2698
 2933SOL    HW1 9698   6.365   1.971   6.114 -1.5790  0.5080 -1.2312
 2933SOL    HW2 9699   6.474   1.991   5.994 -1.6353  1.1133 -1.1838
 2934SOL     OW 9700   6.536   5.388   4.652 -0.0780  0.5207  0.1682
 2934SOL    HW1 9701   6.519   5.430   4.563  1.7755  0.7775 -0.0976
 2934SOL    HW2 9702   6.524   5.456   4.724  0.5561  0.8968 -0.0721
 2935SOL     OW 9703   1.185   2.981   2.582 -0.3898  0.1750  0.1064
 2935SOL    HW1 9704   1.183   3.000   2.680 -1.0247  0.1947  0.0937
 2935SOL    HW2 9705   1.163   2.884   2.567  1.9991 -0.4411  0.1184
 2936SOL     OW 9706   1.603   5.455   3.757 -0.2598  0.2916  0.7921
 2936SOL    HW1 9707   1.677   5.522   3.755 -1.3399  1.5320  0.6702
 2936SOL    HW2 9708   1.633   5.374   3.806  1.0398  0.9376  1.1109
 2937SOL     OW 9709   1.317   0.926   6.283 -0.0844  0.4801 -0.1665
 2937SOL    HW1 9710   1.321   0.848   6.220 -1.6451 -0.2976  0.6409
 2937SOL    HW2 9711   1.407   0.969   6.288  1.8173 -3.2418  1.7634
 2938SOL     OW 9712   6.830   6.814   3.211 -0.1250  0.0193  0.3023
 2938SOL    HW1 9713   6.821   6.789   3.114 -1.0020 -2.3986  0.9459
 2938SOL    HW2 9714   6.751   6.870   3.237  0.9977  2.2085 -0.7534
 2939SOL     OW 9715   6.703   6.270   2.948 -0.5571  0.1713  0.0244
 2939SOL    HW1 9716   6.794   6.244   2.915 -0.1833 -1.3797  2.0563
 2939SOL    HW2 9717   6.712   6.327   3.030 -1.4530  1.2062 -0.5618
 2940SOL     OW 9718   2.211   5.108   1.506 -0.1840 -0.0289 -0.3353
 2940SOL    HW1 9719   2.219   5.201   1.542 -0.7423 -0.0669 -0.1137
 2940SOL    HW2 9720   2.303   5.070   1.494  0.0280  0.2485  0.3505
 2941SOL     OW 9721   4.303   5.279   5.978  0.4184  0.1566 -0.2610
 2941SOL    HW1 9722   4.382   5.238   6.024 -0.9045 -3.1720 -0.6880
 2941SOL    HW2 9723   4.294   5.239   5.887 -1.7730  0.4390 -0.2091
 2942SOL     OW 9724   5.341   2.810   3.829  0.6577 -0.0860  0.3368
 2942SOL    HW1 9725   5.383   2.739   3.772  0.2645 -0.4530  0.5006
 2942SOL    HW2 9726   5.278   2.768   3.893  0.8293  0.3623  0.8081
 2943SOL     OW 9727   0.254   4.001   3.705 -0.2189 -0.3813 -0.0152
 2943SOL    HW1 9728   0.182   4.031   3.643 -2.1441 -0.0374  2.2464
 2943SOL    HW2 9729   0.232   3.910   3.741  1.6307 -1.2330 -0.9025
 2944SOL     OW 9730   0.038   0.151   3.292  0.0440  0.2551  0.5112
 2944SOL    HW1 9731   0.096   0.176   3.214 -2.2513  1.3170 -0.9827
 2944SOL    HW2 9732   0.020   0.052   3.289  0.8521  0.1100  0.3287
 2945SOL     OW 9733   5.756   4.502   5.523 -0.2561  0.3602 -0.2661
 2945SOL    HW1 9734   5.846   4.544   5.528 -0.2246  0.1978  0.6210
 2945SOL    HW2 9735   5.694   4.546   5.589 -0.7145  0.2050 -0.5870
 2946SOL     OW 9736   5.595   2.334   0.119 -0.5031  0.7113  0.1248
 2946SOL    HW1 9737   5.663   2.266   0.093 -0.3057  1.4237 -1.3209
 2946SOL    HW2 9738   5.542   2.360   0.038 -1.9246  0.8052  1.0548
 2947SOL     OW 9739   2.731   1.219   3.015 -0.8454 -0.4038  0.5449
 2947SOL    HW1 9740   2.647   1.175   3.045 -0.9848  0.4411  1.4337
 2947SOL    HW2 9741   2.737   1.214   2.915 -1.5833 -1.1143  0.5267
 2948SOL     OW 9742   1.472   3.905   5.029 -0.4377  0.0809  0.8290
 2948SOL    HW1 9743   1.503   3.969   4.959 -0.5441 -2.0060 -1.2424
 2948SOL    HW2 9744   1.545   3.890   5.096  1.2713 -0.9169 -1.1453
 2949SOL     OW 9745   0.772   1.907   3.991 -0.6274  0.2338  0.3877
 2949SOL    HW1 9746   0.842   1.911   3.919  0.5214  0.0748  1.4717
 2949SOL    HW2 9747   0.692   1.959   3.961  0.2220  1.0475 -0.5822
 2950SOL     OW 9748   4.116   3.094   0.493 -0.4536  0.6415 -0.4261
 2950SOL    HW1 9749   4.210   3.071   0.518 -1.1060 -0.5026  1.1321
 2950SOL    HW2 9750   4.106   3.090   0.394  0.6792 -1.2093 -0.5116
 2951SOL     OW 9751   1.779   3.167   3.059 -0.0027  0.4949  0.6524
 2951SOL    HW1 9752   1.857   3.225   3.040 -1.8588  3.1468  0.6212
 2951SOL    HW2 9753   1.744   3.186   3.151  1.0547 -2.8093  1.9017
 2952SOL     OW 9754   4.746   2.620   3.330 -0.8111 -0.0368 -0.1618
 2952SOL    HW1 9755   4.793   2.532   3.334  0.0424  0.4363  1.1303
 2952SOL    HW2 9756   4.658   2.612   3.377 -0.5555 -0.1058  0.3125
 2953SOL     OW 9757   2.256   6.737   1.805 -0.4651 -0.2642  0.2321
 2953SOL    HW1 9758   2.270   6.822   1.855 -2.3108  0.0623  0.2730
 2953SOL    HW2 9759   2.310   6.664   1.847  1.9424  1.0523 -0.4192
 2954SOL     OW 9760   2.239   2.246   5.678  0.0112  0.1309  0.1813
 2954SOL    HW1 9761   2.265   2.272   5.771  0.1994 -0.0451  0.1793
 2954SOL    HW2 9762   2.294   2.297   5.613  0.9526 -0.8263  0.1823
 2955SOL     OW 9763   3.222   4.042   2.901  0.3607  0.0017 -0.2065
 2955SOL    HW1 9764   3.164   4.022   2.821  0.1896  0.8479 -0.3131
 2955SOL    HW2 9765   3.164   4.066   2.979  0.5461  0.8856 -0.3223
 2956SOL     OW 9766   3.330   6.432   1.812  0.0989 -0.0410  0.5534
 2956SOL    HW1 9767   3.426   6.428   1.840  0.3702  1.0798 -0.1635
 2956SOL    HW2 9768   3.321   6.488   1.730 -1.2397  0.3190  0.9131
 2957SOL     OW 9769   1.534   4.947   1.994 -0.3721  0.3411 -0.0550
 2957SOL    HW1 9770   1.539   4.935   1.895 -1.4642 -0.1215 -0.0720
 2957SOL    HW2 9771   1.607   4.895   2.038 -0.2010  0.1202 -0.5961
 2958SOL     OW 9772   1.324   3.606   5.073  0.0211 -0.1811 -0.0264
 2958SOL    HW1 9773   1.419   3.636   5.078  0.2893 -1.2129  2.9851
 2958SOL    HW2 9774   1.321   3.514   5.034 -0.0010  0.5726 -1.9034
 2959SOL     OW 9775   0.922   6.727   2.550  0.2862  0.4110  0.0292
 2959SOL    HW1 9776   0.963   6.667   2.618  2.9208  0.4052 -1.4219
 2959SOL    HW2 9777   0.970   6.815   2.548 -0.8338  1.0460 -0.6773
 2960SOL     OW 9778   6.723   0.068   0.507 -0.7990 -0.0734  0.1403
 2960SOL    HW1 9779   6.815   0.046   0.539 -0.0415  0.8056 -1.2950
 2960SOL    HW2 9780   6.658   0.058   0.582  0.4957 -0.5090  1.2446
 2961SOL     OW 9781   0.652   1.999   2.545 -0.1542 -0.0269  0.0789
 2961SOL    HW1 9782   0.599   1.914   2.544  0.0431 -0.1962  1.8612
 2961SOL    HW2 9783   0.717   1.997   2.621 -0.3177  1.8279  0.3104
 2962SOL     OW 9784   0.136   2.165   1.263  0.2501 -0.0409 -0.4891
 2962SOL    HW1 9785   0.182   2.076   1.265 -0.5508 -0.4384  0.4498
 2962SOL    HW2 9786   0.202   2.235   1.235  0.9407 -0.8830 -1.0443
 2963SOL     OW 9787   6.924   3.431   1.097  0.0153 -0.4189  0.6830
 2963SOL    HW1 9788   6.843   3.391   1.141  0.1450 -2.4349 -0.7588
 2963SOL    HW2 9789   7.006   3.396   1.142  0.1379  0.5323  1.2386
 2964SOL     OW 9790   6.524   0.632   0.660 -0.3078  0.3963  0.0761
 2964SOL    HW1 9791   6.555   0.600   0.750 -0.7188 -0.8260 -0.1877
 2964SOL    HW2 9792   6.595   0.615   0.592 -1.3660 -2.2482 -0.4972
 2965SOL     OW 9793   5.207   4.776   5.784  0.4005 -0.4360 -0.1745
 2965SOL    HW1 9794   5.187   4.765   5.687  0.3087  0.7799 -0.3115
 2965SOL    HW2 9795   5.124   4.762   5.837  0.2914 -0.3905 -0.3313
 2966SOL     OW 9796   3.171   0.766   5.633 -0.2256  0.0658  0.1437
 2966SOL    HW1 9797   3.226   0.768   5.717  0.2250 -0.3584 -0.1354
 2966SOL    HW2 9798   3.211   0.702   5.568  2.0113  3.4642 -2.1756
 2967SOL     OW 9799   1.433   6.286   6.857 -0.8301 -0.3185  0.0258
 2967SOL    HW1 9800   1.422   6.384   6.840 -1.2768 -0.1669  1.0570
 2967SOL    HW2 9801   1.343   6.241   6.853 -0.7122 -0.5706  0.1556
 2968SOL     OW 9802   3.560   2.140   5.073  0.1491 -0.9796  0.4167
 2968SOL    HW1 9803   3.603   2.112   4.987  1.4661 -0.8101  1.0026
 2968SOL    HW2 9804   3.461   2.142   5.061  0.3505  0.1796 -1.4432
 2969SOL     OW 9805   4.458   2.289   6.593 -0.3308  0.7007 -0.4498
 2969SOL    HW1 9806   4.422   2.375   6.630 -1.2959 -0.1385  0.6623
 2969SOL    HW2 9807   4.426   2.276   6.500 -1.8566  0.6196  0.0606
 2970SOL     OW 9808   6.292   2.097   5.669  0.5994 -0.2059 -0.4685
 2970SOL    HW1 9809   6.261   2.019   5.616  0.2983 -0.9148  0.7154
 2970SOL    HW2 9810   6.301   2.177   5.609 -0.9622 -0.6431 -1.3383
 2971SOL     OW 9811   3.711   3.643   2.411  0.2271  0.4250  0.1288
 2971SOL    HW1 9812   3.749   3.559   2.373 -0.3151 -1.2645  3.0374
 2971SOL    HW2 9813   3.613   3.647   2.393 -0.3857 -1.2729  2.6040
 2972SOL     OW 9814   3.679   6.727   2.556  0.4171  0.7451  0.5234
 2972SOL    HW1 9815   3.586   6.736   2.590  0.9999  0.0690  2.4549
 2972SOL    HW2 9816   3.741   6.706   2.633  2.1767  1.2946 -0.6770
 2973SOL     OW 9817   4.010   6.870   3.508  0.2584  0.2050 -0.1247
 2973SOL    HW1 9818   4.025   6.794   3.445  1.3305 -1.1496  1.6680
 2973SOL    HW2 9819   3.937   6.847   3.573  1.7210 -0.0878  1.5065
 2974SOL     OW 9820   5.779   4.310   0.208 -0.7196 -0.1921  0.4207
 2974SOL    HW1 9821   5.744   4.228   0.165 -2.9004  0.3066  1.1231
 2974SOL    HW2 9822   5.769   4.303   0.307 -0.5320  0.7352  0.5167
 2975SOL     OW 9823   6.415   3.669   0.487 -0.4760 -0.0918  0.3785
 2975SOL    HW1 9824   6.475   3.641   0.562 -0.7025  0.0294  0.6059
 2975SOL    HW2 9825   6.395   3.766   0.496 -0.6016 -0.1049  0.2271
 2976SOL     OW 9826   1.176   6.986   2.844  0.2354  0.3289  0.3158
 2976SOL    HW1 9827   1.209   6.906   2.895  1.3424  0.5979  0.0546
 2976SOL    HW2 9828   1.241   7.007   2.770 -1.0041  0.3197 -0.8255
 2977SOL     OW 9829   4.103   4.533   1.442 -0.1012  0.1629 -0.3994
 2977SOL    HW1 9830   4.131   4.463   1.509 -1.6404 -0.7377 -0.6513
 2977SOL    HW2 9831   4.121   4.624   1.480  2.0572 -0.3289 -0.1065
 2978SOL     OW 9832   5.893   6.196   3.634 -0.1717 -0.0461 -0.0570
 2978SOL    HW1 9833   5.884   6.202   3.734  0.4025 -0.2791  0.0114
 2978SOL    HW2 9834   5.879   6.286   3.593 -0.0974  0.1093  0.2576
 2979SOL     OW 9835   1.876   1.706   0.320  0.6641  0.8833  0.5511
 2979SOL    HW1 9836   1.890   1.696   0.221  0.2182  1.4821  0.4239
 2979SOL    HW2 9837   1.902   1.798   0.348 -0.8141  1.2676  0.6958
 2980SOL     OW 9838   3.227   4.048   2.081  0.4463  0.0893 -0.3821
 2980SOL    HW1 9839   3.179   3.961   2.078  0.4384  0.0940 -2.7682
 2980SOL    HW2 9840   3.170   4.117   2.126 -1.2564 -0.2450 -1.8969
 2981SOL     OW 9841   4.745   5.084   6.145 -0.3693  0.4407  0.4480
 2981SOL    HW1 9842   4.762   4.998   6.098  0.2470  0.6826  0.2080
 2981SOL    HW2 9843   4.775   5.077   6.240  0.2600  0.5774  0.2660
 2982SOL     OW 9844   4.385   1.467   6.437  0.2701 -0.0701  0.4947
 2982SOL    HW1 9845   4.293   1.453   6.472  1.2275  1.9462  4.5062
 2982SOL    HW2 9846   4.452   1.436   6.506  2.4706  1.9406 -0.5687
 2983SOL     OW 9847   1.956   5.363   4.331  0.5843  0.3630  0.6818
 2983SOL    HW1 9848   1.866   5.360   4.290  0.8207  3.1195 -0.2068
 2983SOL    HW2 9849   2.021   5.313   4.274 -0.1619 -0.8901  0.8862
 2984SOL     OW 9850   1.146   6.173   4.632  0.3609  0.1083  0.2732
 2984SOL    HW1 9851   1.237   6.195   4.669  1.7644 -0.5397 -2.4952
 2984SOL    HW2 9852   1.126   6.235   4.556 -0.8531 -0.7121 -0.0921
 2985SOL     OW 9853   2.428   2.204   1.360 -0.4114 -0.0874 -0.1516
 2985SOL    HW1 9854   2.423   2.148   1.443  0.1880  0.3817  0.2060
 2985SOL    HW2 9855   2.336   2.215   1.322 -0.7394 -0.0086  0.6455
 2986SOL     OW 9856   1.423   1.643   5.369 -0.4715 -0.4902 -0.0476
 2986SOL    HW1 9857   1.480   1.626   5.449 -0.9250  0.5319  0.5146
 2986SOL    HW2 9858   1.480   1.672   5.293 -0.2210  0.3855  0.4652
 2987SOL     OW 9859   3.129   6.920   0.911  0.6894 -0.6949 -0.1947
 2987SOL    HW1 9860   3.152   7.009   0.950  0.2496 -1.3413  1.6387
 2987SOL    HW2 9861   3.211   6.863   0.908  0.5584 -0.9503  0.6934
 2988SOL     OW 9862   3.708   5.342   6.400  0.0200 -0.1275 -0.3034
 2988SOL    HW1 9863   3.757   5.265   6.360 -0.3339 -1.8419  2.3592
 2988SOL    HW2 9864   3.722   5.344   6.499 -4.1022  0.0429  0.4675
 2989SOL     OW 9865   6.491   4.091   0.020 -0.0082 -0.3449 -0.1854
 2989SOL    HW1 9866   6.530   4.088  -0.072  0.1417 -1.7309 -0.0905
 2989SOL    HW2 9867   6.395   4.065   0.016 -0.4545  1.1836 -0.1486
 2990SOL     OW 9868   6.692   2.723   1.285 -0.1038  0.2448  0.3554
 2990SOL    HW1 9869   6.640   2.797   1.327 -1.2605 -0.2822 -0.1175
 2990SOL    HW2 9870   6.687   2.642   1.342  0.4231  0.2624  0.4335
 2991SOL     OW 9871   3.995   5.800   6.444 -0.5681 -0.2831 -0.3001
 2991SOL    HW1 9872   4.073   5.756   6.488 -0.6989 -0.1584  0.0601
 2991SOL    HW2 9873   4.019   5.826   6.350  0.0456  0.3636  0.0251
 2992SOL     OW 9874   3.753   2.904   0.304  0.1946 -0.6243 -0.0238
 2992SOL    HW1 9875   3.684   2.903   0.231  0.4374  2.1862 -0.3806
 2992SOL    HW2 9876   3.731   2.976   0.370  1.3164 -1.5231  1.4015
 2993SOL     OW 9877   0.603   0.845   6.451 -0.0652 -0.2023 -0.0657
 2993SOL    HW1 9878   0.684   0.789   6.437 -0.0605 -0.3962  0.7156
 2993SOL    HW2 9879   0.533   0.819   6.384  1.7246  2.4148 -3.2424
 2994SOL     OW 9880   0.503   5.703   1.952 -0.2617  0.1370  0.0865
 2994SOL    HW1 9881   0.527   5.607   1.945 -0.8975 -0.0699  0.6251
 2994SOL    HW2 9882   0.454   5.732   1.870  0.7826  0.2656 -0.5104
 2995SOL     OW 9883   5.457   6.250   2.727 -0.3140  0.0584 -0.0836
 2995SOL    HW1 9884   5.465   6.324   2.661 -1.2677  1.0026  0.8030
 2995SOL    HW2 9885   5.363   6.216   2.728 -0.8970  1.4847  2.1707
 2996SOL     OW 9886   6.801   3.100   3.719  0.0223 -0.5723 -0.2245
 2996SOL    HW1 9887   6.829   3.175   3.779  0.0769 -0.7752  0.0051
 2996SOL    HW2 9888   6.881   3.067   3.669  0.0934 -0.8021  0.0395
 2997SOL     OW 9889   2.387   2.131   6.952 -0.0924  0.2301  0.7348
 2997SOL    HW1 9890   2.475   2.120   6.998  0.4645 -1.0843 -0.5750
 2997SOL    HW2 9891   2.323   2.061   6.984  0.8839 -1.9348 -1.7043
 2998SOL     OW 9892   4.314   1.876   5.334  0.3528  0.4870 -0.3891
 2998SOL    HW1 9893   4.216   1.893   5.322  0.6732  2.0095 -1.0978
 2998SOL    HW2 9894   4.366   1.954   5.300  1.8177 -0.1528  0.2838
 2999SOL     OW 9895   0.815   6.129   1.368  0.2903  0.0791 -0.4580
 2999SOL    HW1 9896   0.833   6.032   1.384 -0.0355  0.4666  2.9400
 2999SOL    HW2 9897   0.724   6.139   1.327  0.5132 -1.0289 -1.2763
 3000SOL     OW 9898   5.229   5.076   2.081 -0.1214 -0.3261  0.0822
 3000SOL    HW1 9899   5.211   5.015   2.004  2.1263 -0.6966 -0.2142
 3000SOL    HW2 9900   5.164   5.152   2.080 -1.6686 -1.6003 -0.7324
 3001SOL     OW 9901   2.531   1.768   1.248  0.0982  0.0818 -0.7487
 3001SOL    HW1 9902   2.596   1.786   1.174  0.6714  0.4359 -0.1616
 3001SOL    HW2 9903   2.563   1.811   1.332 -0.0879 -1.0866 -0.0696
 3002SOL     OW 9904   2.626   1.955   0.318 -0.0104  0.0382  0.7402
 3002SOL    HW1 9905   2.651   1.975   0.223  0.4801  1.7099  1.1861
 3002SOL    HW2 9906   2.542   1.901   0.321  0.6021 -1.0200 -0.6679
 3003SOL     OW 9907   2.150   4.606   4.890  0.2683 -0.0434 -0.0617
 3003SOL    HW1 9908   2.225   4.606   4.955  0.5951 -0.3890 -0.4339
 3003SOL    HW2 9909   2.180   4.646   4.804  0.5035 -1.5657 -0.7316
 3004SOL     OW 9910   2.695   1.301   6.768  1.0161 -0.4735 -0.0697
 3004SOL    HW1 9911   2.747   1.246   6.834 -0.8756 -0.9622  1.0999
 3004SOL    HW2 9912   2.670   1.244   6.690  0.3637 -0.8627  0.4159
 3005SOL     OW 9913   5.336   3.233   3.354 -0.2566  0.3157 -0.0535
 3005SOL    HW1 9914   5.316   3.243   3.451  1.4531  1.1884  0.2581
 3005SOL    HW2 9915   5.273   3.289   3.301 -1.1478 -0.0982  0.5540
 3006SOL     OW 9916   4.421   4.686   5.236  0.0478  0.1634 -0.0019
 3006SOL    HW1 9917   4.376   4.598   5.223  0.2377  0.2406 -1.3721
 3006SOL    HW2 9918   4.418   4.737   5.150  1.5845  0.7108  0.2471
 3007SOL     OW 9919   5.444   6.878   3.047 -0.4591  0.4997 -0.4330
 3007SOL    HW1 9920   5.376   6.928   3.101 -0.0595  0.6727 -0.0861
 3007SOL    HW2 9921   5.533   6.883   3.093 -0.4539 -0.6927 -0.2733
 3008SOL     OW 9922   5.344   0.892   3.172 -0.2166  0.5590 -0.3167
 3008SOL    HW1 9923   5.362   0.988   3.193 -0.7884  0.4919  0.5579
 3008SOL    HW2 9924   5.379   0.870   3.081 -0.8476  1.8104 -0.8867
 3009SOL     OW 9925   0.629   6.479   0.154  0.9472  0.2532  0.2379
 3009SOL    HW1 9926   0.701   6.534   0.195 -0.0827  2.0691 -0.2590
 3009SOL    HW2 9927   0.545   6.488   0.208  0.8497 -1.1893  0.3686
 3010SOL     OW 9928   5.157   2.709   6.152 -0.0380  0.6246 -0.3893
 3010SOL    HW1 9929   5.229   2.770   6.120  0.0604 -0.1206 -1.6282
 3010SOL    HW2 9930   5.070   2.734   6.108 -0.4910  1.3326  0.8695
 3011SOL     OW 9931   4.595   2.650   5.095  0.1296  0.0615  0.6340
 3011SOL    HW1 9932   4.603   2.749   5.085  0.1998  0.0813  0.8762
 3011SOL    HW2 9933   4.530   2.629   5.168  1.6028 -0.0370  1.9695
 3012SOL     OW 9934   3.241   4.897   3.251  0.4212  0.1115  0.2432
 3012SOL    HW1 9935   3.298   4.887   3.332  1.0295 -0.8364 -0.2764
 3012SOL    HW2 9936   3.299   4.895   3.169 -0.2836 -0.1186 -0.2614
 3013SOL     OW 9937   3.636   5.600   6.865 -0.4160  0.4208  0.2911
 3013SOL    HW1 9938   3.658   5.674   6.801  1.9290 -1.6634 -1.4999
 3013SOL    HW2 9939   3.542   5.569   6.849 -0.4678  1.1244 -0.8898
 3014SOL     OW 9940   2.891   3.739   3.719 -0.1445 -0.2992 -0.0439
 3014SOL    HW1 9941   2.880   3.806   3.645 -0.7161 -0.7927 -0.4060
 3014SOL    HW2 9942   2.969   3.680   3.699  0.4912  0.3854  0.3781
 3015SOL     OW 9943   3.917   4.725   6.836 -0.1782  0.1957  0.0450
 3015SOL    HW1 9944   3.833   4.693   6.792  0.3899 -0.7003 -0.4034
 3015SOL    HW2 9945   3.970   4.647   6.868 -0.0640  0.8003  1.3807
 3016SOL     OW 9946   3.498   2.085   5.996 -0.3969 -0.3975  0.6828
 3016SOL    HW1 9947   3.512   2.184   5.999 -2.0416 -0.0403 -1.0959
 3016SOL    HW2 9948   3.579   2.038   6.031  0.6412  1.5606  1.0187
 3017SOL     OW 9949   1.862   0.846   3.130  0.3761 -0.8448 -0.2187
 3017SOL    HW1 9950   1.837   0.915   3.061  1.7659 -1.4530 -1.3899
 3017SOL    HW2 9951   1.788   0.838   3.197 -1.3852 -0.7090 -2.0275
 3018SOL     OW 9952   4.350   1.136   0.259  0.5339  0.0701  0.4553
 3018SOL    HW1 9953   4.396   1.048   0.253 -0.3118 -0.4016  0.7942
 3018SOL    HW2 9954   4.259   1.124   0.300  0.0308  0.9490 -0.3578
 3019SOL     OW 9955   4.693   4.083   5.140  0.2405  0.3148 -0.1893
 3019SOL    HW1 9956   4.700   4.179   5.111  0.9758  0.1298 -0.6463
 3019SOL    HW2 9957   4.616   4.073   5.204  0.2299  1.2291 -0.0446
 3020SOL     OW 9958   3.419   1.672   3.454 -0.0414  0.2513 -0.2915
 3020SOL    HW1 9959   3.483   1.601   3.422  0.1875  0.1057  0.4500
 3020SOL    HW2 9960   3.429   1.754   3.398  1.9335  0.7866  0.7522
 3021SOL     OW 9961   3.586   4.090   1.873  0.4683 -0.6349 -0.4309
 3021SOL    HW1 9962   3.504   4.118   1.825  1.4492  0.5887 -1.4656
 3021SOL    HW2 9963   3.578   4.114   1.970  0.2062  0.8697 -0.8028
 3022SOL     OW 9964   0.257   0.227   6.785 -0.3201  0.1937  0.5779
 3022SOL    HW1 9965   0.202   0.159   6.834 -0.4152 -0.2941 -0.1716
 3022SOL    HW2 9966   0.196   0.292   6.739 -0.3523 -0.9092 -1.0431
 3023SOL     OW 9967   4.411   4.586   3.655 -0.1990  0.0044  0.0225
 3023SOL    HW1 9968   4.465   4.504   3.673 -1.3805 -0.3109  2.4831
 3023SOL    HW2 9969   4.377   4.584   3.561  1.8429 -1.0497 -0.7630
 3024SOL     OW 9970   3.166   4.695   5.219  0.3562 -0.1823  0.4914
 3024SOL    HW1 9971   3.139   4.778   5.170 -3.5371 -1.2184  0.5103
 3024SOL    HW2 9972   3.174   4.716   5.317 -0.0817  0.3059  0.4311
 3025SOL     OW 9973   4.317   3.343   5.608  0.1604  0.1250  0.3494
 3025SOL    HW1 9974   4.332   3.246   5.591 -1.9719  0.1028 -2.0315
 3025SOL    HW2 9975   4.226   3.357   5.646  0.8785  1.1577  1.7960
 3026SOL     OW 9976   4.823   5.993   4.933  0.3967 -0.4178 -0.0929
 3026SOL    HW1 9977   4.891   6.062   4.908  0.7242  0.3130  2.4716
 3026SOL    HW2 9978   4.731   6.032   4.925  0.3053 -0.9927 -2.3377
 3027SOL     OW 9979   4.372   2.215   6.342  0.3523  0.3209  0.0491
 3027SOL    HW1 9980   4.326   2.198   6.255  0.8272  1.0283 -0.3490
 3027SOL    HW2 9981   4.436   2.141   6.361 -0.7580 -0.5604  0.4994
 3028SOL     OW 9982   5.862   0.413   2.806  0.3933 -0.0973 -0.2821
 3028SOL    HW1 9983   5.882   0.442   2.899 -2.2593  1.2334 -0.0430
 3028SOL    HW2 9984   5.806   0.330   2.808  0.2805 -0.0332 -0.6878
 3029SOL     OW 9985   1.474   2.619   4.114  0.2802  0.4579  0.1013
 3029SOL    HW1 9986   1.430   2.569   4.188 -0.5910  3.4274  1.7619
 3029SOL    HW2 9987   1.574   2.608   4.121  0.1920  0.3371  1.4563
 3030SOL     OW 9988   4.517   0.569   3.873 -0.2488  0.0734  0.5777
 3030SOL    HW1 9989   4.489   0.615   3.789 -0.1552 -0.5029  0.2186
 3030SOL    HW2 9990   4.613   0.591   3.893 -0.6323  1.2142  1.2344
 3031SOL     OW 9991   0.467   6.807   6.535 -0.3728  0.1918 -0.2959
 3031SOL    HW1 9992   0.505   6.827   6.625 -0.7729  0.3721 -0.1655
 3031SOL    HW2 9993   0.468   6.708   6.519  1.4345  0.2704 -0.8617
 3032SOL     OW 9994   1.276   2.229   5.011  0.0006 -0.1186  0.7069
 3032SOL    HW1 9995   1.190   2.206   5.056  0.3286 -2.4045  0.2900
 3032SOL    HW2 9996   1.260   2.238   4.912  0.3600 -1.5094  0.4994
 3033SOL     OW 9997   1.796   2.551   6.781 -0.4208  0.1705 -0.1694
 3033SOL    HW1 9998   1.710   2.501   6.768  0.4699 -1.2072 -1.1275
 3033SOL    HW2 9999   1.865   2.515   6.718  1.3424  0.1274  1.6805
 3034SOL     OW10000   2.407   5.193   6.197 -0.3362 -0.0024 -0.1241
 3034SOL    HW110001   2.308   5.174   6.194 -0.5367  0.6285  1.3848
 3034SOL    HW210002   2.456   5.107   6.213 -0.9464  0.0407  2.6103
 3035SOL     OW10003   6.567   5.995   1.217 -0.0826  0.0395 -0.0876
 3035SOL    HW110004   6.640   6.021   1.280 -0.0312  0.0948 -0.1684
 3035SOL    HW210005   6.512   5.922   1.257 -0.3821  0.4420  0.2509
 3036SOL     OW10006   4.547   6.205   0.952  0.2907  0.1934 -0.7809
 3036SOL    HW110007   4.450   6.216   0.976  0.1131 -0.3875 -1.2177
 3036SOL    HW210008   4.584   6.294   0.924 -0.5854  0.1239 -2.2951
 3037SOL     OW10009   1.353   6.056   0.616 -0.0252  0.6452 -0.3012
 3037SOL    HW110010   1.417   5.982   0.636 -0.0515  0.7496  0.1703
 3037SOL    HW210011   1.324   6.049   0.520  0.7726  0.6604 -0.5537
 3038SOL     OW10012   6.852   6.216   2.352  0.6098 -0.1908  0.6458
 3038SOL    HW110013   6.883   6.127   2.317  1.5127  0.8451 -1.3534
 3038SOL    HW210014   6.752   6.216   2.360  0.4732 -0.9272 -0.7397
 3039SOL     OW10015   1.139   5.840   4.129 -0.4379 -0.0635 -0.3868
 3039SOL    HW110016   1.085   5.799   4.202  0.9580 -0.7373  0.2847
 3039SOL    HW210017   1.136   5.781   4.048  0.5013 -0.8550  0.1461
 3040SOL     OW10018   1.890   6.816   1.404 -0.5425  0.3324  0.3521
 3040SOL    HW110019   1.899   6.910   1.438  4.2850 -0.4762  1.9394
 3040SOL    HW210020   1.939   6.807   1.317 -0.0547 -0.9382  0.7405
 3041SOL     OW10021   3.602   2.935   4.768 -0.0555 -0.1141 -0.5361
 3041SOL    HW110022   3.678   2.973   4.715  1.3274 -2.1695 -0.1474
 3041SOL    HW210023   3.518   2.940   4.714  1.2250 -1.8459 -2.9165
 3042SOL     OW10024   0.192   2.382   2.777 -0.3143 -0.1159 -0.2167
 3042SOL    HW110025   0.232   2.430   2.855  0.1946  0.1728 -0.6504
 3042SOL    HW210026   0.245   2.403   2.695 -1.2446  0.1268 -0.7683
 3043SOL     OW10027   3.248   1.480   0.941  0.1003 -0.3885  0.2065
 3043SOL    HW110028   3.173   1.513   0.884  0.5062  1.0441  0.4563
 3043SOL    HW210029   3.245   1.527   1.029  0.6566 -1.1174  0.6200
 3044SOL     OW10030   3.271   2.922   3.299 -0.1611 -0.0688 -0.5457
 3044SOL    HW110031   3.293   2.909   3.395 -0.7796 -0.4065 -0.4441
 3044SOL    HW210032   3.347   2.891   3.242 -0.6266 -1.8532 -0.2343
 3045SOL     OW10033   3.020   6.409   1.151 -0.3171  0.1432  0.2487
 3045SOL    HW110034   3.047   6.349   1.075  2.3675  2.0474 -0.4220
 3045SOL    HW210035   2.925   6.437   1.138 -1.0102 -2.2890 -0.4901
 3046SOL     OW10036   6.138   5.451   2.885 -0.2570 -0.0069  0.5276
 3046SOL    HW110037   6.096   5.372   2.930 -0.5115 -0.3992 -0.3731
 3046SOL    HW210038   6.195   5.501   2.951 -0.8088 -0.4227  1.3357
 3047SOL     OW10039   1.997   5.492   6.590 -0.6899 -0.2113 -0.5587
 3047SOL    HW110040   2.041   5.526   6.672 -2.0075  1.6659 -0.5668
 3047SOL    HW210041   2.054   5.421   6.548 -0.1281 -1.4502  2.0983
 3048SOL     OW10042   3.262   3.630   4.602 -0.7274 -0.5944  0.1475
 3048SOL    HW110043   3.193   3.616   4.531 -0.1112 -1.0615 -0.3722
 3048SOL    HW210044   3.332   3.559   4.596  1.9327  1.9432 -1.8790
 3049SOL     OW10045   1.361   3.772   4.504  0.6922 -0.1657 -0.1839
 3049SOL    HW110046   1.352   3.802   4.599  1.6366  0.2059 -0.2040
 3049SOL    HW210047   1.401   3.681   4.501 -1.2494 -1.0530 -0.1612
 3050SOL     OW10048   5.936   6.399   1.013 -0.1134 -0.0848  0.2722
 3050SOL    HW110049   5.871   6.431   1.082  1.8042 -1.1411  2.7413
 3050SOL    HW210050   5.907   6.309   0.980 -0.5139 -0.0297  0.4625
 3051SOL     OW10051   3.738   2.531   1.707  0.2422 -0.0920  0.7984
 3051SOL    HW110052   3.756   2.460   1.775  0.6292 -0.8511 -0.0695
 3051SOL    HW210053   3.654   2.510   1.659  1.2435 -0.9485 -0.6574
 3052SOL     OW10054   1.340   4.244   3.665  0.3481 -0.3255 -0.2382
 3052SOL    HW110055   1.356   4.194   3.580  2.8485  0.4694 -0.3278
 3052SOL    HW210056   1.275   4.193   3.722  0.9128 -2.4168 -1.3460
 3053SOL     OW10057   0.910   4.666   4.013 -0.5210 -0.1550 -0.1100
 3053SOL    HW110058   0.962   4.615   4.082 -1.5049  1.5382  1.9963
 3053SOL    HW210059   0.971   4.731   3.967 -0.3211  0.4241  0.9360
 3054SOL     OW10060   1.186   6.244   1.807 -0.1667  0.4308 -0.2326
 3054SOL    HW110061   1.119   6.210   1.740  0.0648  2.9139 -1.8336
 3054SOL    HW210062   1.270   6.191   1.800 -0.0129  0.8825 -2.2220
 3055SOL     OW10063   2.734   4.370   1.222 -0.0220  0.4961  0.6785
 3055SOL    HW110064   2.749   4.378   1.321 -0.1753 -2.3395  1.0116
 3055SOL    HW210065   2.652   4.315   1.205 -0.4160  1.5591 -1.0509
 3056SOL     OW10066   0.089   4.818   2.073 -0.0431 -0.2091 -0.6695
 3056SOL    HW110067   0.102   4.912   2.042  0.1673 -0.2278 -0.6407
 3056SOL    HW210068   0.031   4.768   2.008 -3.9565  1.1501  1.4146
 3057SOL     OW10069   3.230   1.628   1.165 -0.0950 -0.5120  1.0667
 3057SOL    HW110070   3.160   1.615   1.235 -4.0100 -0.7124 -2.4767
 3057SOL    HW210071   3.229   1.724   1.135 -0.4132 -0.9781 -0.4651
 3058SOL     OW10072   2.377   2.616   2.322  0.0836  0.5044 -0.1532
 3058SOL    HW110073   2.338   2.704   2.295 -2.2463 -0.6576 -0.9023
 3058SOL    HW210074   2.440   2.584   2.251 -1.1250  0.3758 -1.1981
 3059SOL     OW10075   4.244   0.933   6.954 -0.0392 -0.4053  0.0957
 3059SOL    HW110076   4.214   0.839   6.969 -1.2331  0.0384  0.5559
 3059SOL    HW210077   4.279   0.942   6.860  1.0663 -1.5354  0.3640
 3060SOL     OW10078   5.153   3.605   0.997 -0.2134  0.7300 -0.6631
 3060SOL    HW110079   5.099   3.600   1.081  2.5795  0.5434  1.2915
 3060SOL    HW210080   5.133   3.691   0.949 -1.8682  0.8476  0.1909
 3061SOL     OW10081   0.935   3.276   3.652  0.0221 -0.2658 -0.4688
 3061SOL    HW110082   0.989   3.297   3.570 -0.4271  1.3812 -0.3760
 3061SOL    HW210083   0.996   3.275   3.732  0.3056 -0.9216 -0.6866
 3062SOL     OW10084   6.819   0.895   0.671  0.3186  0.0932 -0.0316
 3062SOL    HW110085   6.739   0.935   0.625 -1.0033 -2.5717 -0.2400
 3062SOL    HW210086   6.877   0.850   0.603  0.5023 -0.3853  0.4373
 3063SOL     OW10087   1.282   4.017   5.167 -0.2290 -0.0246  0.0784
 3063SOL    HW110088   1.194   3.975   5.144 -0.2424  0.1627 -0.2054
 3063SOL    HW210089   1.353   3.979   5.108 -0.3356  0.7734 -0.5787
 3064SOL     OW10090   0.136   6.661   4.895 -0.7350  0.2225 -0.2930
 3064SOL    HW110091   0.199   6.659   4.972  0.1765 -1.4520 -1.0218
 3064SOL    HW210092   0.107   6.567   4.874 -2.2430  0.8067 -0.9714
 3065SOL     OW10093   3.315   2.787   0.702  0.2840 -0.1971  0.5539
 3065SOL    HW110094   3.286   2.867   0.755  0.8671 -0.1866  0.8652
 3065SOL    HW210095   3.239   2.723   0.693 -0.7568  1.1881 -1.2284
 3066SOL     OW10096   4.461   6.011   5.733 -0.0282  0.0801  0.2790
 3066SOL    HW110097   4.385   5.998   5.669  0.3610  0.0334 -0.1817
 3066SOL    HW210098   4.446   6.093   5.787 -1.5545 -1.1418  1.8334
 3067SOL     OW10099   2.110   0.801   5.689 -0.3057 -0.4885 -0.6281
 3067SOL    HW110100   2.031   0.784   5.630  1.3074  0.2557 -3.1491
 3067SOL    HW210101   2.078   0.823   5.781 -2.9941 -0.8196 -1.3877
 3068SOL     OW10102   7.012   5.269   4.076 -0.0136  0.7929 -0.2874
 3068SOL    HW110103   6.940   5.321   4.123 -1.5331  0.8544 -2.5382
 3068SOL    HW210104   6.974   5.185   4.039  1.3554  0.2825 -0.5863
 3069SOL     OW10105   1.249   1.752   2.773 -0.3315  0.2419  0.4564
 3069SOL    HW110106   1.234   1.745   2.871  1.2866  1.7964  0.8813
 3069SOL    HW210107   1.295   1.839   2.753 -1.8446  0.6110 -1.8488
 3070SOL     OW10108   6.892   4.752   0.634 -0.1241  0.2383 -0.7470
 3070SOL    HW110109   6.914   4.656   0.649  1.0048  0.5355 -0.3946
 3070SOL    HW210110   6.817   4.779   0.694  0.7375  0.0303  0.4381
 3071SOL     OW10111   2.054   4.593   6.856  0.3355 -0.3626  0.3503
 3071SOL    HW110112   1.998   4.522   6.897  0.5437 -0.1494  1.0198
 3071SOL    HW210113   2.025   4.609   6.762 -0.1486 -0.8600  0.4136
 3072SOL     OW10114   0.106   6.552   2.157  0.3150 -0.6324 -0.4069
 3072SOL    HW110115   0.041   6.602   2.215 -0.3089 -2.6106  0.7019
 3072SOL    HW210116   0.181   6.518   2.213  1.6150  0.4265 -1.4444
 3073SOL     OW10117   5.390   2.610   5.005 -0.0244 -0.2909 -0.1549
 3073SOL    HW110118   5.472   2.569   4.965  0.9897  2.2630 -0.9174
 3073SOL    HW210119   5.392   2.598   5.105  0.9264 -0.8643 -0.2305
 3074SOL     OW10120   6.880   4.556   5.717  0.2963 -0.7014  0.3026
 3074SOL    HW110121   6.929   4.471   5.697  2.0824  0.4547 -0.4899
 3074SOL    HW210122   6.878   4.571   5.816 -2.0988 -2.7721  0.6653
 3075SOL     OW10123   1.025   6.970   4.831 -0.7752 -0.2279 -0.2182
 3075SOL    HW110124   1.050   6.990   4.926 -0.1156  0.4501 -0.5267
 3075SOL    HW210125   0.978   6.881   4.827 -1.0347 -0.1471  0.7686
 3076SOL     OW10126   5.299   5.466   4.194  0.7296  0.0458 -0.1509
 3076SOL    HW110127   5.253   5.555   4.188  3.1640  1.4061 -0.0975
 3076SOL    HW210128   5.301   5.424   4.103 -1.2948 -0.4912 -0.0029
 3077SOL     OW10129   3.284   3.792   1.131 -0.1397  0.1209 -0.3343
 3077SOL    HW110130   3.298   3.718   1.196 -0.2344  1.0141  0.7338
 3077SOL    HW210131   3.252   3.874   1.179 -1.7364  0.3569 -1.7068
 3078SOL     OW10132   1.761   5.366   6.636 -0.5567  0.0204 -0.2998
 3078SOL    HW110133   1.715   5.377   6.724 -1.7821 -0.9452 -0.7856
 3078SOL    HW210134   1.841   5.426   6.632 -0.4120 -0.0118  1.5042
 3079SOL     OW10135   2.785   1.344   1.492  0.0541  0.3141  0.1612
 3079SOL    HW110136   2.832   1.340   1.580 -0.0352  0.1608  0.2023
 3079SOL    HW210137   2.711   1.277   1.491 -0.0826  0.4671  0.0503
 3080SOL     OW10138   6.466   3.393   4.694 -0.4147 -0.0133  0.5896
 3080SOL    HW110139   6.394   3.427   4.755  0.8242  2.4708  0.7938
 3080SOL    HW210140   6.427   3.376   4.603 -1.3216  1.0094  0.7738
 3081SOL     OW10141   6.610   1.773   0.959 -0.0659 -0.1185  0.1578
 3081SOL    HW110142   6.654   1.861   0.976 -1.4701  0.7864 -0.6917
 3081SOL    HW210143   6.570   1.773   0.867  0.0833 -1.7325  0.0611
 3082SOL     OW10144   2.780   0.065   4.738  0.3167 -0.1978  0.5697
 3082SOL    HW110145   2.766   0.162   4.755  1.4157  0.0922 -0.0994
 3082SOL    HW210146   2.817   0.021   4.819 -2.7550 -0.6714  1.8532
 3083SOL     OW10147   6.819   6.186   6.649 -0.1811  0.8494  0.0133
 3083SOL    HW110148   6.903   6.225   6.611  0.1455 -1.0658 -1.3782
 3083SOL    HW210149   6.843   6.113   6.714 -0.6359 -1.3299 -2.1134
 3084SOL     OW10150   4.961   2.561   0.379 -0.5366 -0.6216  0.8067
 3084SOL    HW110151   4.899   2.563   0.458 -0.2152  0.5977  1.0390
 3084SOL    HW210152   4.924   2.498   0.310 -1.6756 -0.4382  1.2265
 3085SOL     OW10153   5.554   2.410   2.000 -0.6021  0.1488  0.1551
 3085SOL    HW110154   5.509   2.392   2.088  0.5976 -0.8491  0.5932
 3085SOL    HW210155   5.653   2.411   2.012 -0.4077 -0.0865 -1.2083
 3086SOL     OW10156   0.191   3.400   0.831  0.0270  0.3532 -0.1314
 3086SOL    HW110157   0.132   3.462   0.779  0.0832  0.6465  0.1500
 3086SOL    HW210158   0.222   3.325   0.771 -1.1015 -0.1354 -0.1336
 3087SOL     OW10159   5.954   6.011   2.324  0.1227  0.3542 -0.0077
 3087SOL    HW110160   5.897   5.979   2.400  0.5439 -0.0358  0.1460
 3087SOL    HW210161   6.006   6.092   2.352  0.4025  0.1121  0.1721
 3088SOL     OW10162   3.159   6.271   5.680  0.4389  0.1384  0.5970
 3088SOL    HW110163   3.257   6.271   5.698  0.5513  0.1387 -0.0023
 3088SOL    HW210164   3.126   6.176   5.679  1.1192 -0.1845 -2.7340
 3089SOL     OW10165   1.691   5.200   3.899 -0.1189  0.2584 -0.1016
 3089SOL    HW110166   1.671   5.158   3.987  0.9981 -0.0581  0.0102
 3089SOL    HW210167   1.684   5.131   3.827 -1.1016  0.5314 -0.2910
 3090SOL     OW10168   4.150   4.621   1.881  0.2788 -0.0210  0.1111
 3090SOL    HW110169   4.248   4.635   1.867  0.4770 -0.4009  1.0475
 3090SOL    HW210170   4.136   4.566   1.963 -0.6845 -0.7184 -0.5013
 3091SOL     OW10171   2.713   5.224   6.837  0.1137 -0.0938  0.2089
 3091SOL    HW110172   2.634   5.240   6.777 -0.5104  1.8591  1.4427
 3091SOL    HW210173   2.756   5.137   6.812 -0.4301  0.3436 -2.6533
 3092SOL     OW10174   2.890   3.331   0.193 -0.0369  0.2086 -0.0967
 3092SOL    HW110175   2.965   3.321   0.128 -1.1053 -1.5856 -1.1613
 3092SOL    HW210176   2.857   3.425   0.192  0.5560  0.4322 -1.5162
 3093SOL     OW10177   5.510   2.601   3.960 -0.2493 -0.0105  0.0835
 3093SOL    HW110178   5.466   2.588   3.871 -0.7209  0.6903  0.2059
 3093SOL    HW210179   5.608   2.616   3.947 -0.6361  2.5879 -0.5777
 3094SOL     OW10180   4.526   5.424   1.014  0.1645  0.6657 -0.3721
 3094SOL    HW110181   4.498   5.381   0.929  1.5404 -0.0991 -0.4731
 3094SOL    HW210182   4.579   5.359   1.069 -0.8505  1.0725  1.1758
 3095SOL     OW10183   1.717   3.745   1.596 -0.5404  0.1895 -0.6818
 3095SOL    HW110184   1.641   3.767   1.535 -1.2036 -0.1244  0.0089
 3095SOL    HW210185   1.793   3.709   1.543 -0.7095  0.9212 -1.4320
 3096SOL     OW10186   4.570   0.896   1.431 -0.6986  0.1568 -0.1206
 3096SOL    HW110187   4.602   0.801   1.426 -2.2981 -0.4378  0.2152
 3096SOL    HW210188   4.611   0.949   1.358  0.6056 -0.6671 -0.0248
 3097SOL     OW10189   6.980   4.216   3.782 -0.1078  0.1838 -0.4407
 3097SOL    HW110190   6.933   4.172   3.705 -0.6704 -0.2474  0.1317
 3097SOL    HW210191   6.919   4.284   3.824 -0.0417 -0.0248  0.0004
 3098SOL     OW10192   6.686   4.677   3.096  0.3006  0.1054  0.3134
 3098SOL    HW110193   6.762   4.625   3.135 -0.0134  1.4850  3.0839
 3098SOL    HW210194   6.720   4.765   3.062  0.1310  0.2393  0.4831
 3099SOL     OW10195   0.920   5.370   5.437 -0.7470 -0.3607 -0.1403
 3099SOL    HW110196   0.844   5.430   5.411 -0.3447  0.0756 -0.3260
 3099SOL    HW210197   0.885   5.279   5.458 -1.0866 -0.7644 -2.3000
 3100SOL     OW10198   4.691   6.856   3.414 -0.6107 -0.7924  0.0650
 3100SOL    HW110199   4.594   6.877   3.407 -0.1955  3.1384  2.7201
 3100SOL    HW210200   4.743   6.916   3.353  0.2679 -1.3831  0.2077
 3101SOL     OW10201   5.288   3.237   5.110  0.7143  0.2109 -0.1664
 3101SOL    HW110202   5.385   3.260   5.114  0.2760  2.1239  0.4553
 3101SOL    HW210203   5.235   3.318   5.084 -0.6572 -1.0372 -1.5279
 3102SOL     OW10204   3.998   5.362   2.339 -0.0177 -0.0069 -0.0297
 3102SOL    HW110205   4.059   5.367   2.260 -0.2793 -1.6374 -0.3796
 3102SOL    HW210206   3.958   5.270   2.344 -1.0829  0.4926  1.2024
 3103SOL     OW10207   1.506   4.548   1.767 -0.0158 -0.7273  0.1602
 3103SOL    HW110208   1.502   4.525   1.669  2.5953 -1.9960  0.2711
 3103SOL    HW210209   1.432   4.611   1.789  0.6704  1.5272 -3.1787
 3104SOL     OW10210   6.342   6.819   4.978  0.1705  0.2661 -0.0903
 3104SOL    HW110211   6.429   6.844   4.935  0.9014 -0.7082  0.7612
 3104SOL    HW210212   6.308   6.734   4.938 -0.3831  0.6244 -0.3951
 3105SOL     OW10213   5.755   3.346   4.715 -0.3652 -0.4728 -0.5100
 3105SOL    HW110214   5.719   3.418   4.774 -0.1370 -0.8932  0.1511
 3105SOL    HW210215   5.775   3.384   4.625 -0.5776  0.2111 -0.2755
 3106SOL     OW10216   5.760   4.605   6.803 -0.4677  0.1182 -0.3363
 3106SOL    HW110217   5.715   4.590   6.891 -0.3077 -2.3984 -0.5925
 3106SOL    HW210218   5.858   4.618   6.818 -0.2843 -1.3134 -0.1609
 3107SOL     OW10219   6.661   1.184   1.798 -0.0586 -0.1286 -0.4870
 3107SOL    HW110220   6.659   1.203   1.897 -0.4498  1.1896 -0.7272
 3107SOL    HW210221   6.586   1.122   1.775 -1.2171  1.1205 -0.2321
 3108SOL     OW10222   3.486   5.498   1.396  0.0357 -0.6633  0.5868
 3108SOL    HW110223   3.551   5.534   1.463  0.0843 -0.4517  0.4253
 3108SOL    HW210224   3.451   5.410   1.428 -0.2253 -0.3853  1.0694
 3109SOL     OW10225   6.916   1.124   6.871  0.2371 -0.2822  0.4732
 3109SOL    HW110226   7.007   1.093   6.846 -0.0540 -0.3323 -0.5894
 3109SOL    HW210227   6.915   1.224   6.881  0.0523 -0.1010 -1.1732
 3110SOL     OW10228   0.912   6.071   6.843  0.5874 -0.3397 -0.2310
 3110SOL    HW110229   0.822   6.043   6.874  0.4050 -0.7806 -1.1382
 3110SOL    HW210230   0.974   5.992   6.844  0.3554 -0.5721 -1.7569
 3111SOL     OW10231   6.842   4.894   2.496 -0.4687 -0.4288 -0.1168
 3111SOL    HW110232   6.751   4.914   2.459  0.1368 -0.5727 -1.8027
 3111SOL    HW210233   6.911   4.940   2.440  0.5436 -1.0559  0.5876
 3112SOL     OW10234   2.450   4.407   2.663 -0.1720 -0.1463 -0.0334
 3112SOL    HW110235   2.477   4.495   2.702 -0.5862  0.1530 -0.4212
 3112SOL    HW210236   2.462   4.335   2.732  0.0273  0.2316  0.3284
 3113SOL     OW10237   6.367   1.285   6.916  0.2692  0.6812  0.4346
 3113SOL    HW110238   6.409   1.199   6.888 -0.6167  0.1046  0.8367
 3113SOL    HW210239   6.324   1.329   6.837 -2.2980 -0.9781  0.7945
 3114SOL     OW10240   0.849   1.712   2.039 -0.4914 -0.2355  0.8369
 3114SOL    HW110241   0.870   1.634   1.980 -2.8064 -1.8620  1.9937
 3114SOL    HW210242   0.912   1.787   2.019 -0.3323 -1.1286 -2.7418
 3115SOL     OW10243   1.902   0.906   4.019 -0.1716  0.0430  0.0770
 3115SOL    HW110244   1.816   0.874   3.979 -0.2813 -0.5844  0.8006
 3115SOL    HW210245   1.944   0.832   4.071 -0.0832  0.8668  1.2133
 3116SOL     OW10246   6.398   1.084   1.878 -0.2657 -0.0616  0.0928
 3116SOL    HW110247   6.460   1.012   1.848 -1.1669 -0.6428 -0.4352
 3116SOL    HW210248   6.319   1.043   1.924 -1.7378  0.3768 -1.8734
 3117SOL     OW10249   6.541   2.066   2.442 -0.4023  0.3907  0.1610
 3117SOL    HW110250   6.620   2.009   2.420  0.4187  1.9801 -1.2265
 3117SOL    HW210251   6.458   2.024   2.405 -0.3528 -1.5218  2.0149
 3118SOL     OW10252   0.315   1.923   3.002 -0.2914  0.3199 -0.3688
 3118SOL    HW110253   0.271   2.012   3.017 -1.2816  0.0471 -1.4256
 3118SOL    HW210254   0.247   1.859   2.965  0.5632 -0.6997 -0.2215
 3119SOL     OW10255   2.169   4.302   0.316  0.0147 -0.8153 -0.2884
 3119SOL    HW110256   2.249   4.250   0.345  0.3523  0.2279  0.7287
 3119SOL    HW210257   2.102   4.305   0.390 -0.2135 -0.2321 -0.5107
 3120SOL     OW10258   2.747   0.994   4.175  0.6604 -0.2447  0.2867
 3120SOL    HW110259   2.827   1.053   4.184 -0.6471  1.7899 -0.7168
 3120SOL    HW210260   2.751   0.923   4.245  2.9237  0.2727  0.7701
 3121SOL     OW10261   0.761   4.117   4.687 -0.5926  0.1257  0.2659
 3121SOL    HW110262   0.729   4.210   4.704 -0.0590  0.4938 -0.6424
 3121SOL    HW210263   0.860   4.117   4.677 -0.6189 -0.4835 -0.0534
 3122SOL     OW10264   1.785   0.627   4.121 -0.5233 -0.0126  0.8139
 3122SOL    HW110265   1.727   0.572   4.180  0.1451 -0.0024  1.4980
 3122SOL    HW210266   1.868   0.653   4.170  0.3754 -0.5971 -0.3538
 3123SOL     OW10267   4.140   0.694   0.624 -0.3516  0.1197 -0.4297
 3123SOL    HW110268   4.179   0.764   0.684 -1.1249  0.1375  0.0609
 3123SOL    HW210269   4.070   0.642   0.674  1.0196 -1.8057 -0.3803
 3124SOL     OW10270   6.817   4.579   3.482  0.6284 -0.3264  0.4105
 3124SOL    HW110271   6.734   4.539   3.444  0.7055  0.7559 -0.9953
 3124SOL    HW210272   6.793   4.655   3.543  0.5585 -0.9135  1.1256
 3125SOL     OW10273   4.169   1.246   4.968  0.0796  0.5563 -0.4047
 3125SOL    HW110274   4.189   1.336   4.928 -1.5791  1.6780  1.1072
 3125SOL    HW210275   4.253   1.206   5.004  0.8459  1.5009 -1.0751
 3126SOL     OW10276   0.722   5.101   0.018  0.3816  0.0769  0.4675
 3126SOL    HW110277   0.813   5.138  -0.000  1.0792 -1.8034 -0.0229
 3126SOL    HW210278   0.655   5.150  -0.038  1.5574 -0.7649 -1.8255
 3127SOL     OW10279   4.530   6.642   2.482 -0.2747  0.3665  0.5533
 3127SOL    HW110280   4.615   6.639   2.534 -0.4675 -1.8281  0.8295
 3127SOL    HW210281   4.459   6.592   2.531 -1.2895  0.8079 -0.4218
 3128SOL     OW10282   4.859   1.374   1.089 -0.1129 -0.1835 -0.2021
 3128SOL    HW110283   4.832   1.456   1.040 -1.5822  0.5747  1.7024
 3128SOL    HW210284   4.838   1.293   1.034  0.2526  0.6555 -1.6177
 3129SOL     OW10285   1.754   2.804   1.057  0.4584 -0.7074 -0.2040
 3129SOL    HW110286   1.786   2.850   1.140  0.0474 -1.9336  0.6559
 3129SOL    HW210287   1.655   2.812   1.050  0.4210 -1.2064 -0.2188
 3130SOL     OW10288   3.863   4.080   4.925 -0.5102  1.0263  0.0813
 3130SOL    HW110289   3.917   4.149   4.877  2.1006  0.0711  1.4616
 3130SOL    HW210290   3.849   4.001   4.866 -0.5130  1.3463 -0.3449
 3131SOL     OW10291   0.732   5.469   2.645 -0.2235  0.3449 -0.0293
 3131SOL    HW110292   0.663   5.523   2.691  0.6390  0.8367  0.7198
 3131SOL    HW210293   0.791   5.529   2.591 -0.8178 -0.1486 -1.2789
 3132SOL     OW10294   2.414   4.653   2.850 -0.1679 -0.4740 -0.1273
 3132SOL    HW110295   2.342   4.701   2.900 -0.7293 -0.4203 -0.9705
 3132SOL    HW210296   2.503   4.683   2.882 -0.4671  2.1168 -1.4756
 3133SOL     OW10297   5.860   3.350   4.243 -0.2317  0.6304 -0.3992
 3133SOL    HW110298   5.827   3.379   4.153  0.1444  1.9113 -0.1564
 3133SOL    HW210299   5.800   3.280   4.281 -0.4431  0.1444 -1.6043
 3134SOL     OW10300   3.993   0.574   4.927 -0.4078 -0.0367  0.1741
 3134SOL    HW110301   4.083   0.596   4.890 -0.3028 -0.7775 -0.0225
 3134SOL    HW210302   3.963   0.648   4.987 -1.1540  1.8655 -2.3577
 3135SOL     OW10303   2.545   4.816   3.373 -0.1250  0.1145 -0.3606
 3135SOL    HW110304   2.578   4.726   3.402 -0.4601  0.2994  0.6499
 3135SOL    HW210305   2.461   4.838   3.423  0.6578  1.5395  0.4005
 3136SOL     OW10306   5.127   0.865   0.689 -0.0327  0.0090  0.5366
 3136SOL    HW110307   5.192   0.915   0.632  1.1640 -0.7959  1.1540
 3136SOL    HW210308   5.082   0.794   0.634 -1.4308  1.4175 -0.2326
 3137SOL     OW10309   5.146   4.115   4.918  0.1719  0.0632 -0.1373
 3137SOL    HW110310   5.212   4.059   4.967  1.3962  1.7412  0.2387
 3137SOL    HW210311   5.176   4.127   4.823 -1.4824 -2.0509 -1.0068
 3138SOL     OW10312   2.000   0.754   4.251 -0.3272  0.8713 -0.2058
 3138SOL    HW110313   1.968   0.771   4.344 -1.0375  1.8754 -0.6167
 3138SOL    HW210314   2.097   0.729   4.253 -0.7677 -0.9615  0.9484
 3139SOL     OW10315   5.914   1.425   5.648 -0.1607 -0.0682 -0.0651
 3139SOL    HW110316   5.890   1.330   5.626 -1.0981  0.0876  0.2693
 3139SOL    HW210317   5.907   1.439   5.747 -0.8293  0.5703 -0.1996
 3140SOL     OW10318   4.060   0.682   4.225 -0.3837  0.0094  0.3557
 3140SOL    HW110319   4.030   0.621   4.298 -0.3201  0.1978  0.5403
 3140SOL    HW210320   4.031   0.775   4.246  0.9874  0.3235  0.9089
 3141SOL     OW10321   5.829   3.774   4.809 -0.3211  0.3097  0.1995
 3141SOL    HW110322   5.841   3.814   4.718 -0.8881  0.3199  0.1245
 3141SOL    HW210323   5.909   3.720   4.833 -1.0912 -1.6045 -1.2798
 3142SOL     OW10324   6.913   2.296   2.641 -0.5209 -0.0477  0.0393
 3142SOL    HW110325   6.957   2.359   2.705 -1.1978 -1.7485  2.3145
 3142SOL    HW210326   6.982   2.238   2.598 -0.2607 -0.9512  1.6108
 3143SOL     OW10327   3.963   5.460   1.145 -0.1106 -0.4251  0.1644
 3143SOL    HW110328   4.003   5.373   1.174  0.4571  0.0929  1.0063
 3143SOL    HW210329   4.036   5.521   1.115 -0.6049 -0.6088 -1.5186
 3144SOL     OW10330   1.640   6.231   6.699  0.1511  0.2672 -0.3297
 3144SOL    HW110331   1.577   6.245   6.775  0.6800 -1.1951  0.4127
 3144SOL    HW210332   1.608   6.282   6.619 -1.5592  0.1445  0.2479
 3145SOL     OW10333   4.884   0.474   6.110  0.1193 -0.3320 -0.2261
 3145SOL    HW110334   4.948   0.403   6.081 -0.6228 -1.3797  0.6235
 3145SOL    HW210335   4.910   0.508   6.200  0.5082  0.5434 -0.6542
 3146SOL     OW10336   6.685   1.742   1.754  0.4856  0.0888 -0.1616
 3146SOL    HW110337   6.666   1.760   1.658  1.3924  2.0783 -0.0215
 3146SOL    HW210338   6.783   1.728   1.767  0.5172  0.9337  0.6050
 3147SOL     OW10339   1.533   3.238   1.653  0.4189 -0.1372 -0.2174
 3147SOL    HW110340   1.598   3.169   1.622  0.5657 -0.4269  0.7147
 3147SOL    HW210341   1.557   3.326   1.613  0.9692 -0.3785 -0.4314
 3148SOL     OW10342   2.483   0.598   3.390 -0.2371 -0.5759 -0.6357
 3148SOL    HW110343   2.560   0.661   3.400 -1.1707  0.7170 -1.3776
 3148SOL    HW210344   2.452   0.598   3.295 -1.6652 -0.4688 -0.1869
 3149SOL     OW10345   4.529   2.955   1.641  0.4015  0.0242 -0.4448
 3149SOL    HW110346   4.494   3.028   1.581  1.0830 -0.2490 -1.1906
 3149SOL    HW210347   4.571   2.996   1.722 -0.0472  0.4169 -0.4036
 3150SOL     OW10348   1.233   4.992   6.372  0.2294  0.2044  0.1664
 3150SOL    HW110349   1.245   5.082   6.329  0.1670  0.4352  0.6182
 3150SOL    HW210350   1.261   4.920   6.309  0.4509  0.5522 -0.1347
 3151SOL     OW10351   3.858   4.019   6.287  0.0547  0.7688  0.2469
 3151SOL    HW110352   3.947   4.020   6.332 -0.5227  0.7353  1.4279
 3151SOL    HW210353   3.815   4.109   6.297 -0.4558  0.4937  0.5598
 3152SOL     OW10354   0.861   2.089   1.365  0.0840 -0.4155 -0.3683
 3152SOL    HW110355   0.890   2.011   1.420  0.2048  0.5311  0.9760
 3152SOL    HW210356   0.761   2.094   1.364  0.0846 -0.3426 -0.0926
 3153SOL     OW10357   0.725   0.754   2.582  0.3039  0.3733 -0.4044
 3153SOL    HW110358   0.633   0.780   2.611  0.2976  1.4774 -1.3403
 3153SOL    HW210359   0.729   0.752   2.482  2.0973  3.6361 -0.5166
 3154SOL     OW10360   1.902   1.668   3.218 -0.6857  0.5564 -0.0374
 3154SOL    HW110361   1.825   1.726   3.193 -2.1756 -1.6293 -0.7483
 3154SOL    HW210362   1.970   1.670   3.145 -0.8433  1.1742 -0.1741
 3155SOL     OW10363   2.660   1.208   3.537  0.6349 -0.1395 -0.2051
 3155SOL    HW110364   2.719   1.277   3.495 -0.8523  0.8583 -0.6904
 3155SOL    HW210365   2.618   1.152   3.466 -2.1631  1.7742 -0.2146
 3156SOL     OW10366   4.737   0.953   5.556 -0.2788  0.2013  0.2242
 3156SOL    HW110367   4.681   0.974   5.476  0.3926  1.7731  0.1356
 3156SOL    HW210368   4.745   0.854   5.566 -2.1082 -0.0545 -0.4224
 3157SOL     OW10369   2.308   2.067   4.412  0.1856 -0.2819 -0.4014
 3157SOL    HW110370   2.227   2.010   4.423 -0.8101  0.8392 -1.6269
 3157SOL    HW210371   2.327   2.116   4.497 -0.4529 -0.4950 -0.1312
 3158SOL     OW10372   1.044   6.624   0.913  0.8010  0.3141  0.1822
 3158SOL    HW110373   0.958   6.580   0.936  0.5099  0.9399  0.3196
 3158SOL    HW210374   1.114   6.597   0.980  1.1329 -1.3997 -0.8005
 3159SOL     OW10375   4.067   0.357   1.224  0.0635  0.1474  0.4206
 3159SOL    HW110376   4.063   0.454   1.197  1.4525  0.3021  0.6684
 3159SOL    HW210377   4.160   0.335   1.254  0.3355 -1.7902 -1.5679
 3160SOL     OW10378   1.025   3.161   6.342  0.4695  0.2103  0.3687
 3160SOL    HW110379   1.112   3.114   6.326 -0.1257 -0.7983  0.0224
 3160SOL    HW210380   0.988   3.193   6.255  1.5860  2.7261  0.7167
 3161SOL     OW10381   0.773   2.959   5.672 -0.7458 -0.3005  0.4886
 3161SOL    HW110382   0.760   2.912   5.759  3.3626 -0.0959  1.4420
 3161SOL    HW210383   0.778   2.893   5.598  0.0897 -0.9666  1.1134
 3162SOL     OW10384   5.721   0.531   4.227  0.2308  0.1802  0.8361
 3162SOL    HW110385   5.686   0.624   4.216  1.3426  0.7666  2.0307
 3162SOL    HW210386   5.721   0.485   4.138 -0.2398  1.3451  0.2081
 3163SOL     OW10387   3.729   3.317   4.600  1.3453  0.6696 -0.0557
 3163SOL    HW110388   3.674   3.241   4.565  0.8037  1.0637 -0.0722
 3163SOL    HW210389   3.711   3.329   4.697  3.7471 -1.1993  0.7095
 3164SOL     OW10390   6.186   6.861   5.910  0.1919 -0.1264 -0.3880
 3164SOL    HW110391   6.226   6.793   5.972  0.7017  1.1401  0.7281
 3164SOL    HW210392   6.251   6.880   5.836 -0.0172 -0.9475 -0.7950
 3165SOL     OW10393   1.664   4.675   2.663  0.3300  0.4047  1.1717
 3165SOL    HW110394   1.713   4.749   2.707  1.0658 -0.2994  1.5591
 3165SOL    HW210395   1.724   4.629   2.598  0.0375 -0.1720  1.3028
 3166SOL     OW10396   5.448   4.705   0.120 -0.2278 -0.2537  0.3798
 3166SOL    HW110397   5.453   4.620   0.173  0.8286  0.4237  1.4016
 3166SOL    HW210398   5.538   4.749   0.118 -0.6178  0.5524 -0.6496
 3167SOL     OW10399   1.108   5.919   2.882 -0.2754  0.6335 -0.2304
 3167SOL    HW110400   1.064   5.831   2.865 -2.4042  1.8469 -1.4459
 3167SOL    HW210401   1.161   5.946   2.802 -0.0354  0.6965 -0.0523
 3168SOL     OW10402   1.891   6.154   6.818 -0.1921 -0.2532  0.1033
 3168SOL    HW110403   1.846   6.158   6.729  1.0094 -1.6724 -0.6035
 3168SOL    HW210404   1.832   6.197   6.887 -1.9316 -0.7046 -1.0342
 3169SOL     OW10405   4.781   3.122   0.272  0.4125  0.1236  0.3419
 3169SOL    HW110406   4.695   3.132   0.221 -0.3839 -1.5281  1.2860
 3169SOL    HW210407   4.767   3.151   0.366  0.9130 -0.1296  0.4965
 3170SOL     OW10408   2.538   1.810   3.041 -0.3499 -0.5218 -0.2869
 3170SOL    HW110409   2.611   1.745   3.059  0.0049  0.3408  1.6423
 3170SOL    HW210410   2.530   1.825   2.943  1.7262 -1.0047 -0.5705
 3171SOL     OW10411   3.663   0.841   6.236 -0.1063 -0.5905  0.0376
 3171SOL    HW110412   3.761   0.823   6.229 -0.1917 -1.0389 -0.0657
 3171SOL    HW210413   3.647   0.915   6.301  0.3826  0.3507 -0.8871
 3172SOL     OW10414   5.002   2.421   4.117  0.0622  0.1260 -0.1937
 3172SOL    HW110415   5.049   2.507   4.137 -0.8047  0.8418 -1.1327
 3172SOL    HW210416   5.031   2.352   4.183  0.5106  1.2254  0.8164
 3173SOL     OW10417   1.195   1.413   2.830 -0.3574  0.2810 -0.0547
 3173SOL    HW110418   1.179   1.434   2.733  1.5799  0.9548 -0.2776
 3173SOL    HW210419   1.111   1.378   2.871 -1.8879  2.1899 -1.3887
 3174SOL     OW10420   5.471   3.155   6.478  0.4381  0.0448  0.4489
 3174SOL    HW110421   5.505   3.074   6.525  1.0611 -0.0742 -0.1823
 3174SOL    HW210422   5.534   3.232   6.492  0.3953  0.1311  0.1848
 3175SOL     OW10423   0.003   1.730   4.005 -0.5315 -0.3358  0.1665
 3175SOL    HW110424   0.026   1.811   4.059  0.3622 -0.4453 -0.0386
 3175SOL    HW210425   0.087   1.680   3.982 -0.6978  0.5273 -2.6330
 3176SOL     OW10426   4.650   6.026   1.395 -0.3112  0.1805 -0.0418
 3176SOL    HW110427   4.622   6.044   1.489 -0.6793 -0.9164  0.0805
 3176SOL    HW210428   4.569   6.019   1.337 -0.0781  1.0624 -0.4914
 3177SOL     OW10429   0.628   1.098   0.251  0.0930 -0.0964  0.1613
 3177SOL    HW110430   0.565   1.048   0.310  0.3133  0.8876  1.2766
 3177SOL    HW210431   0.576   1.160   0.192 -0.2620 -2.2132 -1.9103
 3178SOL     OW10432   4.800   0.380   5.707  0.4696 -0.0364 -0.0184
 3178SOL    HW110433   4.783   0.346   5.800  1.1742 -0.8369 -0.1720
 3178SOL    HW210434   4.797   0.480   5.707  1.2021  0.0005  1.0092
 3179SOL     OW10435   5.834   3.271   0.864 -0.3842  0.1123  0.4100
 3179SOL    HW110436   5.925   3.288   0.902  0.4585  3.6204 -2.5759
 3179SOL    HW210437   5.841   3.245   0.768 -2.5561 -1.8899  0.6973
 3180SOL     OW10438   4.999   6.214   4.889 -0.2946 -0.3300  0.1324
 3180SOL    HW110439   5.066   6.244   4.957 -0.2091  0.1131 -0.1461
 3180SOL    HW210440   5.046   6.167   4.815 -0.4250 -1.1649  0.5566
 3181SOL     OW10441   3.695   1.897   5.985 -0.5236  0.2868 -0.1194
 3181SOL    HW110442   3.642   1.812   5.981  0.0148 -0.0325 -0.6054
 3181SOL    HW210443   3.754   1.903   5.904  0.8062  0.2132  0.8056
 3182SOL     OW10444   3.528   4.420   0.102 -0.5941  0.0763 -0.5787
 3182SOL    HW110445   3.584   4.447   0.023 -1.7756 -0.8905 -1.7866
 3182SOL    HW210446   3.573   4.345   0.150  0.3384  0.9427 -0.0483
 3183SOL     OW10447   5.636   6.568   3.305  0.1228  0.2153 -0.8402
 3183SOL    HW110448   5.633   6.591   3.207  0.4375  0.7434 -0.7329
 3183SOL    HW210449   5.629   6.652   3.359 -1.6807 -0.1958 -0.3727
 3184SOL     OW10450   2.913   6.686   4.343  0.4274  0.6241 -0.0845
 3184SOL    HW110451   2.856   6.746   4.400 -0.1983 -0.9740  1.0441
 3184SOL    HW210452   2.867   6.668   4.256 -0.7125 -0.4438  0.7129
 3185SOL     OW10453   5.769   4.118   5.787 -0.3529  0.5334 -0.0551
 3185SOL    HW110454   5.851   4.174   5.803  0.7970 -0.8799 -0.7825
 3185SOL    HW210455   5.687   4.173   5.807  0.7404  2.0816  0.4011
 3186SOL     OW10456   0.237   6.378   3.030  0.2061  0.3263  0.7100
 3186SOL    HW110457   0.335   6.395   3.035  0.2845 -0.3084  1.4912
 3186SOL    HW210458   0.213   6.345   2.938  0.9286 -0.7074  0.8748
 3187SOL     OW10459   2.859   6.555   0.370  0.1585 -0.3947  0.0898
 3187SOL    HW110460   2.936   6.585   0.426 -0.6437  0.6302  0.6819
 3187SOL    HW210461   2.794   6.630   0.360  0.4097 -0.4304 -2.4985
 3188SOL     OW10462   0.660   1.601   2.844 -0.3886 -0.1428  0.2087
 3188SOL    HW110463   0.748   1.620   2.801 -0.3732  2.4482  1.1925
 3188SOL    HW210464   0.605   1.684   2.845 -1.7055 -0.9524  2.1459
 3189SOL     OW10465   0.156   1.267   5.882  0.3672 -0.0349  0.2037
 3189SOL    HW110466   0.204   1.280   5.796  0.9845 -1.4146  0.3194
 3189SOL    HW210467   0.149   1.355   5.930  0.4828  0.6481 -0.9860
 3190SOL     OW10468   1.140   6.607   4.786  0.3630  0.2671  0.3525
 3190SOL    HW110469   1.092   6.519   4.793  4.5085 -2.3160  0.0935
 3190SOL    HW210470   1.144   6.650   4.876 -1.5434  0.1530  0.5361
 3191SOL     OW10471   3.086   6.415   4.962  0.8101 -0.3875  0.3570
 3191SOL    HW110472   3.124   6.354   5.032  1.6895  0.4978  0.6788
 3191SOL    HW210473   3.149   6.491   4.947  0.2377 -0.1304 -0.8182
 3192SOL     OW10474   4.305   1.874   1.207 -0.3001 -0.1905  0.8322
 3192SOL    HW110475   4.232   1.816   1.171  2.0855 -3.0359  0.2285
 3192SOL    HW210476   4.387   1.863   1.151  0.8649  2.3299  1.9001
 3193SOL     OW10477   1.052   5.218   0.082  0.4931  0.1413  0.2997
 3193SOL    HW110478   0.997   5.280   0.026 -0.1402 -0.1898  0.5407
 3193SOL    HW210479   1.071   5.135   0.029 -0.7868 -0.5145  0.8329
 3194SOL     OW10480   5.560   1.550   1.758 -0.0382  0.2561  0.3316
 3194SOL    HW110481   5.658   1.569   1.764  0.2323 -0.6684 -0.9031
 3194SOL    HW210482   5.544   1.452   1.763 -0.5511  0.0612 -2.9178
 3195SOL     OW10483   6.800   4.831   0.271 -0.2702 -0.6443 -0.1315
 3195SOL    HW110484   6.825   4.740   0.239  1.8210 -0.4861  0.8978
 3195SOL    HW210485   6.722   4.825   0.333  0.8921 -1.9865  1.2780
 3196SOL     OW10486   6.745   0.603   0.456  0.9231 -0.2628  0.1747
 3196SOL    HW110487   6.759   0.519   0.402 -1.6057 -0.7207  0.1244
 3196SOL    HW210488   6.717   0.677   0.395  1.8379  0.2827  0.3997
 3197SOL     OW10489   0.620   3.021   1.017 -0.2220 -0.2742  0.0986
 3197SOL    HW110490   0.667   2.942   0.978  3.8305  0.7092  2.4024
 3197SOL    HW210491   0.652   3.105   0.973 -1.2273  0.3863  0.5626
 3198SOL     OW10492   0.826   5.713   4.023 -0.7628 -0.1079  0.4986
 3198SOL    HW110493   0.754   5.781   4.019  0.5075  1.2425 -0.2992
 3198SOL    HW210494   0.903   5.742   3.966  0.2901 -1.6566  1.0595
 3199SOL     OW10495   2.232   4.798   4.674  0.0729 -0.3010  0.0139
 3199SOL    HW110496   2.291   4.872   4.706 -0.6538  0.1669  0.2793
 3199SOL    HW210497   2.175   4.830   4.599  1.2184 -1.1807 -1.2918
 3200SOL     OW10498   4.881   3.880   6.613 -0.7614 -1.0222  0.2192
 3200SOL    HW110499   4.916   3.903   6.704 -2.3727 -0.3738  0.7072
 3200SOL    HW210500   4.935   3.805   6.575  1.9143  0.6855  0.3927
 3201SOL     OW10501   6.974   1.776   4.500  0.1444  0.3011  0.3511
 3201SOL    HW110502   6.883   1.738   4.480  0.7736 -0.8776 -0.3935
 3201SOL    HW210503   7.041   1.701   4.503  1.1476  1.1896  0.5649
 3202SOL     OW10504   4.032   4.109   1.346 -0.1291  0.1898 -0.0003
 3202SOL    HW110505   3.953   4.055   1.374 -0.1753 -0.5645 -1.5158
 3202SOL    HW210506   4.021   4.137   1.250  2.5795 -2.1205 -1.1025
 3203SOL     OW10507   0.253   3.444   0.369  0.2507  0.0354 -0.0470
 3203SOL    HW110508   0.250   3.344   0.379 -1.2398  0.0884  0.3471
 3203SOL    HW210509   0.163   3.477   0.340  0.3488  1.3682  1.0332
 3204SOL     OW10510   1.947   4.659   6.592  0.0485  0.9128  0.0287
 3204SOL    HW110511   1.885   4.736   6.606 -0.6717  0.5787 -1.2347
 3204SOL    HW210512   1.904   4.591   6.533  1.5620  0.6040 -0.7616
 3205SOL     OW10513   2.179   6.955   4.893  0.0165 -0.2968  0.7953
 3205SOL    HW110514   2.141   7.005   4.971 -0.0022  0.9677  0.0142
 3205SOL    HW210515   2.271   6.923   4.916 -0.3925 -0.8550  1.6892
 3206SOL     OW10516   1.130   1.375   1.140 -0.4135 -0.1121  0.5969
 3206SOL    HW110517   1.146   1.285   1.098  0.3467  1.3158 -2.4618
 3206SOL    HW210518   1.042   1.374   1.188 -2.2573 -1.5565 -2.4849
 3207SOL     OW10519   5.374   4.168   6.696 -0.1211  0.0145  0.0961
 3207SOL    HW110520   5.362   4.096   6.628 -1.2224 -1.5109  1.7882
 3207SOL    HW210521   5.463   4.158   6.740 -0.1169 -0.0739  0.0673
 3208SOL     OW10522   5.574   6.159   0.217 -0.0469 -0.3081 -0.0911
 3208SOL    HW110523   5.559   6.065   0.249  1.7505  0.0962  2.1877
 3208SOL    HW210524   5.529   6.223   0.279 -2.9166  0.4086 -2.6832
 3209SOL     OW10525   1.826   4.159   0.891  0.2352 -0.1157 -0.4378
 3209SOL    HW110526   1.769   4.094   0.941 -0.7738  0.2333 -1.1041
 3209SOL    HW210527   1.819   4.141   0.793  1.6858 -0.3846 -0.5227
 3210SOL     OW10528   6.780   5.988   3.662 -0.3956 -0.0934  0.7383
 3210SOL    HW110529   6.756   5.987   3.759  0.5346 -1.8200  0.9967
 3210SOL    HW210530   6.862   5.933   3.648 -0.4926  0.1672 -1.0234
 3211SOL     OW10531   1.148   5.895   6.798 -1.3066  0.1103 -0.2215
 3211SOL    HW110532   1.181   5.807   6.832  0.8439  1.4533  1.4576
 3211SOL    HW210533   1.160   5.900   6.699 -0.8677 -1.2363 -0.2528
 3212SOL     OW10534   5.515   4.285   2.171 -0.7327  0.0622 -0.1274
 3212SOL    HW110535   5.566   4.204   2.140  1.6109  1.6398 -0.6779
 3212SOL    HW210536   5.493   4.275   2.267  0.8246 -0.6526  0.1969
 3213SOL     OW10537   5.815   6.807   1.678  0.0333  0.5984 -0.2267
 3213SOL    HW110538   5.912   6.782   1.669 -0.1354 -0.3127  0.2878
 3213SOL    HW210539   5.789   6.867   1.603  0.9563  0.7166 -0.4704
 3214SOL     OW10540   2.628   4.130   5.746 -0.2066  0.3424  0.2791
 3214SOL    HW110541   2.529   4.126   5.728 -0.1281  2.0432 -0.7458
 3214SOL    HW210542   2.676   4.144   5.660  0.9098  0.0457  0.8460
 3215SOL     OW10543   0.847   3.640   1.136  0.4812  0.1798 -0.0099
 3215SOL    HW110544   0.834   3.551   1.180  1.0926  0.7252  1.3402
 3215SOL    HW210545   0.768   3.660   1.078 -0.4592 -0.5048  0.9855
 3216SOL     OW10546   1.440   1.353   4.600 -0.1307  0.6650  0.2569
 3216SOL    HW110547   1.500   1.376   4.523 -0.1095  1.2019  0.4343
 3216SOL    HW210548   1.353   1.318   4.566  0.0267  0.5311 -0.0084
 3217SOL     OW10549   2.964   3.403   6.417  0.0201  0.4723  0.2144
 3217SOL    HW110550   2.964   3.390   6.318  2.1977 -0.6511  0.2956
 3217SOL    HW210551   2.957   3.314   6.462  0.7279  0.8276  1.0460
 3218SOL     OW10552   1.495   5.127   1.025  0.4822  0.2425  0.0443
 3218SOL    HW110553   1.477   5.029   1.016  1.5215  0.0064  0.3764
 3218SOL    HW210554   1.546   5.144   1.109  0.5073  1.0448 -0.1266
 3219SOL     OW10555   1.006   5.574   0.742  0.2714 -0.5344 -0.3619
 3219SOL    HW110556   1.057   5.513   0.682 -0.9917  0.2614 -2.3637
 3219SOL    HW210557   0.944   5.630   0.688 -1.8310 -0.5745  1.7967
 3220SOL     OW10558   5.731   0.127   5.831  0.4273  0.1155 -0.2562
 3220SOL    HW110559   5.675   0.175   5.899 -0.6251 -1.3238 -0.0525
 3220SOL    HW210560   5.699   0.033   5.822  2.7698 -0.7611 -0.2220
 3221SOL     OW10561   1.664   3.617   0.273  0.6074  0.1971  0.2073
 3221SOL    HW110562   1.674   3.519   0.255  1.2952 -0.2144  2.4291
 3221SOL    HW210563   1.589   3.631   0.338  0.4269  1.1693 -0.1963
 3222SOL     OW10564   2.947   0.921   5.700  0.0004  0.1088 -0.1252
 3222SOL    HW110565   3.010   0.852   5.665  1.1193  1.6505 -1.2942
 3222SOL    HW210566   2.873   0.876   5.750  0.8468 -1.8928 -0.5678
 3223SOL     OW10567   4.114   6.504   3.634 -0.1722 -0.2722  0.3817
 3223SOL    HW110568   4.188   6.437   3.640 -0.8096 -1.0303 -0.0283
 3223SOL    HW210569   4.111   6.558   3.719 -1.2790 -2.5036  1.8461
 3224SOL     OW10570   4.754   1.159   2.102  0.0591  0.3939 -0.5108
 3224SOL    HW110571   4.803   1.124   2.022  0.6110  0.1064 -0.0571
 3224SOL    HW210572   4.737   1.257   2.090  0.3482  0.4036 -0.8784
 3225SOL     OW10573   3.899   6.429   1.210  0.0205 -0.2096  0.2566
 3225SOL    HW110574   3.862   6.376   1.286  2.1359 -1.8837  0.2286
 3225SOL    HW210575   3.879   6.382   1.124  1.8056 -0.9804  0.2176
 3226SOL     OW10576   0.319   5.569   3.850  0.0923 -0.2924 -0.4855
 3226SOL    HW110577   0.236   5.548   3.902  0.1304 -0.3835 -0.4596
 3226SOL    HW210578   0.398   5.563   3.911  0.0363  0.6103 -0.3227
 3227SOL     OW10579   4.834   1.096   4.421  0.3805 -1.0156 -0.3724
 3227SOL    HW110580   4.763   1.055   4.479  1.3598 -1.0560  0.8447
 3227SOL    HW210581   4.827   1.196   4.428  0.4161 -1.0193 -0.2678
 3228SOL     OW10582   3.889   4.829   2.903  0.3434 -0.3462  0.1277
 3228SOL    HW110583   3.980   4.853   2.870  1.1990 -1.7065  1.3805
 3228SOL    HW210584   3.895   4.749   2.963 -2.0258 -2.3851 -2.0926
 3229SOL     OW10585   3.322   6.764   4.530  0.0906 -0.2281 -0.1454
 3229SOL    HW110586   3.343   6.778   4.627 -0.9956 -0.6395  0.1677
 3229SOL    HW210587   3.359   6.840   4.476  1.1448 -0.2546  0.5258
 3230SOL     OW10588   3.639   0.404   1.600  0.2325  0.1073  0.3975
 3230SOL    HW110589   3.712   0.339   1.619  1.0313  0.6358 -0.7281
 3230SOL    HW210590   3.676   0.480   1.547 -1.1460  0.3822 -0.2027
 3231SOL     OW10591   2.969   6.173   3.068  0.2425 -0.1761 -0.1538
 3231SOL    HW110592   2.956   6.195   2.971  1.1798  1.6183  0.0763
 3231SOL    HW210593   3.066   6.156   3.085 -0.2180 -2.9726  0.0519
 3232SOL     OW10594   3.926   5.179   4.158 -0.2720  0.2110  0.7409
 3232SOL    HW110595   3.843   5.191   4.213 -1.0307  1.3902 -0.5859
 3232SOL    HW210596   3.922   5.091   4.110 -1.5916  0.9351 -0.5796
 3233SOL     OW10597   1.577   2.151   4.743  0.4963 -0.5393 -0.2193
 3233SOL    HW110598   1.559   2.216   4.669 -0.6982 -0.0904  0.4479
 3233SOL    HW210599   1.492   2.109   4.773  0.8288 -0.1047  1.4540
 3234SOL     OW10600   2.227   2.706   0.749 -0.8153 -0.7482 -0.5284
 3234SOL    HW110601   2.179   2.618   0.748  0.2246 -1.3287 -1.3358
 3234SOL    HW210602   2.325   2.691   0.737 -0.5177  0.4786  0.1420
 3235SOL     OW10603   0.973   4.399   1.877  0.9366  0.0376  0.7088
 3235SOL    HW110604   0.953   4.356   1.965  1.3149 -0.3083  0.6222
 3235SOL    HW210605   0.954   4.497   1.884  0.6922 -0.0331  1.0903
 3236SOL     OW10606   5.501   0.416   5.565 -0.1874  0.7783  0.1470
 3236SOL    HW110607   5.551   0.336   5.533  0.3395 -0.3775  3.4295
 3236SOL    HW210608   5.429   0.387   5.628 -2.1162  2.7330 -1.0492
 3237SOL     OW10609   0.353   0.339   2.651  0.1997  0.0467  0.0390
 3237SOL    HW110610   0.293   0.258   2.650  0.9433 -0.5068 -0.5211
 3237SOL    HW210611   0.374   0.363   2.746 -0.5428 -0.0192  0.2320
 3238SOL     OW10612   6.622   5.656   3.697 -0.6355 -0.5169  0.3293
 3238SOL    HW110613   6.647   5.744   3.739 -1.1710 -0.5354  0.6998
 3238SOL    HW210614   6.523   5.648   3.695 -0.5860 -1.5915  1.3001
 3239SOL     OW10615   2.611   2.718   5.474 -0.5510  0.0316  0.7065
 3239SOL    HW110616   2.677   2.658   5.428 -1.6184  0.3313 -1.3396
 3239SOL    HW210617   2.585   2.678   5.562 -0.3536 -1.9254 -0.0744
 3240SOL     OW10618   3.950   5.471   6.868 -0.0130  0.0377  0.3495
 3240SOL    HW110619   3.946   5.463   6.968 -1.9181  0.6586  0.3722
 3240SOL    HW210620   3.914   5.560   6.841  0.3489 -0.1823 -0.9133
 3241SOL     OW10621   0.888   0.755   1.142  0.4198  0.4172  0.2027
 3241SOL    HW110622   0.949   0.831   1.120  0.5079  0.1606 -0.4614
 3241SOL    HW210623   0.916   0.674   1.091 -0.5148  0.3156 -0.1714
 3242SOL     OW10624   1.099   1.981   5.797  0.1593 -0.0169  0.3615
 3242SOL    HW110625   1.123   1.912   5.729  1.0159  0.0444  0.5976
 3242SOL    HW210626   1.123   2.072   5.762 -0.7439  0.1603  0.1511
 3243SOL     OW10627   3.594   5.242   4.984 -0.1668  0.1980 -0.1132
 3243SOL    HW110628   3.630   5.288   5.065 -1.4960 -0.9283  1.1739
 3243SOL    HW210629   3.633   5.150   4.976 -0.8397 -0.0995 -0.1191
 3244SOL     OW10630   2.754   6.380   4.768 -0.2759 -0.3492  0.6207
 3244SOL    HW110631   2.733   6.418   4.678  1.7584  1.4378  0.8120
 3244SOL    HW210632   2.756   6.281   4.762  0.3996 -0.2737 -1.4860
 3245SOL     OW10633   5.190   4.648   5.254  0.2237  0.6296 -0.3384
 3245SOL    HW110634   5.245   4.587   5.197 -1.4276 -0.9677 -0.3003
 3245SOL    HW210635   5.116   4.597   5.297 -1.1727  2.6365 -0.1864
 3246SOL     OW10636   6.318   0.381   1.456 -0.1645  0.5037  0.1461
 3246SOL    HW110637   6.373   0.326   1.519  0.1204 -0.4441 -0.8849
 3246SOL    HW210638   6.298   0.470   1.497 -0.5016 -0.3048  1.8056
 3247SOL     OW10639   3.082   5.201   1.661 -0.2387  0.2333  0.6649
 3247SOL    HW110640   2.986   5.174   1.654 -0.8489  1.2862  3.3668
 3247SOL    HW210641   3.127   5.145   1.731  0.8263  0.4358  0.1583
 3248SOL     OW10642   4.167   2.273   2.446  0.5061 -0.2015  0.2220
 3248SOL    HW110643   4.140   2.183   2.411  2.8289 -1.3939  1.2544
 3248SOL    HW210644   4.161   2.272   2.546  1.1279  0.5611  0.2734
 3249SOL     OW10645   1.548   1.088   6.291 -0.4292  0.0560 -0.3940
 3249SOL    HW110646   1.511   1.178   6.314  1.0052  0.7562 -0.7118
 3249SOL    HW210647   1.645   1.097   6.266  0.4119 -1.8637  1.7805
 3250SOL     OW10648   6.097   6.027   2.915  0.2469  0.0007 -0.3757
 3250SOL    HW110649   6.138   6.101   2.969 -2.1063  0.5181  0.8340
 3250SOL    HW210650   6.090   5.945   2.971 -0.1910 -0.1388 -0.6338
 3251SOL     OW10651   1.110   0.568   6.108 -0.3264 -0.4433  0.4500
 3251SOL    HW110652   1.112   0.528   6.200 -2.2050 -1.0695  0.2593
 3251SOL    HW210653   1.020   0.552   6.067  0.6624 -0.6719 -1.7259
 3252SOL     OW10654   6.477   1.358   6.337 -0.1731  0.6710  0.6043
 3252SOL    HW110655   6.387   1.397   6.317  0.2600  0.1803 -2.6985
 3252SOL    HW210656   6.472   1.258   6.332  0.9007  0.6721 -1.7362
 3253SOL     OW10657   6.164   1.234   1.175  0.1177 -0.6195 -0.4008
 3253SOL    HW110658   6.143   1.331   1.177  1.6542 -0.2743 -0.1114
 3253SOL    HW210659   6.143   1.197   1.084  0.0189  0.0853 -0.6716
 3254SOL     OW10660   6.893   6.320   2.091 -0.8097  0.6196 -0.2040
 3254SOL    HW110661   6.978   6.371   2.076 -1.2925  2.6990  3.1050
 3254SOL    HW210662   6.875   6.313   2.189 -2.6260 -3.0638 -0.6306
 3255SOL     OW10663   6.990   0.683   5.863  0.1520  0.0932 -0.0244
 3255SOL    HW110664   7.071   0.708   5.916  0.8499  0.6211 -1.2880
 3255SOL    HW210665   6.981   0.744   5.785 -0.7906 -0.7095 -0.5743
 3256SOL     OW10666   6.418   1.207   1.012 -0.3778 -0.1447  0.8779
 3256SOL    HW110667   6.353   1.276   0.980 -0.9893 -0.8273  0.6123
 3256SOL    HW210668   6.509   1.247   1.019  0.0071 -0.1132 -2.5764
 3257SOL     OW10669   1.621   1.713   3.110  0.1975 -0.1704 -0.1604
 3257SOL    HW110670   1.627   1.642   3.040 -0.6679  0.9244 -1.3758
 3257SOL    HW210671   1.589   1.672   3.196  0.6089 -1.4035 -0.5662
 3258SOL     OW10672   2.971   5.272   2.709 -0.9462  0.0761 -0.2769
 3258SOL    HW110673   2.977   5.371   2.720 -2.2067  0.1081  0.2987
 3258SOL    HW210674   3.017   5.227   2.786  0.6955  0.1845 -1.1663
 3259SOL     OW10675   6.099   2.127   4.198  0.3568 -0.2823 -0.3287
 3259SOL    HW110676   6.069   2.109   4.291  1.6488 -1.7023 -0.1397
 3259SOL    HW210677   6.023   2.115   4.135 -0.0979 -1.1515  0.3744
 3260SOL     OW10678   5.429   6.538   4.872 -0.3585 -0.1048 -0.4475
 3260SOL    HW110679   5.474   6.580   4.951 -2.4878 -1.0093  1.3638
 3260SOL    HW210680   5.359   6.600   4.837  0.4610  0.2190 -1.5679
 3261SOL     OW10681   0.423   6.480   5.328  0.2447  0.4286 -0.1133
 3261SOL    HW110682   0.503   6.450   5.380 -0.7700 -2.2824  0.0211
 3261SOL    HW210683   0.428   6.444   5.235 -0.4466  0.9174 -0.3473
 3262SOL     OW10684   0.299   1.809   4.196  0.0097 -0.5046  0.0684
 3262SOL    HW110685   0.213   1.858   4.186  0.8589  0.7147 -1.9039
 3262SOL    HW210686   0.361   1.862   4.255  0.1320 -0.3587 -0.1928
 3263SOL     OW10687   2.712   4.861   3.150  0.3878  0.0908  0.3768
 3263SOL    HW110688   2.698   4.954   3.114  0.5874 -0.5255 -1.3831
 3263SOL    HW210689   2.639   4.840   3.215 -1.1339  0.6119 -1.0691
 3264SOL     OW10690   1.165   6.162   2.576  0.7838 -0.0572 -0.5365
 3264SOL    HW110691   1.180   6.180   2.673 -0.3959 -2.1913  0.1160
 3264SOL    HW210692   1.195   6.069   2.554 -0.8544 -0.3659 -1.7102
 3265SOL     OW10693   5.857   4.548   6.087  0.2418 -0.0915 -0.4091
 3265SOL    HW110694   5.850   4.576   5.991 -0.0146  0.9211 -0.0960
 3265SOL    HW210695   5.787   4.479   6.106 -2.2292  2.3479 -0.0339
 3266SOL     OW10696   6.979   6.486   3.572  0.3603  0.4349  0.1919
 3266SOL    HW110697   6.957   6.565   3.514 -0.5946 -0.4753 -0.7324
 3266SOL    HW210698   6.934   6.405   3.536  1.8648 -0.6879  0.7178
 3267SOL     OW10699   3.052   6.373   6.424 -0.0555  0.3515 -0.2058
 3267SOL    HW110700   3.037   6.472   6.429  2.1199  0.6701  1.2517
 3267SOL    HW210701   3.132   6.354   6.368  0.1900 -0.5066  0.4205
 3268SOL     OW10702   6.952   0.128   4.960 -0.1534 -0.3422  0.3569
 3268SOL    HW110703   6.978   0.037   4.929 -0.3177  0.0321 -0.9865
 3268SOL    HW210704   7.034   0.183   4.975 -0.0314  0.1730 -1.7614
 3269SOL     OW10705   1.091   4.821   3.258  0.0652  0.7812 -0.2337
 3269SOL    HW110706   1.103   4.723   3.245  2.1713  0.9628  0.0803
 3269SOL    HW210707   1.112   4.869   3.173 -0.9458  0.9748 -0.3845
 3270SOL     OW10708   2.260   2.892   1.292  0.1478 -0.3067  0.0459
 3270SOL    HW110709   2.197   2.817   1.311 -0.0563 -0.0396  0.4385
 3270SOL    HW210710   2.208   2.975   1.272  0.3720 -0.2499 -0.3104
 3271SOL     OW10711   0.805   0.143   1.908  0.2392 -0.0157  0.0450
 3271SOL    HW110712   0.889   0.151   1.854  0.6620  0.2033  0.7207
 3271SOL    HW210713   0.734   0.202   1.869  0.8107  0.8142  0.2410
 3272SOL     OW10714   4.592   6.729   0.403 -0.5376  0.5885 -0.3621
 3272SOL    HW110715   4.605   6.798   0.474  0.2263  1.2147 -1.0964
 3272SOL    HW210716   4.494   6.708   0.394 -0.5088 -2.9842  4.1048
 3273SOL     OW10717   1.777   4.797   1.409  0.1304 -0.2044 -0.3607
 3273SOL    HW110718   1.824   4.751   1.334 -1.8839 -1.1130 -1.1229
 3273SOL    HW210719   1.774   4.737   1.489  0.6682  0.0586 -0.1323
 3274SOL     OW10720   0.407   2.087   0.879  0.3739 -0.2653  0.3085
 3274SOL    HW110721   0.332   2.029   0.910  0.4755 -0.9214 -0.6447
 3274SOL    HW210722   0.372   2.179   0.858 -0.3368 -0.8309 -1.0222
 3275SOL     OW10723   2.466   6.423   6.047 -0.1308  0.0453  0.1828
 3275SOL    HW110724   2.563   6.441   6.062  0.0278 -0.6754  0.0433
 3275SOL    HW210725   2.454   6.375   5.960 -0.4412 -1.3397  0.9524
 3276SOL     OW10726   5.779   2.533   4.620 -0.5173 -0.0408 -0.0397
 3276SOL    HW110727   5.695   2.500   4.662 -0.0839 -0.8563  0.2186
 3276SOL    HW210728   5.813   2.465   4.554  0.5107 -0.2399  0.6645
 3277SOL     OW10729   1.162   1.803   3.035 -0.0144 -0.9865  0.5916
 3277SOL    HW110730   1.182   1.709   3.064 -2.0909 -1.8338 -0.5526
 3277SOL    HW210731   1.149   1.861   3.116  0.0266 -1.9727  1.3237
 3278SOL     OW10732   0.157   3.941   5.817  0.0268  0.4015 -0.3546
 3278SOL    HW110733   0.148   3.909   5.723  1.2001  0.2704 -0.4355
 3278SOL    HW210734   0.188   3.866   5.875  0.4158  0.7679 -0.0814
 3279SOL     OW10735   1.189   0.561   5.672 -0.0211  0.7804 -0.0711
 3279SOL    HW110736   1.217   0.624   5.745  0.5550  0.9637 -0.4415
 3279SOL    HW210737   1.222   0.595   5.584  0.7607 -0.2844 -0.2216
 3280SOL     OW10738   3.711   3.660   6.165 -0.1119 -0.1297 -0.0751
 3280SOL    HW110739   3.623   3.617   6.148 -0.5948  0.3975  0.9985
 3280SOL    HW210740   3.738   3.646   6.260  0.7483  0.1154 -0.2645
 3281SOL     OW10741   4.165   6.430   0.570  0.3653 -0.4642  0.1105
 3281SOL    HW110742   4.214   6.344   0.583  1.8979  0.3274 -0.1893
 3281SOL    HW210743   4.141   6.470   0.659  1.0105 -0.4511  0.2785
 3282SOL     OW10744   4.139   0.505   2.593 -0.1069 -0.0608 -0.1976
 3282SOL    HW110745   4.097   0.443   2.527 -1.9751  0.7318  0.1807
 3282SOL    HW210746   4.204   0.565   2.546  0.9218 -1.5486 -0.7399
 3283SOL     OW10747   6.945   6.738   3.439 -0.2101 -0.0393 -0.4766
 3283SOL    HW110748   6.908   6.760   3.349 -0.3611 -0.0721 -0.4230
 3283SOL    HW210749   6.885   6.777   3.510  1.0264  1.8509 -0.3910
 3284SOL     OW10750   2.721   4.821   0.833 -0.1385  0.6180  0.7110
 3284SOL    HW110751   2.719   4.736   0.885  0.4266 -0.2939 -0.7050
 3284SOL    HW210752   2.629   4.857   0.823 -0.4901 -0.3232  0.5279
 3285SOL     OW10753   3.990   2.508   6.608 -0.0708 -0.0281 -0.2701
 3285SOL    HW110754   4.019   2.582   6.669 -0.0797  0.7567 -1.1821
 3285SOL    HW210755   3.892   2.515   6.591 -0.2075 -0.6887  0.1921
 3286SOL     OW10756   1.062   3.823   4.660 -0.2800 -0.0677  0.0689
 3286SOL    HW110757   1.015   3.895   4.609  1.5587  0.8468 -0.4197
 3286SOL    HW210758   1.050   3.736   4.613 -0.6891  0.3195 -0.5616
 3287SOL     OW10759   6.484   6.060   3.260  0.6313 -0.0199 -0.3444
 3287SOL    HW110760   6.451   5.994   3.327  0.5731 -0.9890 -1.2918
 3287SOL    HW210761   6.426   6.141   3.261 -1.0893 -1.1716 -1.1245
 3288SOL     OW10762   4.305   2.677   5.520  0.1908  0.0491 -0.4956
 3288SOL    HW110763   4.381   2.708   5.578 -0.6336  0.3993  0.4273
 3288SOL    HW210764   4.223   2.668   5.576 -0.3924 -0.5792 -1.4315
 3289SOL     OW10765   3.125   0.451   1.492  0.4559 -0.2432  0.1572
 3289SOL    HW110766   3.064   0.386   1.448  1.3596 -2.4922  2.0471
 3289SOL    HW210767   3.107   0.453   1.591  0.8706  1.9727  0.2450
 3290SOL     OW10768   0.780   3.260   5.698 -0.0693 -0.0035 -0.0875
 3290SOL    HW110769   0.763   3.166   5.729 -1.8599  0.9401  2.0785
 3290SOL    HW210770   0.845   3.258   5.622 -0.0226 -2.9718 -0.1168
 3291SOL     OW10771   6.023   5.152   6.395  0.2908  0.4540  0.0360
 3291SOL    HW110772   5.956   5.094   6.350 -1.6949  1.3295  1.7099
 3291SOL    HW210773   6.055   5.108   6.479  0.2356  0.9403  0.3154
 3292SOL     OW10774   0.687   3.758   0.256 -0.1559 -0.5384 -0.1840
 3292SOL    HW110775   0.629   3.822   0.205 -0.9518 -0.5987  0.6169
 3292SOL    HW210776   0.741   3.808   0.323 -2.4153 -0.8596  1.9971
 3293SOL     OW10777   0.459   0.895   0.397  0.3307  0.1523  0.2595
 3293SOL    HW110778   0.531   0.914   0.464 -0.3900  2.5526  0.4510
 3293SOL    HW210779   0.412   0.810   0.421  0.4941  0.6289  2.4556
 3294SOL     OW10780   4.656   3.771   6.414 -0.1872  0.4164 -0.2612
 3294SOL    HW110781   4.699   3.760   6.324  0.2902 -1.4038  0.1544
 3294SOL    HW210782   4.719   3.819   6.475 -0.2813  1.1292 -0.7054
 3295SOL     OW10783   1.949   3.275   5.826 -0.1088  0.5454 -0.0892
 3295SOL    HW110784   1.922   3.196   5.772  0.5466 -0.7683  1.4140
 3295SOL    HW210785   2.039   3.259   5.867 -0.0054  2.0265  0.3265
 3296SOL     OW10786   2.169   5.332   3.551 -0.1013 -0.3320 -0.5962
 3296SOL    HW110787   2.220   5.418   3.554 -1.8046  0.7230  0.1716
 3296SOL    HW210788   2.075   5.350   3.521 -1.3811 -1.3900  2.3768
 3297SOL     OW10789   6.429   3.853   4.234 -0.3007  0.0165 -0.3702
 3297SOL    HW110790   6.502   3.920   4.215  0.4594 -1.2805 -2.2870
 3297SOL    HW210791   6.470   3.762   4.245 -1.5951 -0.6564 -0.9921
 3298SOL     OW10792   3.251   5.346   0.392 -0.3627  0.4989  0.0790
 3298SOL    HW110793   3.321   5.408   0.356  0.3485 -1.0965 -1.4304
 3298SOL    HW210794   3.160   5.381   0.368  0.0399  0.7114 -1.2163
 3299SOL     OW10795   6.556   6.041   6.035  0.0111  0.1653  0.0576
 3299SOL    HW110796   6.584   6.091   6.117  1.3339 -0.7833  0.2314
 3299SOL    HW210797   6.556   6.102   5.956  0.7379  0.6477  0.4205
 3300SOL     OW10798   2.438   3.752   6.104  0.2377  0.5060  0.2518
 3300SOL    HW110799   2.433   3.692   6.183 -0.2985  1.6250  1.0956
 3300SOL    HW210800   2.413   3.845   6.131  0.5622  1.0177 -1.1217
 3301SOL     OW10801   2.256   0.573   2.411  0.2332  0.6606  0.2116
 3301SOL    HW110802   2.341   0.552   2.458  0.5685  1.0800 -0.1988
 3301SOL    HW210803   2.233   0.669   2.426  0.9063  1.0845 -1.3470
 3302SOL     OW10804   1.540   0.286   5.383  0.3294  0.3714  0.4684
 3302SOL    HW110805   1.587   0.208   5.342 -1.0313 -0.5913  0.6681
 3302SOL    HW210806   1.603   0.363   5.390  1.5235 -0.4973 -0.3340
 3303SOL     OW10807   1.574   3.785   5.417 -0.0591 -0.8386  0.2323
 3303SOL    HW110808   1.608   3.772   5.324  4.5716 -0.1338  1.5959
 3303SOL    HW210809   1.512   3.864   5.419  2.1787  1.1596 -1.8828
 3304SOL     OW10810   5.224   4.833   3.267 -0.2516 -0.0042  0.4327
 3304SOL    HW110811   5.196   4.844   3.171 -2.4242 -1.5133  0.8141
 3304SOL    HW210812   5.206   4.739   3.296 -0.6085  0.6861  2.5873
 3305SOL     OW10813   5.931   2.877   3.425  0.1784 -0.0844  0.1198
 3305SOL    HW110814   5.917   2.959   3.480  0.6136 -0.0728  0.2187
 3305SOL    HW210815   6.021   2.838   3.445 -0.4722 -1.2426  0.9167
 3306SOL     OW10816   3.216   2.228   1.373  0.2088 -0.5902 -0.0730
 3306SOL    HW110817   3.301   2.182   1.399  0.5856 -0.3282 -0.8152
 3306SOL    HW210818   3.230   2.327   1.371 -0.2578 -0.5097  0.2912
 3307SOL     OW10819   2.153   3.308   2.469 -0.1740  0.2300 -0.7534
 3307SOL    HW110820   2.245   3.340   2.489  0.0647  0.4355 -2.0949
 3307SOL    HW210821   2.113   3.364   2.396 -1.7667  0.8148  0.4862
 3308SOL     OW10822   4.522   6.318   5.002 -0.1855 -0.4319 -0.1440
 3308SOL    HW110823   4.576   6.365   4.933  0.2595 -1.3418 -0.4359
 3308SOL    HW210824   4.581   6.288   5.077 -0.6709  0.5911  0.6822
 3309SOL     OW10825   1.935   4.942   0.414 -0.1964 -0.1184 -0.0268
 3309SOL    HW110826   1.997   4.972   0.341 -0.6199  0.2559 -0.2416
 3309SOL    HW210827   1.910   4.847   0.399 -0.7536  0.1215 -0.7261
 3310SOL     OW10828   5.409   2.660   2.604 -0.6436 -0.8583  0.0564
 3310SOL    HW110829   5.488   2.613   2.563 -0.9451 -1.0272 -0.3382
 3310SOL    HW210830   5.343   2.682   2.532 -0.3875  0.4290  0.1768
 3311SOL     OW10831   2.375   0.487   1.202  0.0118  0.2891  0.0270
 3311SOL    HW110832   2.313   0.529   1.135 -1.8270 -0.3280  1.2388
 3311SOL    HW210833   2.442   0.430   1.155 -0.5796  0.6599 -1.3282
 3312SOL     OW10834   5.083   2.437   6.161  0.1826 -0.0865 -0.8295
 3312SOL    HW110835   5.126   2.526   6.156  1.5749 -0.6533  0.3752
 3312SOL    HW210836   4.987   2.444   6.133 -0.8462  2.5415  2.6742
 3313SOL     OW10837   5.422   5.797   2.620 -0.9654  0.2045 -0.6976
 3313SOL    HW110838   5.388   5.716   2.572 -1.6488  0.2974 -0.3843
 3313SOL    HW210839   5.466   5.858   2.554 -0.6541 -0.3093 -0.9723
 3314SOL     OW10840   6.645   5.891   3.117 -0.0860  0.0725 -0.2145
 3314SOL    HW110841   6.596   5.943   3.187 -0.3821 -0.4328 -0.0418
 3314SOL    HW210842   6.714   5.949   3.074 -0.9232  0.8429 -0.5482
 3315SOL     OW10843   4.987   0.268   2.541 -0.0530 -0.4464 -0.1151
 3315SOL    HW110844   5.069   0.209   2.544  1.0888  1.1203  1.9360
 3315SOL    HW210845   5.005   0.346   2.481 -0.7883 -1.0533 -1.1551
 3316SOL     OW10846   6.030   2.156   3.705  0.0194  0.4332  0.4273
 3316SOL    HW110847   5.979   2.133   3.622 -2.4691  1.7673  1.4951
 3316SOL    HW210848   6.116   2.104   3.706 -0.7696 -1.1044 -1.9776
 3317SOL     OW10849   4.630   5.465   4.287  0.4627 -0.4751  0.4425
 3317SOL    HW110850   4.550   5.434   4.339  0.0355  0.4830  0.3950
 3317SOL    HW210851   4.685   5.387   4.259 -0.7684 -1.2008 -0.0145
 3318SOL     OW10852   2.598   6.864   5.367 -0.4134 -0.6200 -0.0918
 3318SOL    HW110853   2.641   6.946   5.328  0.4516 -1.5590 -1.1832
 3318SOL    HW210854   2.505   6.855   5.330 -0.7709  0.2306  0.5720
 3319SOL     OW10855   0.272   6.099   3.147  0.1203  0.0775  0.2157
 3319SOL    HW110856   0.226   6.014   3.119 -1.2418  0.8064  0.1320
 3319SOL    HW210857   0.217   6.177   3.117  2.1449  1.0549 -1.1238
 3320SOL     OW10858   0.197   2.538   6.224  0.0924 -0.0608  0.0675
 3320SOL    HW110859   0.161   2.614   6.279  0.9156 -0.0419  0.5998
 3320SOL    HW210860   0.245   2.474   6.283  1.2617  0.1190 -0.6564
 3321SOL     OW10861   1.516   4.108   2.877 -0.5933 -0.0089  0.2935
 3321SOL    HW110862   1.451   4.147   2.942 -2.2728  0.3753 -1.5311
 3321SOL    HW210863   1.478   4.026   2.836  1.6113 -1.8916  1.7535
 3322SOL     OW10864   5.531   0.397   4.657  0.0627 -0.0371 -0.4837
 3322SOL    HW110865   5.527   0.494   4.680 -1.4029 -0.2884  0.4439
 3322SOL    HW210866   5.603   0.353   4.711  0.0003  0.3338 -0.0946
 3323SOL     OW10867   4.069   5.966   0.092  0.1231  0.0550 -0.0161
 3323SOL    HW110868   4.007   5.887   0.095  0.8959 -0.5354  1.0981
 3323SOL    HW210869   4.062   6.018   0.177 -0.4714  1.2820 -0.7944
 3324SOL     OW10870   5.622   4.157   6.819 -0.6831 -0.4037 -0.2512
 3324SOL    HW110871   5.678   4.239   6.807 -0.5875 -0.5176 -0.5972
 3324SOL    HW210872   5.650   4.087   6.752 -1.7737 -0.1751 -0.9726
 3325SOL     OW10873   2.518   3.358   6.392 -0.0655 -0.3829  0.5693
 3325SOL    HW110874   2.458   3.288   6.432 -0.0469 -0.6788  0.0871
 3325SOL    HW210875   2.546   3.422   6.464 -0.6635 -0.4513  0.8749
 3326SOL     OW10876   3.558   3.383   6.953  0.7548  0.8980  0.1125
 3326SOL    HW110877   3.534   3.397   7.049  0.1519  1.3874 -0.1034
 3326SOL    HW210878   3.480   3.340   6.905  2.0372 -2.0776  0.4538
 3327SOL     OW10879   5.677   3.960   5.535 -0.3555  0.5960  0.3967
 3327SOL    HW110880   5.706   4.010   5.617 -0.0283 -0.1784  0.7579
 3327SOL    HW210881   5.690   3.862   5.549 -2.1584  0.2888  0.1671
 3328SOL     OW10882   4.460   4.958   6.044 -0.4595  0.3208  0.8750
 3328SOL    HW110883   4.502   4.925   6.129  0.4937 -0.0793  0.2606
 3328SOL    HW210884   4.361   4.952   6.052 -0.5713  2.9384  3.0471
 3329SOL     OW10885   1.404   5.017   4.216  0.5138  0.0228 -0.4593
 3329SOL    HW110886   1.345   5.092   4.187 -0.1578 -1.1215 -2.1773
 3329SOL    HW210887   1.499   5.036   4.189  1.1671  2.0838  2.7147
 3330SOL     OW10888   6.550   5.889   0.453 -0.3268 -0.8000 -0.1788
 3330SOL    HW110889   6.479   5.879   0.524 -0.6213 -1.5132 -0.5628
 3330SOL    HW210890   6.507   5.894   0.363 -0.1401  2.8651 -0.1781
 3331SOL     OW10891   4.476   0.768   4.866 -0.0557  0.2813 -0.3915
 3331SOL    HW110892   4.395   0.766   4.925  1.3042 -0.3175  1.5433
 3331SOL    HW210893   4.507   0.862   4.855 -0.4031  0.4121 -0.2715
 3332SOL     OW10894   4.708   1.460   0.589  0.7683 -0.2092  0.0102
 3332SOL    HW110895   4.637   1.390   0.595  0.5055  0.1237  1.0518
 3332SOL    HW210896   4.793   1.425   0.629  0.7649 -0.0905  0.1217
 3333SOL     OW10897   4.531   5.158   6.834 -0.0686  0.0452 -0.5566
 3333SOL    HW110898   4.510   5.232   6.897  0.0219 -0.6890  0.3473
 3333SOL    HW210899   4.625   5.127   6.848  0.5129  0.9264 -2.1531
 3334SOL     OW10900   4.546   3.597   1.008  0.0902 -0.3623 -0.5895
 3334SOL    HW110901   4.635   3.634   1.035  0.6008 -2.6440  1.1635
 3334SOL    HW210902   4.480   3.612   1.082 -0.2778 -0.9135 -0.8006
 3335SOL     OW10903   6.247   2.515   5.910 -0.0321 -0.2895 -0.0067
 3335SOL    HW110904   6.320   2.532   5.977  0.7003 -1.0979 -0.5777
 3335SOL    HW210905   6.158   2.516   5.956  0.4533 -0.6925  0.9643
 3336SOL     OW10906   0.985   2.431   6.904  0.5958  0.5112 -0.4613
 3336SOL    HW110907   0.997   2.399   6.811 -2.5825  1.1857 -1.2135
 3336SOL    HW210908   0.976   2.531   6.904  1.3885  0.6013  0.6893
 3337SOL     OW10909   0.137   6.629   6.943  0.2464 -0.0813 -0.3072
 3337SOL    HW110910   0.133   6.544   6.995  0.1588  0.2826  0.2892
 3337SOL    HW210911   0.047   6.648   6.904 -0.1241  0.4691  0.7633
 3338SOL     OW10912   2.461   0.531   3.664  0.5480 -0.2866 -0.6900
 3338SOL    HW110913   2.481   0.564   3.571  1.3039  1.3201  0.0025
 3338SOL    HW210914   2.545   0.534   3.719 -0.3969  1.2685  0.7516
 3339SOL     OW10915   0.244   5.768   1.773 -0.3335  0.4734  0.1837
 3339SOL    HW110916   0.312   5.732   1.708  0.2896  0.9049  0.5783
 3339SOL    HW210917   0.201   5.692   1.822 -2.8329 -0.0844 -2.6411
 3340SOL     OW10918   3.029   6.643   2.432  0.1287 -0.2094 -0.0316
 3340SOL    HW110919   3.018   6.713   2.502  0.5326  1.0035 -1.1275
 3340SOL    HW210920   3.007   6.682   2.342 -0.5938 -1.7778 -0.5765
 3341SOL     OW10921   1.211   6.952   0.652  0.4811  0.0633  0.6963
 3341SOL    HW110922   1.294   6.950   0.597 -0.4415 -1.5381 -0.7213
 3341SOL    HW210923   1.225   6.899   0.736  0.0222 -2.9252 -0.9850
 3342SOL     OW10924   1.364   3.716   2.263 -0.0280  0.0592  0.2996
 3342SOL    HW110925   1.266   3.696   2.261 -0.8230  3.2606  0.9853
 3342SOL    HW210926   1.394   3.747   2.173 -0.0745  0.6672  0.4861
 3343SOL     OW10927   5.461   2.814   2.348 -0.8232 -0.1831 -0.2070
 3343SOL    HW110928   5.411   2.809   2.261  0.1844  1.6728 -0.9498
 3343SOL    HW210929   5.559   2.823   2.331 -0.6323  0.5689  1.0930
 3344SOL     OW10930   4.150   2.431   1.002 -0.7681 -0.1371 -0.5627
 3344SOL    HW110931   4.247   2.455   1.008 -0.6248 -0.4798 -1.3722
 3344SOL    HW210932   4.114   2.462   0.914 -1.2734 -0.4436 -0.4646
 3345SOL     OW10933   5.929   0.615   3.990 -0.2411 -0.3861  0.1662
 3345SOL    HW110934   5.903   0.711   3.995 -2.6640 -1.0482  1.7240
 3345SOL    HW210935   5.849   0.558   4.005  1.6549 -2.6347  2.6088
 3346SOL     OW10936   0.830   3.924   5.662 -0.0482  0.0434  0.4473
 3346SOL    HW110937   0.832   3.841   5.607 -0.3007  0.6228 -0.4598
 3346SOL    HW210938   0.849   3.901   5.757 -0.3555 -1.0807  0.2557
 3347SOL     OW10939   2.546   3.908   1.673  0.0802  0.2507 -1.0326
 3347SOL    HW110940   2.524   3.994   1.719 -0.5788  0.3495 -1.5223
 3347SOL    HW210941   2.464   3.852   1.664  0.2823  0.0492 -1.7066
 3348SOL     OW10942   5.849   3.499   0.074 -0.3281  0.1980 -0.1718
 3348SOL    HW110943   5.932   3.459   0.113  1.2662  1.9191 -1.6377
 3348SOL    HW210944   5.773   3.434   0.084  1.4254 -1.8935  0.2073
 3349SOL     OW10945   5.234   1.395   3.452 -1.0656 -0.4176  0.0483
 3349SOL    HW110946   5.162   1.383   3.520 -0.5499 -1.9395  0.3698
 3349SOL    HW210947   5.197   1.380   3.361 -1.6195  1.0006  0.0138
 3350SOL     OW10948   4.710   4.628   4.456  0.0824 -0.1083 -0.0613
 3350SOL    HW110949   4.669   4.559   4.398 -1.1515 -1.2735  2.0555
 3350SOL    HW210950   4.647   4.705   4.466  1.0444  0.9358 -1.6269
 3351SOL     OW10951   5.008   1.417   3.622 -0.2978  0.5975 -0.3790
 3351SOL    HW110952   4.933   1.475   3.654 -1.1851 -0.6447 -0.1533
 3351SOL    HW210953   5.091   1.437   3.676 -0.5978  1.5994 -0.2686
 3352SOL     OW10954   5.979   1.571   3.538  0.1445 -0.5283 -0.0045
 3352SOL    HW110955   6.011   1.478   3.551  1.2203 -0.4592 -1.7572
 3352SOL    HW210956   6.049   1.635   3.571  0.1156 -0.3567 -0.2707
 3353SOL     OW10957   4.699   1.167   1.596 -0.0250  0.0186  0.8680
 3353SOL    HW110958   4.652   1.227   1.531  0.5356 -0.1270  0.3208
 3353SOL    HW210959   4.797   1.176   1.585  0.0747 -1.3057  0.4825
 3354SOL     OW10960   5.232   1.500   2.299  0.1026 -0.7504  0.2532
 3354SOL    HW110961   5.174   1.440   2.243  0.3532 -1.0021  0.2625
 3354SOL    HW210962   5.178   1.579   2.329  0.2568 -0.0106 -1.2925
 3355SOL     OW10963   5.705   3.296   6.714  0.0132  0.8832  0.4105
 3355SOL    HW110964   5.703   3.330   6.620  1.4632  0.6586  0.2792
 3355SOL    HW210965   5.710   3.196   6.714  2.1497  0.9490  0.6479
 3356SOL     OW10966   4.671   5.903   3.006 -0.4271 -0.5075 -0.1606
 3356SOL    HW110967   4.748   5.878   2.948 -1.8019 -0.6378 -2.0010
 3356SOL    HW210968   4.639   5.994   2.982 -2.8999 -1.7031 -1.8006
 3357SOL     OW10969   4.342   2.513   6.734 -0.2843  0.0565  0.3397
 3357SOL    HW110970   4.253   2.558   6.741  0.0603  1.0654 -1.1388
 3357SOL    HW210971   4.413   2.581   6.717  0.5204 -0.8763 -0.1800
 3358SOL     OW10972   5.066   3.647   2.557 -0.3313 -0.2153 -0.7308
 3358SOL    HW110973   4.993   3.584   2.586 -0.6247  0.0731 -0.8398
 3358SOL    HW210974   5.124   3.668   2.636 -0.9772  0.3639 -0.3984
 3359SOL     OW10975   6.351   6.026   0.952  0.4543  0.2776 -0.3223
 3359SOL    HW110976   6.341   6.104   1.012 -0.1402  1.8541 -2.3466
 3359SOL    HW210977   6.271   5.967   0.960  1.2252 -0.5732  1.7296
 3360SOL     OW10978   3.249   5.803   4.133  0.3130  0.2929 -0.3019
 3360SOL    HW110979   3.312   5.730   4.159  0.0219  0.2689  0.3759
 3360SOL    HW210980   3.172   5.765   4.084 -0.6186 -0.0993  1.3892
 3361SOL     OW10981   3.842   4.719   5.348 -0.4067  0.8556  0.1462
 3361SOL    HW110982   3.820   4.784   5.275 -0.2004  0.0210 -0.6768
 3361SOL    HW210983   3.783   4.638   5.339  0.1647  0.4044  0.4295
 3362SOL     OW10984   4.590   4.012   1.348  0.8069  0.0640  0.0410
 3362SOL    HW110985   4.495   4.043   1.341  0.6993 -0.5924 -2.2023
 3362SOL    HW210986   4.600   3.955   1.429 -0.1856  1.7890  1.4583
 3363SOL     OW10987   1.146   1.527   6.656 -0.5328 -0.4494 -0.4410
 3363SOL    HW110988   1.172   1.623   6.659  0.0083 -0.5684 -1.0578
 3363SOL    HW210989   1.180   1.481   6.738  1.6234 -0.6846 -1.3790
 3364SOL     OW10990   2.602   3.395   5.722  0.0381  0.7471 -0.3606
 3364SOL    HW110991   2.537   3.437   5.785 -0.2116  2.0078 -1.4051
 3364SOL    HW210992   2.678   3.458   5.706 -0.2298  0.7376 -1.7885
 3365SOL     OW10993   2.688   3.447   6.930  0.3344  0.1836  0.0306
 3365SOL    HW110994   2.648   3.492   7.010 -1.7378 -0.9237 -0.2997
 3365SOL    HW210995   2.760   3.385   6.960 -1.2759 -1.1964  1.2586
 3366SOL     OW10996   4.127   0.969   3.202  0.1416 -0.9805  0.2964
 3366SOL    HW110997   4.221   0.984   3.171 -0.0213 -2.5981 -1.1154
 3366SOL    HW210998   4.090   0.887   3.158 -2.1421 -0.0742  0.3961
 3367SOL     OW10999   4.391   2.627   5.933  0.3149 -0.0005 -0.3011
 3367SOL    HW111000   4.308   2.582   5.965  1.5576 -1.0579  1.6164
 3367SOL    HW211001   4.443   2.661   6.011  2.3833 -0.6385 -1.3176
 3368SOL     OW11002   5.257   1.504   5.561 -0.1058  0.4218  0.2846
 3368SOL    HW111003   5.236   1.407   5.548 -0.9776 -0.1748  4.5792
 3368SOL    HW211004   5.296   1.517   5.652 -0.0175  4.1323 -0.1606
 3369SOL     OW11005   6.121   6.043   3.733 -0.0712 -0.4831 -0.2466
 3369SOL    HW111006   6.201   6.102   3.744 -1.4147  1.2253  0.8475
 3369SOL    HW211007   6.041   6.086   3.776 -1.6835 -1.9478 -1.6258
 3370SOL     OW11008   1.258   2.553   3.374  0.2695 -0.5727  0.5468
 3370SOL    HW111009   1.260   2.610   3.292 -0.0772 -0.2147  0.7820
 3370SOL    HW211010   1.348   2.551   3.416  0.6543 -1.3882 -0.2603
 3371SOL     OW11011   1.814   5.797   0.135 -0.2712 -0.0972  0.2082
 3371SOL    HW111012   1.815   5.809   0.235  0.6025 -0.1682  0.2125
 3371SOL    HW211013   1.875   5.864   0.093  0.5857 -1.0915 -0.1602
 3372SOL     OW11014   6.341   5.872   2.077 -0.4837 -0.5593 -0.3256
 3372SOL    HW111015   6.396   5.806   2.127  0.9026 -0.0768 -1.1520
 3372SOL    HW211016   6.284   5.825   2.010 -0.3786 -0.9921 -0.1118
 3373SOL     OW11017   4.713   3.022   5.847 -0.0542 -0.1223  0.1716
 3373SOL    HW111018   4.769   3.105   5.857 -0.4462  0.1617  0.0596
 3373SOL    HW211019   4.709   2.996   5.751 -2.1216  1.3122 -0.2218
 3374SOL     OW11020   2.040   6.639   3.903  0.1676  0.1788  0.1039
 3374SOL    HW111021   2.019   6.718   3.845 -2.1193 -0.2327  0.2706
 3374SOL    HW211022   2.099   6.575   3.854  1.4397  1.6006 -0.3023
 3375SOL     OW11023   4.457   5.318   2.654  0.0558 -0.0956  0.1594
 3375SOL    HW111024   4.458   5.263   2.737  0.0320 -1.6681 -0.8486
 3375SOL    HW211025   4.362   5.332   2.623 -0.0507  1.7838  1.1818
 3376SOL     OW11026   3.746   5.623   5.090  0.9297  0.3879 -0.3047
 3376SOL    HW111027   3.751   5.641   5.188  1.7133 -0.3576 -0.1865
 3376SOL    HW211028   3.664   5.570   5.070 -0.2937  2.2424 -0.3655
 3377SOL     OW11029   2.474   2.226   4.946  0.6247  0.2657  0.0524
 3377SOL    HW111030   2.386   2.177   4.946  0.2168  0.9688  0.5768
 3377SOL    HW211031   2.464   2.313   4.898  1.2289  0.0369 -0.4979
 3378SOL     OW11032   2.362   5.037   5.800  0.2167  0.0502  0.1434
 3378SOL    HW111033   2.272   5.073   5.825 -0.5850 -1.2049 -0.8220
 3378SOL    HW211034   2.426   5.050   5.876 -0.4283  2.0745  0.3935
 3379SOL     OW11035   0.083   0.857   3.216 -0.0553 -0.1166  0.5077
 3379SOL    HW111036   0.100   0.788   3.287  0.4970  0.0014  0.4995
 3379SOL    HW211037   0.085   0.814   3.126  1.1910  0.0390  0.4388
 3380SOL     OW11038   2.128   4.261   4.026  0.0844  0.0224 -0.0214
 3380SOL    HW111039   2.202   4.306   4.076 -1.0398  0.7528  1.0327
 3380SOL    HW211040   2.081   4.328   3.968  0.5559 -0.5497 -1.1016
 3381SOL     OW11041   2.784   2.402   6.282  0.2436 -0.3064  0.2441
 3381SOL    HW111042   2.798   2.340   6.359 -1.7087  1.5770  2.2643
 3381SOL    HW211043   2.687   2.402   6.257  0.1448  2.0637  0.4770
 3382SOL     OW11044   6.561   5.214   0.147  0.6973 -0.5704 -0.2357
 3382SOL    HW111045   6.641   5.244   0.094  0.3515 -1.4621 -1.2977
 3382SOL    HW211046   6.503   5.293   0.166  1.2498 -0.0950 -0.4638
 3383SOL     OW11047   5.003   5.783   5.922 -0.0673  0.2068 -0.1342
 3383SOL    HW111048   5.045   5.759   5.835  2.1472 -0.7218  1.1264
 3383SOL    HW211049   4.986   5.882   5.925  1.8409  0.5798 -0.7911
 3384SOL     OW11050   3.047   0.834   3.317  0.5645  0.2461  0.3628
 3384SOL    HW111051   3.094   0.815   3.231  0.3805  1.0792  0.0650
 3384SOL    HW211052   3.108   0.883   3.379  0.3354  0.6885  0.2489
 3385SOL     OW11053   0.801   4.719   0.645 -0.0192  0.1850 -0.4318
 3385SOL    HW111054   0.834   4.774   0.722 -0.9249  0.4156 -0.1957
 3385SOL    HW211055   0.811   4.770   0.560 -0.5302  0.5827 -0.2561
 3386SOL     OW11056   6.094   4.925   6.556  0.0829  0.2884  0.2518
 3386SOL    HW111057   6.102   4.982   6.638  0.4340  0.9664 -0.2393
 3386SOL    HW211058   6.162   4.852   6.560  1.2405  1.3140 -0.2010
 3387SOL     OW11059   1.015   1.723   4.179  0.4216  0.3086 -0.3254
 3387SOL    HW111060   0.928   1.769   4.194  0.3596  0.9350 -2.2876
 3387SOL    HW211061   1.031   1.656   4.252 -1.5215  0.4258  0.2539
 3388SOL     OW11062   3.746   5.826   0.318  0.0942  0.4650  0.2618
 3388SOL    HW111063   3.714   5.789   0.405 -0.4510  2.2724  0.8645
 3388SOL    HW211064   3.694   5.784   0.243 -1.8970  1.3934  1.0523
 3389SOL     OW11065   2.142   5.018   0.557 -0.6657 -0.9326 -0.1367
 3389SOL    HW111066   2.130   5.023   0.656 -2.4636  0.9515 -0.3972
 3389SOL    HW211067   2.055   4.994   0.514 -0.3973  0.2547 -1.3827
 3390SOL     OW11068   3.134   0.927   0.446  0.1276 -0.4000  0.3501
 3390SOL    HW111069   3.102   0.988   0.519  0.7649 -1.4541  1.5361
 3390SOL    HW211070   3.232   0.941   0.432  0.1686 -0.7768  0.2544
 3391SOL     OW11071   4.200   0.558   3.100  0.0969 -0.0767 -0.0274
 3391SOL    HW111072   4.122   0.536   3.041 -0.6908  0.3184  0.8423
 3391SOL    HW211073   4.285   0.547   3.048 -0.5718  0.2613 -1.2283
 3392SOL     OW11074   3.166   6.702   4.211 -0.1485  0.1241 -0.2044
 3392SOL    HW111075   3.181   6.782   4.153  2.6608  0.2950  0.6340
 3392SOL    HW211076   3.092   6.721   4.276  0.7781  2.2659  0.3081
 3393SOL     OW11077   4.862   3.196   5.084 -0.0694 -0.4897 -0.8775
 3393SOL    HW111078   4.898   3.253   5.010  1.1761  0.8789  0.7144
 3393SOL    HW211079   4.766   3.174   5.064 -0.2648  1.2155 -2.1068
 3394SOL     OW11080   3.859   1.199   1.107 -0.2606  0.1133  0.3804
 3394SOL    HW111081   3.860   1.101   1.125  1.7170  0.3222  1.6640
 3394SOL    HW211082   3.889   1.215   1.012  0.5309 -0.4792  0.5183
 3395SOL     OW11083   1.020   6.899   4.444 -0.0401  0.5208 -0.4794
 3395SOL    HW111084   1.009   6.984   4.496 -0.2506  0.5545 -0.5783
 3395SOL    HW211085   0.951   6.833   4.473  3.0224 -1.4552  3.1596
 3396SOL     OW11086   3.740   2.775   6.805  0.1271  0.3599  0.1527
 3396SOL    HW111087   3.783   2.691   6.838 -0.6211 -0.4326 -0.8184
 3396SOL    HW211088   3.795   2.813   6.730  1.9262  2.2591  2.3129
 3397SOL     OW11089   1.709   5.129   2.954 -0.0034  0.0963  0.4736
 3397SOL    HW111090   1.613   5.107   2.938 -0.3495  1.4090  0.6166
 3397SOL    HW211091   1.732   5.112   3.050  0.3248 -1.6018  0.1265
 3398SOL     OW11092   5.080   4.187   2.131  0.3691 -0.5055 -0.0718
 3398SOL    HW111093   4.983   4.164   2.134  0.5179 -1.6921 -2.4791
 3398SOL    HW211094   5.125   4.149   2.212 -0.9347 -1.0344  0.4405
 3399SOL     OW11095   0.458   5.056   5.488  0.4025  0.0847 -1.0578
 3399SOL    HW111096   0.436   5.154   5.489  1.4883  0.3373 -0.1382
 3399SOL    HW211097   0.524   5.038   5.415  2.1544  0.5220  0.3556
 3400SOL     OW11098   5.370   6.549   1.167  0.1872 -0.2718  0.2041
 3400SOL    HW111099   5.463   6.578   1.142  0.6538 -2.8241 -1.3732
 3400SOL    HW211100   5.303   6.604   1.117  1.0225 -1.6099 -2.5830
 3401SOL     OW11101   6.827   0.610   2.054  0.0401  0.0987  0.5578
 3401SOL    HW111102   6.897   0.539   2.048 -0.7270 -0.8235  1.8758
 3401SOL    HW211103   6.737   0.567   2.065 -0.5047  1.2732  0.8469
 3402SOL     OW11104   1.153   0.083   2.245  0.5309  0.1735 -0.3026
 3402SOL    HW111105   1.180   0.079   2.149 -1.3995 -3.3568 -0.8840
 3402SOL    HW211106   1.053   0.093   2.251  0.7042  1.3518  1.4007
 3403SOL     OW11107   0.819   0.317   4.393  0.0654 -0.1256 -0.1718
 3403SOL    HW111108   0.862   0.323   4.483 -0.6843  0.4418  0.1628
 3403SOL    HW211109   0.833   0.225   4.355  1.9061  0.1615 -0.2725
 3404SOL     OW11110   0.693   4.574   6.947  0.4532 -0.2358 -0.4826
 3404SOL    HW111111   0.630   4.651   6.964  0.3683 -0.2379 -0.7912
 3404SOL    HW211112   0.720   4.574   6.851 -1.6596 -2.1739 -1.1521
 3405SOL     OW11113   4.887   4.755   2.595 -0.4104 -0.1005 -0.0448
 3405SOL    HW111114   4.830   4.836   2.580 -0.7413 -0.1313  0.9807
 3405SOL    HW211115   4.887   4.699   2.512  0.8713  1.5560 -1.2235
 3406SOL     OW11116   3.985   4.027   1.824 -0.3527 -0.5926  0.3395
 3406SOL    HW111117   3.887   4.046   1.821  0.0877  1.8265 -0.2485
 3406SOL    HW211118   4.030   4.091   1.886  1.0159 -0.8943 -0.3165
 3407SOL     OW11119   4.442   6.879   3.362  0.0356  0.0661 -0.0959
 3407SOL    HW111120   4.385   6.956   3.333 -0.5308 -0.1648  0.3930
 3407SOL    HW211121   4.443   6.810   3.290  0.7376  0.6249 -0.6379
 3408SOL     OW11122   5.791   4.986   1.110  0.0172  0.3794 -1.0054
 3408SOL    HW111123   5.842   5.056   1.062  1.1786 -0.7002 -1.4075
 3408SOL    HW211124   5.823   4.979   1.205 -0.3994  0.6694 -0.8372
 3409SOL     OW11125   6.164   2.953   1.541  0.2028 -0.2410 -0.3521
 3409SOL    HW111126   6.079   2.961   1.490 -0.4648  1.0183  0.9059
 3409SOL    HW211127   6.150   2.895   1.621 -0.4142  2.4512  1.6218
 3410SOL     OW11128   3.223   0.918   4.358 -0.2787 -0.1418 -0.0219
 3410SOL    HW111129   3.237   0.881   4.267 -2.3220 -0.2108 -0.3590
 3410SOL    HW211130   3.277   1.002   4.369  0.8262 -0.7161 -0.8761
 3411SOL     OW11131   6.554   5.510   6.112 -0.3723  0.1958 -0.0921
 3411SOL    HW111132   6.565   5.511   6.211  0.4915  0.4551 -0.1844
 3411SOL    HW211133   6.587   5.597   6.074 -0.5507  0.0347 -0.6223
 3412SOL     OW11134   5.021   3.952   0.384  0.6340  0.0710 -0.1153
 3412SOL    HW111135   5.039   4.045   0.416  1.0493  0.4220 -1.3337
 3412SOL    HW211136   5.093   3.891   0.418 -0.1093 -0.0107  1.4254
 3413SOL     OW11137   0.016   0.722   6.863  0.2455 -0.6361 -0.0432
 3413SOL    HW111138  -0.061   0.775   6.900 -1.0050 -2.8083  0.5993
 3413SOL    HW211139   0.097   0.739   6.919 -0.2903  0.0877  0.5484
 3414SOL     OW11140   1.326   5.843   6.273  0.7703  0.3832 -1.1928
 3414SOL    HW111141   1.242   5.866   6.224  0.8943 -0.5724 -1.8820
 3414SOL    HW211142   1.346   5.914   6.341 -1.5746 -0.2940  0.2988
 3415SOL     OW11143   2.776   6.895   4.518  0.3470 -0.3372  0.3001
 3415SOL    HW111144   2.770   6.955   4.598  0.2226 -0.1525  0.1510
 3415SOL    HW211145   2.702   6.827   4.522  0.3285 -0.3156  0.3288
 3416SOL     OW11146   1.835   4.057   5.279  0.0648  0.1634 -0.1587
 3416SOL    HW111147   1.794   4.127   5.338 -0.4640  0.3364 -0.7238
 3416SOL    HW211148   1.918   4.092   5.238 -0.6593  0.7944 -1.1304
 3417SOL     OW11149   4.577   4.768   3.338  0.1493 -0.2045 -0.2168
 3417SOL    HW111150   4.490   4.814   3.319 -0.0686  0.0646  1.2941
 3417SOL    HW211151   4.653   4.830   3.316 -0.0468 -0.1817 -0.8619
 3418SOL     OW11152   2.120   3.314   0.461  0.7335 -0.1564 -0.2595
 3418SOL    HW111153   2.130   3.262   0.376 -0.2649 -1.0873  0.1721
 3418SOL    HW211154   2.027   3.351   0.467  1.2177  1.1328 -0.2287
 3419SOL     OW11155   6.906   1.645   6.731  0.4121 -0.8162 -0.2949
 3419SOL    HW111156   6.812   1.651   6.762  0.4221  0.5009 -0.4554
 3419SOL    HW211157   6.908   1.613   6.636  0.1065 -0.4510 -0.4231
 3420SOL     OW11158   0.115   6.785   1.559 -0.0337  0.1942  0.0573
 3420SOL    HW111159   0.150   6.832   1.640  2.1912 -0.4078 -0.5005
 3420SOL    HW211160   0.111   6.848   1.482  1.5946 -0.1105 -0.3217
 3421SOL     OW11161   0.894   3.299   5.234 -0.7639  0.2793 -0.6642
 3421SOL    HW111162   0.958   3.323   5.160  0.0483  2.0649  0.5485
 3421SOL    HW211163   0.801   3.325   5.207 -0.5654  0.3741 -1.2784
 3422SOL     OW11164   5.453   4.088   2.988 -0.7862  0.0347 -0.4241
 3422SOL    HW111165   5.512   4.165   2.965 -0.7095  0.1123  0.0257
 3422SOL    HW211166   5.400   4.109   3.070 -2.4611  0.5079 -1.5705
 3423SOL     OW11167   5.695   3.543   6.088 -0.3243  0.1067  0.3603
 3423SOL    HW111168   5.723   3.639   6.091  0.5005 -0.1362  0.5678
 3423SOL    HW211169   5.605   3.533   6.130  0.3693  0.5186  2.0177
 3424SOL     OW11170   4.443   1.258   2.794  0.0585  0.4807 -0.1084
 3424SOL    HW111171   4.518   1.196   2.770 -1.6033 -0.6805 -2.9089
 3424SOL    HW211172   4.479   1.351   2.805  1.8019  0.2372 -2.7558
 3425SOL     OW11173   5.566   1.309   5.572  0.2970  0.3991  0.2085
 3425SOL    HW111174   5.571   1.211   5.552  0.7391  0.4073  0.2472
 3425SOL    HW211175   5.489   1.327   5.633  0.9689 -0.1149  1.2414
 3426SOL     OW11176   2.114   4.577   2.011 -0.4869 -0.0269 -0.1684
 3426SOL    HW111177   2.103   4.577   1.912  0.3143  0.8324 -0.2743
 3426SOL    HW211178   2.210   4.559   2.034 -0.9407 -1.7298  0.5088
 3427SOL     OW11179   0.504   2.382   5.310 -0.2690 -0.0108 -0.1478
 3427SOL    HW111180   0.453   2.425   5.235 -1.4036 -0.1221  0.5325
 3427SOL    HW211181   0.540   2.294   5.279  2.1955  1.4044 -1.5947
 3428SOL     OW11182   0.220   0.527   1.275 -0.2665 -0.4031 -0.0144
 3428SOL    HW111183   0.182   0.599   1.334  0.8293 -0.0258  0.2672
 3428SOL    HW211184   0.209   0.439   1.320 -2.9901 -0.6698 -1.0263
 3429SOL     OW11185   2.363   4.152   5.676 -0.2978  0.4182 -0.5643
 3429SOL    HW111186   2.343   4.054   5.677  1.0748  0.1261 -0.5094
 3429SOL    HW211187   2.309   4.196   5.604 -0.0020 -0.5963 -1.4393
 3430SOL     OW11188   6.567   4.909   2.450 -0.1948 -0.1478  0.1699
 3430SOL    HW111189   6.517   4.844   2.392  1.1127 -1.0189 -0.0112
 3430SOL    HW211190   6.536   4.900   2.545 -0.1219 -0.9520  0.1226
 3431SOL     OW11191   0.536   0.873   0.917 -0.1919 -0.4034 -0.3739
 3431SOL    HW111192   0.634   0.880   0.897 -0.5352 -0.6403 -2.3139
 3431SOL    HW211193   0.489   0.954   0.883 -0.5749  0.1816  1.4438
 3432SOL     OW11194   0.362   5.084   4.913  0.4830  0.1729  0.2908
 3432SOL    HW111195   0.416   5.004   4.939 -1.1270 -1.0467 -0.0055
 3432SOL    HW211196   0.423   5.157   4.883  1.9123 -1.6151 -1.3514
 3433SOL     OW11197   0.234   4.260   3.842  0.1271  0.3882 -0.0799
 3433SOL    HW111198   0.192   4.175   3.811  0.7281 -0.0848  0.3672
 3433SOL    HW211199   0.167   4.333   3.841 -0.5618 -0.2343  0.1285
 3434SOL     OW11200   6.574   3.003   3.586  0.3215  0.4540 -0.1197
 3434SOL    HW111201   6.614   3.039   3.671  2.3275  1.9082 -1.5857
 3434SOL    HW211202   6.483   2.968   3.605  0.2800  1.6988  2.4349
 3435SOL     OW11203   3.153   1.865   5.576 -0.0559 -1.0270 -0.9505
 3435SOL    HW111204   3.076   1.841   5.635  0.8018 -0.2661  0.5552
 3435SOL    HW211205   3.214   1.928   5.625 -0.4267  1.4541 -3.4168
 3436SOL     OW11206   6.864   0.626   1.711  0.1508 -0.4016 -0.7469
 3436SOL    HW111207   6.829   0.711   1.672  0.7084  0.1388 -0.1015
 3436SOL    HW211208   6.805   0.598   1.787  2.4089  1.9324  2.0963
 3437SOL     OW11209   5.473   1.575   1.477  0.2912 -0.1485 -0.1835
 3437SOL    HW111210   5.509   1.583   1.570 -0.7359  0.5149  0.1719
 3437SOL    HW211211   5.504   1.652   1.422 -0.9610  0.6886  0.2611
 3438SOL     OW11212   3.442   2.118   3.953 -0.0528  0.3235 -0.3989
 3438SOL    HW111213   3.364   2.161   3.998  1.8314  1.9096  1.5431
 3438SOL    HW211214   3.484   2.051   4.015  0.2035 -0.4694 -1.3957
 3439SOL     OW11215   2.067   4.296   2.304  0.1665 -0.2157  0.2127
 3439SOL    HW111216   2.013   4.212   2.291  1.9302 -1.1668 -1.5513
 3439SOL    HW211217   2.017   4.374   2.267 -1.3403 -0.4796  1.5367
 3440SOL     OW11218   4.986   6.673   3.799 -0.3807 -0.0529  0.2427
 3440SOL    HW111219   4.950   6.747   3.856  1.3694  0.9707  0.0808
 3440SOL    HW211220   5.031   6.711   3.718  0.9957 -1.2433  0.4008
 3441SOL     OW11221   0.879   5.221   0.629  0.3009  0.3509  0.3462
 3441SOL    HW111222   0.816   5.215   0.707 -0.3083 -0.9034 -0.2145
 3441SOL    HW211223   0.962   5.170   0.650 -0.3364 -0.9627 -0.2393
 3442SOL     OW11224   6.052   0.009   1.877 -0.4096  0.2180 -0.1233
 3442SOL    HW111225   6.044  -0.077   1.827  0.6805 -0.8626  1.4878
 3442SOL    HW211226   6.147   0.024   1.904 -0.7429  1.4474  0.4438
 3443SOL     OW11227   1.311   6.899   5.177  0.1154  0.2245 -0.1677
 3443SOL    HW111228   1.335   6.979   5.232  0.8239 -1.0925  1.5248
 3443SOL    HW211229   1.312   6.817   5.234 -1.1682 -0.9497 -1.7102
 3444SOL     OW11230   3.632   2.375   6.808  0.1691  0.3842  0.0809
 3444SOL    HW111231   3.597   2.296   6.858 -0.1064 -0.1478 -0.9129
 3444SOL    HW211232   3.575   2.391   6.727  0.5103  1.3059  0.0026
 3445SOL     OW11233   6.258   1.071   0.724 -0.1136 -0.0448 -0.1162
 3445SOL    HW111234   6.164   1.059   0.691 -0.1872 -1.1372  0.4460
 3445SOL    HW211235   6.302   1.145   0.673 -0.6460 -0.8116 -1.7549
 3446SOL     OW11236   5.160   2.555   2.221 -0.1214  0.0617 -0.2622
 3446SOL    HW111237   5.144   2.651   2.243  0.8567  0.1061  0.2854
 3446SOL    HW211238   5.125   2.498   2.295  0.8471  0.0882  0.2289
 3447SOL     OW11239   0.854   1.862   1.545  0.0613  0.4137  0.2602
 3447SOL    HW111240   0.910   1.818   1.615 -0.4200  1.4581  1.3303
 3447SOL    HW211241   0.767   1.814   1.537 -0.0350  0.5228  0.6558
 3448SOL     OW11242   6.061   3.218   6.374 -0.6161  0.5522 -0.0139
 3448SOL    HW111243   6.008   3.166   6.307  0.8426 -0.8721 -0.1327
 3448SOL    HW211244   6.018   3.210   6.464  1.6719 -4.7523  1.0197
 3449SOL     OW11245   0.278   2.175   1.617  0.5034 -0.2017 -0.0497
 3449SOL    HW111246   0.289   2.271   1.640  0.7876 -0.7340  2.4353
 3449SOL    HW211247   0.353   2.145   1.558  1.3631  0.7314  0.5370
 3450SOL     OW11248   0.348   5.739   3.002 -0.3785 -0.3816  0.0246
 3450SOL    HW111249   0.283   5.789   3.058 -0.3847 -1.6908  1.2592
 3450SOL    HW211250   0.306   5.654   2.970  0.0612 -0.2711 -0.8995
 3451SOL     OW11251   3.214   3.861   0.616  0.0842  0.0201  0.5106
 3451SOL    HW111252   3.189   3.764   0.613  0.1917  0.0104 -0.6693
 3451SOL    HW211253   3.243   3.885   0.709 -0.6193 -0.8962  0.9878
 3452SOL     OW11254   4.435   3.647   1.653 -0.0685  0.2782  0.0979
 3452SOL    HW111255   4.431   3.618   1.557 -1.6369  0.6812  0.0140
 3452SOL    HW211256   4.342   3.663   1.686  0.3876 -0.7068  1.9631
 3453SOL     OW11257   5.083   4.115   3.389  0.1454  0.0447  0.3659
 3453SOL    HW111258   4.987   4.143   3.396 -0.0030  0.4061 -2.2000
 3453SOL    HW211259   5.141   4.189   3.421 -0.3756  1.8879 -2.5214
 3454SOL     OW11260   1.224   1.365   6.858 -0.0558 -0.1713 -0.3395
 3454SOL    HW111261   1.285   1.292   6.887  1.2226  1.0738  0.1965
 3454SOL    HW211262   1.136   1.356   6.906  0.8009 -0.1757  1.2915
 3455SOL     OW11263   3.319   0.960   0.009  0.8551  0.3459 -0.0487
 3455SOL    HW111264   3.231   0.944   0.054  0.7167 -0.1879 -0.4992
 3455SOL    HW211265   3.311   1.040  -0.051  0.7103  0.3615 -0.0096
 3456SOL     OW11266   3.174   4.287   6.626 -0.0210 -0.0357 -0.2004
 3456SOL    HW111267   3.225   4.207   6.593 -1.9775 -0.4321 -2.4699
 3456SOL    HW211268   3.220   4.370   6.595  0.7867 -0.2992  0.2481
 3457SOL     OW11269   6.154   5.963   1.293  0.3092 -0.4709 -0.5382
 3457SOL    HW111270   6.058   5.941   1.315 -0.1998  1.5696 -0.5026
 3457SOL    HW211271   6.157   6.013   1.206  1.1988  0.4396 -0.0066
 3458SOL     OW11272   1.383   5.094   6.788 -0.0101 -0.3605 -0.6021
 3458SOL    HW111273   1.402   5.090   6.690  0.8622 -1.4192 -0.4041
 3458SOL    HW211274   1.377   5.002   6.824  1.8488 -0.0104  0.7438
 3459SOL     OW11275   0.344   4.692   1.983 -0.1152 -0.1742 -1.1084
 3459SOL    HW111276   0.426   4.683   2.039 -0.0826 -2.0064 -1.4055
 3459SOL    HW211277   0.271   4.735   2.037  0.0455 -1.5053  0.2236
 3460SOL     OW11278   5.648   0.212   5.417 -0.4810 -0.7428  0.0408
 3460SOL    HW111279   5.726   0.275   5.420 -1.0155 -0.0769 -0.0074
 3460SOL    HW211280   5.672   0.128   5.467  0.2931 -0.5794 -0.0396
 3461SOL     OW11281   0.351   3.995   6.931  0.3604 -0.1344  0.1278
 3461SOL    HW111282   0.270   3.941   6.907 -0.3596  1.2837 -0.7136
 3461SOL    HW211283   0.322   4.083   6.969  1.5230 -0.2485  1.3601
 3462SOL     OW11284   0.226   3.916   4.986 -0.5688 -0.1871  0.0104
 3462SOL    HW111285   0.321   3.938   5.005 -0.6782 -0.0245  0.3819
 3462SOL    HW211286   0.217   3.883   4.892 -0.3817  1.2369 -0.5286
 3463SOL     OW11287   3.083   6.165   2.071 -0.3624  0.2035 -0.4640
 3463SOL    HW111288   3.176   6.127   2.076 -0.2037  0.6682  0.3948
 3463SOL    HW211289   3.022   6.110   2.128 -0.1524  1.1542  0.7047
 3464SOL     OW11290   1.228   4.532   0.417  0.7694 -0.3650  0.2857
 3464SOL    HW111291   1.287   4.531   0.498 -0.4867 -0.5273  1.2355
 3464SOL    HW211292   1.196   4.625   0.400  1.0504 -0.3272 -0.0369
 3465SOL     OW11293   3.429   6.805   1.443  0.2188  0.3215  0.1908
 3465SOL    HW111294   3.385   6.816   1.354  0.8065 -0.0016 -0.1416
 3465SOL    HW211295   3.439   6.895   1.486 -0.3165  0.4486  0.0573
 3466SOL     OW11296   6.518   5.385   4.223  0.4876 -0.0097  0.5337
 3466SOL    HW111297   6.616   5.396   4.206  0.5792  0.3973  1.3089
 3466SOL    HW211298   6.468   5.451   4.167  0.8555  2.1765  2.5991
 3467SOL     OW11299   4.927   3.499   3.506  0.0895 -0.4120  0.3518
 3467SOL    HW111300   4.922   3.592   3.542  1.2320 -0.0951 -0.2843
 3467SOL    HW211301   4.981   3.442   3.568  0.2175 -0.4084  0.2433
 3468SOL     OW11302   4.922   3.301   0.587  0.4236  0.6827 -0.1773
 3468SOL    HW111303   4.833   3.258   0.569  0.8918 -0.2798 -0.2159
 3468SOL    HW211304   4.967   3.254   0.663  1.0523  0.9575 -0.3754
 3469SOL     OW11305   3.555   2.096   2.579 -0.3283 -0.0538 -0.6821
 3469SOL    HW111306   3.608   2.017   2.609  3.9135  2.1601 -1.5863
 3469SOL    HW211307   3.602   2.141   2.503 -2.8346  3.0636 -0.6086
 3470SOL     OW11308   0.511   3.047   6.472  0.0353 -0.6291 -0.0961
 3470SOL    HW111309   0.514   2.952   6.502  1.0498 -0.8371 -0.8191
 3470SOL    HW211310   0.603   3.087   6.478 -0.5566  0.6365  1.2031
 3471SOL     OW11311   4.407   2.501   1.032  0.3333  0.1455 -0.1111
 3471SOL    HW111312   4.504   2.477   1.039  0.2838  0.4658  2.8190
 3471SOL    HW211313   4.395   2.595   1.064 -0.9459  0.1774 -0.6485
 3472SOL     OW11314   5.364   4.976   3.857 -0.5721  0.2724  0.2279
 3472SOL    HW111315   5.354   4.947   3.762 -0.3321 -1.8546  0.8022
 3472SOL    HW211316   5.325   5.067   3.868 -2.6072 -0.3187 -1.4463
 3473SOL     OW11317   1.468   2.642   1.794 -0.4403  0.2065  0.4581
 3473SOL    HW111318   1.426   2.671   1.708  1.1277 -0.2105 -0.4845
 3473SOL    HW211319   1.530   2.713   1.827 -0.6747  0.1621  1.0122
 3474SOL     OW11320   2.153   2.650   1.372  0.4453 -0.0251 -0.2396
 3474SOL    HW111321   2.243   2.631   1.411  0.4429 -0.7964 -0.5837
 3474SOL    HW211322   2.088   2.581   1.404 -0.2202  0.9784  0.6426
 3475SOL     OW11323   3.909   3.602   1.523  0.3607 -0.2484  0.5453
 3475SOL    HW111324   3.931   3.667   1.450  0.3536 -2.0800 -1.1642
 3475SOL    HW211325   3.989   3.587   1.580  1.4083 -1.2399 -1.1072
 3476SOL     OW11326   0.611   1.308   1.169 -0.5784  0.2968  0.6843
 3476SOL    HW111327   0.543   1.292   1.241 -1.9588  0.4886 -0.5301
 3476SOL    HW211328   0.657   1.221   1.147  0.5313  0.4034  2.3945
 3477SOL     OW11329   4.090   3.333   6.330  0.0214  0.0624 -0.0691
 3477SOL    HW111330   4.180   3.375   6.316  0.0392 -0.1183 -0.5089
 3477SOL    HW211331   4.020   3.405   6.330  0.0896  0.1312 -0.4681
 3478SOL     OW11332   0.900   4.052   1.826 -0.1074 -0.1134  0.0139
 3478SOL    HW111333   0.967   4.127   1.823 -0.8950  0.5879 -1.1345
 3478SOL    HW211334   0.920   3.992   1.903  1.0465  0.8171  0.4719
 3479SOL     OW11335   6.290   6.847   4.437  0.3190  0.2318  0.1022
 3479SOL    HW111336   6.320   6.783   4.507  0.7815  2.5509  2.1470
 3479SOL    HW211337   6.190   6.842   4.428  0.4133 -1.3465 -0.4442
 3480SOL     OW11338   1.204   3.456   4.681  0.3008  0.6931  0.3075
 3480SOL    HW111339   1.302   3.441   4.667 -0.1531  0.2548 -3.5152
 3480SOL    HW211340   1.170   3.521   4.613 -2.5362 -1.3604 -0.4379
 3481SOL     OW11341   3.480   3.193   1.429 -0.1883  0.1628  0.1696
 3481SOL    HW111342   3.529   3.135   1.363 -1.3802  1.4919 -2.0187
 3481SOL    HW211343   3.524   3.282   1.434 -0.0436  0.0369  1.3138
 3482SOL     OW11344   1.756   0.747   6.235 -0.1248 -0.2698 -0.1836
 3482SOL    HW111345   1.754   0.826   6.296  0.4546  0.3515 -0.9512
 3482SOL    HW211346   1.848   0.734   6.200 -0.9818  1.3717 -3.4351
 3483SOL     OW11347   0.516   3.380   1.641  0.3574  0.5482 -0.1966
 3483SOL    HW111348   0.486   3.474   1.654 -0.7139 -0.0580  2.4327
 3483SOL    HW211349   0.564   3.372   1.554  0.8586  3.5847 -0.3077
 3484SOL     OW11350   2.223   4.116   4.414 -0.3032 -0.5566  0.4312
 3484SOL    HW111351   2.254   4.154   4.501 -0.9654  0.2170  0.3419
 3484SOL    HW211352   2.245   4.179   4.340 -1.5449 -0.2602  0.2956
 3485SOL     OW11353   6.126   0.969   3.922 -0.0420 -0.0694 -0.4329
 3485SOL    HW111354   6.184   0.945   4.001 -2.0662  0.2292  1.2416
 3485SOL    HW211355   6.035   0.930   3.936 -2.0041  4.1488 -0.0711
 3486SOL     OW11356   1.558   3.254   2.741 -0.7229 -0.3180 -0.2100
 3486SOL    HW111357   1.592   3.319   2.673  0.2280 -0.2416  0.3206
 3486SOL    HW211358   1.553   3.163   2.701 -0.0182 -0.3018 -0.3335
 3487SOL     OW11359   0.177   3.499   6.325  0.3416  0.3064 -0.0405
 3487SOL    HW111360   0.193   3.464   6.417  0.4270 -0.1592 -0.2296
 3487SOL    HW211361   0.086   3.540   6.321 -0.3576 -1.1833 -0.1837
 3488SOL     OW11362   3.074   5.720   5.055  0.2124 -0.0974  0.3140
 3488SOL    HW111363   3.079   5.815   5.025  0.1327 -0.1838  0.0247
 3488SOL    HW211364   2.997   5.674   5.011 -1.1648  0.3098  2.1940
 3489SOL     OW11365   2.530   2.490   2.140 -0.3913 -0.0849 -0.2822
 3489SOL    HW111366   2.595   2.432   2.190 -1.7893 -0.1523  1.5725
 3489SOL    HW211367   2.523   2.458   2.045  1.7630 -0.4552 -0.3622
 3490SOL     OW11368   4.155   0.266   6.306 -0.2102 -0.0655 -0.4613
 3490SOL    HW111369   4.228   0.305   6.249 -1.6267  1.8092 -1.1203
 3490SOL    HW211370   4.185   0.261   6.401  0.6953  0.8879 -0.6806
 3491SOL     OW11371   2.455   6.538   5.134  0.0011  0.5058 -0.1771
 3491SOL    HW111372   2.474   6.636   5.122  2.0826  0.1789  0.0983
 3491SOL    HW211373   2.519   6.485   5.078 -1.7145 -0.7098 -1.0541
 3492SOL     OW11374   5.964   5.538   3.119 -0.0359 -0.4866 -0.1390
 3492SOL    HW111375   5.966   5.638   3.115 -0.0858 -0.3786  1.9215
 3492SOL    HW211376   5.956   5.502   3.026  3.1271  1.3215 -1.2582
 3493SOL     OW11377   2.332   0.337   1.613  0.2401  0.6850  0.4920
 3493SOL    HW111378   2.394   0.260   1.631 -0.6844 -0.0467  0.5984
 3493SOL    HW211379   2.373   0.397   1.544  0.6184 -0.3306 -0.1855
 3494SOL     OW11380   0.168   3.673   6.020 -0.0453  0.0501  0.1993
 3494SOL    HW111381   0.145   3.710   6.110 -0.8741  0.3444 -0.1263
 3494SOL    HW211382   0.267   3.675   6.007  0.0098  0.9502  0.6969
 3495SOL     OW11383   2.603   4.965   7.004  0.2725 -0.8126  0.2634
 3495SOL    HW111384   2.672   4.980   6.933  0.9164  0.0535  1.0410
 3495SOL    HW211385   2.514   4.948   6.962  0.3840  0.9403 -0.7589
 3496SOL     OW11386   4.359   1.305   3.149  0.2967  0.0314 -0.0106
 3496SOL    HW111387   4.284   1.295   3.214 -1.6280  1.5748 -1.8727
 3496SOL    HW211388   4.349   1.391   3.100  1.1107 -1.4927 -3.0609
 3497SOL     OW11389   4.486   1.007   5.795 -0.1592  1.2378  0.1000
 3497SOL    HW111390   4.540   0.988   5.877 -0.1805 -1.9909 -0.5297
 3497SOL    HW211391   4.540   1.063   5.732  2.0469 -0.8394  0.0151
 3498SOL     OW11392   5.022   5.173   5.783 -0.5931 -0.0171  0.0066
 3498SOL    HW111393   5.100   5.221   5.823 -0.1558 -0.1193 -0.7204
 3498SOL    HW211394   5.046   5.137   5.693 -0.6407 -2.2703  0.8048
 3499SOL     OW11395   4.044   5.690   1.903 -0.1446 -0.9604  0.2639
 3499SOL    HW111396   4.027   5.758   1.831  0.8709  0.0010  0.8971
 3499SOL    HW211397   4.089   5.610   1.862  0.2050 -0.5242 -0.2296
 3500SOL     OW11398   3.718   0.452   1.141 -0.2406 -0.1769  0.4333
 3500SOL    HW111399   3.661   0.371   1.148  2.3812 -2.0311  2.2749
 3500SOL    HW211400   3.708   0.492   1.049  0.0946 -3.9528 -1.4461
 3501SOL     OW11401   6.343   1.657   6.051 -0.3710  0.1332 -0.1895
 3501SOL    HW111402   6.414   1.598   6.011  0.7125  0.4479  1.1961
 3501SOL    HW211403   6.374   1.752   6.050 -0.1979  0.1226  1.5962
 3502SOL     OW11404   2.959   1.149   5.556  0.0717 -0.4650 -0.3455
 3502SOL    HW111405   2.963   1.065   5.611  0.8189 -0.3221 -0.1601
 3502SOL    HW211406   2.985   1.227   5.613 -0.7233 -0.0854 -0.4903
 3503SOL     OW11407   5.690   2.854   5.658  0.2310  0.2760  0.3906
 3503SOL    HW111408   5.782   2.876   5.627 -0.7555  2.2384 -1.4627
 3503SOL    HW211409   5.626   2.868   5.582 -1.9388  1.7605  2.3541
 3504SOL     OW11410   0.000   3.297   0.019  0.4171  0.1799  0.4109
 3504SOL    HW111411   0.089   3.331  -0.011 -0.6192  1.1658 -1.7802
 3504SOL    HW211412  -0.060   3.288  -0.060 -1.9409  1.0621  2.0210
 3505SOL     OW11413   0.701   4.775   2.816 -0.1220  0.0255  0.5439
 3505SOL    HW111414   0.692   4.690   2.765  0.5154 -0.8188  1.7964
 3505SOL    HW211415   0.615   4.825   2.814 -0.8743 -1.2352  0.8188
 3506SOL     OW11416   6.334   4.354   5.082 -0.0956  0.0791 -0.3079
 3506SOL    HW111417   6.252   4.302   5.059  0.8920 -1.2889 -0.9225
 3506SOL    HW211418   6.383   4.308   5.156  0.2364  0.7316 -0.1205
 3507SOL     OW11419   1.754   2.499   5.260 -0.1503  0.0473 -0.4205
 3507SOL    HW111420   1.714   2.554   5.186  1.8494  0.5772 -1.1763
 3507SOL    HW211421   1.732   2.541   5.348 -1.4661  0.1441 -0.7640
 3508SOL     OW11422   4.535   5.616   5.658  0.0772 -0.0275 -0.6132
 3508SOL    HW111423   4.548   5.681   5.583 -3.3879  0.3197 -1.0656
 3508SOL    HW211424   4.544   5.663   5.746 -0.9086  0.7749 -0.9228
 3509SOL     OW11425   0.280   1.140   6.210  0.5817  0.3285 -0.3410
 3509SOL    HW111426   0.185   1.126   6.236  0.6167  0.3035 -0.2289
 3509SOL    HW211427   0.299   1.238   6.204  1.1575  0.3873  1.8405
 3510SOL     OW11428   5.042   4.261   5.492  0.3264  0.5663  0.0594
 3510SOL    HW111429   4.985   4.263   5.409 -0.8394  0.6319  0.8344
 3510SOL    HW211430   5.086   4.172   5.499 -0.2001  0.2748 -0.2225
 3511SOL     OW11431   5.650   5.923   5.823  0.0209 -0.7069 -0.7168
 3511SOL    HW111432   5.655   6.019   5.851  1.1823 -0.7172 -0.8673
 3511SOL    HW211433   5.554   5.896   5.818 -0.3247 -0.3139  1.9241
 3512SOL     OW11434   3.946   0.193   5.248 -0.1812  0.8246  0.3601
 3512SOL    HW111435   3.926   0.098   5.224 -0.5798  1.0565 -0.2595
 3512SOL    HW211436   3.884   0.222   5.320  0.0063  0.5850  0.6197
 3513SOL     OW11437   3.649   4.481   1.488  0.7299  0.2844 -0.4658
 3513SOL    HW111438   3.724   4.502   1.426  2.1727  0.4179  1.2586
 3513SOL    HW211439   3.610   4.391   1.465  0.7336  0.6579 -1.9958
 3514SOL     OW11440   1.616   6.286   5.058  0.7042 -0.5820 -0.3275
 3514SOL    HW111441   1.577   6.211   5.004  0.1975 -0.6888  0.1827
 3514SOL    HW211442   1.677   6.340   4.999  0.5267 -0.9689 -0.8836
 3515SOL     OW11443   1.228   4.396   4.978 -0.0253 -0.1454  0.2575
 3515SOL    HW111444   1.320   4.433   4.987 -0.4617  1.0112  0.2010
 3515SOL    HW211445   1.189   4.425   4.890 -1.6215  2.2272  1.6235
 3516SOL     OW11446   2.516   3.024   1.051  0.5343 -0.1388 -0.6291
 3516SOL    HW111447   2.608   2.999   1.023  1.2193  1.6334 -0.1325
 3516SOL    HW211448   2.496   2.985   1.141  0.3217 -1.5026 -1.2469
 3517SOL     OW11449   4.223   6.512   3.334  0.0899  0.3976 -0.5473
 3517SOL    HW111450   4.321   6.499   3.346 -0.2964 -1.7248  0.9842
 3517SOL    HW211451   4.180   6.529   3.423 -1.0188  0.5826 -1.1022
 3518SOL     OW11452   2.054   3.531   3.872 -0.0990  0.3319  0.2235
 3518SOL    HW111453   2.060   3.527   3.972 -0.7502  0.5312  0.2802
 3518SOL    HW211454   2.057   3.626   3.842  1.6968  0.2037 -0.0772
 3519SOL     OW11455   6.629   2.480   1.436 -0.2346 -0.4782 -0.3638
 3519SOL    HW111456   6.553   2.488   1.501  1.5685  1.5519  1.6358
 3519SOL    HW211457   6.677   2.394   1.451 -2.1230 -1.8521 -1.7447
 3520SOL     OW11458   5.365   1.898   4.312 -0.2852 -0.5733 -0.1768
 3520SOL    HW111459   5.335   1.834   4.241 -1.3751 -1.3338  0.9265
 3520SOL    HW211460   5.396   1.847   4.392  1.3127  0.2653 -0.2151
 3521SOL     OW11461   4.419   2.333   2.450  0.1675  0.1009 -0.2030
 3521SOL    HW111462   4.321   2.316   2.439 -0.1217  2.0747 -1.0776
 3521SOL    HW211463   4.458   2.362   2.363  1.2704  0.5437  0.4175
 3522SOL     OW11464   3.206   6.066   6.667  0.6179 -0.0909  0.2136
 3522SOL    HW111465   3.162   6.011   6.738 -1.5729  0.0525 -0.9358
 3522SOL    HW211466   3.156   6.055   6.581  1.8558  1.4660 -0.7613
 3523SOL     OW11467   0.947   0.700   1.417  0.0078  1.6001 -0.0291
 3523SOL    HW111468   0.858   0.721   1.456 -1.6587 -1.9555 -1.4983
 3523SOL    HW211469   0.944   0.712   1.318  0.3190 -0.7791 -0.3837
 3524SOL     OW11470   6.454   0.207   1.257 -0.4918 -0.4585 -0.1032
 3524SOL    HW111471   6.504   0.261   1.190  1.3079  0.6836  2.0123
 3524SOL    HW211472   6.406   0.268   1.320 -2.4316 -1.5023 -0.5007
 3525SOL     OW11473   2.836   4.380   6.162  0.5621  0.2685  0.4229
 3525SOL    HW111474   2.791   4.333   6.238 -0.8246  0.4759 -0.2480
 3525SOL    HW211475   2.811   4.336   6.076  1.3241  0.6574 -0.0057
 3526SOL     OW11476   6.451   1.812   0.703 -0.5042  0.5536 -0.3369
 3526SOL    HW111477   6.488   1.905   0.691 -1.4704  0.9945  0.0308
 3526SOL    HW211478   6.378   1.797   0.637 -1.0528  0.4330  0.2938
 3527SOL     OW11479   0.440   3.011   4.642 -0.0382 -0.9458  0.3798
 3527SOL    HW111480   0.367   3.075   4.620 -0.3840 -1.3619  0.2884
 3527SOL    HW211481   0.435   2.986   4.739 -0.1687 -1.1628  0.3172
 3528SOL     OW11482   0.554   2.322   3.817 -0.0936 -0.4602  0.3914
 3528SOL    HW111483   0.638   2.269   3.810 -0.0844 -0.7515  2.1199
 3528SOL    HW211484   0.572   2.406   3.868 -0.6739 -0.0903  0.0012
 3529SOL     OW11485   1.312   2.722   4.459  0.5062  0.5619  0.1126
 3529SOL    HW111486   1.402   2.765   4.472  1.1594 -0.0104 -2.0975
 3529SOL    HW211487   1.323   2.638   4.407 -1.5228  1.6332 -2.2264
 3530SOL     OW11488   4.810   0.880   0.647  0.1132  0.6768  0.2568
 3530SOL    HW111489   4.903   0.872   0.612  0.3336 -1.3718  1.1745
 3530SOL    HW211490   4.745   0.850   0.576  0.3376 -0.3168  0.4593
 3531SOL     OW11491   5.655   2.337   2.737 -0.0110  0.2387  0.7710
 3531SOL    HW111492   5.735   2.297   2.693 -1.3848 -2.7925  0.7902
 3531SOL    HW211493   5.684   2.397   2.812  2.3311  4.0747 -2.7681
 3532SOL     OW11494   1.333   2.025   4.768  0.3110  0.2258 -0.0674
 3532SOL    HW111495   1.270   2.103   4.764  0.2232  0.2791  1.6447
 3532SOL    HW211496   1.301   1.954   4.705 -1.3439  0.3565  0.5720
 3533SOL     OW11497   5.491   6.448   3.512 -0.0050 -0.4457  0.4115
 3533SOL    HW111498   5.542   6.470   3.429  0.0567 -2.3224 -0.1086
 3533SOL    HW211499   5.554   6.439   3.589 -0.0121  0.8453  0.5950
 3534SOL     OW11500   3.345   0.741   3.661 -0.0737 -0.0720  0.1301
 3534SOL    HW111501   3.302   0.799   3.592 -1.0192  0.9598  1.5408
 3534SOL    HW211502   3.277   0.716   3.730  1.1770  0.1094  1.4580
 3535SOL     OW11503   1.805   4.199   6.574 -0.1535 -0.1185  0.4616
 3535SOL    HW111504   1.742   4.129   6.538  0.9025 -1.0646  0.4002
 3535SOL    HW211505   1.825   4.178   6.669  0.6943 -0.2983  0.2505
 3536SOL     OW11506   4.726   0.646   6.952  0.1586  0.0828 -1.0303
 3536SOL    HW111507   4.819   0.678   6.972 -0.2672 -0.5599  2.9845
 3536SOL    HW211508   4.703   0.571   7.015 -3.8720  1.8292 -0.0928
 3537SOL     OW11509   6.237   4.700   6.571 -0.2265 -0.0364  0.4656
 3537SOL    HW111510   6.318   4.722   6.625  0.9877  0.9517 -1.6253
 3537SOL    HW211511   6.262   4.634   6.499 -1.5896 -0.7134  0.5784
 3538SOL     OW11512   0.180   4.252   4.466 -0.3116 -0.2948 -0.0729
 3538SOL    HW111513   0.171   4.165   4.417 -1.0244 -0.3569  0.1575
 3538SOL    HW211514   0.104   4.312   4.441 -0.0557  0.1018  0.0938
 3539SOL     OW11515   6.159   0.985   2.888 -0.0321 -0.4088  0.3894
 3539SOL    HW111516   6.178   0.928   2.808 -1.3098 -2.1831  1.2556
 3539SOL    HW211517   6.099   1.061   2.862  0.0880 -0.5936 -0.4497
 3540SOL     OW11518   0.599   0.078   2.642  0.2028  0.1588 -0.3887
 3540SOL    HW111519   0.525   0.028   2.598 -0.6437  0.2498  0.8720
 3540SOL    HW211520   0.613   0.043   2.735  1.0800  0.7989 -0.2621
 3541SOL     OW11521   3.396   3.147   2.463  0.0015  0.0502  0.9107
 3541SOL    HW111522   3.346   3.105   2.539 -0.0131 -0.1455  0.7949
 3541SOL    HW211523   3.454   3.220   2.498  1.8549 -1.6050  1.4871
 3542SOL     OW11524   2.574   1.624   3.385  0.3329  0.2143 -0.4432
 3542SOL    HW111525   2.592   1.558   3.458  1.5235  0.1394 -0.7871
 3542SOL    HW211526   2.622   1.596   3.302 -1.1907  0.1750 -1.3382
 3543SOL     OW11527   6.094   2.140   2.991 -0.0115 -0.4714  0.2945
 3543SOL    HW111528   6.081   2.043   2.971  0.7729 -0.9470  1.9077
 3543SOL    HW211529   6.121   2.188   2.908  1.6599 -2.0238 -0.1144
 3544SOL     OW11530   6.676   3.457   3.311 -0.0104 -0.0742  0.2162
 3544SOL    HW111531   6.631   3.400   3.379  0.8490 -0.1223  0.7569
 3544SOL    HW211532   6.670   3.414   3.221  3.7221 -2.9601  1.1080
 3545SOL     OW11533   2.792   0.380   2.043  0.4571 -0.0694  0.4834
 3545SOL    HW111534   2.759   0.460   2.093  0.1580 -0.0516  0.2558
 3545SOL    HW211535   2.828   0.408   1.954  0.0815 -0.2204  0.2797
 3546SOL     OW11536   2.910   1.167   3.683 -0.3608  0.4448 -0.0118
 3546SOL    HW111537   2.871   1.245   3.731 -0.1380  0.4697  0.1319
 3546SOL    HW211538   2.859   1.150   3.599  0.8097  2.0205 -1.1040
 3547SOL     OW11539   2.606   5.489   0.016  0.3795 -0.2168 -0.0337
 3547SOL    HW111540   2.530   5.425   0.005  1.3388 -1.4301  0.3160
 3547SOL    HW211541   2.614   5.545  -0.066  0.9342 -2.0729 -1.2912
 3548SOL     OW11542   6.776   4.719   4.148 -0.0378 -0.4235  0.0263
 3548SOL    HW111543   6.828   4.758   4.072 -0.1748  0.0781  0.1887
 3548SOL    HW211544   6.820   4.635   4.179  0.8550  0.1700  0.3810
 3549SOL     OW11545   4.061   2.170   2.703 -0.4298 -0.2484  0.5546
 3549SOL    HW111546   4.018   2.157   2.792 -1.4013 -0.9857 -0.0066
 3549SOL    HW211547   3.991   2.170   2.632  0.4596 -1.1762 -0.3562
 3550SOL     OW11548   0.182   0.494   1.019 -0.6816 -0.6217 -0.1318
 3550SOL    HW111549   0.208   0.518   1.112 -2.9181 -0.9025  0.6228
 3550SOL    HW211550   0.250   0.432   0.980  1.4948  1.2889  0.4247
 3551SOL     OW11551   5.791   0.373   4.437 -0.1760 -0.5459 -0.5531
 3551SOL    HW111552   5.707   0.382   4.491 -0.0581 -2.4669  0.0466
 3551SOL    HW211553   5.783   0.425   4.353 -1.0668  1.1230  0.5123
 3552SOL     OW11554   4.785   3.801   6.156 -0.9395  0.0320 -0.1191
 3552SOL    HW111555   4.846   3.877   6.177 -1.3510  0.2356  0.3715
 3552SOL    HW211556   4.704   3.834   6.108 -2.1869  0.2936  2.0005
 3553SOL     OW11557   2.907   3.584   3.400 -0.6498  0.0212  0.0952
 3553SOL    HW111558   2.880   3.526   3.477  1.6960  0.0668  1.0359
 3553SOL    HW211559   2.912   3.679   3.430  0.4904  0.0113 -0.0344
 3554SOL     OW11560   1.095   5.263   1.797  0.8567 -0.1939  0.1359
 3554SOL    HW111561   1.113   5.351   1.842 -2.5323  0.2874  0.7871
 3554SOL    HW211562   1.058   5.280   1.706  1.9457 -1.0454 -0.4888
 3555SOL     OW11563   5.583   2.970   5.425 -0.7133  0.2730  0.1635
 3555SOL    HW111564   5.649   2.953   5.352 -0.8919 -0.3103  0.1382
 3555SOL    HW211565   5.495   2.998   5.385 -0.7120  0.2853  0.1694
 3556SOL     OW11566   2.238   0.836   0.045  0.0556  0.5528 -0.1431
 3556SOL    HW111567   2.285   0.765  -0.007 -1.5620 -0.1248 -0.7362
 3556SOL    HW211568   2.142   0.838   0.021 -0.5329  1.0083  1.9896
 3557SOL     OW11569   1.290   2.435   6.537  0.1697 -0.4971  0.1407
 3557SOL    HW111570   1.321   2.391   6.622  0.7861 -0.3209  0.0073
 3557SOL    HW211571   1.299   2.371   6.461 -2.0552 -1.2825  0.4750
 3558SOL     OW11572   4.087   3.097   2.147  0.5911 -0.3786 -0.0673
 3558SOL    HW111573   4.129   3.007   2.147 -0.1379 -0.7482 -1.7180
 3558SOL    HW211574   4.155   3.166   2.123  0.5745 -0.8289 -1.5069
 3559SOL     OW11575   5.529   1.021   6.500  0.1238  0.3033 -0.3238
 3559SOL    HW111576   5.460   1.088   6.527 -0.3308 -0.5282  0.6952
 3559SOL    HW211577   5.553   0.964   6.579  1.3392  0.0017 -0.8752
 3560SOL     OW11578   1.334   6.966   4.384 -0.1306  0.5296  0.3186
 3560SOL    HW111579   1.246   6.921   4.374  1.3721 -2.3232 -1.3992
 3560SOL    HW211580   1.387   6.921   4.456  0.6262  0.9922  0.0681
 3561SOL     OW11581   4.867   6.990   1.479  0.1751  0.0575  0.2963
 3561SOL    HW111582   4.813   7.034   1.551 -0.7403  0.1351 -0.4154
 3561SOL    HW211583   4.884   7.055   1.405  1.1104 -0.0223  0.4266
 3562SOL     OW11584   1.668   0.438   2.227  0.1331  0.1844 -0.1768
 3562SOL    HW111585   1.628   0.470   2.142 -0.6011 -1.4751 -0.4925
 3562SOL    HW211586   1.762   0.473   2.235 -0.3481  1.7021 -0.8337
 3563SOL     OW11587   2.635   1.143   6.543 -0.6276  0.1240  0.6156
 3563SOL    HW111588   2.605   1.051   6.570  0.1308 -1.0841 -2.2766
 3563SOL    HW211589   2.556   1.199   6.519 -0.9673 -0.7586 -0.3761
 3564SOL     OW11590   3.668   4.618   0.390  0.7260  0.7595 -0.2408
 3564SOL    HW111591   3.715   4.672   0.320  1.1579 -1.0623 -1.4267
 3564SOL    HW211592   3.570   4.618   0.373  0.5874  2.0360  0.4282
 3565SOL     OW11593   0.694   0.819   3.694 -0.5300 -0.2117 -0.7782
 3565SOL    HW111594   0.781   0.796   3.651  1.0425  0.6913  1.6720
 3565SOL    HW211595   0.688   0.918   3.707 -1.3458 -0.3637  0.1699
 3566SOL     OW11596   4.814   6.946   2.066  0.8056  0.2267  0.0932
 3566SOL    HW111597   4.829   7.011   2.140  1.1974  0.0933  0.1381
 3566SOL    HW211598   4.784   6.858   2.104 -0.9315  0.7252 -0.0541
 3567SOL     OW11599   6.785   4.390   2.304 -0.4290  0.2907  0.1977
 3567SOL    HW111600   6.872   4.341   2.312  1.5966  2.9606 -2.8567
 3567SOL    HW211601   6.770   4.443   2.387  1.2487  0.3102  0.5346
 3568SOL     OW11602   5.864   0.262   3.450  0.5406  0.2044 -0.3230
 3568SOL    HW111603   5.885   0.358   3.468  0.3137  0.6453 -2.1740
 3568SOL    HW211604   5.944   0.206   3.471  0.0393  0.4787  2.7290
 3569SOL     OW11605   4.337   0.438   2.379 -0.0475  0.1673  0.0035
 3569SOL    HW111606   4.435   0.418   2.378  0.1285  0.8904  1.1541
 3569SOL    HW211607   4.321   0.533   2.353 -0.6361 -0.4771 -2.2397
 3570SOL     OW11608   2.809   1.422   4.879  0.2414 -0.1642  0.1536
 3570SOL    HW111609   2.710   1.412   4.892  0.2973 -1.2871 -0.1904
 3570SOL    HW211610   2.857   1.396   4.963  0.1940  2.2650  1.0044
 3571SOL     OW11611   0.829   3.775   4.043  0.6913 -0.3666 -0.4497
 3571SOL    HW111612   0.746   3.831   4.049  1.2133  0.2817  3.3318
 3571SOL    HW211613   0.806   3.680   4.064  0.9394  0.0180  1.8894
 3572SOL     OW11614   5.958   3.036   1.350 -0.5645 -0.4843 -0.4657
 3572SOL    HW111615   5.897   2.961   1.326  0.4450 -1.0555 -1.3267
 3572SOL    HW211616   5.967   3.098   1.272 -0.1946 -0.2999 -0.2788
 3573SOL     OW11617   2.901   2.030   3.875 -0.2996 -0.9633 -0.4580
 3573SOL    HW111618   2.856   2.117   3.894 -2.5074 -1.9615 -0.8389
 3573SOL    HW211619   2.948   1.998   3.957 -3.5853 -1.7184  1.2821
 3574SOL     OW11620   4.797   6.412   1.643  0.0793  0.0497  0.6738
 3574SOL    HW111621   4.756   6.384   1.556  0.4813 -0.0101  0.5000
 3574SOL    HW211622   4.833   6.504   1.634  0.1437  0.0335  0.7679
 3575SOL     OW11623   5.532   4.933   4.209 -0.0008 -0.1367 -0.1436
 3575SOL    HW111624   5.559   5.028   4.224  0.4470 -0.1474 -0.8727
 3575SOL    HW211625   5.435   4.929   4.185 -0.0979  0.1032  0.2060
 3576SOL     OW11626   3.013   3.072   5.722  0.0074 -0.5989 -0.2622
 3576SOL    HW111627   3.065   3.009   5.664 -2.2978 -1.0654 -1.9722
 3576SOL    HW211628   2.919   3.039   5.730 -1.4301  2.7576 -1.5936
 3577SOL     OW11629   5.547   6.256   5.629  0.8857  0.0363  0.0602
 3577SOL    HW111630   5.594   6.324   5.573 -0.2390  0.5910 -0.2503
 3577SOL    HW211631   5.473   6.215   5.575  0.0229  0.3064  1.0099
 3578SOL     OW11632   0.653   1.020   5.874 -0.0090 -0.1974  0.1059
 3578SOL    HW111633   0.671   0.964   5.955 -1.5480 -0.5780  0.1998
 3578SOL    HW211634   0.571   0.987   5.827  0.4815  0.4256 -1.2577
 3579SOL     OW11635   3.881   3.991   3.928  0.4508 -0.3990 -0.1824
 3579SOL    HW111636   3.961   3.954   3.977 -0.6208  0.1295  2.0987
 3579SOL    HW211637   3.870   3.941   3.842  2.1702 -1.7221  0.2820
 3580SOL     OW11638   6.068   0.227   2.067  0.1142  0.1326 -0.1878
 3580SOL    HW111639   6.082   0.157   1.998 -1.4446 -0.2200 -0.1784
 3580SOL    HW211640   6.074   0.318   2.025 -2.6425 -0.0829 -1.2373
 3581SOL     OW11641   6.538   4.814   4.870 -0.1241 -1.0620 -0.1978
 3581SOL    HW111642   6.625   4.824   4.821 -0.4861 -0.7511 -0.7866
 3581SOL    HW211643   6.531   4.720   4.905 -0.7789 -1.9729 -2.5888
 3582SOL     OW11644   2.113   4.953   1.941 -0.2909  0.1179  1.0459
 3582SOL    HW111645   2.211   4.941   1.956 -0.3274 -2.0157 -0.0429
 3582SOL    HW211646   2.062   4.898   2.007 -0.6911 -0.2545  0.4383
 3583SOL     OW11647   2.028   1.963   1.560  0.4604  0.6492 -0.2175
 3583SOL    HW111648   1.941   1.971   1.511  1.4687 -0.3991 -2.3589
 3583SOL    HW211649   2.028   2.024   1.639 -2.7717 -0.4338  0.7952
 3584SOL     OW11650   4.695   3.160   0.528 -0.3239 -0.3554 -0.5121
 3584SOL    HW111651   4.624   3.224   0.558 -1.1257 -0.8225 -1.3426
 3584SOL    HW211652   4.681   3.072   0.573  0.6371 -0.0314  0.4528
 3585SOL     OW11653   1.001   1.196   6.590  0.1280 -0.0029 -0.6008
 3585SOL    HW111654   1.039   1.156   6.506  1.3455 -1.0352  0.3986
 3585SOL    HW211655   1.061   1.174   6.667 -2.7367 -2.1781  1.2214
 3586SOL     OW11656   4.402   4.326   5.329 -0.2263  0.5273  0.1278
 3586SOL    HW111657   4.359   4.392   5.268 -2.3742  0.2275  1.2092
 3586SOL    HW211658   4.341   4.248   5.342  1.5450 -0.9196  0.1808
 3587SOL     OW11659   1.105   5.563   0.345 -0.3064  0.0335  0.5332
 3587SOL    HW111660   1.035   5.597   0.283  0.0536 -0.1787  0.0012
 3587SOL    HW211661   1.182   5.527   0.292 -1.1818 -2.8042  0.9792
 3588SOL     OW11662   3.021   0.546   3.395 -0.4705 -0.0176 -0.3748
 3588SOL    HW111663   2.998   0.643   3.395 -0.8198 -0.0710  0.9745
 3588SOL    HW211664   3.115   0.533   3.364 -0.1286  0.8494  0.2601
 3589SOL     OW11665   1.923   2.036   4.568 -0.4408 -0.2307 -0.1072
 3589SOL    HW111666   1.905   2.048   4.665  1.2298 -0.8919  0.3222
 3589SOL    HW211667   1.885   2.113   4.517 -0.6088  0.5571  1.1624
 3590SOL     OW11668   6.895   6.656   2.275 -1.1774 -0.5700  0.1272
 3590SOL    HW111669   6.833   6.687   2.203 -0.8187  0.3429  0.1917
 3590SOL    HW211670   6.846   6.596   2.338 -1.3784 -1.7553 -1.1165
 3591SOL     OW11671   6.397   6.341   3.279  0.3596 -0.2494  0.1077
 3591SOL    HW111672   6.475   6.368   3.222  0.2752  0.8348  0.4942
 3591SOL    HW211673   6.314   6.386   3.246  0.1937 -0.1169  0.6942
 3592SOL     OW11674   5.700   2.453   2.970 -0.0152 -0.4391  0.1372
 3592SOL    HW111675   5.623   2.410   3.016 -0.6553 -1.9330 -2.1856
 3592SOL    HW211676   5.688   2.552   2.970 -0.5248 -0.4584  2.1311
 3593SOL     OW11677   4.821   4.038   2.323  0.3851 -0.1250 -0.0966
 3593SOL    HW111678   4.837   3.940   2.332 -1.9069 -0.5002  0.5699
 3593SOL    HW211679   4.783   4.057   2.232  0.0800  0.0242  0.0612
 3594SOL     OW11680   2.978   1.143   5.892  0.5782 -0.0751 -0.9275
 3594SOL    HW111681   3.013   1.132   5.985  1.3922 -2.0060 -1.4212
 3594SOL    HW211682   2.998   1.061   5.838 -1.9678  0.0167 -2.1583
 3595SOL     OW11683   1.276   3.297   5.486 -0.1893  0.1141 -0.0890
 3595SOL    HW111684   1.342   3.368   5.513 -1.3420  1.4085 -0.5131
 3595SOL    HW211685   1.279   3.222   5.551  1.6255  0.1831 -0.0596
 3596SOL     OW11686   5.666   2.194   4.583 -0.1737 -0.0039  0.2687
 3596SOL    HW111687   5.613   2.256   4.525  1.2074  1.5527  0.6096
 3596SOL    HW211688   5.631   2.198   4.677  0.7746  1.3401  0.5817
 3597SOL     OW11689   3.378   4.691   1.279 -0.1452  0.2019 -0.0418
 3597SOL    HW111690   3.428   4.750   1.215  0.1083  0.0523  0.0170
 3597SOL    HW211691   3.420   4.699   1.370  1.0371 -1.4229 -0.3924
 3598SOL     OW11692   5.918   4.987   0.192 -0.2058  0.2504  0.5304
 3598SOL    HW111693   5.940   4.923   0.266  0.2034 -1.3290 -0.8945
 3598SOL    HW211694   5.987   4.979   0.120 -0.6607  1.6673 -0.0939
 3599SOL     OW11695   3.958   6.954   4.676  0.0452 -0.1364  0.1290
 3599SOL    HW111696   3.900   7.009   4.736 -1.5787 -1.0984 -0.5152
 3599SOL    HW211697   3.904   6.881   4.634  1.1189  0.4547 -2.4637
 3600SOL     OW11698   2.376   2.161   0.406  0.2146 -0.2962 -0.0259
 3600SOL    HW111699   2.389   2.256   0.380  0.6216 -0.1314  0.7576
 3600SOL    HW211700   2.465   2.117   0.420  0.0134 -0.4046  0.9665
 3601SOL     OW11701   4.259   4.643   3.877 -0.6318  0.0632  0.1609
 3601SOL    HW111702   4.320   4.630   3.955  0.6278  3.2526 -0.1331
 3601SOL    HW211703   4.296   4.596   3.797 -0.3471 -0.7379  0.7521
 3602SOL     OW11704   6.188   4.586   4.034  0.5807  0.1331  0.1897
 3602SOL    HW111705   6.176   4.537   3.948  0.7885 -0.6564  0.5976
 3602SOL    HW211706   6.222   4.678   4.016  1.5354 -0.3396 -0.5312
 3603SOL     OW11707   3.482   2.466   6.356 -0.4988  0.0196 -0.2476
 3603SOL    HW111708   3.519   2.482   6.448  0.3480  1.7853 -0.8563
 3603SOL    HW211709   3.385   2.493   6.354 -0.8437 -1.0873  0.3821
 3604SOL     OW11710   5.036   4.625   2.797  0.3205 -0.1328  0.1268
 3604SOL    HW111711   5.113   4.622   2.734  1.9449  3.4398  1.6765
 3604SOL    HW211712   4.967   4.688   2.762  0.1289  0.0078  0.7492
 3605SOL     OW11713   3.270   2.543   0.358 -0.0471  0.3096  0.0087
 3605SOL    HW111714   3.342   2.481   0.392  0.2675 -0.4224 -1.8526
 3605SOL    HW211715   3.213   2.573   0.434  0.7199 -1.0855  1.1881
 3606SOL     OW11716   3.236   2.073   6.388 -0.0043 -0.0904 -0.1664
 3606SOL    HW111717   3.196   2.108   6.472 -1.9419 -0.9838 -0.6515
 3606SOL    HW211718   3.172   2.009   6.345  1.5975 -0.8641 -1.5117
 3607SOL     OW11719   3.424   1.725   6.424 -0.2821  0.7549 -0.1331
 3607SOL    HW111720   3.444   1.803   6.483  0.7414  0.2072  0.2678
 3607SOL    HW211721   3.332   1.735   6.384  0.1363  2.5436 -0.7240
 3608SOL     OW11722   1.556   3.536   6.853 -0.1907 -0.0392  0.4957
 3608SOL    HW111723   1.481   3.589   6.814 -0.3748 -0.9524 -0.4511
 3608SOL    HW211724   1.524   3.487   6.934 -0.6533 -0.4705  0.0638
 3609SOL     OW11725   2.730   6.298   1.462 -0.2934  0.3555  0.3693
 3609SOL    HW111726   2.636   6.299   1.496 -0.9398  2.4291 -1.2541
 3609SOL    HW211727   2.758   6.391   1.438  2.5178 -0.0613  1.6126
 3610SOL     OW11728   1.060   2.216   0.903 -0.1581 -0.1067  0.7178
 3610SOL    HW111729   1.054   2.310   0.869 -0.3038 -0.0437  0.9177
 3610SOL    HW211730   1.071   2.216   1.002  0.4765 -0.2884  0.6517
 3611SOL     OW11731   2.298   5.087   3.745  0.3514  0.2037  0.0046
 3611SOL    HW111732   2.286   5.184   3.720 -1.3114 -0.2556 -1.1889
 3611SOL    HW211733   2.247   5.068   3.829  0.1026  0.2274 -0.1379
 3612SOL     OW11734   6.174   3.888   1.929  0.0982  0.4789  0.2525
 3612SOL    HW111735   6.134   3.941   1.854 -0.1767  1.7244  1.2474
 3612SOL    HW211736   6.264   3.925   1.952 -1.7194  3.4220  3.6852
 3613SOL     OW11737   1.168   1.964   3.255 -0.5164 -0.4218 -0.2385
 3613SOL    HW111738   1.252   1.937   3.304 -1.0476 -1.0736  0.3370
 3613SOL    HW211739   1.105   2.006   3.320  0.0004  1.6098 -0.9855
 3614SOL     OW11740   5.704   1.773   1.497 -0.5149 -0.4130  0.5957
 3614SOL    HW111741   5.688   1.872   1.490  0.7840 -0.1436  1.1158
 3614SOL    HW211742   5.748   1.753   1.584  3.4427 -0.8258 -1.2933
 3615SOL     OW11743   5.082   0.262   5.611  0.3024  0.0996  0.2619
 3615SOL    HW111744   5.129   0.221   5.689 -0.9113 -0.5478  0.6886
 3615SOL    HW211745   4.999   0.308   5.643 -1.6546 -2.3693 -0.8262
 3616SOL     OW11746   0.649   6.287   6.906 -0.1140 -0.6171  0.7248
 3616SOL    HW111747   0.657   6.364   6.970  0.9762  1.0221 -1.2484
 3616SOL    HW211748   0.720   6.295   6.835 -2.4025 -1.2174 -1.8135
 3617SOL     OW11749   1.933   5.389   5.189  0.7903 -0.5932  0.7474
 3617SOL    HW111750   1.942   5.438   5.276 -1.5248  0.3603  0.5253
 3617SOL    HW211751   1.894   5.298   5.206  0.8484 -0.6171  0.7530
 3618SOL     OW11752   1.435   6.288   2.537  0.1472 -0.0401  0.0545
 3618SOL    HW111753   1.347   6.242   2.525  0.4006 -0.4017 -0.4414
 3618SOL    HW211754   1.421   6.387   2.545 -0.0799  0.2803 -3.1945
 3619SOL     OW11755   2.868   1.884   3.308  0.0378  0.1599  0.1814
 3619SOL    HW111756   2.787   1.929   3.348 -0.1363  1.4449 -1.5179
 3619SOL    HW211757   2.869   1.899   3.209  3.2567  1.7126  0.3160
 3620SOL     OW11758   0.367   6.453   0.313 -0.4643 -0.2255  0.3490
 3620SOL    HW111759   0.344   6.547   0.336  0.9074  0.3994 -0.6299
 3620SOL    HW211760   0.285   6.405   0.281 -0.8797  1.1844 -0.8413
 3621SOL     OW11761   3.301   3.922   0.866 -0.2594  0.1583 -1.0999
 3621SOL    HW111762   3.300   3.878   0.956 -0.3207 -0.8874 -1.6056
 3621SOL    HW211763   3.347   4.011   0.873 -0.0683 -0.0133 -0.0842
 3622SOL     OW11764   0.437   5.975   4.714  0.0701 -0.7050  0.3460
 3622SOL    HW111765   0.527   5.998   4.751  1.0146 -1.2466 -1.4975
 3622SOL    HW211766   0.439   5.980   4.614 -2.1154 -0.2043  0.2601
 3623SOL     OW11767   3.041   1.614   0.829  0.0965 -0.6742 -0.4980
 3623SOL    HW111768   3.068   1.694   0.883 -1.1634 -1.2285  1.0439
 3623SOL    HW211769   3.046   1.636   0.732 -0.2544  1.2917 -0.1131
 3624SOL     OW11770   3.018   6.884   3.099  0.8920 -0.2705 -0.5663
 3624SOL    HW111771   3.054   6.873   3.006 -0.5166 -0.8891 -1.0656
 3624SOL    HW211772   3.064   6.820   3.160  1.5282 -0.1638 -0.9230
 3625SOL     OW11773   3.239   6.706   0.260  0.3822  0.3646 -0.4869
 3625SOL    HW111774   3.329   6.738   0.289  0.5998  0.7795 -1.5849
 3625SOL    HW211775   3.246   6.660   0.172 -0.6204  1.3498 -1.1177
 3626SOL     OW11776   3.900   0.792   5.057  0.5210  0.0735 -0.4959
 3626SOL    HW111777   3.806   0.816   5.082  0.7312  0.9891 -0.5771
 3626SOL    HW211778   3.957   0.874   5.057  1.2601 -0.4325 -0.7353
 3627SOL     OW11779   4.837   2.462   2.967  0.0246 -0.8468 -0.3309
 3627SOL    HW111780   4.806   2.413   2.886 -0.1465 -0.2210 -0.6489
 3627SOL    HW211781   4.894   2.539   2.939  0.3539 -0.9044  0.1693
 3628SOL     OW11782   5.034   0.159   3.844 -0.8128  0.1232  0.3463
 3628SOL    HW111783   5.009   0.109   3.927  0.2581 -3.1977 -1.1396
 3628SOL    HW211784   5.116   0.213   3.861  0.7921 -2.3246  1.0225
 3629SOL     OW11785   2.003   2.183   5.113  0.3641  0.2656 -0.1395
 3629SOL    HW111786   2.045   2.258   5.164  0.2155 -1.1649  2.2226
 3629SOL    HW211787   1.994   2.103   5.172 -2.2431 -0.6956 -1.6622
 3630SOL     OW11788   3.026   0.285   6.312  0.4800  0.1815 -0.6887
 3630SOL    HW111789   2.944   0.235   6.285  0.0060  0.3050  0.4873
 3630SOL    HW211790   3.051   0.262   6.406 -0.0174  2.4537  0.0660
 3631SOL     OW11791   4.141   5.652   0.318 -0.4613 -0.1882  0.3703
 3631SOL    HW111792   4.138   5.740   0.365 -0.4365 -0.7382  1.4356
 3631SOL    HW211793   4.235   5.617   0.319 -0.2916  0.1933 -0.8685
 3632SOL     OW11794   3.300   1.120   6.351 -0.3856  0.0634  0.1918
 3632SOL    HW111795   3.244   1.202   6.334 -0.9305 -0.1854  0.7302
 3632SOL    HW211796   3.396   1.146   6.361 -0.4556  0.5499 -0.3451
 3633SOL     OW11797   0.498   4.011   4.951  0.6046 -0.6359 -0.3414
 3633SOL    HW111798   0.511   4.095   5.004  1.0776 -1.4413  0.8747
 3633SOL    HW211799   0.587   3.977   4.920  0.3694 -0.4330 -1.2579
 3634SOL     OW11800   3.428   0.255   6.354 -0.4550 -0.1851  0.0141
 3634SOL    HW111801   3.520   0.292   6.367 -1.3207  2.6452 -1.0807
 3634SOL    HW211802   3.413   0.236   6.257 -1.4795  0.9179 -0.0746
 3635SOL     OW11803   4.838   1.456   4.833  0.8295  0.2296 -0.3385
 3635SOL    HW111804   4.910   1.398   4.796  0.2281 -0.2648 -0.7773
 3635SOL    HW211805   4.797   1.510   4.759  0.5711  0.2899 -0.1540
 3636SOL     OW11806   2.887   2.371   0.785 -0.0395 -0.2824  0.1738
 3636SOL    HW111807   2.813   2.406   0.842 -0.4145  3.1649 -2.0903
 3636SOL    HW211808   2.974   2.388   0.830 -0.4202  0.3551  0.7039
 3637SOL     OW11809   0.994   5.936   3.304  0.3051 -0.4957  0.2208
 3637SOL    HW111810   0.974   5.849   3.349  0.2925 -0.7710 -0.3087
 3637SOL    HW211811   1.069   5.924   3.239 -0.3127 -0.3470 -0.5509
 3638SOL     OW11812   0.434   4.456   3.108 -0.4867 -0.4692  0.5730
 3638SOL    HW111813   0.522   4.409   3.112 -0.2886 -0.3678 -1.4892
 3638SOL    HW211814   0.366   4.397   3.064 -0.7546  0.3869 -0.2145
 3639SOL     OW11815   2.778   3.547   1.836 -0.3234 -0.0200 -0.2517
 3639SOL    HW111816   2.844   3.622   1.830 -1.1518  0.9259  1.5117
 3639SOL    HW211817   2.801   3.489   1.914 -0.9558 -0.3013 -0.2664
 3640SOL     OW11818   5.890   3.867   5.758  0.3157  0.4588 -0.5533
 3640SOL    HW111819   5.843   3.955   5.768 -2.9312 -1.1566 -0.3614
 3640SOL    HW211820   5.857   3.804   5.828 -0.7396 -2.1799 -3.2445
 3641SOL     OW11821   6.085   0.062   4.780 -0.1226  0.3006  0.4332
 3641SOL    HW111822   6.057   0.047   4.875 -1.3314 -2.3703 -0.2486
 3641SOL    HW211823   6.135  -0.018   4.747 -0.4007  0.8420 -1.4169
 3642SOL     OW11824   2.773   1.223   5.373 -0.1948 -0.5639 -0.4007
 3642SOL    HW111825   2.734   1.135   5.345  1.7469 -1.5976 -0.0039
 3642SOL    HW211826   2.868   1.210   5.402 -0.1876  1.4959  0.6908
 3643SOL     OW11827   4.732   5.594   0.572  0.1299 -0.3013 -0.2830
 3643SOL    HW111828   4.699   5.502   0.550  1.9741 -1.0421 -0.1572
 3643SOL    HW211829   4.773   5.635   0.491 -1.4884  0.8328 -0.5848
 3644SOL     OW11830   1.237   0.010   3.269  0.3649  0.0419  0.0032
 3644SOL    HW111831   1.161   0.003   3.334  1.0534 -0.4857  0.7561
 3644SOL    HW211832   1.239   0.102   3.230 -0.1025  0.3359  0.6654
 3645SOL     OW11833   1.643   2.358   6.018 -0.0923  0.0299  0.0707
 3645SOL    HW111834   1.557   2.392   6.058 -0.9395  0.3941 -1.9126
 3645SOL    HW211835   1.665   2.269   6.058 -2.7415 -1.2546 -1.0441
 3646SOL     OW11836   1.469   0.442   5.093 -0.3005 -0.3235  0.0893
 3646SOL    HW111837   1.514   0.527   5.119  1.1329 -0.6644 -1.1534
 3646SOL    HW211838   1.481   0.374   5.165  1.3622 -0.4575 -0.2783
 3647SOL     OW11839   5.113   1.920   6.305  0.0630 -0.5030 -0.2552
 3647SOL    HW111840   5.075   1.830   6.287  0.2680 -0.3493 -1.6574
 3647SOL    HW211841   5.043   1.990   6.292  0.4372 -0.3205 -1.4526
 3648SOL     OW11842   2.943   3.075   0.277 -0.0797 -0.0304 -0.4295
 3648SOL    HW111843   2.896   3.159   0.248 -1.1667 -0.1023  1.0094
 3648SOL    HW211844   3.020   3.100   0.337  0.7221  0.0018 -1.4437
 3649SOL     OW11845   0.857   5.569   3.519 -0.3899  0.0905 -0.6001
 3649SOL    HW111846   0.795   5.619   3.459 -2.3953 -2.0857 -0.5016
 3649SOL    HW211847   0.837   5.593   3.614 -0.9934 -0.4702 -0.5779
 3650SOL     OW11848   0.218   6.601   2.644 -0.5568 -0.5218 -0.2791
 3650SOL    HW111849   0.175   6.511   2.634  0.4996 -0.9409 -1.3921
 3650SOL    HW211850   0.314   6.588   2.669  0.1912  0.1955 -2.5711
 3651SOL     OW11851   4.564   2.627   0.254 -0.2716 -0.1681 -0.3714
 3651SOL    HW111852   4.570   2.722   0.222  0.9949  0.0282  0.3634
 3651SOL    HW211853   4.488   2.617   0.318 -0.3589  0.3687 -0.3890
 3652SOL     OW11854   4.455   1.495   1.241  0.8485  0.5297 -0.0906
 3652SOL    HW111855   4.403   1.506   1.157  1.4563 -2.2109 -0.9241
 3652SOL    HW211856   4.519   1.570   1.251  0.7810  0.8993 -2.0950
 3653SOL     OW11857   3.874   4.010   3.346  0.2144 -0.4132 -0.3576
 3653SOL    HW111858   3.926   4.093   3.327 -0.6445  0.6344  1.5932
 3653SOL    HW211859   3.786   4.034   3.386 -0.5482 -2.2541 -0.8168
 3654SOL     OW11860   4.607   3.507   0.676  0.8999  0.2265  0.5665
 3654SOL    HW111861   4.551   3.447   0.619 -1.0983  1.3137  1.2593
 3654SOL    HW211862   4.642   3.455   0.754  0.5372 -0.4153  0.3129
 3655SOL     OW11863   4.690   5.720   1.466 -0.1923 -0.0401  0.0684
 3655SOL    HW111864   4.787   5.697   1.474 -0.0538  1.0675  2.4751
 3655SOL    HW211865   4.679   5.820   1.473 -1.4734 -0.1296 -0.5136
 3656SOL     OW11866   6.634   6.350   5.235 -0.0681 -0.0642  0.1597
 3656SOL    HW111867   6.554   6.291   5.251 -1.2116  1.3089 -0.2726
 3656SOL    HW211868   6.643   6.367   5.137  0.0112  0.7971  0.3134
 3657SOL     OW11869   5.215   5.474   6.798  0.1063  0.4061 -0.5240
 3657SOL    HW111870   5.183   5.388   6.837 -0.3427  0.0367 -1.6495
 3657SOL    HW211871   5.290   5.456   6.734  0.2824  0.8901 -0.4567
 3658SOL     OW11872   3.463   4.115   4.893 -0.2315 -0.6119  0.1267
 3658SOL    HW111873   3.381   4.143   4.843 -1.4055 -2.3377  0.9948
 3658SOL    HW211874   3.466   4.163   4.981  0.0921 -0.0375 -0.1850
 3659SOL     OW11875   6.180   3.025   3.134  0.5596  0.1683  0.3554
 3659SOL    HW111876   6.190   2.952   3.202  0.3707  0.7077  0.9850
 3659SOL    HW211877   6.251   3.094   3.150  0.9230 -0.0215 -0.4233
 3660SOL     OW11878   3.219   6.463   2.701  0.0681  0.2728  0.2631
 3660SOL    HW111879   3.133   6.432   2.661  1.3547 -1.9652 -0.9762
 3660SOL    HW211880   3.204   6.493   2.795 -2.3484  1.7466 -0.5336
 3661SOL     OW11881   0.911   3.944   6.319 -0.1591  0.0695 -0.0537
 3661SOL    HW111882   0.855   3.957   6.400 -0.7451  0.5741 -0.5222
 3661SOL    HW211883   0.959   3.857   6.325  0.6953  0.6111  1.3428
 3662SOL     OW11884   3.327   2.906   2.925 -0.0110 -0.3958 -0.4608
 3662SOL    HW111885   3.307   3.001   2.948  0.6475 -0.8399  2.4578
 3662SOL    HW211886   3.377   2.864   3.001 -1.0695 -3.3229 -1.2510
 3663SOL     OW11887   6.457   4.903   6.687  0.1786 -0.0779  0.5278
 3663SOL    HW111888   6.553   4.889   6.664 -0.2099 -1.1262 -0.6067
 3663SOL    HW211889   6.449   4.968   6.762  1.7529  0.2525  0.4368
 3664SOL     OW11890   5.949   1.268   0.882 -0.3812  0.0824 -0.2848
 3664SOL    HW111891   6.033   1.321   0.870  0.1651 -0.8216 -0.5250
 3664SOL    HW211892   5.880   1.325   0.928 -0.0313  1.2005 -1.1024
 3665SOL     OW11893   2.135   0.267   4.068 -0.3467 -0.0729 -0.6820
 3665SOL    HW111894   2.118   0.359   4.034  1.1145  0.3071 -0.4246
 3665SOL    HW211895   2.203   0.222   4.011  0.9789  0.0103  0.7658
 3666SOL     OW11896   1.949   5.432   3.432 -0.3675  0.3343  0.4561
 3666SOL    HW111897   1.941   5.455   3.335  0.0332  3.2571  1.0433
 3666SOL    HW211898   1.858   5.416   3.470 -0.6786  1.0585  0.0286
 3667SOL     OW11899   6.205   3.305   0.865  0.4489 -0.1241 -0.0096
 3667SOL    HW111900   6.159   3.286   0.778 -2.1388 -0.2502  1.2703
 3667SOL    HW211901   6.229   3.218   0.909  3.2072 -0.0635 -1.2151
 3668SOL     OW11902   4.823   4.059   4.023 -0.8553  0.0377  0.8368
 3668SOL    HW111903   4.811   4.131   4.091 -0.2000  0.4643  0.5129
 3668SOL    HW211904   4.871   3.981   4.064 -0.2471  0.3913  0.8081
 3669SOL     OW11905   5.742   0.748   0.198  0.1643  0.0899  0.1004
 3669SOL    HW111906   5.758   0.846   0.207  1.3946 -0.1686  0.9901
 3669SOL    HW211907   5.664   0.732   0.137 -1.0243  1.6433  1.1571
 3670SOL     OW11908   3.532   3.105   3.316  0.2386  0.1289 -0.1716
 3670SOL    HW111909   3.577   3.025   3.354  3.8029  2.0686  0.1345
 3670SOL    HW211910   3.547   3.108   3.217  0.1739  0.4801 -0.1714
 3671SOL     OW11911   4.308   0.622   4.495 -0.0450  0.1859  0.6907
 3671SOL    HW111912   4.279   0.535   4.456 -1.6408 -0.1559  2.5000
 3671SOL    HW211913   4.390   0.609   4.550 -0.5683 -0.2905  1.3689
 3672SOL     OW11914   2.236   1.990   6.734  0.5378  0.4815 -0.6895
 3672SOL    HW111915   2.150   1.946   6.759  0.2237  0.4862 -1.6989
 3672SOL    HW211916   2.248   2.074   6.788 -0.0161  0.4008 -0.4405
 3673SOL     OW11917   3.756   5.721   0.581  0.1986 -0.0808 -0.2383
 3673SOL    HW111918   3.856   5.712   0.590  0.2996  1.0884 -0.1111
 3673SOL    HW211919   3.728   5.812   0.609 -0.7946 -0.0458 -1.2753
 3674SOL     OW11920   1.131   2.077   2.367 -0.4030  0.0544  0.2449
 3674SOL    HW111921   1.064   2.029   2.424 -0.6799  0.8150  0.5743
 3674SOL    HW211922   1.223   2.059   2.401 -0.4350 -0.9744 -0.1942
 3675SOL     OW11923   2.584   0.627   5.452  1.0373  0.2719  0.1829
 3675SOL    HW111924   2.509   0.650   5.515  0.7220 -0.0303 -0.0726
 3675SOL    HW211925   2.549   0.567   5.381  0.7765  2.5764 -1.7507
 3676SOL     OW11926   5.102   5.827   4.404  0.0301 -0.0081 -0.6115
 3676SOL    HW111927   5.132   5.804   4.312 -0.0987 -1.0785 -0.4008
 3676SOL    HW211928   5.021   5.886   4.399  0.1361  0.0931 -1.1802
 3677SOL     OW11929   6.065   3.433   3.736  0.4065 -0.0422  0.1655
 3677SOL    HW111930   6.126   3.437   3.814  0.2205  2.1091  0.2592
 3677SOL    HW211931   5.973   3.409   3.767  0.5708 -0.2954  0.4559
 3678SOL     OW11932   2.603   6.430   4.513 -0.0552 -0.0324 -0.2770
 3678SOL    HW111933   2.556   6.513   4.485  0.8694  1.0634  1.2280
 3678SOL    HW211934   2.659   6.395   4.438  1.4264  2.1123 -0.2593
 3679SOL     OW11935   6.151   2.732   3.522 -0.3514  0.2839 -0.1409
 3679SOL    HW111936   6.204   2.715   3.439 -1.3075  0.6913 -0.8623
 3679SOL    HW211937   6.121   2.644   3.561  0.5504  0.0686  0.0883
 3680SOL     OW11938   5.230   1.271   3.986 -0.1415  0.6150  0.2333
 3680SOL    HW111939   5.135   1.289   4.009  0.4497 -1.0779  5.2385
 3680SOL    HW211940   5.290   1.329   4.041  1.7981  1.0131 -2.1414
 3681SOL     OW11941   5.926   4.392   3.289  0.4830 -0.5810  0.3726
 3681SOL    HW111942   5.864   4.330   3.338  0.0554 -1.1639 -0.8825
 3681SOL    HW211943   6.021   4.370   3.313  0.2521  0.2277  2.2027
 3682SOL     OW11944   0.091   6.865   2.131  0.4511  0.1524  0.0978
 3682SOL    HW111945   0.156   6.912   2.191  1.5891 -1.5791  0.3275
 3682SOL    HW211946   0.135   6.782   2.094 -1.4232 -0.7337 -0.2593
 3683SOL     OW11947   4.762   0.665   1.287  0.0716 -0.2135  0.4334
 3683SOL    HW111948   4.794   0.719   1.365  1.1210 -1.4044  0.8579
 3683SOL    HW211949   4.664   0.651   1.294 -0.0193  0.6009  0.9539
 3684SOL     OW11950   4.441   4.306   1.591  0.4462 -0.2956 -0.8080
 3684SOL    HW111951   4.342   4.306   1.604  0.5690  2.1169  0.8274
 3684SOL    HW211952   4.484   4.255   1.666  0.5139  0.9971  0.0657
 3685SOL     OW11953   2.270   5.505   4.977  0.9554  0.4166  0.2037
 3685SOL    HW111954   2.232   5.422   5.016  0.0305  0.6376 -0.1989
 3685SOL    HW211955   2.367   5.512   5.001  0.1969  1.2055  3.6063
 3686SOL     OW11956   3.678   3.124   2.297  0.6692 -0.4069  0.2786
 3686SOL    HW111957   3.700   3.222   2.305  2.0869 -0.7831  1.4472
 3686SOL    HW211958   3.729   3.085   2.220  1.7886 -0.6360  1.1068
 3687SOL     OW11959   2.020   4.555   2.658  0.3538 -0.4614 -0.0375
 3687SOL    HW111960   2.022   4.633   2.720 -2.6548 -0.5239  0.2549
 3687SOL    HW211961   1.978   4.477   2.704 -1.1918 -0.7456 -1.8146
 3688SOL     OW11962   5.484   1.252   2.045 -0.2878 -0.1061  0.7507
 3688SOL    HW111963   5.448   1.265   1.952 -1.1051  1.1165  1.2061
 3688SOL    HW211964   5.413   1.277   2.111  0.8605  0.7318  1.6946
 3689SOL     OW11965   2.655   0.291   5.076 -0.2698  0.1732 -0.5610
 3689SOL    HW111966   2.641   0.314   4.979  0.1830 -0.6999 -0.8467
 3689SOL    HW211967   2.752   0.298   5.098 -0.4293  0.7951 -0.0493
 3690SOL     OW11968   0.506   0.943   1.868 -0.0360 -0.0855  0.0242
 3690SOL    HW111969   0.492   1.028   1.817 -5.1098 -1.3196 -1.1341
 3690SOL    HW211970   0.511   0.963   1.966 -1.5731  1.5587 -0.1892
 3691SOL     OW11971   0.083   1.338   3.153 -0.1079  0.0673  0.2864
 3691SOL    HW111972   0.120   1.416   3.103 -0.2921  0.0775  0.1663
 3691SOL    HW211973   0.111   1.344   3.249 -0.4349  0.4852  0.3586
 3692SOL     OW11974   0.013   2.593   2.598  0.4461  0.1997 -0.2225
 3692SOL    HW111975  -0.072   2.589   2.545  0.0586 -1.2651  0.4708
 3692SOL    HW211976   0.082   2.536   2.553  0.2084 -0.8057  0.6527
 3693SOL     OW11977   2.794   0.274   3.060 -0.2640 -0.1572 -0.7252
 3693SOL    HW111978   2.726   0.205   3.086 -0.7094  0.3171 -0.6021
 3693SOL    HW211979   2.753   0.365   3.069  0.4375  0.1416 -0.5041
 3694SOL     OW11980   0.853   3.037   3.480  0.4657 -0.0152  0.4389
 3694SOL    HW111981   0.821   3.094   3.556 -0.0980 -0.4024  0.5022
 3694SOL    HW211982   0.876   3.096   3.402  0.2675  0.3288  0.6351
 3695SOL     OW11983   4.270   6.759   4.294 -0.5822  0.2400 -0.0575
 3695SOL    HW111984   4.207   6.836   4.304 -1.0409 -0.0014 -0.9488
 3695SOL    HW211985   4.220   6.673   4.300 -0.0762 -0.0025  0.9005
 3696SOL     OW11986   1.889   2.557   4.653  0.0955  0.3747  0.4541
 3696SOL    HW111987   1.961   2.615   4.615  0.5826  1.4083  2.7793
 3696SOL    HW211988   1.810   2.557   4.591  1.9823 -0.7163 -2.1102
 3697SOL     OW11989   0.678   5.740   3.404 -0.1091 -0.0726 -0.1108
 3697SOL    HW111990   0.621   5.720   3.485  1.0638  0.6542  0.9287
 3697SOL    HW211991   0.624   5.725   3.321 -1.1611 -1.4631  0.7717
 3698SOL     OW11992   4.812   1.497   3.858  0.3918 -0.3185  0.4339
 3698SOL    HW111993   4.882   1.489   3.929  1.3426  0.2772 -0.4103
 3698SOL    HW211994   4.785   1.593   3.848 -0.6684 -0.5596  0.8552
 3699SOL     OW11995   5.194   3.255   2.928 -0.6271 -0.9748 -0.0538
 3699SOL    HW111996   5.236   3.173   2.967 -0.4045 -0.7919  0.0904
 3699SOL    HW211997   5.236   3.276   2.840 -2.2714 -2.3751 -1.2649
 3700SOL     OW11998   4.887   2.003   6.764 -0.3116 -0.8197 -0.6910
 3700SOL    HW111999   4.933   1.977   6.679  2.5455  0.1215  0.4559
 3700SOL    HW212000   4.861   2.100   6.759  0.8689 -0.4593 -0.1150
 3701SOL     OW12001   1.085   3.044   1.462  0.3956 -0.0651 -0.3055
 3701SOL    HW112002   1.130   3.004   1.542  1.0329  0.9583 -0.1453
 3701SOL    HW212003   1.150   3.097   1.409 -0.0718 -0.5635 -1.4130
 3702SOL     OW12004   5.835   0.337   1.460  0.2331 -0.1160 -0.2997
 3702SOL    HW112005   5.755   0.314   1.515  1.5184 -1.4959  1.0541
 3702SOL    HW212006   5.844   0.272   1.384 -1.4371  1.6811 -2.1748
 3703SOL     OW12007   5.344   0.977   2.252 -0.2592 -0.0456  0.3329
 3703SOL    HW112008   5.349   1.075   2.274  0.8480  0.4265 -1.7691
 3703SOL    HW212009   5.249   0.948   2.252 -0.6020  1.0106  1.0958
 3704SOL     OW12010   4.180   0.535   1.989  0.3985 -0.3719 -0.2611
 3704SOL    HW112011   4.215   0.441   1.990 -0.1708 -0.5945 -0.9266
 3704SOL    HW212012   4.116   0.546   1.914 -0.6041  0.1625  0.6458
 3705SOL     OW12013   6.634   6.493   0.743  0.0252  0.2107 -0.6510
 3705SOL    HW112014   6.559   6.428   0.755  0.2466  0.1082  0.2868
 3705SOL    HW212015   6.606   6.566   0.681 -1.9818  1.8522  1.9825
 3706SOL     OW12016   1.646   1.145   1.607 -0.0874  0.5315  0.8780
 3706SOL    HW112017   1.629   1.056   1.649  0.0694 -1.6275 -3.0969
 3706SOL    HW212018   1.565   1.175   1.558 -0.1399  2.6893  2.1651
 3707SOL     OW12019   1.872   5.952   1.659  0.3119 -0.1781 -0.0145
 3707SOL    HW112020   1.789   5.965   1.714  0.3319  0.9371 -0.2268
 3707SOL    HW212021   1.848   5.950   1.562  0.4804 -0.3092 -0.0535
 3708SOL     OW12022   1.021   5.704   4.366  0.0281 -0.5090 -0.5185
 3708SOL    HW112023   1.020   5.771   4.439 -1.0347 -0.9496 -0.1023
 3708SOL    HW212024   0.927   5.678   4.343  0.3796 -3.3279  0.7379
 3709SOL     OW12025   2.000   0.499   0.505  0.4796 -0.4388 -0.5944
 3709SOL    HW112026   1.973   0.595   0.514 -1.8432 -1.0793 -0.0667
 3709SOL    HW212027   2.093   0.487   0.542 -0.0807  1.1873  1.5702
 3710SOL     OW12028   5.606   5.314   3.341 -0.2294  0.2119  0.2990
 3710SOL    HW112029   5.702   5.289   3.339 -0.0868  0.6798 -2.2511
 3710SOL    HW212030   5.559   5.273   3.263 -1.6511  1.5557  0.3892
 3711SOL     OW12031   1.279   1.947   6.874  0.1139  0.4511  0.5072
 3711SOL    HW112032   1.205   1.954   6.941  1.0305  1.5980  1.4238
 3711SOL    HW212033   1.349   1.884   6.908 -0.2623 -0.3943 -0.2245
 3712SOL     OW12034   1.509   5.836   0.654 -0.1171 -0.4149 -0.0425
 3712SOL    HW112035   1.588   5.786   0.618  0.0463 -0.2635  0.1080
 3712SOL    HW212036   1.477   5.791   0.738 -2.7577 -3.0112 -2.2153
 3713SOL     OW12037   0.195   4.364   0.200 -0.5189  0.1577  0.2765
 3713SOL    HW112038   0.164   4.459   0.206  0.3919  0.5637 -0.9049
 3713SOL    HW212039   0.280   4.353   0.252 -0.3408  0.1289 -0.0174
 3714SOL     OW12040   0.885   4.808   4.381  0.0294 -0.3951  0.3667
 3714SOL    HW112041   0.895   4.868   4.461  2.1010  0.3792 -0.3888
 3714SOL    HW212042   0.956   4.831   4.314 -0.8611 -1.8835 -1.1486
 3715SOL     OW12043   6.787   2.699   0.064  0.2913 -0.5744  0.2485
 3715SOL    HW112044   6.779   2.717   0.162  0.4866  0.2724  0.1154
 3715SOL    HW212045   6.871   2.741   0.029 -1.4367  2.2205 -0.9320
 3716SOL     OW12046   3.064   6.316   4.360 -0.6071  0.3791  0.1856
 3716SOL    HW112047   3.073   6.411   4.390  0.1963  0.5943 -0.7060
 3716SOL    HW212048   2.969   6.299   4.333 -0.1882  1.8428 -2.5442
 3717SOL     OW12049   2.981   5.387   4.738 -0.2102 -0.4293  0.0017
 3717SOL    HW112050   2.910   5.451   4.706  1.2143  0.8138 -0.8337
 3717SOL    HW212051   2.953   5.293   4.716 -2.6274 -0.2189  1.7786
 3718SOL     OW12052   2.748   2.257   3.990  0.4781  0.2303 -0.2515
 3718SOL    HW112053   2.735   2.320   3.914  0.3424 -1.4333 -1.6684
 3718SOL    HW212054   2.659   2.221   4.018  0.7593 -1.7569 -1.6649
 3719SOL     OW12055   0.003   1.645   0.007  0.3832  0.1799  0.2942
 3719SOL    HW112056  -0.090   1.624  -0.020  1.0827 -1.5340 -0.9445
 3719SOL    HW212057   0.044   1.565   0.052  0.8525  1.3491  2.0559
 3720SOL     OW12058   6.045   5.237   1.992  0.5807  0.2536 -0.7173
 3720SOL    HW112059   6.085   5.173   2.057 -0.9348 -0.2368 -0.2375
 3720SOL    HW212060   6.014   5.188   1.911 -1.1223  0.2637 -0.0989
 3721SOL     OW12061   2.735   4.523   1.478 -0.2969  0.1801 -0.3473
 3721SOL    HW112062   2.728   4.462   1.557 -0.5502  1.1179  0.3841
 3721SOL    HW212063   2.831   4.544   1.460 -0.3043  1.8933  1.2902
 3722SOL     OW12064   4.669   3.141   6.543 -0.3147  0.0754  0.0443
 3722SOL    HW112065   4.764   3.172   6.538 -0.4008  0.3854  0.2991
 3722SOL    HW212066   4.665   3.054   6.591 -0.0650 -0.3603 -0.7118
 3723SOL     OW12067   1.444   5.564   5.840  0.1298 -0.1330 -0.2152
 3723SOL    HW112068   1.491   5.484   5.877 -0.8625 -0.2410  0.8568
 3723SOL    HW212069   1.454   5.640   5.903  1.2505  0.6850 -1.3264
 3724SOL     OW12070   0.045   3.024   5.827  0.5387 -0.7944  0.9479
 3724SOL    HW112071  -0.050   3.054   5.814  0.3720 -0.8788  1.9134
 3724SOL    HW212072   0.100   3.054   5.749 -0.3988 -1.2720  0.0794
 3725SOL     OW12073   4.794   2.299   1.651 -0.3677 -0.2220 -0.2528
 3725SOL    HW112074   4.867   2.241   1.687 -0.0428  0.4685  0.2291
 3725SOL    HW212075   4.705   2.259   1.673 -0.1497 -1.3307 -1.2830
 3726SOL     OW12076   3.629   4.416   0.756 -0.3179 -0.6963 -0.3666
 3726SOL    HW112077   3.674   4.358   0.824  0.8994  0.9189  0.2628
 3726SOL    HW212078   3.542   4.448   0.791 -1.7880 -3.3307 -1.3410
 3727SOL     OW12079   5.725   3.813   0.411 -0.2633 -0.3825 -0.1610
 3727SOL    HW112080   5.794   3.880   0.437  0.7596 -2.0464  1.7272
 3727SOL    HW212081   5.678   3.844   0.329  0.6202  2.2721  0.2256
 3728SOL     OW12082   2.338   4.391   5.865  0.3842  0.1787 -0.2049
 3728SOL    HW112083   2.313   4.438   5.781 -2.2454 -0.3706  0.1656
 3728SOL    HW212084   2.326   4.293   5.853  2.1472 -0.1070  0.1697
 3729SOL     OW12085   6.227   2.223   5.916 -0.2663  0.1580 -0.8226
 3729SOL    HW112086   6.262   2.172   5.838  0.7782  0.1685 -0.3785
 3729SOL    HW212087   6.255   2.319   5.908 -0.2616  0.1850 -0.5097
 3730SOL     OW12088   4.239   6.721   6.534  0.0044  0.4271  0.5710
 3730SOL    HW112089   4.323   6.725   6.588  1.7088 -1.3472 -1.7651
 3730SOL    HW212090   4.218   6.812   6.499  1.5306  0.7344  0.3945
 3731SOL     OW12091   4.784   4.244   0.583  0.2324  0.1498  0.8343
 3731SOL    HW112092   4.810   4.308   0.655 -0.9562  1.7901 -0.1273
 3731SOL    HW212093   4.717   4.179   0.619 -0.9967  1.4784  1.0322
 3732SOL     OW12094   2.619   3.887   6.965  0.0242 -0.1325 -0.6002
 3732SOL    HW112095   2.642   3.825   7.040 -1.4864  0.1558  0.1373
 3732SOL    HW212096   2.538   3.853   6.917 -1.2193  1.5616  0.2174
 3733SOL     OW12097   3.299   2.976   0.477 -0.0103 -0.2252  0.5083
 3733SOL    HW112098   3.203   2.960   0.500 -0.6369 -0.0689 -1.7480
 3733SOL    HW212099   3.349   2.890   0.479 -0.7961 -0.7350 -0.7257
 3734SOL     OW12100   1.464   1.104   0.937 -0.1231  0.0649 -0.3922
 3734SOL    HW112101   1.515   1.020   0.955 -2.9485 -1.8887 -0.8150
 3734SOL    HW212102   1.460   1.120   0.838 -2.9878 -1.7959 -0.7170
 3735SOL     OW12103   5.951   0.546   0.752 -0.0221 -0.1526 -0.3507
 3735SOL    HW112104   6.012   0.467   0.754 -0.7265 -0.7429 -1.5557
 3735SOL    HW212105   5.907   0.556   0.841  0.7961 -0.5232  0.1096
 3736SOL     OW12106   3.446   3.727   2.339 -0.3895  0.1824  0.1652
 3736SOL    HW112107   3.365   3.716   2.398 -0.2993 -0.0020  0.2555
 3736SOL    HW212108   3.417   3.726   2.243 -0.3264 -1.5394  0.1352
 3737SOL     OW12109   5.401   0.936   0.929 -0.2766  0.3564  0.3800
 3737SOL    HW112110   5.400   0.885   0.844 -0.5943  0.2767  0.4291
 3737SOL    HW212111   5.414   0.873   1.006  0.9493  0.5339  0.3242
 3738SOL     OW12112   0.146   4.979   4.436  0.7108 -0.5515 -0.7514
 3738SOL    HW112113   0.047   4.969   4.447  0.6009  0.5906 -0.6095
 3738SOL    HW212114   0.191   4.952   4.520  0.5574 -1.4478 -0.9439
 3739SOL     OW12115   0.378   4.705   3.945  0.2580  0.4169  0.1017
 3739SOL    HW112116   0.374   4.706   4.045  1.4678 -1.5496  0.2158
 3739SOL    HW212117   0.467   4.739   3.915  0.0858  0.5336 -0.2826
 3740SOL     OW12118   3.470   2.160   6.483  0.3337 -0.0497 -1.0358
 3740SOL    HW112119   3.456   2.257   6.465 -1.0121  0.5369  2.2493
 3740SOL    HW212120   3.403   2.107   6.431 -0.5878  1.0292 -1.0069
 3741SOL     OW12121   0.304   3.408   5.768 -0.5233  0.4957 -0.4287
 3741SOL    HW112122   0.238   3.373   5.834  0.2540 -0.0567  0.0684
 3741SOL    HW212123   0.367   3.334   5.741  0.2106  1.1393 -0.5088
 3742SOL     OW12124   6.649   2.841   1.031 -0.2275 -0.7218  0.4917
 3742SOL    HW112125   6.676   2.816   1.124  0.8041  2.0843  1.0562
 3742SOL    HW212126   6.717   2.805   0.967  0.0482 -1.1676  1.0178
 3743SOL     OW12127   2.051   6.870   0.649 -0.4662  0.2953  0.3349
 3743SOL    HW112128   2.003   6.833   0.729 -2.4237  1.8788 -0.0390
 3743SOL    HW212129   2.016   6.827   0.566  0.4803 -0.2361  0.1936
 3744SOL     OW12130   0.033   3.862   6.252 -0.0531 -0.0829 -0.3599
 3744SOL    HW112131   0.010   3.804   6.330  1.3358 -0.2268 -0.0265
 3744SOL    HW212132   0.121   3.907   6.268  0.7451 -0.8602 -2.2129
 3745SOL     OW12133   5.148   5.718   1.647  0.1004  0.2945 -0.1150
 3745SOL    HW112134   5.138   5.810   1.686 -0.2590  0.3307 -0.2849
 3745SOL    HW212135   5.074   5.702   1.581 -0.7641 -0.7098  1.0696
 3746SOL     OW12136   4.475   4.803   4.968 -0.1580 -0.2211  0.2632
 3746SOL    HW112137   4.551   4.864   4.992 -0.0044 -1.1066  2.1922
 3746SOL    HW212138   4.511   4.714   4.939 -0.3994 -1.0112  2.2178
 3747SOL     OW12139   4.391   6.956   1.090  0.0332 -0.2436  0.0024
 3747SOL    HW112140   4.404   7.043   1.138 -1.6691 -0.0565  0.2055
 3747SOL    HW212141   4.435   6.883   1.142 -0.6018  0.1538  1.1523
 3748SOL     OW12142   0.581   0.771   5.638 -0.1587  0.1391 -0.0661
 3748SOL    HW112143   0.524   0.698   5.598 -2.1694  1.1925  0.7128
 3748SOL    HW212144   0.597   0.751   5.734 -0.0857  0.3514 -0.0342
 3749SOL     OW12145   6.166   2.171   5.065  0.4361 -0.2967 -0.5037
 3749SOL    HW112146   6.204   2.249   5.017  0.8974  0.2001  0.6287
 3749SOL    HW212147   6.147   2.196   5.160 -2.2826 -0.6679 -0.8817
 3750SOL     OW12148   6.118   5.816   0.987 -0.0299  0.2416 -0.0584
 3750SOL    HW112149   6.071   5.904   0.997  0.6398  0.7410 -1.1351
 3750SOL    HW212150   6.068   5.746   1.037 -0.3471  1.3060  1.1662
 3751SOL     OW12151   6.713   3.306   1.496 -0.3656 -0.1024 -0.4611
 3751SOL    HW112152   6.658   3.349   1.567 -0.2024  0.7713 -0.8486
 3751SOL    HW212153   6.782   3.371   1.464 -0.6341 -0.3704 -1.6270
 3752SOL     OW12154   0.983   5.302   6.213 -0.2318 -1.2568  0.0815
 3752SOL    HW112155   1.065   5.296   6.270  0.4556  0.4082 -0.6907
 3752SOL    HW212156   0.996   5.245   6.132 -0.0456 -1.3737  0.1895
 3753SOL     OW12157   0.136   5.169   6.544  0.3480  0.3510  0.5185
 3753SOL    HW112158   0.149   5.104   6.469 -0.7386 -0.2971  0.8778
 3753SOL    HW212159   0.221   5.221   6.558  2.0570 -2.4735  1.6374
 3754SOL     OW12160   6.399   3.750   0.007 -0.0426 -0.1420  0.9265
 3754SOL    HW112161   6.307   3.742  -0.031  0.1794  0.4318  0.2378
 3754SOL    HW212162   6.395   3.790   0.098 -0.6550 -2.2541  1.9003
 3755SOL     OW12163   4.255   1.097   1.309  0.5136  0.2889  0.5069
 3755SOL    HW112164   4.211   1.012   1.338  0.7141 -0.0593 -0.1742
 3755SOL    HW212165   4.274   1.154   1.388  1.2179 -0.7213  1.0883
 3756SOL     OW12166   0.499   5.545   3.590 -0.4553  0.0151  0.0738
 3756SOL    HW112167   0.498   5.446   3.600 -1.2761 -0.1831 -1.5558
 3756SOL    HW212168   0.434   5.572   3.518  1.4700  1.5065 -1.2161
 3757SOL     OW12169   1.724   0.790   6.578  0.0536 -0.5384 -0.5455
 3757SOL    HW112170   1.628   0.797   6.605  0.4438  2.5251  0.4089
 3757SOL    HW212171   1.748   0.865   6.517  2.6578  1.1049  2.2078
 3758SOL     OW12172   4.776   0.548   4.077 -0.4701  0.1194  0.8954
 3758SOL    HW112173   4.853   0.551   4.142 -0.7530  1.1536  1.2171
 3758SOL    HW212174   4.691   0.541   4.128 -0.6449  0.0347  0.5892
 3759SOL     OW12175   0.755   2.281   2.491  0.3973 -0.1981 -0.4713
 3759SOL    HW112176   0.764   2.289   2.392  0.3550 -1.3035 -0.5719
 3759SOL    HW212177   0.740   2.185   2.516 -2.4047  0.3632  0.3828
 3760SOL     OW12178   1.674   5.908   2.278 -0.4188 -0.3494 -0.6432
 3760SOL    HW112179   1.691   5.940   2.371 -2.8408 -1.5965  0.3546
 3760SOL    HW212180   1.755   5.923   2.221  0.5290  2.0703  1.1683
 3761SOL     OW12181   5.702   3.367   3.556  0.3997 -0.1879 -0.2688
 3761SOL    HW112182   5.699   3.290   3.618  4.1125 -1.3195 -1.1914
 3761SOL    HW212183   5.689   3.335   3.462 -0.7660  0.7885 -0.4615
 3762SOL     OW12184   3.534   5.830   4.974 -0.9839  0.0940 -0.0187
 3762SOL    HW112185   3.506   5.782   4.891  2.3661 -0.1733 -1.1701
 3762SOL    HW212186   3.560   5.763   5.043 -0.2001  0.2272 -0.1652
 3763SOL     OW12187   0.731   6.372   5.954  0.0664  0.1188 -0.0532
 3763SOL    HW112188   0.774   6.357   5.865 -0.9503 -2.2507 -0.2046
 3763SOL    HW212189   0.682   6.459   5.953 -0.5902 -0.2208 -2.0971
 3764SOL     OW12190   6.838   5.354   6.681  0.3439  0.1321 -0.3490
 3764SOL    HW112191   6.926   5.368   6.727  1.9961 -1.8988 -2.6485
 3764SOL    HW212192   6.816   5.434   6.625  0.4405  0.8633  0.6380
 3765SOL     OW12193   2.693   1.681   0.475  0.2022 -0.0364  0.1410
 3765SOL    HW112194   2.602   1.722   0.476  0.4095  0.4252  0.3744
 3765SOL    HW212195   2.688   1.587   0.508 -0.2835 -0.2177 -0.4363
 3766SOL     OW12196   5.722   2.847   5.181 -0.3817 -0.0058 -0.2524
 3766SOL    HW112197   5.660   2.851   5.103  0.1551  1.2688 -0.6292
 3766SOL    HW212198   5.781   2.928   5.182  0.7592 -0.8053  0.5337
 3767SOL     OW12199   1.758   4.154   4.554 -0.5422  0.0528  0.7552
 3767SOL    HW112200   1.696   4.078   4.535  0.4014 -0.3324 -1.0115
 3767SOL    HW212201   1.852   4.119   4.558  0.0540  1.2382 -1.3742
 3768SOL     OW12202   1.024   3.609   5.064  0.4576 -0.4325  0.1878
 3768SOL    HW112203   1.118   3.642   5.069  0.0311  0.8199  0.2511
 3768SOL    HW212204   0.976   3.636   5.148  0.3850 -2.2006  0.7480
 3769SOL     OW12205   4.966   6.065   0.141  0.0519  0.3182  0.1019
 3769SOL    HW112206   5.033   6.102   0.077  0.2656 -0.0287  0.1252
 3769SOL    HW212207   4.989   5.970   0.163 -0.7702  0.0029 -0.3468
 3770SOL     OW12208   2.217   6.251   6.969  1.0101 -0.3770 -0.4669
 3770SOL    HW112209   2.277   6.197   7.028 -0.2160 -1.3913 -0.0934
 3770SOL    HW212210   2.188   6.194   6.892 -2.0090 -1.0788  1.0438
 3771SOL     OW12211   2.339   6.004   0.524 -0.5534 -0.0416 -0.6065
 3771SOL    HW112212   2.295   6.086   0.488  0.6465  0.5342 -0.8365
 3771SOL    HW212213   2.439   6.015   0.519 -0.3054 -0.0761  2.5659
 3772SOL     OW12214   5.634   1.155   0.152  1.0804 -0.2920 -0.3226
 3772SOL    HW112215   5.537   1.132   0.142  1.2183 -0.3335 -1.6432
 3772SOL    HW212216   5.644   1.226   0.222 -0.0740  0.9281 -1.3447
 3773SOL     OW12217   5.934   1.559   3.958  0.1382 -0.6202 -1.0576
 3773SOL    HW112218   5.874   1.603   3.891 -0.6875 -1.4922 -0.9178
 3773SOL    HW212219   5.945   1.620   4.037 -0.0604 -0.1912 -1.3565
 3774SOL     OW12220   2.799   0.215   1.593 -0.3739  0.2045 -0.1344
 3774SOL    HW112221   2.737   0.274   1.542  1.2757  2.7833  0.6603
 3774SOL    HW212222   2.850   0.269   1.660 -1.1303 -2.6819  3.0877
 3775SOL     OW12223   3.629   6.381   3.875 -0.4069  0.5533 -0.4176
 3775SOL    HW112224   3.605   6.300   3.927 -0.5645  1.2541  0.6359
 3775SOL    HW212225   3.631   6.359   3.777 -1.7126 -0.3893 -0.2519
 3776SOL     OW12226   3.964   4.925   1.281  0.0829  0.0882 -0.3629
 3776SOL    HW112227   3.895   4.900   1.213  0.5168 -1.4299 -0.2771
 3776SOL    HW212228   3.926   4.912   1.373 -0.3067  1.5836 -0.2853
 3777SOL     OW12229   0.202   5.160   6.242  0.2112  0.2669 -0.3066
 3777SOL    HW112230   0.132   5.121   6.182 -0.1778  1.1541 -0.4373
 3777SOL    HW212231   0.254   5.085   6.284  0.6162 -0.3844 -1.8706
 3778SOL     OW12232   4.288   5.891   2.006  0.1569  0.0105 -0.4733
 3778SOL    HW112233   4.227   5.860   2.080  0.9086  3.3437  1.7511
 3778SOL    HW212234   4.256   5.979   1.972  2.4542  0.7597 -0.8379
 3779SOL     OW12235   1.938   6.754   6.748 -0.1649  0.2848  0.5508
 3779SOL    HW112236   2.012   6.721   6.690  0.1573  0.3588  0.9127
 3779SOL    HW212237   1.932   6.697   6.830  1.1858  1.7800  1.7720
 3780SOL     OW12238   3.058   5.216   6.251 -0.0566  0.7569  0.5088
 3780SOL    HW112239   2.976   5.272   6.241 -0.8548 -0.5276 -0.3758
 3780SOL    HW212240   3.045   5.128   6.205  2.2731  0.9834 -0.7593
 3781SOL     OW12241   4.288   0.254   4.587  0.2033  0.0239  0.0478
 3781SOL    HW112242   4.231   0.241   4.668 -0.8834 -1.1870 -0.8622
 3781SOL    HW212243   4.239   0.220   4.507  1.5460  0.5303 -1.0216
 3782SOL     OW12244   3.237   0.859   4.920 -1.3449  0.3897 -0.1731
 3782SOL    HW112245   3.144   0.828   4.941 -1.2680 -0.8822 -1.4997
 3782SOL    HW212246   3.250   0.856   4.821  1.3548 -3.3283  0.1213
 3783SOL     OW12247   3.968   5.197   1.291 -0.3399 -0.1124  0.4193
 3783SOL    HW112248   3.875   5.222   1.318 -1.1956 -2.1702 -0.3897
 3783SOL    HW212249   3.978   5.098   1.294  1.3799 -0.0314 -0.9275
 3784SOL     OW12250   4.624   1.258   2.517  0.1734 -0.1630  0.0351
 3784SOL    HW112251   4.712   1.305   2.515  0.4594 -0.6957 -0.1456
 3784SOL    HW212252   4.586   1.255   2.424 -1.0524  1.9178  0.4036
 3785SOL     OW12253   5.839   3.200   5.830  0.0374 -0.0845  0.1682
 3785SOL    HW112254   5.878   3.257   5.757 -1.7446  1.7424  0.5611
 3785SOL    HW212255   5.847   3.248   5.917 -1.9951 -0.1548  0.4320
 3786SOL     OW12256   2.320   1.628   6.041  0.1584  0.7944 -0.2634
 3786SOL    HW112257   2.344   1.605   5.946 -1.2452  0.8664 -0.6596
 3786SOL    HW212258   2.343   1.723   6.059 -1.2489  1.3358 -1.1491
 3787SOL     OW12259   0.507   6.702   6.215 -0.5349  0.0658 -0.5662
 3787SOL    HW112260   0.531   6.632   6.282  1.0706  1.0434 -0.0651
 3787SOL    HW212261   0.546   6.679   6.127  1.6534  1.2033  0.0381
 3788SOL     OW12262   0.222   2.781   3.775 -0.1912 -0.7950 -0.1135
 3788SOL    HW112263   0.294   2.842   3.743 -2.0581  0.9482 -1.1959
 3788SOL    HW212264   0.239   2.757   3.871  0.3387  1.9491  0.5627
 3789SOL     OW12265   1.555   4.736   6.457  0.0568 -0.3778 -0.1169
 3789SOL    HW112266   1.626   4.753   6.526  0.7917 -0.6010 -0.8034
 3789SOL    HW212267   1.581   4.657   6.401 -1.2845 -1.1974  0.3416
 3790SOL     OW12268   1.537   6.002   3.616 -0.1826  0.3416  0.0870
 3790SOL    HW112269   1.577   6.079   3.667 -0.8293  1.1225 -0.5732
 3790SOL    HW212270   1.438   6.011   3.613 -0.1791  0.1722 -1.0843
 3791SOL     OW12271   6.706   6.792   4.994  0.5962  0.8312  0.1176
 3791SOL    HW112272   6.719   6.710   5.051 -0.0349  0.6169 -0.0379
 3791SOL    HW212273   6.795   6.831   4.972  0.8780  0.5428  0.7136
 3792SOL     OW12274   2.502   4.983   0.772 -0.2950 -0.0067 -0.4007
 3792SOL    HW112275   2.528   5.047   0.701 -2.0240 -0.3049 -1.3589
 3792SOL    HW212276   2.469   5.033   0.852  0.1606  0.3176 -0.4160
 3793SOL     OW12277   6.055   5.001   2.489  0.5979  0.2004 -0.1448
 3793SOL    HW112278   6.105   5.067   2.544 -0.8870 -1.4366  3.4775
 3793SOL    HW212279   5.959   5.027   2.484 -0.0345 -1.5762  1.4255
 3794SOL     OW12280   0.749   3.442   1.908 -0.5516 -0.3035  0.1137
 3794SOL    HW112281   0.723   3.537   1.888  2.4776  0.8192  0.9888
 3794SOL    HW212282   0.817   3.411   1.842 -0.0856 -1.1709  0.9833
 3795SOL     OW12283   1.440   4.510   2.646 -0.0335 -0.2664 -0.3146
 3795SOL    HW112284   1.424   4.482   2.740  0.2626  0.0306 -0.1717
 3795SOL    HW212285   1.531   4.551   2.638  0.6671 -1.8675 -1.0904
 3796SOL     OW12286   4.229   5.593   3.110  0.0835  0.5630  0.1230
 3796SOL    HW112287   4.304   5.657   3.095  1.2259 -0.7668 -0.1212
 3796SOL    HW212288   4.143   5.643   3.117  0.8694  2.0704 -0.4677
 3797SOL     OW12289   4.764   0.330   3.893 -0.1474  0.0705 -0.4235
 3797SOL    HW112290   4.769   0.399   3.966 -1.0430  0.3372 -0.5977
 3797SOL    HW212291   4.856   0.297   3.871  0.3426  1.4592 -0.5575
 3798SOL     OW12292   5.293   4.918   1.059  0.0574 -0.1799 -0.0036
 3798SOL    HW112293   5.323   4.914   1.155  0.0638 -0.4225 -0.0159
 3798SOL    HW212294   5.291   5.014   1.029  1.4403 -0.1943 -0.2062
 3799SOL     OW12295   5.508   1.913   5.087 -0.1772  0.0895  0.3161
 3799SOL    HW112296   5.409   1.929   5.089 -0.4211 -1.3638  0.9438
 3799SOL    HW212297   5.535   1.882   4.996 -0.3519  0.1785  0.2327
 3800SOL     OW12298   3.676   5.296   3.351  0.6633 -0.0275  0.2903
 3800SOL    HW112299   3.628   5.350   3.420 -0.0403 -0.1580 -0.0964
 3800SOL    HW212300   3.751   5.351   3.313 -0.4997  0.9727 -0.6372
 3801SOL     OW12301   3.620   3.566   1.653 -0.1484 -0.5610  0.5286
 3801SOL    HW112302   3.542   3.505   1.665  0.6013 -1.7582 -0.4305
 3801SOL    HW212303   3.704   3.518   1.678  0.5483 -0.2613 -1.1046
 3802SOL     OW12304   6.125   2.317   5.302  0.3296 -0.0415  0.2333
 3802SOL    HW112305   6.158   2.389   5.240  1.0663 -0.3856  0.2167
 3802SOL    HW212306   6.186   2.311   5.381  1.7141 -2.2557 -0.9131
 3803SOL     OW12307   5.098   4.132   2.477  0.0631 -0.1799 -0.8350
 3803SOL    HW112308   5.111   4.115   2.575  0.3177  0.4238 -0.7598
 3803SOL    HW212309   5.001   4.144   2.458  0.2022  3.2132 -0.0304
 3804SOL     OW12310   0.820   5.057   5.778  0.3186  0.2534  0.0364
 3804SOL    HW112311   0.751   4.995   5.816  0.0716  1.1177  1.0596
 3804SOL    HW212312   0.835   5.133   5.842  0.7014  1.1799 -1.1215
 3805SOL     OW12313   0.332   3.313   4.551 -0.0448 -0.1892  0.0821
 3805SOL    HW112314   0.246   3.268   4.527  1.0248 -1.6969 -1.0727
 3805SOL    HW212315   0.325   3.350   4.644 -1.7081 -0.8305  0.2467
 3806SOL     OW12316   2.389   4.791   3.117 -0.3012 -0.1980  0.3120
 3806SOL    HW112317   2.439   4.875   3.096 -0.7547  0.0942  0.3779
 3806SOL    HW212318   2.448   4.727   3.166 -0.0312  0.1907  0.4943
 3807SOL     OW12319   4.231   3.343   5.951 -0.9198  0.2802  0.2142
 3807SOL    HW112320   4.271   3.255   5.926 -1.2151  0.1715  0.1216
 3807SOL    HW212321   4.260   3.413   5.885 -2.7456 -0.2625 -1.2470
 3808SOL     OW12322   2.527   0.579   5.787 -0.1458 -0.0217  0.1406
 3808SOL    HW112323   2.481   0.618   5.866 -0.1131  1.5333 -0.5661
 3808SOL    HW212324   2.486   0.616   5.703 -0.4369 -1.9101 -0.6050
 3809SOL     OW12325   6.810   1.494   0.764  0.3404 -0.2847  0.0290
 3809SOL    HW112326   6.870   1.431   0.714 -1.8303 -1.5461 -1.1601
 3809SOL    HW212327   6.835   1.588   0.743  1.6611 -0.7819 -0.7068
 3810SOL     OW12328   4.185   5.645   3.636  0.7121 -0.5849  0.4814
 3810SOL    HW112329   4.221   5.701   3.711 -0.2888 -2.4397  2.4335
 3810SOL    HW212330   4.256   5.581   3.605  2.0427  1.8641 -2.1111
 3811SOL     OW12331   1.802   1.912   1.429  0.0932  0.6862  0.0782
 3811SOL    HW112332   1.825   1.829   1.380  0.1845 -0.5640  2.1061
 3811SOL    HW212333   1.744   1.889   1.508  0.5431  2.4646  0.9796
 3812SOL     OW12334   2.346   4.902   3.554 -0.1085 -0.0276  0.0512
 3812SOL    HW112335   2.249   4.881   3.570  0.0800 -1.7604 -0.8365
 3812SOL    HW212336   2.379   4.963   3.626 -1.1676 -1.6083  1.9832
 3813SOL     OW12337   1.444   4.862   1.008 -0.4515 -0.0142 -0.4957
 3813SOL    HW112338   1.372   4.869   1.077  2.3699  0.5233  2.6102
 3813SOL    HW212339   1.489   4.773   1.015 -0.9942 -0.5259 -2.7078
 3814SOL     OW12340   5.353   3.277   2.279  0.3776  0.4243 -0.1187
 3814SOL    HW112341   5.316   3.368   2.297  0.6071  0.1708  1.8358
 3814SOL    HW212342   5.417   3.281   2.203  0.6682  1.9672  0.1764
 3815SOL     OW12343   4.960   7.001   4.516  0.5194  0.0708  0.0251
 3815SOL    HW112344   4.973   6.983   4.613 -1.4613  0.1212  0.3335
 3815SOL    HW212345   5.048   6.996   4.469  1.5217  0.1415  1.8200
 3816SOL     OW12346   0.067   0.930   4.054 -0.4490  0.8668  0.3540
 3816SOL    HW112347   0.006   0.850   4.052  0.8945 -0.4017  3.4501
 3816SOL    HW212348   0.019   1.009   4.016 -2.5763 -0.9046 -0.9363
 3817SOL     OW12349   1.121   6.721   6.245  0.1132 -0.2813 -0.5334
 3817SOL    HW112350   1.215   6.721   6.210  0.8130 -1.6479  1.1456
 3817SOL    HW212351   1.113   6.652   6.317 -1.3887  1.7896  1.4348
 3818SOL     OW12352   4.033   0.991   1.931 -0.1872 -0.2017  0.2594
 3818SOL    HW112353   4.084   1.076   1.916 -0.0745  0.1026  2.1058
 3818SOL    HW212354   4.097   0.914   1.928 -0.3676 -0.3370 -1.9499
 3819SOL     OW12355   5.129   4.477   2.236  0.0604 -0.1270  0.0433
 3819SOL    HW112356   5.124   4.396   2.178 -0.3524 -0.5877  0.7113
 3819SOL    HW212357   5.198   4.464   2.307 -0.8682 -0.4149  0.9209
 3820SOL     OW12358   3.588   1.169   1.318 -0.3715 -0.2887  0.2187
 3820SOL    HW112359   3.610   1.263   1.293 -0.3012 -0.8700 -2.1118
 3820SOL    HW212360   3.529   1.169   1.399 -1.0364  1.7983 -0.2048
 3821SOL     OW12361   1.556   5.654   6.204 -0.1008  0.0181  0.1237
 3821SOL    HW112362   1.620   5.722   6.168  0.3034 -0.4126  0.0146
 3821SOL    HW212363   1.463   5.691   6.202 -0.1028 -0.0027 -1.4145
 3822SOL     OW12364   2.948   2.158   2.173 -0.3677 -0.4052 -0.4184
 3822SOL    HW112365   3.007   2.095   2.122  1.5165  1.8053 -1.1745
 3822SOL    HW212366   2.918   2.231   2.112 -1.5051  0.0762  0.6866
 3823SOL     OW12367   0.163   0.884   4.335  0.3422 -0.3177  0.1039
 3823SOL    HW112368   0.146   0.918   4.243  0.0836 -1.5525 -0.3131
 3823SOL    HW212369   0.140   0.956   4.401  1.4053  0.9242 -0.7986
 3824SOL     OW12370   6.761   0.845   6.325 -0.8587 -0.1214 -0.0675
 3824SOL    HW112371   6.742   0.922   6.263 -1.2176 -0.2176 -0.0837
 3824SOL    HW212372   6.830   0.872   6.392  0.2369 -0.3217 -1.0893
 3825SOL     OW12373   4.795   4.667   4.699 -0.8534 -0.0396  0.6361
 3825SOL    HW112374   4.779   4.647   4.602  2.1511 -3.5303  0.6402
 3825SOL    HW212375   4.739   4.606   4.755 -0.8108  0.3221  1.0809
 3826SOL     OW12376   5.248   1.810   0.262  0.4091 -0.1485 -0.2425
 3826SOL    HW112377   5.346   1.804   0.278  0.4396 -0.4186 -0.5330
 3826SOL    HW212378   5.201   1.739   0.314  0.3749 -0.0879 -0.1897
 3827SOL     OW12379   6.332   6.891   5.620  0.1908 -0.2881 -0.3046
 3827SOL    HW112380   6.369   6.978   5.652 -1.4864 -0.3902  2.1575
 3827SOL    HW212381   6.390   6.816   5.651 -0.7325 -0.2913  1.5474
 3828SOL     OW12382   1.551   5.956   1.628 -0.5231 -0.0184  0.4275
 3828SOL    HW112383   1.563   5.919   1.720  1.4537  0.2980  0.3505
 3828SOL    HW212384   1.598   5.896   1.562 -0.4239  0.6748 -0.1406
 3829SOL     OW12385   6.319   5.349   0.238 -0.6104  0.2142  0.3153
 3829SOL    HW112386   6.347   5.316   0.328  0.6493 -1.0869 -0.5104
 3829SOL    HW212387   6.287   5.444   0.246 -0.1356  0.2677  2.0564
 3830SOL     OW12388   5.266   5.812   2.838 -1.0505 -0.3439 -0.5033
 3830SOL    HW112389   5.338   5.816   2.769  1.2130 -1.7421  1.5898
 3830SOL    HW212390   5.198   5.744   2.812  0.5098 -1.8723 -0.7654
 3831SOL     OW12391   6.995   4.302   1.628  0.3510  0.4250 -0.5619
 3831SOL    HW112392   7.066   4.356   1.673  1.1730  0.9844 -2.4343
 3831SOL    HW212393   7.028   4.208   1.613 -0.3775 -0.1219  1.0048
 3832SOL     OW12394   5.023   1.641   4.276 -0.3364 -0.3824 -0.4909
 3832SOL    HW112395   4.924   1.640   4.259 -0.3734  0.8107 -0.3995
 3832SOL    HW212396   5.041   1.689   4.362  0.3900  0.0749 -0.8980
 3833SOL     OW12397   0.003   5.363   3.600  0.0528  0.7640  0.2325
 3833SOL    HW112398  -0.072   5.410   3.553 -0.6146 -1.4306 -1.0563
 3833SOL    HW212399   0.073   5.430   3.626  0.2603  2.2734 -3.5021
 3834SOL     OW12400   6.315   2.267   3.473 -0.2511 -0.0103 -0.2186
 3834SOL    HW112401   6.274   2.214   3.399  0.4967  0.5646 -1.0674
 3834SOL    HW212402   6.253   2.341   3.500 -0.7013 -0.4688  0.0240
 3835SOL     OW12403   5.777   5.515   5.908 -0.7657  0.0914  0.1892
 3835SOL    HW112404   5.808   5.607   5.933 -1.4503  0.2712  0.3954
 3835SOL    HW212405   5.781   5.505   5.808 -0.6957  0.3425  0.1646
 3836SOL     OW12406   3.060   6.916   4.758  0.2604  0.3664 -0.1663
 3836SOL    HW112407   3.129   6.878   4.819  1.4876  0.9373 -1.1410
 3836SOL    HW212408   2.999   6.843   4.728  0.9089 -0.3141  0.1251
 3837SOL     OW12409   3.504   2.840   3.151  0.1297  0.0159  0.2857
 3837SOL    HW112410   3.557   2.910   3.103  0.0315  1.5275  2.2210
 3837SOL    HW212411   3.567   2.772   3.190  0.2854 -0.5713 -0.9403
 3838SOL     OW12412   4.816   2.030   4.157  0.0620 -0.3597  0.1013
 3838SOL    HW112413   4.746   2.093   4.124  0.0059  0.7215  2.1062
 3838SOL    HW212414   4.872   2.076   4.226  2.5447 -1.3017 -1.1800
 3839SOL     OW12415   5.051   2.331   0.648 -0.5065  0.0901 -0.7839
 3839SOL    HW112416   5.100   2.286   0.723  0.5770  0.5083 -1.2265
 3839SOL    HW212417   4.953   2.313   0.657 -0.1569 -2.2669 -0.8566
 3840SOL     OW12418   2.809   1.209   4.679  0.1791  0.3300 -0.3216
 3840SOL    HW112419   2.812   1.274   4.755  0.1380  0.0349 -0.0684
 3840SOL    HW212420   2.808   1.259   4.592 -1.3341  0.6970 -0.1029
 3841SOL     OW12421   4.948   2.853   3.948  0.1064  0.4839  0.0997
 3841SOL    HW112422   4.908   2.890   3.864 -2.0529 -0.6057  0.5734
 3841SOL    HW212423   5.005   2.774   3.926 -1.0314 -0.2388 -0.2871
 3842SOL     OW12424   0.363   2.903   2.129 -0.7585  0.5947 -0.1514
 3842SOL    HW112425   0.367   2.832   2.059  1.1715 -1.8678  2.2152
 3842SOL    HW212426   0.444   2.962   2.120 -1.0824  0.9718 -0.6319
 3843SOL     OW12427   1.962   2.965   6.797  0.1882  0.2009  0.0396
 3843SOL    HW112428   1.917   3.001   6.715  0.1778 -0.6183 -0.3261
 3843SOL    HW212429   2.028   2.895   6.770 -0.0968 -0.3494  0.7600
 3844SOL     OW12430   3.715   2.892   1.312  0.1608  0.2304 -0.0319
 3844SOL    HW112431   3.714   2.828   1.235 -0.5072 -1.2698  1.1734
 3844SOL    HW212432   3.802   2.884   1.361 -0.1119 -0.1354  0.4053
 3845SOL     OW12433   3.040   3.095   4.617 -0.0608  0.1591  0.4703
 3845SOL    HW112434   3.038   3.054   4.709 -1.4093 -0.4467  0.1975
 3845SOL    HW212435   3.022   3.193   4.624  1.5665  0.4427  0.9914
 3846SOL     OW12436   1.125   5.088   3.816 -0.4863  0.0023  0.0999
 3846SOL    HW112437   1.201   5.137   3.860  1.1207 -0.4237 -2.0400
 3846SOL    HW212438   1.133   4.991   3.836 -0.0606 -0.1269 -0.6990
 3847SOL     OW12439   0.701   6.467   4.455 -0.3775 -0.4836  0.4613
 3847SOL    HW112440   0.603   6.460   4.437 -0.3363 -2.4471  0.8069
 3847SOL    HW212441   0.746   6.510   4.377 -1.0973 -2.6500 -1.2553
 3848SOL     OW12442   5.702   5.555   3.207 -0.1744 -0.4662 -0.4778
 3848SOL    HW112443   5.688   5.459   3.233  1.5166 -0.0514  2.3030
 3848SOL    HW212444   5.800   5.573   3.200 -0.4030  1.4270  0.6614
 3849SOL     OW12445   5.260   5.834   2.098  0.0734  0.0121 -0.0839
 3849SOL    HW112446   5.337   5.772   2.084 -0.8961 -1.2858  0.1187
 3849SOL    HW212447   5.175   5.786   2.078 -0.8643  0.5855  2.1600
 3850SOL     OW12448   1.615   2.368   1.006  0.8067 -0.9819  0.3524
 3850SOL    HW112449   1.644   2.339   0.914  1.4942 -0.1917  0.3140
 3850SOL    HW212450   1.691   2.412   1.053  0.0218  0.0502  0.7001
 3851SOL     OW12451   1.134   4.082   3.794  0.0222 -0.5921 -0.7126
 3851SOL    HW112452   1.214   4.048   3.844  0.7912 -2.3969 -3.0127
 3851SOL    HW212453   1.064   4.011   3.789 -1.7843  0.9071  1.1199
 3852SOL     OW12454   1.610   5.888   1.871  0.2913  0.5010 -0.3421
 3852SOL    HW112455   1.676   5.834   1.923  0.9824 -0.1917 -1.8766
 3852SOL    HW212456   1.573   5.961   1.928  2.4714  0.9712  0.5337
 3853SOL     OW12457   3.216   2.487   0.682 -0.1123 -0.0632  0.1833
 3853SOL    HW112458   3.279   2.470   0.758 -1.6288 -0.5961  1.3889
 3853SOL    HW212459   3.127   2.515   0.719 -0.6868  0.3738 -1.4453
 3854SOL     OW12460   6.312   4.460   4.775  0.0918  0.0716  0.2690
 3854SOL    HW112461   6.331   4.438   4.870 -0.8430  1.0772  0.7114
 3854SOL    HW212462   6.221   4.499   4.767  0.5992  1.1098 -0.8591
 3855SOL     OW12463   3.663   5.231   0.031  0.3404 -0.0333  0.2938
 3855SOL    HW112464   3.692   5.164  -0.036 -1.0264 -0.7382  0.3600
 3855SOL    HW212465   3.710   5.216   0.118  0.9818 -0.0832 -0.0615
 3856SOL     OW12466   2.858   3.300   6.167 -0.2793 -0.5183 -0.6193
 3856SOL    HW112467   2.919   3.295   6.087  2.4248 -0.0057  1.2794
 3856SOL    HW212468   2.824   3.209   6.188  0.6343 -0.9955 -1.1392
 3857SOL     OW12469   3.946   1.338   6.742 -0.1479 -0.3203  0.2947
 3857SOL    HW112470   3.889   1.412   6.777 -1.2842 -1.1542  0.2237
 3857SOL    HW212471   3.992   1.369   6.658 -0.3076  0.4332  0.4768
 3858SOL     OW12472   6.176   1.529   5.361  0.6930  0.0518 -0.1155
 3858SOL    HW112473   6.203   1.614   5.316 -0.2642  0.3480 -0.1645
 3858SOL    HW212474   6.088   1.499   5.325  0.7669 -0.6728  0.2897
 3859SOL     OW12475   3.095   6.621   4.516 -0.6482  0.1736 -0.1848
 3859SOL    HW112476   3.029   6.652   4.449 -1.0183  0.1902  0.1843
 3859SOL    HW212477   3.180   6.674   4.506 -0.6411  0.0554 -0.7477
 3860SOL     OW12478   4.179   1.073   5.503  0.1876  0.4770 -0.3370
 3860SOL    HW112479   4.262   1.101   5.456  0.2098  1.2097  0.1406
 3860SOL    HW212480   4.127   1.153   5.532 -0.5153  0.0318 -0.3136
 3861SOL     OW12481   1.018   6.540   2.351 -0.3336  0.1496 -0.2521
 3861SOL    HW112482   0.981   6.448   2.362  0.0493  0.2339  2.4674
 3861SOL    HW212483   0.989   6.597   2.428  2.4790  1.1862  0.1682
 3862SOL     OW12484   1.378   2.939   1.340  0.2243 -0.2841 -0.1124
 3862SOL    HW112485   1.352   2.868   1.275 -0.1372 -0.4877  0.2542
 3862SOL    HW212486   1.328   3.023   1.319  1.6967  0.3194 -1.4412
 3863SOL     OW12487   5.903   5.463   5.652  0.2589  0.0197 -0.1145
 3863SOL    HW112488   5.812   5.455   5.612 -0.7159  0.5850  1.8727
 3863SOL    HW212489   5.927   5.560   5.662 -0.4875  0.0261  2.5404
 3864SOL     OW12490   3.777   1.249   0.673  0.1657 -0.3337 -0.1924
 3864SOL    HW112491   3.765   1.282   0.580 -0.2566 -1.7884 -0.6727
 3864SOL    HW212492   3.695   1.269   0.727  0.3138  0.2831 -0.1859
 3865SOL     OW12493   3.893   4.358   1.676  1.0995 -0.6547  0.6887
 3865SOL    HW112494   3.837   4.275   1.683  1.5758 -0.9521  1.0014
 3865SOL    HW212495   3.834   4.439   1.688  0.5415 -0.9213 -0.1701
 3866SOL     OW12496   1.635   2.153   5.650  0.1881  0.6907 -0.4861
 3866SOL    HW112497   1.664   2.218   5.579  0.3733  0.6033 -0.4898
 3866SOL    HW212498   1.712   2.132   5.710  0.1991  0.2606 -0.6493
 3867SOL     OW12499   0.127   3.569   3.016  0.4491 -0.1890 -0.9204
 3867SOL    HW112500   0.037   3.535   2.989 -0.8029  0.6802  1.7811
 3867SOL    HW212501   0.134   3.667   2.996  0.1302  0.1004  0.3015
 3868SOL     OW12502   6.047   3.658   1.548  0.2041  0.2243  0.5933
 3868SOL    HW112503   5.984   3.705   1.609 -0.1732  0.6986 -0.1522
 3868SOL    HW212504   6.037   3.559   1.559 -1.8923  0.2401 -0.6944
 3869SOL     OW12505   6.371   0.319   4.382 -0.1617 -0.2264 -0.0866
 3869SOL    HW112506   6.282   0.359   4.403 -0.2909 -0.8003  0.4751
 3869SOL    HW212507   6.362   0.222   4.363  0.1078  0.0542 -1.8326
 3870SOL     OW12508   6.185   5.888   5.013  0.7155  0.4298 -0.2497
 3870SOL    HW112509   6.182   5.820   4.940 -0.1818  1.3452 -1.0965
 3870SOL    HW212510   6.229   5.971   4.980  0.2729  0.8661  0.2252
 3871SOL     OW12511   1.061   1.364   5.282  0.0912 -0.3104  0.3387
 3871SOL    HW112512   1.082   1.423   5.360 -0.1544 -0.6505  0.6636
 3871SOL    HW212513   0.998   1.412   5.221 -1.3585 -0.8069  1.3886
 3872SOL     OW12514   3.515   0.639   5.750  0.0329 -0.7959 -0.0845
 3872SOL    HW112515   3.451   0.604   5.681 -0.1045 -0.9637  0.1247
 3872SOL    HW212516   3.495   0.735   5.770  0.5920 -0.5082 -0.8717
 3873SOL     OW12517   6.005   4.163   2.786 -0.8000 -0.1798 -0.4902
 3873SOL    HW112518   5.964   4.132   2.872 -1.2097 -0.1542 -0.6739
 3873SOL    HW212519   5.985   4.261   2.774  0.1843  0.0846 -0.0835
 3874SOL     OW12520   3.774   6.452   4.637  0.9029  0.0779 -0.3353
 3874SOL    HW112521   3.811   6.360   4.628  1.5773  0.3957 -0.9770
 3874SOL    HW212522   3.690   6.461   4.583  0.7445 -0.2074 -0.1341
 3875SOL     OW12523   4.355   3.448   6.841 -0.3271 -0.8004  0.5556
 3875SOL    HW112524   4.453   3.465   6.841 -0.6168  1.1401 -0.6171
 3875SOL    HW212525   4.315   3.481   6.926 -0.2223  0.3399  0.1812
 3876SOL     OW12526   5.710   6.715   5.813 -0.2276 -0.1448  0.3521
 3876SOL    HW112527   5.632   6.777   5.827  0.7623  2.0837 -2.7845
 3876SOL    HW212528   5.788   6.748   5.866 -0.5442 -0.5345  1.0690
 3877SOL     OW12529   5.686   4.397   3.998 -0.3835  0.0729 -0.2138
 3877SOL    HW112530   5.715   4.307   4.031 -1.3881 -0.6488 -1.2063
 3877SOL    HW212531   5.651   4.451   4.075  0.9413 -0.0728  0.5197
 3878SOL     OW12532   4.164   4.551   0.131 -0.7314 -0.2378 -0.0242
 3878SOL    HW112533   4.112   4.585   0.210 -0.9221  0.3924 -0.4135
 3878SOL    HW212534   4.101   4.528   0.057 -0.5070 -0.1966 -0.2284
 3879SOL     OW12535   4.283   0.465   5.762 -0.0405 -0.6125  0.1963
 3879SOL    HW112536   4.289   0.498   5.856  1.8928 -1.5985  0.4675
 3879SOL    HW212537   4.186   0.455   5.737 -0.6537 -1.8748  2.6578
 3880SOL     OW12538   5.044   4.362   2.837  0.3097  0.2466 -1.0028
 3880SOL    HW112539   4.960   4.315   2.863  0.1888  0.7755 -0.4139
 3880SOL    HW212540   5.025   4.459   2.823  0.9070  0.4562 -0.4027
 3881SOL     OW12541   3.418   1.672   0.875  0.2907  0.5870  0.5729
 3881SOL    HW112542   3.357   1.741   0.915 -1.2963  0.7620 -1.9288
 3881SOL    HW212543   3.377   1.581   0.884  0.2765  0.5370  0.0403
 3882SOL     OW12544   0.727   3.473   5.095 -0.3237 -0.4674  0.0748
 3882SOL    HW112545   0.690   3.517   5.013 -2.2644 -1.2819  0.4634
 3882SOL    HW212546   0.798   3.531   5.134 -0.2724  0.5579 -1.4478
 3883SOL     OW12547   0.149   2.577   4.178 -0.0551 -0.3530  0.6651
 3883SOL    HW112548   0.175   2.532   4.092  0.3181 -0.2575  0.7263
 3883SOL    HW212549   0.203   2.538   4.253 -0.6476 -0.6949  0.9144
 3884SOL     OW12550   3.682   3.407   6.660  0.1247 -0.6861  0.5302
 3884SOL    HW112551   3.647   3.389   6.752 -0.0297 -1.0308  0.4065
 3884SOL    HW212552   3.779   3.430   6.665  0.3803 -1.7352  0.6857
 3885SOL     OW12553   4.864   1.386   2.468 -0.5805 -0.1565 -0.3873
 3885SOL    HW112554   4.889   1.482   2.451 -0.7952 -0.3807 -2.1911
 3885SOL    HW212555   4.919   1.350   2.543  0.0628  1.1608 -0.2036
 3886SOL     OW12556   5.676   3.925   1.151 -0.2392 -0.4600  0.4509
 3886SOL    HW112557   5.668   3.993   1.078  2.5764 -2.9703 -2.5239
 3886SOL    HW212558   5.595   3.866   1.150 -0.4556 -0.1746 -0.3921
 3887SOL     OW12559   3.111   2.172   4.736  0.9981 -0.3517 -0.3415
 3887SOL    HW112560   3.113   2.207   4.829  1.8007  0.4216 -0.6360
 3887SOL    HW212561   3.080   2.243   4.673 -1.5176 -1.4572 -0.4513
 3888SOL     OW12562   4.432   1.205   5.023  0.1451  0.6421  0.3419
 3888SOL    HW112563   4.481   1.141   5.083  1.2920  2.4073  1.4337
 3888SOL    HW212564   4.487   1.289   5.014 -1.3589  1.5393 -0.8661
 3889SOL     OW12565   5.500   5.038   5.882  0.8185  0.2205 -0.4597
 3889SOL    HW112566   5.469   5.103   5.952 -0.5769 -0.4005 -0.4570
 3889SOL    HW212567   5.507   5.085   5.794 -0.1964  0.4040 -0.4617
 3890SOL     OW12568   6.492   2.557   4.497  0.3861 -0.0458  0.4524
 3890SOL    HW112569   6.535   2.547   4.407 -1.3780 -2.4134 -0.2108
 3890SOL    HW212570   6.494   2.653   4.523  4.0668  0.2999 -0.4619
 3891SOL     OW12571   5.741   0.918   4.507  0.1134  0.7348  0.7554
 3891SOL    HW112572   5.801   0.862   4.450 -0.1699  1.2676 -0.0757
 3891SOL    HW212573   5.747   0.886   4.602 -0.4553 -1.0412  0.2273
 3892SOL     OW12574   1.364   1.000   3.131 -0.2108 -0.1888 -0.5589
 3892SOL    HW112575   1.282   1.055   3.151 -0.3267 -0.2394 -0.8887
 3892SOL    HW212576   1.336   0.913   3.090 -0.1930 -1.5175  2.0403
 3893SOL     OW12577   2.083   2.414   1.520  0.2464  0.2800 -0.1737
 3893SOL    HW112578   1.993   2.425   1.562  0.3187 -1.0371  0.4021
 3893SOL    HW212579   2.151   2.397   1.591  0.2826 -2.5717 -0.7385
 3894SOL     OW12580   0.266   2.680   6.719  0.3555 -0.0670 -0.4233
 3894SOL    HW112581   0.289   2.756   6.778 -1.6720  1.6526 -1.6941
 3894SOL    HW212582   0.251   2.598   6.774  0.8895  0.8738  1.1645
 3895SOL     OW12583   0.615   0.376   3.216  0.1839 -0.1065  0.5594
 3895SOL    HW112584   0.580   0.468   3.199  1.2106  0.3753  0.9607
 3895SOL    HW212585   0.625   0.327   3.130  0.4149  0.4547  0.2652
 3896SOL     OW12586   4.802   2.217   5.978  0.2728  0.2931 -0.1156
 3896SOL    HW112587   4.859   2.199   5.898  0.4999  0.4489  0.0079
 3896SOL    HW212588   4.861   2.243   6.055 -0.0585  1.7448 -0.3354
 3897SOL     OW12589   0.938   4.124   0.148 -0.0541  0.5096 -0.2906
 3897SOL    HW112590   0.967   4.216   0.120  1.0445  0.6932  1.3466
 3897SOL    HW212591   0.947   4.062   0.070 -2.4834  2.0735 -1.9809
 3898SOL     OW12592   0.022   5.130   1.710 -0.3796 -0.4996 -0.1729
 3898SOL    HW112593  -0.034   5.047   1.715  0.4633 -1.0347  2.9054
 3898SOL    HW212594   0.115   5.108   1.740  0.1178  1.3754 -0.2451
 3899SOL     OW12595   6.730   5.091   6.044 -0.0980 -0.0681  0.2975
 3899SOL    HW112596   6.662   5.018   6.055 -0.4819  0.2892  0.2961
 3899SOL    HW212597   6.685   5.180   6.048  0.4960  0.1981  1.2004
 3900SOL     OW12598   4.114   5.729   2.187 -0.2989  0.3932 -0.4404
 3900SOL    HW112599   4.063   5.711   2.103  0.3986  0.1379 -0.8219
 3900SOL    HW212600   4.177   5.654   2.205 -0.2687  0.5616  0.1807
 3901SOL     OW12601   4.988   5.395   0.118  0.1692 -0.1003 -0.0401
 3901SOL    HW112602   5.081   5.363   0.102  0.2830 -1.0731  2.2476
 3901SOL    HW212603   4.964   5.383   0.214 -1.7352  1.7585 -0.2134
 3902SOL     OW12604   3.312   1.371   0.628 -0.0432  0.9691  0.4502
 3902SOL    HW112605   3.244   1.409   0.691  0.4906  1.4534  0.7509
 3902SOL    HW212606   3.344   1.443   0.566 -0.6602  0.4659 -0.4730
 3903SOL     OW12607   6.855   5.421   4.656  0.2369 -0.5897  0.2978
 3903SOL    HW112608   6.758   5.398   4.646  0.5463 -1.4233 -1.1330
 3903SOL    HW212609   6.877   5.431   4.753 -0.8054 -2.6478  0.8173
 3904SOL     OW12610   6.286   0.750   6.897 -0.1079 -0.0644  0.1716
 3904SOL    HW112611   6.195   0.789   6.878 -0.0758  0.3502  0.8522
 3904SOL    HW212612   6.304   0.675   6.832 -0.9166 -0.1258  0.0064
 3905SOL     OW12613   1.351   3.293   4.913  0.6861 -0.8580 -0.1626
 3905SOL    HW112614   1.310   3.213   4.869 -1.3049 -1.1687  2.0599
 3905SOL    HW212615   1.412   3.339   4.849 -0.9310 -2.0628 -2.7155
 3906SOL     OW12616   2.109   4.634   4.231 -0.2804  0.0456  0.4548
 3906SOL    HW112617   2.143   4.563   4.293 -0.0193  0.9918  1.4342
 3906SOL    HW212618   2.024   4.603   4.189 -0.6236 -0.5263  1.5144
 3907SOL     OW12619   4.469   1.735   0.994 -0.0860  0.6332  0.2611
 3907SOL    HW112620   4.462   1.796   0.915  1.1128 -0.7655 -0.9961
 3907SOL    HW212621   4.424   1.649   0.974  2.0123 -0.5250  0.2369
 3908SOL     OW12622   1.269   3.445   3.695  0.2891 -0.6433  0.0180
 3908SOL    HW112623   1.256   3.530   3.644 -2.4563 -0.5962  0.5981
 3908SOL    HW212624   1.364   3.417   3.690  0.8713  1.3694 -1.8890
 3909SOL     OW12625   5.162   3.612   4.697  0.4539  0.3721 -0.7318
 3909SOL    HW112626   5.207   3.523   4.711 -0.5571 -0.4457 -2.3478
 3909SOL    HW212627   5.221   3.685   4.733  1.3374 -0.9243  0.5906
 3910SOL     OW12628   5.950   3.926   5.024  0.1960 -0.3120  0.2296
 3910SOL    HW112629   6.042   3.919   4.984  0.5173 -0.9837  1.0641
 3910SOL    HW212630   5.887   3.872   4.969 -0.0115  1.2116 -1.1439
 3911SOL     OW12631   6.301   1.169   2.172  0.7511  0.5988  0.3239
 3911SOL    HW112632   6.275   1.250   2.225  0.8217 -0.3208  1.8153
 3911SOL    HW212633   6.314   1.195   2.076  0.5789  2.3040  0.7283
 3912SOL     OW12634   3.773   4.006   6.912  0.3749 -0.0498  0.0965
 3912SOL    HW112635   3.693   3.973   6.864 -0.1319  0.8762  0.2739
 3912SOL    HW212636   3.825   3.929   6.948 -0.4627 -0.6555  0.0247
 3913SOL     OW12637   6.228   6.967   5.394  0.0503  0.2326  0.1235
 3913SOL    HW112638   6.213   7.065   5.411  2.5363  0.7067 -0.0058
 3913SOL    HW212639   6.280   6.928   5.469 -0.0564 -0.7588 -0.3092
 3914SOL     OW12640   1.265   6.433   1.481 -0.4364 -0.6513  0.0523
 3914SOL    HW112641   1.199   6.368   1.519  0.6204 -1.2086  0.9691
 3914SOL    HW212642   1.341   6.384   1.439 -0.4703 -0.0036 -0.8128
 3915SOL     OW12643   3.390   5.842   2.612  0.0784 -0.4684  0.6975
 3915SOL    HW112644   3.332   5.886   2.680 -0.5612 -0.5144  0.1864
 3915SOL    HW212645   3.420   5.910   2.545 -0.3242 -0.6633  0.3147
 3916SOL     OW12646   2.853   3.449   2.315  0.5807  0.1649 -0.2715
 3916SOL    HW112647   2.876   3.540   2.281  0.9315  0.2082  0.0727
 3916SOL    HW212648   2.760   3.425   2.286  0.8997  0.1595 -1.3234
 3917SOL     OW12649   2.507   5.903   0.219 -0.3705  0.3594 -0.6494
 3917SOL    HW112650   2.520   5.933   0.125 -1.2669  0.3974 -0.7659
 3917SOL    HW212651   2.453   5.819   0.220 -1.7172  1.1973 -0.1008
 3918SOL     OW12652   0.558   3.187   0.074  0.0789  0.0486  0.1297
 3918SOL    HW112653   0.615   3.105   0.067  1.9628  1.2905  0.0494
 3918SOL    HW212654   0.497   3.179   0.152  0.2108 -1.4352  0.1050
 3919SOL     OW12655   1.834   3.594   4.041 -0.0256 -0.8441 -0.1425
 3919SOL    HW112656   1.817   3.660   4.114  0.6611 -0.4745 -0.3114
 3919SOL    HW212657   1.783   3.621   3.959 -0.7076 -1.1984  0.1517
 3920SOL     OW12658   2.527   1.149   1.763 -0.4868  0.5219  0.1099
 3920SOL    HW112659   2.485   1.228   1.717  0.7609  1.4228  0.4851
 3920SOL    HW212660   2.527   1.071   1.700 -0.2619  1.2841 -0.8658
 3921SOL     OW12661   6.346   3.119   6.994  0.1323 -0.1509 -0.8105
 3921SOL    HW112662   6.280   3.109   7.068  1.2805  0.4110  0.3301
 3921SOL    HW212663   6.310   3.076   6.911 -2.3182  1.4701 -0.6817
 3922SOL     OW12664   0.655   5.856   1.222  0.5138 -0.7021 -0.4091
 3922SOL    HW112665   0.685   5.789   1.154  0.6996 -0.5804 -0.4483
 3922SOL    HW212666   0.579   5.819   1.274 -1.6371  0.2654 -2.6333
 3923SOL     OW12667   6.928   2.874   2.302  0.3387  0.2803  0.5476
 3923SOL    HW112668   6.898   2.850   2.394 -2.6102  0.2042 -0.3333
 3923SOL    HW212669   6.967   2.967   2.303 -0.0508  0.4506  1.7722
 3924SOL     OW12670   2.937   0.043   3.851  0.4346 -0.0161  0.9824
 3924SOL    HW112671   2.952   0.057   3.949  1.1517 -1.2679  1.0725
 3924SOL    HW212672   2.945  -0.054   3.829 -0.5417  0.1346 -0.1960
 3925SOL     OW12673   2.126   4.017   0.200 -0.2443  0.4584 -0.3978
 3925SOL    HW112674   2.115   3.955   0.277 -1.2209  0.2114 -0.7178
 3925SOL    HW212675   2.222   4.042   0.190 -0.3265  2.5785  2.5384
 3926SOL     OW12676   4.395   1.614   4.228 -0.1728  0.7786 -0.3438
 3926SOL    HW112677   4.404   1.711   4.202 -2.3424  0.9595 -0.5970
 3926SOL    HW212678   4.370   1.561   4.148 -1.9379  0.5168  0.3436
 3927SOL     OW12679   5.866   6.339   2.925 -0.4408 -0.2045  0.1106
 3927SOL    HW112680   5.893   6.256   2.877 -0.6350  0.9626 -2.1791
 3927SOL    HW212681   5.766   6.345   2.928 -0.4607 -0.9650  2.0323
 3928SOL     OW12682   1.742   6.630   6.205 -0.3796 -0.1033 -0.4974
 3928SOL    HW112683   1.764   6.586   6.291  0.4200  1.9271  0.4024
 3928SOL    HW212684   1.700   6.719   6.222  0.5238  0.7035 -2.1588
 3929SOL     OW12685   3.649   1.497   5.791 -0.7892  0.3780  0.1539
 3929SOL    HW112686   3.618   1.404   5.772 -0.8523  0.4552 -0.1205
 3929SOL    HW212687   3.626   1.557   5.714  0.6235  0.2968 -0.3768
 3930SOL     OW12688   1.906   5.034   3.368 -0.0255 -0.0265  0.6816
 3930SOL    HW112689   1.881   4.937   3.374 -0.4882 -0.0656 -1.2338
 3930SOL    HW212690   1.967   5.048   3.290 -0.8467  1.3869  0.2536
 3931SOL     OW12691   0.971   5.709   6.487  0.0054 -0.2913  0.1226
 3931SOL    HW112692   0.964   5.709   6.388 -0.7426  0.0589  0.1649
 3931SOL    HW212693   0.903   5.772   6.526  1.6577  1.1366  0.7855
 3932SOL     OW12694   1.641   1.022   5.576  0.1408 -0.0698 -0.3975
 3932SOL    HW112695   1.729   1.049   5.537 -0.9022  2.4307 -1.2226
 3932SOL    HW212696   1.594   0.962   5.512  0.6619 -0.3239 -0.5522
 3933SOL     OW12697   3.186   5.615   6.216  0.1352 -0.4339 -0.3201
 3933SOL    HW112698   3.109   5.632   6.155 -0.2570 -2.8379 -0.6079
 3933SOL    HW212699   3.206   5.517   6.217  2.5246  0.0039  0.5751
 3934SOL     OW12700   4.778   5.202   0.010 -0.3594 -0.1529 -0.5374
 3934SOL    HW112701   4.811   5.112  -0.020 -2.5195 -1.8700  1.7552
 3934SOL    HW212702   4.856   5.261   0.029  1.2850 -2.5203  0.6030
 3935SOL     OW12703   5.151   0.382   2.332 -0.6888 -0.0267  0.7205
 3935SOL    HW112704   5.197   0.428   2.408  0.1123  0.2325  0.1036
 3935SOL    HW212705   5.163   0.283   2.341 -0.8800 -0.0166  1.1059
 3936SOL     OW12706   6.116   4.309   4.556 -0.0222  0.7256  0.1156
 3936SOL    HW112707   6.213   4.285   4.561  0.3782  1.6769 -1.9974
 3936SOL    HW212708   6.106   4.401   4.517 -1.7162  1.5993  2.3810
 3937SOL     OW12709   0.483   5.706   6.024  0.0789  0.1402 -0.0668
 3937SOL    HW112710   0.532   5.715   5.937 -0.5316  0.2354 -0.4010
 3937SOL    HW212711   0.542   5.659   6.090  0.5628  0.1086 -0.5137
 3938SOL     OW12712   1.752   1.388   6.590  0.2804  0.1975  0.2931
 3938SOL    HW112713   1.818   1.451   6.629  1.7217 -0.3704 -1.1193
 3938SOL    HW212714   1.718   1.424   6.503 -2.0965  0.9629  1.4561
 3939SOL     OW12715   2.199   1.982   0.048  0.4125 -0.2692  0.4992
 3939SOL    HW112716   2.197   1.934   0.136 -1.2123  0.9077  1.1661
 3939SOL    HW212717   2.118   1.957  -0.005  1.2496 -0.7731 -0.5889
 3940SOL     OW12718   1.568   0.137   5.639 -0.1960  0.1955 -0.5688
 3940SOL    HW112719   1.541   0.193   5.560  0.9411 -1.0500 -1.9065
 3940SOL    HW212720   1.592   0.197   5.715 -0.7609  1.4615 -1.3409
 3941SOL     OW12721   2.626   2.531   5.773  0.3830 -0.4026  0.1799
 3941SOL    HW112722   2.582   2.441   5.767  0.6131 -0.4872 -0.3033
 3941SOL    HW212723   2.723   2.520   5.791  0.5264 -0.2774 -0.4735
 3942SOL     OW12724   6.678   5.313   3.346 -0.2172 -0.2897 -0.3654
 3942SOL    HW112725   6.712   5.395   3.393 -0.8767 -0.3410  0.2069
 3942SOL    HW212726   6.755   5.266   3.303  0.1320  0.7936 -0.9782
 3943SOL     OW12727   3.002   2.918   0.536 -0.5615 -0.1394 -0.2023
 3943SOL    HW112728   2.965   2.863   0.461 -0.1370 -1.4056  0.4862
 3943SOL    HW212729   2.968   2.883   0.623  1.0005 -0.3750  0.3530
 3944SOL     OW12730   6.239   5.586   0.285 -0.5431 -0.8815  0.6515
 3944SOL    HW112731   6.174   5.569   0.360 -2.5597 -0.3367 -0.8738
 3944SOL    HW212732   6.199   5.651   0.221  2.2802  0.8518  0.4826
 3945SOL     OW12733   5.069   3.551   1.286 -0.6089  0.3189  0.0094
 3945SOL    HW112734   5.082   3.650   1.278 -0.2368  0.2069 -0.9211
 3945SOL    HW212735   5.105   3.519   1.374  2.5828  0.5047 -1.0984
 3946SOL     OW12736   2.013   2.345   4.417 -0.7971  0.2097 -1.0941
 3946SOL    HW112737   2.059   2.431   4.394 -0.6741  0.2712 -0.6181
 3946SOL    HW212738   2.013   2.285   4.337  0.7948 -0.0940 -0.8999
 3947SOL     OW12739   5.353   3.273   5.682 -0.1298  0.5570 -0.1866
 3947SOL    HW112740   5.374   3.190   5.734  0.8893  0.1443 -1.2222
 3947SOL    HW212741   5.256   3.295   5.692 -0.7390 -1.5348 -0.9711
 3948SOL     OW12742   5.153   1.259   2.029 -0.3157 -0.0482  0.1929
 3948SOL    HW112743   5.119   1.337   1.977 -0.0910 -0.8272 -1.1609
 3948SOL    HW212744   5.091   1.242   2.107  0.4800  2.3932  1.4649
 3949SOL     OW12745   6.778   4.369   3.863 -0.1053 -0.6887  0.5813
 3949SOL    HW112746   6.763   4.468   3.863 -0.4115 -0.7204 -0.5323
 3949SOL    HW212747   6.792   4.337   3.957  1.3686  0.6088  0.8413
 3950SOL     OW12748   2.129   0.592   4.842  0.3503  0.2564 -0.4290
 3950SOL    HW112749   2.214   0.645   4.851  1.2085 -1.1724  0.3061
 3950SOL    HW212750   2.136   0.508   4.897 -1.4014 -0.0843 -0.6639
 3951SOL     OW12751   5.700   6.280   3.962 -0.4685  0.3959  0.6205
 3951SOL    HW112752   5.722   6.184   3.944 -0.3905  0.0194  2.4912
 3951SOL    HW212753   5.601   6.291   3.968 -0.6137  0.9085 -1.7878
 3952SOL     OW12754   2.208   2.610   2.037  0.4901  0.3762  0.3523
 3952SOL    HW112755   2.114   2.645   2.040 -0.1548 -1.1717 -0.4773
 3952SOL    HW212756   2.216   2.534   2.101  1.2947  0.7171  0.6689
 3953SOL     OW12757   2.005   2.750   2.358  0.1603 -0.1770  0.4984
 3953SOL    HW112758   1.947   2.829   2.378  0.5497  0.5109 -0.9908
 3953SOL    HW212759   2.100   2.778   2.353  0.4245 -0.9499  1.0050
 3954SOL     OW12760   0.446   4.152   1.595 -0.2718  0.9468  1.1379
 3954SOL    HW112761   0.522   4.145   1.659  0.7021 -0.7930 -0.1270
 3954SOL    HW212762   0.452   4.238   1.545  0.6782  0.9678  1.2757
 3955SOL     OW12763   5.636   6.596   1.736 -0.0316 -0.9280  0.2177
 3955SOL    HW112764   5.699   6.670   1.712 -0.3619 -0.6350  0.2440
 3955SOL    HW212765   5.588   6.618   1.821 -2.5843  0.4124 -1.4515
 3956SOL     OW12766   6.214   1.434   6.272  0.4844  0.0433 -0.1801
 3956SOL    HW112767   6.133   1.378   6.256  0.6121  0.0725 -0.9679
 3956SOL    HW212768   6.189   1.531   6.268  0.2628  0.0563  1.1869
 3957SOL     OW12769   5.393   3.546   3.917 -0.1249 -0.3375 -0.9836
 3957SOL    HW112770   5.436   3.473   3.970 -1.5125  0.2634  1.0756
 3957SOL    HW212771   5.322   3.508   3.858 -2.0251 -0.5691  1.3253
 3958SOL     OW12772   2.792   5.316   1.367 -0.1785 -0.2650  0.6200
 3958SOL    HW112773   2.835   5.342   1.453  0.3292 -0.3588  0.3989
 3958SOL    HW212774   2.810   5.386   1.298 -1.0465  0.0833  0.7239
 3959SOL     OW12775   1.403   5.148   3.658 -0.1777  0.0705  0.5108
 3959SOL    HW112776   1.315   5.108   3.634 -0.4521  0.9050  0.0687
 3959SOL    HW212777   1.410   5.158   3.757  1.4346 -4.5117  1.0777
 3960SOL     OW12778   0.491   0.912   6.957 -0.0840  0.2878 -0.2627
 3960SOL    HW112779   0.578   0.960   6.964 -0.5476  0.8923  1.9014
 3960SOL    HW212780   0.491   0.856   6.873  2.7223 -0.4520  0.1177
 3961SOL     OW12781   0.253   6.006   1.585  0.4352 -0.1375 -0.0851
 3961SOL    HW112782   0.173   5.963   1.627 -0.2066 -0.2372 -1.3723
 3961SOL    HW212783   0.329   6.007   1.651  0.1138 -2.2006  0.3821
 3962SOL     OW12784   1.312   3.843   4.178  0.0912  0.1905  0.1982
 3962SOL    HW112785   1.216   3.817   4.168  0.8225 -3.0411  0.5125
 3962SOL    HW212786   1.330   3.865   4.274 -0.4754  1.7619 -0.0205
 3963SOL     OW12787   4.907   6.137   0.906 -0.3829  0.1929 -0.3516
 3963SOL    HW112788   4.851   6.120   0.825 -0.3307  2.4895 -0.9400
 3963SOL    HW212789   4.853   6.185   0.975 -0.5288 -2.0434  1.1962
 3964SOL     OW12790   5.772   3.177   0.370 -0.4852  0.0665  0.0358
 3964SOL    HW112791   5.844   3.159   0.303 -0.7368 -0.3147 -0.1369
 3964SOL    HW212792   5.811   3.174   0.462 -0.4763 -1.2795  0.0172
 3965SOL     OW12793   4.014   3.493   0.333  0.1949 -0.1459 -0.1958
 3965SOL    HW112794   4.111   3.484   0.355  0.6962  1.7972 -1.2881
 3965SOL    HW212795   4.000   3.578   0.281 -2.0199 -0.6392 -0.5067
 3966SOL     OW12796   3.205   5.508   5.442 -0.2498 -0.6707 -0.1295
 3966SOL    HW112797   3.248   5.504   5.352 -0.6138  3.6194 -0.7362
 3966SOL    HW212798   3.106   5.515   5.431 -0.1948  1.8588  0.3363
 3967SOL     OW12799   6.554   6.730   6.546  0.0764  0.3658 -0.5881
 3967SOL    HW112800   6.614   6.809   6.560  0.5595 -0.1787  0.5894
 3967SOL    HW212801   6.598   6.666   6.483 -0.9966  1.6904 -2.8187
 3968SOL     OW12802   4.811   2.368   2.703 -0.1302  0.0576 -0.2311
 3968SOL    HW112803   4.744   2.442   2.699 -1.7176 -1.3259 -0.5472
 3968SOL    HW212804   4.812   2.318   2.617  0.7257 -0.4481  0.0546
 3969SOL     OW12805   6.595   2.260   5.962  0.1837  0.4899  0.3359
 3969SOL    HW112806   6.573   2.178   5.910 -0.0162  0.8610 -0.1861
 3969SOL    HW212807   6.645   2.324   5.903  0.4255  0.7008  0.7649
 3970SOL     OW12808   1.742   2.101   4.287  0.1945  0.5966  0.1238
 3970SOL    HW112809   1.708   2.099   4.193  0.0795  0.8737  0.1584
 3970SOL    HW212810   1.754   2.007   4.320 -1.8113  0.4476  0.5636
 3971SOL     OW12811   0.134   0.680   3.428  0.5372 -0.1189 -0.4742
 3971SOL    HW112812   0.134   0.717   3.521 -1.1271  0.5139 -0.6920
 3971SOL    HW212813   0.088   0.591   3.428 -1.7783  1.0048 -1.0408
 3972SOL     OW12814   2.629   0.491   0.760  0.3672  0.0522 -0.7003
 3972SOL    HW112815   2.654   0.588   0.761 -0.6563  0.3204 -0.4408
 3972SOL    HW212816   2.708   0.437   0.730  1.0936  0.9161 -0.3977
 3973SOL     OW12817   2.903   0.204   5.585 -0.0781  0.1247  0.0366
 3973SOL    HW112818   2.918   0.299   5.612 -0.6087 -0.2059  1.6622
 3973SOL    HW212819   2.975   0.174   5.523  0.3199  1.4588 -0.1682
 3974SOL     OW12820   1.011   2.319   3.045 -0.1839 -0.5808  0.2567
 3974SOL    HW112821   1.095   2.271   3.019 -0.5338 -2.0742  1.7364
 3974SOL    HW212822   0.943   2.253   3.076 -1.3088  0.7571  0.7425
 3975SOL     OW12823   5.523   1.888   2.535 -0.3806 -0.0093 -0.4778
 3975SOL    HW112824   5.593   1.860   2.601 -0.7231 -1.7416 -0.7815
 3975SOL    HW212825   5.442   1.830   2.547 -2.9163  3.5534  1.6480
 3976SOL     OW12826   5.620   4.874   6.602 -0.2703  0.4113  0.2228
 3976SOL    HW112827   5.604   4.889   6.700  0.9746 -0.5832  0.5955
 3976SOL    HW212828   5.687   4.802   6.589  0.3167  1.1864 -1.3599
 3977SOL     OW12829   1.934   2.216   1.196  0.6357  0.4998  0.4667
 3977SOL    HW112830   1.840   2.208   1.229  0.3846  2.5517  0.4041
 3977SOL    HW212831   1.977   2.126   1.194 -1.0727 -0.3740  1.2339
 3978SOL     OW12832   1.517   4.164   5.838 -0.0433  0.5903 -0.1134
 3978SOL    HW112833   1.552   4.123   5.754 -0.8073  1.9822 -1.1339
 3978SOL    HW212834   1.528   4.098   5.913  0.2783 -0.8348 -1.3508
 3979SOL     OW12835   6.438   0.774   6.073 -0.5279  0.2366 -0.3701
 3979SOL    HW112836   6.537   0.776   6.060 -0.5082  1.0514 -0.1626
 3979SOL    HW212837   6.391   0.791   5.987 -0.4939 -0.1680 -0.4720
 3980SOL     OW12838   2.148   5.254   6.699 -0.3900 -0.2890 -0.2642
 3980SOL    HW112839   2.178   5.343   6.733  2.0510 -0.9145 -0.5805
 3980SOL    HW212840   2.067   5.225   6.750  0.3136  0.9222  1.6910
 3981SOL     OW12841   1.806   1.014   2.827 -0.2814 -0.4076 -0.3750
 3981SOL    HW112842   1.894   1.061   2.836  1.2626 -3.2463  0.8196
 3981SOL    HW212843   1.742   1.050   2.896 -0.5594  2.4536 -1.9717
 3982SOL     OW12844   2.029   0.367   6.510 -0.0466  0.2295 -0.3546
 3982SOL    HW112845   1.976   0.439   6.555  2.1382  0.4511  2.1234
 3982SOL    HW212846   2.003   0.278   6.546 -0.0637  0.1549 -0.5507
 3983SOL     OW12847   5.611   1.572   5.602 -0.3341  0.3071  0.0276
 3983SOL    HW112848   5.624   1.474   5.595 -1.2671  0.1904 -0.2671
 3983SOL    HW212849   5.664   1.608   5.679  2.8280  0.1302 -1.8779
 3984SOL     OW12850   4.507   2.233   1.680  0.0381  0.1560 -0.2169
 3984SOL    HW112851   4.444   2.172   1.631 -1.3653  2.8525 -2.0480
 3984SOL    HW212852   4.503   2.324   1.639  2.3638  1.4108  2.0737
 3985SOL     OW12853   6.308   5.356   1.726 -0.7670 -0.1582  0.3904
 3985SOL    HW112854   6.235   5.413   1.763 -0.6623  0.4612 -0.3328
 3985SOL    HW212855   6.335   5.391   1.637  2.4433  1.4403  1.8380
 3986SOL     OW12856   4.389   4.571   2.795 -0.8827 -0.4850 -0.4002
 3986SOL    HW112857   4.320   4.602   2.730 -1.7555 -0.2828  0.5901
 3986SOL    HW212858   4.457   4.515   2.747 -0.8194  0.6454 -1.6905
 3987SOL     OW12859   2.337   1.323   6.775 -0.0242 -0.8353  0.0990
 3987SOL    HW112860   2.362   1.391   6.844  0.1408 -1.0186  0.2230
 3987SOL    HW212861   2.386   1.238   6.793 -0.0802 -0.9267 -0.1692
 3988SOL     OW12862   1.245   6.228   2.826 -0.0874  0.2477 -0.2970
 3988SOL    HW112863   1.214   6.209   2.919  0.8763 -0.8172 -0.1672
 3988SOL    HW212864   1.337   6.191   2.814  0.1213  1.0943 -1.4322
 3989SOL     OW12865   3.877   4.796   3.296  0.0107  0.5553 -0.1882
 3989SOL    HW112866   3.940   4.779   3.372  1.5920  0.5007 -1.4457
 3989SOL    HW212867   3.930   4.825   3.216 -1.3475 -1.4863 -1.9157
 3990SOL     OW12868   5.256   5.753   3.116  0.3677  0.0442 -0.7430
 3990SOL    HW112869   5.158   5.744   3.135  0.3552 -2.1838 -1.5588
 3990SOL    HW212870   5.269   5.790   3.024  0.3700  1.8252 -0.0845
 3991SOL     OW12871   6.161   2.841   1.807  0.5621  0.0887 -0.2172
 3991SOL    HW112872   6.065   2.856   1.783  0.8039  2.4674  0.0768
 3991SOL    HW212873   6.168   2.813   1.902  0.1257 -1.1990 -0.5413
 3992SOL     OW12874   0.555   6.444   3.792  0.0843  1.0286  0.2700
 3992SOL    HW112875   0.542   6.412   3.698  1.0338  2.2194 -0.2818
 3992SOL    HW212876   0.477   6.414   3.847 -1.5369  2.0222 -1.3479
 3993SOL     OW12877   3.900   0.169   3.418  0.0129  0.1403 -0.6294
 3993SOL    HW112878   3.875   0.244   3.358 -1.8145 -1.3735 -1.8827
 3993SOL    HW212879   3.817   0.122   3.449  1.0946 -1.9226 -0.6488
 3994SOL     OW12880   4.167   1.837   4.203 -0.3905  0.7290 -0.6865
 3994SOL    HW112881   4.248   1.880   4.164 -0.8663  2.1351 -0.1708
 3994SOL    HW212882   4.143   1.881   4.289 -1.3382 -0.0892 -0.5030
 3995SOL     OW12883   3.455   1.577   0.486  0.1767  0.3155  0.1303
 3995SOL    HW112884   3.515   1.599   0.409 -0.4280  0.5132 -0.2973
 3995SOL    HW212885   3.363   1.611   0.467  0.3170  1.5988  1.5512
 3996SOL     OW12886   1.382   3.980   1.749  0.3543  0.2607 -0.0531
 3996SOL    HW112887   1.406   4.000   1.653 -2.1010 -0.7080 -0.9456
 3996SOL    HW212888   1.355   4.065   1.794 -0.1816  0.4752 -0.7548
 3997SOL     OW12889   2.743   5.129   3.022 -0.0398  0.6118  0.4497
 3997SOL    HW112890   2.768   5.217   2.983  1.6978  0.7096  1.6977
 3997SOL    HW212891   2.667   5.090   2.970 -0.9365  2.8809 -0.0477
 3998SOL     OW12892   5.427   2.525   3.298 -0.2959 -0.3310  0.2135
 3998SOL    HW112893   5.328   2.522   3.313 -0.7313  3.3324 -0.9422
 3998SOL    HW212894   5.463   2.610   3.334  1.6773  0.3798 -3.0354
 3999SOL     OW12895   0.789   5.740   6.854 -0.3321 -0.6637 -0.0665
 3999SOL    HW112896   0.878   5.704   6.883 -0.3967  0.2489  1.4354
 3999SOL    HW212897   0.727   5.743   6.933 -1.4745 -0.6137 -0.9304
 4000SOL     OW12898   4.801   6.769   0.800  0.0564  0.2424 -0.4753
 4000SOL    HW112899   4.743   6.760   0.719  0.0162  0.9372 -0.5257
 4000SOL    HW212900   4.793   6.862   0.836 -0.3516 -0.2218  0.6491
 4001SOL     OW12901   2.927   4.838   2.392 -0.0190 -0.0335  0.0459
 4001SOL    HW112902   2.906   4.883   2.479  0.3997  3.8197 -1.6470
 4001SOL    HW212903   3.025   4.838   2.377  0.1557 -3.1134  0.6411
 4002SOL     OW12904   6.374   5.722   3.743 -0.1247  0.7058  0.4291
 4002SOL    HW112905   6.378   5.801   3.804 -0.6640  0.3376  0.9430
 4002SOL    HW212906   6.325   5.746   3.659 -2.7434  0.1687  1.7340
 4003SOL     OW12907   2.302   3.605   6.814  0.3047  0.3479 -0.1115
 4003SOL    HW112908   2.326   3.508   6.824 -1.8016 -0.2051 -0.0436
 4003SOL    HW212909   2.318   3.652   6.901 -2.3622 -0.8536  1.1438
 4004SOL     OW12910   5.392   0.371   4.416 -0.3928 -0.1540 -0.5106
 4004SOL    HW112911   5.451   0.347   4.493  1.7623  1.3553 -1.5762
 4004SOL    HW212912   5.397   0.470   4.400  0.5254 -0.5664 -3.4947
 4005SOL     OW12913   1.733   0.400   3.952 -0.1033 -0.1514 -0.4759
 4005SOL    HW112914   1.733   0.378   3.854 -1.8798  1.7580 -0.9612
 4005SOL    HW212915   1.791   0.480   3.969  1.7040 -1.5686  0.3809
 4006SOL     OW12916   1.989   6.426   5.235 -0.3188  0.4937  0.3242
 4006SOL    HW112917   1.955   6.508   5.189  0.5683  0.9899  0.5112
 4006SOL    HW212918   2.024   6.451   5.326 -1.1804 -0.3110  0.9004
 4007SOL     OW12919   4.966   3.424   4.231  0.3134  0.2616  0.2139
 4007SOL    HW112920   4.941   3.432   4.328  0.9758 -0.7549  0.4904
 4007SOL    HW212921   4.926   3.499   4.180 -4.2940 -1.7551  0.3664
 4008SOL     OW12922   1.838   1.543   5.826  0.3629 -0.5467  0.1917
 4008SOL    HW112923   1.882   1.551   5.736 -0.2065 -1.0793 -0.1439
 4008SOL    HW212924   1.758   1.602   5.829  0.7836  0.0039  0.6041
 4009SOL     OW12925   6.517   2.199   1.623  0.0070 -0.3063  0.2750
 4009SOL    HW112926   6.581   2.270   1.653 -0.2540 -0.7978  2.1604
 4009SOL    HW212927   6.547   2.110   1.659 -1.3710 -0.6380  0.6576
 4010SOL     OW12928   2.542   6.095   3.168 -0.2961 -0.1958 -0.8284
 4010SOL    HW112929   2.473   6.046   3.115 -2.0541  1.8274 -0.5388
 4010SOL    HW212930   2.503   6.124   3.255  1.0832  0.5890 -0.4351
 4011SOL     OW12931   0.293   2.281   3.188  1.0752 -0.0005 -0.1975
 4011SOL    HW112932   0.246   2.245   3.107  1.1232  0.0664 -0.2557
 4011SOL    HW212933   0.241   2.357   3.226  0.1511 -1.1346  0.8624
 4012SOL     OW12934   0.512   0.446   0.061  0.3580  0.2819 -0.1350
 4012SOL    HW112935   0.417   0.444   0.030  0.1036  0.8566  0.5772
 4012SOL    HW212936   0.541   0.354   0.086 -0.9223  0.4522  2.2952
 4013SOL     OW12937   4.263   3.530   0.088  0.3874 -0.0171  0.1372
 4013SOL    HW112938   4.343   3.590   0.088  1.3970 -1.2976  1.0554
 4013SOL    HW212939   4.273   3.461   0.160 -2.2455  0.6607  1.2640
 4014SOL     OW12940   0.537   1.432   4.501 -0.2079 -0.6446  0.0845
 4014SOL    HW112941   0.613   1.388   4.549  0.4586  0.3911  0.0041
 4014SOL    HW212942   0.470   1.362   4.473  0.7472 -1.5809  0.0853
 4015SOL     OW12943   6.368   5.157   6.327  0.2289 -0.8256  0.4548
 4015SOL    HW112944   6.358   5.181   6.424 -0.7627 -0.2455  0.2196
 4015SOL    HW212945   6.305   5.211   6.272  1.9826  0.1143 -0.7310
 4016SOL     OW12946   3.108   0.147   4.580 -0.7847 -0.0972  0.0245
 4016SOL    HW112947   3.079   0.059   4.618 -2.1954  0.4292  0.2428
 4016SOL    HW212948   3.085   0.220   4.645 -0.5575  0.5324 -0.5974
 4017SOL     OW12949   1.464   1.510   5.015  0.1150 -0.3947  0.3260
 4017SOL    HW112950   1.410   1.478   5.093  0.6123 -1.5562  0.2210
 4017SOL    HW212951   1.539   1.446   4.999  0.8181  0.5623 -0.2695
 4018SOL     OW12952   3.975   0.733   3.802  0.3070 -0.1489  0.3597
 4018SOL    HW112953   4.054   0.681   3.834 -0.1079 -0.4494  0.9291
 4018SOL    HW212954   3.936   0.689   3.721 -0.6540 -1.3523  1.4303
 4019SOL     OW12955   4.092   3.177   6.114  0.0703  0.1651  0.8549
 4019SOL    HW112956   4.106   3.239   6.037 -0.8929  0.2834  0.7677
 4019SOL    HW212957   4.077   3.230   6.197  0.1261  0.0379  0.9470
 4020SOL     OW12958   4.990   6.154   2.138 -0.2401 -0.1168  0.0237
 4020SOL    HW112959   5.061   6.185   2.075 -1.4704  2.6634 -0.1510
 4020SOL    HW212960   4.900   6.168   2.097 -0.9874 -2.2991  0.7594
 4021SOL     OW12961   1.943   0.636   5.075  0.2537  0.0612  0.3801
 4021SOL    HW112962   1.888   0.705   5.027 -1.7326 -0.9213  1.1369
 4021SOL    HW212963   1.953   0.555   5.017  0.7969  0.1795  0.3048
 4022SOL     OW12964   6.789   2.772   5.679 -0.1543 -0.4699 -0.5581
 4022SOL    HW112965   6.793   2.829   5.761 -2.4860 -1.3897  0.2897
 4022SOL    HW212966   6.773   2.831   5.599  0.6636  0.3084 -0.1692
 4023SOL     OW12967   6.799   1.155   1.222  0.2376  0.5769 -0.4384
 4023SOL    HW112968   6.886   1.107   1.212  0.3363  1.0475 -2.2861
 4023SOL    HW212969   6.724   1.088   1.217  0.3149  0.5331 -4.2101
 4024SOL     OW12970   4.870   6.236   5.452 -0.6616 -0.4751 -0.3343
 4024SOL    HW112971   4.787   6.240   5.507 -1.2527  0.9581 -1.2626
 4024SOL    HW212972   4.856   6.175   5.374 -0.8592 -0.2382 -0.4876
 4025SOL     OW12973   1.609   3.488   1.571  0.0383  0.2428  0.3559
 4025SOL    HW112974   1.647   3.579   1.592 -2.0674  1.2612  0.0664
 4025SOL    HW212975   1.544   3.496   1.495 -2.9110 -0.7571  2.5682
 4026SOL     OW12976   6.333   3.453   4.381 -0.2048 -0.0739  0.2456
 4026SOL    HW112977   6.285   3.399   4.312 -0.6387 -0.0967  0.5556
 4026SOL    HW212978   6.270   3.520   4.421  0.0769  0.0318  0.5218
 4027SOL     OW12979   5.480   0.022   1.440  1.1383  0.1688 -0.3706
 4027SOL    HW112980   5.436  -0.053   1.488  0.8233  0.3116 -0.4315
 4027SOL    HW212981   5.414   0.097   1.427  1.7277  0.8848  0.6215
 4028SOL     OW12982   2.604   1.685   4.787  0.0343 -0.0232  0.3960
 4028SOL    HW112983   2.704   1.690   4.782  0.0943 -1.5080 -0.7010
 4028SOL    HW212984   2.564   1.707   4.698 -0.6738  1.2164  0.9991
 4029SOL     OW12985   4.742   6.608   6.952  0.2682  0.2209  0.3369
 4029SOL    HW112986   4.742   6.508   6.958  1.3263  0.1575 -0.3524
 4029SOL    HW212987   4.764   6.647   7.042  1.3668 -0.2247  0.2793
 4030SOL     OW12988   2.663   5.850   5.264 -0.2184 -0.6939  0.2609
 4030SOL    HW112989   2.706   5.765   5.233  2.2729  0.2215  1.0064
 4030SOL    HW212990   2.614   5.833   5.350 -0.2505 -1.5042  0.0899
 4031SOL     OW12991   0.401   5.307   3.772  0.1397  0.3962  0.3116
 4031SOL    HW112992   0.354   5.312   3.860  1.3248  0.4243  0.9678
 4031SOL    HW212993   0.342   5.262   3.705 -0.0717 -1.3535  1.6135
 4032SOL     OW12994   2.681   5.151   1.030  0.0906  0.1246 -0.5725
 4032SOL    HW112995   2.735   5.099   0.963 -1.9970  0.6373 -2.7966
 4032SOL    HW212996   2.584   5.131   1.017 -0.5488  2.0208  0.8084
 4033SOL     OW12997   3.307   2.075   4.992 -0.1399 -0.9993  0.8215
 4033SOL    HW112998   3.292   1.977   4.981 -0.6025 -1.1544  2.5875
 4033SOL    HW212999   3.220   2.123   4.995  0.1002 -0.3897 -0.9634
 4034SOL     OW13000   0.313   2.241   3.682  0.0675  0.0480  0.3838
 4034SOL    HW113001   0.290   2.246   3.585  0.9517  0.1191  0.1712
 4034SOL    HW213002   0.412   2.240   3.693 -0.0150 -0.8353  1.2377
 4035SOL     OW13003   1.974   0.500   1.441  0.2780  0.4286  0.0568
 4035SOL    HW113004   1.892   0.490   1.385  1.2808  1.8028 -1.7786
 4035SOL    HW213005   1.977   0.427   1.509 -1.3011 -0.9836 -1.2874
 4036SOL     OW13006   4.287   0.837   3.788  0.0228  0.4877  0.3527
 4036SOL    HW113007   4.246   0.812   3.700  0.3009 -0.4724  0.4895
 4036SOL    HW213008   4.374   0.884   3.772  1.2945 -1.8094  0.1053
 4037SOL     OW13009   4.496   0.966   2.468 -0.0745 -0.1760  0.0805
 4037SOL    HW113010   4.439   1.018   2.404  0.4474 -1.1675 -1.2494
 4037SOL    HW213011   4.510   1.019   2.552 -1.0813  1.0139 -0.4737
 4038SOL     OW13012   0.415   1.545   4.963  0.5833  0.4131 -0.2774
 4038SOL    HW113013   0.498   1.490   4.952 -0.0890 -0.3982 -1.6108
 4038SOL    HW213014   0.435   1.640   4.940  1.1813  0.2598 -0.4245
 4039SOL     OW13015   4.570   5.667   3.323  0.3037 -0.1000  0.5254
 4039SOL    HW113016   4.509   5.677   3.244  0.7923 -0.9539  0.0180
 4039SOL    HW213017   4.551   5.581   3.370 -0.8713  0.9992  2.1620
 4040SOL     OW13018   4.399   1.554   3.971  0.0744  0.7555  0.0801
 4040SOL    HW113019   4.321   1.580   3.914 -0.2988 -1.4312 -0.4884
 4040SOL    HW213020   4.391   1.458   3.997  2.6824  0.3871 -0.1792
 4041SOL     OW13021   0.154   2.746   6.491 -0.1930  0.2840 -0.4266
 4041SOL    HW113022   0.213   2.715   6.566  0.0930  1.7002 -0.0395
 4041SOL    HW213023   0.077   2.797   6.529 -0.0641  0.9811 -1.0872
 4042SOL     OW13024   1.935   1.149   2.131  0.7415  0.6088 -0.2423
 4042SOL    HW113025   1.837   1.134   2.144  0.8912 -0.5360 -0.3101
 4042SOL    HW213026   1.970   1.206   2.205  0.0038  1.1312 -0.2857
 4043SOL     OW13027   1.342   5.032   5.223 -0.1938  0.0048 -0.2567
 4043SOL    HW113028   1.387   5.027   5.313 -0.4831 -0.1711 -0.1210
 4043SOL    HW213029   1.245   5.053   5.235 -0.1122  0.5656 -0.5607
 4044SOL     OW13030   5.864   1.860   6.724 -0.1194 -0.4656  0.7556
 4044SOL    HW113031   5.918   1.837   6.644 -1.5912 -2.1654  0.1888
 4044SOL    HW213032   5.912   1.928   6.779  1.1053  0.4338 -1.3416
 4045SOL     OW13033   4.597   4.699   5.456  0.3885 -0.4197  0.3966
 4045SOL    HW113034   4.631   4.783   5.499  2.1809  0.1159 -1.9016
 4045SOL    HW213035   4.529   4.722   5.387  0.0634 -0.9797  0.5222
 4046SOL     OW13036   2.934   4.984   6.443  0.3399 -0.4680 -0.0996
 4046SOL    HW113037   2.980   4.896   6.452  0.8654 -0.2536 -0.5896
 4046SOL    HW213038   3.002   5.057   6.450  0.4113 -0.1845 -2.7557
 4047SOL     OW13039   3.315   3.896   4.807 -0.2240 -0.0633  0.2125
 4047SOL    HW113040   3.390   3.958   4.832 -1.3962  0.8477  1.5917
 4047SOL    HW213041   3.349   3.829   4.741  1.8374  0.2408  0.8815
 4048SOL     OW13042   0.923   1.117   0.232  0.0097 -0.5013  0.2967
 4048SOL    HW113043   0.971   1.048   0.287 -0.4050 -0.3026  0.9221
 4048SOL    HW213044   0.828   1.088   0.218  0.5264 -1.3633 -1.7507
 4049SOL     OW13045   3.254   2.978   2.663  0.1237  0.0624  0.1599
 4049SOL    HW113046   3.279   2.957   2.758  0.0604 -0.1370  0.1314
 4049SOL    HW213047   3.165   3.024   2.662  1.3558  2.6402  0.4484
 4050SOL     OW13048   2.766   0.509   4.595  0.3514  1.4441 -0.7833
 4050SOL    HW113049   2.812   0.581   4.543 -0.7028  1.5364 -1.6166
 4050SOL    HW213050   2.719   0.447   4.532  0.6440  0.4344 -0.0359
 4051SOL     OW13051   0.899   6.183   3.512 -0.1250  0.1702  0.1850
 4051SOL    HW113052   0.847   6.229   3.440  1.6269  2.0173  0.0051
 4051SOL    HW213053   0.994   6.172   3.483 -0.1916 -2.5051  0.7605
 4052SOL     OW13054   5.013   2.710   5.771  0.0848 -0.0755  0.4317
 4052SOL    HW113055   4.998   2.796   5.819 -0.4843  0.6281 -0.9544
 4052SOL    HW213056   4.949   2.641   5.804  1.5633 -0.4790  2.6666
 4053SOL     OW13057   0.851   4.842   3.793  0.5639 -0.8777  0.2940
 4053SOL    HW113058   0.894   4.923   3.831 -0.3683 -1.9130  3.9284
 4053SOL    HW213059   0.920   4.771   3.780  1.1099 -0.0879 -1.3497
 4054SOL     OW13060   4.238   5.050   1.816 -0.0286 -0.0553 -0.1285
 4054SOL    HW113061   4.164   5.040   1.749 -0.3943 -2.3581  0.5345
 4054SOL    HW213062   4.200   5.045   1.908  0.9744 -2.5898  0.2469
 4055SOL     OW13063   5.833   0.905   6.082 -0.2745 -0.0606 -0.0054
 4055SOL    HW113064   5.919   0.921   6.131  0.2638 -0.6559 -0.7101
 4055SOL    HW213065   5.756   0.915   6.144  0.2163  1.7215  0.3722
 4056SOL     OW13066   2.709   6.733   4.881 -0.1844  0.2819 -0.2476
 4056SOL    HW113067   2.711   6.744   4.981  1.2416 -0.5990 -0.1430
 4056SOL    HW213068   2.800   6.706   4.849 -0.4742  1.1414 -1.8766
 4057SOL     OW13069   6.586   6.989   2.283  0.0631 -0.5649 -0.1345
 4057SOL    HW113070   6.607   6.945   2.370  2.2750 -1.5483 -1.0864
 4057SOL    HW213071   6.552   7.081   2.300 -0.3721 -1.0297  1.7765
 4058SOL     OW13072   5.534   4.800   2.732  0.2441  0.0357 -0.2490
 4058SOL    HW113073   5.493   4.755   2.811  1.7293 -1.2644 -0.1716
 4058SOL    HW213074   5.507   4.896   2.730 -0.2724 -0.0431  1.5216
 4059SOL     OW13075   1.839   5.151   5.208  0.5660  0.4852 -0.2580
 4059SOL    HW113076   1.864   5.104   5.293 -1.8757 -0.7290 -0.1234
 4059SOL    HW213077   1.872   5.100   5.130  0.4840  0.1213 -0.0585
 4060SOL     OW13078   2.128   6.899   3.083  0.5760 -0.6170  0.5364
 4060SOL    HW113079   2.166   6.910   2.991  0.3075 -0.1234  0.4833
 4060SOL    HW213080   2.196   6.928   3.151 -0.1667  1.6259  0.3960
 4061SOL     OW13081   1.961   2.822   2.697  0.0037  0.3601  0.3382
 4061SOL    HW113082   1.893   2.752   2.719 -0.1547  0.1373 -0.7855
 4061SOL    HW213083   1.931   2.910   2.732 -2.1906  0.7868 -2.3253
 4062SOL     OW13084   3.601   0.345   2.776 -0.0167  0.1770  0.0127
 4062SOL    HW113085   3.624   0.251   2.801  0.6250  0.1732 -0.5631
 4062SOL    HW213086   3.595   0.352   2.676 -1.4508  0.4368  0.0888
 4063SOL     OW13087   4.562   4.880   0.473 -0.5910  0.0298  0.6423
 4063SOL    HW113088   4.487   4.814   0.466  0.3049 -1.0223  0.8625
 4063SOL    HW213089   4.614   4.881   0.388 -1.6622  1.8008 -0.0616
 4064SOL     OW13090   0.801   2.684   2.846  0.0002  0.2829  0.4736
 4064SOL    HW113091   0.819   2.633   2.930 -1.4036  0.9737  1.2183
 4064SOL    HW213092   0.786   2.620   2.771  1.3084 -0.3410  0.7199
 4065SOL     OW13093   4.925   2.925   6.645  0.0705 -0.0363 -0.1009
 4065SOL    HW113094   4.912   2.829   6.621 -2.2861  0.0945  0.4597
 4065SOL    HW213095   4.920   2.981   6.562  0.0803 -0.2681 -0.2586
 4066SOL     OW13096   3.059   1.273   5.105  0.4864 -0.7793 -0.1647
 4066SOL    HW113097   3.039   1.194   5.047 -1.6408 -1.4496  1.3775
 4066SOL    HW213098   3.123   1.247   5.177 -0.0774 -1.0748  0.2376
 4067SOL     OW13099   3.440   6.059   5.075 -0.4003 -0.3104  0.1305
 4067SOL    HW113100   3.509   6.129   5.092 -1.6551  0.5369  2.1632
 4067SOL    HW213101   3.484   5.971   5.059  1.1688  0.6377 -0.9338
 4068SOL     OW13102   6.407   5.518   3.913 -0.0747  0.6608  0.0523
 4068SOL    HW113103   6.398   5.595   3.851  0.4171  0.1140 -0.7258
 4068SOL    HW213104   6.347   5.530   3.992  0.1433  1.9179  0.0361
 4069SOL     OW13105   3.006   0.436   5.348 -0.4280  0.4166  0.0722
 4069SOL    HW113106   2.982   0.402   5.439 -0.0206  0.3657  0.1641
 4069SOL    HW213107   3.105   0.442   5.340 -0.4981  1.8125  0.1351
 4070SOL     OW13108   0.340   0.452   2.024  0.2723 -0.7041  0.2741
 4070SOL    HW113109   0.336   0.536   2.077  0.9218 -0.9579  0.7467
 4070SOL    HW213110   0.364   0.472   1.930  0.7636 -0.3819  0.4637
 4071SOL     OW13111   1.107   6.526   0.319  0.0225 -0.1570 -0.3653
 4071SOL    HW113112   1.162   6.529   0.236  0.1445  1.7177 -0.2518
 4071SOL    HW213113   1.161   6.488   0.394  1.0309  1.1466 -0.3877
 4072SOL     OW13114   3.048   0.205   3.658 -0.7143  0.3073 -0.4245
 4072SOL    HW113115   2.971   0.224   3.597 -0.1359 -0.3902 -1.4024
 4072SOL    HW213116   3.018   0.143   3.731 -0.6904 -1.3611 -1.7876
 4073SOL     OW13117   5.248   6.327   3.510 -0.3656 -0.0220 -0.1866
 4073SOL    HW113118   5.340   6.366   3.519  0.2393 -1.5617  0.7581
 4073SOL    HW213119   5.246   6.237   3.554 -2.0919 -0.4177 -0.9990
 4074SOL     OW13120   0.430   4.923   3.609  0.1503  0.3899 -0.1258
 4074SOL    HW113121   0.360   4.947   3.677 -0.5663 -0.2441 -0.6264
 4074SOL    HW213122   0.517   4.965   3.635  0.0406 -0.3266  1.5239
 4075SOL     OW13123   5.506   4.033   4.022 -0.5152  0.0663  0.9292
 4075SOL    HW113124   5.499   4.110   3.959 -0.7719  0.3264  1.2733
 4075SOL    HW213125   5.602   4.017   4.045 -0.4146 -0.0759  0.4181
 4076SOL     OW13126   4.491   6.717   6.059 -0.5316  0.0073  0.0704
 4076SOL    HW113127   4.570   6.775   6.040  0.0236 -1.3497 -2.3726
 4076SOL    HW213128   4.409   6.759   6.022 -0.3914 -0.0260 -0.2854
 4077SOL     OW13129   2.566   4.830   4.156 -0.2472 -0.1351 -0.7758
 4077SOL    HW113130   2.468   4.810   4.165 -0.0957 -1.3251 -1.5903
 4077SOL    HW213131   2.582   4.878   4.070  0.2316 -2.6905 -2.1975
 4078SOL     OW13132   4.721   6.493   1.175 -0.1334  0.3267 -0.4576
 4078SOL    HW113133   4.678   6.542   1.099  0.8814  1.5134 -0.2900
 4078SOL    HW213134   4.819   6.481   1.156  0.1692  0.7893  0.7250
 4079SOL     OW13135   5.582   3.313   3.073 -0.4600 -0.4009  0.5863
 4079SOL    HW113136   5.561   3.300   2.976  1.3374  0.7017 -0.0003
 4079SOL    HW213137   5.508   3.363   3.118 -0.9335 -0.2052 -0.4038
 4080SOL     OW13138   5.506   6.706   1.963  0.3243  0.2187 -0.2397
 4080SOL    HW113139   5.466   6.775   1.902  0.8782  0.6447 -0.1284
 4080SOL    HW213140   5.510   6.743   2.056  2.9600  1.0651 -0.5954
 4081SOL     OW13141   0.755   2.469   0.306  0.2013  0.1949 -0.3731
 4081SOL    HW113142   0.763   2.413   0.223  1.2669  1.4836 -1.1719
 4081SOL    HW213143   0.667   2.450   0.350 -0.5647 -0.2343 -1.9999
 4082SOL     OW13144   5.087   6.290   4.177  0.1137 -0.5288 -0.6000
 4082SOL    HW113145   5.008   6.229   4.181 -0.1659 -0.2505 -1.5856
 4082SOL    HW213146   5.101   6.320   4.083  2.2079 -1.6311 -0.7067
 4083SOL     OW13147   5.258   0.958   4.670  0.1066  0.1667 -0.3659
 4083SOL    HW113148   5.300   0.929   4.756  0.2749  1.0301 -0.1518
 4083SOL    HW213149   5.259   1.058   4.664 -1.4235  0.1814 -0.6231
 4084SOL     OW13150   0.706   3.673   3.229  0.0668  0.4555 -0.2998
 4084SOL    HW113151   0.654   3.710   3.306 -0.1405  1.3610 -0.8576
 4084SOL    HW213152   0.646   3.669   3.148  0.4840  0.2102 -0.5995
 4085SOL     OW13153   1.730   5.728   0.569  0.2415  0.1051 -0.4811
 4085SOL    HW113154   1.747   5.632   0.549 -0.8562 -1.1799  3.6881
 4085SOL    HW213155   1.799   5.762   0.633 -0.0421  1.7734 -1.0156
 4086SOL     OW13156   1.029   1.236   5.982 -0.1871  0.6315  0.1813
 4086SOL    HW113157   1.112   1.189   6.012 -0.4195  0.2658  0.2510
 4086SOL    HW213158   0.983   1.182   5.912 -0.2567  0.9340 -0.0087
 4087SOL     OW13159   1.959   1.978   6.916  0.3690  0.2653  0.1383
 4087SOL    HW113160   1.966   2.073   6.886 -0.3200  0.0667 -0.6806
 4087SOL    HW213161   1.879   1.935   6.874 -1.1173  0.1731  2.8337
 4088SOL     OW13162   5.386   0.414   6.925 -0.9264  0.5405  0.2664
 4088SOL    HW113163   5.325   0.427   6.847 -0.2144 -2.3428 -0.9147
 4088SOL    HW213164   5.479   0.398   6.893 -0.1728  1.4469  1.8695
 4089SOL     OW13165   6.369   3.917   5.637 -0.3073 -0.2014  0.0925
 4089SOL    HW113166   6.441   3.849   5.628  0.0330  0.3748 -2.2821
 4089SOL    HW213167   6.282   3.876   5.609 -0.1583  0.2196 -1.0219
 4090SOL     OW13168   3.650   5.112   1.008 -0.2246  0.2990  0.3917
 4090SOL    HW113169   3.666   5.207   1.034 -1.2151  0.3870  0.7314
 4090SOL    HW213170   3.577   5.108   0.939  0.2522 -0.1681 -0.0951
 4091SOL     OW13171   0.324   5.925   0.741  0.1533  0.3679  0.3571
 4091SOL    HW113172   0.301   5.830   0.723  0.0932  0.4310  0.1007
 4091SOL    HW213173   0.348   5.971   0.656 -1.0280  0.9043  0.2939
 4092SOL     OW13174   0.761   2.597   4.703  0.1885  0.0076 -0.0360
 4092SOL    HW113175   0.696   2.587   4.778 -1.1756  2.9088 -0.6616
 4092SOL    HW213176   0.734   2.675   4.646  2.6908 -0.4089 -1.9804
 4093SOL     OW13177   0.821   1.771   6.776  0.1490  0.5863 -0.2407
 4093SOL    HW113178   0.752   1.805   6.841  2.2612  3.5220  0.6691
 4093SOL    HW213179   0.906   1.753   6.824  1.2348  1.0107 -1.9145
 4094SOL     OW13180   6.664   0.356   2.745 -0.1100  0.1681 -0.7647
 4094SOL    HW113181   6.690   0.369   2.840 -0.9398 -1.3144 -0.3106
 4094SOL    HW213182   6.735   0.393   2.686  0.9816  0.0280  0.4265
 4095SOL     OW13183   4.861   6.426   3.730  0.3514  0.2671  0.4891
 4095SOL    HW113184   4.911   6.402   3.647  0.7575  0.1441  0.7673
 4095SOL    HW213185   4.877   6.522   3.753  2.8912 -0.4703  2.2145
 4096SOL     OW13186   6.292   0.699   0.976  0.5675 -0.0955 -0.0674
 4096SOL    HW113187   6.328   0.714   1.068  0.2712 -0.9171  0.1880
 4096SOL    HW213188   6.257   0.786   0.939 -1.4094 -0.1623  1.4904
 4097SOL     OW13189   2.962   3.877   3.497  0.3454 -0.0745 -0.1479
 4097SOL    HW113190   3.058   3.898   3.514  0.1661  1.3623 -0.7460
 4097SOL    HW213191   2.936   3.913   3.408 -0.4197 -1.6239 -0.5758
 4098SOL     OW13192   4.689   3.357   6.219 -0.0099 -0.0025 -0.0530
 4098SOL    HW113193   4.769   3.386   6.166  0.9716  1.4275  2.0828
 4098SOL    HW213194   4.609   3.411   6.191  0.2423 -0.0107 -0.7998
 4099SOL     OW13195   1.665   2.749   2.259 -0.1175  0.3031  0.0015
 4099SOL    HW113196   1.655   2.685   2.183  1.1291  0.4720 -0.3218
 4099SOL    HW213197   1.761   2.776   2.268 -0.6412  2.4901 -0.1983
 4100SOL     OW13198   5.960   2.074   5.362 -0.1389  0.1975 -0.1520
 4100SOL    HW113199   6.020   2.152   5.342  0.5489 -0.3543 -0.2701
 4100SOL    HW213200   5.878   2.107   5.408  0.0618  1.0174 -0.3581
 4101SOL     OW13201   1.996   0.915   0.769 -0.0109  0.3919  0.0574
 4101SOL    HW113202   2.000   0.940   0.865  0.1899 -0.3260  0.2444
 4101SOL    HW213203   2.073   0.855   0.746  0.8288  1.8017 -0.9348
 4102SOL     OW13204   1.330   1.394   0.462  0.7132  0.2890  0.5257
 4102SOL    HW113205   1.272   1.353   0.392 -0.1726  1.4810  0.5409
 4102SOL    HW213206   1.313   1.350   0.550  0.7903 -0.2455  0.2754
 4103SOL     OW13207   1.561   1.226   3.785 -0.4885  0.4156  0.2893
 4103SOL    HW113208   1.508   1.150   3.821  0.5323 -0.2046  0.5094
 4103SOL    HW213209   1.567   1.299   3.854  0.2238 -0.1548  0.8437
 4104SOL     OW13210   6.209   3.612   5.120 -0.2537  0.0175  0.0473
 4104SOL    HW113211   6.230   3.681   5.051  3.2912 -0.6505  0.2702
 4104SOL    HW213212   6.181   3.656   5.205 -1.1148  0.9942 -0.7216
 4105SOL     OW13213   5.406   3.484   0.232 -0.3402  0.4741 -0.5795
 4105SOL    HW113214   5.366   3.394   0.250 -0.5014  0.2704 -1.8581
 4105SOL    HW213215   5.435   3.525   0.318 -2.5872  0.2975  0.3312
 4106SOL     OW13216   6.384   0.835   1.476  0.0125 -0.6022  0.0157
 4106SOL    HW113217   6.291   0.868   1.491  0.0361 -0.9008  0.9572
 4106SOL    HW213218   6.447   0.912   1.471 -0.3521 -0.3714 -1.2164
 4107SOL     OW13219   4.636   3.358   1.687 -0.1604 -0.2589  0.6668
 4107SOL    HW113220   4.590   3.440   1.722 -0.1116 -0.9580  2.4255
 4107SOL    HW213221   4.723   3.385   1.645 -0.2555  0.6114  1.0031
 4108SOL     OW13222   5.939   5.458   2.493 -0.3251  1.1778  0.0284
 4108SOL    HW113223   5.891   5.545   2.485  1.2368  1.9621 -1.3612
 4108SOL    HW213224   6.038   5.473   2.484  0.0679 -0.6106  0.8607
 4109SOL     OW13225   3.814   2.129   3.298 -0.1530 -0.0067  0.3832
 4109SOL    HW113226   3.807   2.030   3.305  0.9715 -0.3962 -2.5502
 4109SOL    HW213227   3.723   2.169   3.285 -0.4083 -0.9165 -0.6917
 4110SOL     OW13228   1.586   6.660   5.086 -0.4041 -0.3941 -0.5825
 4110SOL    HW113229   1.520   6.610   5.141  0.5512  1.3572  2.4230
 4110SOL    HW213230   1.675   6.613   5.089 -0.3887 -0.3737 -0.7217
 4111SOL     OW13231   2.763   2.642   0.723 -0.2199  0.7183  0.4383
 4111SOL    HW113232   2.779   2.604   0.631  0.8816  1.9634  0.0886
 4111SOL    HW213233   2.716   2.573   0.779 -1.1754  0.0325 -1.1237
 4112SOL     OW13234   2.341   3.181   1.698  0.7455 -0.4460 -0.4717
 4112SOL    HW113235   2.376   3.262   1.746  3.2655 -0.5591 -1.9626
 4112SOL    HW213236   2.299   3.208   1.612 -0.6857 -0.5566  0.1590
 4113SOL     OW13237   6.105   5.813   1.668  0.1083 -0.3284 -0.2254
 4113SOL    HW113238   6.103   5.905   1.629 -1.1628  1.1654  2.9773
 4113SOL    HW213239   6.067   5.815   1.761  0.3388 -4.0668  0.1163
 4114SOL     OW13240   3.923   6.118   0.876  0.4137  0.3516 -0.0008
 4114SOL    HW113241   3.861   6.191   0.845  1.1154  0.8911 -0.1505
 4114SOL    HW213242   3.869   6.036   0.897 -0.4682  1.0884  0.7406
 4115SOL     OW13243   0.940   4.024   6.622 -0.7980 -0.2433  0.3349
 4115SOL    HW113244   1.017   4.055   6.566 -0.6563 -2.3063 -0.7101
 4115SOL    HW213245   0.957   3.931   6.654 -2.3554 -0.3087  1.0689
 4116SOL     OW13246   5.797   4.190   3.389 -0.4833 -0.1239  0.6221
 4116SOL    HW113247   5.701   4.161   3.392 -0.6088  0.1570 -0.3393
 4116SOL    HW213248   5.850   4.124   3.335 -1.0086  1.9084 -2.6957
 4117SOL     OW13249   5.341   2.342   2.182 -0.5893 -0.3446  0.2758
 4117SOL    HW113250   5.257   2.395   2.168 -2.2719 -1.9318  3.3082
 4117SOL    HW213251   5.369   2.349   2.277  0.9920 -2.2690  0.0122
 4118SOL     OW13252   4.871   1.723   5.243  0.2563  0.3052 -0.4288
 4118SOL    HW113253   4.898   1.794   5.178  0.5928 -0.3602 -1.0330
 4118SOL    HW213254   4.950   1.663   5.261 -0.2350 -0.3965 -0.5630
 4119SOL     OW13255   5.772   4.320   5.321 -0.1613  0.0930 -0.1146
 4119SOL    HW113256   5.825   4.384   5.265  1.8395 -1.5018 -0.1456
 4119SOL    HW213257   5.756   4.360   5.411 -1.3897  1.7294 -1.0035
 4120SOL     OW13258   6.641   0.491   1.539 -0.4295  0.3255  0.3436
 4120SOL    HW113259   6.740   0.488   1.528 -0.2791  1.0051  1.3514
 4120SOL    HW213260   6.607   0.398   1.555  0.0109  0.0585 -0.2411
 4121SOL     OW13261   6.778   0.732   5.198 -0.0383  0.2957 -0.0488
 4121SOL    HW113262   6.738   0.786   5.272  1.5869 -0.2084  1.2647
 4121SOL    HW213263   6.774   0.635   5.221 -0.2575  0.0582 -1.0258
 4122SOL     OW13264   5.928   6.135   2.755  0.3681  0.1166  0.4637
 4122SOL    HW113265   5.854   6.080   2.717  0.3564 -0.0015  0.6596
 4122SOL    HW213266   5.996   6.075   2.797  0.7670  0.1965 -0.0473
 4123SOL     OW13267   5.393   1.642   6.525  0.1424 -0.2489 -0.5793
 4123SOL    HW113268   5.490   1.619   6.523  0.0984 -0.4070 -1.6553
 4123SOL    HW213269   5.361   1.660   6.432 -1.0107 -0.8515 -0.3234
 4124SOL     OW13270   4.103   1.281   3.270 -0.2676  0.4608  0.3798
 4124SOL    HW113271   4.030   1.234   3.220  0.5495 -0.8114  0.3382
 4124SOL    HW213272   4.117   1.236   3.359  3.1864 -2.0711 -1.2169
 4125SOL     OW13273   0.999   2.331   1.848 -0.3917  0.4719  0.0405
 4125SOL    HW113274   1.067   2.404   1.839 -0.7501  0.7818 -0.1998
 4125SOL    HW213275   0.983   2.289   1.758 -0.4469  0.3345  0.1141
 4126SOL     OW13276   5.361   3.293   3.683 -0.0645 -0.3032 -0.5018
 4126SOL    HW113277   5.360   3.381   3.635  1.7414 -0.1132 -0.2614
 4126SOL    HW213278   5.454   3.257   3.685 -0.8357 -2.5255 -1.1021
 4127SOL     OW13279   1.720   4.232   3.229  1.1340  0.3484  0.7403
 4127SOL    HW113280   1.694   4.138   3.207  0.8303  0.8345 -1.1740
 4127SOL    HW213281   1.663   4.265   3.305 -2.1943  0.4946 -1.6102
 4128SOL     OW13282   0.906   5.229   0.982  0.0907 -0.8582  0.2444
 4128SOL    HW113283   0.911   5.144   1.035 -0.4687 -0.7894  0.4180
 4128SOL    HW213284   0.821   5.231   0.930  0.1909 -0.4917  0.0881
 4129SOL     OW13285   4.487   4.190   6.871 -0.6819  0.3318 -0.0732
 4129SOL    HW113286   4.428   4.126   6.919  3.0906 -1.4680  2.6287
 4129SOL    HW213287   4.564   4.141   6.830  2.3345  2.9406  1.9866
 4130SOL     OW13288   3.057   1.921   5.090 -0.1427  0.1990 -0.1266
 4130SOL    HW113289   2.986   1.851   5.085 -0.3051  0.3644 -0.1694
 4130SOL    HW213290   3.147   1.879   5.082 -0.1809 -0.1562  1.1929
 4131SOL     OW13291   5.680   6.029   5.562 -0.5310 -0.1526 -0.5708
 4131SOL    HW113292   5.748   5.995   5.627 -0.0335 -1.0829 -1.5653
 4131SOL    HW213293   5.636   6.111   5.601 -2.1851 -2.1545  2.1688
 4132SOL     OW13294   4.338   1.948   5.681 -0.2649 -0.4920  0.3375
 4132SOL    HW113295   4.429   1.939   5.639  0.2564  0.3309  1.2656
 4132SOL    HW213296   4.333   1.890   5.762 -1.2155 -1.9410 -0.7078
 4133SOL     OW13297   1.790   4.796   0.899 -0.1735  0.5427 -0.1307
 4133SOL    HW113298   1.739   4.852   0.833 -0.6478 -1.0085 -1.1231
 4133SOL    HW213299   1.803   4.704   0.862 -0.0779 -0.2551  1.7823
 4134SOL     OW13300   6.718   6.181   1.700  0.0982 -0.1744 -0.7068
 4134SOL    HW113301   6.780   6.221   1.632 -2.0832  1.6458 -1.7786
 4134SOL    HW213302   6.689   6.252   1.764  0.1751 -1.3213  0.6585
 4135SOL     OW13303   0.445   6.936   5.936 -0.2336 -0.3342 -0.6196
 4135SOL    HW113304   0.388   7.003   5.984  0.9713 -0.3217  0.9030
 4135SOL    HW213305   0.524   6.982   5.896 -0.7783 -0.4823 -1.9102
 4136SOL     OW13306   6.103   3.624   4.526 -0.0463  0.0077 -0.0849
 4136SOL    HW113307   6.047   3.544   4.548  0.2794 -0.2952 -0.3324
 4136SOL    HW213308   6.066   3.670   4.446 -0.4930  0.3683  0.3245
 4137SOL     OW13309   0.683   3.267   0.350 -0.0982  0.5933 -0.0069
 4137SOL    HW113310   0.706   3.243   0.256 -1.0779 -0.6087  0.0362
 4137SOL    HW213311   0.649   3.361   0.354 -3.1302 -0.3249 -1.4211
 4138SOL     OW13312   2.738   5.977   2.768  0.0323 -0.0345 -0.3161
 4138SOL    HW113313   2.666   6.045   2.754 -0.7186 -0.8254 -0.3888
 4138SOL    HW213314   2.734   5.908   2.695  1.3004  0.2607 -0.7059
 4139SOL     OW13315   5.736   1.572   5.355 -0.4887  0.3570  0.4175
 4139SOL    HW113316   5.708   1.572   5.451 -0.5162  1.0877  0.4119
 4139SOL    HW213317   5.699   1.653   5.309 -1.0220 -0.3192 -0.3705
 4140SOL     OW13318   6.606   1.393   4.265 -0.0120 -0.0282  0.0599
 4140SOL    HW113319   6.530   1.380   4.328  0.0317 -0.0773  0.1031
 4140SOL    HW213320   6.669   1.316   4.273 -0.9031 -0.9475 -1.3184
 4141SOL     OW13321   2.214   2.690   5.884 -0.3468 -0.0012 -0.1225
 4141SOL    HW113322   2.288   2.634   5.922 -1.4467 -0.0306  2.1896
 4141SOL    HW213323   2.151   2.632   5.832 -0.2861 -0.5135  0.3655
 4142SOL     OW13324   5.374   0.638   4.466 -0.3730  0.2154 -0.3029
 4142SOL    HW113325   5.437   0.674   4.535 -0.1454 -0.3296 -0.2224
 4142SOL    HW213326   5.280   0.663   4.491 -0.0638  3.2603 -1.7478
 4143SOL     OW13327   6.136   6.754   6.711 -0.0633  0.8118 -0.2101
 4143SOL    HW113328   6.135   6.853   6.695  0.1754  0.7591 -0.5622
 4143SOL    HW213329   6.113   6.707   6.626  0.5152  0.5452 -0.2175
 4144SOL     OW13330   4.086   5.027   2.044 -0.3577  0.1796  0.1813
 4144SOL    HW113331   4.107   4.970   2.124 -2.3155  1.7209  1.9198
 4144SOL    HW213332   3.994   5.005   2.011 -1.1390  2.1880  0.8659
 4145SOL     OW13333   2.390   6.494   3.933  0.0232  0.0070 -0.0243
 4145SOL    HW113334   2.301   6.486   3.888  0.0802  0.0239 -0.1400
 4145SOL    HW213335   2.387   6.447   4.021 -1.1940  2.9209  1.6296
 4146SOL     OW13336   0.809   3.637   4.674  0.1725  0.2368  0.5413
 4146SOL    HW113337   0.739   3.568   4.652  2.0620 -1.0404 -1.9947
 4146SOL    HW213338   0.878   3.595   4.732  0.9948  0.1321 -0.4816
 4147SOL     OW13339   3.168   0.694   6.999  0.2959  0.7349 -0.3251
 4147SOL    HW113340   3.069   0.701   7.007  0.2961  1.0009 -0.5623
 4147SOL    HW213341   3.197   0.728   6.910  0.2813 -2.3317 -1.6378
 4148SOL     OW13342   2.550   3.694   5.353 -0.1235 -0.3973 -0.3092
 4148SOL    HW113343   2.548   3.596   5.369 -0.0409 -0.5651 -1.2763
 4148SOL    HW213344   2.491   3.716   5.275 -0.2492  0.3411 -0.0144
 4149SOL     OW13345   5.880   2.515   3.161  0.0264 -0.6985  0.3092
 4149SOL    HW113346   5.934   2.589   3.120 -0.7258  0.4144  1.2806
 4149SOL    HW213347   5.803   2.493   3.101  0.4744 -0.9823 -0.1714
 4150SOL     OW13348   0.162   4.896   1.416 -0.4239  0.0039 -0.2090
 4150SOL    HW113349   0.167   4.888   1.317  1.0459 -1.2453 -0.0675
 4150SOL    HW213350   0.084   4.953   1.441 -0.5047  0.7897 -2.0884
 4151SOL     OW13351   5.296   3.461   3.071  0.0645 -0.0599 -0.4298
 4151SOL    HW113352   5.245   3.396   3.015 -0.6981 -0.2199  0.4347
 4151SOL    HW213353   5.264   3.554   3.053 -2.0494 -0.3061  1.5758
 4152SOL     OW13354   1.842   5.524   2.055  0.0371  0.4640 -0.2737
 4152SOL    HW113355   1.842   5.566   1.964  0.1894  1.1813  0.0461
 4152SOL    HW213356   1.757   5.548   2.103  0.0534  0.2707 -0.1465
 4153SOL     OW13357   2.982   4.726   6.949 -1.1723 -0.4006  0.1961
 4153SOL    HW113358   2.956   4.796   7.016  1.1767  0.5625  0.1916
 4153SOL    HW213359   2.998   4.639   6.995 -2.8235 -0.6322  0.3833
 4154SOL     OW13360   1.516   2.373   5.791 -0.2960  0.0037  0.4835
 4154SOL    HW113361   1.538   2.280   5.761  1.9092  0.7154 -0.2883
 4154SOL    HW213362   1.592   2.409   5.846 -1.2641  1.2390  1.0491
 4155SOL     OW13363   1.145   2.546   3.040  0.2298 -0.1652  0.0899
 4155SOL    HW113364   1.132   2.590   2.951 -0.4341 -0.1601  0.1814
 4155SOL    HW213365   1.096   2.458   3.040  1.8664 -1.1116 -0.2362
 4156SOL     OW13366   4.845   4.919   1.720 -0.0019 -0.7597  0.1671
 4156SOL    HW113367   4.836   4.957   1.813 -0.3015  2.2472 -0.9585
 4156SOL    HW213368   4.940   4.928   1.690 -0.7479  3.7142 -1.7034
 4157SOL     OW13369   3.926   6.374   2.481  0.1039 -0.1289 -0.7167
 4157SOL    HW113370   3.981   6.360   2.398  0.6609 -2.8147  0.0198
 4157SOL    HW213371   3.830   6.360   2.458  0.2534 -0.8675 -0.9325
 4158SOL     OW13372   1.638   1.915   2.289  0.0432 -0.3188 -0.4926
 4158SOL    HW113373   1.640   1.864   2.375 -0.6897 -0.3575 -0.4941
 4158SOL    HW213374   1.728   1.910   2.246  0.3610 -0.4745  0.1663
 4159SOL     OW13375   4.630   1.958   4.434  0.6918  0.3829 -0.4182
 4159SOL    HW113376   4.653   2.037   4.377  1.3652  1.2130  0.9515
 4159SOL    HW213377   4.693   1.953   4.512  0.3319 -1.2086 -0.1856
 4160SOL     OW13378   2.474   3.903   0.994  0.2696  0.8365  0.0050
 4160SOL    HW113379   2.409   3.976   1.015  0.2724  0.1720  2.7921
 4160SOL    HW213380   2.460   3.826   1.057  2.2805 -0.2575 -0.7764
 4161SOL     OW13381   2.826   5.444   6.297  0.0923  0.4282 -0.3480
 4161SOL    HW113382   2.869   5.506   6.231  0.2340  0.2883 -0.3885
 4161SOL    HW213383   2.728   5.441   6.280  0.0099  1.0575 -0.0038
 4162SOL     OW13384   0.339   3.819   6.401 -0.7068  0.4307  0.0418
 4162SOL    HW113385   0.391   3.828   6.487  0.5143  1.9637 -0.7951
 4162SOL    HW213386   0.300   3.727   6.395 -1.4753  0.5026  2.5757
 4163SOL     OW13387   0.048   6.277   6.002  0.3617 -0.1431 -0.2349
 4163SOL    HW113388   0.088   6.366   5.980  0.2871 -0.4688 -1.7967
 4163SOL    HW213389   0.086   6.244   6.088  0.2589  1.4643  0.4569
 4164SOL     OW13390   1.982   5.177   1.996  0.1270  0.3024  0.0162
 4164SOL    HW113391   1.990   5.218   2.086  0.2187  0.6719 -0.1565
 4164SOL    HW213392   2.032   5.091   1.993 -1.5943 -0.7877  0.9392
 4165SOL     OW13393   5.961   1.790   0.551  0.3031 -0.2059 -0.2318
 4165SOL    HW113394   5.904   1.805   0.470 -3.0368 -2.5892  1.4505
 4165SOL    HW213395   5.918   1.832   0.631  2.3965  0.2354  0.7542
 4166SOL     OW13396   6.341   0.570   2.241  0.5080  0.2610 -0.8789
 4166SOL    HW113397   6.279   0.649   2.235  0.1656  0.2135  1.2365
 4166SOL    HW213398   6.305   0.495   2.185 -1.2659  0.3163  0.1134
 4167SOL     OW13399   1.601   0.744   5.449  0.1395 -0.1771 -0.4745
 4167SOL    HW113400   1.511   0.774   5.418 -0.2116  1.0405  1.5306
 4167SOL    HW213401   1.591   0.671   5.516  0.2832  2.2015  2.3684
 4168SOL     OW13402   2.080   1.987   1.190  0.1822  0.4209 -0.0377
 4168SOL    HW113403   2.049   1.918   1.255  0.5266 -0.4020 -0.7394
 4168SOL    HW213404   2.174   1.968   1.163 -0.4430 -0.1455 -1.9434
 4169SOL     OW13405   4.417   2.397   2.142  0.1920  0.1442 -0.3279
 4169SOL    HW113406   4.354   2.474   2.138  1.3385  1.0584 -1.5610
 4169SOL    HW213407   4.400   2.336   2.065  0.6320  0.2606 -0.5210
 4170SOL     OW13408   0.964   3.994   4.394 -0.4474  0.0412 -0.2585
 4170SOL    HW113409   0.912   4.071   4.358  0.7207  0.6305 -0.7277
 4170SOL    HW213410   0.932   3.909   4.351 -0.3882  0.5075 -1.2567
 4171SOL     OW13411   1.649   1.053   3.053 -0.0427 -0.1934 -0.0742
 4171SOL    HW113412   1.681   1.133   3.103 -0.7717  1.0870 -1.5574
 4171SOL    HW213413   1.563   1.021   3.093  0.4159 -0.4401  0.7227
 4172SOL     OW13414   5.496   4.738   3.226 -0.2146  0.1932 -0.5811
 4172SOL    HW113415   5.427   4.697   3.285  0.8658 -0.6381  0.1475
 4172SOL    HW213416   5.475   4.834   3.211 -1.5874 -0.0756 -0.4935
 4173SOL     OW13417   3.832   6.283   1.472  0.5903  0.0900 -0.2314
 4173SOL    HW113418   3.871   6.217   1.408  0.9378  0.7705 -0.7305
 4173SOL    HW213419   3.736   6.260   1.488  0.7082 -0.5366 -0.3988
 4174SOL     OW13420   0.606   3.074   2.193  0.0911  0.2178  0.0720
 4174SOL    HW113421   0.556   3.129   2.260  1.2082 -0.8453  1.8502
 4174SOL    HW213422   0.697   3.112   2.180  0.2135 -0.1369 -0.1026
 4175SOL     OW13423   6.880   1.101   5.254 -0.8589  0.6432  0.1859
 4175SOL    HW113424   6.820   1.021   5.265 -2.6776  1.8398 -0.5849
 4175SOL    HW213425   6.877   1.157   5.337  1.2895 -0.5803  1.1713
 4176SOL     OW13426   5.369   3.955   6.497 -0.3880  0.0504  0.2662
 4176SOL    HW113427   5.380   3.922   6.403  0.1477 -1.9075  0.9759
 4176SOL    HW213428   5.348   3.879   6.557 -1.0266  1.3198  1.7183
 4177SOL     OW13429   0.248   6.747   6.126 -0.4525 -0.5824  0.6933
 4177SOL    HW113430   0.280   6.822   6.069 -1.2074  0.6930  1.8699
 4177SOL    HW213431   0.325   6.706   6.175  0.1101 -1.2991 -0.7422
 4178SOL     OW13432   5.573   2.139   5.238 -0.8163  0.3277  0.0042
 4178SOL    HW113433   5.649   2.195   5.204  1.1008 -1.3676  1.2430
 4178SOL    HW213434   5.563   2.058   5.179 -0.7533 -0.1408  0.6316
 4179SOL     OW13435   6.077   1.663   6.248  0.5723 -0.6145 -0.1799
 4179SOL    HW113436   6.088   1.748   6.196 -0.2589 -1.5561 -2.0135
 4179SOL    HW213437   6.006   1.608   6.205  0.6263 -1.9469  1.3753
 4180SOL     OW13438   0.886   4.881   0.831  0.0034 -0.1676 -0.1851
 4180SOL    HW113439   0.927   4.966   0.796  0.2481  0.2181  0.9721
 4180SOL    HW213440   0.864   4.893   0.928 -1.5251 -0.8669 -0.4171
 4181SOL     OW13441   6.633   3.584   0.622 -0.5943  0.0820  0.1853
 4181SOL    HW113442   6.677   3.674   0.612 -0.6316  0.0668 -0.1263
 4181SOL    HW213443   6.699   3.512   0.599 -0.5880  0.0319  0.3579
 4182SOL     OW13444   2.820   5.391   4.417 -0.4666 -0.4921 -0.1428
 4182SOL    HW113445   2.919   5.379   4.416 -0.5283 -1.0029 -0.2262
 4182SOL    HW213446   2.777   5.320   4.472 -0.9217 -1.4104 -1.6241
 4183SOL     OW13447   5.523   3.362   2.040  0.2984  0.0809 -1.0094
 4183SOL    HW113448   5.572   3.432   1.987 -2.1587  2.0208 -0.9134
 4183SOL    HW213449   5.464   3.309   1.979 -0.3361  0.3622 -0.6541
 4184SOL     OW13450   4.230   3.856   0.167 -0.4119  0.8540 -0.2532
 4184SOL    HW113451   4.153   3.834   0.227 -0.4050 -0.5838 -0.7329
 4184SOL    HW213452   4.307   3.795   0.188 -0.2820  0.5889 -1.4567
 4185SOL     OW13453   5.217   6.233   1.982  0.3471  0.0982 -0.2574
 4185SOL    HW113454   5.284   6.274   2.045  0.4868  0.6501 -0.7597
 4185SOL    HW213455   5.261   6.159   1.931 -0.7116 -2.9939  2.9406
 4186SOL     OW13456   1.468   3.173   1.895 -0.2623  0.6938 -0.0572
 4186SOL    HW113457   1.370   3.179   1.912 -0.0768 -0.5218  1.7590
 4186SOL    HW213458   1.488   3.206   1.803 -2.4019  0.7019 -0.5737
 4187SOL     OW13459   4.133   6.732   2.455 -0.4807  0.1078  0.5147
 4187SOL    HW113460   4.050   6.785   2.439 -0.5842  0.1477  1.1575
 4187SOL    HW213461   4.210   6.777   2.410 -0.8174  0.0220 -0.1599
 4188SOL     OW13462   6.763   4.639   3.822  0.5323  0.0675  0.8458
 4188SOL    HW113463   6.829   4.714   3.824  1.2707 -0.5678  0.7396
 4188SOL    HW213464   6.701   4.652   3.744  0.1670  0.9559  1.2651
 4189SOL     OW13465   0.195   4.001   0.725  0.1232 -0.4342 -0.2686
 4189SOL    HW113466   0.183   4.081   0.784  0.2854 -0.1162 -0.6559
 4189SOL    HW213467   0.289   3.968   0.732  1.1180  1.5592 -2.7067
 4190SOL     OW13468   6.416   5.026   5.221 -0.0054  0.4511 -0.0503
 4190SOL    HW113469   6.359   5.103   5.248  2.6033  2.9146 -1.0478
 4190SOL    HW213470   6.431   5.029   5.122  1.2034 -0.5502  0.0716
 4191SOL     OW13471   0.914   5.432   4.877 -0.2478 -0.0312 -0.1050
 4191SOL    HW113472   0.930   5.498   4.804  0.1649 -1.3851 -1.2979
 4191SOL    HW213473   0.893   5.343   4.837  0.5164 -0.9410  1.4105
 4192SOL     OW13474   4.959   0.446   0.373  0.0370 -0.3824 -0.5343
 4192SOL    HW113475   4.875   0.437   0.428  1.8644 -1.0967  2.3641
 4192SOL    HW213476   4.987   0.356   0.340  0.4991 -0.3772 -0.1552
 4193SOL     OW13477   2.343   6.069   1.810 -0.2942 -0.1800  0.3555
 4193SOL    HW113478   2.420   6.014   1.842 -0.6150 -0.8976 -0.0864
 4193SOL    HW213479   2.341   6.068   1.710 -0.0258  1.0348  0.3219
 4194SOL     OW13480   2.833   5.579   2.977 -0.1310 -0.1371  0.0382
 4194SOL    HW113481   2.803   5.672   3.000  0.9680 -0.2889  2.2891
 4194SOL    HW213482   2.915   5.556   3.029  0.0266 -2.1446 -0.9939
 4195SOL     OW13483   5.153   3.254   2.582 -0.4222  1.0902 -0.4935
 4195SOL    HW113484   5.183   3.164   2.554  0.1492  1.5440 -1.3881
 4195SOL    HW213485   5.053   3.259   2.578 -0.7031 -0.4047  2.4467
 4196SOL     OW13486   1.642   3.006   1.460  0.1181 -0.0744  0.2549
 4196SOL    HW113487   1.562   2.986   1.403  0.2874  1.0977 -0.4193
 4196SOL    HW213488   1.723   2.963   1.419 -0.0566 -0.8097  0.6498
 4197SOL     OW13489   4.646   1.068   2.735  0.2962 -0.8548 -0.4128
 4197SOL    HW113490   4.709   0.990   2.742  0.0154 -1.0305  0.2250
 4197SOL    HW213491   4.674   1.126   2.658  0.0407 -1.9990 -1.4020
 4198SOL     OW13492   6.151   0.635   0.419  0.1793 -0.0748 -0.3412
 4198SOL    HW113493   6.067   0.671   0.461  0.4866  0.3509 -0.0837
 4198SOL    HW213494   6.193   0.569   0.481  0.7154  0.6685  0.0974
 4199SOL     OW13495   3.071   6.411   2.196  0.0035  0.6550  0.3896
 4199SOL    HW113496   3.102   6.354   2.120  0.0553  0.5892  0.4595
 4199SOL    HW213497   3.146   6.470   2.226  0.4117 -0.3034  1.2924
 4200SOL     OW13498   3.413   0.861   2.801  0.2787  0.6564  0.1433
 4200SOL    HW113499   3.496   0.842   2.748 -0.2782  0.9989 -0.8557
 4200SOL    HW213500   3.390   0.958   2.794 -1.8793  0.0768 -2.0893
 4201SOL     OW13501   2.848   0.022   0.779 -0.6402  0.2263 -0.3274
 4201SOL    HW113502   2.936   0.033   0.825 -0.4166 -0.1215 -0.6548
 4201SOL    HW213503   2.845  -0.068   0.735 -0.9898  0.4022 -0.6743
 4202SOL     OW13504   2.814   5.096   2.002  0.7195 -0.5866  0.3965
 4202SOL    HW113505   2.857   5.059   2.083  0.2746  0.4873  1.1480
 4202SOL    HW213506   2.861   5.180   1.975 -0.6622  0.4221  1.0385
 4203SOL     OW13507   0.500   3.339   5.185 -0.4745 -0.4839  0.1147
 4203SOL    HW113508   0.486   3.255   5.132  1.9557 -1.5841  1.1015
 4203SOL    HW213509   0.579   3.389   5.150  0.7540 -0.8654  2.1456
 4204SOL     OW13510   6.383   3.080   3.985  0.3409  0.3043 -0.3781
 4204SOL    HW113511   6.410   3.158   3.930  0.2772 -0.1072 -0.9998
 4204SOL    HW213512   6.445   3.004   3.968  0.7583  0.3962  0.6622
 4205SOL     OW13513   2.994   3.955   5.324  0.2788  0.3335  0.8317
 4205SOL    HW113514   3.069   4.015   5.294 -0.2639  0.8063  0.3803
 4205SOL    HW213515   2.914   3.971   5.265 -0.2788  0.0780  1.5108
 4206SOL     OW13516   3.032   0.433   6.862  0.1811  0.0932 -0.2629
 4206SOL    HW113517   3.120   0.392   6.886 -1.8117 -3.8383  1.2892
 4206SOL    HW213518   3.031   0.455   6.764  2.1239 -2.0705 -0.8470
 4207SOL     OW13519   2.058   1.721   5.889  0.1653 -0.2937  0.2671
 4207SOL    HW113520   2.015   1.638   5.855 -0.4724 -0.7232  2.0036
 4207SOL    HW213521   2.093   1.705   5.981  0.1253  1.3374  0.6056
 4208SOL     OW13522   0.952   0.993   2.710  0.0673  0.1602 -0.5597
 4208SOL    HW113523   0.945   0.957   2.616  0.1172  3.0937 -1.7901
 4208SOL    HW213524   1.037   0.959   2.751  0.5971 -0.3450 -1.9881
 4209SOL     OW13525   4.791   3.004   3.469 -0.0077 -0.5600  0.3870
 4209SOL    HW113526   4.836   3.092   3.456 -0.3132 -0.4961 -0.2534
 4209SOL    HW213527   4.757   2.970   3.382 -0.0278 -1.2435  0.6534
 4210SOL     OW13528   0.601   3.384   4.474  0.8097  0.4490  0.1348
 4210SOL    HW113529   0.620   3.422   4.565  1.8757  0.6012 -0.1330
 4210SOL    HW213530   0.507   3.349   4.471 -0.0876  2.6608  0.5291
 4211SOL     OW13531   2.951   3.781   1.825 -0.2104  0.5777 -0.4990
 4211SOL    HW113532   3.038   3.742   1.794  0.6233  2.1576 -0.2301
 4211SOL    HW213533   2.911   3.835   1.752 -1.4336 -0.8219 -0.9133
 4212SOL     OW13534   0.283   0.553   6.587 -0.4617 -0.6789 -0.3954
 4212SOL    HW113535   0.204   0.524   6.642  1.0393 -0.3371  2.1203
 4212SOL    HW213536   0.365   0.505   6.619  0.7420  0.6094 -1.4156
 4213SOL     OW13537   5.923   4.654   4.044  0.1532  0.3183 -0.3947
 4213SOL    HW113538   5.917   4.754   4.048  0.9231  0.3448  1.6177
 4213SOL    HW213539   6.019   4.626   4.039  0.0142 -0.3103  0.2439
 4214SOL     OW13540   1.283   6.840   0.245  0.0769 -0.7263 -0.0392
 4214SOL    HW113541   1.374   6.867   0.276  0.1377 -1.0667  0.0767
 4214SOL    HW213542   1.289   6.757   0.191 -0.4208 -2.0456  1.8491
 4215SOL     OW13543   6.758   1.415   6.124  0.2199 -0.3728  0.4574
 4215SOL    HW113544   6.845   1.367   6.110  0.4647  0.0185  0.6203
 4215SOL    HW213545   6.755   1.451   6.217 -0.2647 -0.6776  0.5592
 4216SOL     OW13546   0.540   2.252   6.718 -0.1364 -0.4824 -0.2561
 4216SOL    HW113547   0.442   2.262   6.697 -0.2148 -1.0939 -0.1970
 4216SOL    HW213548   0.563   2.155   6.724  0.5797 -0.3518 -0.7555
 4217SOL     OW13549   5.896   6.579   3.043 -0.5328 -0.0545  0.0154
 4217SOL    HW113550   5.841   6.585   3.126 -0.1551 -0.4529  0.3028
 4217SOL    HW213551   5.904   6.483   3.015 -0.0930  0.0063 -0.0867
 4218SOL     OW13552   2.551   5.103   4.347 -0.1704 -0.0810 -0.2433
 4218SOL    HW113553   2.599   5.160   4.281  0.8788  0.6230  1.0728
 4218SOL    HW213554   2.452   5.114   4.336  0.0128  1.6453 -0.3089
 4219SOL     OW13555   6.773   3.376   0.487  0.3713  0.1938 -0.5244
 4219SOL    HW113556   6.701   3.306   0.487  2.9245 -2.6982  0.7770
 4219SOL    HW213557   6.826   3.369   0.403  0.4628  0.7894 -0.5180
 4220SOL     OW13558   0.429   5.055   5.778 -0.8154 -0.1677 -0.0740
 4220SOL    HW113559   0.440   5.058   5.679  2.6767 -1.3967  0.1288
 4220SOL    HW213560   0.350   4.999   5.801 -1.1912 -0.5747 -2.1406
 4221SOL     OW13561   3.136   0.222   0.269  0.1708 -0.1741 -0.0859
 4221SOL    HW113562   3.102   0.307   0.311 -0.5698 -0.2439 -0.5259
 4221SOL    HW213563   3.116   0.145   0.329 -1.6085 -0.3827 -0.8697
 4222SOL     OW13564   6.054   0.865   6.257 -0.2354 -0.0094 -0.2858
 4222SOL    HW113565   6.143   0.833   6.291  0.2762  1.4859 -0.1370
 4222SOL    HW213566   5.996   0.889   6.335 -0.3454  0.0957 -0.4005
 4223SOL     OW13567   2.794   4.667   3.859 -0.0868  0.4824  0.9037
 4223SOL    HW113568   2.792   4.702   3.766  0.4082 -1.8880 -0.0493
 4223SOL    HW213569   2.777   4.569   3.859  1.0935  0.2047  3.1867
 4224SOL     OW13570   6.886   2.687   6.352  0.0204 -0.4249  0.0271
 4224SOL    HW113571   6.906   2.727   6.263 -1.0163  1.6071  0.6452
 4224SOL    HW213572   6.950   2.611   6.369 -0.1211 -1.2387 -2.6197
 4225SOL     OW13573   5.524   3.994   2.419  0.4262 -0.0301  0.7007
 4225SOL    HW113574   5.624   3.984   2.410  1.0107  0.7822  4.6350
 4225SOL    HW213575   5.482   3.904   2.424  0.9829 -0.3769 -0.3605
 4226SOL     OW13576   1.282   0.323   5.773  0.0393  0.0353 -0.0524
 4226SOL    HW113577   1.359   0.298   5.714  0.0714 -0.7554  0.3213
 4226SOL    HW213578   1.241   0.408   5.738  0.4921 -0.0350 -0.7986
 4227SOL     OW13579   2.094   5.929   6.465  0.0596  0.1634  0.0789
 4227SOL    HW113580   2.071   5.898   6.557  0.5583  1.3380  0.6179
 4227SOL    HW213581   2.070   6.026   6.456 -1.1618 -0.2428 -1.4414
 4228SOL     OW13582   3.344   4.850   0.114 -0.0617 -0.6817 -0.3887
 4228SOL    HW113583   3.273   4.918   0.129 -1.3884 -2.1226  0.1782
 4228SOL    HW213584   3.410   4.853   0.190 -0.2852 -0.2317 -0.2150
 4229SOL     OW13585   2.400   0.648   6.021  0.3291  0.2608 -0.1858
 4229SOL    HW113586   2.447   0.684   6.102  1.8072  1.1808 -1.4010
 4229SOL    HW213587   2.331   0.581   6.049  1.0812  0.2637  1.7959
 4230SOL     OW13588   5.337   1.266   1.081  0.3064  0.4003  0.0869
 4230SOL    HW113589   5.389   1.205   1.021 -2.0159 -0.6153 -0.9897
 4230SOL    HW213590   5.366   1.361   1.065 -0.6333  0.2483 -3.1993
 4231SOL     OW13591   6.129   3.349   5.317  0.0512  0.0357  0.7619
 4231SOL    HW113592   6.056   3.359   5.384  0.2560  1.4829  0.8163
 4231SOL    HW213593   6.097   3.382   5.228  0.5196  0.3787  0.7124
 4232SOL     OW13594   6.087   3.374   1.854  0.4457 -0.0543 -0.2896
 4232SOL    HW113595   6.065   3.472   1.860  4.5487  1.1029 -1.0891
 4232SOL    HW213596   6.060   3.330   1.940 -1.3780  1.7676  0.1679
 4233SOL     OW13597   4.579   1.121   3.974 -0.4395  0.0751 -0.2068
 4233SOL    HW113598   4.667   1.083   4.003 -0.3675  1.2507  1.2277
 4233SOL    HW213599   4.505   1.063   4.009 -0.2619 -0.4151 -0.6371
 4234SOL     OW13600   3.053   0.148   0.019  0.1410  0.0791  0.0916
 4234SOL    HW113601   3.069   0.161   0.117 -1.0251 -0.3073  0.3482
 4234SOL    HW213602   3.111   0.212  -0.033  0.8740  0.1897  1.0118
 4235SOL     OW13603   1.475   3.038   2.524  0.1840 -0.0217 -0.5796
 4235SOL    HW113604   1.535   3.084   2.459  0.4954  0.0598 -0.2398
 4235SOL    HW213605   1.380   3.059   2.503  0.0876 -2.0173 -2.5986
 4236SOL     OW13606   0.608   1.018   3.389 -0.1200  0.3785 -0.3323
 4236SOL    HW113607   0.548   1.068   3.452 -0.7290 -1.0266  0.2367
 4236SOL    HW213608   0.577   1.031   3.296 -2.7284 -2.0743  0.0899
 4237SOL     OW13609   1.507   6.909   5.007  0.1289 -0.3003  0.5750
 4237SOL    HW113610   1.547   6.819   5.022 -0.3996 -0.4292  1.2738
 4237SOL    HW213611   1.427   6.920   5.066 -1.3932 -0.3659 -1.3864
 4238SOL     OW13612   5.929   2.498   0.548 -0.6065  0.2341 -0.3021
 4238SOL    HW113613   5.965   2.511   0.455  0.2029  1.2963  0.1432
 4238SOL    HW213614   5.859   2.426   0.546  1.8795 -2.3875 -1.1448
 4239SOL     OW13615   2.858   5.186   0.502  0.2162  0.0217  0.1606
 4239SOL    HW113616   2.882   5.092   0.478  0.3878  0.0777  0.1095
 4239SOL    HW213617   2.925   5.248   0.462 -0.7974  0.2912 -1.1752
 4240SOL     OW13618   1.696   6.439   0.642  0.3067  0.2649  0.3700
 4240SOL    HW113619   1.647   6.488   0.715  0.5470  5.0996 -2.2890
 4240SOL    HW213620   1.630   6.405   0.575  0.2453 -1.6997  1.3678
 4241SOL     OW13621   6.858   0.162   1.640 -0.6308  0.0711  0.0619
 4241SOL    HW113622   6.791   0.159   1.714  0.0685 -3.0917  0.7165
 4241SOL    HW213623   6.843   0.086   1.577  0.8171  0.7628 -1.2207
 4242SOL     OW13624   2.932   5.667   6.124  0.2910  0.1579  0.3074
 4242SOL    HW113625   2.899   5.757   6.154  1.6589  0.7081  0.2334
 4242SOL    HW213626   2.889   5.644   6.036  0.4667  1.0704 -0.0305
 4243SOL     OW13627   3.231   3.184   2.918  0.1668 -0.8098 -0.3294
 4243SOL    HW113628   3.183   3.238   2.849 -2.1592 -2.0316  0.2346
 4243SOL    HW213629   3.173   3.174   2.999  1.9402 -1.2831  0.9526
 4244SOL     OW13630   6.767   0.928   6.748  0.1662 -0.1198 -0.6147
 4244SOL    HW113631   6.805   0.998   6.809 -1.5236  0.0314  0.3270
 4244SOL    HW213632   6.715   0.972   6.675 -3.0431 -0.2463  1.3691
 4245SOL     OW13633   2.904   1.708   6.608  0.0496 -0.1269 -0.1132
 4245SOL    HW113634   2.960   1.631   6.639 -0.2395 -0.1058  0.4885
 4245SOL    HW213635   2.809   1.679   6.599  0.1965 -0.2289 -1.3856
 4246SOL     OW13636   4.801   0.102   2.273 -1.0150 -0.3892  0.2547
 4246SOL    HW113637   4.732   0.170   2.297 -3.2131 -1.6924 -1.9608
 4246SOL    HW213638   4.806   0.033   2.346  0.0000  1.1156  1.6952
 4247SOL     OW13639   5.903   3.454   6.826  0.2091  0.1140 -0.1769
 4247SOL    HW113640   5.875   3.473   6.920  1.7400  1.3711  0.0728
 4247SOL    HW213641   5.833   3.400   6.780 -1.4137  1.0563  1.1142
 4248SOL     OW13642   6.302   4.735   3.533 -0.3070 -0.1629 -0.1818
 4248SOL    HW113643   6.238   4.757   3.459 -0.2045  1.9233  0.3169
 4248SOL    HW213644   6.391   4.713   3.493 -0.5610 -0.2463 -0.7232
 4249SOL     OW13645   4.341   2.687   6.235  0.1111 -0.0422 -0.4003
 4249SOL    HW113646   4.268   2.667   6.300  1.8553 -1.1098  1.3159
 4249SOL    HW213647   4.334   2.783   6.206 -2.3084 -0.2838 -0.8082
 4250SOL     OW13648   4.334   4.954   5.290  0.3821 -0.5936  0.4424
 4250SOL    HW113649   4.277   4.948   5.373 -1.0307 -0.6193 -0.4936
 4250SOL    HW213650   4.372   4.864   5.270 -0.9817 -1.0829 -0.0684
 4251SOL     OW13651   4.825   5.921   3.608 -0.4068  0.5135  1.0145
 4251SOL    HW113652   4.740   5.870   3.615 -0.3058 -0.0164 -1.0700
 4251SOL    HW213653   4.810   6.003   3.553  0.5244  0.1320  0.1594
 4252SOL     OW13654   2.111   6.467   0.079  0.1165  0.0265 -0.3698
 4252SOL    HW113655   2.139   6.376   0.047 -1.7890 -1.0798  0.9286
 4252SOL    HW213656   2.021   6.489   0.043  0.2599  1.1320 -0.0997
 4253SOL     OW13657   6.785   2.807   4.832 -0.2351  0.3022  0.1990
 4253SOL    HW113658   6.766   2.738   4.761 -0.6201  0.9230 -0.3156
 4253SOL    HW213659   6.745   2.776   4.918 -0.6893  0.0207 -0.0997
 4254SOL     OW13660   0.026   2.316   6.158  0.4034 -0.3383 -0.5000
 4254SOL    HW113661   0.077   2.400   6.173  0.1545 -0.2680 -0.0118
 4254SOL    HW213662   0.029   2.261   6.242 -1.4754  0.2931  0.0221
 4255SOL     OW13663   2.660   0.501   3.084 -0.3632 -0.1718  0.1539
 4255SOL    HW113664   2.600   0.577   3.061  0.7102  0.4637 -0.5991
 4255SOL    HW213665   2.751   0.536   3.107 -0.2739 -1.1124  1.3353
 4256SOL     OW13666   4.880   2.242   6.453  0.3895 -0.6126 -0.3403
 4256SOL    HW113667   4.818   2.257   6.530 -2.4239  0.0729 -2.5791
 4256SOL    HW213668   4.959   2.303   6.462 -1.7558  2.2769  0.1048
 4257SOL     OW13669   6.294   5.421   0.727 -0.1111 -0.0736  0.8569
 4257SOL    HW113670   6.263   5.370   0.808  1.5024 -0.9444  0.9672
 4257SOL    HW213671   6.313   5.515   0.752 -3.4209  0.8038  0.5916
 4258SOL     OW13672   2.842   1.690   3.941 -0.1415 -0.0924  0.2143
 4258SOL    HW113673   2.817   1.753   4.015  0.4762  1.1837 -0.6284
 4258SOL    HW213674   2.939   1.668   3.947  0.4304  1.7566 -1.4381
 4259SOL     OW13675   2.297   6.335   6.308  0.4896  0.3815  0.3851
 4259SOL    HW113676   2.333   6.333   6.401 -1.3067 -0.7668  1.1053
 4259SOL    HW213677   2.372   6.336   6.243  1.7801  0.9690  1.8279
 4260SOL     OW13678   0.312   1.821   2.316 -0.5191 -0.2016 -0.5537
 4260SOL    HW113679   0.412   1.828   2.317 -0.4821 -0.4948 -1.3395
 4260SOL    HW213680   0.280   1.787   2.405  0.1478 -0.9041 -0.5671
 4261SOL     OW13681   3.434   1.840   4.625 -0.9288 -0.2178 -0.2278
 4261SOL    HW113682   3.448   1.939   4.621  0.2446 -0.3256  0.7186
 4261SOL    HW213683   3.427   1.811   4.720  1.6092 -1.3868 -0.3151
 4262SOL     OW13684   5.206   3.963   2.296 -0.3261 -0.0145  0.0029
 4262SOL    HW113685   5.303   3.983   2.288  0.0266  0.6943  4.0882
 4262SOL    HW213686   5.164   4.025   2.362 -3.2820 -1.1522 -0.6403
 4263SOL     OW13687   2.303   6.980   0.460  0.1499 -0.2539  0.0079
 4263SOL    HW113688   2.206   7.006   0.465  0.3351  0.3314  0.7786
 4263SOL    HW213689   2.310   6.886   0.426 -0.6839 -0.2725 -0.1449
 4264SOL     OW13690   5.183   4.829   0.836  0.3865 -0.6343  0.6556
 4264SOL    HW113691   5.234   4.852   0.919  2.2048 -0.6519 -0.4191
 4264SOL    HW213692   5.106   4.893   0.826  0.6600 -0.0776  1.8705
 4265SOL     OW13693   1.497   2.473   0.041 -0.1221  0.2189 -0.1548
 4265SOL    HW113694   1.407   2.435   0.062  0.0718  0.1440  0.5501
 4265SOL    HW213695   1.545   2.495   0.126  0.4665  0.3996 -0.5280
 4266SOL     OW13696   4.598   2.355   6.237  0.2596  0.2159 -0.6185
 4266SOL    HW113697   4.503   2.372   6.263  0.5033  0.6061  0.0501
 4266SOL    HW213698   4.609   2.259   6.212 -0.6281  0.4882 -2.1686
 4267SOL     OW13699   0.727   5.556   2.971 -0.5239  0.2990  0.3229
 4267SOL    HW113700   0.759   5.563   2.876  1.7581 -0.8673  0.9447
 4267SOL    HW213701   0.664   5.479   2.979 -0.8187  0.4731 -0.2530
 4268SOL     OW13702   0.179   0.767   3.712  0.7650  0.1630  0.0239
 4268SOL    HW113703   0.268   0.807   3.691  1.3893 -1.0900  0.1359
 4268SOL    HW213704   0.190   0.696   3.782 -0.0658 -1.0467 -1.0217
 4269SOL     OW13705   0.105   0.749   1.683  0.0412  0.3704  0.2447
 4269SOL    HW113706   0.072   0.688   1.755  0.9520 -0.7220 -0.2422
 4269SOL    HW213707   0.204   0.740   1.673 -0.0988  0.2306 -1.3741
 4270SOL     OW13708   1.000   6.307   0.697  0.4035 -0.1703  0.5341
 4270SOL    HW113709   0.931   6.377   0.679  0.9900  0.4344  0.5636
 4270SOL    HW213710   0.976   6.223   0.649  0.3718  0.4763 -0.6146
 4271SOL     OW13711   1.646   2.704   5.123  0.4922  0.2790  0.2584
 4271SOL    HW113712   1.647   2.750   5.034  0.3435  0.7868  0.5111
 4271SOL    HW213713   1.644   2.773   5.196  1.2686 -0.1197  0.6733
 4272SOL     OW13714   0.026   4.292   2.219 -0.2499 -0.4239  0.3024
 4272SOL    HW113715   0.103   4.355   2.233  1.8739 -2.9138  0.6887
 4272SOL    HW213716   0.013   4.279   2.120  0.7221 -0.9626  0.2321
 4273SOL     OW13717   6.204   0.538   4.050 -0.0557 -0.0921 -0.4911
 4273SOL    HW113718   6.222   0.580   4.139 -1.1851 -2.3206  0.8859
 4273SOL    HW213719   6.108   0.553   4.025 -0.0672 -0.5120 -0.7160
 4274SOL     OW13720   3.958   6.137   4.030  0.4986 -0.0643 -0.5050
 4274SOL    HW113721   4.003   6.125   4.118 -0.7968  1.2741  0.3875
 4274SOL    HW213722   3.957   6.234   4.005 -0.6540 -0.2159 -1.1556
 4275SOL     OW13723   2.914   1.795   2.029  0.5302  0.4198  0.5694
 4275SOL    HW113724   2.964   1.879   2.048 -0.5020  1.5130 -1.2476
 4275SOL    HW213725   2.890   1.792   1.932  2.0435 -2.8209  0.1652
 4276SOL     OW13726   5.048   4.610   4.806 -0.1050  0.5044 -0.4246
 4276SOL    HW113727   4.984   4.677   4.768  1.1642  0.8823 -2.0126
 4276SOL    HW213728   5.002   4.522   4.817 -1.0582  0.9187 -0.9757
 4277SOL     OW13729   4.050   5.892   4.651  0.3581  0.4477  0.3063
 4277SOL    HW113730   4.116   5.818   4.661  0.5252  0.5663  0.1116
 4277SOL    HW213731   3.958   5.855   4.640  0.6172  0.2087 -1.3058
 4278SOL     OW13732   2.478   1.391   1.622  0.2103  0.1131 -1.0394
 4278SOL    HW113733   2.536   1.473   1.624 -0.4094  0.6330 -2.8057
 4278SOL    HW213734   2.497   1.339   1.539 -2.2798  0.6534 -2.0364
 4279SOL     OW13735   4.097   5.143   6.625  0.3151  0.4135 -0.2539
 4279SOL    HW113736   4.059   5.205   6.694 -0.1304 -0.1841  0.0514
 4279SOL    HW213737   4.194   5.164   6.611  0.8587 -0.4763  1.7638
 4280SOL     OW13738   1.536   0.364   0.358  0.5178  0.2945  0.2218
 4280SOL    HW113739   1.473   0.298   0.317  0.4008  0.4048  0.2217
 4280SOL    HW213740   1.497   0.398   0.444  0.5356  0.4292  0.1767
 4281SOL     OW13741   5.068   4.537   4.528  0.1335 -0.5871 -0.3285
 4281SOL    HW113742   5.082   4.602   4.453  1.5526 -1.3641 -0.7692
 4281SOL    HW213743   5.061   4.587   4.614 -0.0017  0.2206 -0.7949
 4282SOL     OW13744   5.323   5.676   0.220 -0.1272 -0.4035 -0.3691
 4282SOL    HW113745   5.291   5.652   0.128  0.0821  0.6620 -0.7368
 4282SOL    HW213746   5.417   5.642   0.231  0.4449  0.8523 -1.1607
 4283SOL     OW13747   2.287   1.938   4.110 -0.2343  0.3194  0.3199
 4283SOL    HW113748   2.345   2.013   4.143 -0.8899  0.0627  2.1684
 4283SOL    HW213749   2.191   1.964   4.118 -0.4470  0.1062 -1.1835
 4284SOL     OW13750   1.807   3.967   2.692 -0.3336  0.9468 -0.4126
 4284SOL    HW113751   1.870   3.989   2.617  1.8242 -0.3501  0.9122
 4284SOL    HW213752   1.846   4.000   2.778 -0.7871 -1.1011  0.6297
 4285SOL     OW13753   1.248   2.493   1.829 -0.2605  0.0281 -0.3773
 4285SOL    HW113754   1.290   2.415   1.875  1.3221  0.7163 -0.5855
 4285SOL    HW213755   1.315   2.568   1.822 -1.6462  1.3129 -0.4139
 4286SOL     OW13756   4.861   5.952   6.674 -0.2536  0.3254  0.8545
 4286SOL    HW113757   4.908   5.883   6.619 -0.4914  0.1961  0.8101
 4286SOL    HW213758   4.765   5.925   6.686 -0.6278  1.1815 -0.0691
 4287SOL     OW13759   6.718   5.658   4.996  0.3417 -0.2093 -0.2461
 4287SOL    HW113760   6.671   5.638   4.910  1.1290 -1.1137 -0.4795
 4287SOL    HW213761   6.657   5.639   5.073  0.5897 -2.2732 -0.5051
 4288SOL     OW13762   2.002   4.060   4.540  0.8325  0.0992  0.3424
 4288SOL    HW113763   2.040   4.035   4.629  0.0365 -1.2628  0.3426
 4288SOL    HW213764   2.076   4.085   4.478  1.5975 -0.9560  0.7946
 4289SOL     OW13765   5.580   5.411   4.497 -0.3569  0.3521  0.3699
 4289SOL    HW113766   5.616   5.319   4.512 -1.5551  0.1824  2.7213
 4289SOL    HW213767   5.488   5.404   4.458 -0.0204  0.6247 -0.5074
 4290SOL     OW13768   1.288   4.958   0.252 -0.4162  0.1073  0.5663
 4290SOL    HW113769   1.206   4.901   0.261 -0.8099  0.2913 -1.4439
 4290SOL    HW213770   1.369   4.901   0.265 -0.7877 -1.1093 -1.8670
 4291SOL     OW13771   4.493   0.558   1.820  0.0806 -0.1182  0.2845
 4291SOL    HW113772   4.402   0.544   1.779  0.3592 -0.6564 -0.1641
 4291SOL    HW213773   4.515   0.481   1.880  0.3966 -0.1781  0.0939
 4292SOL     OW13774   1.072   1.522   3.332 -0.1967 -0.1687  1.1152
 4292SOL    HW113775   0.981   1.563   3.322  0.1029  0.5462  1.2398
 4292SOL    HW213776   1.112   1.509   3.241 -0.6597 -1.0424  1.0302
 4293SOL     OW13777   2.045   6.868   3.769 -0.5503 -0.2644 -0.1461
 4293SOL    HW113778   2.030   6.967   3.771  1.2395  0.0360  0.0150
 4293SOL    HW213779   2.108   6.845   3.694  2.2132 -0.7369  2.1489
 4294SOL     OW13780   4.979   2.204   6.199 -0.3268 -0.5036 -0.4612
 4294SOL    HW113781   4.920   2.221   6.277 -1.1038 -0.2323 -1.0872
 4294SOL    HW213782   5.050   2.274   6.193 -0.3001 -0.4968 -0.0337
 4295SOL     OW13783   1.251   1.032   4.452 -0.3302  0.2614 -0.3483
 4295SOL    HW113784   1.319   0.986   4.395  1.3105  1.4685  0.5509
 4295SOL    HW213785   1.233   1.124   4.416 -1.2643  0.0734 -0.3955
 4296SOL     OW13786   6.785   5.194   2.042 -0.2544 -0.4919 -0.0417
 4296SOL    HW113787   6.738   5.242   1.968  0.6008  1.6612  0.7261
 4296SOL    HW213788   6.729   5.117   2.072 -2.1276  0.5097 -0.7646
 4297SOL     OW13789   3.427   5.888   6.786 -0.3287  0.2579  0.0716
 4297SOL    HW113790   3.521   5.869   6.757  0.3111  1.2324  1.3692
 4297SOL    HW213791   3.395   5.973   6.743 -0.0235  0.7628  0.8208
 4298SOL     OW13792   2.296   4.519   5.632  0.0954  0.2795  0.0995
 4298SOL    HW113793   2.282   4.617   5.648  1.2139  0.4350  0.2176
 4298SOL    HW213794   2.362   4.507   5.558  1.5459 -0.3389  1.4239
 4299SOL     OW13795   6.597   1.846   6.259  0.0266  0.0700 -0.4417
 4299SOL    HW113796   6.681   1.893   6.287  0.5256 -0.6315 -0.7257
 4299SOL    HW213797   6.568   1.881   6.170  0.0926  0.2244 -0.4037
 4300SOL     OW13798   0.271   2.166   6.598  0.2224  0.0634 -0.1518
 4300SOL    HW113799   0.191   2.139   6.652  0.9777  0.2734  1.1054
 4300SOL    HW213800   0.295   2.093   6.534 -1.3919  0.2833 -1.0721
 4301SOL     OW13801   3.029   2.709   0.745 -0.0770  0.5483  0.8260
 4301SOL    HW113802   2.933   2.684   0.750 -0.2048  0.8958  0.2150
 4301SOL    HW213803   3.054   2.759   0.828 -0.1592 -0.3926  1.4332
 4302SOL     OW13804   2.043   2.576   3.292  0.2984  0.7932 -0.4606
 4302SOL    HW113805   2.038   2.579   3.392 -0.3336 -0.2940 -0.4414
 4302SOL    HW213806   2.132   2.540   3.264 -0.0466 -0.3064 -0.2292
 4303SOL     OW13807   5.376   0.072   3.254  0.2300 -0.1411  0.1526
 4303SOL    HW113808   5.368   0.078   3.354  0.0043  3.3280  0.0459
 4303SOL    HW213809   5.457   0.123   3.224 -1.1837  1.1986 -1.5838
 4304SOL     OW13810   1.290   1.484   0.892 -0.9868 -0.2782  0.1117
 4304SOL    HW113811   1.248   1.464   0.981  1.4592  1.2370  1.7109
 4304SOL    HW213812   1.305   1.582   0.884  1.4064 -0.6591 -0.7093
 4305SOL     OW13813   5.293   1.822   2.865 -0.5236 -0.0580  0.0984
 4305SOL    HW113814   5.346   1.906   2.870 -1.5196  0.5559  0.7717
 4305SOL    HW213815   5.196   1.842   2.879 -1.0904 -1.0297 -1.9759
 4306SOL     OW13816   2.990   0.662   2.201 -0.3792  0.5484 -0.4567
 4306SOL    HW113817   2.891   0.646   2.208 -0.2676 -0.9701 -1.7272
 4306SOL    HW213818   3.031   0.590   2.145  1.4132  1.3413 -0.2207
 4307SOL     OW13819   3.280   3.031   5.291 -0.1805  0.2261  0.2322
 4307SOL    HW113820   3.312   3.118   5.254  0.1742  0.6496  1.4630
 4307SOL    HW213821   3.328   2.956   5.246  1.0915  0.7719  0.6351
 4308SOL     OW13822   3.859   5.821   5.525  0.5502  0.1883 -0.4130
 4308SOL    HW113823   3.957   5.830   5.505  0.7400  2.3095  1.1708
 4308SOL    HW213824   3.842   5.842   5.621 -1.4993  0.0500 -0.7002
 4309SOL     OW13825   5.056   5.517   6.508  0.0733 -0.0709  0.0374
 4309SOL    HW113826   5.022   5.476   6.423 -0.0662  2.4984 -1.2510
 4309SOL    HW213827   5.004   5.481   6.585 -3.7355  1.4594 -1.5294
 4310SOL     OW13828   4.892   5.752   4.141 -0.1316 -0.5248  0.3291
 4310SOL    HW113829   4.892   5.655   4.115 -0.0488 -0.7107  1.0063
 4310SOL    HW213830   4.968   5.798   4.094  0.1649 -0.9045  0.4272
 4311SOL     OW13831   1.429   0.561   1.115  0.1308 -0.1466 -0.1652
 4311SOL    HW113832   1.505   0.513   1.071  0.2201  1.2045 -1.5977
 4311SOL    HW213833   1.413   0.523   1.205  1.7248 -1.2597 -0.3073
 4312SOL     OW13834   0.108   3.643   2.045  0.0294  0.1917 -0.6815
 4312SOL    HW113835   0.042   3.643   1.970  0.2737 -0.0757 -0.8985
 4312SOL    HW213836   0.179   3.575   2.027 -1.5358 -2.1254  1.2027
 4313SOL     OW13837   2.055   4.832   3.599  0.5154 -0.3087  0.1209
 4313SOL    HW113838   1.976   4.808   3.543  1.5982  1.0659 -2.1448
 4313SOL    HW213839   2.052   4.930   3.620  1.4938 -0.2754  0.1509
 4314SOL     OW13840   1.620   2.306   1.529 -0.0429 -0.4363  0.0835
 4314SOL    HW113841   1.698   2.352   1.571 -0.4024 -0.0357  0.3095
 4314SOL    HW213842   1.545   2.301   1.594 -0.4909 -0.0883 -0.4010
 4315SOL     OW13843   2.778   5.617   6.826 -0.2206 -0.7497 -0.9183
 4315SOL    HW113844   2.848   5.549   6.803 -0.7667 -1.1200 -1.5384
 4315SOL    HW213845   2.735   5.650   6.742  0.5974  0.9959 -0.6844
 4316SOL     OW13846   5.789   4.394   3.068  1.0179  0.0691 -1.0456
 4316SOL    HW113847   5.762   4.487   3.041 -0.3529 -0.3559 -1.2292
 4316SOL    HW213848   5.841   4.398   3.153 -2.6317  0.7538  1.3787
 4317SOL     OW13849   3.597   0.788   1.760  0.0170  0.4828  0.7647
 4317SOL    HW113850   3.652   0.787   1.676  1.5427 -0.0461  1.7219
 4317SOL    HW213851   3.597   0.880   1.799  2.4371  0.0323  2.0722
 4318SOL     OW13852   3.353   1.695   0.002  0.5811 -0.3512 -0.6945
 4318SOL    HW113853   3.412   1.774   0.013  1.0048 -0.6681 -0.6638
 4318SOL    HW213854   3.396   1.615   0.044  0.2236 -0.6304 -0.8497
 4319SOL     OW13855   6.037   3.340   0.169  0.0980 -0.2969 -0.3883
 4319SOL    HW113856   6.121   3.336   0.114  0.9277 -2.5879  0.8781
 4319SOL    HW213857   6.004   3.246   0.185 -1.5153  0.4448  0.9205
 4320SOL     OW13858   0.127   3.559   6.889 -0.2689  0.1333 -0.0443
 4320SOL    HW113859   0.126   3.659   6.880 -0.2272  0.5524  3.2625
 4320SOL    HW213860   0.194   3.533   6.959 -0.1926 -2.2623 -0.9224
 4321SOL     OW13861   2.697   6.710   0.972 -0.2195  0.1205  0.1797
 4321SOL    HW113862   2.689   6.697   0.873 -0.8977 -0.0038  0.2460
 4321SOL    HW213863   2.616   6.758   1.005 -0.0554  0.0380  0.6983
 4322SOL     OW13864   4.185   4.964   6.882 -0.1930  0.4937 -0.5862
 4322SOL    HW113865   4.187   5.058   6.850 -0.9812  1.2574  1.4462
 4322SOL    HW213866   4.132   4.958   6.967  1.2724 -1.4731  0.2793
 4323SOL     OW13867   0.813   6.043   2.316  0.4427  0.7100 -0.2843
 4323SOL    HW113868   0.744   6.005   2.377 -0.3485  0.7536 -1.1159
 4323SOL    HW213869   0.857   6.121   2.360 -2.2699  2.7210 -0.8388
 4324SOL     OW13870   6.030   4.505   0.814 -0.0885 -0.0595  0.3139
 4324SOL    HW113871   6.042   4.462   0.725 -0.0354 -0.2742  0.4231
 4324SOL    HW213872   6.068   4.597   0.813 -0.0523 -0.0769  0.1279
 4325SOL     OW13873   6.491   2.298   0.918 -0.0962  0.0196 -0.2470
 4325SOL    HW113874   6.486   2.305   1.017  0.0204  0.5119 -0.2725
 4325SOL    HW213875   6.434   2.222   0.887 -1.3697  0.8083  0.0790
 4326SOL     OW13876   5.306   5.420   4.904 -0.4234  0.2748 -0.3925
 4326SOL    HW113877   5.378   5.483   4.874  1.2503 -1.3833 -0.0416
 4326SOL    HW213878   5.291   5.432   5.002 -1.7932  1.6757 -0.7169
 4327SOL     OW13879   0.327   6.186   5.218  0.2380 -0.1804 -0.2418
 4327SOL    HW113880   0.410   6.138   5.246  0.6764  0.6503 -0.0851
 4327SOL    HW213881   0.252   6.121   5.210  1.2156 -1.2002 -1.7711
 4328SOL     OW13882   2.945   1.776   4.833 -0.0778  0.0106  0.4225
 4328SOL    HW113883   3.021   1.809   4.778 -1.1992  1.4972 -0.3122
 4328SOL    HW213884   2.967   1.685   4.870  1.2673 -0.4091 -1.3015
 4329SOL     OW13885   6.798   1.937   3.372  0.9077  0.1007  0.0758
 4329SOL    HW113886   6.879   1.994   3.389  0.1642  0.8903  1.1513
 4329SOL    HW213887   6.758   1.910   3.460  0.5731 -1.1364 -0.4342
 4330SOL     OW13888   5.047   4.964   4.039 -0.4761 -0.3665 -0.3257
 4330SOL    HW113889   4.948   4.976   4.055 -0.5511 -1.9478  0.6149
 4330SOL    HW213890   5.084   5.048   4.001 -1.8614  0.9039  0.9460
 4331SOL     OW13891   3.569   0.030   2.337  0.0294 -0.0905 -0.0396
 4331SOL    HW113892   3.510  -0.022   2.398  0.7839 -0.7379  0.1525
 4331SOL    HW213893   3.514   0.097   2.286 -1.1235 -1.7023 -0.9920
 4332SOL     OW13894   3.588   1.219   5.715  0.6067 -0.1364  0.5600
 4332SOL    HW113895   3.495   1.201   5.748  0.4287 -0.1688  0.0420
 4332SOL    HW213896   3.654   1.174   5.776  0.2083 -1.9728 -0.2754
 4333SOL     OW13897   6.990   0.781   0.243 -0.1940  0.0236 -0.4092
 4333SOL    HW113898   6.899   0.817   0.222 -0.3489  0.7998  1.3963
 4333SOL    HW213899   7.059   0.842   0.204 -0.4681  1.1061  0.7355
 4334SOL     OW13900   6.286   3.965   0.809  0.4410  0.4972  0.0183
 4334SOL    HW113901   6.291   3.896   0.881 -0.4399  0.0867 -0.2987
 4334SOL    HW213902   6.356   4.034   0.824  1.2903 -0.4203  0.3957
 4335SOL     OW13903   0.568   1.399   5.391 -0.9015  0.0913  0.4008
 4335SOL    HW113904   0.492   1.362   5.445 -2.1372  1.9745  0.0536
 4335SOL    HW213905   0.603   1.328   5.330 -2.3641 -0.8479  0.5877
 4336SOL     OW13906   2.727   0.451   3.784  0.2816  0.2199  0.1948
 4336SOL    HW113907   2.776   0.534   3.756 -0.0540  0.7461  1.1429
 4336SOL    HW213908   2.723   0.446   3.883  0.5100 -1.0760  0.1567
 4337SOL     OW13909   3.575   2.881   1.000 -0.1006  0.3870 -0.6372
 4337SOL    HW113910   3.557   2.793   0.957  0.7140  0.3469 -0.9053
 4337SOL    HW213911   3.670   2.907   0.984  0.1910  0.4392  1.0194
 4338SOL     OW13912   5.997   3.743   6.424  0.1198 -0.2070  0.3413
 4338SOL    HW113913   6.026   3.735   6.328  0.8306 -1.5227  0.6326
 4338SOL    HW213914   6.057   3.807   6.472  0.1643 -0.0349  0.0601
 4339SOL     OW13915   1.388   1.072   0.402 -0.5222 -0.0460 -0.1513
 4339SOL    HW113916   1.462   1.072   0.335 -0.9682  1.5864 -0.6641
 4339SOL    HW213917   1.306   1.112   0.363 -1.6258 -1.5319  0.5251
 4340SOL     OW13918   0.612   3.927   4.423  0.5281  0.0320 -0.5105
 4340SOL    HW113919   0.550   3.938   4.501 -1.1493 -0.5168 -1.6952
 4340SOL    HW213920   0.578   3.981   4.346  1.9145  0.2292 -1.0085
 4341SOL     OW13921   1.275   5.245   6.295 -0.0704 -0.0196 -0.7572
 4341SOL    HW113922   1.356   5.257   6.237 -0.4015 -1.7546 -1.6340
 4341SOL    HW213923   1.265   5.326   6.354  3.1643 -0.3380  0.4835
 4342SOL     OW13924   0.320   1.993   3.893 -0.0689  0.2130  0.5083
 4342SOL    HW113925   0.310   2.081   3.847 -1.0167 -0.5209 -0.7571
 4342SOL    HW213926   0.407   1.992   3.943  0.1296  1.7210  0.2562
 4343SOL     OW13927   5.635   3.907   0.164  0.1671  0.3868  0.1427
 4343SOL    HW113928   5.721   3.953   0.185 -0.7392  2.2197  0.0299
 4343SOL    HW213929   5.649   3.844   0.087  1.5751 -0.0074  0.6855
 4344SOL     OW13930   6.816   3.501   0.873 -0.1379  0.1635  0.4609
 4344SOL    HW113931   6.864   3.467   0.954  0.1393 -0.2527  0.1265
 4344SOL    HW213932   6.880   3.505   0.796 -0.2104  1.2648  0.4356
 4345SOL     OW13933   6.007   2.137   0.417 -0.4800  0.0107  0.8594
 4345SOL    HW113934   6.000   2.147   0.516  1.0687 -0.2881  1.0217
 4345SOL    HW213935   6.062   2.212   0.380  1.5508 -1.5017  0.6434
 4346SOL     OW13936   0.431   1.332   0.703 -0.1304  0.6879  1.0618
 4346SOL    HW113937   0.356   1.385   0.663 -0.7712 -0.1546  1.1487
 4346SOL    HW213938   0.473   1.275   0.632  1.5989  2.4140  0.5696
 4347SOL     OW13939   5.949   1.835   0.128  0.6299  0.8580  0.2303
 4347SOL    HW113940   5.879   1.799   0.066  1.4133  0.3943 -0.4080
 4347SOL    HW213941   5.905   1.885   0.203 -0.5526 -1.7351  1.4062
 4348SOL     OW13942   2.175   0.425   6.980 -0.4052  0.2234  0.0127
 4348SOL    HW113943   2.192   0.347   6.920  0.7166 -1.0544  1.8920
 4348SOL    HW213944   2.076   0.437   6.991 -0.6415  0.4790 -2.0044
 4349SOL     OW13945   5.419   2.550   5.249 -0.4145 -1.0622 -0.2839
 4349SOL    HW113946   5.360   2.480   5.291 -0.2656 -0.9037  0.2019
 4349SOL    HW213947   5.500   2.563   5.306  1.5359 -3.2661 -2.3274
 4350SOL     OW13948   0.723   4.757   1.283  0.1373 -0.0196  0.2716
 4350SOL    HW113949   0.672   4.825   1.231  1.0049  0.8920  0.5729
 4350SOL    HW213950   0.703   4.769   1.381  0.0586 -0.4001  0.3021
 4351SOL     OW13951   2.488   0.156   4.568  0.3937 -0.6066 -0.6346
 4351SOL    HW113952   2.572   0.129   4.522 -0.3740 -0.2814 -2.2941
 4351SOL    HW213953   2.419   0.084   4.557  0.1331 -0.4430 -0.1308
 4352SOL     OW13954   4.681   6.340   4.162  0.1174  0.3166  1.0120
 4352SOL    HW113955   4.650   6.293   4.245 -1.2736 -0.6494  0.0170
 4352SOL    HW213956   4.632   6.302   4.083  1.3471  1.2493 -0.2466
 4353SOL     OW13957   5.262   5.899   5.548  0.3902  0.0990  0.0612
 4353SOL    HW113958   5.175   5.933   5.582  0.8274 -1.3907  3.0254
 4353SOL    HW213959   5.252   5.870   5.453 -2.2489  0.2552  0.2229
 4354SOL     OW13960   2.208   3.352   6.009  0.5509 -0.5274 -0.0255
 4354SOL    HW113961   2.283   3.320   5.950  0.8032 -0.3524  0.1971
 4354SOL    HW213962   2.217   3.450   6.024 -0.1424 -0.3684 -0.5915
 4355SOL     OW13963   4.290   3.099   0.991  0.5391  0.1564 -0.1844
 4355SOL    HW113964   4.223   3.025   0.980 -0.7485  1.3743 -0.9772
 4355SOL    HW213965   4.381   3.066   0.966 -0.4026 -0.4838 -3.1439
 4356SOL     OW13966   2.191   6.170   3.226 -0.2190 -0.1478  0.7307
 4356SOL    HW113967   2.271   6.218   3.261 -0.1723  0.4508 -0.1701
 4356SOL    HW213968   2.194   6.074   3.255  1.7484 -0.5757 -0.7699
 4357SOL     OW13969   2.205   3.670   0.521  0.1317  0.1247 -0.0924
 4357SOL    HW113970   2.253   3.757   0.508  1.6445 -0.7557 -0.7538
 4357SOL    HW213971   2.111   3.687   0.550  1.1259  1.9231  2.3287
 4358SOL     OW13972   3.613   0.506   3.525 -0.5838  0.3293 -0.3537
 4358SOL    HW113973   3.588   0.487   3.430  2.4811  1.1059 -1.4650
 4358SOL    HW213974   3.642   0.422   3.569  0.6741  0.3576 -1.0744
 4359SOL     OW13975   6.258   0.978   1.008  0.3228  0.0484  0.0795
 4359SOL    HW113976   6.221   0.992   0.916  2.7547 -2.3332 -1.4395
 4359SOL    HW213977   6.334   1.041   1.024  0.5349 -0.1987  0.0497
 4360SOL     OW13978   3.508   3.243   2.897  0.6342 -0.6809  0.4007
 4360SOL    HW113979   3.409   3.237   2.905  0.6107  0.8742  1.9865
 4360SOL    HW213980   3.532   3.280   2.807 -0.3957  1.3903  0.9182
 4361SOL     OW13981   3.333   3.003   6.579  0.2008  0.0594 -0.0685
 4361SOL    HW113982   3.272   2.925   6.578 -0.2800  0.4320 -0.0638
 4361SOL    HW213983   3.423   2.976   6.544  0.1810 -0.6080  0.3833
 4362SOL     OW13984   5.521   4.259   3.840  0.4045  0.0406  0.1147
 4362SOL    HW113985   5.585   4.320   3.886  0.0212  1.6189 -1.3490
 4362SOL    HW213986   5.510   4.288   3.745 -1.1415 -1.2631 -0.1456
 4363SOL     OW13987   4.164   6.524   4.228 -0.0712 -0.1620  0.1081
 4363SOL    HW113988   4.216   6.522   4.143 -0.3248 -1.6328 -0.0426
 4363SOL    HW213989   4.159   6.431   4.265  0.2513  0.4847  1.8610
 4364SOL     OW13990   3.996   2.136   3.958 -0.8902 -0.7934  0.0473
 4364SOL    HW113991   3.900   2.137   3.929 -0.1889  0.5370 -2.6091
 4364SOL    HW213992   4.035   2.046   3.940 -1.3736 -1.0296  0.1538
 4365SOL     OW13993   5.973   0.318   0.096 -0.1616 -0.1581 -0.1670
 4365SOL    HW113994   5.989   0.415   0.113 -1.3357  0.4727 -2.3157
 4365SOL    HW213995   6.039   0.285   0.027 -1.0966 -0.3086 -1.0135
 4366SOL     OW13996   5.931   6.514   6.189 -0.1889  0.3123 -0.0741
 4366SOL    HW113997   5.901   6.514   6.284 -0.2225 -0.8876 -0.0719
 4366SOL    HW213998   5.867   6.459   6.134  0.6249 -0.2055 -0.5240
 4367SOL     OW13999   0.605   0.009   2.895  0.4542 -0.2517 -0.4796
 4367SOL    HW114000   0.546  -0.070   2.915  0.5473 -0.3787 -0.6967
 4367SOL    HW214001   0.695  -0.006   2.934  0.1650  0.2236  0.3980
 4368SOL     OW14002   6.218   4.535   4.363  0.0241 -0.2199 -0.0872
 4368SOL    HW114003   6.171   4.614   4.324  0.2775 -0.8006 -1.6559
 4368SOL    HW214004   6.233   4.466   4.291 -0.5620 -1.8916  1.3159
 4369SOL     OW14005   2.781   3.607   5.743 -0.3410 -0.0501 -0.4243
 4369SOL    HW114006   2.766   3.683   5.680  1.5670 -0.6289 -1.6925
 4369SOL    HW214007   2.766   3.637   5.837  0.4724  1.9280 -0.8822
 4370SOL     OW14008   1.294   6.207   1.189  0.0453  0.0429  0.4904
 4370SOL    HW114009   1.337   6.240   1.105 -0.8755  0.1252  0.0389
 4370SOL    HW214010   1.198   6.236   1.191 -0.4632 -1.5673  0.6644
 4371SOL     OW14011   1.856   6.742   2.251  0.2982 -0.0587  0.7402
 4371SOL    HW114012   1.930   6.742   2.184  0.2078  0.1059  0.6384
 4371SOL    HW214013   1.889   6.782   2.337  0.0536  0.9583  0.3783
 4372SOL     OW14014   4.967   0.442   1.613  0.0254 -0.9653  0.0581
 4372SOL    HW114015   5.016   0.399   1.689  1.7336  1.1539  0.2349
 4372SOL    HW214016   5.033   0.485   1.551 -1.5345  2.2351  0.4218
 4373SOL     OW14017   3.203   1.227   4.634 -0.7718 -0.0667 -0.1547
 4373SOL    HW114018   3.178   1.132   4.653  0.2055  0.0082  1.8303
 4373SOL    HW214019   3.267   1.230   4.557 -2.7679 -0.7132 -1.9392
 4374SOL     OW14020   6.714   6.482   1.360 -0.0822  0.2652 -0.4722
 4374SOL    HW114021   6.656   6.527   1.428 -0.3507 -1.2911  0.3751
 4374SOL    HW214022   6.809   6.510   1.374 -0.1739  0.2018  0.3675
 4375SOL     OW14023   5.423   4.112   1.399 -0.7257 -0.4082 -0.0563
 4375SOL    HW114024   5.446   4.103   1.496  1.2452  0.0770 -0.4266
 4375SOL    HW214025   5.432   4.208   1.372 -2.2472 -0.3746 -0.5136
 4376SOL     OW14026   3.096   6.656   0.486 -0.3571 -0.2043 -0.0755
 4376SOL    HW114027   3.161   6.616   0.551 -0.2055  0.0184 -0.0875
 4376SOL    HW214028   3.146   6.686   0.404 -0.5686 -0.6183 -0.3554
 4377SOL     OW14029   3.530   2.639   0.857 -0.1361 -0.2073 -0.0677
 4377SOL    HW114030   3.504   2.546   0.882  0.0006  0.1271  1.4192
 4377SOL    HW214031   3.460   2.679   0.798 -0.7334 -0.8722  0.1795
 4378SOL     OW14032   2.662   6.325   6.862 -0.3496  0.2478 -0.4584
 4378SOL    HW114033   2.728   6.396   6.840 -0.3166  0.0216 -1.1279
 4378SOL    HW214034   2.586   6.364   6.914 -1.5175  1.3145 -2.7832
 4379SOL     OW14035   1.915   4.053   2.936 -0.1273  0.0523  0.4025
 4379SOL    HW114036   2.004   4.012   2.913 -0.5860 -0.3123 -0.7386
 4379SOL    HW214037   1.922   4.153   2.932  0.4317  0.0541  1.1178
 4380SOL     OW14038   2.032   4.201   3.536 -0.0230  0.0482  0.5636
 4380SOL    HW114039   2.128   4.226   3.550 -0.5334  1.7154  1.2655
 4380SOL    HW214040   2.007   4.219   3.441  0.8109 -2.1165 -0.1269
 4381SOL     OW14041   6.415   5.780   1.324  0.6826 -0.7441 -0.2584
 4381SOL    HW114042   6.330   5.769   1.273  0.6557  0.9900 -0.6469
 4381SOL    HW214043   6.403   5.748   1.418 -1.1384  1.6190  0.3785
 4382SOL     OW14044   4.631   1.704   1.230 -0.1794  0.0654 -0.5475
 4382SOL    HW114045   4.622   1.778   1.296  1.7526 -0.8290  0.7991
 4382SOL    HW214046   4.619   1.740   1.137 -1.7987  1.5448  0.1821
 4383SOL     OW14047   5.876   6.446   0.221  0.4278  0.1203 -0.1092
 4383SOL    HW114048   5.868   6.386   0.142  3.6088 -3.0539  1.7227
 4383SOL    HW214049   5.960   6.499   0.215  0.8639 -0.3781  1.2222
 4384SOL     OW14050   1.734   6.744   3.667 -0.6437 -0.1021  0.0473
 4384SOL    HW114051   1.736   6.757   3.766  2.2796  1.6647 -0.0951
 4384SOL    HW214052   1.685   6.820   3.624 -0.6170 -0.0668  0.0793
 4385SOL     OW14053   6.452   6.391   2.067 -0.1921 -0.2026 -0.0017
 4385SOL    HW114054   6.377   6.434   2.017 -1.7260 -1.6066  1.0127
 4385SOL    HW214055   6.447   6.292   2.056  1.5067 -0.3400  0.1393
 4386SOL     OW14056   2.310   5.638   5.567 -0.7290  0.3112  0.2655
 4386SOL    HW114057   2.247   5.706   5.530  0.4535  0.3796 -1.8194
 4386SOL    HW214058   2.262   5.552   5.583 -1.3144  0.2508 -1.6343
 4387SOL     OW14059   6.386   5.830   2.510  0.0705 -0.0713  0.1900
 4387SOL    HW114060   6.482   5.851   2.491  0.3508 -1.2052  0.2827
 4387SOL    HW214061   6.356   5.880   2.591  0.8396 -0.3532  0.6559
 4388SOL     OW14062   4.273   2.858   5.765 -0.1615 -0.0767  0.2299
 4388SOL    HW114063   4.178   2.840   5.741  0.5667 -1.4303 -1.9260
 4388SOL    HW214064   4.306   2.787   5.828 -0.4452  0.1162  0.5950
 4389SOL     OW14065   2.001   5.023   4.262 -0.0194 -0.0639  0.1098
 4389SOL    HW114066   2.055   5.096   4.220 -0.5419 -0.2004 -0.8198
 4389SOL    HW214067   1.921   5.062   4.308 -1.4008 -0.1579 -2.0864
 4390SOL     OW14068   2.480   0.213   2.211 -0.4243  0.5907  0.5068
 4390SOL    HW114069   2.552   0.176   2.152 -2.0463 -1.9073 -0.0701
 4390SOL    HW214070   2.522   0.257   2.290  1.7429 -0.4609  0.0319
 4391SOL     OW14071   0.446   1.223   1.732 -0.2121  0.9227 -0.1316
 4391SOL    HW114072   0.426   1.318   1.706 -0.0021  0.8530 -0.5406
 4391SOL    HW214073   0.448   1.217   1.832  0.3633  1.4764 -0.1005
 4392SOL     OW14074   6.897   6.305   5.348  0.3343  0.1978  0.2240
 4392SOL    HW114075   6.917   6.207   5.347  2.2036  0.4974 -2.5458
 4392SOL    HW214076   6.813   6.323   5.296  0.6493  0.1388 -0.3155
 4393SOL     OW14077   3.129   2.187   1.843 -0.0288 -0.1008 -0.2710
 4393SOL    HW114078   3.070   2.255   1.887  1.7138  2.0089 -1.0231
 4393SOL    HW214079   3.195   2.152   1.909 -0.1124 -0.0941 -0.1843
 4394SOL     OW14080   5.377   4.238   5.598  0.0765 -0.6995 -0.1481
 4394SOL    HW114081   5.387   4.201   5.506 -1.6116 -0.5447 -0.4122
 4394SOL    HW214082   5.318   4.319   5.596 -0.1587 -0.8166  1.0970
 4395SOL     OW14083   3.188   0.825   6.071  0.3617  0.2207 -0.1178
 4395SOL    HW114084   3.216   0.748   6.013  2.0610  0.1910  0.6879
 4395SOL    HW214085   3.268   0.866   6.113 -0.6627  1.5023  0.6639
 4396SOL     OW14086   4.299   3.516   0.370  0.4034  0.0564  0.4651
 4396SOL    HW114087   4.326   3.612   0.375  0.8648  0.0751 -1.5901
 4396SOL    HW214088   4.348   3.464   0.440  1.4758  1.0270  0.4640
 4397SOL     OW14089   5.402   2.387   5.982 -0.4165  0.4465 -0.0791
 4397SOL    HW114090   5.468   2.355   5.915 -0.5699  0.2739 -0.1494
 4397SOL    HW214091   5.316   2.409   5.937 -0.2398  1.1856 -0.0611
 4398SOL     OW14092   5.030   5.604   5.577  0.2149 -0.4311 -0.0886
 4398SOL    HW114093   5.124   5.586   5.548 -0.1751 -1.5189 -0.7383
 4398SOL    HW214094   5.013   5.563   5.666  0.9806  1.6603  1.0863
 4399SOL     OW14095   1.178   6.129   3.408 -0.4254 -0.0599 -0.4388
 4399SOL    HW114096   1.132   6.048   3.374 -1.1285  0.5866 -1.0775
 4399SOL    HW214097   1.201   6.117   3.505 -0.7895 -0.8910 -0.4515
 4400SOL     OW14098   4.918   0.737   0.289 -0.3026  0.1839  0.3690
 4400SOL    HW114099   4.953   0.677   0.217 -0.2361  0.5886  0.0611
 4400SOL    HW214100   4.943   0.700   0.379  0.5541  0.2490  0.1647
 4401SOL     OW14101   2.677   4.697   2.935  0.5759 -0.6052  0.4136
 4401SOL    HW114102   2.717   4.689   2.844  0.3401 -1.2125  0.3589
 4401SOL    HW214103   2.735   4.754   2.993  0.4098  0.3270 -0.3004
 4402SOL     OW14104   4.251   6.803   5.901  0.4557 -0.1505 -0.4208
 4402SOL    HW114105   4.185   6.813   5.827  2.5275 -1.0245 -2.5103
 4402SOL    HW214106   4.293   6.892   5.920 -1.0674  0.3627  0.7635
 4403SOL     OW14107   3.468   6.281   6.025  0.2509  0.5929  0.3912
 4403SOL    HW114108   3.518   6.247   6.105 -2.2474 -0.3806  1.6532
 4403SOL    HW214109   3.445   6.204   5.966 -0.0576  0.9746  0.0136
 4404SOL     OW14110   0.153   4.655   2.672  0.0684  0.3956 -0.3879
 4404SOL    HW114111   0.106   4.697   2.748  0.7655  1.3095 -0.4464
 4404SOL    HW214112   0.243   4.622   2.702 -0.4270 -0.9964 -0.3608
 4405SOL     OW14113   4.276   7.010   6.799  0.0553 -0.3827 -0.0227
 4405SOL    HW114114   4.181   7.034   6.817  0.4802  2.3462 -0.9315
 4405SOL    HW214115   4.323   6.990   6.885 -1.4154 -2.3560  0.3845
 4406SOL     OW14116   6.203   6.898   3.530  0.4114  0.7106 -0.0231
 4406SOL    HW114117   6.161   6.988   3.526  0.5404  0.9837  2.9058
 4406SOL    HW214118   6.292   6.904   3.574  1.2888 -0.6069 -1.5153
 4407SOL     OW14119   5.233   5.650   6.986  0.1888  0.3099 -0.2877
 4407SOL    HW114120   5.199   5.583   6.920 -0.3177  1.0017 -0.7546
 4407SOL    HW214121   5.274   5.727   6.937  0.6053  0.4252  0.2345
 4408SOL     OW14122   5.977   6.242   3.899 -0.0796  0.2329  0.7222
 4408SOL    HW114123   5.886   6.278   3.918  0.3493  0.4965  2.4824
 4408SOL    HW214124   6.043   6.317   3.899  0.4839 -0.2334  2.0714
 4409SOL     OW14125   4.877   4.777   3.350 -0.6623  0.4833 -0.2863
 4409SOL    HW114126   4.945   4.789   3.277 -1.2611  0.8233 -0.8042
 4409SOL    HW214127   4.886   4.686   3.389  2.5675  1.7154  2.2532
 4410SOL     OW14128   2.729   0.609   2.189  0.2837 -0.6604  0.4395
 4410SOL    HW114129   2.642   0.623   2.142  0.9547  2.1408 -0.1280
 4410SOL    HW214130   2.713   0.593   2.286 -0.8671 -1.1027  0.1962
 4411SOL     OW14131   3.600   2.890   3.453 -0.3495 -0.3388  0.3414
 4411SOL    HW114132   3.514   2.889   3.505 -1.6604  1.2158 -1.6357
 4411SOL    HW214133   3.676   2.909   3.516 -1.4504 -1.4016  2.0892
 4412SOL     OW14134   5.311   6.622   2.256 -0.0879 -0.6692 -0.1206
 4412SOL    HW114135   5.238   6.653   2.318 -0.6100 -0.8289 -0.6440
 4412SOL    HW214136   5.360   6.702   2.220 -0.4023 -0.5216 -0.2313
 4413SOL     OW14137   4.279   5.685   1.353 -0.3378 -0.5810  0.1310
 4413SOL    HW114138   4.368   5.659   1.315 -0.4224  0.5010 -0.8707
 4413SOL    HW214139   4.218   5.711   1.279 -1.8454 -2.2526  0.7154
 4414SOL     OW14140   2.040   5.342   0.853  0.3961 -0.1228 -0.4511
 4414SOL    HW114141   1.941   5.338   0.864  0.4344 -0.6695 -0.2466
 4414SOL    HW214142   2.083   5.347   0.943  0.5277  1.0837 -0.5630
 4415SOL     OW14143   4.878   6.493   2.341 -0.0308 -0.3347 -0.2545
 4415SOL    HW114144   4.933   6.422   2.385  0.2134  0.2223  0.3625
 4415SOL    HW214145   4.894   6.492   2.242 -1.6491 -2.5329 -0.5506
 4416SOL     OW14146   3.713   4.093   4.400 -0.1238  0.5300 -0.5606
 4416SOL    HW114147   3.802   4.049   4.391 -0.0013  0.4969  0.6831
 4416SOL    HW214148   3.674   4.109   4.309  0.0799 -1.6554 -1.0844
 4417SOL     OW14149   1.897   6.272   2.293  0.4175  0.1250 -0.5030
 4417SOL    HW114150   1.857   6.332   2.225 -0.5968  0.3932  0.3079
 4417SOL    HW214151   1.827   6.210   2.329  0.2225  1.7688  2.2045
 4418SOL     OW14152   3.166   3.635   4.866  0.0327 -0.7657 -0.4460
 4418SOL    HW114153   3.147   3.541   4.894  0.8461 -0.6587  0.5312
 4418SOL    HW214154   3.214   3.636   4.779 -1.4204 -1.1659 -1.2985
 4419SOL     OW14155   6.288   4.643   1.807  0.4144  0.3870  0.0367
 4419SOL    HW114156   6.241   4.621   1.892  0.1198  0.9115  0.0163
 4419SOL    HW214157   6.240   4.602   1.730 -0.4919  1.5773 -0.0628
 4420SOL     OW14158   0.792   6.897   6.862  0.5041  0.0911  0.3111
 4420SOL    HW114159   0.846   6.869   6.942  0.6064 -1.5505 -0.2960
 4420SOL    HW214160   0.845   6.960   6.806  1.4417 -0.7383  0.2309
 4421SOL     OW14161   4.950   6.550   2.912 -0.0645 -0.2197  0.0208
 4421SOL    HW114162   5.010   6.533   2.990 -0.2248 -1.1967 -0.0585
 4421SOL    HW214163   4.860   6.580   2.945 -0.0325 -0.3209  0.1997
 4422SOL     OW14164   2.751   2.252   2.689  0.3591 -0.0140  0.5702
 4422SOL    HW114165   2.717   2.346   2.686  2.2252  0.7254  1.2253
 4422SOL    HW214166   2.768   2.220   2.596  2.4049  1.3732  0.4098
 4423SOL     OW14167   4.996   0.994   2.252 -0.0063  0.1871 -0.0538
 4423SOL    HW114168   4.910   1.027   2.290 -0.0437  1.0034 -0.8263
 4423SOL    HW214169   4.995   0.894   2.248 -0.8798  0.1888  0.0113
 4424SOL     OW14170   2.151   4.454   2.910 -0.0828  0.5161  0.0752
 4424SOL    HW114171   2.085   4.529   2.914 -0.8706 -0.1905  0.8230
 4424SOL    HW214172   2.120   4.386   2.844 -1.4194 -0.9708  2.1145
 4425SOL     OW14173   1.790   2.634   1.438 -0.2041  0.1008  0.3361
 4425SOL    HW114174   1.830   2.672   1.521 -0.5960  0.8101  0.2145
 4425SOL    HW214175   1.690   2.633   1.446 -0.2168 -0.6482  0.2167
 4426SOL     OW14176   6.276   6.650   0.590 -0.2298  0.3154  0.1714
 4426SOL    HW114177   6.224   6.677   0.671  1.4503  1.5768  0.8887
 4426SOL    HW214178   6.335   6.726   0.561 -0.4312 -0.2781 -1.9643
 4427SOL     OW14179   1.351   3.791   4.769 -0.3583 -0.2131 -0.3270
 4427SOL    HW114180   1.380   3.805   4.864  1.0933  0.1321 -0.7951
 4427SOL    HW214181   1.252   3.804   4.762 -0.7252 -1.5865  1.3863
 4428SOL     OW14182   0.699   2.019   1.868  0.1458 -0.2558  0.0708
 4428SOL    HW114183   0.714   1.920   1.873 -1.0816 -0.4301  0.7484
 4428SOL    HW214184   0.765   2.065   1.928  0.9359 -0.6292 -0.4930
 4429SOL     OW14185   0.736   3.701   3.688  0.3793  0.2876  0.0503
 4429SOL    HW114186   0.826   3.730   3.720  0.2578  0.2962  0.3857
 4429SOL    HW214187   0.740   3.682   3.590  1.5453 -2.7071  0.5676
 4430SOL     OW14188   2.239   5.939   3.378 -0.2657 -0.1256  0.6488
 4430SOL    HW114189   2.317   5.888   3.414  1.3282  1.3736 -0.5001
 4430SOL    HW214190   2.156   5.884   3.387  1.2350 -2.6675  0.0346
 4431SOL     OW14191   1.277   3.102   5.266  0.6192  0.3524  0.7475
 4431SOL    HW114192   1.242   3.073   5.354 -1.5509  0.8281  0.1122
 4431SOL    HW214193   1.328   3.028   5.223  0.3696 -0.4026  1.7369
 4432SOL     OW14194   2.402   2.537   5.063  0.0725  0.4144  0.2630
 4432SOL    HW114195   2.419   2.622   5.114  0.2529 -0.1844  1.2322
 4432SOL    HW214196   2.328   2.552   4.997 -0.2695  1.1717  0.8000
 4433SOL     OW14197   6.876   3.467   2.396 -0.1351  0.1876 -0.2357
 4433SOL    HW114198   6.899   3.484   2.492  1.8878 -2.6989 -0.0656
 4433SOL    HW214199   6.834   3.376   2.387 -2.2619  1.2464 -1.8959
 4434SOL     OW14200   5.090   0.658   4.531 -0.5756 -0.4075 -0.3153
 4434SOL    HW114201   5.035   0.623   4.607 -1.1067 -0.4687 -0.7250
 4434SOL    HW214202   5.094   0.758   4.537  0.7149 -0.4983  0.6965
 4435SOL     OW14203   0.120   1.097   5.192 -0.6678  0.4295 -0.7473
 4435SOL    HW114204   0.032   1.106   5.239 -2.1001 -1.1683 -2.9219
 4435SOL    HW214205   0.104   1.067   5.098  2.1667  1.4410 -1.6507
 4436SOL     OW14206   6.055   2.451   6.599 -0.3932  0.1988  0.7360
 4436SOL    HW114207   6.013   2.362   6.618 -1.2194  0.6660  1.1580
 4436SOL    HW214208   6.125   2.441   6.529 -0.2344 -0.8431  1.0312
 4437SOL     OW14209   6.768   2.683   5.091  0.1373 -0.3022  0.3988
 4437SOL    HW114210   6.792   2.645   5.180 -0.2776 -0.1733  0.5657
 4437SOL    HW214211   6.771   2.610   5.022 -3.4179 -1.3909  1.1687
 4438SOL     OW14212   2.816   4.989   3.632 -0.8829  0.5762 -0.1594
 4438SOL    HW114213   2.780   5.082   3.641 -0.7999  0.7832 -1.6355
 4438SOL    HW214214   2.856   4.978   3.541 -1.9076 -1.2348 -0.4357
 4439SOL     OW14215   6.613   4.095   4.242  0.4643 -0.0602  0.7744
 4439SOL    HW114216   6.676   4.087   4.165 -0.2413  1.4201 -0.0103
 4439SOL    HW214217   6.546   4.167   4.223  0.3666  0.4795  2.8454
 4440SOL     OW14218   4.790   5.985   0.450  0.0659 -0.3104  0.3967
 4440SOL    HW114219   4.767   6.018   0.542  0.1083 -0.1452  0.3493
 4440SOL    HW214220   4.760   6.052   0.383  0.3151 -0.2845  0.3090
 4441SOL     OW14221   3.358   0.267   1.508  0.7402 -0.0819  0.2189
 4441SOL    HW114222   3.280   0.322   1.481  0.5684 -0.7810 -0.7709
 4441SOL    HW214223   3.406   0.312   1.583 -0.2965  0.6183  0.4889
 4442SOL     OW14224   2.281   1.489   1.815  0.0340 -0.8460  0.0684
 4442SOL    HW114225   2.312   1.415   1.756 -2.1271 -1.9556  0.2600
 4442SOL    HW214226   2.181   1.491   1.818  0.0586  0.4393  2.1173
 4443SOL     OW14227   2.895   4.918   0.481 -0.1566 -1.0267 -0.0215
 4443SOL    HW114228   2.840   4.909   0.398 -0.5025  0.8225 -0.0381
 4443SOL    HW214229   2.876   4.841   0.541 -1.5308 -1.2961 -0.7436
 4444SOL     OW14230   2.259   6.948   6.917 -0.1005  0.4104 -0.4662
 4444SOL    HW114231   2.282   6.917   6.825  2.7289 -0.1003  0.3208
 4444SOL    HW214232   2.250   6.870   6.978  3.0153  0.7746  0.6547
 4445SOL     OW14233   4.738   0.422   1.451 -0.1089  0.0494 -0.7349
 4445SOL    HW114234   4.744   0.439   1.353 -0.1931  0.1066 -0.7298
 4445SOL    HW214235   4.827   0.440   1.493 -0.4035  1.2457 -0.6091
 4446SOL     OW14236   6.603   0.590   2.499 -0.0072  0.2048 -0.1291
 4446SOL    HW114237   6.618   0.628   2.591  1.4493  0.7338 -0.5672
 4446SOL    HW214238   6.508   0.607   2.472  0.5399  3.6464 -0.3104
 4447SOL     OW14239   0.367   3.245   1.376 -0.2041  0.0436 -0.5747
 4447SOL    HW114240   0.283   3.191   1.383  0.5344 -1.1294 -0.4376
 4447SOL    HW214241   0.446   3.184   1.375  0.7390  1.1771  0.7522
 4448SOL     OW14242   2.650   0.978   3.718 -0.5436 -0.3374 -0.3275
 4448SOL    HW114243   2.650   1.058   3.658 -0.7814  0.3721  0.6048
 4448SOL    HW214244   2.563   0.973   3.766 -0.2629 -0.7669  0.1392
 4449SOL     OW14245   2.115   5.680   0.425 -0.3185  0.0956  0.2134
 4449SOL    HW114246   2.124   5.732   0.510  0.0234 -2.0894  1.6146
 4449SOL    HW214247   2.181   5.714   0.358 -0.5440  1.8313  0.8159
 4450SOL     OW14248   6.165   2.881   0.644  0.1589 -0.5012  0.0753
 4450SOL    HW114249   6.227   2.922   0.711 -0.3237 -1.2595  1.0036
 4450SOL    HW214250   6.200   2.897   0.552  0.8097  0.5992  0.4986
 4451SOL     OW14251   0.318   6.266   3.462 -0.3250 -0.3937  0.6569
 4451SOL    HW114252   0.372   6.218   3.393  0.1160  1.4006 -0.2849
 4451SOL    HW214253   0.221   6.241   3.452 -0.0396 -1.5461  0.6127
 4452SOL     OW14254   2.100   3.709   2.578  0.2159  0.0805 -0.0115
 4452SOL    HW114255   2.136   3.721   2.670  1.6269 -0.3336 -0.4958
 4452SOL    HW214256   2.137   3.780   2.518  0.3656 -0.4635 -0.5624
 4453SOL     OW14257   2.348   1.491   4.275 -0.2969  0.2479 -0.1522
 4453SOL    HW114258   2.277   1.561   4.268  0.9353  1.6274  0.5201
 4453SOL    HW214259   2.429   1.521   4.225 -0.0859 -1.2050 -0.7352
 4454SOL     OW14260   5.779   1.930   4.330  0.3581  0.2478  0.1894
 4454SOL    HW114261   5.738   2.016   4.300 -0.9572 -0.0232  1.0886
 4454SOL    HW214262   5.735   1.901   4.415  1.6713 -0.6688  0.5715
 4455SOL     OW14263   6.095   5.642   1.463 -0.1220  0.0413 -0.5616
 4455SOL    HW114264   6.049   5.693   1.391 -1.2352 -1.4387 -0.9448
 4455SOL    HW214265   6.081   5.687   1.551  1.4294  1.9893 -1.2350
 4456SOL     OW14266   2.030   6.503   1.877  0.1244  0.0799 -0.3540
 4456SOL    HW114267   1.968   6.475   1.804  2.2821 -0.1533 -2.1964
 4456SOL    HW214268   2.111   6.446   1.876  0.5531  0.5556  1.8056
 4457SOL     OW14269   0.995   6.071   5.859 -0.1063 -0.1768 -0.2883
 4457SOL    HW114270   1.026   5.976   5.872  1.5471  0.3485 -0.1880
 4457SOL    HW214271   0.909   6.085   5.907 -0.7849 -1.8320 -0.9414
 4458SOL     OW14272   2.739   2.829   0.268 -0.0468 -0.1973 -0.0885
 4458SOL    HW114273   2.731   2.906   0.205 -0.0341  0.3085  0.5223
 4458SOL    HW214274   2.806   2.764   0.232  3.0130  1.9692  1.2689
 4459SOL     OW14275   2.800   6.914   6.652 -0.3865  0.1414 -0.0783
 4459SOL    HW114276   2.738   6.991   6.656 -1.0414 -0.3744 -0.1949
 4459SOL    HW214277   2.761   6.842   6.595  0.3908 -0.1248 -0.2928
 4460SOL     OW14278   5.732   3.123   4.390 -0.4650  0.2450  0.7875
 4460SOL    HW114279   5.707   3.106   4.485 -0.9922 -2.4806  0.2610
 4460SOL    HW214280   5.809   3.064   4.365 -0.6575  0.5354 -0.5900
 4461SOL     OW14281   1.369   1.988   2.698 -0.3326 -0.0850  0.0402
 4461SOL    HW114282   1.333   2.074   2.736  0.5960  0.2957  0.0770
 4461SOL    HW214283   1.396   2.003   2.603  0.4829 -0.1477  0.2584
 4462SOL     OW14284   4.988   6.426   3.503  0.0409 -0.1671 -0.2287
 4462SOL    HW114285   5.085   6.402   3.493  0.1103  0.0899 -0.1763
 4462SOL    HW214286   4.973   6.517   3.467  0.2796  0.7610  1.8869
 4463SOL     OW14287   3.492   5.423   3.551  0.1244  0.3709  0.3548
 4463SOL    HW114288   3.460   5.487   3.481 -1.4978  0.2422  0.9404
 4463SOL    HW214289   3.419   5.408   3.619  0.5969 -1.8122  0.4492
 4464SOL     OW14290   3.904   3.104   3.865 -0.0588  0.1378 -0.2300
 4464SOL    HW114291   3.896   3.203   3.860  0.4478  0.1638 -0.6260
 4464SOL    HW214292   3.936   3.077   3.956  0.1763  0.3617 -0.2469
 4465SOL     OW14293   2.076   4.052   1.671  0.2943  0.0612 -0.3196
 4465SOL    HW114294   2.130   3.986   1.619 -0.0098 -1.3480  1.0604
 4465SOL    HW214295   1.979   4.038   1.653  0.2569  0.8150 -0.7650
 4466SOL     OW14296   1.362   3.675   6.759 -0.4870  0.5005  0.1953
 4466SOL    HW114297   1.334   3.749   6.819 -2.1346  0.1222 -0.0438
 4466SOL    HW214298   1.303   3.673   6.678  0.3966 -0.2413 -0.4620
 4467SOL     OW14299   6.127   0.888   3.631 -0.6255  0.0143  0.0226
 4467SOL    HW114300   6.138   0.886   3.731  0.6362  1.6273 -0.0491
 4467SOL    HW214301   6.068   0.964   3.606  2.0919  2.0721 -0.6107
 4468SOL     OW14302   5.544   2.340   3.521  0.3498  0.2166 -0.0966
 4468SOL    HW114303   5.547   2.376   3.427  4.9237 -0.6364 -0.5315
 4468SOL    HW214304   5.595   2.402   3.581  3.3090 -2.3428  0.3030
 4469SOL     OW14305   5.582   2.168   1.779 -0.1509  0.3067  0.5960
 4469SOL    HW114306   5.540   2.245   1.828  0.6684  1.0342  0.1956
 4469SOL    HW214307   5.617   2.102   1.845  0.3687  0.9601  0.9931
 4470SOL     OW14308   3.823   2.358   0.466  0.0326  0.1483 -0.5871
 4470SOL    HW114309   3.757   2.400   0.529  1.3788 -0.3838  1.2677
 4470SOL    HW214310   3.804   2.260   0.458  0.5328  0.0118 -0.1209
 4471SOL     OW14311   5.132   6.936   0.853  0.0145 -0.3528 -0.0496
 4471SOL    HW114312   5.060   6.985   0.803  0.3828  1.7703  1.3695
 4471SOL    HW214313   5.221   6.974   0.828  0.2866 -0.0189  1.3693
 4472SOL     OW14314   2.612   2.362   1.890 -0.2352 -0.2258 -0.0618
 4472SOL    HW114315   2.710   2.361   1.912 -0.2685  0.2031  0.1158
 4472SOL    HW214316   2.578   2.268   1.889  0.2000 -0.3878 -0.2283
 4473SOL     OW14317   5.398   2.885   1.730  0.3039 -0.1498  0.0303
 4473SOL    HW114318   5.446   2.832   1.801 -0.1702 -1.1186 -0.3476
 4473SOL    HW214319   5.338   2.824   1.678  0.0811  0.6896 -0.7265
 4474SOL     OW14320   2.859   5.029   5.489 -0.0529  0.0886 -0.0161
 4474SOL    HW114321   2.889   4.955   5.549 -0.6545 -0.0654  0.1020
 4474SOL    HW214322   2.771   5.064   5.520  0.7971  1.7403  0.7075
 4475SOL     OW14323   6.100   5.699   2.762  0.1825  0.3091  0.6249
 4475SOL    HW114324   6.173   5.762   2.789  1.1888 -0.5482 -0.0537
 4475SOL    HW214325   6.122   5.607   2.793 -1.4813  0.3118  1.9783
 4476SOL     OW14326   0.638   0.030   5.699 -0.7638  0.2312 -0.2786
 4476SOL    HW114327   0.574  -0.002   5.629 -0.2438  1.1296 -1.1959
 4476SOL    HW214328   0.698  -0.045   5.726 -1.4538 -0.3204 -0.2328
 4477SOL     OW14329   2.842   1.692   0.231  0.2913 -0.3881  0.1157
 4477SOL    HW114330   2.937   1.679   0.263 -0.1901 -1.7532  1.0842
 4477SOL    HW214331   2.786   1.722   0.308 -0.1827 -0.1152 -0.3346
 4478SOL     OW14332   3.275   4.071   4.224  0.0608  0.7736 -0.1064
 4478SOL    HW114333   3.239   4.115   4.306 -0.1562 -3.3529  2.3178
 4478SOL    HW214334   3.369   4.042   4.240 -0.5157 -1.5829 -0.5377
 4479SOL     OW14335   5.870   5.945   4.749  0.1193  0.3873  0.0780
 4479SOL    HW114336   5.827   5.895   4.824 -1.6460  1.0465 -0.4193
 4479SOL    HW214337   5.915   5.881   4.687 -0.2727 -0.3676  0.5548
 4480SOL     OW14338   6.393   3.698   2.640 -0.2524  0.3567 -0.8051
 4480SOL    HW114339   6.405   3.748   2.554  0.9872 -0.8671 -1.3956
 4480SOL    HW214340   6.401   3.600   2.622 -2.6361 -0.1069  0.3051
 4481SOL     OW14341   0.895   5.486   3.885  0.2833 -0.2257 -0.4190
 4481SOL    HW114342   0.852   5.542   3.957  0.8407  0.2399 -0.4369
 4481SOL    HW214343   0.845   5.400   3.876  0.3186 -0.3844  0.6740
 4482SOL     OW14344   2.269   3.083   5.700 -0.0776  0.1175  0.3800
 4482SOL    HW114345   2.313   3.016   5.641 -1.1110  0.2587 -0.5728
 4482SOL    HW214346   2.224   3.153   5.645 -0.7306  0.4842  1.3419
 4483SOL     OW14347   6.739   4.989   6.888  0.2185  0.5700  0.1166
 4483SOL    HW114348   6.810   4.924   6.914 -0.3296  0.3387  1.0701
 4483SOL    HW214349   6.754   5.076   6.935  1.4611  1.4831 -1.8239
 4484SOL     OW14350   1.052   3.234   1.055 -0.4428  0.3826  0.0376
 4484SOL    HW114351   0.971   3.186   1.090 -0.5094 -0.1913 -0.8819
 4484SOL    HW214352   1.061   3.217   0.957  2.1714 -1.5614  0.5131
 4485SOL     OW14353   6.241   1.177   5.448 -0.0410 -0.1625  0.0727
 4485SOL    HW114354   6.262   1.246   5.517 -0.2298  0.8088 -0.8205
 4485SOL    HW214355   6.150   1.139   5.465 -0.1142  0.1177  0.3200
 4486SOL     OW14356   5.497   2.876   6.932 -0.1622  0.0947  0.2204
 4486SOL    HW114357   5.507   2.778   6.913  2.2203  0.6585 -2.0088
 4486SOL    HW214358   5.573   2.906   6.990  0.0369  0.9063 -0.4458
 4487SOL     OW14359   5.046   4.388   3.149 -0.2938  0.0629  0.0694
 4487SOL    HW114360   5.130   4.334   3.143 -0.1675  0.3430 -0.8085
 4487SOL    HW214361   4.984   4.362   3.074  0.1371  1.7339 -0.9250
 4488SOL     OW14362   1.851   5.292   3.167  0.0219 -0.5402 -0.3708
 4488SOL    HW114363   1.871   5.219   3.232 -1.1541 -1.5547 -1.0982
 4488SOL    HW214364   1.752   5.306   3.161  0.2283  1.5498  0.1779
 4489SOL     OW14365   2.856   5.397   0.974 -0.5198  0.2216  0.4305
 4489SOL    HW114366   2.859   5.410   1.073  0.4209 -0.7870  0.5598
 4489SOL    HW214367   2.803   5.315   0.952  2.1461 -1.6198  0.3896
 4490SOL     OW14368   0.115   2.551   3.074  0.1874  0.0973 -0.1750
 4490SOL    HW114369   0.071   2.553   3.164  1.1313  0.4192  0.2934
 4490SOL    HW214370   0.191   2.616   3.072  0.7989 -0.6154 -0.8778
 4491SOL     OW14371   0.592   6.604   5.964  0.2966  0.0502  0.1314
 4491SOL    HW114372   0.501   6.600   5.923  0.5607 -0.2130 -0.4369
 4491SOL    HW214373   0.651   6.661   5.908  0.8826 -0.9562 -0.3104
 4492SOL     OW14374   3.680   0.783   4.118  0.2809  0.0930 -0.6536
 4492SOL    HW114375   3.596   0.795   4.066 -0.6478  0.6019  0.9010
 4492SOL    HW214376   3.751   0.844   4.083 -0.4226  0.6498 -1.1133
 4493SOL     OW14377   5.341   0.392   3.440  0.0639  0.3990 -0.6375
 4493SOL    HW114378   5.423   0.348   3.405  0.5678  0.4702  0.4258
 4493SOL    HW214379   5.328   0.479   3.393 -0.6695 -0.6144 -2.4015
 4494SOL     OW14380   0.532   4.459   0.519 -0.3780  0.1034 -0.5083
 4494SOL    HW114381   0.468   4.535   0.530 -1.6799 -1.0973  0.7617
 4494SOL    HW214382   0.513   4.411   0.434 -0.8652  0.0271 -0.3581
 4495SOL     OW14383   5.746   6.160   0.962 -0.5657  0.1060  0.2894
 4495SOL    HW114384   5.734   6.168   0.863 -0.2507  0.5861  0.2859
 4495SOL    HW214385   5.696   6.234   1.008 -0.3966  0.1103  0.4673
 4496SOL     OW14386   0.624   4.927   5.936 -0.4822 -0.3797 -0.0866
 4496SOL    HW114387   0.551   4.967   5.881  0.1196  0.1258 -0.5136
 4496SOL    HW214388   0.600   4.832   5.958 -0.7594 -0.5729 -1.1601
 4497SOL     OW14389   1.049   2.355   6.138  0.3525  0.3926  0.0435
 4497SOL    HW114390   1.027   2.333   6.043  1.5722  1.7424 -0.5716
 4497SOL    HW214391   0.966   2.345   6.194  0.0169 -2.3273 -0.7489
 4498SOL     OW14392   2.075   5.838   5.147 -0.0375  0.6372 -0.4567
 4498SOL    HW114393   2.171   5.813   5.165 -0.2184  0.3168  0.0963
 4498SOL    HW214394   2.072   5.927   5.102  0.5066  0.8325 -0.1225
 4499SOL     OW14395   4.878   3.916   3.528  0.0992 -0.5342  0.2093
 4499SOL    HW114396   4.926   3.897   3.442  0.0757 -0.2604  0.1347
 4499SOL    HW214397   4.882   3.835   3.587 -0.2164 -0.8579 -0.2031
 4500SOL     OW14398   6.589   3.734   6.359 -0.6192 -0.2893  0.9267
 4500SOL    HW114399   6.626   3.826   6.367  0.6031 -0.7402  0.7692
 4500SOL    HW214400   6.502   3.736   6.310 -1.4810  0.9651  2.4305
 4501SOL     OW14401   5.224   4.592   2.607 -1.3025 -0.4282 -0.2988
 4501SOL    HW114402   5.238   4.664   2.539  0.6575  0.1276  0.6346
 4501SOL    HW214403   5.193   4.509   2.562  1.2155 -0.4821 -2.1002
 4502SOL     OW14404   3.647   3.293   5.223 -0.5474 -0.2895  0.4799
 4502SOL    HW114405   3.556   3.321   5.252  0.5085  0.5496  3.3861
 4502SOL    HW214406   3.680   3.219   5.283  0.3490 -1.2362 -1.1159
 4503SOL     OW14407   0.918   5.519   0.992  0.0787  0.1691  0.0300
 4503SOL    HW114408   0.973   5.537   0.911 -0.3724 -0.7376 -0.4967
 4503SOL    HW214409   0.900   5.420   0.999 -1.2171  0.4090  0.3649
 4504SOL     OW14410   0.601   5.172   3.659 -0.0070 -0.0484 -0.2344
 4504SOL    HW114411   0.621   5.157   3.563 -0.3357 -0.4086 -0.2469
 4504SOL    HW214412   0.521   5.231   3.668  0.8043  1.0800 -0.1817
 4505SOL     OW14413   2.382   2.661   1.149  0.0413  0.3579 -0.1097
 4505SOL    HW114414   2.332   2.591   1.098  0.1601 -0.3451  0.7108
 4505SOL    HW214415   2.319   2.713   1.206  0.3501 -1.4895  2.0481
 4506SOL     OW14416   2.277   1.528   2.836 -0.3568  0.5218 -0.1084
 4506SOL    HW114417   2.220   1.530   2.753  0.1130 -1.8291 -0.5838
 4506SOL    HW214418   2.370   1.553   2.812 -0.4411  0.8460 -0.0911
 4507SOL     OW14419   2.715   5.865   4.596  0.3351  0.3686 -0.1990
 4507SOL    HW114420   2.690   5.780   4.644  1.9747  0.8260  1.5886
 4507SOL    HW214421   2.727   5.938   4.662  3.5884  0.8275 -1.1299
 4508SOL     OW14422   3.415   5.543   0.335 -0.1952  0.0138  0.3761
 4508SOL    HW114423   3.391   5.577   0.244 -1.0535  0.2674  0.6868
 4508SOL    HW214424   3.508   5.506   0.334  0.0506  0.6351 -0.4329
 4509SOL     OW14425   0.874   4.359   1.550  0.0714  0.2184 -0.5126
 4509SOL    HW114426   0.795   4.313   1.592 -0.3482  0.3330 -1.1643
 4509SOL    HW214427   0.868   4.457   1.567  0.9137  0.0688  0.7908
 4510SOL     OW14428   2.123   5.865   0.718 -0.4263 -0.2527  0.0341
 4510SOL    HW114429   2.127   5.961   0.744  0.0149 -0.0532 -0.7313
 4510SOL    HW214430   2.216   5.832   0.697 -0.7055 -0.5067 -0.8633
 4511SOL     OW14431   1.048   5.659   3.362  0.6137  0.4638  1.0938
 4511SOL    HW114432   0.979   5.614   3.419  0.1130 -0.1283  0.0655
 4511SOL    HW214433   1.043   5.621   3.269  0.6370  2.1957  0.3597
 4512SOL     OW14434   0.175   5.826   6.283 -0.4765  0.5863  0.3133
 4512SOL    HW114435   0.135   5.918   6.288  0.5259  1.1231 -1.0451
 4512SOL    HW214436   0.240   5.814   6.357 -0.5240  1.0223  0.4296
 4513SOL     OW14437   5.477   3.378   4.461 -0.1345  0.4511 -0.7484
 4513SOL    HW114438   5.542   3.326   4.406 -1.3116 -1.4528 -0.4148
 4513SOL    HW214439   5.435   3.449   4.405 -0.7269 -0.9395 -2.1272
 4514SOL     OW14440   2.730   1.027   6.925  0.2547  0.3393 -0.1821
 4514SOL    HW114441   2.681   1.044   7.010  1.6285 -0.3822  0.7955
 4514SOL    HW214442   2.687   0.952   6.875  1.7210 -2.0303  1.8968
 4515SOL     OW14443   3.500   7.009   1.836 -0.1743 -0.5546  0.1693
 4515SOL    HW114444   3.512   6.920   1.879 -1.9335 -0.5904  0.6355
 4515SOL    HW214445   3.470   6.996   1.741 -1.4498 -0.4895  0.5449
 4516SOL     OW14446   5.291   0.078   0.262 -0.1835  0.0487  0.4375
 4516SOL    HW114447   5.233   0.009   0.305  1.8415 -0.4178  2.6150
 4516SOL    HW214448   5.283   0.071   0.162 -0.7726 -2.6931  0.6026
 4517SOL     OW14449   3.788   2.614   0.708  0.3441 -0.1047  0.8738
 4517SOL    HW114450   3.697   2.586   0.740  0.6756  0.2826  2.2277
 4517SOL    HW214451   3.790   2.612   0.608 -0.1045 -3.4341  0.8168
 4518SOL     OW14452   3.894   1.515   1.371  0.0291 -0.0417 -0.3379
 4518SOL    HW114453   3.873   1.527   1.468 -0.6748  0.5870 -0.5653
 4518SOL    HW214454   3.993   1.515   1.359  0.1928  3.6272 -0.0325
 4519SOL     OW14455   3.229   3.910   3.507 -0.2477  0.0969  0.4871
 4519SOL    HW114456   3.282   3.974   3.451 -1.5804  1.2567  0.5151
 4519SOL    HW214457   3.253   3.816   3.482  1.2299  0.5931 -0.0407
 4520SOL     OW14458   3.877   6.011   1.870 -0.0155 -0.7416 -0.4652
 4520SOL    HW114459   3.805   5.979   1.932 -0.0457 -0.2715 -0.2512
 4520SOL    HW214460   3.861   5.974   1.779 -2.7166  2.2637 -1.4231
 4521SOL     OW14461   5.556   1.418   0.166 -0.1634  0.4558  0.0428
 4521SOL    HW114462   5.469   1.460   0.142 -0.8660 -0.3631  1.0677
 4521SOL    HW214463   5.555   1.394   0.263  1.0611  0.0775 -0.0234
 4522SOL     OW14464   5.544   3.449   4.924  0.0120  0.1255  0.1231
 4522SOL    HW114465   5.485   3.380   4.882 -2.1668  1.5943  0.5979
 4522SOL    HW214466   5.508   3.540   4.904  2.2508  1.1203  0.3316
 4523SOL     OW14467   4.667   0.646   3.373  0.3164 -0.2317  0.1218
 4523SOL    HW114468   4.743   0.586   3.399  0.9631  0.1551 -0.8053
 4523SOL    HW214469   4.693   0.699   3.292 -1.0970 -0.3732 -0.4525
 4524SOL     OW14470   3.608   2.247   0.257  0.4302  0.5195 -0.0650
 4524SOL    HW114471   3.689   2.193   0.279  0.4219 -0.2610 -1.7881
 4524SOL    HW214472   3.636   2.340   0.230  0.6787  0.5006  0.1234
 4525SOL     OW14473   6.536   1.162   5.243  0.6749  0.1505 -0.0448
 4525SOL    HW114474   6.526   1.228   5.318  0.2368 -1.1124  1.0483
 4525SOL    HW214475   6.520   1.208   5.156  0.0579  1.4171  0.7075
 4526SOL     OW14476   1.951   2.159   1.785 -0.1778  0.3512 -0.6054
 4526SOL    HW114477   1.891   2.098   1.837 -0.7275 -0.3894 -2.0696
 4526SOL    HW214478   1.986   2.230   1.846 -2.3742  0.7009  0.3564
 4527SOL     OW14479   1.222   4.131   4.869 -0.2050 -0.3447  0.5171
 4527SOL    HW114480   1.307   4.137   4.816  1.2360 -1.7175  2.5314
 4527SOL    HW214481   1.207   4.217   4.918 -0.0536 -0.0560  0.0647
 4528SOL     OW14482   6.649   3.711   1.007  0.4924  0.2221  0.1068
 4528SOL    HW114483   6.689   3.637   0.953  1.6796  0.0418  1.1801
 4528SOL    HW214484   6.658   3.690   1.104 -3.3954 -0.4126  0.4700
 4529SOL     OW14485   4.055   0.747   0.357 -0.7431 -0.5099  0.5232
 4529SOL    HW114486   4.002   0.831   0.350  0.0625  0.1139  1.5797
 4529SOL    HW214487   4.099   0.743   0.447  1.1069 -0.9071 -0.3451
 4530SOL     OW14488   6.003   6.095   0.522 -0.0456  0.2514  0.1731
 4530SOL    HW114489   6.023   6.150   0.441 -0.4965 -0.8574 -0.7159
 4530SOL    HW214490   6.084   6.092   0.580  0.1201  1.4970  0.0508
 4531SOL     OW14491   2.292   0.246   0.287 -0.0235  0.4193  0.0757
 4531SOL    HW114492   2.280   0.222   0.383  1.3678 -1.4510 -0.1650
 4531SOL    HW214493   2.224   0.196   0.232 -1.1519  1.8744  0.0917
 4532SOL     OW14494   2.845   5.712   3.790  0.2682  0.4353 -0.4687
 4532SOL    HW114495   2.865   5.652   3.712  0.9834  0.4506 -0.3078
 4532SOL    HW214496   2.757   5.687   3.830  0.4145 -0.3101 -0.5950
 4533SOL     OW14497   4.136   2.682   6.768 -0.2056  0.1419  0.5384
 4533SOL    HW114498   4.134   2.662   6.866  3.0416 -0.7757  0.5155
 4533SOL    HW214499   4.181   2.769   6.752  1.1270 -0.6556 -0.2014
 4534SOL     OW14500   6.828   1.925   5.899 -0.6250 -0.6453  0.1336
 4534SOL    HW114501   6.806   1.974   5.815 -1.0756 -1.3473 -0.1776
 4534SOL    HW214502   6.914   1.958   5.937 -0.3090 -0.4698 -0.7278
 4535SOL     OW14503   1.835   4.665   4.447  0.0557  0.2452  0.3643
 4535SOL    HW114504   1.876   4.677   4.356  0.0529  1.4084  0.5121
 4535SOL    HW214505   1.891   4.601   4.499  0.8558  0.6491  0.0318
 4536SOL     OW14506   5.226   1.747   1.601  0.0390 -0.1728 -0.2812
 4536SOL    HW114507   5.238   1.664   1.546 -0.7329 -2.4184  2.6642
 4536SOL    HW214508   5.286   1.743   1.681 -1.1408  1.3708  0.7473
 4537SOL     OW14509   1.177   0.090   5.800  0.1855 -0.4609  0.1970
 4537SOL    HW114510   1.122   0.099   5.717  0.4379  0.5769  0.1236
 4537SOL    HW214511   1.224   0.176   5.818  1.8698 -1.3200  0.2023
 4538SOL     OW14512   2.255   6.452   4.959 -0.1144  0.1743 -0.1471
 4538SOL    HW114513   2.298   6.372   4.917 -1.3993 -0.3722 -0.4525
 4538SOL    HW214514   2.315   6.487   5.031  1.7585  0.6483 -1.8606
 4539SOL     OW14515   5.305   6.570   5.857  0.2624  0.5384 -0.0678
 4539SOL    HW114516   5.230   6.543   5.797 -0.6671  2.1157  0.3187
 4539SOL    HW214517   5.386   6.593   5.802 -0.2699  1.0189 -0.6589
 4540SOL     OW14518   3.156   4.957   0.514 -0.0443  0.5080  0.7390
 4540SOL    HW114519   3.194   4.877   0.560 -1.0135 -0.8789 -0.7828
 4540SOL    HW214520   3.057   4.951   0.514 -0.1052  1.3712 -0.0169
 4541SOL     OW14521   1.850   2.404   1.669 -0.5470  0.3536 -0.0665
 4541SOL    HW114522   1.893   2.322   1.707  1.2623  1.0126 -0.5959
 4541SOL    HW214523   1.821   2.464   1.745 -1.7296 -0.6500  0.3166
 4542SOL     OW14524   5.503   0.985   5.761  0.5375  0.2220 -0.4869
 4542SOL    HW114525   5.531   0.945   5.674 -0.2430  1.8683 -1.5566
 4542SOL    HW214526   5.544   1.076   5.770 -1.3471  1.0996 -0.3246
 4543SOL     OW14527   2.568   6.678   0.703  0.0819 -0.4227  0.0232
 4543SOL    HW114528   2.558   6.611   0.629 -0.3003  2.3285 -2.5878
 4543SOL    HW214529   2.480   6.721   0.721  0.7656  1.1048 -0.1493
 4544SOL     OW14530   5.195   1.771   4.063  0.4675  0.2375  0.4582
 4544SOL    HW114531   5.137   1.712   4.119 -1.0566  0.9792 -0.2740
 4544SOL    HW214532   5.140   1.845   4.025  1.8162  0.7017 -0.6721
 4545SOL     OW14533   6.414   3.809   5.200  0.1607  0.2142  0.5528
 4545SOL    HW114534   6.470   3.732   5.231 -0.1192 -0.4414 -0.5334
 4545SOL    HW214535   6.338   3.822   5.264 -0.9669 -1.7391 -0.2864
 4546SOL     OW14536   0.995   1.879   2.490  0.0916  0.2447 -0.0901
 4546SOL    HW114537   0.911   1.851   2.445 -1.0782  0.4708  1.8181
 4546SOL    HW214538   1.070   1.820   2.460 -1.2343 -1.5298 -0.1167
 4547SOL     OW14539   1.683   2.849   3.158  0.1606 -0.0175  0.1985
 4547SOL    HW114540   1.722   2.761   3.132 -0.3011 -0.0371 -0.4585
 4547SOL    HW214541   1.748   2.922   3.136 -0.6553  0.0869 -2.2276
 4548SOL     OW14542   6.346   4.762   6.980  0.0384  0.2597 -0.0842
 4548SOL    HW114543   6.416   4.806   7.037  0.6393  1.0462 -1.3803
 4548SOL    HW214544   6.278   4.829   6.953  0.2215  0.1007 -0.9693
 4549SOL     OW14545   6.760   3.827   5.390  0.0283 -0.2134  0.2322
 4549SOL    HW114546   6.691   3.841   5.462 -0.0199 -1.2277  0.3906
 4549SOL    HW214547   6.848   3.860   5.422 -0.1210 -0.0751  0.5096
 4550SOL     OW14548   5.045   2.390   6.807 -0.3546 -0.5761 -0.4081
 4550SOL    HW114549   5.068   2.316   6.870 -1.8329 -1.2852 -0.6495
 4550SOL    HW214550   5.052   2.357   6.713 -0.5936 -0.2862 -0.5286
 4551SOL     OW14551   1.053   2.982   3.137 -0.1916  0.3944  0.6688
 4551SOL    HW114552   0.995   2.902   3.154 -1.4577  1.2956  0.6637
 4551SOL    HW214553   1.006   3.065   3.167  1.0489  1.1639  0.5395
 4552SOL     OW14554   3.293   1.190   4.329 -0.1225  0.0135  0.2919
 4552SOL    HW114555   3.387   1.218   4.345 -0.5019  1.2999  0.3497
 4552SOL    HW214556   3.253   1.244   4.256 -1.7359  1.6417  2.2512
 4553SOL     OW14557   2.944   3.763   2.514  0.1185  0.1703 -0.9800
 4553SOL    HW114558   2.920   3.718   2.428  0.0817  0.7959 -1.3063
 4553SOL    HW214559   2.940   3.697   2.589  0.0548 -0.3583 -1.4435
 4554SOL     OW14560   3.897   1.390   3.694 -0.0848  0.1681 -0.6021
 4554SOL    HW114561   3.964   1.447   3.647  0.2029  0.5975  0.3185
 4554SOL    HW214562   3.909   1.295   3.666 -0.1420  0.4538 -1.6510
 4555SOL     OW14563   1.295   5.897   2.042  0.1558 -0.3020  0.3856
 4555SOL    HW114564   1.289   5.887   1.942  0.7481  0.4573  0.2675
 4555SOL    HW214565   1.380   5.944   2.066  1.4075 -2.8628  1.4230
 4556SOL     OW14566   1.666   5.111   4.145  0.8597  0.1707 -0.1474
 4556SOL    HW114567   1.653   5.199   4.191 -2.1241 -0.3588  0.1969
 4556SOL    HW214568   1.701   5.044   4.211 -0.5225  0.1707  0.6206
 4557SOL     OW14569   2.201   3.452   1.046 -0.5436  0.0304 -0.5529
 4557SOL    HW114570   2.206   3.523   1.117 -2.0351  0.4452 -0.8265
 4557SOL    HW214571   2.292   3.440   1.005  0.3971 -0.3823  1.5526
 4558SOL     OW14572   5.997   1.101   0.659 -0.1672 -0.2696 -0.2437
 4558SOL    HW114573   5.989   1.154   0.575  1.7449 -0.3998 -0.5688
 4558SOL    HW214574   5.961   1.153   0.736  0.5350  1.0019 -0.7486
 4559SOL     OW14575   2.276   2.911   1.813 -0.2630  0.4809 -0.4226
 4559SOL    HW114576   2.325   2.978   1.757 -1.3359  0.5054 -1.3706
 4559SOL    HW214577   2.340   2.842   1.847  1.0760  2.5768  1.5368
 4560SOL     OW14578   0.805   6.559   5.627  0.1336 -0.4526  0.5690
 4560SOL    HW114579   0.799   6.492   5.554  2.2741  0.0397 -0.1240
 4560SOL    HW214580   0.888   6.543   5.680 -0.4504  0.3268  1.7606
 4561SOL     OW14581   3.994   1.796   6.700  0.9646  0.2659  0.2305
 4561SOL    HW114582   3.919   1.766   6.759  0.6769 -0.2934 -0.4183
 4561SOL    HW214583   4.074   1.816   6.757  0.7655 -0.4911  0.7886
 4562SOL     OW14584   1.180   3.324   5.826  0.0594 -0.1050  0.3557
 4562SOL    HW114585   1.104   3.354   5.883 -0.6688  0.2474 -0.7700
 4562SOL    HW214586   1.179   3.225   5.818 -1.2832 -0.0280 -0.9410
 4563SOL     OW14587   3.519   6.976   5.211 -0.1641 -0.5759  0.1909
 4563SOL    HW114588   3.465   7.051   5.250  1.8697  0.9861  0.1537
 4563SOL    HW214589   3.565   6.927   5.285  0.3621 -0.2848  0.0584
 4564SOL     OW14590   0.020   3.066   1.774  0.0588  0.2729 -0.1643
 4564SOL    HW114591  -0.018   3.144   1.823 -0.3595  0.5812 -0.9504
 4564SOL    HW214592  -0.016   3.065   1.680  2.5534  1.0325 -1.2094
 4565SOL     OW14593   2.342   0.158   3.914  0.0192 -0.3934  0.1548
 4565SOL    HW114594   2.344   0.213   3.830  1.6712 -1.8332 -0.8236
 4565SOL    HW214595   2.427   0.171   3.964 -0.3936 -0.5918  0.9186
 4566SOL     OW14596   2.602   2.373   6.582 -0.0997 -0.4373 -0.4021
 4566SOL    HW114597   2.598   2.473   6.584  1.1144 -0.3834  0.8925
 4566SOL    HW214598   2.557   2.338   6.664 -0.0834 -0.9362 -0.6091
 4567SOL     OW14599   6.723   1.721   4.387 -0.0823 -0.1097 -0.0567
 4567SOL    HW114600   6.718   1.695   4.291 -0.6994 -1.0877  0.2183
 4567SOL    HW214601   6.674   1.807   4.402 -1.4356 -0.8104 -0.3447
 4568SOL     OW14602   6.336   0.387   5.886 -0.4792 -0.3288  0.1490
 4568SOL    HW114603   6.373   0.297   5.912  2.2469  0.3896 -0.8960
 4568SOL    HW214604   6.265   0.375   5.817 -0.6038 -1.6981  0.4847
 4569SOL     OW14605   5.237   1.302   2.587 -0.3028 -0.1948 -1.1357
 4569SOL    HW114606   5.277   1.248   2.513  1.5364 -0.2651 -0.1517
 4569SOL    HW214607   5.277   1.394   2.588 -0.1557 -0.2544 -0.1230
 4570SOL     OW14608   2.272   1.925   1.454 -0.3575 -0.1469 -0.0322
 4570SOL    HW114609   2.279   1.834   1.413 -1.5091  0.4132 -1.5544
 4570SOL    HW214610   2.186   1.933   1.503 -0.6016  0.3636 -0.5372
 4571SOL     OW14611   2.964   3.981   5.613 -0.8761  0.1659  0.2525
 4571SOL    HW114612   3.023   4.052   5.651 -0.0217 -0.2609 -0.2598
 4571SOL    HW214613   2.915   4.017   5.534 -1.3123  0.5229  0.6807
 4572SOL     OW14614   5.655   1.181   5.841  0.1716 -0.0071 -0.9520
 4572SOL    HW114615   5.675   1.267   5.888  1.2667 -0.4960 -0.5042
 4572SOL    HW214616   5.740   1.139   5.810 -0.3200 -1.1101 -0.8414
 4573SOL     OW14617   0.241   2.942   6.829  0.0326  0.9748 -0.1366
 4573SOL    HW114618   0.277   3.021   6.779 -0.6100  1.7176  0.5348
 4573SOL    HW214619   0.269   2.950   6.925 -0.2989  0.5412 -0.0068
 4574SOL     OW14620   0.918   5.070   1.415 -0.1133  0.3124 -0.3114
 4574SOL    HW114621   0.938   5.163   1.444 -0.4695  0.1642  0.4371
 4574SOL    HW214622   0.893   5.015   1.495 -0.0573 -0.3835 -0.7657
 4575SOL     OW14623   4.306   1.314   4.079 -0.3397  0.8249  0.4904
 4575SOL    HW114624   4.223   1.358   4.115 -0.4717  0.3334  0.7987
 4575SOL    HW214625   4.313   1.222   4.116 -0.4316  0.3277 -0.6764
 4576SOL     OW14626   2.347   0.003   2.405 -0.3247  0.4136  0.2524
 4576SOL    HW114627   2.442   0.036   2.406 -0.3376  0.4438  0.9409
 4576SOL    HW214628   2.286   0.076   2.435 -1.0304  1.6804 -3.7119
 4577SOL     OW14629   5.963   5.470   3.381  0.0507 -0.2182 -0.2574
 4577SOL    HW114630   5.896   5.407   3.420  1.7900 -1.1708  1.4225
 4577SOL    HW214631   5.958   5.467   3.281 -1.2950 -1.4546 -0.1884
 4578SOL     OW14632   4.878   3.255   3.379  0.3128  0.0183  0.4392
 4578SOL    HW114633   4.974   3.255   3.405  0.2474 -1.9910  0.8325
 4578SOL    HW214634   4.840   3.346   3.393  1.9983  0.6969  0.8402
 4579SOL     OW14635   5.486   6.537   4.374  0.2138 -0.3085 -0.1723
 4579SOL    HW114636   5.482   6.451   4.424 -1.9719  0.3495  0.9201
 4579SOL    HW214637   5.418   6.537   4.301  0.4539  0.3603 -0.4096
 4580SOL     OW14638   0.486   3.419   1.161  0.4813  0.4457  0.7288
 4580SOL    HW114639   0.427   3.385   1.234  0.5750 -1.5053 -0.0325
 4580SOL    HW214640   0.581   3.394   1.182  0.5930  0.5008  0.2876
 4581SOL     OW14641   6.072   2.443   3.555 -0.4445 -0.2379 -0.1044
 4581SOL    HW114642   5.995   2.399   3.601 -0.5753  0.0315 -0.0617
 4581SOL    HW214643   6.077   2.410   3.460 -1.0164  0.2258 -0.3045
 4582SOL     OW14644   6.860   4.316   4.138 -0.4151 -0.0469  0.4085
 4582SOL    HW114645   6.920   4.394   4.153 -0.2278 -0.2118  0.5087
 4582SOL    HW214646   6.825   4.283   4.226 -0.1589 -0.3421  0.3998
 4583SOL     OW14647   1.795   5.257   0.981  0.2199  0.9481  0.0723
 4583SOL    HW114648   1.712   5.282   0.932  0.9452  1.2789 -1.0281
 4583SOL    HW214649   1.795   5.159   1.001 -0.7616  1.0757  0.7476
 4584SOL     OW14650   1.059   2.119   3.500 -0.6173 -0.0723 -0.6468
 4584SOL    HW114651   0.965   2.113   3.534 -0.5247 -1.5932 -0.5818
 4584SOL    HW214652   1.067   2.197   3.439 -2.0541 -0.1755 -1.0167
 4585SOL     OW14653   2.502   1.880   2.048 -0.5114  0.3979  0.0649
 4585SOL    HW114654   2.498   1.813   1.975  1.3733 -0.6482  0.8697
 4585SOL    HW214655   2.411   1.888   2.091 -0.9247 -1.1197 -0.4826
 4586SOL     OW14656   1.080   6.723   6.581  0.3990 -0.0269 -0.4209
 4586SOL    HW114657   1.059   6.630   6.551  0.5961  0.3690 -1.9032
 4586SOL    HW214658   0.994   6.774   6.594  0.3087  0.0649 -1.2979
 4587SOL     OW14659   4.209   2.096   1.347  0.4686  0.3207  0.1688
 4587SOL    HW114660   4.251   2.183   1.317 -0.9083  0.5326 -1.2740
 4587SOL    HW214661   4.236   2.023   1.283 -1.5917  0.5428 -1.0366
 4588SOL     OW14662   0.428   2.179   2.536 -0.0059 -0.0925 -0.3091
 4588SOL    HW114663   0.461   2.270   2.510  0.6895  0.6991  2.9572
 4588SOL    HW214664   0.503   2.113   2.528  0.5836  0.4073  0.8478
 4589SOL     OW14665   4.981   3.378   5.268 -0.3345 -0.6162 -0.0806
 4589SOL    HW114666   5.013   3.343   5.356  0.5567  0.1752 -0.0661
 4589SOL    HW214667   4.919   3.312   5.226  1.1026 -2.0911  0.0276
 4590SOL     OW14668   3.669   0.195   4.257  0.1996 -0.1367 -0.1544
 4590SOL    HW114669   3.662   0.097   4.272 -0.0705 -0.0603  0.2619
 4590SOL    HW214670   3.674   0.242   4.346 -0.4568  0.2732 -0.3227
 4591SOL     OW14671   0.286   1.649   0.592  0.7002  0.5089  0.8187
 4591SOL    HW114672   0.222   1.610   0.659 -0.0871  1.2715  0.5260
 4591SOL    HW214673   0.279   1.597   0.506  0.2732  0.7440  0.7053
 4592SOL     OW14674   4.915   4.504   3.401 -0.1902 -0.4655 -0.2001
 4592SOL    HW114675   4.966   4.483   3.484  1.0538  1.4377 -0.4176
 4592SOL    HW214676   4.956   4.454   3.324 -0.5321 -1.2200  0.0928
 4593SOL     OW14677   3.542   0.902   0.551  0.4582 -0.1082  0.0692
 4593SOL    HW114678   3.480   0.878   0.477  2.4102 -3.0082 -0.7759
 4593SOL    HW214679   3.633   0.923   0.514  1.2019 -0.5634  1.5431
 4594SOL     OW14680   4.367   2.014   6.797 -0.1494 -0.0096 -0.1533
 4594SOL    HW114681   4.334   2.107   6.816  0.8848  0.1650  0.9106
 4594SOL    HW214682   4.365   1.998   6.699  0.3878  1.4464 -0.4388
 4595SOL     OW14683   2.129   3.408   3.630 -0.3096 -0.1329  0.5356
 4595SOL    HW114684   2.123   3.431   3.727  0.7737  0.3967  0.4957
 4595SOL    HW214685   2.092   3.484   3.576 -0.7186 -0.3381  0.5265
 4596SOL     OW14686   4.010   0.607   0.111  0.6605 -0.8435 -0.3113
 4596SOL    HW114687   4.025   0.666   0.191  0.6565 -0.9476 -0.2333
 4596SOL    HW214688   3.924   0.632   0.066  1.6784  0.6214 -1.5165
 4597SOL     OW14689   4.360   3.415   5.333  0.0958  0.0181 -0.5702
 4597SOL    HW114690   4.353   3.403   5.432  0.6795 -0.6044 -0.6044
 4597SOL    HW214691   4.268   3.410   5.293  0.0337 -1.6452 -0.2708
 4598SOL     OW14692   4.342   2.323   0.326 -0.0207  0.2989  0.5497
 4598SOL    HW114693   4.439   2.299   0.316 -0.0437  0.6395 -0.5759
 4598SOL    HW214694   4.309   2.363   0.241 -0.8851  1.1453  1.2723
 4599SOL     OW14695   3.365   5.525   5.704  0.2580  0.5566 -0.1202
 4599SOL    HW114696   3.442   5.463   5.718 -0.3073 -0.5256 -1.5518
 4599SOL    HW214697   3.346   5.574   5.789  2.0869  0.3600  0.4384
 4600SOL     OW14698   1.599   6.646   2.545  0.0524 -0.1378  0.2425
 4600SOL    HW114699   1.653   6.594   2.479 -1.0794 -1.2173  0.1311
 4600SOL    HW214700   1.621   6.743   2.537  0.1891 -0.2833 -1.5003
 4601SOL     OW14701   4.709   0.969   4.625 -0.1416 -0.1162 -0.1873
 4601SOL    HW114702   4.786   0.993   4.684  0.1180  0.3050 -0.6835
 4601SOL    HW214703   4.623   0.980   4.675 -0.0242  1.7034 -0.3136
 4602SOL     OW14704   6.898   1.258   2.312 -0.1856  0.6484  0.9006
 4602SOL    HW114705   6.812   1.237   2.358 -0.1716  1.7450  1.4540
 4602SOL    HW214706   6.971   1.200   2.349 -0.4418  0.5856  1.3105
 4603SOL     OW14707   3.142   3.776   5.660 -0.8247 -0.0662  0.6886
 4603SOL    HW114708   3.212   3.755   5.591 -0.4918  0.8105  0.7469
 4603SOL    HW214709   3.082   3.848   5.625 -1.7416 -0.8514  0.6206
 4604SOL     OW14710   5.385   2.526   0.173 -0.4169  0.4493  0.2506
 4604SOL    HW114711   5.403   2.428   0.177 -2.1991  0.0924  0.4215
 4604SOL    HW214712   5.463   2.576   0.211  1.6193 -0.7211 -2.0906
 4605SOL     OW14713   6.455   4.320   1.557 -0.0991  0.0996  0.7885
 4605SOL    HW114714   6.406   4.321   1.644 -2.0182  0.4038 -0.2417
 4605SOL    HW214715   6.546   4.282   1.571  0.5795  2.3374  3.3707
 4606SOL     OW14716   3.467   5.079   2.405  0.0764 -0.2657  0.4125
 4606SOL    HW114717   3.508   5.007   2.350 -2.6560 -1.6994  0.0877
 4606SOL    HW214718   3.489   5.064   2.502  0.5827 -0.8019  0.2184
 4607SOL     OW14719   2.981   4.024   6.031  0.2444 -0.2863 -0.2643
 4607SOL    HW114720   3.016   3.946   5.979 -0.6800  0.4558 -2.0926
 4607SOL    HW214721   2.882   4.031   6.017  0.0759  0.3945  1.0490
 4608SOL     OW14722   6.089   5.824   4.271  0.0025  0.1614 -0.2691
 4608SOL    HW114723   6.017   5.878   4.226 -0.1905  0.4143  0.3438
 4608SOL    HW214724   6.052   5.734   4.294 -0.4232  0.6327  0.9328
 4609SOL     OW14725   6.203   2.216   1.714  0.3880  0.4361  0.5370
 4609SOL    HW114726   6.170   2.210   1.619 -1.0501  0.6452  0.9985
 4609SOL    HW214727   6.290   2.168   1.722  0.5403  0.4238 -0.8926
 4610SOL     OW14728   5.221   4.387   0.600  0.1867  0.1109  0.0420
 4610SOL    HW114729   5.211   4.434   0.512  0.3901  0.7133  0.3367
 4610SOL    HW214730   5.143   4.409   0.658 -0.3817 -0.9622 -0.2810
 4611SOL     OW14731   3.449   1.698   3.853  0.0097  0.2034 -0.5671
 4611SOL    HW114732   3.455   1.598   3.856  0.3881  0.1907 -1.5201
 4611SOL    HW214733   3.373   1.724   3.794  0.2275  0.4838 -0.7219
 4612SOL     OW14734   5.744   7.009   1.946 -0.1546  0.1087 -0.1097
 4612SOL    HW114735   5.764   6.981   2.039  1.3853 -0.2785 -0.5370
 4612SOL    HW214736   5.824   6.995   1.888 -0.7243  1.3681 -1.2692
 4613SOL     OW14737   2.251   0.484   1.997 -0.5883  0.0591 -0.0691
 4613SOL    HW114738   2.251   0.384   2.007  0.3941  0.0761  0.2501
 4613SOL    HW214739   2.242   0.507   1.900  0.7418 -0.3970 -0.3277
 4614SOL     OW14740   5.489   5.143   6.806  0.0945  0.3348 -0.4356
 4614SOL    HW114741   5.405   5.134   6.860  0.1715 -0.0206 -0.3706
 4614SOL    HW214742   5.561   5.087   6.847  0.1573  0.0666 -0.9060
 4615SOL     OW14743   1.924   6.633   5.971  0.1634  0.4337 -0.0680
 4615SOL    HW114744   1.985   6.676   5.905 -0.8828 -1.2738 -2.3351
 4615SOL    HW214745   1.839   6.686   5.977  0.6606  1.1432  0.6924
 4616SOL     OW14746   4.786   6.837   6.311 -0.3830 -0.3278 -0.5509
 4616SOL    HW114747   4.724   6.760   6.296 -0.5736  0.0854 -2.0944
 4616SOL    HW214748   4.754   6.892   6.388 -0.7666 -1.2590 -0.0354
 4617SOL     OW14749   3.887   1.050   6.283  0.1347  0.3069  0.3390
 4617SOL    HW114750   3.811   1.057   6.348  0.1672  1.1805  0.2963
 4617SOL    HW214751   3.874   1.116   6.209 -0.1887 -1.0560 -0.8642
 4618SOL     OW14752   3.409   6.190   0.937 -0.5898  0.4814 -0.3365
 4618SOL    HW114753   3.474   6.244   0.990  0.9883 -0.8703 -0.8163
 4618SOL    HW214754   3.437   6.094   0.937 -1.8880  0.0564 -1.6308
 4619SOL     OW14755   2.449   0.811   1.011  0.3456  0.2380 -0.2387
 4619SOL    HW114756   2.415   0.717   1.006  1.7574 -0.2417 -1.2171
 4619SOL    HW214757   2.375   0.874   0.990 -0.7936 -0.5936  1.0711
 4620SOL     OW14758   0.148   6.614   3.115  0.6051 -0.4274  0.1356
 4620SOL    HW114759   0.195   6.526   3.108  0.7400 -0.5413  1.9169
 4620SOL    HW214760   0.117   6.627   3.209  2.3542  2.3167  0.4502
 4621SOL     OW14761   0.888   3.490   0.688 -0.2152 -0.1335 -0.5679
 4621SOL    HW114762   0.929   3.439   0.612 -0.0468 -0.4495 -0.2696
 4621SOL    HW214763   0.789   3.492   0.678 -0.0673  1.9196 -2.1041
 4622SOL     OW14764   5.210   1.766   4.700 -0.9796  0.1804 -0.3142
 4622SOL    HW114765   5.251   1.685   4.659 -1.6950 -0.4630  0.2111
 4622SOL    HW214766   5.130   1.739   4.754 -1.3446  1.2583 -0.2945
 4623SOL     OW14767   0.210   0.259   1.379  0.5109 -0.2100 -0.3615
 4623SOL    HW114768   0.119   0.264   1.339 -0.1241 -2.4070  0.6421
 4623SOL    HW214769   0.270   0.204   1.320  1.3561  1.5635 -1.2253
 4624SOL     OW14770   0.738   1.163   4.766  0.5261  0.2414 -0.1140
 4624SOL    HW114771   0.730   1.067   4.736 -1.3318  0.3833 -0.1591
 4624SOL    HW214772   0.814   1.206   4.716 -0.5037 -0.3858 -2.3811
 4625SOL     OW14773   5.660   0.763   3.909  0.1828 -0.1098  0.3598
 4625SOL    HW114774   5.588   0.695   3.913 -0.3934  0.4453 -0.3331
 4625SOL    HW214775   5.625   0.851   3.942  0.3047  0.3556 -0.7079
 4626SOL     OW14776   6.280   5.075   1.639 -0.4811 -0.3744 -0.0672
 4626SOL    HW114777   6.260   5.169   1.666  2.7366  0.7255 -1.1890
 4626SOL    HW214778   6.274   5.066   1.540 -0.4631 -1.2922  0.0038
 4627SOL     OW14779   1.828   3.634   5.968  0.2875  0.4176 -0.5789
 4627SOL    HW114780   1.894   3.620   5.894  0.5559  2.0181 -0.6672
 4627SOL    HW214781   1.777   3.549   5.982  1.8252 -0.6245 -1.0093
 4628SOL     OW14782   0.784   4.691   6.288 -0.0232 -0.1131  0.3975
 4628SOL    HW114783   0.849   4.760   6.257  0.7104 -0.6137  0.8113
 4628SOL    HW214784   0.782   4.690   6.388  2.2607 -2.7379  0.5279
 4629SOL     OW14785   2.885   0.772   6.098  0.2003  0.4655  0.4222
 4629SOL    HW114786   2.841   0.813   6.018  1.1109  1.6119  0.4875
 4629SOL    HW214787   2.984   0.776   6.088  0.3143 -0.7330  0.9457
 4630SOL     OW14788   0.362   5.900   0.464  0.6238 -0.7492 -0.1892
 4630SOL    HW114789   0.440   5.957   0.439  0.4171 -0.9345 -1.2947
 4630SOL    HW214790   0.312   5.874   0.382 -1.2271  0.2375  0.5555
 4631SOL     OW14791   1.316   5.897   4.648  0.4019 -0.3157 -0.4282
 4631SOL    HW114792   1.239   5.961   4.656  0.1638 -0.5521 -0.8092
 4631SOL    HW214793   1.400   5.949   4.637  0.1362 -0.0654 -1.3643
 4632SOL     OW14794   5.049   2.633   5.284 -0.3221  0.1804 -0.3630
 4632SOL    HW114795   5.090   2.615   5.195  1.8891  1.3192  0.3476
 4632SOL    HW214796   5.045   2.549   5.337 -1.0027 -0.3680 -1.2507
 4633SOL     OW14797   1.108   3.729   0.035 -0.4416  0.0062 -0.5409
 4633SOL    HW114798   1.077   3.695   0.124  0.8491 -1.8487 -0.7373
 4633SOL    HW214799   1.042   3.705  -0.035 -0.2629 -0.8228 -0.4394
 4634SOL     OW14800   4.356   0.263   0.175  0.3219  0.2429 -0.1031
 4634SOL    HW114801   4.421   0.187   0.178  1.0571  0.8256 -0.9690
 4634SOL    HW214802   4.357   0.305   0.084  0.6103  1.8744  0.6193
 4635SOL     OW14803   4.059   0.637   6.412 -0.6974 -0.0762 -0.4850
 4635SOL    HW114804   4.157   0.627   6.401 -0.7875  0.2302 -1.7008
 4635SOL    HW214805   4.039   0.670   6.504  0.4016  0.6857 -0.5007
 4636SOL     OW14806   4.569   6.933   1.869 -0.4210 -0.0652  0.3758
 4636SOL    HW114807   4.644   6.964   1.927 -1.3164  1.4365  0.8073
 4636SOL    HW214808   4.511   7.012   1.845 -1.0231 -0.9335 -1.1661
 4637SOL     OW14809   4.444   3.075   0.300  0.0418  0.4482 -0.4203
 4637SOL    HW114810   4.414   3.027   0.382 -0.2155  1.0811 -0.1289
 4637SOL    HW214811   4.424   3.020   0.219  0.6110 -0.3345 -0.0466
 4638SOL     OW14812   0.572   0.868   2.882  0.2594  0.4817  0.1739
 4638SOL    HW114813   0.595   0.921   2.800  0.0551  0.3750  0.0476
 4638SOL    HW214814   0.480   0.829   2.873  1.3865 -2.1711 -0.9323
 4639SOL     OW14815   1.114   5.124   6.736 -0.2385  0.4895  0.2715
 4639SOL    HW114816   1.069   5.054   6.790  0.0972 -1.3108 -1.6579
 4639SOL    HW214817   1.209   5.135   6.765  0.1231 -0.9154 -0.3002
 4640SOL     OW14818   6.784   6.532   2.493 -0.4369 -0.0384  0.2742
 4640SOL    HW114819   6.699   6.484   2.515 -1.1598  1.9001  2.1339
 4640SOL    HW214820   6.860   6.467   2.489 -1.6760 -1.5526  0.6732
 4641SOL     OW14821   1.409   1.385   5.999 -0.0661  0.3732 -0.2828
 4641SOL    HW114822   1.392   1.423   5.908  0.0405  2.3076  0.4637
 4641SOL    HW214823   1.474   1.309   5.991  1.7474  1.9474 -1.6340
 4642SOL     OW14824   4.551   0.622   4.641  0.0649 -0.1889 -0.4506
 4642SOL    HW114825   4.502   0.676   4.710  1.2947  1.6400 -0.9434
 4642SOL    HW214826   4.614   0.681   4.591  1.2565 -2.0566 -1.2532
 4643SOL     OW14827   1.537   1.303   1.217  0.5328  0.3024  0.1938
 4643SOL    HW114828   1.489   1.295   1.129 -0.7588 -1.0708  0.9826
 4643SOL    HW214829   1.487   1.366   1.276  0.8085  0.3884  0.3375
 4644SOL     OW14830   6.425   4.889   4.045  0.2125 -0.2848  0.3863
 4644SOL    HW114831   6.461   4.824   4.112  1.5898 -0.0698 -0.1269
 4644SOL    HW214832   6.325   4.893   4.053  0.3243 -0.4307  2.2770
 4645SOL     OW14833   6.115   4.184   5.047  0.2719  0.3094 -0.2654
 4645SOL    HW114834   6.125   4.164   5.144  0.7254 -0.5881 -0.4799
 4645SOL    HW214835   6.020   4.205   5.027  0.1784  0.5081  0.3739
 4646SOL     OW14836   5.428   2.581   3.702  0.1407 -0.3734 -0.5549
 4646SOL    HW114837   5.372   2.512   3.656  1.5473 -0.6981 -1.8217
 4646SOL    HW214838   5.523   2.572   3.673  0.3184  2.3123 -1.0033
 4647SOL     OW14839   4.954   1.156   5.531  0.0476 -0.5417 -0.6678
 4647SOL    HW114840   4.884   1.085   5.532  0.5350 -1.0557 -1.5990
 4647SOL    HW214841   4.930   1.226   5.464  0.0602 -0.3284 -0.4533
 4648SOL     OW14842   6.898   2.278   4.282 -0.3054 -0.2387  0.5833
 4648SOL    HW114843   6.952   2.196   4.303 -1.5692 -0.9050  1.3544
 4648SOL    HW214844   6.805   2.251   4.256 -0.7431  0.9471  0.8444
 4649SOL     OW14845   2.257   5.214   3.003 -0.2977  0.1165 -0.1069
 4649SOL    HW114846   2.262   5.264   3.090  1.7400  0.4040 -0.3438
 4649SOL    HW214847   2.162   5.186   2.986 -0.9079  0.9450  1.6913
 4650SOL     OW14848   2.862   6.172   5.846  0.1578 -0.2484  0.9633
 4650SOL    HW114849   2.882   6.256   5.795  2.2553 -2.0275 -1.3761
 4650SOL    HW214850   2.809   6.110   5.788 -0.4908 -0.9814  2.3064
 4651SOL     OW14851   5.793   5.539   1.740  0.1621  0.1525 -0.3400
 4651SOL    HW114852   5.888   5.520   1.762  0.2848  0.6391 -0.4399
 4651SOL    HW214853   5.764   5.482   1.663  0.1618 -0.5044  0.1394
 4652SOL     OW14854   0.627   0.746   2.088 -0.0878  0.0776  0.1972
 4652SOL    HW114855   0.664   0.739   2.181 -3.0695  2.0941  1.6957
 4652SOL    HW214856   0.613   0.654   2.051  0.6295 -0.7972  1.9728
 4653SOL     OW14857   0.840   5.816   4.654  0.3096  0.1264  0.0307
 4653SOL    HW114858   0.856   5.872   4.573 -3.5619  1.2810 -0.1006
 4653SOL    HW214859   0.858   5.871   4.736  0.5677  0.1612 -0.0463
 4654SOL     OW14860   3.438   6.269   0.014 -0.0866  0.6219 -0.0381
 4654SOL    HW114861   3.524   6.314   0.039 -0.7333  1.7394  0.2527
 4654SOL    HW214862   3.395   6.319  -0.061 -1.7605  1.7000  1.5575
 4655SOL     OW14863   0.822   4.608   5.969 -0.0805 -0.9422  0.0307
 4655SOL    HW114864   0.877   4.565   5.898 -0.4287 -0.4243 -0.5627
 4655SOL    HW214865   0.808   4.543   6.044  0.1760 -1.5466 -0.4348
 4656SOL     OW14866   2.665   1.459   5.934 -0.0054  0.3392 -0.1280
 4656SOL    HW114867   2.585   1.458   5.873 -0.0782 -2.2857 -0.0822
 4656SOL    HW214868   2.640   1.502   6.021 -1.1815  0.1777 -0.3697
 4657SOL     OW14869   0.504   4.907   3.180  0.3315 -0.0026 -0.1265
 4657SOL    HW114870   0.438   4.841   3.144  0.8236  0.4174 -1.9220
 4657SOL    HW214871   0.550   4.869   3.259 -0.9904 -0.8963  0.2413
 4658SOL     OW14872   4.891   6.687   1.650  0.0621  0.0081  0.1149
 4658SOL    HW114873   4.879   6.718   1.556 -0.5306 -2.3572 -0.6748
 4658SOL    HW214874   4.813   6.716   1.705 -1.0615 -1.0005 -0.8786
 4659SOL     OW14875   2.939   2.471   6.655  0.0604  0.5887  0.7250
 4659SOL    HW114876   3.025   2.520   6.666 -0.6213  1.9067  0.3160
 4659SOL    HW214877   2.924   2.412   6.735  1.6964 -0.2635  0.4454
 4660SOL     OW14878   4.045   0.279   0.912 -0.0384 -0.0895 -0.3548
 4660SOL    HW114879   4.133   0.234   0.895 -1.3990 -2.9911 -0.3109
 4660SOL    HW214880   4.028   0.282   1.010  0.0043  0.5255 -0.3613
 4661SOL     OW14881   5.667   1.741   5.816  0.4743 -0.1727 -0.6863
 4661SOL    HW114882   5.757   1.773   5.785  0.9322  0.7162  1.4373
 4661SOL    HW214883   5.607   1.819   5.831  1.2034 -0.1747  3.3377
 4662SOL     OW14884   6.975   2.052   4.413  0.4704 -0.6117 -0.2833
 4662SOL    HW114885   7.019   2.103   4.486 -1.2030  0.6626 -0.0975
 4662SOL    HW214886   6.957   1.958   4.443  2.5799 -1.0315 -0.2266
 4663SOL     OW14887   6.337   1.781   5.307  0.0386  0.6594  0.1738
 4663SOL    HW114888   6.386   1.802   5.223  1.5882 -0.1422  0.8216
 4663SOL    HW214889   6.403   1.765   5.381 -1.1774 -0.8014  1.0204
 4664SOL     OW14890   3.295   0.513   1.221  0.3508  0.8610  0.4002
 4664SOL    HW114891   3.353   0.572   1.164 -0.8898  1.6335 -0.0946
 4664SOL    HW214892   3.292   0.550   1.314  0.5923  0.8508  0.4137
 4665SOL     OW14893   5.333   5.927   4.686 -0.3841 -0.1754 -0.4226
 4665SOL    HW114894   5.342   5.844   4.630 -0.3335 -0.0921 -0.5386
 4665SOL    HW214895   5.420   5.976   4.687 -0.3429 -0.2560 -0.1441
 4666SOL     OW14896   0.212   4.101   1.266 -0.1132 -0.2072  1.0068
 4666SOL    HW114897   0.296   4.055   1.296 -0.6114 -1.4046  0.6587
 4666SOL    HW214898   0.147   4.032   1.232  0.6550  0.9495 -3.5738
 4667SOL     OW14899   4.148   0.838   3.526  0.4802 -0.2723  0.2180
 4667SOL    HW114900   4.089   0.885   3.592 -0.4080 -0.3861 -0.4784
 4667SOL    HW214901   4.141   0.884   3.438  1.0371 -0.6076 -0.0005
 4668SOL     OW14902   4.983   1.283   2.674  0.1811  0.2758 -0.2561
 4668SOL    HW114903   4.960   1.188   2.695 -1.6187  0.7463  0.0212
 4668SOL    HW214904   5.081   1.289   2.652  0.7426 -1.3257  1.4829
 4669SOL     OW14905   2.492   1.544   0.258  0.7033  0.6676  0.3224
 4669SOL    HW114906   2.402   1.502   0.272  1.0122  0.1192  0.7348
 4669SOL    HW214907   2.559   1.472   0.238  1.2230  0.9706  0.9316
 4670SOL     OW14908   3.602   5.164   0.432  0.5832  0.2529  0.5988
 4670SOL    HW114909   3.519   5.178   0.486  1.6696  2.2029  1.8843
 4670SOL    HW214910   3.622   5.247   0.380  1.3590 -0.4505 -0.2542
 4671SOL     OW14911   5.507   6.886   6.689 -0.5428  0.1293  0.6150
 4671SOL    HW114912   5.497   6.792   6.720 -0.2561 -0.0555  0.1497
 4671SOL    HW214913   5.599   6.919   6.709 -0.5764  0.2434  0.5864
 4672SOL     OW14914   2.541   4.431   0.333 -0.5234 -0.7245  0.0187
 4672SOL    HW114915   2.608   4.380   0.386 -0.4676 -0.0743  0.5848
 4672SOL    HW214916   2.516   4.379   0.251 -0.1456 -1.4538  0.3627
 4673SOL     OW14917   3.456   6.819   0.372 -0.3904 -0.1073  0.3524
 4673SOL    HW114918   3.548   6.823   0.333 -0.5492 -1.4086 -0.2368
 4673SOL    HW214919   3.454   6.866   0.460  0.8871 -0.2390  0.4635
 4674SOL     OW14920   6.902   1.452   2.927  0.6241 -0.4598 -0.5901
 4674SOL    HW114921   6.821   1.495   2.966  1.1753 -0.2562  0.3721
 4674SOL    HW214922   6.984   1.486   2.974  1.1265 -2.0648 -0.2245
 4675SOL     OW14923   4.213   6.736   0.040  0.0572 -0.1561  0.1195
 4675SOL    HW114924   4.263   6.654   0.068  0.6749 -0.1031 -0.7658
 4675SOL    HW214925   4.142   6.711  -0.026  1.5712  0.2090 -1.7451
 4676SOL     OW14926   1.320   0.996   0.643  0.7059  0.4820 -0.8539
 4676SOL    HW114927   1.384   0.926   0.675  0.3389  0.5139 -0.0151
 4676SOL    HW214928   1.340   1.019   0.548  0.9802 -0.5922 -1.0684
 4677SOL     OW14929   0.250   0.447   6.984  0.2490 -0.0723  0.0826
 4677SOL    HW114930   0.281   0.402   6.900  1.6921 -0.2872  0.6978
 4677SOL    HW214931   0.185   0.387   7.030  0.3726 -0.4975 -0.2784
 4678SOL     OW14932   0.001   2.857   3.572  0.2961 -0.0435 -0.3639
 4678SOL    HW114933  -0.074   2.806   3.529  0.3868 -1.1651  0.7439
 4678SOL    HW214934   0.087   2.835   3.525  0.5986 -2.2609  1.0634
 4679SOL     OW14935   3.001   1.635   4.300 -0.3356  0.3411 -1.0381
 4679SOL    HW114936   2.945   1.709   4.261 -0.8891  0.2167 -0.4993
 4679SOL    HW214937   2.971   1.548   4.263 -2.0300  0.0210  0.8431
 4680SOL     OW14938   0.424   5.887   2.788 -0.1479 -0.3147 -0.5384
 4680SOL    HW114939   0.374   5.971   2.770 -2.2647 -1.6364 -1.2158
 4680SOL    HW214940   0.410   5.859   2.883  0.4907  0.0386 -0.3353
 4681SOL     OW14941   6.794   4.027   3.087  0.5571 -0.6260 -0.3002
 4681SOL    HW114942   6.839   4.012   2.998  0.4959  0.6211 -0.5636
 4681SOL    HW214943   6.809   3.948   3.145  2.5005 -0.5701 -0.6363
 4682SOL     OW14944   5.173   3.085   2.327 -0.2693  0.0492 -0.1333
 4682SOL    HW114945   5.236   3.163   2.325 -0.7547  0.4385 -1.0999
 4682SOL    HW214946   5.127   3.077   2.239 -2.7336  0.7475  0.9810
 4683SOL     OW14947   1.832   4.926   5.797 -0.1785  0.0408  0.2136
 4683SOL    HW114948   1.896   4.851   5.780 -0.2443  0.1709 -0.6309
 4683SOL    HW214949   1.738   4.895   5.779 -0.1348  0.5632 -0.9881
 4684SOL     OW14950   2.156   3.702   6.574  0.5908 -0.2685  0.1211
 4684SOL    HW114951   2.164   3.646   6.657 -0.6108  0.4695  0.7644
 4684SOL    HW214952   2.068   3.748   6.574  0.3309 -0.6897 -1.8673
 4685SOL     OW14953   3.049   3.940   2.703 -0.4162 -0.1090 -0.1868
 4685SOL    HW114954   2.984   3.887   2.648 -1.4494  1.6334 -0.7608
 4685SOL    HW214955   3.120   3.978   2.643 -0.5297  0.3391 -0.0428
 4686SOL     OW14956   1.391   4.219   3.092  0.9742 -0.2092 -0.2768
 4686SOL    HW114957   1.292   4.221   3.107  0.8462  0.6127 -1.1259
 4686SOL    HW214958   1.428   4.134   3.130  0.3163  0.4915  2.1754
 4687SOL     OW14959   4.123   3.620   3.684 -0.2379 -0.0058  0.8782
 4687SOL    HW114960   4.082   3.667   3.606 -0.7763 -1.4299  0.2633
 4687SOL    HW214961   4.222   3.616   3.672  0.2715  3.6006  2.4485
 4688SOL     OW14962   1.563   1.409   0.906  0.0474  0.5131  0.5088
 4688SOL    HW114963   1.534   1.332   0.850 -1.8463  1.1442  0.5754
 4688SOL    HW214964   1.485   1.469   0.926  1.1673  1.6703  1.6950
 4689SOL     OW14965   5.345   3.881   1.857 -0.1070  0.2351 -0.0749
 4689SOL    HW114966   5.301   3.793   1.839 -1.1440  0.8231 -0.4729
 4689SOL    HW214967   5.443   3.866   1.872 -0.3344 -1.0290  0.2796
 4690SOL     OW14968   1.842   5.668   5.564  0.1122 -0.4567  0.0900
 4690SOL    HW114969   1.909   5.726   5.610 -0.2450 -1.4819  1.9925
 4690SOL    HW214970   1.750   5.694   5.590 -0.0778 -1.4284  0.4497
 4691SOL     OW14971   2.266   1.323   3.018 -0.5216 -0.8397 -0.2454
 4691SOL    HW114972   2.271   1.389   2.943 -2.7534 -0.9493 -0.5357
 4691SOL    HW214973   2.324   1.354   3.093  2.0526 -0.8929 -2.0604
 4692SOL     OW14974   0.199   5.178   3.585  0.4180 -0.5309 -0.1537
 4692SOL    HW114975   0.161   5.096   3.542  0.3367  0.1172 -1.3699
 4692SOL    HW214976   0.125   5.235   3.619  0.4376 -0.5775 -0.0322
 4693SOL     OW14977   5.383   3.973   0.543 -0.2697  0.4831  0.3184
 4693SOL    HW114978   5.463   3.951   0.598 -1.4489  0.2879  2.0129
 4693SOL    HW214979   5.396   4.061   0.498 -0.0053  1.5880  2.4417
 4694SOL     OW14980   6.671   1.632   4.139  0.3292  0.1619  0.1008
 4694SOL    HW114981   6.633   1.551   4.183 -2.9824  1.2406 -0.5477
 4694SOL    HW214982   6.710   1.607   4.051 -0.4432 -0.7734  0.0100
 4695SOL     OW14983   4.388   2.404   5.501 -0.0507 -0.6110  0.1847
 4695SOL    HW114984   4.387   2.504   5.509  0.7658 -0.7052  1.8139
 4695SOL    HW214985   4.423   2.378   5.411  2.6938  0.5577  0.8232
 4696SOL     OW14986   3.733   5.216   2.143 -0.1676  0.3161 -0.1602
 4696SOL    HW114987   3.810   5.174   2.191 -0.6954  0.7805  1.1463
 4696SOL    HW214988   3.730   5.314   2.164 -1.0897  0.3158 -0.2221
 4697SOL     OW14989   0.474   0.824   5.113 -0.8118  0.1178 -0.0248
 4697SOL    HW114990   0.437   0.880   5.187 -0.0294  0.3492  0.2073
 4697SOL    HW214991   0.571   0.805   5.132 -0.9858 -1.0897 -0.2257
 4698SOL     OW14992   1.951   4.722   5.675  0.7269 -0.1520  0.4336
 4698SOL    HW114993   1.976   4.701   5.581  0.7251  0.6975  0.2276
 4698SOL    HW214994   1.904   4.644   5.716 -1.4790  0.2928 -1.0644
 4699SOL     OW14995   1.681   5.417   6.268  0.0005 -0.0967  0.1446
 4699SOL    HW114996   1.641   5.509   6.269  1.5678  0.6027  0.9507
 4699SOL    HW214997   1.777   5.422   6.293  0.7363 -1.6890 -2.0845
 4700SOL     OW14998   4.047   2.782   6.016 -0.2800 -0.4615 -0.5478
 4700SOL    HW114999   4.023   2.693   6.056  2.0221 -0.2868  1.4183
 4700SOL    HW215000   4.003   2.855   6.069 -0.3068 -0.3489 -0.7252
 4701SOL     OW15001   5.697   5.670   3.702  0.0519  0.4299  0.6155
 4701SOL    HW115002   5.773   5.731   3.681  0.9194 -1.1505 -1.1620
 4701SOL    HW215003   5.727   5.602   3.770  0.6885 -0.9197 -0.9453
 4702SOL     OW15004   3.759   3.245   1.911  0.0392  0.1915 -0.5364
 4702SOL    HW115005   3.716   3.216   1.825  0.3966  0.8946 -0.9633
 4702SOL    HW215006   3.802   3.334   1.898  0.6143  0.0337  0.2140
 4703SOL     OW15007   6.187   6.983   2.384 -0.3988 -0.5458  0.0034
 4703SOL    HW115008   6.101   6.937   2.407 -0.9708 -1.0615 -2.7603
 4703SOL    HW215009   6.223   6.945   2.299  1.7600  0.7628  0.2614
 4704SOL     OW15010   3.072   4.141   0.071 -0.7542  0.3831 -0.8396
 4704SOL    HW115011   3.041   4.177  -0.017 -1.2588 -0.0815 -0.8603
 4704SOL    HW215012   3.169   4.161   0.083 -0.9805  1.5782 -0.9280
 4705SOL     OW15013   4.605   6.661   1.442  0.4196 -0.6778  0.3441
 4705SOL    HW115014   4.632   6.567   1.419  0.1357 -0.5501 -0.5696
 4705SOL    HW215015   4.604   6.672   1.541  1.5994 -1.2976  0.4377
 4706SOL     OW15016   3.926   1.620   0.197 -0.2546 -0.1149 -0.4597
 4706SOL    HW115017   3.982   1.693   0.158 -1.1111  0.4887 -0.6013
 4706SOL    HW215018   3.896   1.648   0.289  0.6114 -0.9314  0.0938
 4707SOL     OW15019   0.611   4.089   3.789 -0.1609 -0.6907  0.7089
 4707SOL    HW115020   0.553   4.157   3.743 -1.0910 -0.4961  2.1207
 4707SOL    HW215021   0.672   4.135   3.854 -1.4624 -1.2343  2.3804
 4708SOL     OW15022   5.402   5.404   3.472  0.2781  0.2490 -0.2032
 4708SOL    HW115023   5.369   5.439   3.384  0.4365 -1.1319 -0.8347
 4708SOL    HW215024   5.490   5.360   3.460 -0.8374 -2.2466  0.0969
 4709SOL     OW15025   5.883   4.575   5.200  0.0373 -0.0223 -0.0854
 4709SOL    HW115026   5.958   4.539   5.257 -1.4552 -0.0073  2.0048
 4709SOL    HW215027   5.848   4.659   5.241 -1.8025 -0.6035 -0.4045
 4710SOL     OW15028   2.418   1.033   2.694  0.1423  0.1957  0.5040
 4710SOL    HW115029   2.510   0.995   2.708  0.7704  1.3525 -0.3341
 4710SOL    HW215030   2.382   1.004   2.606  1.2502  2.5872 -0.8581
 4711SOL     OW15031   6.487   4.589   5.102 -0.0432  0.3283 -0.1174
 4711SOL    HW115032   6.580   4.562   5.128 -0.2047 -1.3457 -1.2090
 4711SOL    HW215033   6.424   4.514   5.121 -0.8129  0.6068 -1.4897
 4712SOL     OW15034   0.489   0.607   3.138 -0.0417 -0.8104 -0.2267
 4712SOL    HW115035   0.438   0.672   3.082  1.5572  0.6829 -0.0370
 4712SOL    HW215036   0.447   0.600   3.228 -0.5275 -0.4251 -0.4159
 4713SOL     OW15037   5.563   3.751   4.920 -0.0028 -0.4205  0.1149
 4713SOL    HW115038   5.638   3.742   4.855  0.3545  0.9285  0.3229
 4713SOL    HW215039   5.567   3.840   4.964 -1.5659 -0.4390  0.3478
 4714SOL     OW15040   0.365   0.997   5.301  0.2132  0.7087 -0.3752
 4714SOL    HW115041   0.336   0.919   5.356  0.8443 -0.3364 -1.4835
 4714SOL    HW215042   0.285   1.049   5.272 -0.1294  1.2684  1.4783
 4715SOL     OW15043   1.303   1.516   3.471 -0.7560 -0.1706  0.0114
 4715SOL    HW115044   1.220   1.524   3.415 -0.2699 -2.5301 -1.1491
 4715SOL    HW215045   1.287   1.451   3.545 -0.2121  0.0500  0.3293
 4716SOL     OW15046   6.864   3.600   3.460  0.4231 -0.0038 -0.1914
 4716SOL    HW115047   6.929   3.530   3.490 -0.2753 -1.2479 -1.4371
 4716SOL    HW215048   6.789   3.556   3.410 -1.9346  1.2480  2.0375
 4717SOL     OW15049   5.442   5.663   3.829  0.1552 -0.1143  0.2158
 4717SOL    HW115050   5.447   5.563   3.831  0.2304 -0.1310  2.9141
 4717SOL    HW215051   5.518   5.699   3.774  0.0653 -1.5196 -0.8752
 4718SOL     OW15052   1.855   3.225   6.153 -0.6413 -0.7098 -0.1297
 4718SOL    HW115053   1.851   3.245   6.251  0.7315 -2.0398  0.2450
 4718SOL    HW215054   1.825   3.304   6.101 -3.3164 -0.6113  1.3921
 4719SOL     OW15055   4.465   3.277   0.505  0.1075  0.1413 -0.2891
 4719SOL    HW115056   4.450   3.217   0.426 -3.8106  2.3654 -1.5318
 4719SOL    HW215057   4.405   3.248   0.579  0.0078  1.0410 -0.0105
 4720SOL     OW15058   1.112   0.211   2.957 -0.3368  0.3026  0.5835
 4720SOL    HW115059   1.134   0.125   2.912 -0.8990  0.4331  0.0506
 4720SOL    HW215060   1.022   0.243   2.926  0.0931  1.3448  0.3886
 4721SOL     OW15061   0.626   1.808   4.808 -0.2489  0.1812  0.1468
 4721SOL    HW115062   0.537   1.813   4.852  0.5732  1.0128  1.8268
 4721SOL    HW215063   0.676   1.894   4.824  0.6004 -0.0024 -1.3345
 4722SOL     OW15064   6.362   0.672   0.140  0.1191  0.4947 -0.4005
 4722SOL    HW115065   6.328   0.690   0.047  2.7010 -1.1059 -1.7768
 4722SOL    HW215066   6.394   0.578   0.146  3.2037  1.5025  1.0024
 4723SOL     OW15067   5.207   4.307   5.092  0.2647  0.0536  0.2964
 4723SOL    HW115068   5.248   4.379   5.034  1.0063 -0.8263 -0.2975
 4723SOL    HW215069   5.175   4.232   5.034  0.0926 -0.3945  0.9642
 4724SOL     OW15070   3.259   3.197   3.570 -0.4668 -0.3707 -0.3081
 4724SOL    HW115071   3.302   3.220   3.657  0.1598  0.6938 -0.8815
 4724SOL    HW215072   3.310   3.239   3.495 -2.2224  0.5778 -1.0402
 4725SOL     OW15073   4.040   1.854   0.065 -0.3002 -0.1509 -0.2110
 4725SOL    HW115074   4.101   1.823  -0.007  0.9427  1.6035  0.0421
 4725SOL    HW215075   4.031   1.954   0.062 -2.3438 -0.2521  0.4195
 4726SOL     OW15076   2.138   0.220   3.521  0.3197 -0.2507  0.4544
 4726SOL    HW115077   2.091   0.131   3.524  1.4584 -0.8559  0.8676
 4726SOL    HW215078   2.127   0.260   3.430 -0.0377 -0.8965  0.2037
 4727SOL     OW15079   5.222   1.218   5.520 -0.5355  0.6578 -0.3981
 4727SOL    HW115080   5.262   1.163   5.447  0.8266  1.1160 -0.0330
 4727SOL    HW215081   5.130   1.185   5.542  0.3649 -1.6864  0.0618
 4728SOL     OW15082   4.332   6.481   6.362  0.5951  0.1768 -0.1049
 4728SOL    HW115083   4.275   6.555   6.396 -0.1319  0.8957 -2.6389
 4728SOL    HW215084   4.316   6.399   6.416 -0.6588  1.1311  1.0468
 4729SOL     OW15085   0.580   0.586   0.297 -0.1950  0.1513  0.5329
 4729SOL    HW115086   0.534   0.534   0.225  0.2811 -0.8264  0.9237
 4729SOL    HW215087   0.619   0.669   0.257 -0.9259  0.2092 -0.1045
 4730SOL     OW15088   4.884   6.056   1.236 -0.0381  0.0856  0.3305
 4730SOL    HW115089   4.807   6.039   1.297 -0.0307 -0.9366  0.0791
 4730SOL    HW215090   4.954   6.108   1.284 -0.3077 -0.1498  0.9905
 4731SOL     OW15091   5.433   4.165   6.207  0.2174 -0.6587  0.2106
 4731SOL    HW115092   5.455   4.248   6.155 -0.3577 -1.1278 -0.8091
 4731SOL    HW215093   5.360   4.185   6.273 -0.2221 -0.4513 -0.3352
 4732SOL     OW15094   1.821   2.091   4.843  0.0126 -0.3887  0.1733
 4732SOL    HW115095   1.736   2.117   4.798  1.2765  0.9882 -1.6090
 4732SOL    HW215096   1.877   2.173   4.858  1.7651 -1.4255 -0.3856
 4733SOL     OW15097   5.793   5.069   1.533 -0.0343 -0.4509 -0.2481
 4733SOL    HW115098   5.836   5.138   1.474 -0.6410 -0.2852 -0.4977
 4733SOL    HW215099   5.804   4.979   1.491  0.9165 -0.5489  0.1651
 4734SOL     OW15100   6.616   0.908   5.065  0.1724 -0.8884 -0.5404
 4734SOL    HW115101   6.684   0.840   5.093  0.3862 -0.7277 -0.6683
 4734SOL    HW215102   6.613   0.981   5.133  1.3067 -0.0561 -1.3317
 4735SOL     OW15103   4.898   2.875   5.955  0.2351 -0.0324  0.2078
 4735SOL    HW115104   4.853   2.823   6.028 -0.1982  0.7286  0.4953
 4735SOL    HW215105   4.832   2.936   5.912  1.2836  2.4649  1.8549
 4736SOL     OW15106   6.969   0.929   3.694 -0.3920 -0.5946 -0.0572
 4736SOL    HW115107   6.877   0.893   3.684 -0.8996 -0.8529  3.8865
 4736SOL    HW215108   7.033   0.854   3.710  0.0159 -0.2571 -0.0767
 4737SOL     OW15109   5.408   4.713   4.442 -0.2815 -0.0216 -0.1277
 4737SOL    HW115110   5.503   4.728   4.415 -0.3040 -1.1609 -0.8725
 4737SOL    HW215111   5.348   4.771   4.386 -0.0907  0.1193 -0.1873
 4738SOL     OW15112   0.752   0.664   6.907 -0.2413 -0.0961 -0.2271
 4738SOL    HW115113   0.694   0.697   6.981  1.2450  0.5164  0.7136
 4738SOL    HW215114   0.840   0.711   6.911 -0.5656  0.9668 -3.2230
 4739SOL     OW15115   2.239   2.850   2.266 -0.1287 -0.1671  0.0456
 4739SOL    HW115116   2.220   2.882   2.173 -0.2874  0.4657  0.2909
 4739SOL    HW215117   2.217   2.922   2.331  0.1442 -0.5474  0.5660
 4740SOL     OW15118   1.538   2.875   4.527  0.0690  1.2071  0.0147
 4740SOL    HW115119   1.506   2.962   4.491 -1.8812  0.8830  0.8538
 4740SOL    HW215120   1.598   2.891   4.605 -1.3621  1.8325  1.0288
 4741SOL     OW15121   1.056   0.120   4.619 -0.1245 -0.2423 -0.2869
 4741SOL    HW115122   1.035   0.073   4.704 -1.9039  0.2034 -0.4358
 4741SOL    HW215123   1.028   0.216   4.626  0.7942  0.0872 -0.9754
 4742SOL     OW15124   5.970   4.956   2.892 -0.3997  0.0728 -0.3157
 4742SOL    HW115125   5.934   4.967   2.800 -1.3306 -0.0666  0.0184
 4742SOL    HW215126   5.905   4.905   2.948  0.2708 -0.0847  0.3489
 4743SOL     OW15127   3.279   0.140   3.326 -0.1356 -0.0851 -0.1234
 4743SOL    HW115128   3.285   0.200   3.406  0.7140  0.5207 -0.6190
 4743SOL    HW215129   3.183   0.134   3.297 -0.5381 -0.7724  1.2535
 4744SOL     OW15130   5.209   0.167   3.068  0.4327  0.0370 -0.0115
 4744SOL    HW115131   5.258   0.243   3.024  1.7105 -0.3470  0.6921
 4744SOL    HW215132   5.268   0.125   3.137 -0.0770 -1.9087 -0.7106
 4745SOL     OW15133   2.874   3.438   3.635  0.5019  0.0252 -0.1518
 4745SOL    HW115134   2.942   3.440   3.708  0.7255  0.6013 -0.3701
 4745SOL    HW215135   2.782   3.449   3.673  0.5146 -0.7887  0.1476
 4746SOL     OW15136   6.626   1.948   6.973 -0.0857 -0.4881  0.2669
 4746SOL    HW115137   6.596   1.939   7.068  1.6496  0.4384  0.9474
 4746SOL    HW215138   6.707   2.006   6.969 -0.3820 -0.1321 -1.8520
 4747SOL     OW15139   1.670   6.516   3.926  0.3860 -0.2306  0.3068
 4747SOL    HW115140   1.594   6.564   3.884  1.5979  0.5963 -1.0377
 4747SOL    HW215141   1.689   6.554   4.016 -0.3578  0.0019  0.3667
 4748SOL     OW15142   0.494   0.941   4.354 -0.2841 -0.0847  1.0579
 4748SOL    HW115143   0.409   0.896   4.380 -1.2072  0.3106 -1.0795
 4748SOL    HW215144   0.568   0.874   4.354 -0.8790 -0.7555  1.5711
 4749SOL     OW15145   5.687   6.952   0.858  0.6730  0.1391 -0.5698
 4749SOL    HW115146   5.681   6.859   0.893 -1.2373  0.0374 -1.0115
 4749SOL    HW215147   5.702   6.949   0.759 -0.6010  0.2330 -0.7863
 4750SOL     OW15148   3.751   3.149   0.467 -0.0247  0.5322  0.2736
 4750SOL    HW115149   3.811   3.103   0.533  0.7227  0.5751 -0.3543
 4750SOL    HW215150   3.659   3.156   0.505  0.3528  0.4322  1.2505
 4751SOL     OW15151   6.378   4.508   5.682  0.4275 -0.0205 -0.5320
 4751SOL    HW115152   6.443   4.446   5.727 -0.4117  0.1990  1.0818
 4751SOL    HW215153   6.410   4.602   5.691  0.0049  0.0728  0.1248
 4752SOL     OW15154   2.136   5.178   5.842 -0.3040  0.2190  0.2857
 4752SOL    HW115155   2.137   5.227   5.929  2.1643  0.1319  0.3768
 4752SOL    HW215156   2.046   5.139   5.826 -1.1338  1.2647  2.2139
 4753SOL     OW15157   6.785   2.788   3.799  0.5077  0.8771  0.1611
 4753SOL    HW115158   6.721   2.722   3.762 -0.6835  0.9216  1.9835
 4753SOL    HW215159   6.879   2.762   3.775 -0.0760 -0.0728 -1.2013
 4754SOL     OW15160   2.968   0.250   1.383  0.2160 -0.0711 -0.3291
 4754SOL    HW115161   2.898   0.228   1.451 -1.8920  1.1616 -1.9654
 4754SOL    HW215162   2.957   0.190   1.304  1.9680 -0.7944 -0.0646
 4755SOL     OW15163   4.502   6.260   3.956 -0.7333  0.1463 -0.7212
 4755SOL    HW115164   4.559   6.247   3.874 -1.2893  0.2553 -1.1309
 4755SOL    HW215165   4.406   6.268   3.929 -1.1727 -1.8140  0.1064
 4756SOL     OW15166   6.994   3.043   0.142 -0.8282  0.2796  0.0948
 4756SOL    HW115167   6.972   2.991   0.060  1.6932 -0.5361 -0.1450
 4756SOL    HW215168   7.026   3.134   0.116 -1.9492  0.7654  0.3348
 4757SOL     OW15169   5.676   1.369   6.066  0.1475 -0.3489 -0.5711
 4757SOL    HW115170   5.602   1.435   6.056 -0.8244 -1.1152  1.1893
 4757SOL    HW215171   5.642   1.286   6.110  2.3907  0.0162  2.1234
 4758SOL     OW15172   2.567   5.395   3.757 -0.4943  0.1085 -0.6319
 4758SOL    HW115173   2.520   5.415   3.670  1.5915  2.7402 -1.2853
 4758SOL    HW215174   2.510   5.427   3.833 -1.3110 -0.0387 -1.1607
 4759SOL     OW15175   2.742   0.162   6.081 -0.0694 -0.1719  0.0710
 4759SOL    HW115176   2.786   0.124   5.999 -0.7768 -1.9871  0.4846
 4759SOL    HW215177   2.754   0.099   6.158 -1.2039  0.5178  0.8470
 4760SOL     OW15178   5.430   0.317   2.378 -0.3654 -0.3205  0.2880
 4760SOL    HW115179   5.525   0.321   2.409  0.4422 -0.7953 -1.9195
 4760SOL    HW215180   5.418   0.378   2.300 -2.1041  0.2956  0.9879
 4761SOL     OW15181   3.063   3.898   3.218 -0.3111  0.0708 -0.0439
 4761SOL    HW115182   3.036   3.865   3.128  0.2948  2.1475 -1.0569
 4761SOL    HW215183   3.131   3.836   3.258  0.0471 -0.4356 -1.4012
 4762SOL     OW15184   5.427   2.054   2.143 -0.0215 -0.5778 -0.1228
 4762SOL    HW115185   5.414   2.150   2.118  1.4287 -0.5189 -0.7827
 4762SOL    HW215186   5.346   2.001   2.119 -0.5126  0.3378 -0.5076
 4763SOL     OW15187   2.221   5.557   0.827  0.0207 -0.4923  0.7925
 4763SOL    HW115188   2.240   5.587   0.733 -2.4111  0.4646  0.5205
 4763SOL    HW215189   2.147   5.490   0.826 -0.3074 -0.1762  2.0272
 4764SOL     OW15190   2.185   2.940   5.927  0.1762 -0.0204  0.5394
 4764SOL    HW115191   2.186   2.999   5.846 -0.7470  0.5906  0.9589
 4764SOL    HW215192   2.181   2.844   5.899 -0.9931  0.2136 -0.1520
 4765SOL     OW15193   6.894   3.918   2.246 -0.4145 -0.3292  0.1676
 4765SOL    HW115194   6.918   3.821   2.254  2.8546  0.3639  0.3761
 4765SOL    HW215195   6.973   3.974   2.273 -1.8681  2.4031 -0.8366
 4766SOL     OW15196   6.406   5.922   3.974 -0.2426 -0.2962 -0.3547
 4766SOL    HW115197   6.407   5.878   4.064  1.2345 -0.2783 -0.3461
 4766SOL    HW215198   6.315   5.960   3.957 -0.1003  1.2306  1.8698
 4767SOL     OW15199   0.172   5.027   5.415  0.6542  0.0751  0.1623
 4767SOL    HW115200   0.268   5.002   5.432  1.3804  1.0878 -2.0461
 4767SOL    HW215201   0.169   5.110   5.360 -1.4624 -0.7428 -1.0605
 4768SOL     OW15202   6.595   0.423   6.119 -0.2627  0.2127  0.0200
 4768SOL    HW115203   6.528   0.356   6.153 -0.3923  1.0116  1.4213
 4768SOL    HW215204   6.582   0.436   6.021 -1.0142 -0.9283 -0.0576
 4769SOL     OW15205   1.642   3.177   2.355 -0.4068  0.5543 -0.2615
 4769SOL    HW115206   1.634   3.250   2.424  1.0520 -0.7856  1.4242
 4769SOL    HW215207   1.700   3.209   2.280  0.9066  0.9018  0.8519
 4770SOL     OW15208   0.195   6.494   6.411 -0.7110 -0.0457 -0.2957
 4770SOL    HW115209   0.173   6.583   6.450 -2.4096 -0.8096  0.5734
 4770SOL    HW215210   0.295   6.483   6.406 -0.4821  1.3448  0.8398
 4771SOL     OW15211   6.132   6.158   2.015 -0.0564 -0.1376 -0.0058
 4771SOL    HW115212   6.104   6.249   1.984 -1.4366 -0.9187 -1.1638
 4771SOL    HW215213   6.184   6.166   2.100  0.6750  1.8001 -0.5722
 4772SOL     OW15214   5.565   1.138   6.155 -0.1231  0.1479 -0.4564
 4772SOL    HW115215   5.477   1.102   6.188  0.0243 -0.2957 -0.5446
 4772SOL    HW215216   5.591   1.090   6.071  1.2400 -1.2483  0.6908
 4773SOL     OW15217   1.431   1.334   6.339  0.8386  0.3998 -0.2110
 4773SOL    HW115218   1.367   1.372   6.273  1.1469  0.9578 -0.2008
 4773SOL    HW215219   1.518   1.383   6.333  0.7616  0.6849  0.8421
 4774SOL     OW15220   2.445   1.776   0.380  0.2207  0.1827 -0.2682
 4774SOL    HW115221   2.376   1.798   0.449  0.3062 -0.1304 -0.0817
 4774SOL    HW215222   2.421   1.690   0.334 -0.1203  0.6683 -1.0029
 4775SOL     OW15223   6.563   3.451   3.694  0.0711  0.4028  0.2302
 4775SOL    HW115224   6.479   3.409   3.728  0.6866  0.0594  1.3534
 4775SOL    HW215225   6.588   3.409   3.607 -0.3497 -0.2274  0.4073
 4776SOL     OW15226   1.384   4.806   6.218 -0.0229  0.2692  0.0502
 4776SOL    HW115227   1.449   4.818   6.142 -0.2300 -1.0024 -0.3501
 4776SOL    HW215228   1.434   4.783   6.301  0.1989  1.5813  0.3044
 4777SOL     OW15229   2.646   1.199   5.019 -0.3255 -0.5315 -0.0652
 4777SOL    HW115230   2.603   1.119   4.976  0.4533  0.4058 -2.7615
 4777SOL    HW215231   2.613   1.282   4.974 -1.0942  0.7316  2.6577
 4778SOL     OW15232   1.110   4.737   5.326 -0.0887 -0.6807 -0.3270
 4778SOL    HW115233   1.075   4.741   5.420 -0.9721  1.8073 -0.6845
 4778SOL    HW215234   1.208   4.718   5.327 -0.0988 -0.7570  1.0999
 4779SOL     OW15235   3.569   2.205   5.657 -0.5715 -0.2670 -0.3351
 4779SOL    HW115236   3.572   2.235   5.752 -1.3820  1.2624 -0.7511
 4779SOL    HW215237   3.601   2.278   5.598 -0.0416 -1.2102 -1.2490
 4780SOL     OW15238   3.825   4.419   5.329  0.2467  0.2230  0.0714
 4780SOL    HW115239   3.913   4.373   5.333 -0.1457 -0.4793  0.9786
 4780SOL    HW215240   3.762   4.367   5.271  0.2373  0.3990 -0.0797
 4781SOL     OW15241   1.293   4.426   1.154 -0.5079 -0.0287 -0.2009
 4781SOL    HW115242   1.341   4.420   1.066  0.8265  0.2788  0.4861
 4781SOL    HW215243   1.226   4.501   1.150  0.2625  0.6573 -0.6311
 4782SOL     OW15244   2.826   4.732   3.594 -0.0512 -0.9578 -0.1996
 4782SOL    HW115245   2.858   4.745   3.500 -0.6470  0.6953 -0.2127
 4782SOL    HW215246   2.807   4.821   3.635 -1.5963 -1.7243  0.8610
 4783SOL     OW15247   1.827   3.742   3.632 -0.2219 -0.3799 -0.3065
 4783SOL    HW115248   1.766   3.703   3.701  0.1938  0.1441  0.3740
 4783SOL    HW215249   1.887   3.810   3.675  0.6351 -0.6626 -1.0176
 4784SOL     OW15250   3.171   6.401   1.377  0.2563  0.4213 -0.1469
 4784SOL    HW115251   3.122   6.419   1.292  1.6464 -1.4172 -1.4189
 4784SOL    HW215252   3.118   6.338   1.434  0.7600 -1.0251 -1.2151
 4785SOL     OW15253   0.402   2.894   4.879  0.6886  0.2095  0.1321
 4785SOL    HW115254   0.414   2.807   4.832  0.1119 -0.2455  0.8230
 4785SOL    HW215255   0.360   2.879   4.968  2.6993  0.9704  1.2565
 4786SOL     OW15256   4.095   3.356   3.035 -0.0082 -0.3590  0.5177
 4786SOL    HW115257   3.999   3.381   3.023 -0.1894 -1.0250  0.5480
 4786SOL    HW215258   4.130   3.398   3.118 -0.0299  0.5880  0.0544
 4787SOL     OW15259   6.234   2.440   6.396 -0.3708  0.4506 -0.2416
 4787SOL    HW115260   6.278   2.355   6.424  0.2294  0.6825 -0.4488
 4787SOL    HW215261   6.232   2.445   6.296  1.0314  1.3682 -0.2604
 4788SOL     OW15262   2.462   5.045   3.095 -0.4507  0.4087  0.6846
 4788SOL    HW115263   2.400   5.102   3.041 -2.0613 -0.6732  1.3022
 4788SOL    HW215264   2.476   5.086   3.185  1.1541  1.5210 -0.0243
 4789SOL     OW15265   0.415   3.220   5.417 -1.0223 -0.8387  0.0967
 4789SOL    HW115266   0.425   3.127   5.380  1.7839 -1.1005  1.2464
 4789SOL    HW215267   0.447   3.286   5.350 -0.9368 -0.8766  0.1002
 4790SOL     OW15268   6.843   2.924   4.352  0.0382  0.5027 -0.1285
 4790SOL    HW115269   6.881   3.010   4.318 -2.9611  2.1326  0.2747
 4790SOL    HW215270   6.840   2.926   4.452  1.8815 -1.0578  0.0164
 4791SOL     OW15271   4.859   1.258   2.980 -0.2028  0.3672 -0.2172
 4791SOL    HW115272   4.942   1.287   2.932 -0.0895 -0.1664 -0.3473
 4791SOL    HW215273   4.804   1.339   3.002 -0.3942  0.6162 -1.4902
 4792SOL     OW15274   2.386   6.821   2.642  0.3089 -0.0839 -0.1095
 4792SOL    HW115275   2.399   6.893   2.575  2.7897  1.0417  1.4512
 4792SOL    HW215276   2.452   6.748   2.627  1.2219  0.4070  1.3343
 4793SOL     OW15277   0.454   1.259   6.693  0.2519  0.3221 -0.5478
 4793SOL    HW115278   0.508   1.338   6.723  0.3186 -0.1411  0.6257
 4793SOL    HW215279   0.511   1.199   6.638  0.2468  0.9952 -1.3148
 4794SOL     OW15280   3.368   2.255   0.098 -0.1433  0.5124 -0.5100
 4794SOL    HW115281   3.290   2.294   0.147  1.2090  0.9685  1.3879
 4794SOL    HW215282   3.450   2.260   0.156  0.9465 -1.5068 -1.7669
 4795SOL     OW15283   1.491   2.014   5.257  0.6290 -0.1779  0.2911
 4795SOL    HW115284   1.482   2.113   5.267  1.6810 -0.0732  0.2762
 4795SOL    HW215285   1.429   1.982   5.185 -1.5282  0.1041  1.9427
 4796SOL     OW15286   5.324   6.673   3.518  0.3139  0.0475  0.3226
 4796SOL    HW115287   5.225   6.677   3.526  0.4245  1.4516  1.4841
 4796SOL    HW215288   5.355   6.578   3.527 -0.9017 -0.3844  0.0449
 4797SOL     OW15289   4.356   4.002   1.680 -0.1400 -0.0531 -0.2510
 4797SOL    HW115290   4.387   4.079   1.737 -0.9970  0.6639 -0.7234
 4797SOL    HW215291   4.429   3.934   1.673  0.6196  0.6933  0.2260
 4798SOL     OW15292   6.783   4.484   1.904 -0.0390  0.4068 -0.3134
 4798SOL    HW115293   6.778   4.387   1.880  2.1574 -0.1522  1.1626
 4798SOL    HW215294   6.742   4.498   1.994 -0.2687  0.8405 -0.4826
 4799SOL     OW15295   1.361   2.958   6.947 -0.3358 -0.1731  0.2924
 4799SOL    HW115296   1.432   2.924   7.009 -0.1753  2.5524  1.7444
 4799SOL    HW215297   1.404   3.008   6.872 -0.6517 -0.5897 -0.1689
 4800SOL     OW15298   0.022   2.495   6.448 -0.0364 -0.1216 -1.3558
 4800SOL    HW115299   0.067   2.532   6.530  0.6884  0.8000 -2.1404
 4800SOL    HW215300   0.048   2.399   6.436  0.7502  0.0587 -1.1287
 4801SOL     OW15301   3.345   1.097   0.586 -0.2529 -0.3631  0.5499
 4801SOL    HW115302   3.330   1.196   0.587 -0.1649 -0.3423  1.6992
 4801SOL    HW215303   3.443   1.078   0.577 -0.2228 -0.3286  0.7895
 4802SOL     OW15304   1.837   3.641   1.826 -0.5531  0.3723 -0.4429
 4802SOL    HW115305   1.805   3.696   1.749 -0.9316  2.3843  1.0616
 4802SOL    HW215306   1.765   3.636   1.895  0.4353  0.2312  0.6043
 4803SOL     OW15307   3.926   6.988   5.931  0.2611  0.6177  0.2527
 4803SOL    HW115308   3.929   6.888   5.927 -0.6303  0.5781  0.4596
 4803SOL    HW215309   3.942   7.025   5.839  1.1104  0.3091  0.2682
 4804SOL     OW15310   4.099   6.620   6.814  0.0630 -0.3994 -0.2181
 4804SOL    HW115311   4.108   6.700   6.755 -0.9763  1.7041  2.3098
 4804SOL    HW215312   4.012   6.574   6.795  0.6107 -0.9436 -1.5912
 4805SOL     OW15313   1.145   2.843   4.854 -0.0629  0.6442  0.7253
 4805SOL    HW115314   1.167   2.771   4.788 -2.2118 -0.4118  1.0784
 4805SOL    HW215315   1.209   2.838   4.931 -1.2527 -2.1540  1.6519
 4806SOL     OW15316   2.220   1.077   6.034  0.2200  0.2202 -0.4680
 4806SOL    HW115317   2.294   1.058   5.969  0.2983  0.5604 -0.4826
 4806SOL    HW215318   2.159   0.999   6.039  0.1576  0.2297 -1.0260
 4807SOL     OW15319   0.197   4.887   3.806 -0.4523 -0.6104  0.2137
 4807SOL    HW115320   0.239   4.804   3.841 -0.6609 -0.2714  1.2841
 4807SOL    HW215321   0.231   4.966   3.856 -0.4021 -0.0549 -0.6651
 4808SOL     OW15322   5.751   6.950   1.467 -0.0614 -0.4913  0.8341
 4808SOL    HW115323   5.788   7.029   1.419 -0.4534 -0.3473  0.7642
 4808SOL    HW215324   5.651   6.956   1.469 -0.1810 -1.6496 -0.3140
 4809SOL     OW15325   4.806   1.386   6.550  0.0120  0.2832 -0.7708
 4809SOL    HW115326   4.849   1.476   6.559  1.0124 -0.1723 -0.8101
 4809SOL    HW215327   4.858   1.319   6.602 -1.8421  0.0522  0.8746
 4810SOL     OW15328   6.051   0.243   5.404 -0.9203 -0.1598 -0.2824
 4810SOL    HW115329   6.007   0.155   5.384 -2.8901  1.0069 -1.3337
 4810SOL    HW215330   6.115   0.265   5.330 -0.7517 -0.5035 -0.2413
 4811SOL     OW15331   3.116   1.653   1.788  0.1296  0.3995 -0.2283
 4811SOL    HW115332   3.194   1.703   1.826 -0.0799  1.4343 -1.1000
 4811SOL    HW215333   3.139   1.556   1.781  0.8159  0.4713  0.8287
 4812SOL     OW15334   1.345   2.578   0.610 -0.5606  0.2978  0.1819
 4812SOL    HW115335   1.337   2.481   0.635  1.0054 -0.2022 -1.0572
 4812SOL    HW215336   1.436   2.611   0.633 -0.2672  0.7892 -1.4960
 4813SOL     OW15337   0.077   4.001   4.420  0.2941  0.2898  0.0099
 4813SOL    HW115338   0.034   4.009   4.510 -1.5738  1.2478 -0.9026
 4813SOL    HW215339   0.056   3.911   4.381  0.4468  0.1661  0.2131
 4814SOL     OW15340   0.614   6.289   2.316 -0.2898  0.5376  0.1018
 4814SOL    HW115341   0.599   6.217   2.384 -1.0350  1.6481  1.1571
 4814SOL    HW215342   0.621   6.248   2.225 -1.4638 -0.7961  0.5794
 4815SOL     OW15343   6.992   0.138   4.129  0.1965 -0.7325  0.3814
 4815SOL    HW115344   7.059   0.118   4.057 -0.4052  0.4494 -0.5380
 4815SOL    HW215345   7.039   0.179   4.208  0.5520  0.2631 -0.3331
 4816SOL     OW15346   5.349   6.240   5.425  0.4406 -0.3964 -0.8079
 4816SOL    HW115347   5.284   6.191   5.366  0.5238 -0.7123 -0.6371
 4816SOL    HW215348   5.375   6.325   5.380  0.0197 -0.3340 -0.9444
 4817SOL     OW15349   5.115   4.226   4.101  1.3260  0.2485  0.1767
 4817SOL    HW115350   5.100   4.246   4.005 -0.1702 -1.2832  0.0602
 4817SOL    HW215351   5.069   4.295   4.157 -1.7307 -1.3107 -0.2310
 4818SOL     OW15352   4.161   1.677   2.720 -0.1692  0.1835  0.6327
 4818SOL    HW115353   4.140   1.586   2.687 -1.9041  0.6282  0.4238
 4818SOL    HW215354   4.109   1.745   2.668  2.1927  1.4578 -0.2399
 4819SOL     OW15355   1.509   3.605   4.093 -0.5091 -0.0407 -0.1320
 4819SOL    HW115356   1.573   3.682   4.096  1.9124 -1.5879 -3.7512
 4819SOL    HW215357   1.416   3.637   4.109  0.3983  3.6461 -1.3062
 4820SOL     OW15358   4.968   0.400   0.751 -0.3175 -0.2171  0.1324
 4820SOL    HW115359   5.055   0.356   0.730 -1.5707 -2.4439 -0.7315
 4820SOL    HW215360   4.967   0.429   0.847  1.2087 -0.5092  0.2517
 4821SOL     OW15361   4.977   6.940   4.848  0.3279 -0.0282 -0.2306
 4821SOL    HW115362   4.955   7.006   4.920  1.2926  2.8992 -2.4258
 4821SOL    HW215363   4.892   6.903   4.809 -0.2097 -1.4011  2.0352
 4822SOL     OW15364   5.320   4.496   4.915 -0.1192 -0.0828  0.3400
 4822SOL    HW115365   5.229   4.534   4.900 -0.0754  0.3995  1.2283
 4822SOL    HW215366   5.385   4.537   4.851 -0.0865  1.3149  1.2347
 4823SOL     OW15367   3.768   2.628   1.033  0.2343 -0.1351 -0.3622
 4823SOL    HW115368   3.840   2.691   1.005  0.0856  1.0178  1.6347
 4823SOL    HW215369   3.687   2.642   0.976 -0.0984  2.1513  0.5553
 4824SOL     OW15370   5.581   5.159   1.699 -0.0145 -0.1528  0.6577
 4824SOL    HW115371   5.664   5.143   1.645  1.0047  3.6075  0.7864
 4824SOL    HW215372   5.600   5.141   1.795 -0.3065 -2.1249  0.3700
 4825SOL     OW15373   2.678   1.346   1.010  0.4354 -0.0800  0.1608
 4825SOL    HW115374   2.736   1.276   0.968  2.1148  2.1450 -1.5059
 4825SOL    HW215375   2.714   1.368   1.101 -0.8926 -2.1879  1.2784
 4826SOL     OW15376   5.148   0.495   2.580  0.4783  0.2670  0.4683
 4826SOL    HW115377   5.072   0.533   2.632 -1.2361 -1.5466 -0.5877
 4826SOL    HW215378   5.225   0.558   2.584 -1.0258  2.1522  1.6371
 4827SOL     OW15379   5.093   1.373   0.564  0.6084 -0.0283 -0.2137
 4827SOL    HW115380   5.050   1.410   0.482 -0.8853 -0.0098  0.5276
 4827SOL    HW215381   5.171   1.316   0.539  2.0504  2.3547 -1.4578
 4828SOL     OW15382   3.046   0.514   0.607 -0.2731  0.5075  0.4255
 4828SOL    HW115383   3.057   0.545   0.701 -0.0685 -2.0669  1.3192
 4828SOL    HW215384   3.010   0.589   0.551 -2.7263  1.4455  3.0541
 4829SOL     OW15385   3.656   3.621   3.876 -0.6269 -0.6848  0.0733
 4829SOL    HW115386   3.615   3.687   3.813 -1.5045  0.6795  1.9595
 4829SOL    HW215387   3.584   3.562   3.914 -0.1361 -1.3703 -0.0286
 4830SOL     OW15388   4.668   2.198   4.334 -0.8631  0.3744 -0.4963
 4830SOL    HW115389   4.599   2.270   4.341 -0.9242  0.3109 -0.4363
 4830SOL    HW215390   4.753   2.230   4.374 -1.7188 -0.6258  2.3629
 4831SOL     OW15391   4.808   4.277   6.217  0.7133 -0.0378  0.3436
 4831SOL    HW115392   4.839   4.338   6.144 -0.1367  0.1520  0.1234
 4831SOL    HW215393   4.883   4.219   6.246  1.0565 -0.1635 -0.7382
 4832SOL     OW15394   2.065   4.482   3.905 -0.0670 -0.2366  0.2318
 4832SOL    HW115395   1.967   4.465   3.916 -0.7909  3.3319  0.5220
 4832SOL    HW215396   2.082   4.528   3.818  1.2069  0.2418  0.7092
 4833SOL     OW15397   6.741   1.788   4.986 -0.2829  0.4185  0.7400
 4833SOL    HW115398   6.703   1.810   4.896 -1.2670 -0.2460  0.9736
 4833SOL    HW215399   6.767   1.872   5.033 -1.4928  0.8997  0.5741
 4834SOL     OW15400   7.007   2.932   6.638  0.1376 -0.1586 -0.4886
 4834SOL    HW115401   7.018   3.019   6.590  0.7728 -0.0158 -0.0891
 4834SOL    HW215402   7.069   2.929   6.716 -0.9064 -0.3742  0.3530
 4835SOL     OW15403   4.610   5.678   5.982 -0.2706  0.7589  0.1798
 4835SOL    HW115404   4.701   5.695   6.020  0.2157 -0.4777 -0.3491
 4835SOL    HW215405   4.541   5.724   6.037  0.7643  2.9720 -0.2617
 4836SOL     OW15406   3.014   0.992   6.908 -0.0165  0.3152  0.6604
 4836SOL    HW115407   2.927   1.040   6.916  0.7376  2.0110 -0.4749
 4836SOL    HW215408   3.000   0.902   6.867 -1.2872  0.2944  1.1143
 4837SOL     OW15409   3.694   1.403   4.156  0.0926 -0.0244  0.4141
 4837SOL    HW115410   3.738   1.448   4.079 -2.5000  0.5824 -0.8440
 4837SOL    HW215411   3.663   1.312   4.128  0.6574 -0.5132  1.3184
 4838SOL     OW15412   3.047   3.142   2.038  0.0674  0.2271  0.1173
 4838SOL    HW115413   3.030   3.126   2.135  0.5048 -1.7708 -0.0908
 4838SOL    HW215414   3.039   3.055   1.988 -0.9617  1.3404 -1.7756
 4839SOL     OW15415   0.426   3.922   3.016  0.6164  0.0894  0.2043
 4839SOL    HW115416   0.383   3.874   2.940  1.9944 -0.8919 -0.0053
 4839SOL    HW215417   0.402   3.877   3.102 -2.8748  2.5658  0.7506
 4840SOL     OW15418   2.103   5.894   1.986  0.0442 -0.5031 -0.3870
 4840SOL    HW115419   2.171   5.858   2.049 -0.4105 -0.2454  0.2576
 4840SOL    HW215420   2.146   5.956   1.921  0.3560  0.0068  0.2963
 4841SOL     OW15421   4.565   5.163   5.277  0.1353  0.4593  0.1171
 4841SOL    HW115422   4.576   5.117   5.189 -0.8179 -0.3326  0.3844
 4841SOL    HW215423   4.483   5.219   5.276 -1.0995 -1.2223  1.1390
 4842SOL     OW15424   4.366   2.324   5.238 -0.0089 -0.2738 -0.3692
 4842SOL    HW115425   4.413   2.236   5.224  2.1246  0.8482 -0.7567
 4842SOL    HW215426   4.301   2.340   5.164 -0.1807 -1.3651 -0.4696
 4843SOL     OW15427   0.755   1.546   1.139  0.5189 -0.5064 -0.0760
 4843SOL    HW115428   0.787   1.572   1.047  0.0187 -0.9940 -0.3928
 4843SOL    HW215429   0.710   1.457   1.134  0.3011 -0.4339  0.6107
 4844SOL     OW15430   0.305   5.719   6.771 -0.5067  0.2031  0.4303
 4844SOL    HW115431   0.247   5.668   6.708 -0.2151 -0.9528  1.0668
 4844SOL    HW215432   0.250   5.789   6.817 -0.8892  0.5576 -0.5321
 4845SOL     OW15433   4.160   5.484   1.776  0.2896  0.0848 -0.5179
 4845SOL    HW115434   4.217   5.415   1.821  0.3124  0.8944  0.7539
 4845SOL    HW215435   4.215   5.536   1.711  1.5360  1.9884  1.9050
 4846SOL     OW15436   5.584   6.033   1.713  0.1989  0.0159 -0.0019
 4846SOL    HW115437   5.650   6.108   1.717  1.8655 -1.4169  1.2433
 4846SOL    HW215438   5.633   5.945   1.720 -1.6333 -1.2447 -1.7962
 4847SOL     OW15439   4.778   2.508   6.098 -0.0351  0.2944 -0.1595
 4847SOL    HW115440   4.778   2.602   6.133  2.0834  0.7651 -1.2530
 4847SOL    HW215441   4.715   2.452   6.152 -1.8063  2.4496  0.1484
 4848SOL     OW15442   5.971   0.583   0.123  0.2906 -0.2784 -0.1722
 4848SOL    HW115443   6.046   0.622   0.176 -0.1023 -0.3311  0.4288
 4848SOL    HW215444   5.884   0.619   0.156 -0.0056 -0.8339 -0.3281
 4849SOL     OW15445   4.814   1.500   1.324  0.6466  0.9383  0.6141
 4849SOL    HW115446   4.753   1.571   1.290  0.5547  0.8586  0.6147
 4849SOL    HW215447   4.844   1.442   1.248  2.5285  2.3491  0.2008
 4850SOL     OW15448   2.361   6.910   3.248 -0.9272  0.4080  0.0223
 4850SOL    HW115449   2.440   6.897   3.188  0.2774 -0.5912  1.7487
 4850SOL    HW215450   2.378   6.989   3.308 -0.9114 -0.2031  0.8453
 4851SOL     OW15451   1.496   0.535   4.688  0.2625 -0.2232  0.3723
 4851SOL    HW115452   1.501   0.437   4.668 -0.9699 -0.4540  1.1475
 4851SOL    HW215453   1.468   0.584   4.605  0.2638 -0.5915  0.1512
 4852SOL     OW15454   6.064   6.289   6.932 -0.1195  0.7887 -0.1482
 4852SOL    HW115455   6.079   6.388   6.925 -0.0985  0.8442  0.6051
 4852SOL    HW215456   6.130   6.250   6.996 -0.1575  0.2882 -0.4092
 4853SOL     OW15457   1.878   4.544   5.864 -0.5208 -0.4492  0.6240
 4853SOL    HW115458   1.962   4.565   5.916 -1.3980  0.9015  1.5687
 4853SOL    HW215459   1.873   4.445   5.849  1.4543 -0.5263  0.1484
 4854SOL     OW15460   0.549   1.913   3.157 -0.0212  0.3479  0.7074
 4854SOL    HW115461   0.614   1.895   3.083  0.5327 -1.4233  1.5937
 4854SOL    HW215462   0.456   1.907   3.121  0.2426 -0.2421  0.0977
 4855SOL     OW15463   1.192   3.869   0.713 -0.1747  0.4958  0.2190
 4855SOL    HW115464   1.282   3.825   0.721  0.2999  1.3049 -0.5211
 4855SOL    HW215465   1.205   3.967   0.693 -1.1949  1.0497  2.0720
 4856SOL     OW15466   1.748   5.955   3.455  0.2086  0.0323  0.0432
 4856SOL    HW115467   1.810   6.028   3.426 -0.7744  0.2973 -1.5257
 4856SOL    HW215468   1.683   5.989   3.522  0.9029  0.1031  0.6863
 4857SOL     OW15469   4.616   6.240   2.141 -0.3021 -0.5728  0.2111
 4857SOL    HW115470   4.631   6.262   2.237 -1.9390 -0.9266  0.5713
 4857SOL    HW215471   4.637   6.321   2.085 -2.1673  0.6322  1.1476
 4858SOL     OW15472   1.102   6.047   5.546  0.3263  0.0850  0.7039
 4858SOL    HW115473   1.097   6.118   5.616 -1.7949  0.6734  0.0366
 4858SOL    HW215474   1.146   5.966   5.584 -1.9567 -0.1145  3.2357
 4859SOL     OW15475   2.179   5.944   4.050  0.3881 -0.0848 -0.7042
 4859SOL    HW115476   2.131   6.030   4.067  1.0377  0.2796 -0.7022
 4859SOL    HW215477   2.185   5.891   4.135 -1.7545 -1.0589 -1.0843
 4860SOL     OW15478   6.353   1.879   2.864  0.6833 -0.2158  0.5076
 4860SOL    HW115479   6.369   1.815   2.939  0.4028  0.9811  1.6135
 4860SOL    HW215480   6.439   1.897   2.817  1.0846 -0.1075  1.2653
 4861SOL     OW15481   0.962   1.381   0.297 -0.3775 -0.7772  0.5860
 4861SOL    HW115482   0.919   1.291   0.301 -1.8414 -0.2012 -0.9892
 4861SOL    HW215483   0.899   1.446   0.256  1.0914  0.7153  0.5931
 4862SOL     OW15484   6.815   1.772   0.170 -0.3251  0.4205 -0.8503
 4862SOL    HW115485   6.761   1.746   0.090 -1.1814  1.0151 -0.4849
 4862SOL    HW215486   6.911   1.747   0.155 -0.2900  1.3453 -2.4522
 4863SOL     OW15487   6.030   4.827   4.613 -0.9415 -0.0076  0.4589
 4863SOL    HW115488   6.021   4.911   4.559 -0.2851  0.4708  1.0629
 4863SOL    HW215489   6.119   4.826   4.658 -0.5500 -1.4999 -0.2893
 4864SOL     OW15490   5.457   5.282   6.315 -0.0535  0.0364  0.0390
 4864SOL    HW115491   5.370   5.280   6.365  0.7047  1.6166  1.5027
 4864SOL    HW215492   5.518   5.213   6.352 -0.3157 -0.3924 -0.3159
 4865SOL     OW15493   0.817   3.681   5.222 -0.1557  0.0792 -0.2839
 4865SOL    HW115494   0.726   3.684   5.264 -0.4994 -0.4800 -0.9751
 4865SOL    HW215495   0.843   3.773   5.193 -0.6789  0.1748 -0.4641
 4866SOL     OW15496   4.120   4.720   2.739  0.4948  0.0309 -0.3343
 4866SOL    HW115497   4.152   4.656   2.669  0.2835  1.2012 -1.5562
 4866SOL    HW215498   4.048   4.777   2.700  0.4650  0.8029  0.8152
 4867SOL     OW15499   1.783   4.889   2.800 -0.4706  0.3093 -0.2734
 4867SOL    HW115500   1.819   4.832   2.874  1.8425  0.9175 -0.8353
 4867SOL    HW215501   1.755   4.978   2.836 -1.3426 -0.1250  0.1554
 4868SOL     OW15502   5.467   1.661   2.274  0.0956 -0.5249 -1.0031
 4868SOL    HW115503   5.391   1.597   2.287  0.0558 -0.1358  1.1233
 4868SOL    HW215504   5.431   1.755   2.270  0.3541 -0.4439 -1.5223
 4869SOL     OW15505   3.512   1.583   1.341 -0.3964  0.5019 -0.0179
 4869SOL    HW115506   3.579   1.521   1.299  0.7542  1.0769  0.9043
 4869SOL    HW215507   3.424   1.574   1.294 -0.1254 -1.4411 -0.2306
 4870SOL     OW15508   5.344   5.218   2.467 -0.7168  0.2514 -0.3902
 4870SOL    HW115509   5.419   5.207   2.402 -0.3150 -1.3886  0.2928
 4870SOL    HW215510   5.351   5.148   2.538 -1.5486  1.5430  1.0332
 4871SOL     OW15511   2.828   5.175   0.069 -0.1325 -0.3129  0.4215
 4871SOL    HW115512   2.776   5.196  -0.014  1.7706 -1.7923 -1.2385
 4871SOL    HW215513   2.766   5.136   0.137 -1.8870  1.6309  0.0690
 4872SOL     OW15514   3.444   3.246   0.207  0.1704 -0.2103  0.4668
 4872SOL    HW115515   3.497   3.167   0.178  0.7168  0.5386 -0.6778
 4872SOL    HW215516   3.493   3.294   0.280 -0.5373 -1.3302  1.7176
 4873SOL     OW15517   1.699   2.939   3.508 -0.0433  0.1062  0.3537
 4873SOL    HW115518   1.779   2.895   3.466  0.5729 -1.0801  2.5533
 4873SOL    HW215519   1.673   3.020   3.456  3.6590  1.5298  0.4319
 4874SOL     OW15520   2.459   1.846   1.640  0.1357 -0.5174 -0.4629
 4874SOL    HW115521   2.493   1.920   1.697  0.1139 -2.2323  1.9491
 4874SOL    HW215522   2.385   1.879   1.581 -0.6476  1.1256  1.3473
 4875SOL     OW15523   5.480   6.298   6.195 -0.3894 -0.0416  0.5972
 4875SOL    HW115524   5.439   6.207   6.187 -1.5304  0.5581 -0.6541
 4875SOL    HW215525   5.414   6.367   6.167  0.8659  1.0987  0.3516
 4876SOL     OW15526   6.012   0.328   6.108 -0.1130 -0.0212  0.3300
 4876SOL    HW115527   5.994   0.234   6.079 -1.0494  0.0878  0.5253
 4876SOL    HW215528   5.995   0.391   6.032 -2.1458  0.2244  0.9309
 4877SOL     OW15529   3.427   4.018   0.556 -0.5012 -0.4175  0.0293
 4877SOL    HW115530   3.464   4.042   0.645  0.6971 -0.0894 -0.5299
 4877SOL    HW215531   3.338   3.974   0.567  0.4768 -2.1829  1.5306
 4878SOL     OW15532   0.186   4.199   0.911  0.2206 -0.3461  0.5918
 4878SOL    HW115533   0.234   4.269   0.857 -0.9709 -0.5456 -0.7934
 4878SOL    HW215534   0.115   4.243   0.966 -0.5331 -0.4312 -0.2845
 4879SOL     OW15535   6.542   4.932   1.635 -0.0008  0.2699 -0.2543
 4879SOL    HW115536   6.519   4.846   1.591 -0.5657 -0.9173  2.1821
 4879SOL    HW215537   6.463   4.994   1.632  0.3801  0.7176 -1.9349
 4880SOL     OW15538   1.727   2.015   6.059  0.0136 -0.4086 -0.1039
 4880SOL    HW115539   1.633   1.990   6.083 -0.0086  0.0156  0.2767
 4880SOL    HW215540   1.766   1.946   5.999 -0.7443 -0.2905 -0.7441
 4881SOL     OW15541   3.099   6.748   2.839 -0.0997 -0.1538 -0.7473
 4881SOL    HW115542   3.154   6.831   2.843 -2.5378  1.5174  0.6418
 4881SOL    HW215543   3.039   6.751   2.759 -0.3779 -0.4392 -0.5521
 4882SOL     OW15544   2.199   3.274   5.507  0.0221 -0.1954  0.1800
 4882SOL    HW115545   2.111   3.271   5.460 -0.0294 -0.1739  0.2763
 4882SOL    HW215546   2.273   3.261   5.440  0.1209  2.7622 -0.4475
 4883SOL     OW15547   5.503   4.494   6.262 -0.2109  0.4936 -0.4994
 4883SOL    HW115548   5.571   4.566   6.250 -0.8579  1.5055  1.5104
 4883SOL    HW215549   5.462   4.502   6.353 -2.0791 -0.8928 -1.1697
 4884SOL     OW15550   6.117   1.735   4.935  0.3179  0.0228  0.8014
 4884SOL    HW115551   6.148   1.647   4.972 -0.2802 -1.7350 -2.4946
 4884SOL    HW215552   6.034   1.763   4.984 -0.5822 -2.2698  0.7524
 4885SOL     OW15553   6.288   1.399   6.682 -0.6236 -0.2016  0.0373
 4885SOL    HW115554   6.224   1.353   6.621 -1.0455  0.3120  0.0899
 4885SOL    HW215555   6.251   1.488   6.709 -0.6453 -0.5935  1.3845
 4886SOL     OW15556   4.578   6.628   6.341  0.0324  0.0584  0.0406
 4886SOL    HW115557   4.563   6.660   6.247 -2.1947  4.1748  1.5619
 4886SOL    HW215558   4.504   6.566   6.368  0.0084 -0.1477 -0.4805
 4887SOL     OW15559   4.069   6.121   5.281  0.3549 -0.6089 -0.0861
 4887SOL    HW115560   4.127   6.154   5.207 -0.5044  1.0993 -0.0587
 4887SOL    HW215561   4.044   6.026   5.264 -0.6740  0.0173 -2.5862
 4888SOL     OW15562   3.325   2.932   4.161  0.2216  0.1031  0.0094
 4888SOL    HW115563   3.416   2.959   4.130  0.4863 -0.3859  0.3488
 4888SOL    HW215564   3.295   2.992   4.235  0.5680 -0.1632  0.3730
 4889SOL     OW15565   3.523   4.914   3.865  0.3587  0.3617  0.6207
 4889SOL    HW115566   3.575   4.912   3.780  1.4100 -0.4753  1.2480
 4889SOL    HW215567   3.429   4.942   3.846  0.8725  1.3633 -0.6273
 4890SOL     OW15568   4.889   0.888   4.245 -0.0425 -0.3342 -0.6776
 4890SOL    HW115569   4.855   0.962   4.302 -0.7373 -1.5302  0.5079
 4890SOL    HW215570   4.842   0.889   4.157  0.1791  0.7958 -0.7959
 4891SOL     OW15571   5.898   1.270   4.667 -0.6035 -0.0663  0.1938
 4891SOL    HW115572   5.886   1.221   4.754  0.6708 -0.1008  0.3702
 4891SOL    HW215573   5.899   1.369   4.685  1.6677 -0.0980  0.5488
 4892SOL     OW15574   2.689   5.445   6.019 -0.1919 -0.3033  0.4427
 4892SOL    HW115575   2.736   5.512   5.962  0.7979 -0.7133  0.7619
 4892SOL    HW215576   2.591   5.449   6.001 -0.0652  0.7215 -0.0694
 4893SOL     OW15577   1.652   0.674   3.259  0.2220 -0.4259 -0.0785
 4893SOL    HW115578   1.681   0.614   3.333 -2.5685  0.6832  2.1134
 4893SOL    HW215579   1.616   0.619   3.184 -1.4891 -1.5947  1.5157
 4894SOL     OW15580   6.332   6.899   6.498 -0.3112 -0.0941 -0.7270
 4894SOL    HW115581   6.413   6.847   6.524  0.8337  2.1188  0.4827
 4894SOL    HW215582   6.356   6.968   6.430 -1.2699  0.2821 -0.7083
 4895SOL     OW15583   0.046   0.295   4.358  0.3626 -0.0381 -0.0234
 4895SOL    HW115584   0.073   0.390   4.374 -1.9753  0.7478 -0.3628
 4895SOL    HW215585   0.120   0.234   4.385  1.8825  1.8632  0.3036
 4896SOL     OW15586   6.236   1.476   4.386  0.2708 -0.3915 -0.1312
 4896SOL    HW115587   6.229   1.560   4.441 -0.0934 -0.4128 -0.1440
 4896SOL    HW215588   6.231   1.499   4.289 -2.0482 -0.6092 -0.1206
 4897SOL     OW15589   6.173   4.126   5.322  0.6968 -1.0241  0.0382
 4897SOL    HW115590   6.100   4.057   5.321 -0.5822  0.2710 -1.6595
 4897SOL    HW215591   6.185   4.159   5.416 -1.3719 -0.8314  0.2957
 4898SOL     OW15592   4.351   3.468   6.333 -0.0014 -0.1100 -0.0334
 4898SOL    HW115593   4.416   3.462   6.409 -1.3861  1.3426  1.3397
 4898SOL    HW215594   4.399   3.499   6.251  0.8056  2.9898  1.4415
 4899SOL     OW15595   1.188   3.318   4.151 -0.0920  0.6597 -0.0322
 4899SOL    HW115596   1.288   3.320   4.141 -0.1552  0.0089 -0.8824
 4899SOL    HW215597   1.164   3.265   4.232  0.2383  0.0792 -0.3037
 4900SOL     OW15598   0.821   6.850   6.536  0.4387 -0.0550  0.3634
 4900SOL    HW115599   0.738   6.824   6.487  0.7750 -1.3424  0.4394
 4900SOL    HW215600   0.852   6.940   6.505 -0.7666  0.2730  0.0708
 4901SOL     OW15601   2.619   5.462   2.634 -0.5030  0.2170  0.9621
 4901SOL    HW115602   2.571   5.519   2.701 -0.1872  1.9390 -0.1936
 4901SOL    HW215603   2.563   5.383   2.611 -4.8546  3.8203 -2.9826
 4902SOL     OW15604   3.271   4.999   3.827  0.0765  0.1514 -0.0330
 4902SOL    HW115605   3.191   4.962   3.874  0.5878  1.1050  1.6960
 4902SOL    HW215606   3.242   5.048   3.744 -1.4924  2.5567  1.7759
 4903SOL     OW15607   6.410   6.506   3.681  0.0062  0.4844  0.0221
 4903SOL    HW115608   6.421   6.423   3.625 -2.5114 -0.2048  0.4035
 4903SOL    HW215609   6.314   6.534   3.679  0.4432  2.2642  1.5177
 4904SOL     OW15610   0.716   4.034   2.965  0.2358 -0.3516 -1.1536
 4904SOL    HW115611   0.646   3.974   3.002  2.1572 -1.6146  0.6643
 4904SOL    HW215612   0.723   4.116   3.022  0.6299 -0.5199 -0.9534
 4905SOL     OW15613   3.858   3.828   3.129  0.0572 -0.1441  0.0788
 4905SOL    HW115614   3.862   3.881   3.044 -0.1512  0.2366  0.3057
 4905SOL    HW215615   3.838   3.889   3.206 -0.1104 -0.5404  0.3534
 4906SOL     OW15616   2.442   5.456   4.000  0.4712 -0.6004  0.3528
 4906SOL    HW115617   2.460   5.364   4.033 -0.6357 -0.1817  2.2255
 4906SOL    HW215618   2.350   5.485   4.028 -0.0219  0.3384 -1.9503
 4907SOL     OW15619   1.688   0.417   1.294 -0.1316  0.3413 -0.0435
 4907SOL    HW115620   1.695   0.485   1.222  0.7546  0.2400 -0.0650
 4907SOL    HW215621   1.742   0.336   1.268 -2.0269 -0.8316 -0.5245
 4908SOL     OW15622   3.159   1.241   2.922  0.1172 -0.6730 -0.1723
 4908SOL    HW115623   3.132   1.284   2.835  1.6323 -1.0351 -0.8573
 4908SOL    HW215624   3.217   1.162   2.903  1.4702 -0.0483  1.1853
 4909SOL     OW15625   1.948   6.723   3.487  0.0760 -0.5069 -0.2497
 4909SOL    HW115626   1.862   6.725   3.539  0.1316 -1.3142 -0.1140
 4909SOL    HW215627   2.007   6.650   3.523  0.2704 -0.8338 -1.2028
 4910SOL     OW15628   3.352   6.453   6.821 -0.1189  0.2644 -0.0592
 4910SOL    HW115629   3.363   6.512   6.901 -1.9537 -1.6096  1.6881
 4910SOL    HW215630   3.256   6.453   6.792  0.1326 -0.6772 -0.9549
 4911SOL     OW15631   2.489   5.413   0.533  0.1565  0.0872 -0.0928
 4911SOL    HW115632   2.398   5.371   0.542  1.4078 -2.4919  1.6125
 4911SOL    HW215633   2.509   5.428   0.436 -1.5219 -0.6042 -0.5965
 4912SOL     OW15634   4.877   2.561   0.768 -0.0151  0.1301  0.4620
 4912SOL    HW115635   4.820   2.518   0.698  0.1506 -1.5949  1.3206
 4912SOL    HW215636   4.973   2.536   0.752  0.0179 -0.3166  1.3052
 4913SOL     OW15637   6.654   1.206   2.886  0.4397  0.5983  0.1026
 4913SOL    HW115638   6.753   1.218   2.885  0.5284  0.0765  1.1352
 4913SOL    HW215639   6.610   1.294   2.870  1.0668  1.0201  0.6457
 4914SOL     OW15640   2.488   2.176   2.222 -0.8161  0.2665  0.1682
 4914SOL    HW115641   2.471   2.112   2.297  0.7783 -1.1882 -0.6497
 4914SOL    HW215642   2.568   2.232   2.243  0.8223 -1.4579 -1.1708
 4915SOL     OW15643   4.118   2.670   0.426  0.2787 -0.5399  0.0825
 4915SOL    HW115644   4.119   2.726   0.343  1.7633 -1.2782 -0.4394
 4915SOL    HW215645   4.024   2.663   0.460  0.0795  2.5925  0.4579
 4916SOL     OW15646   2.537   6.486   2.398  0.5062  0.0648  0.1116
 4916SOL    HW115647   2.581   6.397   2.411  1.3518  0.0195 -2.6019
 4916SOL    HW215648   2.468   6.479   2.326  0.1706  1.5071  0.2603
 4917SOL     OW15649   0.247   5.707   5.634  0.0963  0.2224 -0.4563
 4917SOL    HW115650   0.250   5.609   5.648  0.5258  0.2623 -0.2618
 4917SOL    HW215651   0.219   5.753   5.718  1.0030  0.3413 -0.2074
 4918SOL     OW15652   5.001   5.061   2.870  0.3433 -0.4027 -0.6668
 4918SOL    HW115653   4.926   5.127   2.865 -0.4820 -1.3271 -0.9555
 4918SOL    HW215654   5.084   5.101   2.830  0.3862  1.1074  0.8272
 4919SOL     OW15655   4.954   0.586   6.387 -0.0317 -0.1938 -0.2167
 4919SOL    HW115656   5.036   0.643   6.394  1.5848 -2.2230 -1.4351
 4919SOL    HW215657   4.972   0.496   6.429 -1.3193 -0.9967 -1.3088
 4920SOL     OW15658   4.321   1.272   4.536 -0.0923  1.0881 -0.3107
 4920SOL    HW115659   4.345   1.326   4.617  1.1735 -1.1754  0.9291
 4920SOL    HW215660   4.225   1.244   4.542  0.8562 -2.2212  2.5412
 4921SOL     OW15661   6.833   2.119   0.559  0.0909  0.1752 -0.6030
 4921SOL    HW115662   6.873   2.086   0.645 -0.4603 -1.8648 -1.0724
 4921SOL    HW215663   6.792   2.209   0.574  0.0136 -0.1268  1.2753
 4922SOL     OW15664   1.647   0.484   6.178  0.2279 -0.4657 -0.4848
 4922SOL    HW115665   1.585   0.492   6.101  1.5632  0.6860 -1.5130
 4922SOL    HW215666   1.689   0.574   6.196  2.9623 -1.5402 -1.0546
 4923SOL     OW15667   4.953   2.088   2.036  0.2689  0.4300 -0.2122
 4923SOL    HW115668   4.947   2.100   1.937  1.1710 -0.8120 -0.4435
 4923SOL    HW215669   4.878   2.137   2.080 -0.3206  0.7577 -1.5335
 4924SOL     OW15670   3.873   1.845   2.179  0.2250  0.2156  0.4464
 4924SOL    HW115671   3.897   1.934   2.218  1.8253  0.6836 -1.4588
 4924SOL    HW215672   3.816   1.859   2.098  0.3218 -0.5165  0.2461
 4925SOL     OW15673   5.595   5.305   2.810 -0.1412 -0.0922  0.2977
 4925SOL    HW115674   5.679   5.323   2.758 -0.3029 -1.0097 -0.2956
 4925SOL    HW215675   5.566   5.211   2.794 -0.1222 -0.4493  2.1559
 4926SOL     OW15676   6.526   1.480   5.964  0.3956  0.2098 -0.1719
 4926SOL    HW115677   6.505   1.388   5.931 -3.8093 -0.6084  3.7401
 4926SOL    HW215678   6.605   1.476   6.026 -1.1437 -1.4153  1.8185
 4927SOL     OW15679   0.614   5.155   0.490 -0.5182  0.8393 -0.5789
 4927SOL    HW115680   0.712   5.167   0.511 -0.5274  0.5476 -0.3658
 4927SOL    HW215681   0.588   5.060   0.509 -1.6493  1.6824  2.7589
 4928SOL     OW15682   2.145   1.600   0.014 -0.8762  0.1383  0.0665
 4928SOL    HW115683   2.209   1.651  -0.044 -1.3878 -0.4745 -1.0670
 4928SOL    HW215684   2.192   1.569   0.097  0.3479 -0.4415 -0.8229
 4929SOL     OW15685   0.298   2.120   5.105 -0.1033 -0.1285  0.0532
 4929SOL    HW115686   0.251   2.170   5.177 -0.9935 -1.7879  0.6840
 4929SOL    HW215687   0.397   2.124   5.120 -0.2988 -1.0522  1.8374
 4930SOL     OW15688   6.550   5.596   5.662  0.3347 -0.7611  0.2391
 4930SOL    HW115689   6.646   5.570   5.654  0.4579  0.1706 -1.9480
 4930SOL    HW215690   6.492   5.520   5.634  0.5946 -0.1154 -2.2866
 4931SOL     OW15691   3.310   0.467   3.180 -0.2011  0.1651  0.2822
 4931SOL    HW115692   3.376   0.406   3.137 -0.5647  0.1708 -0.3003
 4931SOL    HW215693   3.332   0.479   3.276  0.5667  0.0634  0.1205
 4932SOL     OW15694   1.911   3.901   7.003  0.1466 -0.0100 -0.1570
 4932SOL    HW115695   1.986   3.964   7.023  0.3770 -0.4461  0.3825
 4932SOL    HW215696   1.910   3.828   7.071 -0.1031 -0.6101 -0.8000
 4933SOL     OW15697   1.771   6.306   0.053 -0.0266 -0.6936  0.6039
 4933SOL    HW115698   1.691   6.366   0.056 -0.4524 -1.2743  1.2132
 4933SOL    HW215699   1.768   6.243   0.130  0.9991 -0.7620  0.6004
 4934SOL     OW15700   1.405   5.134   5.751 -0.6060 -0.7114 -0.1267
 4934SOL    HW115701   1.450   5.187   5.680  0.1858 -2.2487 -0.8284
 4934SOL    HW215702   1.322   5.091   5.714 -2.0548  1.0886  0.8195
 4935SOL     OW15703   3.986   1.285   5.604 -0.2600  0.6958  0.1202
 4935SOL    HW115704   4.008   1.381   5.620  2.1446  0.5506 -1.7431
 4935SOL    HW215705   3.967   1.240   5.691  0.0500  2.5204  1.1682
 4936SOL     OW15706   0.683   1.476   3.491  0.4176  0.4112  0.5142
 4936SOL    HW115707   0.590   1.470   3.526  0.6378  1.5684  1.3845
 4936SOL    HW215708   0.744   1.503   3.566  1.2454  0.8898 -0.3137
 4937SOL     OW15709   5.763   6.327   3.204 -0.3862 -0.2237  0.2061
 4937SOL    HW115710   5.748   6.409   3.260 -2.4737  0.3764 -1.1138
 4937SOL    HW215711   5.676   6.278   3.195 -0.3577  0.1401 -3.1108
 4938SOL     OW15712   0.564   5.040   4.206  0.1977  0.7606  0.2286
 4938SOL    HW115713   0.635   5.103   4.238  0.4193  0.8517 -0.4277
 4938SOL    HW215714   0.604   4.950   4.190  0.3025  0.9715 -0.7359
 4939SOL     OW15715   6.172   6.207   6.257 -0.1578 -0.2427 -0.1148
 4939SOL    HW115716   6.170   6.307   6.244  0.1857 -0.2760 -0.4806
 4939SOL    HW215717   6.182   6.163   6.167 -0.6707 -0.6215  0.0137
 4940SOL     OW15718   4.829   5.096   6.455 -0.1626  0.4157  0.2380
 4940SOL    HW115719   4.917   5.055   6.479 -0.1699 -0.0370 -0.4776
 4940SOL    HW215720   4.829   5.192   6.484  0.9539  0.7032 -0.6242
 4941SOL     OW15721   5.102   6.680   2.013 -0.8474 -0.2411  0.2709
 4941SOL    HW115722   5.093   6.777   1.993  0.5222 -0.4970 -1.9735
 4941SOL    HW215723   5.177   6.665   2.077 -0.1272  0.1036 -0.4823
 4942SOL     OW15724   4.932   0.512   4.748  0.6592 -0.0713  0.8240
 4942SOL    HW115725   4.967   0.443   4.685 -1.3574 -1.6129  1.2680
 4942SOL    HW215726   4.833   0.500   4.759  0.2837  2.7166  1.1985
 4943SOL     OW15727   1.083   0.462   1.421  0.0061  0.3956  0.1500
 4943SOL    HW115728   1.041   0.553   1.421 -1.3393 -0.1981  0.0435
 4943SOL    HW215729   1.040   0.406   1.492  0.5836 -0.2630 -0.0139
 4944SOL     OW15730   2.946   2.825   6.060  0.0896  0.2164 -0.6767
 4944SOL    HW115731   2.901   2.752   6.110 -1.9942  1.9285  0.1272
 4944SOL    HW215732   2.908   2.830   5.967  0.2405  0.2768 -0.7367
 4945SOL     OW15733   1.311   1.584   6.152  0.1671 -0.3392 -0.7063
 4945SOL    HW115734   1.253   1.632   6.087 -0.0034 -1.2280 -1.2301
 4945SOL    HW215735   1.339   1.496   6.113  2.0513  0.1495 -0.5675
 4946SOL     OW15736   4.392   1.171   5.362 -0.2067 -0.0265  0.0387
 4946SOL    HW115737   4.336   1.214   5.291 -0.9956 -0.5384  0.3366
 4946SOL    HW215738   4.461   1.112   5.319  0.5437  1.1000 -0.3535
 4947SOL     OW15739   5.823   2.297   0.886  0.3039 -0.5975 -0.3323
 4947SOL    HW115740   5.746   2.359   0.901  1.8319  1.8556 -1.8620
 4947SOL    HW215741   5.887   2.304   0.962  1.1669  0.9221 -1.1411
 4948SOL     OW15742   3.720   2.210   1.599  0.0345 -0.1698  0.1869
 4948SOL    HW115743   3.795   2.147   1.619 -0.0403 -0.4669 -0.4570
 4948SOL    HW215744   3.700   2.265   1.680  0.4804 -0.5769  0.5746
 4949SOL     OW15745   6.121   2.804   0.990 -0.3406  0.2900  0.0294
 4949SOL    HW115746   6.203   2.862   0.986 -0.7893  0.8956 -0.9219
 4949SOL    HW215747   6.148   2.709   1.004  0.5390  0.4819 -0.2741
 4950SOL     OW15748   1.108   3.283   5.068 -0.4511 -0.1107 -0.2623
 4950SOL    HW115749   1.175   3.327   5.009 -0.8103  0.4133 -0.2866
 4950SOL    HW215750   1.150   3.205   5.115  1.0729  1.9229  2.0042
 4951SOL     OW15751   5.235   6.698   0.969  0.4654  0.1462 -0.0491
 4951SOL    HW115752   5.175   6.765   0.925 -0.8576 -1.1069 -0.2582
 4951SOL    HW215753   5.290   6.651   0.900  0.5090  0.1899 -0.0438
 4952SOL     OW15754   4.849   3.159   2.276 -0.7572  0.3556  0.7052
 4952SOL    HW115755   4.790   3.111   2.211 -0.7529 -1.0043  1.6543
 4952SOL    HW215756   4.942   3.162   2.240 -0.6271 -0.9164  0.8805
 4953SOL     OW15757   5.620   4.075   5.298  0.2640 -0.4073 -0.3616
 4953SOL    HW115758   5.667   4.162   5.309 -1.2791  0.5252 -0.8150
 4953SOL    HW215759   5.624   4.024   5.384 -0.9582  1.2440  0.7193
 4954SOL     OW15760   4.752   3.505   5.764 -0.0280  0.4409 -0.2851
 4954SOL    HW115761   4.657   3.495   5.792  0.1797  1.5757  0.9326
 4954SOL    HW215762   4.757   3.516   5.665 -1.2059  0.7927 -0.3144
 4955SOL     OW15763   1.143   3.445   6.407 -0.1243 -0.3302 -0.1767
 4955SOL    HW115764   1.237   3.428   6.377  0.4350  2.4096 -0.2436
 4955SOL    HW215765   1.090   3.360   6.401  2.3238 -1.9616 -0.0822
 4956SOL     OW15766   3.441   3.732   3.674 -0.1355 -0.0908 -0.2975
 4956SOL    HW115767   3.373   3.727   3.747 -1.1613 -0.6188 -1.2628
 4956SOL    HW215768   3.436   3.821   3.629  0.2941  0.1270  0.0856
 4957SOL     OW15769   2.762   5.953   5.026  0.1588  0.4316  0.1102
 4957SOL    HW115770   2.818   6.034   5.048  1.2563 -0.6182  1.3936
 4957SOL    HW215771   2.745   5.901   5.110  0.2401 -1.1417 -0.8137
 4958SOL     OW15772   5.077   5.994   3.381 -0.3993 -0.1773  0.0395
 4958SOL    HW115773   4.984   5.970   3.411 -1.6232  0.9390 -2.5414
 4958SOL    HW215774   5.137   5.999   3.461 -2.4305 -1.3469  1.7639
 4959SOL     OW15775   0.200   6.549   5.594 -0.2946  0.0682 -0.4025
 4959SOL    HW115776   0.244   6.635   5.568  0.9885 -0.4270  0.0441
 4959SOL    HW215777   0.215   6.481   5.522  1.4748 -0.6916  0.6077
 4960SOL     OW15778   3.953   5.229   4.986  0.1733 -0.0226  0.0996
 4960SOL    HW115779   3.880   5.262   5.046  0.9738  0.4613  0.8231
 4960SOL    HW215780   3.927   5.244   4.891 -2.0764 -2.7276  0.1347
 4961SOL     OW15781   6.594   2.924   1.684  0.0125  0.0856  0.4736
 4961SOL    HW115782   6.669   2.990   1.676 -1.2893  1.4248 -1.7457
 4961SOL    HW215783   6.623   2.847   1.741  2.8304  0.8498  0.2135
 4962SOL     OW15784   4.478   6.644   6.841 -0.1111  0.1572 -0.0952
 4962SOL    HW115785   4.548   6.615   6.907 -0.5251  0.8511  0.6712
 4962SOL    HW215786   4.469   6.743   6.843 -1.9148  0.0164  0.6828
 4963SOL     OW15787   2.826   5.895   6.268 -0.0784  0.0514 -0.4730
 4963SOL    HW115788   2.901   5.961   6.271  0.5215 -0.5574 -1.6614
 4963SOL    HW215789   2.784   5.889   6.359  0.1862  1.6653 -0.2118
 4964SOL     OW15790   1.608   6.074   0.802 -0.3953  0.3768  0.2714
 4964SOL    HW115791   1.627   6.161   0.758 -0.0620  0.9483  1.5270
 4964SOL    HW215792   1.586   6.006   0.732 -0.9960  1.5367 -0.7037
 4965SOL     OW15793   2.966   1.062   2.507  0.3317  0.0647  0.9858
 4965SOL    HW115794   2.890   1.054   2.444  0.5721  0.6170  0.6170
 4965SOL    HW215795   3.016   1.147   2.489  1.3519 -0.5368  0.8592
 4966SOL     OW15796   1.167   4.386   4.462  0.2787 -0.1524 -0.2318
 4966SOL    HW115797   1.151   4.299   4.416  0.4319  0.1996 -0.9749
 4966SOL    HW215798   1.089   4.447   4.447 -0.1817 -0.4270  0.9502
 4967SOL     OW15799   5.434   5.081   0.658 -0.2390 -0.2057  0.2088
 4967SOL    HW115800   5.461   5.177   0.664 -0.1678 -0.2213  0.1456
 4967SOL    HW215801   5.381   5.066   0.575 -0.6644 -0.1232  0.4630
 4968SOL     OW15802   5.731   1.919   0.672  0.0974  0.5353 -0.1414
 4968SOL    HW115803   5.755   1.959   0.761 -1.3712  0.0682  0.5012
 4968SOL    HW215804   5.713   1.992   0.606 -0.8670  0.9375  0.5440
 4969SOL     OW15805   6.227   5.039   2.942  0.0330 -0.5204 -0.0815
 4969SOL    HW115806   6.152   4.976   2.923  0.3486 -0.5811 -1.2124
 4969SOL    HW215807   6.259   5.080   2.856  1.3318 -0.5528  0.3621
 4970SOL     OW15808   0.629   6.899   5.433 -0.1748  0.5671 -0.0116
 4970SOL    HW115809   0.694   6.910   5.358 -0.5667  0.7951 -0.3251
 4970SOL    HW215810   0.668   6.840   5.504  0.3861  0.7358 -0.1749
 4971SOL     OW15811   1.873   2.788   1.648  0.0046  0.0621  0.0748
 4971SOL    HW115812   1.873   2.887   1.658  1.5710  0.1589 -0.5595
 4971SOL    HW215813   1.967   2.754   1.651 -0.5607 -1.5147  1.1434
 4972SOL     OW15814   0.138   1.353   3.408  0.1955  0.3372  0.1634
 4972SOL    HW115815   0.074   1.284   3.442  1.1505  0.7851  3.1848
 4972SOL    HW215816   0.104   1.444   3.429 -0.3800  0.8278 -2.5404
 4973SOL     OW15817   1.976   1.610   4.862 -0.9340  0.0688 -0.1485
 4973SOL    HW115818   1.935   1.556   4.788  0.7086  0.3880 -1.3604
 4973SOL    HW215819   1.931   1.700   4.866 -1.5269 -0.2168 -0.2593
 4974SOL     OW15820   1.763   1.557   3.632  0.1280 -0.2459  0.5881
 4974SOL    HW115821   1.843   1.617   3.632  0.0081 -0.0575 -0.7083
 4974SOL    HW215822   1.758   1.509   3.545 -0.7112 -0.8883  0.9802
 4975SOL     OW15823   1.058   3.089   2.121  0.6414  0.1543 -0.2383
 4975SOL    HW115824   0.987   3.158   2.104  1.4474  0.8907 -0.6723
 4975SOL    HW215825   1.130   3.098   2.053  1.5860 -0.0197  0.7226
 4976SOL     OW15826   2.441   0.752   6.278 -0.1101 -0.5270  0.5134
 4976SOL    HW115827   2.403   0.717   6.364  0.1479  0.7283  1.1552
 4976SOL    HW215828   2.478   0.844   6.293 -0.5366 -0.0747 -1.0604
 4977SOL     OW15829   0.293   1.624   3.988  0.0193  0.1188  0.5493
 4977SOL    HW115830   0.308   1.684   4.066 -1.0055  0.8252  0.2245
 4977SOL    HW215831   0.346   1.540   4.000 -2.4480 -1.2292  3.5917
 4978SOL     OW15832   4.336   4.932   3.278 -0.0133 -0.0335  0.0562
 4978SOL    HW115833   4.380   5.008   3.230 -0.3452  0.7005  0.8644
 4978SOL    HW215834   4.246   4.915   3.237 -0.6722  1.1744  0.9171
 4979SOL     OW15835   5.540   3.391   5.338 -0.0658  0.0077  0.0954
 4979SOL    HW115836   5.513   3.360   5.429 -0.9976 -1.2209 -0.5622
 4979SOL    HW215837   5.639   3.386   5.329  0.0475  0.3424  1.1101
 4980SOL     OW15838   3.788   0.285   6.686 -0.5112 -0.0581  0.3264
 4980SOL    HW115839   3.817   0.191   6.669  0.3967  0.1779  0.4899
 4980SOL    HW215840   3.742   0.322   6.605  1.4430  0.2008 -0.7244
 4981SOL     OW15841   0.316   1.816   5.314  0.2133 -0.4278 -0.0124
 4981SOL    HW115842   0.376   1.743   5.346 -1.5393 -1.5406  0.9009
 4981SOL    HW215843   0.297   1.879   5.389 -0.9708 -0.9517  0.1371
 4982SOL     OW15844   4.313   2.356   3.618  0.6263 -0.6692 -0.4210
 4982SOL    HW115845   4.250   2.349   3.540 -1.1568  2.0147  0.6592
 4982SOL    HW215846   4.272   2.312   3.698  1.3787 -1.2779 -0.3531
 4983SOL     OW15847   6.923   7.005   5.918  0.3100 -0.0153  0.0805
 4983SOL    HW115848   6.990   7.074   5.944 -0.9112  0.5988  1.8663
 4983SOL    HW215849   6.831   7.038   5.942 -0.5137 -1.3647 -1.0665
 4984SOL     OW15850   4.657   2.837   0.024  0.8250  0.2795 -0.0283
 4984SOL    HW115851   4.753   2.810   0.018  1.9756  3.8268 -0.0587
 4984SOL    HW215852   4.618   2.840  -0.068  1.9219  2.4239 -0.4922
 4985SOL     OW15853   3.302   1.854   1.025  0.1644  0.1774  0.1162
 4985SOL    HW115854   3.379   1.870   1.087  1.2777  1.3663 -1.5096
 4985SOL    HW215855   3.224   1.909   1.053  0.3742  0.0711  0.9308
 4986SOL     OW15856   6.681   6.513   6.418 -0.2803 -0.2281  0.0705
 4986SOL    HW115857   6.684   6.521   6.318  0.6844  0.2261  0.1309
 4986SOL    HW215858   6.655   6.420   6.443 -0.0745 -0.4694 -0.6003
 4987SOL     OW15859   6.287   4.917   4.505  0.3788  0.4407  0.1610
 4987SOL    HW115860   6.308   4.888   4.599  0.0142 -0.5521 -0.0528
 4987SOL    HW215861   6.372   4.945   4.460  0.5632  0.8992  0.7689
 4988SOL     OW15862   5.478   5.934   3.929 -0.1680 -0.4888  0.2427
 4988SOL    HW115863   5.407   5.996   3.960 -0.7887 -1.3409  0.5656
 4988SOL    HW215864   5.437   5.848   3.898  0.6391 -0.6069 -0.5598
 4989SOL     OW15865   5.891   0.069   0.194  0.1832  0.3954  0.0516
 4989SOL    HW115866   5.958  -0.004   0.178 -0.4237 -0.3646  0.8941
 4989SOL    HW215867   5.927   0.155   0.159  1.6796  0.0360  0.6314
 4990SOL     OW15868   5.168   6.125   0.427 -0.2484 -0.6513  0.6593
 4990SOL    HW115869   5.097   6.150   0.493  0.2989  1.2587  0.5927
 4990SOL    HW215870   5.141   6.155   0.336  0.7963  0.5150  0.7013
 4991SOL     OW15871   2.874   2.105   0.250 -0.4424 -0.3204  1.0818
 4991SOL    HW115872   2.780   2.090   0.279 -0.5442 -0.5188  0.6576
 4991SOL    HW215873   2.887   2.069   0.157 -0.4455  1.3383  0.3877
 4992SOL     OW15874   3.061   5.640   1.061 -0.9165  0.5029 -0.6507
 4992SOL    HW115875   3.051   5.685   0.972  2.0627 -0.4970 -1.6119
 4992SOL    HW215876   3.157   5.639   1.087 -1.5351 -0.6593  1.8647
 4993SOL     OW15877   1.793   6.705   4.367 -0.0830  0.2014  0.1492
 4993SOL    HW115878   1.796   6.683   4.465  0.1385 -0.8736 -0.0770
 4993SOL    HW215879   1.844   6.789   4.350 -1.5646  1.3488  1.1727
 4994SOL     OW15880   2.343   4.625   0.131  0.1115  0.2492 -0.3997
 4994SOL    HW115881   2.373   4.546   0.185  0.0746 -0.7579 -1.7988
 4994SOL    HW215882   2.343   4.707   0.189 -0.3588 -0.8555  1.2214
 4995SOL     OW15883   4.951   1.149   3.596  0.4586  0.2508 -0.0282
 4995SOL    HW115884   4.943   1.246   3.572 -0.7983  0.8925  2.5539
 4995SOL    HW215885   4.886   1.095   3.542  0.3742  1.0085 -0.7022
 4996SOL     OW15886   0.156   4.074   5.287 -0.4455 -0.0685  0.5786
 4996SOL    HW115887   0.056   4.066   5.286 -0.4975  0.2960  1.6178
 4996SOL    HW215888   0.196   3.982   5.289 -0.8436 -0.2666  2.7172
 4997SOL     OW15889   6.089   3.311   6.675 -0.2260  0.1955  0.2812
 4997SOL    HW115890   6.005   3.328   6.727 -0.1183  0.8037  0.2699
 4997SOL    HW215891   6.167   3.349   6.725  0.1689 -1.1514  0.7245
 4998SOL     OW15892   2.711   4.229   0.440 -0.0920 -0.2266  0.0844
 4998SOL    HW115893   2.798   4.273   0.463  0.0979 -0.1415 -0.7453
 4998SOL    HW215894   2.729   4.150   0.381 -0.6376  0.4337 -1.0011
 4999SOL     OW15895   4.660   6.169   6.406  0.2901 -0.0395 -0.0172
 4999SOL    HW115896   4.644   6.255   6.456 -0.6279 -1.5424  2.4470
 4999SOL    HW215897   4.757   6.149   6.405  0.2446 -1.0234  3.2846
 5000SOL     OW15898   5.747   6.348   1.951  0.0559 -0.1574 -0.5252
 5000SOL    HW115899   5.719   6.275   2.013  1.4472  1.1252  1.7494
 5000SOL    HW215900   5.666   6.398   1.919 -0.7713 -1.6047 -0.7817
 5001SOL     OW15901   4.638   1.042   0.909 -0.2327 -0.9417  0.3930
 5001SOL    HW115902   4.726   0.994   0.917 -1.4255 -3.0473  1.9340
 5001SOL    HW215903   4.632   1.087   0.820  2.2343 -1.0455  0.1111
 5002SOL     OW15904   0.510   5.204   3.252 -0.1066  1.0191  0.1160
 5002SOL    HW115905   0.419   5.162   3.253  0.4452 -0.2309  0.5433
 5002SOL    HW215906   0.578   5.136   3.282  1.4415  0.7742 -3.4449
 5003SOL     OW15907   5.711   0.263   5.033  0.0946 -0.2422 -0.3263
 5003SOL    HW115908   5.629   0.316   5.052 -0.4547 -1.2374  0.1742
 5003SOL    HW215909   5.792   0.320   5.048 -0.4830  0.5636 -0.2124
 5004SOL     OW15910   2.157   2.483   6.392  0.3493  0.1370  0.6793
 5004SOL    HW115911   2.222   2.412   6.417 -0.3753 -0.1790  1.7115
 5004SOL    HW215912   2.207   2.565   6.362  1.1952 -1.1337 -1.6483
 5005SOL     OW15913   1.274   0.347   4.912 -0.9275  0.2460 -0.0653
 5005SOL    HW115914   1.257   0.402   4.830 -0.9600 -0.0589 -0.2652
 5005SOL    HW215915   1.367   0.364   4.943 -0.1967 -1.1484 -1.3535
 5006SOL     OW15916   5.985   0.856   3.083  0.1382  0.4214 -0.1500
 5006SOL    HW115917   6.029   0.785   3.138 -0.0773  0.0777 -0.4139
 5006SOL    HW215918   6.028   0.861   2.993 -0.6756 -0.2831 -0.6045
 5007SOL     OW15919   6.067   3.612   1.122  0.6155  0.1529 -0.0146
 5007SOL    HW115920   6.081   3.526   1.171 -1.0526  0.6802  1.5273
 5007SOL    HW215921   6.136   3.622   1.050  2.0396 -1.5387  1.0342
 5008SOL     OW15922   2.442   0.739   4.623 -0.2179 -0.3150  0.0842
 5008SOL    HW115923   2.528   0.771   4.583 -0.1573 -2.3659 -1.5838
 5008SOL    HW215924   2.370   0.808   4.608  0.5901  0.4150 -0.5190
 5009SOL     OW15925   5.611   5.459   1.924 -0.5590 -1.2111 -0.3103
 5009SOL    HW115926   5.688   5.506   1.882 -1.3410  0.5172  0.0943
 5009SOL    HW215927   5.535   5.455   1.860 -1.2133  0.0095  0.3619
 5010SOL     OW15928   0.685   4.244   1.785  0.0540  0.3879 -0.1878
 5010SOL    HW115929   0.743   4.165   1.807 -0.2884 -0.0197 -0.7256
 5010SOL    HW215930   0.694   4.313   1.857 -1.9248 -1.3807  1.9178
 5011SOL     OW15931   3.051   6.524   0.868 -0.1722  0.6557  0.0489
 5011SOL    HW115932   2.958   6.498   0.842  0.0864  0.0418 -0.2818
 5011SOL    HW215933   3.108   6.442   0.875  0.2722  0.9996  0.5522
 5012SOL     OW15934   6.277   4.818   4.774  0.1183 -0.1678  0.5475
 5012SOL    HW115935   6.372   4.801   4.801 -0.1767 -0.5878  1.3732
 5012SOL    HW215936   6.219   4.812   4.855 -0.6027  0.1708  0.0587
 5013SOL     OW15937   0.430   4.664   4.206 -0.5154 -0.1059  0.0518
 5013SOL    HW115938   0.517   4.705   4.234 -0.8734  0.8271 -0.1650
 5013SOL    HW215939   0.406   4.591   4.269  1.4898 -1.8772 -1.1032
 5014SOL     OW15940   3.236   1.766   2.297  0.3348  0.7258 -0.0918
 5014SOL    HW115941   3.294   1.692   2.328 -2.3542 -0.5808  2.3058
 5014SOL    HW215942   3.276   1.854   2.323  2.3548  0.0588 -0.7607
 5015SOL     OW15943   4.511   0.224   5.093  0.4687 -0.7995 -0.0761
 5015SOL    HW115944   4.486   0.293   5.160  0.5899 -1.6554  0.8852
 5015SOL    HW215945   4.594   0.253   5.045 -0.9717  0.9501 -1.6238
 5016SOL     OW15946   0.575   0.671   1.304  0.1699 -0.6350 -0.0974
 5016SOL    HW115947   0.509   0.716   1.243 -0.2520 -1.0167  0.0775
 5016SOL    HW215948   0.611   0.738   1.369  0.1177 -0.3767 -0.3341
 5017SOL     OW15949   5.605   0.093   0.643  0.0359  0.4095  0.1289
 5017SOL    HW115950   5.656   0.061   0.563  0.7177 -0.2814  0.8198
 5017SOL    HW215951   5.648   0.174   0.682  0.1897  0.2541  0.2841
 5018SOL     OW15952   6.450   5.790   5.816 -0.4020 -0.2744 -0.2167
 5018SOL    HW115953   6.360   5.833   5.810  0.5448  1.7687 -0.5383
 5018SOL    HW215954   6.457   5.718   5.747 -2.1518 -1.2368  0.5538
 5019SOL     OW15955   4.550   4.052   5.578  1.0249 -0.3139 -0.6503
 5019SOL    HW115956   4.591   4.009   5.658  0.9973 -1.4841 -1.2548
 5019SOL    HW215957   4.572   4.000   5.496  1.7276  1.3086 -1.5457
 5020SOL     OW15958   5.818   4.895   0.605 -0.0942  0.0238 -0.1985
 5020SOL    HW115959   5.860   4.952   0.675 -0.1090 -0.3837  0.1437
 5020SOL    HW215960   5.722   4.879   0.626 -0.5638  1.3190 -1.2114
 5021SOL     OW15961   4.680   1.813   4.918 -0.0869  0.2088 -0.1977
 5021SOL    HW115962   4.700   1.774   4.828 -1.5665 -1.5083  0.1490
 5021SOL    HW215963   4.603   1.877   4.910  0.3226  0.6996 -0.2679
 5022SOL     OW15964   3.153   6.294   0.926  0.0359 -0.4065 -0.2015
 5022SOL    HW115965   3.119   6.218   0.871 -0.4346 -0.5298  0.2607
 5022SOL    HW215966   3.250   6.279   0.947  0.0993 -0.5828 -0.6013
 5023SOL     OW15967   1.100   1.654   1.400 -0.2947  0.6733  0.4498
 5023SOL    HW115968   1.059   1.722   1.339 -1.8608  1.3072  2.1119
 5023SOL    HW215969   1.029   1.591   1.431  1.1234 -1.8897 -1.1127
 5024SOL     OW15970   6.850   0.413   2.572  0.3133 -0.2150 -0.5335
 5024SOL    HW115971   6.839   0.340   2.505 -0.2459 -0.1920 -0.4711
 5024SOL    HW215972   6.944   0.448   2.568  0.4000 -0.4938 -1.0143
 5025SOL     OW15973   6.868   1.370   1.476 -0.1426  0.1165  0.6549
 5025SOL    HW115974   6.896   1.429   1.552 -0.1541  0.2088  0.5875
 5025SOL    HW215975   6.881   1.418   1.390 -0.0031 -0.0368  0.5881
 5026SOL     OW15976   5.741   4.101   2.131 -0.0965  0.0069  0.1319
 5026SOL    HW115977   5.748   4.068   2.224 -2.3862  1.8779  1.0813
 5026SOL    HW215978   5.830   4.136   2.100  0.5447 -0.0435  1.8563
 5027SOL     OW15979   6.204   2.104   2.732 -0.2282 -0.1042  0.1415
 5027SOL    HW115980   6.200   2.106   2.632  1.5727  2.7282 -0.0033
 5027SOL    HW215981   6.249   2.021   2.762  0.8935 -0.1684 -1.5561
 5028SOL     OW15982   3.096   3.327   0.007 -0.0859  0.0199  0.3154
 5028SOL    HW115983   3.155   3.262  -0.041 -0.5943 -0.2595  0.0618
 5028SOL    HW215984   3.151   3.403   0.041  0.5411 -0.6216  0.7572
 5029SOL     OW15985   1.106   3.393   3.350  0.1158  0.7044 -0.7125
 5029SOL    HW115986   1.021   3.421   3.395  0.6857  0.1943  0.7070
 5029SOL    HW215987   1.090   3.386   3.251 -1.9423 -1.0075 -0.3265
 5030SOL     OW15988   2.574   6.607   2.623 -0.1096 -0.5332 -0.0886
 5030SOL    HW115989   2.563   6.550   2.542 -0.2231 -1.3373  0.4867
 5030SOL    HW215990   2.659   6.583   2.670  0.2246  0.2952 -0.2502
 5031SOL     OW15991   3.236   1.110   1.434 -0.3165  0.4388 -0.1287
 5031SOL    HW115992   3.310   1.056   1.395 -0.2291  0.6987 -0.3274
 5031SOL    HW215993   3.158   1.112   1.371 -0.3103  0.5658 -0.1323
 5032SOL     OW15994   4.420   4.042   0.087 -0.4094 -0.3330 -0.1621
 5032SOL    HW115995   4.395   4.134   0.118 -0.7779  0.3645 -2.3734
 5032SOL    HW215996   4.350   3.977   0.116  0.4184 -0.1978  2.4314
 5033SOL     OW15997   3.373   6.293   4.048  0.4070  0.2343 -0.2850
 5033SOL    HW115998   3.362   6.351   4.129 -0.0620 -0.0353 -0.1502
 5033SOL    HW215999   3.365   6.197   4.076 -1.2365  0.1772 -0.8739
 5034SOL     OW16000   5.023   6.463   0.482  0.7966  0.5248  0.4018
 5034SOL    HW116001   4.938   6.512   0.497 -0.5445 -0.2734 -3.4400
 5034SOL    HW216002   5.031   6.389   0.549 -2.6926 -0.6936 -0.3053
 5035SOL     OW16003   2.944   6.220   2.374  0.2455  0.3605 -0.4553
 5035SOL    HW116004   2.895   6.145   2.329  1.3842 -1.6593  1.4745
 5035SOL    HW216005   2.985   6.279   2.304 -2.0628  0.2167 -2.0524
 5036SOL     OW16006   2.334   2.142   3.853 -0.2286  0.2620  1.1172
 5036SOL    HW116007   2.377   2.094   3.930  0.2441 -1.5870 -0.2126
 5036SOL    HW216008   2.314   2.236   3.878  1.1970  0.0968  3.0234
 5037SOL     OW16009   6.402   2.896   0.932  0.8655  0.1392 -0.4381
 5037SOL    HW116010   6.491   2.865   0.967  1.5028  2.7928  0.5416
 5037SOL    HW216011   6.415   2.949   0.849 -0.1128 -1.4740 -1.6767
 5038SOL     OW16012   5.861   6.748   6.731 -0.0974  0.2796 -0.0369
 5038SOL    HW116013   5.826   6.696   6.809  0.4448  1.0316  0.7187
 5038SOL    HW216014   5.956   6.722   6.713 -0.1301  0.3170 -0.2675
 5039SOL     OW16015   6.566   6.379   0.436 -0.4091 -0.0687 -0.4777
 5039SOL    HW116016   6.560   6.451   0.367  0.1603  0.0835 -0.3760
 5039SOL    HW216017   6.646   6.322   0.417  0.6460  0.8880  0.9141
 5040SOL     OW16018   5.117   1.553   2.747  0.0513 -0.1805  0.0206
 5040SOL    HW116019   5.121   1.499   2.832 -1.4877 -2.0095 -0.9775
 5040SOL    HW216020   5.032   1.532   2.699  0.0051  2.2477 -1.0927
 5041SOL     OW16021   4.759   4.589   0.275 -0.2138  0.1604 -0.0395
 5041SOL    HW116022   4.721   4.509   0.230  1.9276 -0.9681  0.0478
 5041SOL    HW216023   4.859   4.585   0.272 -0.0458  2.2511  0.9958
 5042SOL     OW16024   1.615   5.399   5.987 -0.6160  0.0999  0.4871
 5042SOL    HW116025   1.694   5.427   5.931  0.4514 -3.2223  0.0824
 5042SOL    HW216026   1.642   5.394   6.083 -0.2457 -1.1659  0.3319
 5043SOL     OW16027   0.588   5.797   4.520  0.2264  0.1040  0.3894
 5043SOL    HW116028   0.624   5.827   4.609  2.0538 -1.1541  0.1191
 5043SOL    HW216029   0.660   5.804   4.451 -1.2146  1.2175 -1.0826
 5044SOL     OW16030   4.400   1.967   3.640 -0.1537  0.5905  0.3329
 5044SOL    HW116031   4.411   1.888   3.700  0.9648 -1.2674 -2.1244
 5044SOL    HW216032   4.302   1.988   3.631 -0.6482 -1.6079 -0.1980
 5045SOL     OW16033   3.658   6.730   4.808  0.2148  0.5033 -0.1405
 5045SOL    HW116034   3.578   6.751   4.864  0.9523  0.8460  0.8138
 5045SOL    HW216035   3.742   6.748   4.861  0.9410  1.0164 -1.4081
 5046SOL     OW16036   3.814   3.723   5.588 -0.4906 -0.1215  0.1546
 5046SOL    HW116037   3.730   3.706   5.640 -0.7927  1.2019  0.1499
 5046SOL    HW216038   3.885   3.755   5.650  0.2197 -1.7921  0.2495
 5047SOL     OW16039   6.591   2.357   4.967  0.8490  0.1760 -0.1655
 5047SOL    HW116040   6.550   2.345   4.877  0.2584 -0.5036  0.1800
 5047SOL    HW216041   6.684   2.391   4.958  0.4925  0.9639 -0.9992
 5048SOL     OW16042   6.321   5.593   4.169 -0.4672  0.5150 -0.2839
 5048SOL    HW116043   6.223   5.577   4.183 -1.0743  1.9496 -2.3937
 5048SOL    HW216044   6.339   5.691   4.169  0.6312  0.3504 -1.7513
 5049SOL     OW16045   1.708   3.444   5.541  0.0782  0.5042 -0.2555
 5049SOL    HW116046   1.622   3.492   5.525 -0.2891 -0.5330 -1.5274
 5049SOL    HW216047   1.691   3.358   5.588  0.4938  0.5505 -0.0087
 5050SOL     OW16048   6.063   3.816   6.163  0.4684  0.1590  0.0236
 5050SOL    HW116049   6.125   3.769   6.100  1.8539 -0.0447  1.4700
 5050SOL    HW216050   6.108   3.897   6.200 -0.1556  0.0607  1.0384
 5051SOL     OW16051   4.970   1.390   0.231 -0.1599  0.3630  0.0517
 5051SOL    HW116052   4.928   1.328   0.298  0.3291 -1.6570 -1.4141
 5051SOL    HW216053   4.940   1.483   0.249 -2.0302 -0.4474  1.5331
 5052SOL     OW16054   5.071   3.761   5.022  0.2374 -0.1076  0.2409
 5052SOL    HW116055   5.156   3.778   4.973  0.6999  1.2245  1.4408
 5052SOL    HW216056   5.007   3.837   5.006  0.5312  0.5483  1.9084
 5053SOL     OW16057   0.459   3.533   0.891  0.6015 -0.1310  0.2699
 5053SOL    HW116058   0.368   3.537   0.851 -0.2218 -1.3706  1.8875
 5053SOL    HW216059   0.456   3.478   0.975  2.8852 -0.3946  0.2440
 5054SOL     OW16060   2.537   0.858   3.220 -0.0393  0.2742  0.1883
 5054SOL    HW116061   2.626   0.897   3.197 -0.1204  0.9790  1.0348
 5054SOL    HW216062   2.500   0.904   3.301 -0.1765 -1.4925  1.1867
 5055SOL     OW16063   4.540   3.913   6.671  0.2720 -0.0862  0.7403
 5055SOL    HW116064   4.558   3.820   6.703  2.4996 -0.0510 -0.2716
 5055SOL    HW216065   4.606   3.976   6.711  2.5800  0.1033 -2.9372
 5056SOL     OW16066   0.649   4.682   4.638  0.1502 -0.3856 -0.1686
 5056SOL    HW116067   0.569   4.644   4.686  0.8367 -0.6033  0.8329
 5056SOL    HW216068   0.630   4.776   4.610 -0.6282 -0.5935 -0.3598
 5057SOL     OW16069   3.371   6.223   3.438  0.4002  0.1312  0.5793
 5057SOL    HW116070   3.279   6.263   3.449 -0.3482 -1.1323 -0.7694
 5057SOL    HW216071   3.365   6.124   3.445  1.5592 -0.0113 -0.2403
 5058SOL     OW16072   5.551   6.116   3.475 -0.0548 -0.5183  0.0925
 5058SOL    HW116073   5.618   6.185   3.503  1.3489 -2.1135  0.8332
 5058SOL    HW216074   5.553   6.107   3.375  2.3181 -1.9052  0.2000
 5059SOL     OW16075   3.356   5.780   5.858 -0.2586 -0.6052 -0.3849
 5059SOL    HW116076   3.266   5.815   5.886  0.2176  0.7597 -0.4618
 5059SOL    HW216077   3.415   5.772   5.938 -0.1886 -0.6648 -0.4426
 5060SOL     OW16078   6.003   3.378   1.576 -0.1778 -0.1653  0.3600
 5060SOL    HW116079   5.918   3.338   1.541  0.8357 -0.0467 -2.5155
 5060SOL    HW216080   6.001   3.378   1.676 -2.7474 -1.8561  0.4118
 5061SOL     OW16081   5.606   3.953   0.690 -0.0288  0.4833 -0.1519
 5061SOL    HW116082   5.638   3.858   0.693 -0.2544  0.4227  0.6646
 5061SOL    HW216083   5.669   4.011   0.741 -0.5547  0.5603  0.4266
 5062SOL     OW16084   6.926   0.629   4.008 -0.4963 -0.3424 -0.2843
 5062SOL    HW116085   6.878   0.707   4.047 -2.9671 -0.8776 -2.0304
 5062SOL    HW216086   6.900   0.546   4.057 -1.4708 -0.6377 -1.2551
 5063SOL     OW16087   6.228   5.059   0.515  0.5554  1.0029 -0.5837
 5063SOL    HW116088   6.275   5.147   0.522  1.2550  0.7210 -1.4912
 5063SOL    HW216089   6.235   5.025   0.421  1.9149 -0.8963  0.1489
 5064SOL     OW16090   5.200   1.141   6.833  0.6107 -0.1387 -0.3109
 5064SOL    HW116091   5.292   1.103   6.826  0.7766  0.3654 -0.9330
 5064SOL    HW216092   5.205   1.240   6.838  0.0779 -0.0806 -0.8100
 5065SOL     OW16093   2.842   4.277   0.973 -0.3271  0.1280  0.1386
 5065SOL    HW116094   2.823   4.298   1.070 -0.5303 -0.8743  0.3222
 5065SOL    HW216095   2.790   4.197   0.945 -1.0143  0.9716 -1.0896
 5066SOL     OW16096   5.838   2.801   1.302 -0.0625  0.6721 -0.2700
 5066SOL    HW116097   5.894   2.741   1.359  0.3043  0.5025 -0.8008
 5066SOL    HW216098   5.741   2.781   1.317  0.0156  0.8897  0.5689
 5067SOL     OW16099   3.010   0.267   2.182  0.3941  0.6542  0.2169
 5067SOL    HW116100   2.939   0.247   2.250  0.1699 -1.4435 -0.5504
 5067SOL    HW216101   2.968   0.311   2.102  0.3970  1.6291  0.7310
 5068SOL     OW16102   6.078   5.052   2.177  0.1127 -0.1362  0.4298
 5068SOL    HW116103   6.006   4.998   2.132  0.1307 -1.3738  1.8169
 5068SOL    HW216104   6.085   5.024   2.272  1.0630  1.4145  0.8392
 5069SOL     OW16105   6.174   6.428   6.063  0.2217 -0.3104  0.0497
 5069SOL    HW116106   6.133   6.375   5.989 -0.4069  1.4444 -0.9137
 5069SOL    HW216107   6.102   6.468   6.120  0.6638 -0.1067  0.4761
 5070SOL     OW16108   3.844   2.870   0.881 -0.2921  0.2722  0.4199
 5070SOL    HW116109   3.846   2.957   0.833 -3.8148  0.0133 -0.5183
 5070SOL    HW216110   3.843   2.795   0.815  1.2128 -0.4348  1.1603
 5071SOL     OW16111   4.512   2.048   4.906 -0.0761 -0.1299  0.4366
 5071SOL    HW116112   4.574   2.100   4.847  1.9885 -0.4240  2.2258
 5071SOL    HW216113   4.430   2.103   4.924  0.3840  0.9703 -0.6849
 5072SOL     OW16114   1.668   3.056   0.286  0.0219  0.5698 -0.4670
 5072SOL    HW116115   1.681   3.000   0.204 -0.8906 -0.7084  0.2399
 5072SOL    HW216116   1.573   3.087   0.290  0.3657  1.6951 -0.5234
 5073SOL     OW16117   2.641   0.072   3.990  0.5056 -0.0617 -0.2640
 5073SOL    HW116118   2.673  -0.015   4.027  0.0574 -0.7967 -1.5637
 5073SOL    HW216119   2.635   0.067   3.891 -1.7164  0.6945 -0.2365
 5074SOL     OW16120   4.143   3.875   5.251  0.1820  0.3270 -0.1205
 5074SOL    HW116121   4.099   3.844   5.166  0.2946 -2.1512  0.6676
 5074SOL    HW216122   4.237   3.842   5.254  0.0676  0.0775  1.1297
 5075SOL     OW16123   1.241   3.753   3.681  0.0584  0.3141 -0.4882
 5075SOL    HW116124   1.232   3.693   3.760 -2.0471 -0.4639 -1.2400
 5075SOL    HW216125   1.265   3.845   3.711  1.7066 -0.4940  0.8208
 5076SOL     OW16126   4.861   5.589   4.414  0.2363  0.1237  0.3170
 5076SOL    HW116127   4.776   5.553   4.374  0.3114 -1.1931  1.2534
 5076SOL    HW216128   4.841   5.673   4.464 -0.2175  0.6749 -0.7384
 5077SOL     OW16129   1.209   3.590   4.135  0.2884  0.1631  0.2427
 5077SOL    HW116130   1.141   3.609   4.206 -0.7326 -0.3230 -0.5799
 5077SOL    HW216131   1.215   3.492   4.119  1.3232  0.1822  0.4194
 5078SOL     OW16132   1.937   3.663   0.536 -0.1329 -0.4238  0.3713
 5078SOL    HW116133   1.930   3.574   0.491  0.0730 -0.8181  1.0845
 5078SOL    HW216134   1.890   3.659   0.624  0.8992 -0.2069  0.9518
 5079SOL     OW16135   5.200   0.438   6.743 -1.3960  0.4106  0.0685
 5079SOL    HW116136   5.163   0.488   6.665 -0.3189 -0.9875 -1.3962
 5079SOL    HW216137   5.190   0.339   6.727 -1.3845  0.0960  1.8263
 5080SOL     OW16138   2.346   6.998   1.933  0.2967  0.0193  0.1135
 5080SOL    HW116139   2.419   6.984   2.000 -1.4257 -0.5017  1.9857
 5080SOL    HW216140   2.297   7.083   1.955 -0.1042 -0.0050 -0.6744
 5081SOL     OW16141   4.173   4.795   1.516 -0.6660 -0.0412 -0.1888
 5081SOL    HW116142   4.181   4.877   1.459 -3.1386  0.4042  0.0205
 5081SOL    HW216143   4.127   4.818   1.602 -0.3802 -1.4480  0.3718
 5082SOL     OW16144   4.132   6.863   4.905 -0.1861  0.0524 -1.0461
 5082SOL    HW116145   4.078   6.895   4.827 -3.9250 -1.7764  0.5384
 5082SOL    HW216146   4.077   6.871   4.988  3.2045  0.8079  1.3347
 5083SOL     OW16147   6.995   5.015   2.319 -0.4299  0.3232  0.3756
 5083SOL    HW116148   6.993   5.115   2.315  1.0240  0.3393 -0.5784
 5083SOL    HW216149   7.022   4.979   2.230  0.8978 -0.8512  1.2130
 5084SOL     OW16150   0.886   1.265   2.226 -0.1564 -0.1325  0.4462
 5084SOL    HW116151   0.938   1.195   2.177  1.9244  0.7758  1.2814
 5084SOL    HW216152   0.936   1.351   2.227 -1.1495  0.4879  2.2714
 5085SOL     OW16153   5.474   0.658   5.457  0.0089  0.5173 -0.1002
 5085SOL    HW116154   5.487   0.569   5.500  1.2814  0.8090  0.1567
 5085SOL    HW216155   5.397   0.705   5.501 -0.3263 -0.2245  0.1247
 5086SOL     OW16156   0.797   1.721   6.497  0.1408 -0.2279 -0.4485
 5086SOL    HW116157   0.821   1.624   6.508  0.5938 -0.0337  0.4029
 5086SOL    HW216158   0.814   1.769   6.584 -2.0285  0.2016 -0.1979
 5087SOL     OW16159   4.217   1.499   4.419  0.0453  0.6574 -0.5049
 5087SOL    HW116160   4.255   1.534   4.333 -0.5656  1.5997 -0.4076
 5087SOL    HW216161   4.277   1.428   4.455  1.6741  2.0216 -0.4011
 5088SOL     OW16162   0.773   4.115   2.616  0.4358  0.0074  0.0064
 5088SOL    HW116163   0.857   4.064   2.599  0.0517 -0.9491  0.8548
 5088SOL    HW216164   0.786   4.177   2.694 -0.2821 -1.8786  1.7337
 5089SOL     OW16165   3.203   2.548   5.354  0.6095 -0.3817 -0.2581
 5089SOL    HW116166   3.136   2.618   5.329  1.7436  1.4284  1.4365
 5089SOL    HW216167   3.194   2.470   5.293 -2.2205  0.2797 -0.8211
 5090SOL     OW16168   1.346   4.732   2.013  0.1393  0.0684  0.4082
 5090SOL    HW116169   1.419   4.799   2.027 -0.9793  1.7405 -1.1325
 5090SOL    HW216170   1.267   4.757   2.069 -0.0893 -0.3220  0.2648
 5091SOL     OW16171   6.929   2.785   1.202 -0.0750 -0.2133  0.6726
 5091SOL    HW116172   6.843   2.751   1.240 -0.1361 -0.4297  0.3461
 5091SOL    HW216173   6.918   2.881   1.176 -1.1300 -0.9551 -1.9984
 5092SOL     OW16174   4.733   0.476   0.148 -0.1351  0.5007  0.5906
 5092SOL    HW116175   4.781   0.488   0.235  1.3683  0.5163 -0.2022
 5092SOL    HW216176   4.659   0.542   0.141  0.8303  1.6908  1.1273
 5093SOL     OW16177   0.421   5.299   5.845 -0.3059 -0.1902 -0.4438
 5093SOL    HW116178   0.376   5.308   5.934  1.0459 -1.0869  0.3691
 5093SOL    HW216179   0.434   5.202   5.825  1.9514  0.0252 -0.2536
 5094SOL     OW16180   0.599   6.392   2.616 -0.1069 -0.0294  0.5547
 5094SOL    HW116181   0.592   6.315   2.553  0.1904  0.1223  0.3284
 5094SOL    HW216182   0.581   6.477   2.566  2.7104  0.3547  0.0077
 5095SOL     OW16183   1.153   1.459   2.275 -0.9048  0.3321  1.2778
 5095SOL    HW116184   1.189   1.373   2.312 -1.4227 -0.5186 -0.1091
 5095SOL    HW216185   1.227   1.508   2.229 -1.1340 -0.6734 -0.2285
 5096SOL     OW16186   2.345   1.914   1.118 -0.3292  0.4085  0.3266
 5096SOL    HW116187   2.375   1.840   1.178  0.1277 -0.4563 -0.9230
 5096SOL    HW216188   2.414   1.987   1.117  0.3394 -0.2208 -0.2333
 5097SOL     OW16189   5.840   4.924   2.070  0.2604 -0.1210 -0.5685
 5097SOL    HW116190   5.783   4.997   2.109  0.2809  0.0451 -0.8484
 5097SOL    HW216191   5.801   4.894   1.983 -1.1499 -2.1512  0.6763
 5098SOL     OW16192   0.371   1.479   1.639 -0.1409 -0.3180 -0.0973
 5098SOL    HW116193   0.330   1.555   1.690  3.4092  1.6628  0.1501
 5098SOL    HW216194   0.375   1.503   1.541 -1.4288 -1.4466 -0.4560
 5099SOL     OW16195   6.319   2.332   2.841 -0.3188 -0.2040 -0.5971
 5099SOL    HW116196   6.235   2.384   2.856 -0.2762 -0.4477  0.5559
 5099SOL    HW216197   6.300   2.252   2.784 -0.5532  0.5703 -1.6364
 5100SOL     OW16198   1.265   5.922   2.654 -0.4343  0.1753 -0.1581
 5100SOL    HW116199   1.349   5.976   2.658 -0.7322  0.7657 -1.4253
 5100SOL    HW216200   1.276   5.840   2.709  0.8751  0.3705 -0.0892
 5101SOL     OW16201   4.910   2.460   1.016  0.0810 -0.0832 -0.2620
 5101SOL    HW116202   4.894   2.497   0.924  1.6813  1.6959  0.0989
 5101SOL    HW216203   5.005   2.477   1.042  0.3416 -2.6958  0.8199
 5102SOL     OW16204   1.662   3.540   3.253 -0.3365 -0.2316 -0.3335
 5102SOL    HW116205   1.688   3.452   3.295 -0.8622 -0.2376 -0.0086
 5102SOL    HW216206   1.742   3.598   3.246 -0.5114  0.4831  2.4092
 5103SOL     OW16207   0.413   6.397   1.332 -0.1476 -0.1013  0.3298
 5103SOL    HW116208   0.355   6.365   1.407 -1.1995  0.1760 -0.3465
 5103SOL    HW216209   0.449   6.318   1.282 -1.4358 -0.2973 -0.3498
 5104SOL     OW16210   0.863   3.150   4.583  0.1865  0.3881 -0.6154
 5104SOL    HW116211   0.841   3.205   4.664 -0.6906 -0.5668 -0.1701
 5104SOL    HW216212   0.814   3.186   4.504 -1.1944 -0.3001 -0.1215
 5105SOL     OW16213   0.489   5.645   5.464  0.0037  0.1139  0.0616
 5105SOL    HW116214   0.516   5.555   5.498  1.0358  0.0798 -0.7961
 5105SOL    HW216215   0.398   5.668   5.499  0.2724 -0.6826  1.3652
 5106SOL     OW16216   5.402   0.210   3.956 -0.5187  0.0162 -1.2834
 5106SOL    HW116217   5.366   0.166   4.038  2.5141  2.2717  1.5854
 5106SOL    HW216218   5.449   0.143   3.899  1.5891 -1.0612  1.4979
 5107SOL     OW16219   2.254   3.069   0.948 -0.2026  0.2183 -0.9687
 5107SOL    HW116220   2.251   3.130   0.869  0.5823  1.3900 -0.1239
 5107SOL    HW216221   2.349   3.045   0.968 -0.4484 -0.6504 -0.8139
 5108SOL     OW16222   2.382   5.195   2.563 -0.2599 -0.3761 -0.1471
 5108SOL    HW116223   2.323   5.122   2.599  1.0606 -1.3765  0.0324
 5108SOL    HW216224   2.469   5.157   2.534 -0.3829  0.7941 -2.2073
 5109SOL     OW16225   0.093   4.715   2.388 -0.0503 -0.6545 -0.0969
 5109SOL    HW116226   0.079   4.686   2.482  0.7040  1.7758  0.8334
 5109SOL    HW216227   0.010   4.758   2.353  0.4403  0.7493  0.3943
 5110SOL     OW16228   4.051   1.074   4.761 -0.3881 -0.7368  0.1375
 5110SOL    HW116229   4.086   1.127   4.839 -2.2294 -0.1780  0.6329
 5110SOL    HW216230   4.042   1.133   4.681 -0.0711 -0.9073 -0.0242
 5111SOL     OW16231   5.094   2.585   1.942 -0.1766  0.5490  0.5995
 5111SOL    HW116232   5.120   2.511   2.004 -0.1032 -0.7780 -0.9487
 5111SOL    HW216233   5.108   2.673   1.987 -2.6580 -0.3517  3.4614
 5112SOL     OW16234   3.438   4.620   1.594 -0.5489  0.2368  0.0318
 5112SOL    HW116235   3.505   4.565   1.546  1.1575  0.9508  1.4881
 5112SOL    HW216236   3.475   4.649   1.682 -1.6529  3.0072 -0.2946
 5113SOL     OW16237   3.998   5.531   4.743  0.2674 -0.3294  0.2742
 5113SOL    HW116238   3.970   5.435   4.749 -0.3747 -0.2319 -1.0092
 5113SOL    HW216239   3.931   5.588   4.791  0.6004 -0.4988  0.9579
 5114SOL     OW16240   6.869   5.680   6.863  0.3492 -0.4660 -0.2340
 5114SOL    HW116241   6.789   5.677   6.923 -0.5577  0.5323 -1.3478
 5114SOL    HW216242   6.924   5.598   6.877 -0.9233 -1.2288  0.4729
 5115SOL     OW16243   1.841   6.238   1.185 -0.4287  0.0031  0.1187
 5115SOL    HW116244   1.806   6.173   1.118 -1.3732  0.7874 -0.1730
 5115SOL    HW216245   1.817   6.331   1.157 -1.1041  0.3294  1.6958
 5116SOL     OW16246   3.883   4.067   5.573 -0.3784  0.0259  0.0623
 5116SOL    HW116247   3.885   4.162   5.606 -1.7467  0.3331 -0.6233
 5116SOL    HW216248   3.965   4.019   5.602  0.1164  1.2926  0.8306
 5117SOL     OW16249   2.173   2.912   5.245  0.4136 -0.0558 -0.4243
 5117SOL    HW116250   2.211   2.926   5.336  1.1072 -0.8740 -0.5836
 5117SOL    HW216251   2.238   2.945   5.176 -0.0272  0.3842 -0.6408
 5118SOL     OW16252   3.357   5.732   0.827  0.4123  0.0618 -0.2693
 5118SOL    HW116253   3.342   5.689   0.738 -0.3870 -2.4821  0.9787
 5118SOL    HW216254   3.277   5.787   0.851 -0.1552 -0.6826 -0.3980
 5119SOL     OW16255   1.623   2.564   2.071  0.1240 -0.2321 -0.3223
 5119SOL    HW116256   1.674   2.580   1.987  2.1392 -1.5696  0.5670
 5119SOL    HW216257   1.620   2.466   2.090 -3.1640 -0.2925 -0.4748
 5120SOL     OW16258   1.806   2.983   6.561 -0.0461 -0.1543  0.0366
 5120SOL    HW116259   1.838   3.054   6.499  0.9060 -0.2206  0.4358
 5120SOL    HW216260   1.792   2.898   6.510 -2.7826  0.6840 -0.7718
 5121SOL     OW16261   1.654   1.102   6.599  0.2171 -0.0760  0.3892
 5121SOL    HW116262   1.686   1.197   6.592  1.3113 -0.4675 -0.1394
 5121SOL    HW216263   1.574   1.099   6.659  0.1425  1.1838  0.3965
 5122SOL     OW16264   1.284   4.154   1.186 -0.2087 -0.0323 -0.2302
 5122SOL    HW116265   1.267   4.119   1.094  0.8388  0.4200 -0.6205
 5122SOL    HW216266   1.267   4.253   1.188 -0.6820 -0.1177  0.1925
 5123SOL     OW16267   1.079   1.475   2.012  0.2474  0.5034 -0.1074
 5123SOL    HW116268   1.080   1.479   2.112  0.0857  2.0308 -0.1397
 5123SOL    HW216269   1.173   1.467   1.978  0.4547  1.6420  0.1478
 5124SOL     OW16270   6.643   4.014   4.875  0.6215 -0.4987 -0.5390
 5124SOL    HW116271   6.649   4.109   4.845  0.1265 -0.5201 -0.7264
 5124SOL    HW216272   6.729   3.986   4.917  0.0728  0.7133  1.5031
 5125SOL     OW16273   1.466   6.112   5.925  0.0021  0.0189  0.0281
 5125SOL    HW116274   1.499   6.047   5.856 -1.6105 -0.3125 -0.4695
 5125SOL    HW216275   1.541   6.171   5.953  1.0051 -0.6889 -1.0615
 5126SOL     OW16276   4.070   2.988   6.407  0.4719 -0.0121 -0.5593
 5126SOL    HW116277   4.156   3.032   6.433  0.1323 -1.0240  2.7718
 5126SOL    HW216278   3.993   3.042   6.441 -0.0942 -0.8059 -0.5556
 5127SOL     OW16279   4.915   6.248   3.191 -0.7681  0.2335  0.6254
 5127SOL    HW116280   4.972   6.168   3.176  0.2340  1.1033 -0.3717
 5127SOL    HW216281   4.929   6.283   3.283  1.0256  0.9570  0.1079
 5128SOL     OW16282   6.272   4.222   6.106 -0.0486 -0.0117  0.1185
 5128SOL    HW116283   6.176   4.197   6.094  0.2483 -0.3550 -1.8772
 5128SOL    HW216284   6.328   4.170   6.042  1.0175  2.9494 -1.5585
 5129SOL     OW16285   1.504   4.883   3.904 -0.1931 -0.0394 -0.2779
 5129SOL    HW116286   1.578   4.831   3.863  0.3857  1.1308 -0.7317
 5129SOL    HW216287   1.443   4.820   3.953  1.0745 -1.0202  0.0997
 5130SOL     OW16288   5.071   4.799   2.211  0.1359 -0.1226 -0.5591
 5130SOL    HW116289   5.094   4.883   2.162  0.1492 -0.3954 -1.0189
 5130SOL    HW216290   5.148   4.774   2.271 -0.4708  1.0301  0.7534
 5131SOL     OW16291   4.710   1.180   6.852  0.0266  0.4350 -0.0386
 5131SOL    HW116292   4.773   1.215   6.782 -0.9413 -0.0878 -1.2074
 5131SOL    HW216293   4.616   1.202   6.826 -0.6262 -2.5800 -0.6542
 5132SOL     OW16294   2.579   1.680   6.823 -0.0915 -0.1938 -0.7030
 5132SOL    HW116295   2.611   1.647   6.734 -1.4344  0.2221 -1.3688
 5132SOL    HW216296   2.484   1.653   6.837 -0.1245  0.3792  0.2761
 5133SOL     OW16297   3.967   3.100   5.590  0.2520 -0.2507  0.1583
 5133SOL    HW116298   4.015   3.093   5.502  0.1999  1.6996 -0.0729
 5133SOL    HW216299   3.927   3.191   5.599  0.2596 -0.3985  2.2211
 5134SOL     OW16300   5.034   4.110   1.645 -0.0370 -0.0730  0.0948
 5134SOL    HW116301   4.957   4.174   1.657 -1.9091 -2.2377  0.4280
 5134SOL    HW216302   5.086   4.105   1.730  0.3923  1.2739 -0.0629
 5135SOL     OW16303   2.345   2.399   5.492  0.0073 -0.4314 -0.5756
 5135SOL    HW116304   2.397   2.382   5.409 -0.3264 -1.6426 -0.5570
 5135SOL    HW216305   2.275   2.469   5.474 -1.1033 -1.7975 -1.7855
 5136SOL     OW16306   1.728   4.435   3.010  0.1291 -0.2343 -0.6140
 5136SOL    HW116307   1.777   4.516   3.040  0.3536 -0.2559 -0.9209
 5136SOL    HW216308   1.712   4.374   3.089 -1.1784  0.6900 -0.1305
 5137SOL     OW16309   1.235   0.138   6.394  0.3551 -0.5137 -0.1132
 5137SOL    HW116310   1.223   0.152   6.492 -3.7585  1.4325 -0.6966
 5137SOL    HW216311   1.168   0.072   6.361  1.0912 -0.4852 -1.7450
 5138SOL     OW16312   1.006   6.024   1.991 -0.4625  0.5396 -0.7704
 5138SOL    HW116313   0.939   6.025   2.065  1.3291  1.5038  0.8986
 5138SOL    HW216314   1.074   5.954   2.008 -1.0383 -0.5172 -2.5270
 5139SOL     OW16315   0.629   4.446   5.344 -0.0528  0.0654 -0.4460
 5139SOL    HW116316   0.698   4.518   5.331 -1.1323  1.6556  1.7771
 5139SOL    HW216317   0.543   4.475   5.303 -0.0443 -0.8073 -1.1009
 5140SOL     OW16318   4.005   3.578   2.692 -0.3848 -0.4235  0.0435
 5140SOL    HW116319   4.043   3.486   2.700 -3.4691 -1.8422 -0.2358
 5140SOL    HW216320   4.039   3.621   2.608 -1.2302 -2.5726 -1.4890
 5141SOL     OW16321   0.299   6.687   5.149 -0.2300 -0.4394  0.2343
 5141SOL    HW116322   0.362   6.657   5.220 -1.1269 -0.1050  1.1889
 5141SOL    HW216323   0.205   6.668   5.177 -0.6424  0.4253 -0.5077
 5142SOL     OW16324   1.098   0.749   6.417  0.4676  0.4487  0.3375
 5142SOL    HW116325   1.187   0.702   6.412 -0.4641 -1.3064 -0.9830
 5142SOL    HW216326   1.108   0.841   6.380  1.3936 -0.3629 -1.6116
 5143SOL     OW16327   5.054   6.950   6.745  0.2873 -0.1659 -0.8335
 5143SOL    HW116328   5.021   6.873   6.691  0.3133 -1.4288  0.8505
 5143SOL    HW216329   5.119   6.917   6.813  0.1509  1.3227  0.0628
 5144SOL     OW16330   5.549   0.135   2.670  0.0699  0.3659 -0.3399
 5144SOL    HW116331   5.514   0.047   2.702  1.0450  0.9325  2.5463
 5144SOL    HW216332   5.473   0.193   2.642 -0.6793 -0.8909 -1.0264
 5145SOL     OW16333   4.109   3.487   4.105  0.2172  0.2289  0.8449
 5145SOL    HW116334   4.071   3.492   4.197 -0.4830 -2.4983  0.7864
 5145SOL    HW216335   4.051   3.538   4.042  0.0659  1.1615  1.7153
 5146SOL     OW16336   1.262   4.646   6.888  0.0829 -0.4688  0.8792
 5146SOL    HW116337   1.178   4.616   6.843  0.0072  0.4557  0.3795
 5146SOL    HW216338   1.324   4.569   6.898 -0.6284 -1.0570  0.8081
 5147SOL     OW16339   6.461   2.747   0.603  0.2296  0.0586 -0.3051
 5147SOL    HW116340   6.545   2.800   0.594  0.7255 -0.6706 -0.0265
 5147SOL    HW216341   6.469   2.684   0.680 -0.8166  0.4264  0.1211
 5148SOL     OW16342   4.715   6.970   1.106  0.3991  0.7926 -0.1808
 5148SOL    HW116343   4.798   6.917   1.122 -0.6749 -0.8201  0.3051
 5148SOL    HW216344   4.711   6.999   1.011  0.4099 -1.1349 -0.7998
 5149SOL     OW16345   5.065   3.255   1.796 -0.2212 -0.3404  0.1674
 5149SOL    HW116346   5.013   3.253   1.710 -0.5461 -0.4773  0.3664
 5149SOL    HW216347   5.077   3.162   1.831  2.2488 -0.5935 -1.1095
 5150SOL     OW16348   6.245   6.999   0.373 -0.1764 -0.2256  0.0569
 5150SOL    HW116349   6.235   7.075   0.309 -0.6447  0.1045  0.5074
 5150SOL    HW216350   6.166   6.997   0.434 -0.3927 -1.3563 -0.2381
 5151SOL     OW16351   1.991   3.485   6.274 -0.2009  0.3641  0.3870
 5151SOL    HW116352   2.028   3.393   6.259 -0.2923  0.3885 -0.0237
 5151SOL    HW216353   2.052   3.552   6.233 -2.4959  0.1911 -3.9159
 5152SOL     OW16354   4.646   4.404   4.326  0.1688  0.0270  1.0207
 5152SOL    HW116355   4.657   4.365   4.234  0.0945  0.7809  0.6844
 5152SOL    HW216356   4.697   4.348   4.392  1.9188  0.6030  0.2291
 5153SOL     OW16357   3.877   0.114   2.635 -0.4163 -0.1572  0.5931
 5153SOL    HW116358   3.941   0.060   2.688 -1.2276 -0.5732  1.1580
 5153SOL    HW216359   3.909   0.209   2.633  0.1419 -0.3267  0.9749
 5154SOL     OW16360   1.028   1.765   1.792  0.1090  0.0427 -0.6072
 5154SOL    HW116361   1.087   1.686   1.773  1.2937  0.7589 -0.0277
 5154SOL    HW216362   1.084   1.840   1.829 -0.9307  1.2683 -1.4415
 5155SOL     OW16363   0.030   6.370   6.594 -0.1700  0.0081  0.2153
 5155SOL    HW116364  -0.023   6.443   6.636 -0.8505 -0.1983 -0.2676
 5155SOL    HW216365   0.097   6.409   6.531 -0.7175  0.2030 -0.2481
 5156SOL     OW16366   3.496   1.303   5.359 -0.3470 -0.2810  0.1252
 5156SOL    HW116367   3.580   1.295   5.412  1.1227  1.8509 -1.6609
 5156SOL    HW216368   3.483   1.399   5.333 -1.7963 -0.9838 -1.9951
 5157SOL     OW16369   3.001   3.916   0.209  0.6024  0.0851  0.4808
 5157SOL    HW116370   3.019   3.995   0.149 -3.3374  0.9794  0.2039
 5157SOL    HW216371   3.076   3.851   0.200  2.1611  2.0060 -2.3168
 5158SOL     OW16372   5.243   6.526   0.325 -0.1843  0.0034  0.1105
 5158SOL    HW116373   5.211   6.471   0.248  0.9970  1.0009 -1.1247
 5158SOL    HW216374   5.173   6.526   0.397 -0.8799 -1.7845 -0.5034
 5159SOL     OW16375   2.251   0.240   4.310 -0.0304  0.0056 -0.2793
 5159SOL    HW116376   2.284   0.154   4.348  1.4685 -0.5409 -2.6492
 5159SOL    HW216377   2.189   0.221   4.234 -1.9430  1.0706  0.9274
 5160SOL     OW16378   3.937   0.287   3.111 -0.4231 -0.0662  0.4516
 5160SOL    HW116379   4.024   0.247   3.079 -0.1399 -0.2987  1.4600
 5160SOL    HW216380   3.949   0.385   3.125 -0.8405  0.2254 -1.0959
 5161SOL     OW16381   2.089   6.732   2.114  0.0529  0.8383  0.1471
 5161SOL    HW116382   2.174   6.758   2.161 -0.7039  1.0047  1.4687
 5161SOL    HW216383   2.096   6.638   2.082  0.7827  0.8923  0.1257
 5162SOL     OW16384   2.694   2.038   2.848 -0.2794  0.0123 -0.1221
 5162SOL    HW116385   2.617   1.984   2.816 -1.4167  0.8005  1.1580
 5162SOL    HW216386   2.716   2.108   2.780 -0.7625 -0.1500 -0.4543
 5163SOL     OW16387   2.156   6.272   4.341  0.4262 -0.0702  0.3457
 5163SOL    HW116388   2.176   6.184   4.382 -0.9079 -0.2655  0.6339
 5163SOL    HW216389   2.193   6.345   4.398  0.8684 -0.4142  0.5030
 5164SOL     OW16390   4.714   4.148   3.532  0.2609  0.0468 -0.1608
 5164SOL    HW116391   4.748   4.056   3.547  0.9142  0.3668  0.3725
 5164SOL    HW216392   4.723   4.172   3.436 -1.3936 -1.0144 -0.6214
 5165SOL     OW16393   1.057   2.202   5.142  0.2166  0.0618  0.0097
 5165SOL    HW116394   0.990   2.267   5.106  1.0237  1.3585  0.7903
 5165SOL    HW216395   1.024   2.166   5.229  0.5574  0.7305  0.4137
 5166SOL     OW16396   1.336   3.960   3.897 -0.1044 -0.4279  0.2997
 5166SOL    HW116397   1.422   3.938   3.852  0.3583 -1.8414  1.7606
 5166SOL    HW216398   1.346   3.949   3.996 -1.2245  2.0749  0.7728
 5167SOL     OW16399   4.941   1.560   6.880 -0.2188  0.2658 -0.4471
 5167SOL    HW116400   4.934   1.579   6.782 -2.9507 -0.2749 -0.4246
 5167SOL    HW216401   4.856   1.520   6.913  1.4545 -1.8412  1.7177
 5168SOL     OW16402   3.669   4.868   3.121  0.2726  0.3891  0.0524
 5168SOL    HW116403   3.727   4.873   3.039  0.9250 -1.2106  0.3682
 5168SOL    HW216404   3.722   4.829   3.196 -0.4912  1.2969  1.0833
 5169SOL     OW16405   1.774   4.070   3.620  0.1670  0.2732 -0.0587
 5169SOL    HW116406   1.869   4.095   3.635  0.1505  0.6531 -0.5390
 5169SOL    HW216407   1.764   4.028   3.530 -0.0877  0.0791  0.0601
 5170SOL     OW16408   3.116   6.374   3.488 -0.6691  0.1096  0.4147
 5170SOL    HW116409   3.185   6.447   3.484  0.2123 -0.7467 -1.4267
 5170SOL    HW216410   3.063   6.374   3.403 -1.0062 -1.0530  0.6115
 5171SOL     OW16411   2.432   6.336   1.572 -0.1633 -0.0067  0.5894
 5171SOL    HW116412   2.395   6.257   1.524  0.2039  1.4786 -2.3936
 5171SOL    HW216413   2.366   6.411   1.569  0.7842  0.8527  0.3374
 5172SOL     OW16414   4.851   5.261   4.236  0.7004 -0.0742  0.3719
 5172SOL    HW116415   4.925   5.201   4.270  1.0764  1.1538  1.8147
 5172SOL    HW216416   4.891   5.344   4.198  0.0948  0.0104 -0.0925
 5173SOL     OW16417   1.332   0.349   1.985  0.2260  0.0842  0.4874
 5173SOL    HW116418   1.245   0.346   2.035 -0.2387  0.3521 -0.3024
 5173SOL    HW216419   1.404   0.309   2.043 -0.3356  0.2183  1.3000
 5174SOL     OW16420   3.690   4.421   6.841 -0.0299  0.0672 -0.3917
 5174SOL    HW116421   3.663   4.333   6.801 -0.2836 -0.6441  1.2563
 5174SOL    HW216422   3.790   4.426   6.847  0.0606  0.5666 -1.8747
 5175SOL     OW16423   0.945   1.327   0.559  0.1146 -0.0590 -0.2070
 5175SOL    HW116424   0.972   1.361   0.469  1.7007  1.7055  0.8345
 5175SOL    HW216425   1.027   1.312   0.615 -0.8578  0.3582  1.4207
 5176SOL     OW16426   0.809   0.313   1.310  0.1513 -0.0637 -0.1009
 5176SOL    HW116427   0.754   0.394   1.326  1.0108  0.3595  0.7755
 5176SOL    HW216428   0.819   0.299   1.211  2.5937  2.7411 -0.3832
 5177SOL     OW16429   1.748   0.086   0.433 -0.4610  0.6184  0.0853
 5177SOL    HW116430   1.746   0.180   0.468 -2.8710 -0.7649  4.3723
 5177SOL    HW216431   1.654   0.054   0.417  0.1145 -1.7105  0.9178
 5178SOL     OW16432   3.971   5.344   6.279 -0.0044  0.0674  0.7130
 5178SOL    HW116433   3.987   5.323   6.376  0.6043  2.0020  1.0645
 5178SOL    HW216434   4.050   5.393   6.243 -0.6086  0.1328 -0.5456
 5179SOL     OW16435   0.043   0.306   5.200 -0.1566  0.0596  0.2028
 5179SOL    HW116436   0.082   0.320   5.109 -0.9217  0.5936 -0.0503
 5179SOL    HW216437   0.099   0.353   5.268 -0.9912  1.8682 -0.2984
 5180SOL     OW16438   4.910   3.559   3.034  0.1097 -0.1391  0.8706
 5180SOL    HW116439   4.884   3.639   2.979  0.9209  1.0511  2.1481
 5180SOL    HW216440   4.914   3.585   3.131  0.9586 -1.5933  1.2532
 5181SOL     OW16441   5.663   4.502   5.862 -0.3695 -0.4371 -0.9879
 5181SOL    HW116442   5.634   4.409   5.837 -0.9396  0.2819 -3.2802
 5181SOL    HW216443   5.583   4.560   5.875 -0.0168  0.1191 -1.2655
 5182SOL     OW16444   4.841   1.858   1.543 -0.6566  0.3356  0.7080
 5182SOL    HW116445   4.867   1.764   1.565 -0.0471  0.4929  0.6904
 5182SOL    HW216446   4.920   1.906   1.504 -0.6559  1.1569  1.6869
 5183SOL     OW16447   0.348   2.811   6.305  0.4422 -0.5208 -0.1704
 5183SOL    HW116448   0.282   2.813   6.380  0.4440  0.1609 -0.1839
 5183SOL    HW216449   0.311   2.860   6.227  0.3774 -1.3596 -0.6793
 5184SOL     OW16450   3.710   6.701   6.062 -0.7309  0.0859 -0.7530
 5184SOL    HW116451   3.786   6.636   6.050 -1.1725 -0.9128  1.3318
 5184SOL    HW216452   3.624   6.655   6.043 -0.9836  0.3810 -0.3363
 5185SOL     OW16453   2.399   2.518   5.994  0.1473 -0.4759  0.2960
 5185SOL    HW116454   2.471   2.467   5.947 -0.7998 -2.7059  1.1156
 5185SOL    HW216455   2.419   2.521   6.092  0.6732  1.6571  0.1643
 5186SOL     OW16456   0.547   6.188   5.000  0.3355 -0.3513  0.0363
 5186SOL    HW116457   0.467   6.204   5.057  0.9264  1.1314  0.4825
 5186SOL    HW216458   0.550   6.254   4.925  1.5672  0.1613  0.5081
 5187SOL     OW16459   0.199   3.686   0.654 -0.1389  0.1741 -0.3059
 5187SOL    HW116460   0.165   3.777   0.680  1.0518  0.5443  0.0169
 5187SOL    HW216461   0.263   3.695   0.578  0.6643 -0.2912  0.3074
 5188SOL     OW16462   5.791   4.808   5.296 -0.0817 -0.4413 -0.1440
 5188SOL    HW116463   5.823   4.864   5.220 -0.0466 -0.3213 -0.0409
 5188SOL    HW216464   5.789   4.863   5.380  2.2209 -1.1634  0.4734
 5189SOL     OW16465   3.543   6.131   0.383 -0.2302  0.2987 -0.2067
 5189SOL    HW116466   3.602   6.091   0.453 -1.0914 -1.0937 -0.2508
 5189SOL    HW216467   3.577   6.105   0.292 -0.0005  0.8371 -0.2805
 5190SOL     OW16468   3.372   5.316   4.875  0.3606  0.3970  0.3644
 5190SOL    HW116469   3.458   5.285   4.916 -0.4020 -2.4696 -0.0381
 5190SOL    HW216470   3.322   5.238   4.838 -0.6690  2.4085 -2.9158
 5191SOL     OW16471   5.451   6.915   2.754  0.9311 -0.0865 -0.4517
 5191SOL    HW116472   5.549   6.900   2.771  0.9273  0.6937  0.3357
 5191SOL    HW216473   5.402   6.912   2.841  0.1490 -1.0616 -0.8966
 5192SOL     OW16474   2.079   5.573   2.956  0.4511 -0.4120  0.0966
 5192SOL    HW116475   2.004   5.623   2.914 -0.9501 -1.9499  0.6476
 5192SOL    HW216476   2.141   5.540   2.884  0.2309  0.2794 -0.4245
 5193SOL     OW16477   1.908   6.754   2.507 -0.1052  0.2926 -0.1389
 5193SOL    HW116478   1.846   6.680   2.480  0.0885 -0.0511  0.3349
 5193SOL    HW216479   1.998   6.715   2.528 -0.6115  0.3410  2.3532
 5194SOL     OW16480   1.041   1.247   4.379  0.5268 -0.2949  0.2845
 5194SOL    HW116481   1.018   1.249   4.281 -1.5557 -0.5280  0.7412
 5194SOL    HW216482   1.015   1.159   4.418 -1.7046  0.9134  1.7129
 5195SOL     OW16483   6.099   1.922   0.857 -0.1207  0.3634  1.1051
 5195SOL    HW116484   6.190   1.962   0.864  0.1244  0.0246  0.0945
 5195SOL    HW216485   6.058   1.915   0.948  0.6324  1.0274  1.5109
 5196SOL     OW16486   2.580   3.397   5.424  0.4305 -0.0139 -0.3481
 5196SOL    HW116487   2.680   3.400   5.418  0.4117  1.7101 -0.2588
 5196SOL    HW216488   2.552   3.399   5.520  0.3016  0.8442 -0.3969
 5197SOL     OW16489   4.384   5.139   6.591  0.3569 -0.2205 -0.0587
 5197SOL    HW116490   4.428   5.156   6.679 -0.3838 -0.9349  0.4629
 5197SOL    HW216491   4.447   5.089   6.531  1.8970  2.5786 -0.9682
 5198SOL     OW16492   5.737   5.219   4.986 -0.2638 -0.0543  0.3347
 5198SOL    HW116493   5.721   5.199   4.890  1.2179  0.6374 -0.0889
 5198SOL    HW216494   5.708   5.141   5.042 -0.9852 -0.5242 -0.6683
 5199SOL     OW16495   6.662   6.050   3.963  0.3424  0.5580 -0.0556
 5199SOL    HW116496   6.571   6.009   3.958  0.2571  0.6636  0.5063
 5199SOL    HW216497   6.656   6.147   3.938  0.1322  0.7923  0.8614
 5200SOL     OW16498   1.524   6.058   0.012 -0.0890  0.3465 -0.3582
 5200SOL    HW116499   1.446   6.037   0.071 -0.3105  1.3247 -0.2833
 5200SOL    HW216500   1.498   6.130  -0.053  0.8940  1.0202 -0.0213
 5201SOL     OW16501   3.010   5.870   1.478  0.3025  0.1288  0.2952
 5201SOL    HW116502   2.952   5.918   1.412  1.7460  0.3002 -0.9109
 5201SOL    HW216503   3.060   5.937   1.533  1.6778  0.0629 -0.8116
 5202SOL     OW16504   2.258   3.226   0.729 -0.2316 -0.1187  0.4812
 5202SOL    HW116505   2.356   3.219   0.712 -0.3637 -1.5130  0.1388
 5202SOL    HW216506   2.209   3.230   0.641 -0.4983  0.3261  0.6457
 5203SOL     OW16507   0.656   1.515   2.526  0.2578  0.4280  0.1061
 5203SOL    HW116508   0.729   1.455   2.560 -0.0748 -0.7932 -1.2256
 5203SOL    HW216509   0.573   1.497   2.577  0.7231  1.4172  1.2472
 5204SOL     OW16510   0.666   1.882   3.553  0.1016 -0.0312  0.0011
 5204SOL    HW116511   0.682   1.950   3.481  1.7850 -0.5966 -0.2044
 5204SOL    HW216512   0.568   1.862   3.559 -0.1383  0.4785 -1.7040
 5205SOL     OW16513   4.774   5.855   3.259 -0.3724 -0.0223 -0.5187
 5205SOL    HW116514   4.726   5.777   3.300  0.1723  0.4578  1.1246
 5205SOL    HW216515   4.737   5.872   3.168 -2.3487 -0.5401  0.1257
 5206SOL     OW16516   3.585   6.200   5.362  0.7260 -1.2352  0.0281
 5206SOL    HW116517   3.678   6.220   5.390  0.9506 -1.0298 -0.8230
 5206SOL    HW216518   3.575   6.101   5.346  1.1013 -1.1357 -0.8900
 5207SOL     OW16519   3.608   0.096   3.848  0.3678 -0.4248 -0.3464
 5207SOL    HW116520   3.587   0.012   3.798 -0.0718  0.2121 -1.2556
 5207SOL    HW216521   3.538   0.113   3.917  0.0578 -0.4214 -0.6600
 5208SOL     OW16522   6.534   3.595   4.255  0.1796 -0.7635 -0.3657
 5208SOL    HW116523   6.611   3.567   4.313 -0.7479 -3.4985 -0.2944
 5208SOL    HW216524   6.451   3.550   4.287 -1.6761  2.5103 -0.1153
 5209SOL     OW16525   3.805   3.326   5.539  0.3200  0.3742  0.0125
 5209SOL    HW116526   3.723   3.345   5.485  0.7205  0.3240 -0.6268
 5209SOL    HW216527   3.783   3.333   5.636 -0.8489 -1.2977 -0.0851
 5210SOL     OW16528   1.401   4.914   0.752  0.2065 -0.3744 -0.7901
 5210SOL    HW116529   1.431   4.912   0.847 -0.2959 -0.9269 -0.6303
 5210SOL    HW216530   1.336   4.839   0.736  0.1624 -0.1930 -1.5271
 5211SOL     OW16531   4.183   1.979   0.740  0.4664 -0.4119 -0.0293
 5211SOL    HW116532   4.141   1.969   0.650  0.7895  0.4499 -0.2837
 5211SOL    HW216533   4.258   1.913   0.750  1.0700  0.1595 -0.7687
 5212SOL     OW16534   3.481   4.959   1.828 -0.1485  0.0179  0.1021
 5212SOL    HW116535   3.557   5.003   1.779  0.0968  1.1364  1.4173
 5212SOL    HW216536   3.512   4.873   1.867  0.3776  0.3287  0.3827
 5213SOL     OW16537   5.380   0.377   3.000 -0.6043  0.0380  0.1233
 5213SOL    HW116538   5.452   0.441   3.029  0.1858 -0.4436 -0.7348
 5213SOL    HW216539   5.386   0.363   2.901 -2.3241  0.5173 -0.0899
 5214SOL     OW16540   0.318   2.356   0.888 -0.1634  0.1234 -0.2012
 5214SOL    HW116541   0.225   2.372   0.856 -0.7501  1.4764  2.0080
 5214SOL    HW216542   0.382   2.413   0.836 -0.8683  1.0023 -0.1205
 5215SOL     OW16543   6.460   4.289   6.312 -0.0815  0.1393  0.7862
 5215SOL    HW116544   6.399   4.337   6.374  1.0673  1.3359  1.0387
 5215SOL    HW216545   6.416   4.280   6.223 -1.5828 -1.2363  1.6254
 5216SOL     OW16546   5.760   1.822   4.932  0.0533 -0.1614 -0.0183
 5216SOL    HW116547   5.802   1.873   5.007  1.5492 -1.0033 -0.2614
 5216SOL    HW216548   5.802   1.732   4.925 -0.5007 -0.3243 -1.4860
 5217SOL     OW16549   5.743   4.995   6.156 -0.1086  0.6248 -0.2201
 5217SOL    HW116550   5.752   5.059   6.079  0.8274 -0.0203 -0.6797
 5217SOL    HW216551   5.834   4.958   6.179 -0.4766  0.3073  0.7625
 5218SOL     OW16552   4.780   5.560   2.869 -0.3216 -0.2298  0.3989
 5218SOL    HW116553   4.813   5.491   2.804 -1.1081  1.0183 -1.4217
 5218SOL    HW216554   4.703   5.523   2.920 -0.0576 -1.0553  0.2250
 5219SOL     OW16555   0.618   2.470   4.301  0.3342  0.0792  0.3099
 5219SOL    HW116556   0.565   2.554   4.288 -1.7888 -0.9393  1.7746
 5219SOL    HW216557   0.700   2.490   4.354  1.5855  1.7146 -2.0661
 5220SOL     OW16558   5.179   5.372   3.633 -0.2487 -0.0889  0.2951
 5220SOL    HW116559   5.114   5.339   3.565 -2.3639  3.4152  0.3649
 5220SOL    HW216560   5.270   5.380   3.591 -0.5436 -1.9177 -0.8005
 5221SOL     OW16561   2.642   6.393   5.005 -0.6037 -0.2196 -0.7606
 5221SOL    HW116562   2.658   6.425   4.912 -0.5520  0.5325 -0.5048
 5221SOL    HW216563   2.725   6.352   5.042  0.0026  1.3154 -0.3476
 5222SOL     OW16564   6.769   2.603   4.649 -0.3732  0.3458 -0.0595
 5222SOL    HW116565   6.681   2.562   4.674  0.3609 -1.4587 -0.2528
 5222SOL    HW216566   6.798   2.569   4.560  1.0215  0.0066  0.4854
 5223SOL     OW16567   2.173   4.285   5.520 -0.1609  0.7568 -0.2026
 5223SOL    HW116568   2.223   4.250   5.440 -1.5787 -0.1641 -0.7299
 5223SOL    HW216569   2.218   4.368   5.553  2.9261 -1.0799  0.6518
 5224SOL     OW16570   1.938   2.816   0.304 -0.5160  0.0365 -0.0009
 5224SOL    HW116571   2.019   2.789   0.356  0.5036  1.8026 -0.6012
 5224SOL    HW216572   1.881   2.877   0.359  0.6697  2.0762 -0.9444
 5225SOL     OW16573   6.424   4.048   1.924 -0.0954 -0.0915  0.6180
 5225SOL    HW116574   6.479   4.041   1.841 -0.8740 -1.3412  0.1752
 5225SOL    HW216575   6.391   4.142   1.935  0.1992  0.1303 -0.3627
 5226SOL     OW16576   1.813   2.628   3.090 -0.3835  0.3538  0.3657
 5226SOL    HW116577   1.755   2.562   3.137  0.0374 -0.4674 -0.2368
 5226SOL    HW216578   1.902   2.633   3.137 -0.0721 -0.2383 -0.1489
 5227SOL     OW16579   4.017   2.631   1.578  0.4512  0.3515  0.1815
 5227SOL    HW116580   4.082   2.660   1.649  2.0667 -1.3698 -0.5290
 5227SOL    HW216581   3.931   2.604   1.621  1.1729 -0.0285  1.4388
 5228SOL     OW16582   3.292   6.225   0.346  0.2043  0.2609 -1.0227
 5228SOL    HW116583   3.262   6.263   0.434  1.1560  4.1211 -2.1695
 5228SOL    HW216584   3.390   6.207   0.349  0.6644  2.3691 -1.8034
 5229SOL     OW16585   4.428   3.874   6.380  0.5176 -0.2730 -0.2031
 5229SOL    HW116586   4.463   3.967   6.365 -0.0359  0.1595  1.0595
 5229SOL    HW216587   4.498   3.819   6.425  0.2059  0.0790  0.7249
 5230SOL     OW16588   6.349   4.789   5.267 -0.2801 -0.2030  0.2876
 5230SOL    HW116589   6.414   4.722   5.230  0.5479  0.6586  0.1440
 5230SOL    HW216590   6.386   4.881   5.256 -1.9670  0.4056 -0.6740
 5231SOL     OW16591   2.435   2.223   3.338 -0.2819 -0.3759 -0.1378
 5231SOL    HW116592   2.395   2.181   3.419  0.2985 -0.0165  0.3509
 5231SOL    HW216593   2.468   2.152   3.276  0.2989 -0.6528  0.4754
 5232SOL     OW16594   2.251   4.790   5.683 -0.0130  0.0961  0.0589
 5232SOL    HW116595   2.153   4.813   5.679  0.0717  0.4609  0.0765
 5232SOL    HW216596   2.305   4.874   5.681  0.2282  0.0864  2.7549
 5233SOL     OW16597   5.559   2.348   1.015 -0.7008 -0.1541  0.1194
 5233SOL    HW116598   5.572   2.373   1.111 -3.1745 -2.4628  1.2037
 5233SOL    HW216599   5.512   2.423   0.968  0.4826  0.9850  0.6813
 5234SOL     OW16600   0.368   1.355   1.013 -0.4737 -0.0962  0.2956
 5234SOL    HW116601   0.453   1.384   1.058  0.3785 -0.2639 -1.1171
 5234SOL    HW216602   0.381   1.358   0.914 -2.2497  0.2086  0.0352
 5235SOL     OW16603   6.132   0.639   3.191 -0.3020  0.3677 -0.4473
 5235SOL    HW116604   6.209   0.583   3.161 -0.4649  0.6864 -1.4858
 5235SOL    HW216605   6.152   0.677   3.282 -0.1120 -1.1971  0.1902
 5236SOL     OW16606   5.547   4.841   6.902 -0.0899 -0.0436  0.0702
 5236SOL    HW116607   5.554   4.743   6.885  1.0955 -0.1097  0.7935
 5236SOL    HW216608   5.469   4.859   6.962  1.4135 -0.9527  2.4547
 5237SOL     OW16609   1.073   6.335   0.029 -0.4474  0.2406  0.3836
 5237SOL    HW116610   1.035   6.426   0.013  0.0905  0.5177  0.6506
 5237SOL    HW216611   1.128   6.308  -0.049  0.0406  0.4854  0.6367
 5238SOL     OW16612   0.934   5.831   2.222  0.0286 -0.8646 -0.0308
 5238SOL    HW116613   0.879   5.757   2.186  0.3900 -1.5013  0.7107
 5238SOL    HW216614   0.875   5.903   2.258 -0.3126 -0.9887 -0.3393
 5239SOL     OW16615   4.469   2.475   4.914 -0.6994 -0.2609  0.3261
 5239SOL    HW116616   4.376   2.464   4.947 -0.6670  2.1273  1.4335
 5239SOL    HW216617   4.524   2.523   4.983  0.9948 -0.4390 -0.8293
 5240SOL     OW16618   5.327   0.051   6.006 -0.1469  0.1524 -0.0753
 5240SOL    HW116619   5.384   0.121   6.049  0.1395 -0.1334  0.0090
 5240SOL    HW216620   5.299  -0.016   6.075 -0.6036  0.3016 -0.1109
 5241SOL     OW16621   0.956   2.099   6.768  0.7604  0.3724  0.3519
 5241SOL    HW116622   1.053   2.121   6.767  2.0901 -4.3925  0.3858
 5241SOL    HW216623   0.916   2.125   6.856  2.1306  1.6826  0.6271
 5242SOL     OW16624   5.489   2.861   3.065 -0.2276 -1.1057 -0.4469
 5242SOL    HW116625   5.578   2.867   3.110  0.4430  1.1826 -1.9340
 5242SOL    HW216626   5.489   2.785   3.000  0.6712 -1.1069 -0.4533
 5243SOL     OW16627   2.574   4.958   4.616 -0.2273 -0.3096 -0.2345
 5243SOL    HW116628   2.517   4.941   4.536  1.0526  0.1944 -1.2873
 5243SOL    HW216629   2.646   4.888   4.622  0.7139  0.6044 -0.5165
 5244SOL     OW16630   2.355   1.478   2.109  0.1430  0.3134 -0.0098
 5244SOL    HW116631   2.305   1.523   2.035 -0.7450  1.1824  1.0965
 5244SOL    HW216632   2.429   1.423   2.070 -0.7528  0.1724 -1.5843
 5245SOL     OW16633   3.755   1.660   0.453  0.2081  0.5957  0.0620
 5245SOL    HW116634   3.729   1.662   0.549  1.2107 -0.1909  0.3659
 5245SOL    HW216635   3.700   1.726   0.402 -0.0087  1.3615  1.2544
 5246SOL     OW16636   6.963   5.035   6.685  0.3369 -0.0034 -0.2558
 5246SOL    HW116637   7.026   5.093   6.634 -1.5197  2.2263 -0.2018
 5246SOL    HW216638   6.904   5.092   6.743 -0.8102 -2.0673  0.7357
 5247SOL     OW16639   6.339   5.104   5.997 -0.1065  0.4797  0.1538
 5247SOL    HW116640   6.278   5.176   6.030  0.0739  1.1425 -0.9214
 5247SOL    HW216641   6.356   5.038   6.070 -0.9921  1.0434  0.8802
 5248SOL     OW16642   1.565   6.480   0.114 -0.1520 -0.1041 -0.2907
 5248SOL    HW116643   1.547   6.513   0.022 -1.5524 -0.2926 -0.0989
 5248SOL    HW216644   1.481   6.444   0.154  0.8506 -1.9201  0.3140
 5249SOL     OW16645   6.295   5.261   0.999 -0.1247  0.2682  0.8614
 5249SOL    HW116646   6.241   5.184   0.965  0.2271  0.4699 -0.1971
 5249SOL    HW216647   6.363   5.228   1.064 -0.2217 -0.2636  0.6989
 5250SOL     OW16648   0.318   6.619   1.205 -0.0353 -0.7849 -0.2965
 5250SOL    HW116649   0.353   6.544   1.261  1.7736 -0.9671 -1.5950
 5250SOL    HW216650   0.367   6.704   1.227  0.1369 -0.6868 -1.0395
 5251SOL     OW16651   4.479   6.590   5.571  0.0506 -0.5043  0.0845
 5251SOL    HW116652   4.523   6.543   5.648  0.3901 -1.3001 -0.5747
 5251SOL    HW216653   4.492   6.536   5.488  0.1888  0.6233 -0.6463
 5252SOL     OW16654   0.990   5.871   0.913 -0.3368  0.5313  0.4389
 5252SOL    HW116655   0.912   5.916   0.958 -0.7099  2.2762 -1.8062
 5252SOL    HW216656   0.975   5.772   0.913 -0.9987  0.5502  2.7831
 5253SOL     OW16657   5.214   0.310   0.702  0.0679 -0.4052 -1.0754
 5253SOL    HW116658   5.194   0.213   0.713 -0.5822 -0.1698  0.0935
 5253SOL    HW216659   5.312   0.324   0.689  0.6130 -1.0518  1.6750
 5254SOL     OW16660   2.117   2.275   2.394  0.2352 -0.2636  0.0176
 5254SOL    HW116661   2.047   2.207   2.415 -0.2620 -0.5214 -2.2145
 5254SOL    HW216662   2.074   2.365   2.381  0.8773  0.5656  2.8824
 5255SOL     OW16663   4.748   5.201   3.495  0.0992 -0.0032 -0.0863
 5255SOL    HW116664   4.740   5.256   3.579  1.8274 -0.8665  0.6939
 5255SOL    HW216665   4.689   5.121   3.501  1.5370 -1.0221  1.1535
 5256SOL     OW16666   5.436   0.473   2.163  0.8835  0.1266  0.3805
 5256SOL    HW116667   5.447   0.569   2.189 -0.3815  0.1385  0.9209
 5256SOL    HW216668   5.347   0.461   2.119  2.3364 -0.1604 -2.7616
 5257SOL     OW16669   4.865   2.507   4.541  0.2900  0.3866  0.5097
 5257SOL    HW116670   4.928   2.585   4.539  1.0326 -0.1596  1.5352
 5257SOL    HW216671   4.773   2.538   4.516  0.9094  1.2303 -0.8426
 5258SOL     OW16672   3.556   5.364   4.531  0.5906 -0.5180  0.0506
 5258SOL    HW116673   3.524   5.293   4.594 -0.3410 -0.6779 -0.5848
 5258SOL    HW216674   3.599   5.438   4.583  0.1715 -0.8257  0.8506
 5259SOL     OW16675   6.676   4.000   1.721  0.3484 -0.9713 -0.0372
 5259SOL    HW116676   6.647   3.968   1.630 -0.1029 -1.4963  0.2802
 5259SOL    HW216677   6.773   3.983   1.733  0.5338 -0.3867 -0.6303
 5260SOL     OW16678   3.914   1.307   3.010 -0.1355 -0.2079 -0.1721
 5260SOL    HW116679   3.937   1.252   2.929 -0.3465  0.1981 -0.5148
 5260SOL    HW216680   3.893   1.246   3.087  3.2990 -0.6635  0.5716
 5261SOL     OW16681   4.619   6.262   3.665 -0.2620 -0.4688  0.7407
 5261SOL    HW116682   4.639   6.244   3.568  0.7876  0.3106  0.7905
 5261SOL    HW216683   4.695   6.313   3.705 -1.5166  0.8425  1.5105
 5262SOL     OW16684   5.182   2.964   3.665 -0.7713 -0.7294 -0.0735
 5262SOL    HW116685   5.182   2.899   3.589 -3.3246 -0.0869 -0.7436
 5262SOL    HW216686   5.244   2.932   3.736  1.3451 -1.6003 -2.1752
 5263SOL     OW16687   1.398   3.087   4.426  0.3059  0.0223 -0.2917
 5263SOL    HW116688   1.304   3.119   4.444 -0.1015 -1.6119  0.6671
 5263SOL    HW216689   1.410   3.075   4.328 -1.0216 -1.2100 -0.3409
 5264SOL     OW16690   0.887   3.213   3.972 -0.0181  0.3308  0.2675
 5264SOL    HW116691   0.875   3.285   4.041  0.5288  0.7128 -0.0230
 5264SOL    HW216692   0.971   3.232   3.920  0.3224 -0.7152  0.4220
 5265SOL     OW16693   6.489   3.361   0.724  0.5051 -0.0252 -0.8982
 5265SOL    HW116694   6.515   3.370   0.820  2.2312 -0.3261 -1.3149
 5265SOL    HW216695   6.519   3.442   0.673  2.3470 -1.1543 -1.7256
 5266SOL     OW16696   6.313   3.148   6.030 -0.6639 -0.2880 -0.6194
 5266SOL    HW116697   6.241   3.153   5.961 -2.5255 -0.2850  1.2096
 5266SOL    HW216698   6.291   3.210   6.105 -0.0803 -2.1056  1.1439
 5267SOL     OW16699   1.666   0.063   6.031 -0.3349 -0.3960  0.8501
 5267SOL    HW116700   1.676  -0.023   5.982 -2.5501 -0.7994  1.0274
 5267SOL    HW216701   1.729   0.064   6.109  0.1313 -1.5863  0.5146
 5268SOL     OW16702   0.518   0.258   2.128  0.2197  0.3321 -0.3069
 5268SOL    HW116703   0.480   0.225   2.214  1.3802  0.2928  0.2181
 5268SOL    HW216704   0.459   0.328   2.089 -0.3936  0.2392  0.4484
 5269SOL     OW16705   0.710   4.211   3.399 -0.1429  0.2749 -0.2919
 5269SOL    HW116706   0.622   4.164   3.395  0.3194 -0.7696  1.0652
 5269SOL    HW216707   0.701   4.291   3.459  0.3619 -1.1930  1.8708
 5270SOL     OW16708   0.433   6.375   2.829  0.5740  0.0883  0.1073
 5270SOL    HW116709   0.488   6.366   2.912 -0.4917  1.6643  1.0421
 5270SOL    HW216710   0.487   6.418   2.757  0.9063  0.6436  0.6778
 5271SOL     OW16711   3.606   1.074   6.385  0.1460  0.0595 -0.0980
 5271SOL    HW116712   3.607   1.170   6.358 -0.3714 -0.0036 -0.3455
 5271SOL    HW216713   3.572   1.066   6.478  1.9225  0.2765  0.6037
 5272SOL     OW16714   2.740   1.123   2.075  0.0791  0.2255  0.1924
 5272SOL    HW116715   2.684   1.205   2.063  1.5813  1.1566 -0.8087
 5272SOL    HW216716   2.773   1.091   1.986  2.7757  0.9276  0.8320
 5273SOL     OW16717   0.491   5.223   5.173 -0.0229 -0.0290  0.0362
 5273SOL    HW116718   0.548   5.273   5.237 -1.0050  0.4553  0.5525
 5273SOL    HW216719   0.549   5.175   5.107  0.9619  0.5988  0.4275
 5274SOL     OW16720   1.059   2.475   3.793  0.3030  0.5356 -0.3043
 5274SOL    HW116721   1.012   2.438   3.712  0.0636 -0.6548  0.3559
 5274SOL    HW216722   1.155   2.447   3.791  0.5561  1.3888 -0.6922
 5275SOL     OW16723   1.861   0.542   6.640  0.3450  0.2845  0.5957
 5275SOL    HW116724   1.818   0.621   6.597 -1.9300 -0.6972  0.8818
 5275SOL    HW216725   1.807   0.515   6.720  1.2226 -1.3673  0.6699
 5276SOL     OW16726   0.263   3.300   6.151  0.0367 -0.0550  0.1749
 5276SOL    HW116727   0.209   3.310   6.067  0.8038 -1.9560 -0.5956
 5276SOL    HW216728   0.236   3.371   6.216 -0.6673  1.4132 -1.6161
 5277SOL     OW16729   2.567   5.732   6.027  0.8955  0.9155  0.0408
 5277SOL    HW116730   2.540   5.707   5.934  1.8342  0.2802 -0.0732
 5277SOL    HW216731   2.663   5.761   6.028  1.1538  0.1164  0.9341
 5278SOL     OW16732   5.510   0.665   4.713 -0.3544  0.3229  0.0326
 5278SOL    HW116733   5.604   0.699   4.723 -0.7722  1.9010 -0.9418
 5278SOL    HW216734   5.448   0.722   4.768 -0.7498 -0.7769  0.7604
 5279SOL     OW16735   6.838   0.993   0.929  0.1518  0.4364  0.0207
 5279SOL    HW116736   6.825   0.968   0.833  0.5008 -0.6945  0.2630
 5279SOL    HW216737   6.794   0.926   0.988  1.2648  0.2639  0.6910
 5280SOL     OW16738   6.171   6.258   4.798 -0.3578  0.0764  0.1342
 5280SOL    HW116739   6.207   6.343   4.837  2.4657 -1.0985  0.3468
 5280SOL    HW216740   6.071   6.263   4.794 -0.3884  2.7492  1.5865
 5281SOL     OW16741   4.930   1.270   0.763 -0.2690 -0.5900 -0.0911
 5281SOL    HW116742   4.984   1.309   0.689 -0.1798  1.1241  0.7996
 5281SOL    HW216743   4.990   1.238   0.836 -0.3736  0.6939  0.6025
 5282SOL     OW16744   6.966   1.166   5.686 -0.1178 -0.0770  0.2710
 5282SOL    HW116745   6.941   1.214   5.602 -2.8931  1.1852  1.6974
 5282SOL    HW216746   7.051   1.205   5.722  0.4513  0.1810 -1.2689
 5283SOL     OW16747   0.444   5.950   3.608 -0.0805 -0.3278 -0.4243
 5283SOL    HW116748   0.400   5.947   3.518 -0.9481 -3.4966 -0.0215
 5283SOL    HW216749   0.373   5.954   3.679  0.2186 -2.9646  0.1580
 5284SOL     OW16750   3.303   2.897   0.982 -0.0817  0.2148 -0.1339
 5284SOL    HW116751   3.401   2.901   0.963  0.1180  2.3327  1.0733
 5284SOL    HW216752   3.288   2.901   1.081 -1.4073 -0.2098 -0.2925
 5285SOL     OW16753   1.988   1.493   5.615 -0.3664 -0.2323 -0.2205
 5285SOL    HW116754   2.047   1.539   5.550  0.6604 -1.7253 -0.3873
 5285SOL    HW216755   2.035   1.414   5.653 -0.7692  0.7595  2.6374
 5286SOL     OW16756   0.411   1.736   2.053 -0.2460  0.1736 -0.5185
 5286SOL    HW116757   0.365   1.738   2.142  2.2330 -3.4049  1.0958
 5286SOL    HW216758   0.477   1.811   2.049  2.3800 -1.7102  2.5698
 5287SOL     OW16759   2.305   5.922   4.666 -0.1699  0.4803  0.2209
 5287SOL    HW116760   2.308   5.835   4.715 -2.4181  0.5919  0.6633
 5287SOL    HW216761   2.299   5.997   4.731  4.8761  1.3972  0.0246
 5288SOL     OW16762   5.634   5.040   3.562  0.2857  0.5487 -0.0490
 5288SOL    HW116763   5.686   4.963   3.598  1.1458  0.8239 -0.6552
 5288SOL    HW216764   5.537   5.028   3.584  0.6004  0.0421  1.1276
 5289SOL     OW16765   5.884   5.757   6.009  0.4002 -0.3270  0.1182
 5289SOL    HW116766   5.943   5.820   6.060  1.1048 -0.2652 -0.7374
 5289SOL    HW216767   5.896   5.773   5.911 -1.2337 -0.1660 -0.0687
 5290SOL     OW16768   2.793   3.741   5.993  0.6656 -0.8437 -0.1850
 5290SOL    HW116769   2.793   3.686   6.077 -0.6685 -2.1847 -1.0112
 5290SOL    HW216770   2.717   3.806   5.997  1.3856 -0.0042  0.1776
 5291SOL     OW16771   1.463   3.314   5.955  0.5054 -0.2285 -0.0602
 5291SOL    HW116772   1.442   3.216   5.965 -0.4932  0.0761  1.2770
 5291SOL    HW216773   1.378   3.363   5.935  0.4847  0.6469  1.9487
 5292SOL     OW16774   2.070   3.244   3.389  0.3345  0.4006 -0.3839
 5292SOL    HW116775   2.097   3.300   3.467  0.6077  0.8636 -0.8011
 5292SOL    HW216776   1.989   3.190   3.412  0.8745 -0.0566  0.4748
 5293SOL     OW16777   4.181   1.233   2.668  0.2828 -0.3492  0.0152
 5293SOL    HW116778   4.259   1.237   2.731 -0.5962 -1.6734  1.2500
 5293SOL    HW216779   4.170   1.321   2.623  3.4947 -0.5806 -1.4900
 5294SOL     OW16780   4.122   6.130   4.241 -0.1733  0.2118  0.0320
 5294SOL    HW116781   4.092   6.039   4.271 -0.3748 -0.4881 -2.1521
 5294SOL    HW216782   4.221   6.137   4.253 -0.4867  0.8907  3.0581
 5295SOL     OW16783   4.193   4.990   0.221  0.2961 -0.3897  0.4208
 5295SOL    HW116784   4.207   5.011   0.317  1.3112 -1.7956  0.6141
 5295SOL    HW216785   4.259   4.920   0.192  0.2351  0.2443 -1.3803
 5296SOL     OW16786   3.154   5.046   0.260 -0.2074  0.0227  0.0401
 5296SOL    HW116787   3.198   5.135   0.276 -0.1715 -0.1606  1.0372
 5296SOL    HW216788   3.163   4.989   0.342 -2.8367  0.2175  0.5839
 5297SOL     OW16789   2.989   3.211   6.670  0.4300 -0.0687  0.2403
 5297SOL    HW116790   3.041   3.259   6.599 -2.1451  0.4256 -1.4701
 5297SOL    HW216791   2.894   3.203   6.641 -0.4600 -1.0878  3.1112
 5298SOL     OW16792   3.418   2.382   6.638  0.2056 -0.2450  0.0931
 5298SOL    HW116793   3.356   2.460   6.636  0.2130 -0.2437 -0.8259
 5298SOL    HW216794   3.365   2.298   6.647 -0.0585 -0.3298 -1.8246
 5299SOL     OW16795   5.433   4.113   2.660  0.2314  0.2906 -0.2331
 5299SOL    HW116796   5.487   4.060   2.594 -0.4511 -1.2752  0.4288
 5299SOL    HW216797   5.489   4.131   2.741  0.3591  0.3181 -0.3258
 5300SOL     OW16798   0.693   3.699   2.381  0.0736 -0.5650 -0.0487
 5300SOL    HW116799   0.729   3.695   2.474 -0.1966 -0.7309  0.0503
 5300SOL    HW216800   0.667   3.608   2.351 -1.3904 -0.2935  0.3367
 5301SOL     OW16801   6.794   3.998   4.041 -0.1528 -0.3323  0.0658
 5301SOL    HW116802   6.888   3.991   4.007  0.9565  0.4532  2.7031
 5301SOL    HW216803   6.763   3.907   4.069  0.5113 -0.3662  0.7511
 5302SOL     OW16804   5.679   4.711   2.491 -0.1558 -0.0198 -0.0020
 5302SOL    HW116805   5.614   4.661   2.434 -0.9150  0.3309  0.5472
 5302SOL    HW216806   5.633   4.746   2.573  1.1930 -1.6530  1.5345
 5303SOL     OW16807   1.131   4.522   4.094  0.1956  0.6037  0.2748
 5303SOL    HW116808   1.106   4.426   4.103  0.8416  0.4753  0.8330
 5303SOL    HW216809   1.181   4.536   4.008 -0.4985  0.5792 -0.1370
 5304SOL     OW16810   2.126   2.155   3.401  0.2581  0.1271  0.1044
 5304SOL    HW116811   2.068   2.218   3.453 -3.0408 -0.7867 -2.2160
 5304SOL    HW216812   2.080   2.067   3.391  3.2665 -1.6108  0.3196
 5305SOL     OW16813   1.617   5.889   3.923 -0.5844 -0.1773  0.5745
 5305SOL    HW116814   1.641   5.966   3.982 -0.6452 -1.5011  2.4181
 5305SOL    HW216815   1.699   5.859   3.874 -0.2678  0.2769  0.8129
 5306SOL     OW16816   6.723   0.305   5.646 -0.3822 -0.1388 -0.2441
 5306SOL    HW116817   6.778   0.346   5.719 -1.4166  1.1383 -0.1547
 5306SOL    HW216818   6.764   0.218   5.620  0.5832 -0.1472  1.1512
 5307SOL     OW16819   6.587   2.672   1.830  0.1989 -0.1450  0.5968
 5307SOL    HW116820   6.627   2.719   1.909  0.8521 -0.0760  0.2324
 5307SOL    HW216821   6.660   2.634   1.773 -0.2570 -0.0794 -0.0478
 5308SOL     OW16822   5.944   5.738   3.429 -0.0334 -0.0878 -0.3715
 5308SOL    HW116823   5.959   5.639   3.420  0.8007 -0.0910  0.7971
 5308SOL    HW216824   5.929   5.778   3.339 -0.0513 -1.2232 -0.8947
 5309SOL     OW16825   0.693   5.083   5.007  0.4203 -0.5420 -0.7510
 5309SOL    HW116826   0.683   5.132   4.920  0.3874 -1.1205 -1.0750
 5309SOL    HW216827   0.790   5.069   5.027  0.4320 -0.3051 -0.6288
 5310SOL     OW16828   5.287   2.805   1.174 -0.0478  0.5138  0.1092
 5310SOL    HW116829   5.217   2.857   1.224  0.4360 -0.4849  1.9262
 5310SOL    HW216830   5.249   2.771   1.089 -1.6155  0.4806  0.7890
 5311SOL     OW16831   4.998   2.110   1.714 -0.3240 -0.4096 -0.6715
 5311SOL    HW116832   5.005   2.010   1.715  0.9467 -0.3394 -0.7443
 5311SOL    HW216833   5.071   2.148   1.657  1.3907  0.6820  2.0308
 5312SOL     OW16834   2.621   0.945   5.413  0.2915  0.0481 -0.0727
 5312SOL    HW116835   2.618   0.845   5.412 -3.1706  0.0113  1.3905
 5312SOL    HW216836   2.647   0.977   5.504  1.7459  0.5599 -0.6319
 5313SOL     OW16837   6.909   4.242   0.076  0.1518  0.2817  0.5632
 5313SOL    HW116838   6.834   4.296   0.116 -1.1179  0.8184 -2.2826
 5313SOL    HW216839   6.979   4.304   0.041  0.2314 -0.0672  0.1040
 5314SOL     OW16840   6.804   0.186   3.374  0.5413 -0.2829  0.1926
 5314SOL    HW116841   6.821   0.237   3.459  0.9975  0.7591 -0.5036
 5314SOL    HW216842   6.890   0.175   3.324 -0.1487  1.8103 -1.5873
 5315SOL     OW16843   3.084   1.616   2.142  0.0953  0.3822  0.6953
 5315SOL    HW116844   3.020   1.685   2.108  0.7563  0.0190 -1.4441
 5315SOL    HW216845   3.170   1.660   2.168  0.5343  0.3965 -0.7155
 5316SOL     OW16846   3.932   3.847   5.993  0.1726 -0.1272  0.2028
 5316SOL    HW116847   4.022   3.889   6.006  0.4783 -0.2606 -1.3026
 5316SOL    HW216848   3.944   3.750   5.973 -0.0495  0.3732 -2.8287
 5317SOL     OW16849   3.081   0.562   6.609 -0.2341 -0.5035 -0.0129
 5317SOL    HW116850   3.021   0.514   6.545 -0.1709  0.3062 -0.6966
 5317SOL    HW216851   3.171   0.574   6.568 -0.1288 -0.1601  0.3077
 5318SOL     OW16852   2.969   6.612   5.393 -0.0660  0.3012  0.6671
 5318SOL    HW116853   3.059   6.603   5.437 -0.9906 -0.5457  2.4845
 5318SOL    HW216854   2.924   6.523   5.391 -0.1794  0.3551 -1.8748
 5319SOL     OW16855   5.955   2.552   1.851  0.4298 -0.1832 -0.2588
 5319SOL    HW116856   5.924   2.456   1.849  1.0651 -0.3937 -0.1998
 5319SOL    HW216857   5.993   2.576   1.762  1.4995 -0.4045  0.1280
 5320SOL     OW16858   3.803   5.906   1.620 -0.0635  0.3091  0.4911
 5320SOL    HW116859   3.726   5.849   1.595  0.7600 -1.1707  1.1783
 5320SOL    HW216860   3.879   5.890   1.557 -0.6956  2.7735 -1.0358
 5321SOL     OW16861   3.465   2.642   5.316  0.6940  0.2498 -0.7087
 5321SOL    HW116862   3.374   2.609   5.340  0.1191  0.1336 -2.8438
 5321SOL    HW216863   3.533   2.572   5.339 -0.0936 -0.8782 -1.7271
 5322SOL     OW16864   2.761   1.571   0.833 -0.2936 -0.2275 -0.6834
 5322SOL    HW116865   2.860   1.573   0.822 -0.4163  0.0034 -1.8652
 5322SOL    HW216866   2.734   1.483   0.872  0.4250 -0.0150  0.3417
 5323SOL     OW16867   5.998   3.692   0.593 -0.1533  0.1298  0.0378
 5323SOL    HW116868   6.059   3.646   0.657  0.9169 -0.3805 -1.3063
 5323SOL    HW216869   5.918   3.635   0.575  0.5556 -0.6537 -0.6581
 5324SOL     OW16870   5.095   3.629   6.094  0.3465 -0.5647 -0.6378
 5324SOL    HW116871   5.137   3.681   6.019  0.8489  0.6090  0.4084
 5324SOL    HW216872   5.009   3.590   6.063 -0.8916  2.2329 -1.0961
 5325SOL     OW16873   6.233   1.579   4.132  0.2877 -0.0970  0.0536
 5325SOL    HW116874   6.241   1.678   4.126  0.1083 -0.0324  0.7640
 5325SOL    HW216875   6.228   1.540   4.040  0.5835  0.5310 -0.2341
 5326SOL     OW16876   4.464   0.901   2.140  0.2092 -0.4670 -0.5477
 5326SOL    HW116877   4.413   0.828   2.184 -0.3155  0.9304  1.2763
 5326SOL    HW216878   4.458   0.891   2.040 -3.9663 -0.2058 -0.4789
 5327SOL     OW16879   3.052   5.481   6.744  0.3363  0.0385 -0.0418
 5327SOL    HW116880   2.974   5.434   6.702 -2.0659  2.6771  1.1725
 5327SOL    HW216881   3.137   5.441   6.710 -1.4879 -2.4490 -2.0552
 5328SOL     OW16882   2.066   3.275   6.919 -0.1229 -0.1621 -0.1528
 5328SOL    HW116883   2.128   3.331   6.975  0.6802  0.1394 -1.2940
 5328SOL    HW216884   2.063   3.182   6.955  0.5265 -0.0217  0.2858
 5329SOL     OW16885   2.145   6.109   2.287 -0.2812 -0.5690 -0.1098
 5329SOL    HW116886   2.160   6.022   2.334 -0.2575 -1.2801 -1.3886
 5329SOL    HW216887   2.050   6.115   2.259 -0.7412  0.6702  1.5865
 5330SOL     OW16888   0.077   4.055   2.409 -0.0408 -0.2215 -0.1987
 5330SOL    HW116889   0.176   4.059   2.425  0.7741 -2.8955 -3.4053
 5330SOL    HW216890   0.045   4.145   2.380  1.7527  0.3934 -0.4277
 5331SOL     OW16891   5.644   2.440   1.300 -0.0269  0.4487  0.1425
 5331SOL    HW116892   5.553   2.400   1.310  0.4833 -0.9393 -0.5612
 5331SOL    HW216893   5.640   2.537   1.324 -1.7792  0.5233 -0.3107
 5332SOL     OW16894   3.487   1.500   0.208 -0.1206  0.5526  0.1437
 5332SOL    HW116895   3.559   1.535   0.147 -0.5372 -0.3114 -0.8555
 5332SOL    HW216896   3.528   1.438   0.275  0.0428 -0.1809 -0.6177
 5333SOL     OW16897   5.636   4.643   3.013 -0.1383  0.4797  0.3198
 5333SOL    HW116898   5.594   4.673   3.098 -1.5323  0.6024 -0.3959
 5333SOL    HW216899   5.570   4.648   2.938  1.3279  1.3489 -0.9917
 5334SOL     OW16900   1.821   3.840   4.418  0.3354  0.1243  0.3402
 5334SOL    HW116901   1.737   3.893   4.431  0.2260  0.5885 -1.8678
 5334SOL    HW216902   1.892   3.875   4.480 -1.1948 -0.6801  2.6944
 5335SOL     OW16903   1.110   2.090   4.524  0.0791  0.3396 -0.0897
 5335SOL    HW116904   1.156   2.005   4.549  1.1681  0.7645 -0.5964
 5335SOL    HW216905   1.019   2.070   4.488  0.2588 -0.5935 -0.0425
 5336SOL     OW16906   6.356   1.757   6.347 -0.0107  0.0670  0.2567
 5336SOL    HW116907   6.452   1.779   6.334 -0.2480  2.1670  1.5145
 5336SOL    HW216908   6.331   1.677   6.292  1.8804  0.8370 -1.8496
 5337SOL     OW16909   2.324   4.990   6.903  0.0169 -0.1700 -0.2191
 5337SOL    HW116910   2.247   4.926   6.896 -0.4605  0.4094 -0.3680
 5337SOL    HW216911   2.291   5.077   6.939  0.9582 -0.5385  1.6964
 5338SOL     OW16912   6.860   5.083   5.718  0.0402 -0.2351 -0.1757
 5338SOL    HW116913   6.847   5.112   5.812  1.6114  0.1638 -0.0495
 5338SOL    HW216914   6.809   4.998   5.702 -0.5876 -0.0755  0.8952
 5339SOL     OW16915   2.164   3.596   1.277  0.2085 -0.2002  0.1661
 5339SOL    HW116916   2.177   3.524   1.346 -0.5905 -0.1179  0.4127
 5339SOL    HW216917   2.106   3.668   1.315 -1.7161 -0.9870 -1.1643
 5340SOL     OW16918   2.843   2.007   4.921  0.1234 -0.0162  0.5110
 5340SOL    HW116919   2.859   1.923   4.869 -0.2068  0.6587 -0.7287
 5340SOL    HW216920   2.927   2.034   4.967  0.6898 -0.1659 -0.3974
 5341SOL     OW16921   3.315   3.339   0.603 -0.2812  0.1608  0.3361
 5341SOL    HW116922   3.327   3.340   0.504 -0.3856 -0.2033  0.3187
 5341SOL    HW216923   3.253   3.413   0.629  1.6963  1.8973  0.4054
 5342SOL     OW16924   6.520   5.456   2.680  0.2619  0.5149 -0.2476
 5342SOL    HW116925   6.551   5.405   2.760 -1.7631  0.1833  0.3803
 5342SOL    HW216926   6.491   5.392   2.608  0.2878  0.7953 -0.5122
 5343SOL     OW16927   1.269   0.738   0.970 -0.2284  0.3966  0.2672
 5343SOL    HW116928   1.325   0.672   1.020  0.0278  1.5139  1.4875
 5343SOL    HW216929   1.197   0.772   1.029  1.2390  3.2049  0.5842
 5344SOL     OW16930   0.288   2.370   1.186  0.1687  0.4100 -0.1851
 5344SOL    HW116931   0.232   2.448   1.215 -1.3988 -1.2680  1.5286
 5344SOL    HW216932   0.295   2.371   1.086 -1.1473  1.8549 -0.3220
 5345SOL     OW16933   1.528   4.914   1.726  0.1970  0.1171  0.0616
 5345SOL    HW116934   1.543   4.847   1.653  0.0628 -0.0427  0.1799
 5345SOL    HW216935   1.444   4.965   1.708  0.1921  0.1144  0.0773
 5346SOL     OW16936   0.727   1.748   4.197  0.3111  0.0505  0.1051
 5346SOL    HW116937   0.740   1.792   4.108 -2.9448  0.3316 -0.3516
 5346SOL    HW216938   0.697   1.653   4.183 -0.6342  0.2224  0.8674
 5347SOL     OW16939   5.133   0.411   6.034  0.4746  0.0816  0.2818
 5347SOL    HW116940   5.145   0.328   5.980  0.9820 -0.0869  0.6418
 5347SOL    HW216941   5.154   0.391   6.130  0.4458  0.5890  0.3966
 5348SOL     OW16942   3.374   2.839   4.895  0.3490  0.0494 -0.7547
 5348SOL    HW116943   3.473   2.852   4.889  0.4692 -0.3121  0.2895
 5348SOL    HW216944   3.352   2.743   4.878  0.2691 -0.0574 -0.0703
 5349SOL     OW16945   0.798   5.294   6.406 -0.7207 -1.1081 -0.5149
 5349SOL    HW116946   0.854   5.284   6.323  0.1977 -1.4185  0.1286
 5349SOL    HW216947   0.710   5.247   6.393 -1.4071  0.4795 -2.0201
 5350SOL     OW16948   0.489   1.778   2.553  0.3279 -0.3057 -0.2623
 5350SOL    HW116949   0.527   1.686   2.562  0.6187 -0.3508 -1.7243
 5350SOL    HW216950   0.406   1.785   2.608  0.5222 -1.3026  0.1891
 5351SOL     OW16951   0.228   6.365   1.981  0.2997 -0.1850 -0.2126
 5351SOL    HW116952   0.173   6.443   2.011  1.0158  1.0774 -1.9800
 5351SOL    HW216953   0.325   6.387   1.989  0.5524 -1.5063  0.6882
 5352SOL     OW16954   5.287   3.909   4.441 -0.3695  0.0280  0.4112
 5352SOL    HW116955   5.222   3.833   4.442  1.5790 -1.7143  0.5290
 5352SOL    HW216956   5.289   3.950   4.350  0.5822 -1.9443 -0.5064
 5353SOL     OW16957   1.884   6.070   6.178  0.1790  0.4137  0.0166
 5353SOL    HW116958   1.819   6.007   6.221 -1.3589  0.5960 -1.9266
 5353SOL    HW216959   1.968   6.021   6.156  0.9232  0.2441  2.8646
 5354SOL     OW16960   1.155   6.257   2.303 -0.0475  0.4853 -0.0410
 5354SOL    HW116961   1.184   6.203   2.382  0.4979  1.9857  0.8170
 5354SOL    HW216962   1.056   6.256   2.296 -0.1525  1.0775  1.2142
 5355SOL     OW16963   1.090   0.972   0.776  0.0395  0.5064  0.3413
 5355SOL    HW116964   1.179   0.970   0.730 -1.0163  0.3399 -1.7759
 5355SOL    HW216965   1.056   0.879   0.788  0.0158  0.5840  0.9479
 5356SOL     OW16966   6.670   3.466   6.346  0.5384  0.1965  0.4495
 5356SOL    HW116967   6.764   3.442   6.321  0.5236  2.2544 -1.9074
 5356SOL    HW216968   6.660   3.566   6.349 -1.1159  0.0560  2.7500
 5357SOL     OW16969   2.168   0.346   0.917  0.2445 -0.5202  0.1132
 5357SOL    HW116970   2.155   0.253   0.952 -1.7902  0.2221  1.5419
 5357SOL    HW216971   2.150   0.348   0.819 -0.2812 -1.5458  0.1747
 5358SOL     OW16972   4.990   0.690   5.639 -0.0458  0.2236  0.3266
 5358SOL    HW116973   5.018   0.651   5.726 -0.4330 -0.2244  0.2552
 5358SOL    HW216974   4.893   0.671   5.624  0.2870 -0.7196 -0.7408
 5359SOL     OW16975   0.872   0.058   2.141 -0.2019 -0.6154 -0.5945
 5359SOL    HW116976   0.871   0.097   2.049  3.0590  2.9170  0.6128
 5359SOL    HW216977   0.780   0.063   2.181 -1.1477  0.0744 -2.7386
 5360SOL     OW16978   3.180   3.986   1.341  0.6559 -0.4883  0.0329
 5360SOL    HW116979   3.255   3.992   1.406  0.0137  0.2202  0.7275
 5360SOL    HW216980   3.099   4.031   1.379  0.0530 -0.7108 -0.9513
 5361SOL     OW16981   2.847   6.523   6.762 -0.0108  0.1888  0.3731
 5361SOL    HW116982   2.941   6.517   6.796 -0.7108 -1.8368  2.2291
 5361SOL    HW216983   2.806   6.609   6.791  1.5752  1.6758 -1.5090
 5362SOL     OW16984   2.699   2.138   4.339  0.0831  0.6281  0.1025
 5362SOL    HW116985   2.718   2.071   4.411 -1.8188  0.7800  0.7899
 5362SOL    HW216986   2.745   2.224   4.360 -0.2832  0.6067  1.0368
 5363SOL     OW16987   1.112   4.824   3.875  0.5682 -0.0682  0.6637
 5363SOL    HW116988   1.136   4.770   3.795 -0.1445  0.6037 -0.0240
 5363SOL    HW216989   1.191   4.829   3.937  1.2497 -0.2889 -0.1644
 5364SOL     OW16990   6.319   3.632   1.805  0.2171  0.3338  0.2911
 5364SOL    HW116991   6.285   3.666   1.717  1.5752 -0.8390 -0.7259
 5364SOL    HW216992   6.241   3.601   1.860 -0.5714 -0.0367 -0.9759
 5365SOL     OW16993   4.709   0.671   5.599 -0.0291  0.1578 -0.0766
 5365SOL    HW116994   4.644   0.687   5.524 -0.2370 -1.9317 -0.3819
 5365SOL    HW216995   4.660   0.634   5.678 -0.0668  3.5775  1.7059
 5366SOL     OW16996   3.025   3.505   5.704 -0.0963  0.2393 -0.0882
 5366SOL    HW116997   3.084   3.575   5.662 -0.0073  0.0673 -0.2511
 5366SOL    HW216998   2.937   3.546   5.729 -0.2032  0.3119 -0.5759
 5367SOL     OW16999   3.098   5.612   1.469 -0.7778 -0.5503 -0.5522
 5367SOL    HW117000   3.058   5.704   1.468  0.6998  0.1362 -1.8095
 5367SOL    HW217001   3.161   5.602   1.391  0.0294 -2.2048  0.2511
 5368SOL     OW17002   6.881   4.654   5.272  0.8677 -0.3758 -0.1521
 5368SOL    HW117003   6.901   4.733   5.331  1.0903 -1.0381  0.6756
 5368SOL    HW217004   6.950   4.650   5.199 -0.1464  1.1916 -1.2642
 5369SOL     OW17005   1.571   5.957   5.697  0.4547  0.0611  0.0365
 5369SOL    HW117006   1.549   5.996   5.608 -1.6182 -0.2450  0.3701
 5369SOL    HW217007   1.579   5.858   5.689 -2.2915 -0.2849  0.5608
 5370SOL     OW17008   5.997   0.545   2.597 -0.0386 -0.0700 -0.8184
 5370SOL    HW117009   5.943   0.498   2.667 -0.0946 -0.1361 -0.9052
 5370SOL    HW217010   6.089   0.506   2.593  0.0723  0.1608 -0.5477
 5371SOL     OW17011   6.496   5.556   4.438 -0.4607 -0.3534  0.2519
 5371SOL    HW117012   6.577   5.612   4.421 -0.0349 -0.4140  1.8514
 5371SOL    HW217013   6.484   5.491   4.363  0.3165  0.4008 -0.5506
 5372SOL     OW17014   0.690   5.000   3.012 -0.1943  0.6035 -0.1819
 5372SOL    HW117015   0.706   4.925   2.949 -0.3753 -0.5442  1.0852
 5372SOL    HW217016   0.627   4.971   3.084  1.5070  1.1650  1.6610
 5373SOL     OW17017   0.684   1.453   6.768 -0.6818 -0.2315  0.0439
 5373SOL    HW117018   0.742   1.534   6.764 -0.5051 -0.4072 -2.2916
 5373SOL    HW217019   0.739   1.375   6.798 -0.0085 -0.1339 -0.8858
 5374SOL     OW17020   3.692   0.498   2.205 -0.8488 -0.6835  0.3073
 5374SOL    HW117021   3.691   0.580   2.149  0.6792 -1.2813 -0.6715
 5374SOL    HW217022   3.727   0.520   2.296 -1.1493 -0.1219  0.2887
 5375SOL     OW17023   1.787   4.232   5.502  0.5177 -0.2240 -0.0723
 5375SOL    HW117024   1.840   4.268   5.579 -2.3352  2.8425  0.7061
 5375SOL    HW217025   1.717   4.169   5.537  0.6368 -0.5771 -0.4642
 5376SOL     OW17026   3.146   4.462   0.516  0.0639  0.5640 -0.1372
 5376SOL    HW117027   3.148   4.383   0.455  0.0367  0.8695 -0.5332
 5376SOL    HW217028   3.238   4.478   0.552  0.2312  0.8335 -0.6749
 5377SOL     OW17029   5.216   5.356   5.878  0.1657  0.2129 -0.3872
 5377SOL    HW117030   5.287   5.406   5.828  0.4509  0.0258 -0.1682
 5377SOL    HW217031   5.258   5.295   5.945 -0.1645 -0.4725 -0.7825
 5378SOL     OW17032   3.617   6.386   0.603 -0.0692 -0.2393 -0.5530
 5378SOL    HW117033   3.545   6.455   0.610  1.4445  1.3817  0.0892
 5378SOL    HW217034   3.634   6.366   0.506 -0.4961  0.3502 -0.7585
 5379SOL     OW17035   5.827   6.647   6.423 -0.0097  0.0536 -0.8744
 5379SOL    HW117036   5.782   6.734   6.444  0.9014  1.1536 -3.1149
 5379SOL    HW217037   5.767   6.591   6.367 -0.1691 -0.2993 -0.3571
 5380SOL     OW17038   0.819   5.763   0.632  0.4933  0.3988  0.1677
 5380SOL    HW117039   0.732   5.739   0.676  0.4439 -0.7173 -0.5067
 5380SOL    HW217040   0.834   5.862   0.641 -1.1820  0.7377 -0.2793
 5381SOL     OW17041   6.501   5.358   5.021  0.4212 -0.2296 -0.2010
 5381SOL    HW117042   6.585   5.328   4.975 -0.3060 -0.2538 -1.5414
 5381SOL    HW217043   6.437   5.282   5.027  0.5419 -0.2662  1.0129
 5382SOL     OW17044   5.618   6.711   1.307  0.0438 -0.9012 -0.5045
 5382SOL    HW117045   5.551   6.668   1.367 -0.5668  0.2822 -0.3048
 5382SOL    HW217046   5.651   6.796   1.349  0.1483 -0.4297 -1.5121
 5383SOL     OW17047   6.953   0.856   4.729 -0.3259  1.1462 -0.1307
 5383SOL    HW117048   6.885   0.925   4.754  0.1572  1.5102  0.1978
 5383SOL    HW217049   6.928   0.768   4.770 -0.3782  1.3722  0.3237
 5384SOL     OW17050   0.836   2.683   3.595 -0.8357 -0.2187 -0.5825
 5384SOL    HW117051   0.788   2.731   3.669 -1.5516 -0.2356 -1.0277
 5384SOL    HW217052   0.932   2.671   3.620 -0.3489  2.4132 -0.9064
 5385SOL     OW17053   0.609   3.534   0.658  0.1927 -0.0895  0.4147
 5385SOL    HW117054   0.556   3.536   0.743  1.7259  1.4738  1.3778
 5385SOL    HW217055   0.570   3.598   0.593 -0.0411 -0.1104  0.5329
 5386SOL     OW17056   0.329   4.327   4.951 -0.2693 -0.2466 -0.1640
 5386SOL    HW117057   0.425   4.315   4.976 -0.5943 -0.9348  0.7917
 5386SOL    HW217058   0.305   4.266   4.875  0.0973  0.1018 -0.5676
 5387SOL     OW17059   2.454   2.136   6.151  0.6988  0.6821  0.1800
 5387SOL    HW117060   2.363   2.115   6.117  0.0969  0.9503  1.5484
 5387SOL    HW217061   2.508   2.051   6.158  0.3732  0.4497 -0.1111
 5388SOL     OW17062   6.926   5.764   2.042  0.7443  0.1796  0.8356
 5388SOL    HW117063   6.985   5.763   2.122 -1.0168  0.8587  2.2004
 5388SOL    HW217064   6.845   5.708   2.058 -0.4748  1.6941  0.2451
 5389SOL     OW17065   5.622   0.273   1.615  0.2354  0.5452  0.1922
 5389SOL    HW117066   5.658   0.295   1.706 -0.1285  1.0988  0.2060
 5389SOL    HW217067   5.579   0.183   1.617 -1.9584  1.5482  1.2163
 5390SOL     OW17068   6.518   5.273   2.234 -0.2715 -0.3326 -0.3385
 5390SOL    HW117069   6.553   5.192   2.187  0.1009 -0.5817  0.3548
 5390SOL    HW217070   6.424   5.290   2.206  0.7681  1.1244 -3.2649
 5391SOL     OW17071   3.532   5.798   1.808 -0.1602  0.1062 -0.6888
 5391SOL    HW117072   3.533   5.701   1.831  3.1145  0.3427  0.6570
 5391SOL    HW217073   3.552   5.810   1.711  2.4396 -0.5821 -0.3090
 5392SOL     OW17074   0.978   3.749   2.375  0.5808  0.1511 -0.6458
 5392SOL    HW117075   1.019   3.774   2.462  1.4578  0.8648 -1.2503
 5392SOL    HW217076   0.879   3.762   2.380  0.4102 -1.4083  0.7674
 5393SOL     OW17077   1.283   3.785   1.461  0.2181  0.0592  0.4288
 5393SOL    HW117078   1.226   3.708   1.435 -0.2645  0.4905  0.1855
 5393SOL    HW217079   1.229   3.850   1.516  0.1662  0.9580 -0.6476
 5394SOL     OW17080   5.224   3.269   6.095 -0.5523  0.1611 -0.2876
 5394SOL    HW117081   5.315   3.252   6.134 -0.9011 -3.8793 -0.8934
 5394SOL    HW217082   5.157   3.277   6.168  0.0075  1.6017  0.1079
 5395SOL     OW17083   0.523   3.133   5.024  0.3730  0.0438  0.0901
 5395SOL    HW117084   0.623   3.133   5.028  0.3487  0.8767  1.1255
 5395SOL    HW217085   0.491   3.044   4.991  1.4215 -0.5770  0.6843
 5396SOL     OW17086   4.404   1.181   2.300  0.0864 -0.2721  0.1366
 5396SOL    HW117087   4.442   1.140   2.217  0.5703  1.3771 -0.4914
 5396SOL    HW217088   4.305   1.188   2.291 -0.3398 -3.4565  1.2691
 5397SOL     OW17089   0.124   3.315   1.232  0.6977  0.0220  0.1905
 5397SOL    HW117090   0.103   3.227   1.190  1.4722  0.4139 -1.0845
 5397SOL    HW217091   0.223   3.327   1.237  0.6896  1.9675 -2.2986
 5398SOL     OW17092   5.234   5.312   0.269 -0.5255 -0.0452  0.3004
 5398SOL    HW117093   5.192   5.397   0.300  1.7406  1.7260 -1.1388
 5398SOL    HW217094   5.329   5.309   0.301 -0.7310 -2.4453  0.9136
 5399SOL     OW17095   4.761   2.188   3.304  0.5869 -0.0962 -0.4017
 5399SOL    HW117096   4.820   2.132   3.363  1.2140  1.5701  0.6221
 5399SOL    HW217097   4.667   2.184   3.338  0.9678  0.9748  0.8697
 5400SOL     OW17098   4.360   2.916   0.526 -0.0431  0.5990  0.4002
 5400SOL    HW117099   4.428   2.945   0.594  0.3999  0.2858  0.0942
 5400SOL    HW217100   4.375   2.820   0.503  0.1192  0.8334 -0.5014
 5401SOL     OW17101   1.365   5.137   3.921 -0.3523  0.0716  0.0802
 5401SOL    HW117102   1.439   5.069   3.930  0.0686  0.2108 -1.9871
 5401SOL    HW217103   1.377   5.207   3.991  2.0265  0.5687 -0.7358
 5402SOL     OW17104   5.834   4.292   6.689  0.4580 -0.4706  0.0446
 5402SOL    HW117105   5.839   4.246   6.600 -0.4841  0.5651 -0.5689
 5402SOL    HW217106   5.841   4.391   6.676 -4.2767  0.1854  0.4644
 5403SOL     OW17107   5.946   1.516   6.472  0.0186  0.3068  0.7390
 5403SOL    HW117108   5.992   1.566   6.398  1.5680 -0.1021  1.3972
 5403SOL    HW217109   5.992   1.429   6.487  1.4165  1.4629  3.9219
 5404SOL     OW17110   2.914   3.948   6.850  0.3060 -0.5748 -0.7030
 5404SOL    HW117111   2.936   3.883   6.777 -0.6076 -0.0058 -1.5114
 5404SOL    HW217112   2.828   3.920   6.893  0.3369 -0.3549 -0.4999
 5405SOL     OW17113   4.295   6.538   3.999 -0.2863 -0.8266  0.8171
 5405SOL    HW117114   4.280   6.460   3.939  0.1979  0.5933 -1.2670
 5405SOL    HW217115   4.241   6.616   3.966  1.6687  0.6279  0.8956
 5406SOL     OW17116   5.653   0.749   2.427 -0.3963 -0.1422  0.1939
 5406SOL    HW117117   5.751   0.744   2.407 -0.4523 -1.7458  0.2125
 5406SOL    HW217118   5.601   0.725   2.345 -0.7247 -1.4078  0.7601
 5407SOL     OW17119   6.620   1.152   6.680 -0.1647 -0.3077  0.0462
 5407SOL    HW117120   6.675   1.202   6.748  0.5474 -1.2569  0.1813
 5407SOL    HW217121   6.654   1.173   6.588  0.6164 -1.0934  0.1430
 5408SOL     OW17122   1.613   0.741   0.639  0.1890  0.4195 -0.3460
 5408SOL    HW117123   1.632   0.775   0.547  0.3887  1.5682  0.1100
 5408SOL    HW217124   1.684   0.676   0.666  0.0910  0.0281 -1.0262
 5409SOL     OW17125   1.695   5.858   5.247 -0.0791 -0.0846 -0.8206
 5409SOL    HW117126   1.679   5.945   5.293  1.8752 -0.2025  0.1759
 5409SOL    HW217127   1.783   5.821   5.276 -1.1036 -2.6733 -0.8265
 5410SOL     OW17128   2.682   6.094   5.455  1.1387 -0.6776  0.0897
 5410SOL    HW117129   2.670   6.016   5.395 -1.1090  0.1871 -0.7139
 5410SOL    HW217130   2.716   6.172   5.403 -0.9173  0.1066 -0.2026
 5411SOL     OW17131   4.281   6.455   5.708 -0.0629  0.8155  0.0650
 5411SOL    HW117132   4.335   6.500   5.637 -1.3135  4.5079  1.2349
 5411SOL    HW217133   4.186   6.443   5.676  0.2585 -1.2965 -0.2654
 5412SOL     OW17134   4.107   2.613   0.029 -0.4456 -0.2646 -0.2178
 5412SOL    HW117135   4.091   2.680   0.102  0.6173  0.2211 -0.4112
 5412SOL    HW217136   4.082   2.522   0.061  2.4335 -0.4944  1.7409
 5413SOL     OW17137   1.586   5.682   5.659 -0.4182  0.3430  0.2348
 5413SOL    HW117138   1.523   5.688   5.582 -2.1257  0.1945  1.5539
 5413SOL    HW217139   1.545   5.627   5.732  2.0864 -1.4690  0.4131
 5414SOL     OW17140   0.315   3.566   2.530  0.5215  0.1759  0.8063
 5414SOL    HW117141   0.252   3.631   2.573  0.1997  0.2496  0.2261
 5414SOL    HW217142   0.364   3.611   2.455 -1.3915 -0.8415 -1.1338
 5415SOL     OW17143   0.217   5.855   0.221 -0.2808 -0.6699 -0.0179
 5415SOL    HW117144   0.258   5.764   0.217 -0.2037 -0.7089  1.2657
 5415SOL    HW217145   0.117   5.847   0.214 -0.1799 -0.6635 -1.9937
 5416SOL     OW17146   5.209   5.766   4.930 -0.1271  0.0725 -0.0840
 5416SOL    HW117147   5.295   5.717   4.916  0.8509  1.1000  1.8435
 5416SOL    HW217148   5.178   5.805   4.843  1.8419  0.4051 -0.6904
 5417SOL     OW17149   6.124   6.004   4.042 -0.2092  0.7244  0.2091
 5417SOL    HW117150   6.040   6.012   4.096  0.2937  1.7451  0.8742
 5417SOL    HW217151   6.117   6.061   3.960 -1.0737 -1.0226 -0.9883
 5418SOL     OW17152   4.831   3.033   4.358 -0.0218 -0.6813  0.4228
 5418SOL    HW117153   4.747   3.036   4.305  0.9597  1.2696 -1.1395
 5418SOL    HW217154   4.910   3.033   4.297  1.1480 -0.5323  1.8671
 5419SOL     OW17155   5.147   3.217   0.716  0.1077  0.4260  0.6087
 5419SOL    HW117156   5.204   3.221   0.799 -0.8241  1.0974  1.2333
 5419SOL    HW217157   5.164   3.298   0.660 -0.7341  0.9811  1.1426
 5420SOL     OW17158   1.579   3.186   5.594  0.5995  0.2789 -0.2140
 5420SOL    HW117159   1.533   3.216   5.511 -0.0601 -0.2690 -0.0568
 5420SOL    HW217160   1.647   3.116   5.572  0.9031  0.6133 -0.3630
 5421SOL     OW17161   4.566   1.709   3.241 -0.1346  0.3581 -0.7073
 5421SOL    HW117162   4.569   1.804   3.209  1.7655  0.3731 -0.5853
 5421SOL    HW217163   4.553   1.708   3.340 -1.0166  0.4548 -0.8159
 5422SOL     OW17164   3.121   2.077   5.366 -0.0736  0.2751  0.4620
 5422SOL    HW117165   3.172   2.150   5.412 -0.8219  1.5477 -0.6245
 5422SOL    HW217166   3.131   1.992   5.417  2.2652  0.7042  0.8307
 5423SOL     OW17167   5.864   0.301   6.470  0.1251  0.4237 -0.4394
 5423SOL    HW117168   5.789   0.328   6.409  0.6682 -0.2662 -1.4363
 5423SOL    HW217169   5.951   0.333   6.433  0.4196  0.4162  0.2302
 5424SOL     OW17170   4.857   1.516   6.010 -0.0349 -0.1445 -0.6660
 5424SOL    HW117171   4.809   1.566   6.082  1.5640  0.1877  0.2314
 5424SOL    HW217172   4.931   1.462   6.051 -1.7633 -3.4432 -1.5856
 5425SOL     OW17173   6.973   6.554   1.420  0.4819  0.4370 -0.0073
 5425SOL    HW117174   7.033   6.621   1.463  1.0747 -0.2272  0.2301
 5425SOL    HW217175   6.992   6.548   1.323  0.6917  0.3410  0.0402
 5426SOL     OW17176   2.384   5.476   4.405 -0.1786 -0.0060  0.6673
 5426SOL    HW117177   2.350   5.382   4.404 -0.1726 -0.0433 -1.7801
 5426SOL    HW217178   2.308   5.539   4.421 -0.6189 -0.3330 -0.0743
 5427SOL     OW17179   4.430   0.879   4.297 -0.3730 -0.0347  0.0644
 5427SOL    HW117180   4.404   0.846   4.207  3.4243  2.9956 -2.4866
 5427SOL    HW217181   4.507   0.826   4.332 -1.6441 -1.0146  1.5109
 5428SOL     OW17182   1.345   5.286   4.129 -0.2745  0.2857  0.1822
 5428SOL    HW117183   1.408   5.339   4.186  1.1748 -0.0972 -1.0037
 5428SOL    HW217184   1.285   5.348   4.079 -2.0802  0.6279  2.5721
 5429SOL     OW17185   2.530   4.945   5.060 -0.0928 -1.0770  0.1960
 5429SOL    HW117186   2.564   4.855   5.088 -0.5683 -0.9555  1.2005
 5429SOL    HW217187   2.449   4.968   5.113 -0.9088 -0.7190 -1.1449
 5430SOL     OW17188   1.520   2.693   0.294  0.0082  0.4536  0.0147
 5430SOL    HW117189   1.616   2.667   0.305  0.0003  0.5019  0.1952
 5430SOL    HW217190   1.489   2.742   0.375 -0.5384 -0.6641  0.5123
 5431SOL     OW17191   7.000   3.509   0.291  0.4932 -0.6573  0.0747
 5431SOL    HW117192   6.937   3.444   0.248  1.4742  0.5990 -3.5875
 5431SOL    HW217193   6.959   3.600   0.289  0.9357 -0.4196  1.1739
 5432SOL     OW17194   5.112   1.587   5.311  0.0535 -0.1256 -0.2549
 5432SOL    HW117195   5.159   1.548   5.231  0.4082  0.3488 -0.2832
 5432SOL    HW217196   5.168   1.572   5.393 -1.2803 -2.5289  0.3012
 5433SOL     OW17197   1.875   1.705   1.257 -0.2297 -0.0159 -0.3073
 5433SOL    HW117198   1.965   1.690   1.216 -0.7463  1.7856 -2.2881
 5433SOL    HW217199   1.804   1.672   1.196 -0.9940  1.5770 -0.3379
 5434SOL     OW17200   0.558   0.771   6.738  0.0502 -0.5090  0.9183
 5434SOL    HW117201   0.605   0.695   6.782  0.6272 -0.4403  0.4529
 5434SOL    HW217202   0.577   0.768   6.640 -0.5889 -0.2311  0.7865
 5435SOL     OW17203   0.288   1.931   4.522  0.8418 -0.5914 -0.5005
 5435SOL    HW117204   0.278   1.863   4.594 -0.1231 -0.1874 -0.2262
 5435SOL    HW217205   0.370   1.913   4.469  0.7036 -1.8495 -0.3064
 5436SOL     OW17206   3.000   0.763   6.770 -0.3019  0.8287  0.0508
 5436SOL    HW117207   2.963   0.789   6.681  1.2727  2.1556 -0.2578
 5436SOL    HW217208   3.057   0.681   6.760  0.3682  1.3315 -0.2831
 5437SOL     OW17209   6.435   1.365   2.569 -0.4271  0.0638  0.7028
 5437SOL    HW117210   6.368   1.291   2.570 -1.4730  0.8643 -1.9435
 5437SOL    HW217211   6.465   1.382   2.475  1.5183  1.5040  1.5048
 5438SOL     OW17212   1.382   3.420   0.271  0.0392  0.1485 -0.3776
 5438SOL    HW117213   1.423   3.330   0.284  0.2098  0.3476  0.5370
 5438SOL    HW217214   1.358   3.432   0.174  0.7069 -0.5716 -0.6460
 5439SOL     OW17215   5.411   4.918   4.959 -0.0268 -0.1546  0.1295
 5439SOL    HW117216   5.359   4.868   4.890  1.4380 -0.4627 -0.7844
 5439SOL    HW217217   5.455   4.853   5.021  3.4290 -0.2676 -2.1688
 5440SOL     OW17218   3.101   3.804   2.051 -0.1552  0.8465  0.2673
 5440SOL    HW117219   3.025   3.811   1.986  0.4465  0.6907 -0.4780
 5440SOL    HW217220   3.123   3.708   2.066  1.8612  0.8499 -1.9608
 5441SOL     OW17221   0.087   3.850   3.038  0.1993  0.1585  0.1725
 5441SOL    HW117222   0.006   3.887   3.083  0.9578 -0.3366  2.0642
 5441SOL    HW217223   0.166   3.857   3.100  1.2667 -0.7579 -1.0257
 5442SOL     OW17224   6.825   5.536   5.634  0.3731  0.3998  0.4311
 5442SOL    HW117225   6.824   5.626   5.591 -2.2365 -0.5337 -1.7637
 5442SOL    HW217226   6.862   5.468   5.570 -0.0563 -0.4489  1.0578
 5443SOL     OW17227   6.591   3.083   6.402  0.3803  0.0811 -1.5420
 5443SOL    HW117228   6.564   2.996   6.445  1.2153 -0.3594 -1.8891
 5443SOL    HW217229   6.515   3.118   6.348 -0.1277 -0.1926 -1.0179
 5444SOL     OW17230   2.159   0.577   3.380 -0.1273 -0.3051  0.2818
 5444SOL    HW117231   2.242   0.633   3.380  0.3854 -0.8734 -2.9465
 5444SOL    HW217232   2.079   0.636   3.390  0.4350  1.1040 -2.4022
 5445SOL     OW17233   1.494   5.296   5.557 -0.2829  0.0063  0.1888
 5445SOL    HW117234   1.468   5.344   5.473 -1.5045  2.2599  1.7237
 5445SOL    HW217235   1.592   5.304   5.571 -0.3419  1.4673 -0.0220
 5446SOL     OW17236   3.205   3.669   3.368 -0.4052 -0.0488 -0.1088
 5446SOL    HW117237   3.244   3.594   3.314 -0.9618 -1.1499  0.9454
 5446SOL    HW217238   3.121   3.637   3.412  0.9302  0.1701  2.8172
 5447SOL     OW17239   0.458   2.901   3.693  0.3436  0.3650 -0.2345
 5447SOL    HW117240   0.537   2.858   3.737  0.7133  0.9412 -0.3211
 5447SOL    HW217241   0.483   2.933   3.602 -0.4263 -0.8280 -0.8858
 5448SOL     OW17242   3.662   5.861   6.681 -0.2793  0.2114 -0.0384
 5448SOL    HW117243   3.715   5.905   6.754  0.6935  1.1077 -1.2357
 5448SOL    HW217244   3.723   5.831   6.609 -0.9071 -3.2366  0.6924
 5449SOL     OW17245   6.390   6.657   6.749  0.3615 -0.3254 -0.2139
 5449SOL    HW117246   6.449   6.676   6.671  0.4228 -0.8007 -0.2831
 5449SOL    HW217247   6.297   6.689   6.730  0.1876 -1.1565 -0.8005
 5450SOL     OW17248   5.482   2.539   5.611 -0.4710 -0.1466  0.2144
 5450SOL    HW117249   5.558   2.535   5.547 -0.3033  0.2079  0.3920
 5450SOL    HW217250   5.505   2.600   5.687 -0.4493 -0.9928  0.8995
 5451SOL     OW17251   4.135   4.884   5.483 -0.3071  0.0909  0.0553
 5451SOL    HW117252   4.108   4.808   5.424  1.3581 -0.7370  0.2878
 5451SOL    HW217253   4.054   4.937   5.509 -1.5552 -1.7547  0.0934
 5452SOL     OW17254   5.611   6.513   6.291 -0.0933 -0.1315 -0.4263
 5452SOL    HW117255   5.567   6.434   6.250 -0.6874  0.8970 -1.8525
 5452SOL    HW217256   5.565   6.597   6.260  1.1787  0.8321  0.1930
 5453SOL     OW17257   5.086   1.833   4.462 -0.1162  0.3215 -0.3117
 5453SOL    HW117258   5.137   1.822   4.548  0.2433 -0.4293 -0.6146
 5453SOL    HW217259   5.150   1.859   4.389 -0.2547 -0.0665 -0.5720
 5454SOL     OW17260   2.121   1.282   4.702 -0.3003 -0.3506  0.0663
 5454SOL    HW117261   2.205   1.309   4.751  0.6191 -0.2010 -1.5188
 5454SOL    HW217262   2.133   1.299   4.604 -2.0048 -0.8472 -0.2585
 5455SOL     OW17263   6.122   1.383   3.186  0.5928 -0.4079 -0.1769
 5455SOL    HW117264   6.144   1.314   3.255  0.3502  1.1870  1.5485
 5455SOL    HW217265   6.024   1.402   3.187  0.7889  0.6443  0.0263
 5456SOL     OW17266   2.326   4.245   2.002  0.7610 -0.0359 -0.0650
 5456SOL    HW117267   2.307   4.171   2.066 -0.1156  0.3756  0.1593
 5456SOL    HW217268   2.343   4.329   2.053 -0.3892  0.3968 -0.3763
 5457SOL     OW17269   5.597   6.355   4.805 -0.5723  0.1036 -0.5747
 5457SOL    HW117270   5.538   6.425   4.845 -1.0452 -0.0049 -1.0668
 5457SOL    HW217271   5.609   6.372   4.707  0.7439  0.4824 -0.3692
 5458SOL     OW17272   3.806   0.157   0.845  0.2388 -0.4408 -0.4973
 5458SOL    HW117273   3.762   0.148   0.935 -0.1867  2.0065 -0.3934
 5458SOL    HW217274   3.888   0.214   0.854  0.6640 -0.8688 -1.5393
 5459SOL     OW17275   0.535   5.382   0.667  0.2107  0.1948  0.2692
 5459SOL    HW117276   0.599   5.305   0.671  1.3272  1.1074  0.6222
 5459SOL    HW217277   0.448   5.352   0.628  0.6988 -1.1883  0.2145
 5460SOL     OW17278   4.155   6.479   1.278 -0.5552 -0.3643  0.1922
 5460SOL    HW117279   4.166   6.483   1.377  0.2521 -0.8364  0.1291
 5460SOL    HW217280   4.057   6.474   1.255 -1.1108  4.0168  0.7937
 5461SOL     OW17281   5.145   5.563   0.365 -0.2399 -0.3157  0.1285
 5461SOL    HW117282   5.069   5.624   0.387 -0.1651 -0.7999  1.8804
 5461SOL    HW217283   5.212   5.612   0.310 -1.2792  0.4606 -0.4768
 5462SOL     OW17284   4.475   6.668   4.475 -0.4294  0.0759  0.1335
 5462SOL    HW117285   4.549   6.627   4.422 -0.7361 -0.2305 -0.0634
 5462SOL    HW217286   4.414   6.718   4.413 -1.5699 -1.4326 -0.0284
 5463SOL     OW17287   6.199   2.505   0.015  0.2825 -0.1054 -0.1589
 5463SOL    HW117288   6.175   2.601   0.007  0.7180  0.0597  0.4945
 5463SOL    HW217289   6.277   2.485  -0.045 -0.3625 -0.2527 -0.9588
 5464SOL     OW17290   5.012   0.619   3.423  0.4871 -0.1236  0.2306
 5464SOL    HW117291   5.020   0.703   3.370 -0.0605  0.0942  0.4856
 5464SOL    HW217292   4.975   0.546   3.365 -2.1471  0.6553  0.8032
 5465SOL     OW17293   5.308   4.097   4.664  0.3088  1.0074 -0.1928
 5465SOL    HW117294   5.297   4.197   4.661 -0.8106  0.8691 -2.2799
 5465SOL    HW217295   5.292   4.059   4.573 -0.5289 -1.2244  0.8228
 5466SOL     OW17296   6.359   5.583   2.943  0.2828 -0.2445  0.2219
 5466SOL    HW117297   6.413   5.550   3.021  0.0470 -2.7764 -0.5984
 5466SOL    HW217298   6.396   5.545   2.859 -0.9430  0.4752 -0.6711
 5467SOL     OW17299   5.249   0.081   4.146  0.0791 -0.1793  0.3348
 5467SOL    HW117300   5.179   0.144   4.112  0.4728 -0.0801 -0.3285
 5467SOL    HW217301   5.215  -0.013   4.139  0.0536 -0.1421 -0.1140
 5468SOL     OW17302   5.544   1.144   4.580  0.5342  0.7110  0.2884
 5468SOL    HW117303   5.477   1.163   4.508 -1.7005  0.0121  2.0531
 5468SOL    HW217304   5.606   1.071   4.550  0.6579  1.4896 -1.4600
 5469SOL     OW17305   5.927   5.509   6.216  0.5642  0.0242  0.3098
 5469SOL    HW117306   5.837   5.482   6.250  0.1395  1.3218  0.2568
 5469SOL    HW217307   5.920   5.536   6.120  1.2088 -0.8102  0.0138
 5470SOL     OW17308   4.913   1.903   0.225  1.0623  1.0580  0.1447
 5470SOL    HW117309   4.991   1.865   0.276  0.4096  1.3164  1.3742
 5470SOL    HW217310   4.900   1.850   0.141  0.3591 -1.3567  1.6558
 5471SOL     OW17311   0.793   0.081   3.121  0.8186 -0.4607 -0.0246
 5471SOL    HW117312   0.868   0.139   3.091  0.7742 -0.7871 -0.7991
 5471SOL    HW217313   0.803   0.061   3.218 -0.4476  2.8073  0.9261
 5472SOL     OW17314   6.069   0.779   5.530 -0.1795  0.1458  0.6765
 5472SOL    HW117315   6.114   0.783   5.619 -1.7255 -1.1061  1.5627
 5472SOL    HW217316   6.115   0.711   5.472 -0.4984 -0.6389  1.3295
 5473SOL     OW17317   6.813   0.786   2.721  0.4536  0.6768  0.2514
 5473SOL    HW117318   6.894   0.770   2.664  0.3951  1.6312 -0.1081
 5473SOL    HW217319   6.799   0.706   2.780  1.2899  0.2329 -0.1199
 5474SOL     OW17320   1.775   2.774   6.037  0.0067 -0.0041 -0.1830
 5474SOL    HW117321   1.681   2.804   6.051 -0.4077 -1.2225 -0.1700
 5474SOL    HW217322   1.829   2.848   5.999 -1.2999  0.2917 -1.5407
 5475SOL     OW17323   3.280   1.908   0.672 -0.1186  0.5215  0.3169
 5475SOL    HW117324   3.247   1.945   0.759 -2.8643  0.0121 -0.4183
 5475SOL    HW217325   3.257   1.811   0.665 -1.2748  0.8666 -1.5223
 5476SOL     OW17326   6.386   3.328   5.016  0.2791 -0.2065  0.0526
 5476SOL    HW117327   6.369   3.241   4.971 -1.4063 -0.2518  0.7346
 5476SOL    HW217328   6.333   3.400   4.972 -2.2247 -0.4193  2.4693
 5477SOL     OW17329   4.763   4.967   0.876  0.1963  0.3387 -0.0439
 5477SOL    HW117330   4.688   5.012   0.827 -0.5592 -0.4631  0.3345
 5477SOL    HW217331   4.792   4.886   0.825  0.1109  0.0837  0.3050
 5478SOL     OW17332   3.436   5.758   4.698  0.8031  0.6024  0.3857
 5478SOL    HW117333   3.403   5.812   4.621  0.3248 -0.8803 -0.4863
 5478SOL    HW217334   3.370   5.686   4.719  1.2041  0.6210  1.8210
 5479SOL     OW17335   4.496   6.045   4.102 -0.1657  0.0505  0.2060
 5479SOL    HW117336   4.496   6.134   4.058  0.5648  0.7507  1.5539
 5479SOL    HW217337   4.428   5.986   4.059  0.6923  0.5891 -1.9769
 5480SOL     OW17338   0.164   5.079   2.542 -0.4487  0.1877  0.4262
 5480SOL    HW117339   0.124   5.040   2.459 -1.5412 -1.2225  1.5701
 5480SOL    HW217340   0.106   5.057   2.620  1.9396 -0.8816  2.0001
 5481SOL     OW17341   4.775   0.213   1.633 -0.2101  0.1119  0.1308
 5481SOL    HW117342   4.778   0.302   1.588 -2.4103 -0.3787 -1.1624
 5481SOL    HW217343   4.806   0.222   1.727  1.5277  1.8140 -0.5358
 5482SOL     OW17344   1.593   5.380   3.152 -0.1702  0.0957  0.2962
 5482SOL    HW117345   1.548   5.413   3.069  0.5032 -0.3920 -0.2704
 5482SOL    HW217346   1.592   5.453   3.222 -1.7493  0.1127  0.2751
 5483SOL     OW17347   4.864   1.880   3.283  0.0508 -0.3698  0.7448
 5483SOL    HW117348   4.875   1.781   3.294 -1.2394 -0.4014  2.0784
 5483SOL    HW217349   4.813   1.900   3.200  2.3068 -0.6544 -0.7986
 5484SOL     OW17350   4.372   5.791   6.471 -0.1878  0.2301  0.1779
 5484SOL    HW117351   4.361   5.801   6.570  0.4035  1.2417  0.1580
 5484SOL    HW217352   4.350   5.697   6.444 -0.6340  0.0247  1.2252
 5485SOL     OW17353   1.708   0.447   4.344  0.5951  0.6311  0.2289
 5485SOL    HW117354   1.714   0.497   4.430  0.2640 -0.9628  1.2239
 5485SOL    HW217355   1.798   0.410   4.320  0.0157 -2.2108  2.0077
 5486SOL     OW17356   4.596   4.087   0.693 -0.1703  0.2173  0.2990
 5486SOL    HW117357   4.604   4.085   0.792 -0.9843  0.2300  0.3665
 5486SOL    HW217358   4.500   4.083   0.666 -0.0368  1.5606 -0.4608
 5487SOL     OW17359   4.459   1.850   4.597  0.0223  0.1380  0.3126
 5487SOL    HW117360   4.502   1.878   4.511 -1.9672 -1.4541 -1.3161
 5487SOL    HW217361   4.369   1.894   4.604 -0.4587 -0.9002  0.8303
 5488SOL     OW17362   2.494   2.772   5.737  0.3237  0.0049 -0.1653
 5488SOL    HW117363   2.529   2.680   5.755 -2.1845 -1.2274 -1.1809
 5488SOL    HW217364   2.399   2.779   5.767 -1.0038  0.8097 -3.9158
 5489SOL     OW17365   6.090   0.352   6.351 -0.2855  0.6778  0.4491
 5489SOL    HW117366   6.064   0.340   6.255 -0.1182 -1.3002  0.6091
 5489SOL    HW217367   6.186   0.379   6.356  0.1962 -0.8821  0.0684
 5490SOL     OW17368   2.601   5.172   0.616 -0.2091  0.2254  0.0828
 5490SOL    HW117369   2.685   5.170   0.562  1.2902  1.0852  2.2388
 5490SOL    HW217370   2.544   5.248   0.587  0.3850  0.4459 -0.5361
 5491SOL     OW17371   5.066   0.289   4.625 -0.3053  0.5360 -0.2239
 5491SOL    HW117372   5.092   0.248   4.537  0.1576  0.0196  0.1482
 5491SOL    HW217373   5.147   0.320   4.674 -0.4348 -0.3330  0.5746
 5492SOL     OW17374   2.081   4.806   0.126 -0.9859 -0.2965 -0.4178
 5492SOL    HW117375   2.137   4.723   0.128  1.3318  1.1966  0.2085
 5492SOL    HW217376   2.036   4.814   0.037  0.7950 -0.9481 -1.4111
 5493SOL     OW17377   4.696   5.870   1.051  0.3337  0.5943  0.6794
 5493SOL    HW117378   4.757   5.908   1.120  1.1136  4.3895 -1.7528
 5493SOL    HW217379   4.750   5.828   0.978  0.0034  2.0173 -0.4327
 5494SOL     OW17380   4.738   6.803   4.144 -0.3111  0.0859  0.0831
 5494SOL    HW117381   4.801   6.726   4.132  0.6852  0.7938  0.6225
 5494SOL    HW217382   4.644   6.770   4.134  0.0385 -1.3835  1.2205
 5495SOL     OW17383   1.423   0.261   2.833 -0.0370 -0.1982 -0.3722
 5495SOL    HW117384   1.517   0.288   2.854 -0.0988  0.5511 -1.0311
 5495SOL    HW217385   1.362   0.339   2.848 -0.9775 -1.3564  2.6435
 5496SOL     OW17386   3.067   1.892   0.379 -0.9596 -0.6270 -0.1004
 5496SOL    HW117387   3.029   1.844   0.459 -0.4823 -0.0570  0.4728
 5496SOL    HW217388   3.008   1.969   0.355 -0.2469  0.2021  0.7328
 5497SOL     OW17389   1.680   6.191   5.312 -0.0029 -0.2072  0.0572
 5497SOL    HW117390   1.685   6.266   5.378  2.7944  0.5239 -0.8439
 5497SOL    HW217391   1.679   6.228   5.219  1.6073 -1.2093 -0.4151
 5498SOL     OW17392   0.056   4.349   4.771  0.4214  0.3970 -0.0293
 5498SOL    HW117393   0.141   4.297   4.761  0.6325  0.6594  0.4065
 5498SOL    HW217394   0.055   4.395   4.859 -0.7572 -0.6524  0.5343
 5499SOL     OW17395   3.713   5.205   2.632 -0.7064 -0.4512 -0.1217
 5499SOL    HW117396   3.715   5.294   2.587  2.2759  0.8217  2.1208
 5499SOL    HW217397   3.659   5.212   2.716 -0.6756 -0.8227 -0.0720
 5500SOL     OW17398   4.380   2.436   0.047 -0.3586 -0.0303  0.3838
 5500SOL    HW117399   4.472   2.475   0.039 -0.2511 -0.2285  0.6434
 5500SOL    HW217400   4.314   2.509   0.062 -0.1518  0.0525  0.9184
 5501SOL     OW17401   2.771   3.061   1.705  0.1435 -0.1978 -0.5253
 5501SOL    HW117402   2.763   3.066   1.605  2.7549 -0.5078 -0.8333
 5501SOL    HW217403   2.721   3.137   1.746 -2.5214 -1.0775 -1.8927
 5502SOL     OW17404   4.756   3.724   5.348 -0.2324 -0.2887 -0.1269
 5502SOL    HW117405   4.738   3.679   5.261  0.8711 -0.2229 -0.4110
 5502SOL    HW217406   4.853   3.712   5.372 -0.3955  0.1678  0.8157
 5503SOL     OW17407   2.931   4.621   6.679 -0.5668  0.1556  0.2291
 5503SOL    HW117408   2.929   4.660   6.771 -1.0441  1.7053 -0.4010
 5503SOL    HW217409   2.838   4.605   6.648 -0.3885 -1.0163  0.2575
 5504SOL     OW17410   3.277   2.892   2.414 -0.5490 -0.0350 -0.0592
 5504SOL    HW117411   3.298   2.909   2.510 -0.3991 -0.1706 -0.0667
 5504SOL    HW217412   3.218   2.811   2.407  1.2259 -1.3916 -0.2109
 5505SOL     OW17413   6.102   1.085   5.847  0.1572  0.2819  0.0997
 5505SOL    HW117414   6.116   1.001   5.899  1.7798  0.4996  0.0887
 5505SOL    HW217415   6.157   1.158   5.888  0.9940  0.6126 -1.5351
 5506SOL     OW17416   0.193   4.346   5.315  0.1364 -0.0561  0.1992
 5506SOL    HW117417   0.274   4.394   5.281 -0.7728  0.1437 -1.8657
 5506SOL    HW217418   0.200   4.249   5.290  0.3205 -0.3009  1.1737
 5507SOL     OW17419   1.549   6.339   0.405  0.0136 -0.4344  0.3471
 5507SOL    HW117420   1.587   6.270   0.344 -1.0692 -1.8708  1.2354
 5507SOL    HW217421   1.460   6.369   0.372  0.2125  0.1189  0.2909
 5508SOL     OW17422   1.674   3.428   6.624 -0.5650  0.1121 -1.1108
 5508SOL    HW117423   1.701   3.506   6.568  0.5419  0.3939 -0.2179
 5508SOL    HW217424   1.623   3.460   6.704  1.6178  0.1734  0.3378
 5509SOL     OW17425   5.550   3.467   2.503 -0.0419  0.3825 -0.2530
 5509SOL    HW117426   5.464   3.438   2.544 -0.2850 -0.2000 -1.1589
 5509SOL    HW217427   5.627   3.428   2.554 -0.3539 -1.5158 -1.1593
 5510SOL     OW17428   4.054   1.149   6.993 -0.0025  0.0576 -0.0197
 5510SOL    HW117429   4.108   1.066   6.977  0.8065  1.1212 -3.6765
 5510SOL    HW217430   3.984   1.157   6.922 -0.1968  2.3958  0.3715
 5511SOL     OW17431   4.773   4.342   0.833  0.1823 -0.2511  0.4857
 5511SOL    HW117432   4.800   4.281   0.908  0.9843 -0.7572 -0.1977
 5511SOL    HW217433   4.675   4.336   0.819  0.2050 -1.1449  0.6363
 5512SOL     OW17434   3.158   3.530   2.934  0.3044  0.3721 -0.1332
 5512SOL    HW117435   3.211   3.611   2.909  2.1085 -0.9685 -0.9285
 5512SOL    HW217436   3.177   3.505   3.029 -0.3533  0.9347  0.1524
 5513SOL     OW17437   6.930   2.457   2.135 -0.1137  0.1628 -0.2552
 5513SOL    HW117438   7.013   2.468   2.190  0.7444 -0.5449 -1.3393
 5513SOL    HW217439   6.912   2.541   2.084  0.9039 -0.1850 -1.2446
 5514SOL     OW17440   4.027   0.938   4.218  0.2934  0.3226 -0.5260
 5514SOL    HW117441   4.007   0.927   4.316  0.9290  1.1973 -0.2854
 5514SOL    HW217442   4.095   1.010   4.206  0.7281 -0.2422 -1.5738
 5515SOL     OW17443   4.504   1.182   2.005 -0.3719 -0.5107 -0.4719
 5515SOL    HW117444   4.577   1.143   2.061 -1.2665 -0.3680  0.8478
 5515SOL    HW217445   4.495   1.130   1.920  0.9998 -0.7530 -0.4859
 5516SOL     OW17446   2.960   5.678   5.354 -0.7925  0.4245  0.0147
 5516SOL    HW117447   3.029   5.704   5.286  1.6238  0.0827  2.1807
 5516SOL    HW217448   2.925   5.761   5.399  0.1434  0.4791  0.6665
 5517SOL     OW17449   0.155   6.771   4.593  0.3205  0.0984 -0.3389
 5517SOL    HW117450   0.156   6.860   4.639  1.8645  0.8427 -1.6832
 5517SOL    HW217451   0.236   6.719   4.620 -0.1344 -0.5550 -0.2141
 5518SOL     OW17452   2.471   0.259   5.982 -0.1605 -0.3238 -0.1972
 5518SOL    HW117453   2.566   0.240   6.008 -0.1070 -0.8959 -0.7813
 5518SOL    HW217454   2.464   0.351   5.945  0.5379 -0.8955 -1.8480
 5519SOL     OW17455   0.547   3.036   2.556 -0.3399  0.7297  0.4517
 5519SOL    HW117456   0.493   3.095   2.495  0.3106 -0.0168 -0.8767
 5519SOL    HW217457   0.643   3.038   2.528  0.0190  0.5578  1.6162
 5520SOL     OW17458   2.189   3.850   5.860  0.3220 -0.6136 -0.4125
 5520SOL    HW117459   2.113   3.864   5.797 -0.9576  0.0921  1.2137
 5520SOL    HW217460   2.272   3.828   5.808 -0.7562 -0.4607 -2.2835
 5521SOL     OW17461   5.047   5.201   3.180  0.1773  0.6571 -0.5867
 5521SOL    HW117462   5.070   5.127   3.118 -1.9785 -1.0448  0.5229
 5521SOL    HW217463   5.048   5.288   3.130  0.3396 -0.4071 -2.5173
 5522SOL     OW17464   1.467   2.472   6.170  0.4601 -0.6502 -0.4719
 5522SOL    HW117465   1.375   2.505   6.191  0.3565 -1.1767 -0.0558
 5522SOL    HW217466   1.534   2.523   6.225  0.3341 -0.8639 -0.1127
 5523SOL     OW17467   3.710   1.412   1.223  0.1239  0.6186 -0.2049
 5523SOL    HW117468   3.788   1.448   1.274 -0.5710  2.8367 -0.6080
 5523SOL    HW217469   3.739   1.333   1.169  2.0218  1.2350 -0.1677
 5524SOL     OW17470   0.270   4.445   6.557  0.3207 -0.1873  0.3332
 5524SOL    HW117471   0.329   4.492   6.623  0.9845 -0.6132  0.0504
 5524SOL    HW217472   0.175   4.472   6.573  0.4742 -0.2387  1.4198
 5525SOL     OW17473   3.108   2.663   6.750  0.0329  0.0928  0.4238
 5525SOL    HW117474   3.205   2.669   6.727 -0.3853  0.9747 -1.2734
 5525SOL    HW217475   3.093   2.700   6.842  1.3985 -0.8136  1.0346
 5526SOL     OW17476   1.881   3.691   0.162 -0.0454  0.7547  0.1409
 5526SOL    HW117477   1.880   3.625   0.087 -1.5394  2.2487 -1.2397
 5526SOL    HW217478   1.799   3.679   0.218  1.2146 -0.5645  1.7998
 5527SOL     OW17479   6.952   3.971   1.802 -0.0373 -0.3794 -0.2996
 5527SOL    HW117480   7.049   3.976   1.779 -0.2750  0.5794 -1.1967
 5527SOL    HW217481   6.939   3.981   1.900  0.5842  2.9617 -0.4615
 5528SOL     OW17482   4.753   1.031   2.332  0.4627 -0.2811  0.0253
 5528SOL    HW117483   4.662   0.994   2.352 -0.2333  1.3121 -0.0414
 5528SOL    HW217484   4.750   1.081   2.245  0.8689  1.4106  0.9332
 5529SOL     OW17485   3.226   1.442   3.649 -0.1141  0.2317 -0.3084
 5529SOL    HW117486   3.210   1.492   3.564 -3.2592 -0.1769 -0.1039
 5529SOL    HW217487   3.152   1.463   3.713  2.1006  0.4585  2.3570
 5530SOL     OW17488   4.994   5.948   3.978 -0.4584 -0.2472  0.2143
 5530SOL    HW117489   4.895   5.959   3.972 -0.4774  0.1797  1.2022
 5530SOL    HW217490   5.026   5.889   3.903 -1.1191  1.6873 -1.6992
 5531SOL     OW17491   5.708   1.601   2.203  0.3618 -0.1374 -0.0076
 5531SOL    HW117492   5.745   1.680   2.153 -0.9181  0.5251  0.0241
 5531SOL    HW217493   5.611   1.618   2.223 -0.2826 -2.2558 -1.0938
 5532SOL     OW17494   1.811   0.561   4.610  0.1673  0.2797  0.0658
 5532SOL    HW117495   1.908   0.540   4.606  0.5426  0.6378  3.6149
 5532SOL    HW217496   1.797   0.649   4.656 -1.8314 -0.4950  1.0970
 5533SOL     OW17497   1.248   3.207   3.521  0.4033 -0.0907 -0.4056
 5533SOL    HW117498   1.267   3.271   3.595 -1.5545 -0.1885  0.2548
 5533SOL    HW217499   1.194   3.254   3.450 -2.6661 -1.3314  0.9362
 5534SOL     OW17500   1.211   2.353   0.119 -0.3181  0.6308  0.6917
 5534SOL    HW117501   1.121   2.355   0.076 -1.0226  2.1564  2.1099
 5534SOL    HW217502   1.202   2.371   0.217  1.4091 -0.7535  1.1706
 5535SOL     OW17503   5.745   1.615   0.273  0.0489 -0.3908  0.3684
 5535SOL    HW117504   5.714   1.573   0.187  0.8819  1.2957 -0.8154
 5535SOL    HW217505   5.832   1.575   0.301  0.6614  0.2297 -0.5651
 5536SOL     OW17506   2.315   2.018   5.447  0.1995  0.6201  0.5362
 5536SOL    HW117507   2.366   2.099   5.474 -2.1093  2.7532 -1.0747
 5536SOL    HW217508   2.360   1.975   5.368  0.7287  1.0769  0.5809
 5537SOL     OW17509   6.998   4.902   0.925 -0.1474  0.8399 -0.2330
 5537SOL    HW117510   6.930   4.948   0.983  1.2592  1.2873  1.1333
 5537SOL    HW217511   6.951   4.849   0.855 -1.8915  1.5655  0.3184
 5538SOL     OW17512   0.624   5.733   2.670  0.5716 -0.5745  0.2206
 5538SOL    HW117513   0.537   5.772   2.700 -0.4106  0.1679 -3.1440
 5538SOL    HW217514   0.698   5.796   2.693 -0.3313  0.7557 -0.3721
 5539SOL     OW17515   2.627   3.948   6.378 -0.4602 -0.2585  0.2993
 5539SOL    HW117516   2.688   3.880   6.337 -1.1497  0.1144 -1.4246
 5539SOL    HW217517   2.648   3.957   6.476  0.1323 -2.3845  0.4111
 5540SOL     OW17518   4.049   6.709   0.616  0.5087 -0.0852  0.1177
 5540SOL    HW117519   3.955   6.675   0.614  0.9512 -1.4824  1.5073
 5540SOL    HW217520   4.075   6.742   0.525 -1.1554 -0.0965 -0.3889
 5541SOL     OW17521   2.902   0.941   0.699 -0.1014  0.3250  0.2608
 5541SOL    HW117522   2.978   0.999   0.726 -0.4541  0.2681  1.4252
 5541SOL    HW217523   2.883   0.874   0.771  1.1523 -2.1693 -1.5593
 5542SOL     OW17524   6.253   0.228   0.227  0.3287  0.4843  0.3528
 5542SOL    HW117525   6.204   0.281   0.157 -0.4554 -0.7048 -0.0190
 5542SOL    HW217526   6.343   0.203   0.192 -0.3036 -0.6603 -0.5237
 5543SOL     OW17527   0.338   0.106   0.671 -0.1489  0.0910  0.2958
 5543SOL    HW117528   0.277   0.182   0.647  0.3445  0.4762  0.2417
 5543SOL    HW217529   0.433   0.138   0.667  0.4737 -1.5558 -4.0682
 5544SOL     OW17530   4.417   5.058   5.754 -0.1856 -0.9636  0.3664
 5544SOL    HW117531   4.465   5.061   5.842  1.0743  1.4659 -0.3065
 5544SOL    HW217532   4.483   5.041   5.681 -0.6184  0.4179 -0.3917
 5545SOL     OW17533   6.791   4.136   2.142  0.0706  0.5868  0.0052
 5545SOL    HW117534   6.857   4.210   2.157  1.8329 -0.9291 -0.0432
 5545SOL    HW217535   6.834   4.048   2.161 -1.6701 -0.5267 -0.9661
 5546SOL     OW17536   5.134   1.668   1.012 -0.1151  0.1547 -0.1430
 5546SOL    HW117537   5.149   1.583   0.962 -3.2487  0.4214 -1.8129
 5546SOL    HW217538   5.186   1.742   0.970 -0.1559 -0.2714 -0.9561
 5547SOL     OW17539   0.068   2.036   0.096  0.0564 -0.0508  0.1218
 5547SOL    HW117540   0.047   2.099   0.170 -0.7231  0.3761 -0.4480
 5547SOL    HW217541   0.111   1.953   0.133 -0.5363  0.0547  1.0614
 5548SOL     OW17542   2.399   5.906   3.003  0.5018 -0.1177  0.4333
 5548SOL    HW117543   2.362   5.819   2.971  0.8637 -0.8048  1.8255
 5548SOL    HW217544   2.339   5.981   2.975  0.7011 -0.6871 -1.6370
 5549SOL     OW17545   1.954   3.385   1.424 -0.0997 -0.0907 -0.2232
 5549SOL    HW117546   1.946   3.483   1.443 -0.2831  0.2159 -1.7594
 5549SOL    HW217547   1.955   3.334   1.510  2.1295  1.3962  0.7075
 5550SOL     OW17548   4.007   1.975   1.487  0.0361  0.0423  0.0787
 5550SOL    HW117549   3.949   1.927   1.421  0.9728 -0.1971 -0.5826
 5550SOL    HW217550   4.078   2.025   1.439  0.5324  0.1408  0.8965
 5551SOL     OW17551   2.939   3.715   5.430 -0.2235 -0.3118 -0.2820
 5551SOL    HW117552   2.840   3.706   5.442 -0.1639  0.3793  0.8779
 5551SOL    HW217553   2.962   3.810   5.408  0.2927 -0.1327  0.9346
 5552SOL     OW17554   5.562   1.018   4.047 -0.5010  0.1708 -0.5504
 5552SOL    HW117555   5.562   0.956   4.126  0.2244 -2.7138 -2.6435
 5552SOL    HW217556   5.644   1.075   4.049 -1.4414  1.5956  1.7088
 5553SOL     OW17557   6.460   0.690   5.395  0.1547 -0.3739 -0.0902
 5553SOL    HW117558   6.507   0.613   5.436 -0.3437 -0.0912  1.0506
 5553SOL    HW217559   6.462   0.681   5.295 -1.1947 -2.6634  0.0173
 5554SOL     OW17560   6.411   1.474   2.094  0.4809  0.4908  0.6009
 5554SOL    HW117561   6.452   1.495   2.006 -0.3766  0.1928  0.1168
 5554SOL    HW217562   6.320   1.514   2.099  0.1709 -0.2393  0.9995
 5555SOL     OW17563   3.771   5.873   6.090 -0.3519  0.3732 -0.4712
 5555SOL    HW117564   3.704   5.854   6.162 -0.3092  0.4247 -0.4172
 5555SOL    HW217565   3.863   5.874   6.131 -0.1157 -1.5924 -0.8569
 5556SOL     OW17566   1.419   2.756   2.632  0.5043  0.2666 -0.1416
 5556SOL    HW117567   1.346   2.819   2.606 -1.1071 -0.6155  1.9910
 5556SOL    HW217568   1.495   2.808   2.671  0.0078  1.0343 -0.1690
 5557SOL     OW17569   3.392   6.922   2.525 -0.0335  0.0925  0.2612
 5557SOL    HW117570   3.460   6.984   2.564  0.1035  0.0272  0.1253
 5557SOL    HW217571   3.396   6.834   2.571 -0.6551  0.3833  0.8834
 5558SOL     OW17572   4.327   6.011   6.300  0.3093 -0.5537 -0.5068
 5558SOL    HW117573   4.309   5.932   6.358 -0.5453  1.1266  1.6501
 5558SOL    HW217574   4.330   6.094   6.356  0.1679  1.0968 -2.7878
 5559SOL     OW17575   3.385   3.046   1.645 -0.2426  0.1401  0.1159
 5559SOL    HW117576   3.397   2.955   1.606 -1.1085  0.1600 -0.2258
 5559SOL    HW217577   3.405   3.115   1.574  0.5325  0.2291  0.4079
 5560SOL     OW17578   4.925   2.408   3.214  0.0745  0.7982  0.0932
 5560SOL    HW117579   4.886   2.409   3.122  0.2231  0.5236  0.0271
 5560SOL    HW217580   4.873   2.345   3.272 -0.5542  1.6096  0.4356
 5561SOL     OW17581   1.686   6.343   0.938  0.5856 -0.1663  0.3247
 5561SOL    HW117582   1.739   6.338   0.854 -0.2754  0.1933 -0.2607
 5561SOL    HW217583   1.725   6.413   0.999  1.5705 -0.8546  0.4983
 5562SOL     OW17584   4.963   3.307   1.549  0.0468 -0.4161 -0.1098
 5562SOL    HW117585   4.897   3.362   1.500 -0.4803  0.0367  1.0737
 5562SOL    HW217586   5.053   3.314   1.504 -0.1865  0.7823 -0.4116
 5563SOL     OW17587   1.957   2.318   3.151  0.0063 -0.0978  0.2491
 5563SOL    HW117588   1.893   2.353   3.083 -0.0098 -1.2452 -0.3398
 5563SOL    HW217589   1.978   2.391   3.217  1.0418  1.4594 -1.6973
 5564SOL     OW17590   2.354   0.707   5.177  0.1846 -0.4917  0.3157
 5564SOL    HW117591   2.410   0.629   5.204  2.0505  0.8679  0.6120
 5564SOL    HW217592   2.368   0.727   5.080  0.4134 -0.0044  0.4445
 5565SOL     OW17593   6.550   0.116   4.127  0.3155 -0.0227  0.3789
 5565SOL    HW117594   6.472   0.100   4.189  0.7466 -1.3975  0.5964
 5565SOL    HW217595   6.515   0.142   4.037 -0.4434 -1.4946  0.2215
 5566SOL     OW17596   2.482   6.214   2.258  0.6115  0.4321  0.2478
 5566SOL    HW117597   2.560   6.253   2.208  0.7456  0.4870  0.4961
 5566SOL    HW217598   2.397   6.243   2.215  0.7275 -1.0738 -1.1356
 5567SOL     OW17599   6.177   6.968   2.665  0.1527 -0.2144 -0.1339
 5567SOL    HW117600   6.154   7.060   2.696  0.4786 -0.2435  0.1944
 5567SOL    HW217601   6.213   6.973   2.572 -2.2303 -0.2833 -1.1396
 5568SOL     OW17602   5.773   1.011   2.790  0.7358  0.6061 -0.3829
 5568SOL    HW117603   5.675   1.011   2.772  0.1298  3.6601  2.0632
 5568SOL    HW217604   5.802   0.920   2.819 -1.7897  0.0382  0.6469
 5569SOL     OW17605   6.607   4.340   3.012 -0.2649  0.1882  0.5117
 5569SOL    HW117606   6.706   4.331   3.011 -0.2104  0.6984 -0.8476
 5569SOL    HW217607   6.566   4.266   2.958 -0.4221  1.6316 -1.4499
 5570SOL     OW17608   1.862   1.318   0.897 -0.0423 -0.0852 -0.4688
 5570SOL    HW117609   1.767   1.340   0.875 -0.8235 -0.8376  1.9347
 5570SOL    HW217610   1.865   1.251   0.970  2.3155  2.1685  1.7123
 5571SOL     OW17611   6.903   0.351   0.569 -0.5256  0.1423  1.0316
 5571SOL    HW117612   6.881   0.441   0.607 -1.7332  0.9346 -1.3212
 5571SOL    HW217613   6.836   0.285   0.600 -0.4774  0.3660  1.6308
 5572SOL     OW17614   5.074   0.986   3.342  0.3057  0.2423 -0.1241
 5572SOL    HW117615   5.138   0.990   3.419  0.3881  1.4589 -0.2510
 5572SOL    HW217616   4.981   0.979   3.377  0.3412  0.7995  0.0854
 5573SOL     OW17617   4.562   1.461   6.650  0.5072  0.5666  0.5889
 5573SOL    HW117618   4.547   1.552   6.613  2.2547  0.4115 -0.6736
 5573SOL    HW217619   4.646   1.423   6.610 -0.6598 -1.9515  0.3612
 5574SOL     OW17620   4.363   5.175   3.490  0.6319 -0.4028  0.0159
 5574SOL    HW117621   4.305   5.139   3.418  1.0353 -0.5760 -0.2244
 5574SOL    HW217622   4.312   5.177   3.576  0.2624 -0.5210 -0.1992
 5575SOL     OW17623   2.166   5.989   3.764 -0.5950  0.2587 -0.1495
 5575SOL    HW117624   2.146   5.961   3.858 -0.7799 -0.9512 -0.5374
 5575SOL    HW217625   2.083   6.027   3.723 -0.3729  1.3152  0.3402
 5576SOL     OW17626   1.567   1.473   2.373 -0.0174 -0.2668 -0.2646
 5576SOL    HW117627   1.551   1.381   2.408 -0.6514  0.5314  1.6471
 5576SOL    HW217628   1.664   1.496   2.382  0.2143 -0.8760 -1.1166
 5577SOL     OW17629   1.785   0.833   4.950  0.1019  0.2330  0.1183
 5577SOL    HW117630   1.715   0.825   4.878  0.9495 -2.0249 -0.5130
 5577SOL    HW217631   1.742   0.868   5.033 -2.0158 -1.7952 -0.0070
 5578SOL     OW17632   2.545   1.421   4.861 -0.0068  0.1947  0.4166
 5578SOL    HW117633   2.548   1.506   4.808 -1.0970 -0.0629 -0.0806
 5578SOL    HW217634   2.450   1.396   4.879  0.2510 -1.3943 -0.2308
 5579SOL     OW17635   1.638   4.745   2.322  0.2293 -0.6999 -0.1143
 5579SOL    HW117636   1.686   4.766   2.236  0.6471  0.0233  0.2806
 5579SOL    HW217637   1.701   4.698   2.384  0.1984 -0.4297  0.1232
 5580SOL     OW17638   0.283   6.966   5.059  0.1932 -0.0791 -0.4917
 5580SOL    HW117639   0.303   6.869   5.044 -1.4200 -0.4718 -0.2468
 5580SOL    HW217640   0.293   6.988   5.156 -0.8447 -0.3548 -0.3158
 5581SOL     OW17641   0.088   1.095   0.895  0.0466 -0.2322 -0.2974
 5581SOL    HW117642   0.103   1.025   0.825  2.0433 -2.7636  2.3946
 5581SOL    HW217643  -0.001   1.080   0.939  1.3232 -2.7321  1.7299
 5582SOL     OW17644   3.968   5.618   1.524  0.2243  0.0320 -0.5474
 5582SOL    HW117645   4.019   5.533   1.514  1.5921  0.9516 -1.9540
 5582SOL    HW217646   4.029   5.689   1.559 -1.2508  0.1475  1.9970
 5583SOL     OW17647   1.510   1.251   2.571 -0.0804  0.5444  0.1458
 5583SOL    HW117648   1.531   1.154   2.585  1.7695  0.4814 -2.3609
 5583SOL    HW217649   1.417   1.261   2.537 -0.5940 -0.2473  1.2837
 5584SOL     OW17650   5.440   0.898   2.492  0.2808 -0.4168 -0.0278
 5584SOL    HW117651   5.400   0.935   2.407  0.8595  0.8828  0.2383
 5584SOL    HW217652   5.524   0.849   2.470  0.0877 -0.6419 -0.2741
 5585SOL     OW17653   4.362   6.738   3.013 -0.2865  0.3490  0.7278
 5585SOL    HW117654   4.412   6.690   3.085 -0.5450 -0.6105  0.2727
 5585SOL    HW217655   4.413   6.821   2.988  1.4787 -0.9306 -0.1850
 5586SOL     OW17656   6.295   1.316   3.415 -0.2109 -0.0400  0.4974
 5586SOL    HW117657   6.337   1.311   3.506  0.5189  1.0426  0.2448
 5586SOL    HW217658   6.348   1.378   3.358 -0.6742 -0.6952 -0.6737
 5587SOL     OW17659   2.084   0.527   2.761 -0.6083 -0.2505  0.0335
 5587SOL    HW117660   2.025   0.522   2.842 -1.5629  0.2361 -0.6085
 5587SOL    HW217661   2.040   0.480   2.685  0.3797 -0.8854 -0.1607
 5588SOL     OW17662   2.521   1.828   3.673 -0.3600 -0.0206  0.4000
 5588SOL    HW117663   2.449   1.764   3.645 -0.4643  0.1882  0.1830
 5588SOL    HW217664   2.544   1.888   3.596 -0.9484  0.8461  0.8907
 5589SOL     OW17665   1.742   5.151   4.518 -0.3604 -0.3655  0.0616
 5589SOL    HW117666   1.676   5.087   4.558 -1.6553  0.7477 -0.2020
 5589SOL    HW217667   1.835   5.118   4.535 -0.9451 -1.5383  1.2171
 5590SOL     OW17668   0.331   0.113   3.453 -0.8891 -0.2261 -0.0788
 5590SOL    HW117669   0.420   0.106   3.409 -1.3722  1.1595 -1.3601
 5590SOL    HW217670   0.337   0.081   3.548  1.3326  1.2186  0.3351
 5591SOL     OW17671   5.697   1.124   3.055 -0.0312  0.4156  0.2437
 5591SOL    HW117672   5.731   1.090   3.143  1.7606  0.6614 -0.2996
 5591SOL    HW217673   5.737   1.069   2.981 -2.3382 -0.4748 -0.4175
 5592SOL     OW17674   0.894   2.853   0.463 -0.1827 -0.5405  0.1557
 5592SOL    HW117675   0.801   2.860   0.428 -0.0215  0.5141 -0.1114
 5592SOL    HW217676   0.920   2.757   0.471 -0.6064 -0.8372 -1.6117
 5593SOL     OW17677   5.203   2.658   6.799  0.0176 -1.1605 -0.2230
 5593SOL    HW117678   5.159   2.575   6.833  0.4906 -0.3935  2.5264
 5593SOL    HW217679   5.296   2.665   6.837 -0.0595  0.6651 -0.2511
 5594SOL     OW17680   2.610   6.018   0.529 -0.1451  0.1094 -0.0392
 5594SOL    HW117681   2.662   5.933   0.533  2.8096  1.7740 -0.3018
 5594SOL    HW217682   2.656   6.084   0.469 -2.0598  2.0836  0.4926
 5595SOL     OW17683   6.064   2.302   3.923 -0.0314  0.4020  0.0852
 5595SOL    HW117684   6.069   2.264   3.831  0.3386  0.5369  0.0492
 5595SOL    HW217685   6.145   2.273   3.976  1.1798  2.5505 -0.4803
 5596SOL     OW17686   5.709   4.330   6.131 -0.5905 -0.4360  0.3848
 5596SOL    HW117687   5.719   4.233   6.151  0.4111 -0.2638  0.8080
 5596SOL    HW217688   5.641   4.370   6.193 -0.9815 -0.8544  0.2289
 5597SOL     OW17689   6.412   4.528   2.927  0.9091 -0.2188  0.4425
 5597SOL    HW117690   6.442   4.581   2.848  1.2208 -1.8334 -0.5706
 5597SOL    HW217691   6.475   4.452   2.942  0.1115 -0.7088  1.4365
 5598SOL     OW17692   6.898   2.652   5.339  0.3105 -0.2232 -0.3063
 5598SOL    HW117693   6.893   2.739   5.388  3.1232  0.6412 -1.3668
 5598SOL    HW217694   6.931   2.580   5.400  2.2616  0.4951 -0.4570
 5599SOL     OW17695   4.087   1.660   0.914 -0.7347 -0.3022  0.1270
 5599SOL    HW117696   4.010   1.671   0.851  0.6376 -0.0778 -1.5668
 5599SOL    HW217697   4.117   1.750   0.946 -0.9030 -0.3632  0.4622
 5600SOL     OW17698   6.094   6.642   4.972  0.3652  0.5379  0.1103
 5600SOL    HW117699   6.159   6.576   5.011  0.6991  1.9484  2.0906
 5600SOL    HW217700   6.007   6.597   4.956  0.9399 -0.6781  0.2382
 5601SOL     OW17701   1.410   2.521   2.775  0.0368 -0.2283  0.1906
 5601SOL    HW117702   1.383   2.609   2.736 -1.6172 -0.4926  0.6688
 5601SOL    HW217703   1.410   2.526   2.874 -1.5338 -1.1525  0.2633
 5602SOL     OW17704   0.631   1.571   2.084 -0.0066  0.2165  0.1178
 5602SOL    HW117705   0.557   1.637   2.073  0.8142  1.0493 -0.5725
 5602SOL    HW217706   0.719   1.619   2.087  0.4334 -0.6345  2.4145
 5603SOL     OW17707   1.773   4.392   0.558  0.4706  0.3351 -0.7237
 5603SOL    HW117708   1.731   4.364   0.471 -0.2546 -0.8163 -0.0224
 5603SOL    HW217709   1.870   4.370   0.556  1.3902  3.6788 -2.6523
 5604SOL     OW17710   4.484   1.546   2.832 -0.0305  0.2891 -0.1211
 5604SOL    HW117711   4.434   1.603   2.765  0.0247  1.1561  0.5533
 5604SOL    HW217712   4.446   1.562   2.923 -0.4936 -1.3299 -0.0042
 5605SOL     OW17713   3.486   2.754   6.367  0.2724 -0.2909 -0.1365
 5605SOL    HW117714   3.400   2.788   6.330  0.1854 -0.6918 -0.3115
 5605SOL    HW217715   3.540   2.712   6.294  0.6372 -0.0008 -0.0369
 5606SOL     OW17716   4.674   1.099   1.203 -0.1019 -0.0773 -0.0008
 5606SOL    HW117717   4.756   1.043   1.192  0.3454  0.3578  0.9678
 5606SOL    HW217718   4.651   1.143   1.116 -0.1003 -1.2527 -0.6160
 5607SOL     OW17719   3.163   0.953   4.641  0.0103  0.1210 -0.4554
 5607SOL    HW117720   3.086   0.892   4.660  0.9258 -0.5772  1.2261
 5607SOL    HW217721   3.201   0.932   4.551 -0.4857 -0.9285 -0.4351
 5608SOL     OW17722   4.773   5.635   1.751  0.6553 -0.2726  0.1793
 5608SOL    HW117723   4.751   5.653   1.656 -0.3373 -0.8585  0.2812
 5608SOL    HW217724   4.688   5.620   1.803  1.1952 -0.3201  1.0779
 5609SOL     OW17725   0.847   6.221   0.951 -0.2060 -0.0754  0.4990
 5609SOL    HW117726   0.929   6.219   0.893 -0.2755 -0.0401  0.4005
 5609SOL    HW217727   0.799   6.134   0.944 -0.4208  0.0665  0.2099
 5610SOL     OW17728   2.854   5.445   0.108  0.2017 -0.2296  0.5935
 5610SOL    HW117729   2.759   5.460   0.078  0.1988 -1.4800 -0.0573
 5610SOL    HW217730   2.890   5.363   0.065  1.2483 -0.3424  1.6499
 5611SOL     OW17731   3.113   4.205   5.176 -0.0725  0.3936  0.0069
 5611SOL    HW117732   3.086   4.290   5.222  1.3481  2.3842 -2.5696
 5611SOL    HW217733   3.211   4.207   5.159 -0.2920 -1.0236 -1.5550
 5612SOL     OW17734   1.400   5.197   6.008  0.3688  0.0546  0.5348
 5612SOL    HW117735   1.486   5.248   6.008 -0.8292  2.1903  0.4648
 5612SOL    HW217736   1.382   5.162   5.916  0.7604  0.3156  0.3541
 5613SOL     OW17737   0.268   1.427   6.191 -0.4017 -0.5021  0.8971
 5613SOL    HW117738   0.221   1.453   6.107  0.3605  1.3033  0.9872
 5613SOL    HW217739   0.361   1.462   6.190 -0.7684  0.6924  3.0171
 5614SOL     OW17740   3.584   2.835   2.729  0.7488  0.3372  0.2007
 5614SOL    HW117741   3.497   2.863   2.769 -1.6031 -3.3844 -1.6346
 5614SOL    HW217742   3.641   2.793   2.799  0.6565  1.8648  1.2325
 5615SOL     OW17743   0.698   2.634   6.861 -0.1809  0.1250 -0.5659
 5615SOL    HW117744   0.710   2.619   6.763 -0.1118 -1.2176 -0.3816
 5615SOL    HW217745   0.776   2.683   6.898 -1.5028  3.3498 -1.6537
 5616SOL     OW17746   3.329   4.734   6.369  0.5320 -0.1227  0.0169
 5616SOL    HW117747   3.275   4.785   6.301  1.6785  1.0015 -0.0785
 5616SOL    HW217748   3.310   4.771   6.460  0.2359 -0.5443  0.1312
 5617SOL     OW17749   2.875   6.621   3.159 -0.6506 -0.6080  0.0362
 5617SOL    HW117750   2.937   6.576   3.223 -2.0652 -2.9887 -0.1486
 5617SOL    HW217751   2.877   6.720   3.174  0.2273 -0.9493  2.6613
 5618SOL     OW17752   4.994   5.800   6.494  0.7928 -0.1553 -0.2206
 5618SOL    HW117753   5.025   5.707   6.474 -0.8529 -0.3296 -2.2861
 5618SOL    HW217754   4.991   5.853   6.410 -0.7334  0.9921  0.5168
 5619SOL     OW17755   4.728   4.273   2.661 -0.1790 -0.0659 -0.8981
 5619SOL    HW117756   4.781   4.260   2.744  1.1171  1.8212 -1.3798
 5619SOL    HW217757   4.682   4.361   2.663  1.5660  1.0030 -2.9893
 5620SOL     OW17758   1.760   0.744   2.060 -0.3390 -0.1725 -0.6906
 5620SOL    HW117759   1.769   0.695   1.974 -0.8044 -1.1042 -0.2140
 5620SOL    HW217760   1.663   0.758   2.081 -0.2528 -0.6529  0.0671
 5621SOL     OW17761   6.227   2.454   5.664  0.1033  0.3849 -0.2626
 5621SOL    HW117762   6.314   2.415   5.631  0.1410  0.3648 -0.1404
 5621SOL    HW217763   6.239   2.487   5.757  0.3205  1.5304 -0.6905
 5622SOL     OW17764   1.923   2.618   0.097  0.2613 -0.3578 -0.3739
 5622SOL    HW117765   1.936   2.685   0.170 -0.7681 -1.9093  1.2865
 5622SOL    HW217766   1.863   2.657   0.027  1.4396  1.2292 -0.5469
 5623SOL     OW17767   5.699   4.735   4.337  0.2034  0.2819 -0.6188
 5623SOL    HW117768   5.729   4.780   4.422  1.6622 -0.3886 -0.7580
 5623SOL    HW217769   5.671   4.805   4.271 -1.1814  0.8119  0.4677
 5624SOL     OW17770   6.005   1.062   5.197 -0.3333  0.4649 -0.1565
 5624SOL    HW117771   6.035   0.967   5.185  0.2813  0.5278  0.7708
 5624SOL    HW217772   6.068   1.124   5.150 -0.7637  0.4194 -0.8059
 5625SOL     OW17773   6.253   3.701   5.997 -0.3145 -0.1056  0.2208
 5625SOL    HW117774   6.237   3.607   5.970 -1.9310 -0.3002  1.6645
 5625SOL    HW217775   6.320   3.743   5.935 -0.4728 -1.8066 -1.1788
 5626SOL     OW17776   0.550   5.208   6.295  0.8355  0.1525 -0.1193
 5626SOL    HW117777   0.536   5.290   6.240  0.0651 -0.4471 -0.8347
 5626SOL    HW217778   0.490   5.211   6.375  0.9704  0.3878 -0.0258
 5627SOL     OW17779   5.838   1.691   0.920  0.0628 -0.5639  0.1787
 5627SOL    HW117780   5.787   1.736   0.847  1.3154 -0.0893 -0.4286
 5627SOL    HW217781   5.929   1.667   0.887  0.9978  0.5080  1.8515
 5628SOL     OW17782   3.652   3.040   5.349 -0.2025  0.4767  0.1009
 5628SOL    HW117783   3.573   2.985   5.323 -0.6084  0.4051  1.4096
 5628SOL    HW217784   3.718   2.983   5.398 -0.6387  1.1295  1.4909
 5629SOL     OW17785   6.587   0.448   4.277 -0.5761  0.0106 -0.8012
 5629SOL    HW117786   6.554   0.455   4.183 -0.8057  0.1952 -0.7089
 5629SOL    HW217787   6.520   0.399   4.332 -0.7518  0.4840 -0.5871
 5630SOL     OW17788   6.583   1.939   4.449  0.1677  0.0863 -0.1023
 5630SOL    HW117789   6.563   1.942   4.547  0.1632  0.1255 -0.1043
 5630SOL    HW217790   6.638   2.019   4.424  2.3563 -1.1866  0.3589
 5631SOL     OW17791   0.864   1.373   2.677  0.1461  0.2776 -0.6404
 5631SOL    HW117792   0.864   1.465   2.716  0.7205 -0.2343  0.6029
 5631SOL    HW217793   0.855   1.306   2.750  0.7750 -0.7001 -1.4409
 5632SOL     OW17794   3.407   4.506   0.903 -0.8997 -0.3362 -0.3265
 5632SOL    HW117795   3.324   4.486   0.852 -2.1316 -0.1034  1.5223
 5632SOL    HW217796   3.388   4.509   1.001  1.5667 -1.6515  0.2927
 5633SOL     OW17797   0.457   6.000   6.149 -0.3027  0.4211  0.4145
 5633SOL    HW117798   0.432   5.907   6.121 -0.4719  0.3257  0.8655
 5633SOL    HW217799   0.438   6.011   6.247  1.9341  0.1589  0.9451
 5634SOL     OW17800   6.897   0.093   2.643 -0.1663 -0.3278  0.1698
 5634SOL    HW117801   6.838   0.171   2.622  2.2646  1.2248 -1.3253
 5634SOL    HW217802   6.888   0.023   2.572  0.0879  0.1151 -0.3084
 5635SOL     OW17803   5.054   0.670   1.220  0.4541 -0.0746 -0.2542
 5635SOL    HW117804   4.971   0.699   1.268  0.1622  0.1914 -0.9083
 5635SOL    HW217805   5.116   0.748   1.211  0.3136 -0.0139 -0.7030
 5636SOL     OW17806   6.241   6.604   4.062  0.6044 -0.1399  0.1674
 5636SOL    HW117807   6.320   6.641   4.110 -0.1668  2.3820 -0.3192
 5636SOL    HW217808   6.185   6.552   4.125  1.6378 -0.2847  0.9969
 5637SOL     OW17809   2.014   2.471   6.614  0.0223  0.1925 -0.0322
 5637SOL    HW117810   2.056   2.442   6.528 -1.3532  0.7814 -0.9343
 5637SOL    HW217811   2.084   2.513   6.672  0.6912  1.3687 -1.5882
 5638SOL     OW17812   0.942   4.284   2.116 -0.0966  0.0109  0.1691
 5638SOL    HW117813   0.966   4.191   2.143  0.4947 -0.1860 -0.9359
 5638SOL    HW217814   0.871   4.320   2.176  0.3121 -0.8194  1.1650
 5639SOL     OW17815   3.848   2.120   4.421  0.3181  0.0337 -0.5155
 5639SOL    HW117816   3.907   2.188   4.464 -0.7295  0.7844 -0.2165
 5639SOL    HW217817   3.875   2.028   4.450  1.2271  0.3761 -0.2711
 5640SOL     OW17818   2.248   5.764   6.284 -0.3268  0.3543 -0.1661
 5640SOL    HW117819   2.230   5.821   6.365 -0.5484 -0.3843  0.3097
 5640SOL    HW217820   2.346   5.763   6.265 -0.1357 -0.4507  0.8232
 5641SOL     OW17821   1.120   7.007   6.928  0.4757  0.1416  0.0945
 5641SOL    HW117822   1.209   7.052   6.934  0.2060  0.6265  0.4745
 5641SOL    HW217823   1.072   7.040   6.846  0.3204  0.4698  0.3171
 5642SOL     OW17824   4.866   5.975   5.332 -0.3404  0.6507  0.2393
 5642SOL    HW117825   4.895   5.933   5.246 -1.2067  0.2596  0.1281
 5642SOL    HW217826   4.843   5.904   5.398 -0.1791  0.9505  0.6241
 5643SOL     OW17827   5.750   0.821   3.414 -1.0826 -0.2013 -0.1951
 5643SOL    HW117828   5.778   0.900   3.360 -1.5067 -0.4118 -0.7349
 5643SOL    HW217829   5.686   0.850   3.485 -1.6311 -0.1257 -0.7105
 5644SOL     OW17830   1.029   2.297   4.028  0.8119  0.2951  0.7655
 5644SOL    HW117831   1.021   2.354   3.947 -0.6965 -1.0867 -0.1096
 5644SOL    HW217832   1.084   2.217   4.007 -1.0283 -0.9657  0.5314
 5645SOL     OW17833   3.965   5.872   3.876  0.0323  0.0932  0.1209
 5645SOL    HW117834   3.949   5.959   3.922 -0.0937  0.1376 -0.0050
 5645SOL    HW217835   3.948   5.797   3.940  1.8798  0.1832  0.7656
 5646SOL     OW17836   2.320   1.251   2.295 -0.1561  0.3662 -0.0286
 5646SOL    HW117837   2.297   1.173   2.237 -2.0255  0.2506  0.8016
 5646SOL    HW217838   2.327   1.334   2.239 -0.5737  0.0298 -0.5864
 5647SOL     OW17839   2.553   4.547   4.407  0.1691  0.1711  0.8379
 5647SOL    HW117840   2.625   4.570   4.472  1.2420  0.5845 -0.4662
 5647SOL    HW217841   2.563   4.602   4.325 -1.3068 -0.1706  0.3975
 5648SOL     OW17842   6.578   6.213   2.353 -0.3146  0.0350 -0.2778
 5648SOL    HW117843   6.555   6.171   2.265 -0.6109  0.6147 -0.4829
 5648SOL    HW217844   6.497   6.216   2.411 -0.4091  0.7248 -0.4359
 5649SOL     OW17845   6.992   3.614   5.403 -1.0111  0.1367  0.0491
 5649SOL    HW117846   7.023   3.680   5.334 -0.4872 -0.5124 -0.3510
 5649SOL    HW217847   7.062   3.544   5.416 -0.3968  1.1169  2.4443
 5650SOL     OW17848   1.302   2.260   3.069  0.3604  0.5800 -0.0753
 5650SOL    HW117849   1.384   2.291   3.021  0.9235 -2.9897 -1.7674
 5650SOL    HW217850   1.325   2.243   3.165  0.8723  1.9974  0.0795
 5651SOL     OW17851   5.760   5.229   0.216  0.1602 -0.4496  0.1381
 5651SOL    HW117852   5.817   5.310   0.231 -1.2352  0.4770  0.6712
 5651SOL    HW217853   5.818   5.148   0.209  1.4600  0.2501  2.0660
 5652SOL     OW17854   0.815   3.136   4.310 -0.2355  0.0820  0.8933
 5652SOL    HW117855   0.808   3.199   4.233 -2.8769 -1.1802  0.0096
 5652SOL    HW217856   0.896   3.078   4.298 -0.0132  0.6123 -0.3533
 5653SOL     OW17857   0.667   6.751   2.410  0.3935  0.2131  0.0666
 5653SOL    HW117858   0.750   6.713   2.451  0.0561 -0.3019  0.2665
 5653SOL    HW217859   0.691   6.834   2.359  1.0607 -0.0298 -0.0256
 5654SOL     OW17860   4.227   5.740   6.926 -0.5294 -0.0480 -0.0417
 5654SOL    HW117861   4.304   5.678   6.935 -1.4272 -1.1042  0.7414
 5654SOL    HW217862   4.189   5.759   7.016 -0.6857  1.1297 -0.3348
 5655SOL     OW17863   3.200   3.187   0.332  0.1253  0.4790  0.0335
 5655SOL    HW117864   3.271   3.209   0.265  0.0753 -0.2992 -0.2860
 5655SOL    HW217865   3.220   3.099   0.374 -0.1217  0.7231  0.6720
 5656SOL     OW17866   2.350   6.020   1.202  0.1435  0.0700  0.5400
 5656SOL    HW117867   2.392   5.935   1.235  0.9908  0.4611  0.5127
 5656SOL    HW217868   2.334   6.014   1.104  1.3168  0.3675  0.3121
 5657SOL     OW17869   4.996   2.437   5.503  0.3034  0.1141  0.0114
 5657SOL    HW117870   4.946   2.405   5.583  1.0313  0.9635  0.8318
 5657SOL    HW217871   4.931   2.460   5.430 -0.3654 -0.7114  0.3286
 5658SOL     OW17872   0.414   1.532   3.519 -0.4188 -0.4119  0.2542
 5658SOL    HW117873   0.333   1.503   3.570 -1.3700  0.8220 -0.4882
 5658SOL    HW217874   0.387   1.596   3.447  0.8221 -2.2284 -1.9730
 5659SOL     OW17875   3.760   1.383   5.174 -0.0696 -0.1927 -0.3899
 5659SOL    HW117876   3.802   1.435   5.100 -1.8856  2.4564  0.3003
 5659SOL    HW217877   3.728   1.295   5.139 -0.0069  0.5773 -2.4967
 5660SOL     OW17878   3.453   6.932   4.311 -0.4468  0.2474 -0.7556
 5660SOL    HW117879   3.384   7.000   4.334 -0.4274  0.2272 -0.6409
 5660SOL    HW217880   3.446   6.910   4.214 -1.3187 -0.5800 -0.5084
 5661SOL     OW17881   2.276   1.816   0.586 -0.2222  0.4462  0.7103
 5661SOL    HW117882   2.317   1.853   0.669 -0.6928 -1.2063  1.7248
 5661SOL    HW217883   2.205   1.750   0.610  0.2901 -0.8019 -0.9904
 5662SOL     OW17884   2.134   5.280   4.137  0.6854  0.8029 -0.6814
 5662SOL    HW117885   2.104   5.368   4.102  1.1282  1.4841  0.5788
 5662SOL    HW217886   2.177   5.227   4.064 -1.9918  0.4666 -2.1452
 5663SOL     OW17887   3.290   6.036   2.208 -0.0073 -0.1435 -0.3335
 5663SOL    HW117888   3.226   6.027   2.285 -1.4124  2.1221 -1.1230
 5663SOL    HW217889   3.369   6.089   2.238 -0.0834 -0.1119 -0.1831
 5664SOL     OW17890   4.314   4.303   0.046 -0.8562  0.0405  0.2997
 5664SOL    HW117891   4.267   4.384   0.080  0.0394  0.8195 -0.2985
 5664SOL    HW217892   4.405   4.327   0.014 -0.6579 -1.1596 -0.1006
 5665SOL     OW17893   0.575   1.835   6.231 -0.0245  0.1263 -0.2409
 5665SOL    HW117894   0.640   1.911   6.222 -2.0482  1.8401 -1.0286
 5665SOL    HW217895   0.625   1.749   6.221  2.3059  1.3132  0.3886
 5666SOL     OW17896   2.878   0.778   2.520 -0.0804  0.2793  0.2332
 5666SOL    HW117897   2.800   0.839   2.503  0.8445  1.8871  1.4480
 5666SOL    HW217898   2.931   0.814   2.597  0.8438 -1.7869  0.6137
 5667SOL     OW17899   4.724   0.294   5.993 -0.0961 -0.2173 -0.1811
 5667SOL    HW117900   4.628   0.278   5.972 -0.7753 -0.0901  2.3960
 5667SOL    HW217901   4.732   0.374   6.053  1.4262 -1.1093  0.8940
 5668SOL     OW17902   2.069   1.735   1.684  0.8686 -0.2600  0.6293
 5668SOL    HW117903   2.117   1.778   1.761  0.9197 -0.8966  0.9550
 5668SOL    HW217904   2.039   1.806   1.620  2.5840  0.1121  0.2037
 5669SOL     OW17905   4.243   5.083   6.333 -0.0129  0.1041 -0.4730
 5669SOL    HW117906   4.320   5.147   6.338 -0.0151  0.0292  0.7194
 5669SOL    HW217907   4.214   5.059   6.425 -0.7468 -0.7439 -0.9163
 5670SOL     OW17908   0.141   3.673   4.569  0.1991 -0.5341 -0.0831
 5670SOL    HW117909   0.139   3.723   4.482 -0.7101  0.6603  0.5850
 5670SOL    HW217910   0.053   3.627   4.583  0.6403 -1.4131 -0.1778
 5671SOL     OW17911   4.697   5.903   5.815 -0.1621  0.5171 -0.0751
 5671SOL    HW117912   4.676   5.874   5.908  1.3200  1.1763  0.4940
 5671SOL    HW217913   4.613   5.933   5.769 -1.0217 -0.5338  0.7773
 5672SOL     OW17914   1.491   3.148   3.402  0.6934  0.3549  0.2654
 5672SOL    HW117915   1.419   3.125   3.337  0.4276 -1.6359  1.1714
 5672SOL    HW217916   1.451   3.190   3.484  0.2957 -1.9437  1.3368
 5673SOL     OW17917   4.557   1.718   6.963  0.0563 -0.8079  0.5062
 5673SOL    HW117918   4.561   1.810   7.002  0.7530  0.7327 -2.8509
 5673SOL    HW217919   4.475   1.671   6.996 -1.5075  1.8396  0.6748
 5674SOL     OW17920   0.599   2.692   6.281 -0.2225 -0.5843 -0.4857
 5674SOL    HW117921   0.595   2.593   6.261 -1.2169 -0.6154 -0.1900
 5674SOL    HW217922   0.508   2.724   6.304  0.3187  0.1600  0.6749
 5675SOL     OW17923   0.453   1.692   6.444 -0.1420 -0.1260 -0.0339
 5675SOL    HW117924   0.489   1.745   6.367  0.5560  0.4118  0.6538
 5675SOL    HW217925   0.514   1.616   6.463  1.1797  1.2809  1.6910
 5676SOL     OW17926   4.495   2.021   0.235 -0.7888  0.4561 -0.1229
 5676SOL    HW117927   4.540   2.101   0.275  0.3870  0.8540 -2.1354
 5676SOL    HW217928   4.507   2.022   0.136 -1.2642 -1.9285 -0.2510
 5677SOL     OW17929   3.023   1.574   6.941 -0.0242 -0.5698 -0.2819
 5677SOL    HW117930   3.038   1.672   6.950  1.9372 -0.9139  0.7070
 5677SOL    HW217931   2.930   1.552   6.972  0.1258  0.7659  1.2402
 5678SOL     OW17932   3.255   1.885   2.836  0.2723  0.2068  0.3956
 5678SOL    HW117933   3.268   1.984   2.838  0.8544  0.1951 -1.2496
 5678SOL    HW217934   3.219   1.854   2.924 -0.0955  1.8936  0.8675
 5679SOL     OW17935   3.938   6.494   6.041 -0.0706  0.3683 -0.1376
 5679SOL    HW117936   3.940   6.527   6.135  0.0020  2.1963 -0.7303
 5679SOL    HW217937   4.032   6.487   6.006  0.0655 -2.4191  0.5488
 5680SOL     OW17938   4.674   6.224   5.200  0.0898  0.0848  0.1857
 5680SOL    HW117939   4.704   6.135   5.234 -1.8846  0.2969  2.8139
 5680SOL    HW217940   4.729   6.296   5.242 -1.1793  0.2624  1.6195
 5681SOL     OW17941   0.791   0.726   2.864  0.5541 -0.4714  0.5287
 5681SOL    HW117942   0.700   0.766   2.875  0.7601 -0.3428  2.0256
 5681SOL    HW217943   0.813   0.718   2.767 -0.0305  1.8468  0.1361
 5682SOL     OW17944   6.928   3.804   3.637 -0.5525  0.2063  0.2491
 5682SOL    HW117945   6.919   3.727   3.573 -1.5990  0.1314  0.4683
 5682SOL    HW217946   6.866   3.877   3.610  0.6574  1.1212 -0.1352
 5683SOL     OW17947   1.458   2.747   3.244  0.1573 -0.2259  0.6062
 5683SOL    HW117948   1.427   2.761   3.338 -1.0577  0.3581  0.1479
 5683SOL    HW217949   1.514   2.826   3.216  0.4321 -0.3505  0.8001
 5684SOL     OW17950   1.320   5.627   5.000  0.1011  0.5424  0.2038
 5684SOL    HW117951   1.295   5.578   5.083 -0.0227  2.0198  1.0635
 5684SOL    HW217952   1.412   5.664   5.008 -0.3897  1.8074  0.2377
 5685SOL     OW17953   0.385   0.818   1.643 -0.2186 -0.0708  0.7882
 5685SOL    HW117954   0.427   0.866   1.720 -0.7452  0.3162  0.8361
 5685SOL    HW217955   0.366   0.884   1.570 -1.0599 -0.1795  0.9019
 5686SOL     OW17956   2.711   3.836   5.647 -0.1920  0.1417  0.4854
 5686SOL    HW117957   2.658   3.907   5.599  0.9786  1.0067  0.4356
 5686SOL    HW217958   2.804   3.869   5.663 -0.2134 -0.5805  2.3355
 5687SOL     OW17959   3.814   1.833   6.931  0.2412  0.0812  0.0165
 5687SOL    HW117960   3.797   1.927   6.900 -0.1338 -0.7007 -2.3197
 5687SOL    HW217961   3.892   1.833   6.995 -0.9241  2.1757  1.5848
 5688SOL     OW17962   1.071   3.922   4.934  0.2808 -0.2029 -0.3162
 5688SOL    HW117963   1.029   3.878   4.855 -1.9031 -0.2577  0.8269
 5688SOL    HW217964   1.146   3.981   4.902 -1.0765  0.4631 -2.5256
 5689SOL     OW17965   4.781   0.710   5.301 -0.2314  0.3699 -0.1887
 5689SOL    HW117966   4.744   0.642   5.237  2.5814  1.0479 -2.7522
 5689SOL    HW217967   4.806   0.664   5.387  0.2203 -1.5565 -1.2926
 5690SOL     OW17968   2.366   4.556   5.077 -0.0885  0.0322  0.1758
 5690SOL    HW117969   2.451   4.601   5.104 -0.0159 -1.0560  1.8911
 5690SOL    HW217970   2.388   4.473   5.025 -0.1140  0.0238  0.1781
 5691SOL     OW17971   5.697   5.805   6.207 -0.6694  0.0415 -0.2003
 5691SOL    HW117972   5.613   5.751   6.202 -1.6260  1.6093 -2.5772
 5691SOL    HW217973   5.758   5.780   6.132  0.7148 -0.5023  1.0277
 5692SOL     OW17974   5.257   4.863   4.234  0.2222  0.3755 -0.5148
 5692SOL    HW117975   5.263   4.799   4.157  1.2385  0.1949 -0.2914
 5692SOL    HW217976   5.169   4.911   4.229 -0.1651 -0.3600 -1.2095
 5693SOL     OW17977   4.452   5.131   3.122 -0.4582  0.0765  0.3539
 5693SOL    HW117978   4.547   5.144   3.152  0.4286 -2.9797 -0.7230
 5693SOL    HW217979   4.421   5.213   3.073  2.2466  0.5803 -0.7119
 5694SOL     OW17980   0.572   2.796   2.991 -0.2536  0.0415  0.5510
 5694SOL    HW117981   0.625   2.729   2.939  0.1104  1.4498 -0.9861
 5694SOL    HW217982   0.631   2.841   3.057  0.7773  2.0855 -1.6164
 5695SOL     OW17983   0.844   4.307   1.168 -0.1770 -0.0601 -0.3886
 5695SOL    HW117984   0.767   4.371   1.164 -1.0899 -1.0179  1.1169
 5695SOL    HW217985   0.850   4.256   1.082 -1.0177  0.2542 -0.6380
 5696SOL     OW17986   6.315   2.613   0.262  0.1755 -0.1810 -0.0187
 5696SOL    HW117987   6.304   2.575   0.170 -0.7463 -0.5693  0.2389
 5696SOL    HW217988   6.411   2.606   0.289  0.0989 -2.0960 -0.0966
 5697SOL     OW17989   5.919   3.533   2.931  0.1013  0.0085  0.1687
 5697SOL    HW117990   6.019   3.531   2.923  0.0436  0.5067 -0.7752
 5697SOL    HW217991   5.890   3.620   2.969 -0.0393  0.4028 -0.8055
 5698SOL     OW17992   6.090   6.132   5.321  0.0792  0.1850  0.0911
 5698SOL    HW117993   5.991   6.120   5.325  0.0118  0.7752  0.2856
 5698SOL    HW217994   6.133   6.083   5.397  0.0968 -1.5260 -0.9616
 5699SOL     OW17995   3.849   2.837   6.563 -0.9773  0.1158 -0.6778
 5699SOL    HW117996   3.821   2.933   6.552  1.4364  0.6962 -3.0932
 5699SOL    HW217997   3.860   2.796   6.473  0.3118 -1.7000  0.2496
 5700SOL     OW17998   2.300   4.205   5.307 -0.7528 -0.0586 -0.3090
 5700SOL    HW117999   2.290   4.286   5.250  0.1025 -0.1088 -0.5426
 5700SOL    HW218000   2.354   4.136   5.259  0.8727  0.2831  0.9199
 5701SOL     OW18001   6.500   3.217   1.944  0.3253  0.2846  0.0900
 5701SOL    HW118002   6.460   3.242   2.032  0.3337 -0.4593  0.3049
 5701SOL    HW218003   6.434   3.163   1.891  0.5395  0.2301 -0.1215
 5702SOL     OW18004   1.296   5.418   3.779 -0.2758  0.3974 -0.1021
 5702SOL    HW118005   1.234   5.413   3.701  0.6978  2.2605 -1.0641
 5702SOL    HW218006   1.390   5.425   3.746  0.2995 -0.4593  1.2890
 5703SOL     OW18007   2.209   3.631   5.251  0.0998 -0.1225 -0.3130
 5703SOL    HW118008   2.198   3.719   5.204  0.4584  0.2611  0.2963
 5703SOL    HW218009   2.132   3.618   5.314 -0.0937 -0.3689 -0.6054
 5704SOL     OW18010   2.056   3.942   6.766  0.2338 -0.4204  0.3125
 5704SOL    HW118011   2.006   3.937   6.679  1.3371  0.9309 -0.4280
 5704SOL    HW218012   2.007   3.889   6.835 -1.0908 -0.8699 -0.9245
 5705SOL     OW18013   3.568   1.200   1.588  0.0992  0.1146  0.5479
 5705SOL    HW118014   3.665   1.181   1.569  0.1492  0.6473  0.2530
 5705SOL    HW218015   3.557   1.216   1.686  0.3752  0.3966  0.5369
 5706SOL     OW18016   6.218   3.694   4.019  0.0289  0.1736  0.0924
 5706SOL    HW118017   6.304   3.743   4.031 -0.7352  1.1262  2.0027
 5706SOL    HW218018   6.142   3.759   4.018 -0.7650 -0.7240 -0.6769
 5707SOL     OW18019   0.251   4.794   0.750 -0.0782 -0.8786 -0.3031
 5707SOL    HW118020   0.312   4.736   0.804  1.0036  0.4991  0.0210
 5707SOL    HW218021   0.227   4.875   0.803 -3.4105 -2.0087  0.1490
 5708SOL     OW18022   5.329   0.424   0.179 -0.2534 -0.0944  0.0119
 5708SOL    HW118023   5.343   0.409   0.081  0.0213  0.2770 -0.0063
 5708SOL    HW218024   5.379   0.354   0.231  0.8606  0.6152 -0.0786
 5709SOL     OW18025   0.806   1.905   0.929 -0.6670  0.3657  0.0940
 5709SOL    HW118026   0.879   1.945   0.875 -0.5306  1.0844  0.7886
 5709SOL    HW218027   0.800   1.807   0.910  0.1261  0.3998 -0.3648
 5710SOL     OW18028   7.001   3.340   2.120 -0.4469 -0.1365 -0.4613
 5710SOL    HW118029   6.974   3.380   2.032  0.4395 -0.7897 -1.0401
 5710SOL    HW218030   6.941   3.375   2.192 -1.1211  0.4827 -1.3070
 5711SOL     OW18031   3.989   6.485   1.939 -0.1547  0.1486 -0.2532
 5711SOL    HW118032   3.959   6.485   2.034 -1.4253 -0.2587 -0.6316
 5711SOL    HW218033   3.956   6.402   1.894 -0.0548  0.6083 -1.1890
 5712SOL     OW18034   0.182   6.126   1.117  0.5955  0.2528  0.4811
 5712SOL    HW118035   0.117   6.164   1.183 -0.0075 -0.9667  0.6069
 5712SOL    HW218036   0.234   6.200   1.075 -0.3796  1.1858  0.8939
 5713SOL     OW18037   5.204   1.975   1.978  0.3769 -0.1616  0.3511
 5713SOL    HW118038   5.148   1.939   1.903 -2.6528 -2.5815  3.4222
 5713SOL    HW218039   5.144   2.021   2.044  2.6622  0.5412  2.0509
 5714SOL     OW18040   4.309   6.983   4.012 -0.2665  0.3245 -1.2602
 5714SOL    HW118041   4.334   6.886   4.014 -0.6284  0.2444  0.1114
 5714SOL    HW218042   4.387   7.038   4.043  0.0174  0.4992 -2.2629
 5715SOL     OW18043   4.308   1.990   1.762 -0.5103  0.2253 -0.5279
 5715SOL    HW118044   4.276   2.078   1.728  0.6865 -0.0930 -2.6838
 5715SOL    HW218045   4.325   1.929   1.684 -1.5297 -2.0120  0.9122
 5716SOL     OW18046   3.075   4.614   0.264 -0.1766 -0.0268  0.1312
 5716SOL    HW118047   3.068   4.551   0.187  2.9867 -0.3580 -0.0511
 5716SOL    HW218048   3.070   4.562   0.350 -1.8919  0.0999  0.1260
 5717SOL     OW18049   5.904   3.687   2.178  0.7493  0.2157 -0.0031
 5717SOL    HW118050   5.968   3.679   2.254  1.4101  0.8474 -0.4789
 5717SOL    HW218051   5.847   3.605   2.173  0.6352  0.2016  1.2235
 5718SOL     OW18052   4.574   5.088   4.236  0.5146 -0.3035  0.1520
 5718SOL    HW118053   4.538   5.108   4.145 -1.3953 -2.9033  0.2152
 5718SOL    HW218054   4.513   5.128   4.305  1.1302  0.3704  0.3240
 5719SOL     OW18055   5.107   3.197   7.001  0.0339 -0.2101  0.2341
 5719SOL    HW118056   5.169   3.245   7.063  0.8633 -0.1232 -0.6381
 5719SOL    HW218057   5.160   3.139   6.940 -0.8400 -0.9779  0.1858
 5720SOL     OW18058   0.740   3.654   5.612  0.0825 -0.1124 -0.0914
 5720SOL    HW118059   0.706   3.607   5.693 -0.1870 -0.7779 -0.5807
 5720SOL    HW218060   0.840   3.650   5.610  0.0364 -1.2306 -0.4557
 5721SOL     OW18061   4.523   6.798   4.715  0.6825 -0.5287  0.1449
 5721SOL    HW118062   4.576   6.883   4.712  0.5767 -0.4401  0.7388
 5721SOL    HW218063   4.515   6.761   4.622  0.0168  0.5529 -0.2510
 5722SOL     OW18064   0.562   0.576   3.631  0.4524 -0.0090  0.1824
 5722SOL    HW118065   0.598   0.670   3.629 -0.2979  0.2910  0.3071
 5722SOL    HW218066   0.508   0.564   3.714 -1.5483  0.2600 -1.0085
 5723SOL     OW18067   2.750   6.471   1.112  0.2045  0.4708 -0.0884
 5723SOL    HW118068   2.753   6.552   1.053 -1.0300  0.8103  0.2846
 5723SOL    HW218069   2.700   6.493   1.196  0.7256 -0.4024  0.4668
 5724SOL     OW18070   3.862   0.929   0.726  0.3286  0.4656 -0.0870
 5724SOL    HW118071   3.823   0.869   0.656 -0.2222  1.6199 -0.8111
 5724SOL    HW218072   3.831   1.023   0.710  2.6189  1.3003 -0.1303
 5725SOL     OW18073   5.078   3.200   5.472 -0.2621 -0.5127 -0.3932
 5725SOL    HW118074   5.083   3.140   5.391 -2.4296 -1.0545 -0.1802
 5725SOL    HW218075   5.034   3.150   5.547 -0.3529  0.7457  0.4053
 5726SOL     OW18076   2.067   6.121   0.241 -0.2814 -0.2547 -0.3517
 5726SOL    HW118077   2.019   6.122   0.329  0.7123 -0.9627  0.2131
 5726SOL    HW218078   2.165   6.116   0.257 -0.1177 -1.0232 -1.5197
 5727SOL     OW18079   5.190   3.320   4.148  0.1068 -0.1237 -0.0156
 5727SOL    HW118080   5.113   3.366   4.192 -0.3611 -0.9877  0.0982
 5727SOL    HW218081   5.155   3.255   4.081  0.6430 -1.6281  1.0990
 5728SOL     OW18082   1.676   5.063   6.883 -0.4544 -0.3800  0.0990
 5728SOL    HW118083   1.586   5.107   6.876 -1.7670 -3.0694 -1.9011
 5728SOL    HW218084   1.670   4.988   6.948  1.6088  1.8260  3.0938
 5729SOL     OW18085   6.673   0.223   6.836  0.4818  0.2646 -0.7631
 5729SOL    HW118086   6.579   0.190   6.847 -0.9055  4.4677  2.0642
 5729SOL    HW218087   6.677   0.285   6.758  1.6280 -1.6387 -2.3207
 5730SOL     OW18088   2.931   4.197   6.426 -0.3730 -0.0180  0.1949
 5730SOL    HW118089   2.976   4.285   6.407  3.0838 -1.5552  0.5226
 5730SOL    HW218090   2.880   4.204   6.511  2.1282  1.0446  1.7434
 5731SOL     OW18091   1.432   5.804   2.341  0.0043  0.4446 -0.4005
 5731SOL    HW118092   1.355   5.867   2.352 -0.1463  1.0995 -3.9144
 5731SOL    HW218093   1.502   5.847   2.283  1.7496 -1.1843  0.4102
 5732SOL     OW18094   5.222   1.919   6.994 -0.1644 -0.5804 -0.4856
 5732SOL    HW118095   5.205   1.842   7.056 -2.0789  0.5371  0.4815
 5732SOL    HW218096   5.203   1.892   6.900 -1.7321 -1.0653 -0.0572
 5733SOL     OW18097   5.185   0.760   6.381  0.4957  0.3111 -0.3313
 5733SOL    HW118098   5.251   0.731   6.450  2.0888  1.4761 -1.3171
 5733SOL    HW218099   5.154   0.853   6.401  0.7030  0.5264 -0.9888
 5734SOL     OW18100   6.178   3.770   5.363 -0.9926  0.3487  0.1927
 5734SOL    HW118101   6.131   3.850   5.400 -0.4785 -0.3519  2.5370
 5734SOL    HW218102   6.187   3.701   5.435 -0.3362 -1.3293 -1.4286
 5735SOL     OW18103   2.331   2.641   2.816  0.0985 -0.2992 -0.1586
 5735SOL    HW118104   2.305   2.606   2.726 -0.3629 -0.1114 -0.1014
 5735SOL    HW218105   2.429   2.659   2.817  0.1581 -0.5788 -0.5290
 5736SOL     OW18106   6.741   4.312   5.976 -0.0061 -0.0359 -0.5172
 5736SOL    HW118107   6.827   4.314   5.924 -1.3843  0.8337 -2.9352
 5736SOL    HW218108   6.727   4.400   6.021  0.1160  0.0091 -0.5671
 5737SOL     OW18109   5.953   5.750   5.142 -0.1633 -0.1227  0.4150
 5737SOL    HW118110   6.014   5.827   5.128 -0.1156 -0.1544  0.4501
 5737SOL    HW218111   6.000   5.665   5.120 -0.7135 -0.0429 -1.2468
 5738SOL     OW18112   4.010   6.242   6.561  0.4746  0.2099  0.4477
 5738SOL    HW118113   3.994   6.291   6.646  0.9886  0.4090  0.4339
 5738SOL    HW218114   3.999   6.143   6.576  0.7920  0.2272  0.7962
 5739SOL     OW18115   4.109   2.124   0.079  0.2808 -0.2720  0.2454
 5739SOL    HW118116   4.180   2.149   0.013  1.0503  0.2312  1.2258
 5739SOL    HW218117   4.151   2.076   0.156 -0.6335 -1.0327  0.2843
 5740SOL     OW18118   4.060   6.933   1.017 -0.0269  0.1595  0.4507
 5740SOL    HW118119   3.995   6.990   1.067  0.9519 -0.1380  2.1416
 5740SOL    HW218120   4.139   6.913   1.075  1.2057 -0.1876 -1.2446
 5741SOL     OW18121   6.415   1.847   5.057  0.2129 -0.2616 -0.2320
 5741SOL    HW118122   6.461   1.932   5.034 -1.0842  0.5593  0.1382
 5741SOL    HW218123   6.340   1.830   4.993 -0.1491 -0.6188  0.2686
 5742SOL     OW18124   4.859   1.670   0.989 -0.3409  0.7720 -0.2694
 5742SOL    HW118125   4.959   1.669   0.995 -0.3544  1.1891  0.0058
 5742SOL    HW218126   4.826   1.764   0.987 -0.5671  0.6992 -3.4027
 5743SOL     OW18127   1.245   5.518   6.395 -0.3704 -0.0906 -0.7799
 5743SOL    HW118128   1.182   5.590   6.426 -1.5270 -1.4611  0.1572
 5743SOL    HW218129   1.338   5.541   6.425 -1.0512 -0.0506  1.5221
 5744SOL     OW18130   3.398   6.732   5.142 -0.0586 -0.0985  0.1666
 5744SOL    HW118131   3.429   6.678   5.220  0.8694  0.0688 -0.0701
 5744SOL    HW218132   3.438   6.824   5.148  0.8555 -0.3962 -1.0303
 5745SOL     OW18133   2.910   0.992   3.879 -0.0797  0.3618 -0.7690
 5745SOL    HW118134   2.812   0.975   3.871  0.1562 -0.9892 -0.9688
 5745SOL    HW218135   2.936   1.064   3.814 -1.1624  1.7971  0.3155
 5746SOL     OW18136   0.195   5.262   0.732  0.3556  0.0972 -0.4453
 5746SOL    HW118137   0.194   5.167   0.762  1.1921 -0.0079 -0.7309
 5746SOL    HW218138   0.239   5.269   0.643  2.2378  1.0106  0.4998
 5747SOL     OW18139   1.538   5.113   0.596 -0.2950 -0.4168 -0.6257
 5747SOL    HW118140   1.502   5.043   0.658  0.0624 -0.3728 -0.3655
 5747SOL    HW218141   1.468   5.182   0.580  0.2724  0.7134  1.4153
 5748SOL     OW18142   1.766   4.109   0.634 -0.2019 -0.5561  0.0882
 5748SOL    HW118143   1.739   4.181   0.570 -0.3164 -1.2068 -0.6069
 5748SOL    HW218144   1.811   4.035   0.585 -0.8337 -1.3462  0.6682
 5749SOL     OW18145   3.785   4.992   6.941 -0.2030 -0.4131  0.1436
 5749SOL    HW118146   3.698   4.944   6.937 -0.4911  0.1282 -0.2314
 5749SOL    HW218147   3.860   4.926   6.950 -0.6223 -0.8996  0.0758
 5750SOL     OW18148   5.874   1.185   4.943 -0.3105  0.5574  0.3573
 5750SOL    HW118149   5.916   1.229   5.022 -1.8672 -0.3756  1.7801
 5750SOL    HW218150   5.791   1.234   4.917  1.8412  2.9267 -2.9916
 5751SOL     OW18151   1.693   3.282   4.307  0.4500  0.2527 -0.4262
 5751SOL    HW118152   1.760   3.259   4.237  0.0722  1.4362 -1.2006
 5751SOL    HW218153   1.604   3.240   4.284  0.6944 -0.6427  0.1800
 5752SOL     OW18154   0.270   3.153   4.887 -0.3928 -0.2845 -0.4374
 5752SOL    HW118155   0.359   3.138   4.930 -1.5981  0.3094  2.5081
 5752SOL    HW218156   0.225   3.065   4.871  0.1972 -0.5353 -0.7198
 5753SOL     OW18157   0.964   4.144   3.602 -0.2498  0.4305 -0.1025
 5753SOL    HW118158   0.872   4.115   3.631 -0.3942 -0.0072 -0.9773
 5753SOL    HW218159   1.021   4.159   3.683 -0.5402 -1.1029  0.4198
 5754SOL     OW18160   5.325   6.795   1.584 -0.8092 -0.1179  0.3330
 5754SOL    HW118161   5.321   6.817   1.681  2.6997 -0.0811  0.5816
 5754SOL    HW218162   5.300   6.699   1.571 -1.0118 -0.2063  1.2848
 5755SOL     OW18163   0.186   4.636   3.301  0.4154 -0.1637 -0.0876
 5755SOL    HW118164   0.156   4.552   3.255 -0.9762  0.4769 -0.3849
 5755SOL    HW218165   0.163   4.631   3.398 -0.3235  0.1579 -0.2394
 5756SOL     OW18166   5.962   5.304   0.459 -0.4332 -0.1340  0.2709
 5756SOL    HW118167   6.025   5.268   0.390  0.2584 -0.5284  1.0915
 5756SOL    HW218168   5.881   5.246   0.462 -0.7410  0.2218 -0.6033
 5757SOL     OW18169   5.414   5.550   3.243 -0.5005  0.2491  0.2272
 5757SOL    HW118170   5.352   5.627   3.226  0.2319  0.4948 -1.5636
 5757SOL    HW218171   5.506   5.574   3.212  0.1495 -0.7108  1.3369
 5758SOL     OW18172   1.844   1.760   3.952  0.2666 -0.2593  0.5827
 5758SOL    HW118173   1.939   1.745   3.923  0.2529 -0.9000  0.8584
 5758SOL    HW218174   1.819   1.692   4.021 -0.8579 -1.0276 -0.5351
 5759SOL     OW18175   4.487   1.078   1.748 -0.4625  0.3293 -0.2550
 5759SOL    HW118176   4.415   1.030   1.699  1.6290 -1.9291 -1.3464
 5759SOL    HW218177   4.560   1.103   1.684  1.1085 -0.2718  1.2053
 5760SOL     OW18178   3.070   6.538   3.966  0.2581 -0.8835 -0.7239
 5760SOL    HW118179   3.108   6.453   3.930  0.4533 -0.9968 -0.2600
 5760SOL    HW218180   3.128   6.571   4.040  0.0596 -0.4631 -0.7534
 5761SOL     OW18181   1.923   6.155   3.372  0.1400  0.0091  0.0315
 5761SOL    HW118182   1.954   6.196   3.458 -0.3171  0.7510 -0.1469
 5761SOL    HW218183   1.984   6.184   3.298  0.4876 -0.5667  0.0861
 5762SOL     OW18184   5.258   0.764   6.124 -0.1009  0.6254 -0.7355
 5762SOL    HW118185   5.196   0.811   6.061 -0.8197 -0.6343 -1.0023
 5762SOL    HW218186   5.218   0.763   6.216 -0.0180  0.6686 -0.6986
 5763SOL     OW18187   5.829   3.680   4.069  0.1300 -0.4817 -0.7562
 5763SOL    HW118188   5.743   3.661   4.116  0.2026 -0.4760 -0.6230
 5763SOL    HW218189   5.826   3.640   3.977 -0.4107  0.3636 -1.1214
 5764SOL     OW18190   1.722   1.246   6.980  0.2487  0.5209 -0.0125
 5764SOL    HW118191   1.689   1.297   6.902 -0.4758 -0.1912 -0.1867
 5764SOL    HW218192   1.822   1.251   6.984  0.4176 -0.6419 -1.8458
 5765SOL     OW18193   5.037   2.022   3.998  0.3316  0.0193  0.2757
 5765SOL    HW118194   4.969   2.006   4.069  0.1518  0.6648  0.2587
 5765SOL    HW218195   5.023   2.113   3.958  0.6548 -0.1893 -0.3362
 5766SOL     OW18196   3.668   0.831   2.521  0.5301 -0.0420 -0.2027
 5766SOL    HW118197   3.575   0.794   2.524  0.9532 -1.3454 -1.7852
 5766SOL    HW218198   3.677   0.905   2.588 -1.8542  0.6140 -0.5173
 5767SOL     OW18199   3.410   1.090   3.957 -0.0770 -0.5258 -0.0188
 5767SOL    HW118200   3.410   1.072   3.859 -1.4934  0.2326 -0.1854
 5767SOL    HW218201   3.321   1.127   3.984  0.2503 -0.8238  1.5747
 5768SOL     OW18202   2.672   3.830   0.535 -0.4119  0.9335 -0.6161
 5768SOL    HW118203   2.678   3.750   0.476  1.4918  1.3039 -0.9920
 5768SOL    HW218204   2.750   3.832   0.597 -0.4834  2.4317 -0.5263
 5769SOL     OW18205   2.751   1.461   2.777  0.1177 -0.0470 -0.1646
 5769SOL    HW118206   2.694   1.379   2.789 -0.4355  0.3555  0.0040
 5769SOL    HW218207   2.791   1.460   2.685  2.2091 -1.8026  0.6851
 5770SOL     OW18208   3.749   1.170   3.488 -0.1138 -0.6561 -0.1095
 5770SOL    HW118209   3.748   1.257   3.538 -1.2543 -0.7966  0.1349
 5770SOL    HW218210   3.763   1.095   3.552  1.5518 -0.6391 -0.3955
 5771SOL     OW18211   2.647   5.173   2.536 -0.1163 -0.3525 -0.2717
 5771SOL    HW118212   2.673   5.245   2.471 -2.2699  0.5573 -0.2211
 5771SOL    HW218213   2.725   5.151   2.594  0.6136  2.0372 -0.2334
 5772SOL     OW18214   3.732   0.339   0.615  0.6285 -0.2423  0.0901
 5772SOL    HW118215   3.806   0.388   0.569  2.3439 -2.3547  0.4616
 5772SOL    HW218216   3.727   0.245   0.581 -1.3526 -0.4082  0.6938
 5773SOL     OW18217   6.232   3.971   2.280  0.4111  0.0606  0.2848
 5773SOL    HW118218   6.213   4.067   2.257 -1.1661 -0.2645  0.1531
 5773SOL    HW218219   6.221   3.914   2.199  1.0457 -0.2937  0.4360
 5774SOL     OW18220   6.279   1.678   4.549  0.4450  0.1874 -0.3821
 5774SOL    HW118221   6.196   1.702   4.599  1.3770  1.0164  0.8092
 5774SOL    HW218222   6.343   1.633   4.611  1.2278  0.3064 -1.0882
 5775SOL     OW18223   3.245   1.421   6.978 -0.0635 -0.1207  0.3297
 5775SOL    HW118224   3.196   1.500   6.940  0.8590  0.8266  1.0481
 5775SOL    HW218225   3.184   1.372   7.041 -0.5864  0.1186  0.0186
 5776SOL     OW18226   2.472   4.565   6.380  0.2987  0.0197  0.0242
 5776SOL    HW118227   2.386   4.604   6.415  0.4331  0.7514 -0.4310
 5776SOL    HW218228   2.466   4.558   6.280 -0.0474 -1.9607  0.1494
 5777SOL     OW18229   6.886   5.571   1.258  0.0610  0.3248 -0.7795
 5777SOL    HW118230   6.900   5.669   1.242  2.0045  0.2986  0.4176
 5777SOL    HW218231   6.894   5.552   1.356 -1.7287 -0.8716 -0.8048
 5778SOL     OW18232   2.833   1.181   6.208  0.0049 -0.6203 -0.2041
 5778SOL    HW118233   2.890   1.246   6.158 -0.2537  0.9747  1.4805
 5778SOL    HW218234   2.885   1.099   6.228  1.5470  0.5417  0.7506
 5779SOL     OW18235   5.339   5.306   3.969 -0.2031  0.3613  0.2028
 5779SOL    HW118236   5.414   5.307   3.903  0.3544  0.4932  0.8276
 5779SOL    HW218237   5.255   5.276   3.924  0.4528 -0.8212 -0.2567
 5780SOL     OW18238   1.494   0.005   4.158 -0.2386 -0.1388 -0.2825
 5780SOL    HW118239   1.446  -0.020   4.243  0.6444 -0.1040  0.2370
 5780SOL    HW218240   1.563   0.074   4.178  0.2811 -0.4572 -0.9593
 5781SOL     OW18241   3.742   6.220   3.408  0.0095 -0.6652  0.4959
 5781SOL    HW118242   3.759   6.229   3.310  2.5999  1.1832  0.9853
 5781SOL    HW218243   3.828   6.196   3.454 -0.5390  0.9319  2.5097
 5782SOL     OW18244   0.771   2.086   5.027 -0.1023 -0.3155  0.1317
 5782SOL    HW118245   0.847   2.150   5.043  1.1691 -1.7688  0.1719
 5782SOL    HW218246   0.751   2.082   4.929 -1.0942  1.1133  0.2596
 5783SOL     OW18247   4.032   5.776   3.150  0.0106  0.4449 -0.2456
 5783SOL    HW118248   4.019   5.791   3.052  0.0750 -0.9023 -0.4791
 5783SOL    HW218249   4.085   5.851   3.188  0.3207  0.8008 -1.3248
 5784SOL     OW18250   2.326   6.135   0.260  0.1682  0.0149  0.1961
 5784SOL    HW118251   2.394   6.065   0.283 -1.2384 -0.5582  3.0449
 5784SOL    HW218252   2.365   6.225   0.279  1.1197 -0.0872 -1.1046
 5785SOL     OW18253   5.134   4.443   1.380  0.1685  0.4414 -0.1049
 5785SOL    HW118254   5.147   4.368   1.315  0.9129  0.4710  0.0086
 5785SOL    HW218255   5.041   4.479   1.370  0.9097  1.9079 -2.7291
 5786SOL     OW18256   0.188   2.995   4.078  0.3599 -0.0704  0.0375
 5786SOL    HW118257   0.091   3.019   4.077  0.8525  2.0853 -0.8568
 5786SOL    HW218258   0.228   3.022   4.165  0.3853  0.1000 -0.0259
 5787SOL     OW18259   4.207   6.769   0.838 -0.1900  0.3491  0.8937
 5787SOL    HW118260   4.163   6.734   0.756  1.4696  1.1872 -0.4191
 5787SOL    HW218261   4.162   6.853   0.868 -0.5499  0.2622  0.5962
 5788SOL     OW18262   1.172   2.054   2.958  0.2240 -0.3384  0.0800
 5788SOL    HW118263   1.230   2.108   3.019 -0.4478 -0.5377  0.9246
 5788SOL    HW218264   1.186   1.956   2.975  1.2163 -0.4533 -1.2339
 5789SOL     OW18265   2.871   3.246   6.917  0.4784 -0.1916 -0.0755
 5789SOL    HW118266   2.885   3.261   6.819  0.7920 -0.4219 -0.0687
 5789SOL    HW218267   2.960   3.248   6.964  0.5970 -2.3454 -0.1196
 5790SOL     OW18268   0.608   3.458   4.733 -0.3411  0.1939  0.2369
 5790SOL    HW118269   0.566   3.503   4.813  0.0521  0.3500  0.3578
 5790SOL    HW218270   0.639   3.367   4.759 -0.2754  0.2180  0.2419
 5791SOL     OW18271   2.689   6.483   3.012 -0.1625 -0.1508 -0.0107
 5791SOL    HW118272   2.758   6.536   3.062 -0.0263  0.6339 -0.9903
 5791SOL    HW218273   2.611   6.466   3.071 -0.1267  0.9939  0.3956
 5792SOL     OW18274   3.782   0.526   2.846  0.1166  0.1943  0.2834
 5792SOL    HW118275   3.714   0.455   2.828  0.0663  0.4669 -0.6539
 5792SOL    HW218276   3.736   0.608   2.881 -0.3987  1.1746 -2.4200
 5793SOL     OW18277   4.677   6.654   2.971 -0.0858  0.2319  0.0461
 5793SOL    HW118278   4.624   6.652   3.056 -0.4413  0.5773 -0.1662
 5793SOL    HW218279   4.704   6.748   2.951 -0.4631  0.2229 -0.5115
 5794SOL     OW18280   6.522   4.941   0.172 -0.9289 -1.3321 -0.1597
 5794SOL    HW118281   6.534   5.040   0.169 -2.1159 -1.1521  0.2669
 5794SOL    HW218282   6.597   4.896   0.123 -0.4715 -0.2191 -0.5037
 5795SOL     OW18283   0.203   4.032   1.832  0.1887 -0.1445  0.3963
 5795SOL    HW118284   0.238   3.973   1.905 -0.2511 -1.2593 -0.2635
 5795SOL    HW218285   0.278   4.088   1.797  1.0902 -1.6679 -0.2145
 5796SOL     OW18286   5.361   3.442   6.713 -0.3269  0.0892 -0.6604
 5796SOL    HW118287   5.303   3.363   6.691 -1.0599  0.3871  0.1485
 5796SOL    HW218288   5.364   3.455   6.812  1.0304  0.1670 -0.7011
 5797SOL     OW18289   2.968   1.904   6.448  0.4735 -0.2610  0.0087
 5797SOL    HW118290   2.937   1.829   6.506  2.7075  0.7608  2.7872
 5797SOL    HW218291   2.919   1.988   6.473  1.0297  0.0685  0.0244
 5798SOL     OW18292   5.094   0.878   0.987  0.0451  0.5718 -0.1340
 5798SOL    HW118293   5.079   0.967   0.945  2.0728  0.2144 -1.7525
 5798SOL    HW218294   5.088   0.807   0.917  0.7926 -0.3351  0.7005
 5799SOL     OW18295   2.725   1.485   1.268  0.2691 -0.3429  0.3004
 5799SOL    HW118296   2.635   1.517   1.298 -0.6460 -2.1056 -0.3622
 5799SOL    HW218297   2.770   1.437   1.342  0.5999  0.3823  0.5777
 5800SOL     OW18298   6.487   4.047   6.008 -0.2416 -0.1453 -0.6281
 5800SOL    HW118299   6.460   3.952   5.994 -0.3049 -0.3131  0.5348
 5800SOL    HW218300   6.586   4.052   6.020 -0.4510 -0.3953  1.5995
 5801SOL     OW18301   1.804   6.519   1.122  0.3777  0.0495  0.4352
 5801SOL    HW118302   1.873   6.565   1.067  0.0745 -0.2880 -0.2428
 5801SOL    HW218303   1.744   6.587   1.165  0.3325  0.2990 -0.0252
 5802SOL     OW18304   1.939   1.118   4.347 -0.5636  0.5267 -0.6415
 5802SOL    HW118305   2.030   1.084   4.320 -0.3558  0.7247 -0.1992
 5802SOL    HW218306   1.879   1.040   4.364 -0.4417  0.3915 -0.8191
 5803SOL     OW18307   2.497   0.425   2.376  0.2148 -0.3520  0.8694
 5803SOL    HW118308   2.587   0.438   2.417 -0.0448  1.2843  0.9922
 5803SOL    HW218309   2.491   0.478   2.291 -0.0535 -1.8402 -0.0786
 5804SOL     OW18310   4.716   3.072   6.213  0.0972 -0.2942 -0.9096
 5804SOL    HW118311   4.781   3.073   6.288 -0.6311  0.8522 -0.2747
 5804SOL    HW218312   4.684   3.165   6.195 -4.6720 -1.1167  1.7344
 5805SOL     OW18313   4.366   6.918   2.804  0.0776 -0.2626  0.2362
 5805SOL    HW118314   4.327   6.944   2.715 -1.8494 -1.1177  0.7704
 5805SOL    HW218315   4.344   6.822   2.822 -1.1647  0.3787  2.4134
 5806SOL     OW18316   3.996   0.555   1.698  0.6260  0.4101  0.3379
 5806SOL    HW118317   3.962   0.551   1.604  1.4467 -3.7486  0.0626
 5806SOL    HW218318   3.918   0.557   1.762  0.0157  0.1884 -0.3854
 5807SOL     OW18319   4.588   0.673   2.595  0.6764  0.1610  0.6648
 5807SOL    HW118320   4.495   0.698   2.569  1.0801  1.8372  0.7548
 5807SOL    HW218321   4.649   0.751   2.581  2.2366 -1.1306 -0.1351
 5808SOL     OW18322   4.409   6.241   5.853  0.1647  0.0256 -0.5302
 5808SOL    HW118323   4.338   6.284   5.908  1.3213  0.9002  0.3193
 5808SOL    HW218324   4.430   6.300   5.774  1.8665  1.1869  0.7231
 5809SOL     OW18325   1.388   1.372   0.104  0.7886 -0.3112  0.1892
 5809SOL    HW118326   1.420   1.433   0.032 -0.4380  1.9704  1.4163
 5809SOL    HW218327   1.466   1.336   0.156  1.5528  1.0328  0.0169
 5810SOL     OW18328   0.231   5.803   5.052 -0.0991 -0.6466 -0.7630
 5810SOL    HW118329   0.141   5.848   5.049  0.1801  0.0712  0.7137
 5810SOL    HW218330   0.243   5.747   4.970 -1.5864 -0.1683 -1.3416
 5811SOL     OW18331   2.472   2.521   1.698 -0.4102 -0.1092  0.3491
 5811SOL    HW118332   2.458   2.593   1.766 -1.9998 -0.0377 -0.0205
 5811SOL    HW218333   2.531   2.450   1.737 -0.9230  0.1440  1.6401
 5812SOL     OW18334   4.895   4.178   0.182  0.1893  0.1969 -0.4451
 5812SOL    HW118335   4.992   4.154   0.189 -0.0007 -0.4292  0.1503
 5812SOL    HW218336   4.844   4.134   0.257 -0.5710  0.4152 -0.8250
 5813SOL     OW18337   4.974   2.597   2.489  0.2555  0.1560 -0.3874
 5813SOL    HW118338   4.878   2.622   2.502  0.2493  0.4348 -0.9368
 5813SOL    HW218339   5.020   2.668   2.434  0.3003 -0.8927 -1.7585
 5814SOL     OW18340   6.606   1.859   4.015  0.5159 -0.7323  0.4504
 5814SOL    HW118341   6.605   1.778   4.074  0.6207 -0.8216  0.3291
 5814SOL    HW218342   6.700   1.881   3.989  0.3899 -1.3789 -0.6147
 5815SOL     OW18343   6.652   3.081   0.905  0.2734  0.1724  0.4998
 5815SOL    HW118344   6.656   2.996   0.957 -2.2439  1.2536  2.6658
 5815SOL    HW218345   6.641   3.159   0.967  2.1940  2.1364 -1.4083
 5816SOL     OW18346   3.782   6.802   6.429  0.0960 -0.2226 -0.0238
 5816SOL    HW118347   3.854   6.827   6.365 -0.9668  0.4657 -0.9793
 5816SOL    HW218348   3.744   6.714   6.404  0.8897 -0.8111  0.7598
 5817SOL     OW18349   1.986   3.132   0.860 -0.0507 -0.2402  0.0082
 5817SOL    HW118350   1.999   3.231   0.855  0.4441 -0.3328 -0.7801
 5817SOL    HW218351   2.063   3.090   0.908 -0.8763 -0.1370  1.4812
 5818SOL     OW18352   5.435   1.640   0.796 -0.0617 -0.4238 -0.3447
 5818SOL    HW118353   5.445   1.541   0.803 -0.0846 -0.3396  1.2217
 5818SOL    HW218354   5.455   1.669   0.702 -2.3973 -2.1542 -1.4754
 5819SOL     OW18355   4.764   5.667   0.860  0.2757 -0.1394  0.2613
 5819SOL    HW118356   4.856   5.701   0.876  0.4350  0.3419 -1.4960
 5819SOL    HW218357   4.751   5.650   0.762 -1.4840 -0.2551  0.4804
 5820SOL     OW18358   1.589   1.316   1.841  0.0662  0.4660  0.0457
 5820SOL    HW118359   1.681   1.315   1.880 -0.1435  1.0880  0.5808
 5820SOL    HW218360   1.584   1.252   1.764  1.0141  0.6248 -0.1567
 5821SOL     OW18361   0.170   3.765   5.252  0.1701 -0.2037 -0.3724
 5821SOL    HW118362   0.226   3.686   5.276  0.3427 -0.1431 -0.5741
 5821SOL    HW218363   0.154   3.767   5.154 -0.6871 -0.5492 -0.2475
 5822SOL     OW18364   1.235   2.608   0.269 -0.5445 -0.2869  0.0094
 5822SOL    HW118365   1.228   2.524   0.323  0.5956 -0.3361  0.0954
 5822SOL    HW218366   1.331   2.627   0.248 -0.7942  0.9239 -0.1226
 5823SOL     OW18367   1.003   2.878   2.284 -0.3322  0.7945  0.5499
 5823SOL    HW118368   1.015   2.785   2.249  4.2163  1.1526  0.5686
 5823SOL    HW218369   0.994   2.941   2.207  0.9529  0.7092  0.3051
 5824SOL     OW18370   1.570   2.234   2.963 -0.2048 -0.3835 -0.1637
 5824SOL    HW118371   1.571   2.151   3.018  0.6811  0.4469  1.1427
 5824SOL    HW218372   1.661   2.251   2.926 -0.5452 -0.3574 -0.9960
 5825SOL     OW18373   5.996   4.843   0.400  0.5480 -0.2935 -0.2455
 5825SOL    HW118374   5.925   4.870   0.465  0.9698  2.0355 -0.6534
 5825SOL    HW218375   6.008   4.744   0.403 -2.1132 -0.6742  0.4219
 5826SOL     OW18376   1.161   4.783   0.762  0.3312  0.4134  0.3052
 5826SOL    HW118377   1.067   4.815   0.764  0.3943  0.7139 -1.0927
 5826SOL    HW218378   1.162   4.683   0.774 -0.0949  0.4862  1.0477
 5827SOL     OW18379   2.084   1.260   5.734 -0.1295 -0.4030  0.3790
 5827SOL    HW118380   1.990   1.243   5.706 -0.9999 -2.0788  3.6818
 5827SOL    HW218381   2.142   1.184   5.704 -0.2838 -0.4365  0.1674
 5828SOL     OW18382   0.994   2.238   1.587 -0.5218 -0.1736  0.3848
 5828SOL    HW118383   1.020   2.206   1.495 -0.4808 -0.2813  0.4336
 5828SOL    HW218384   0.922   2.307   1.579  1.0606  1.5278  0.1268
 5829SOL     OW18385   4.104   0.953   2.586 -0.2582  0.3983 -0.2156
 5829SOL    HW118386   4.104   0.904   2.673  2.9030  0.7381  0.0972
 5829SOL    HW218387   4.129   1.049   2.602  1.1412  0.2835 -1.5388
 5830SOL     OW18388   3.518   4.087   4.578  0.6420  0.6373  0.1017
 5830SOL    HW118389   3.596   4.105   4.518  0.9790  1.7528  0.8490
 5830SOL    HW218390   3.550   4.081   4.673  0.3467 -2.5165  0.1203
 5831SOL     OW18391   2.409   3.758   5.704 -0.3105 -0.1935  0.1663
 5831SOL    HW118392   2.371   3.737   5.614 -0.4595 -1.5220  0.5151
 5831SOL    HW218393   2.508   3.771   5.696 -0.2833 -0.5807 -0.1501
 5832SOL     OW18394   5.833   2.729   2.017  0.0129 -0.0911 -0.5321
 5832SOL    HW118395   5.861   2.823   1.996  2.1446 -0.6342 -0.2914
 5832SOL    HW218396   5.882   2.666   1.957 -0.8260 -1.1202 -0.1590
 5833SOL     OW18397   6.576   3.004   2.298 -0.0567 -0.3535 -0.2328
 5833SOL    HW118398   6.563   2.912   2.335  3.4153 -1.7164 -1.9921
 5833SOL    HW218399   6.626   2.999   2.212  0.7726  3.2342 -0.1215
 5834SOL     OW18400   1.103   4.414   6.056  0.2673 -0.2530 -0.1089
 5834SOL    HW118401   1.016   4.367   6.044  0.8539 -0.8693 -2.4122
 5834SOL    HW218402   1.165   4.389   5.981  1.3195  2.6132 -0.2969
 5835SOL     OW18403   3.152   1.240   2.365  0.4076  0.0503  0.5500
 5835SOL    HW118404   3.123   1.335   2.367  1.1740  0.2890  0.7364
 5835SOL    HW218405   3.101   1.190   2.295  0.0484  0.6108  0.4111
 5836SOL     OW18406   0.107   5.411   2.327  0.5445 -0.0685 -0.0192
 5836SOL    HW118407   0.102   5.329   2.270 -0.1096 -0.3683  0.4639
 5836SOL    HW218408   0.199   5.449   2.322  1.2154 -1.5248  0.7260
 5837SOL     OW18409   2.460   1.012   4.913  0.5526  0.2983  0.7704
 5837SOL    HW118410   2.381   1.033   4.970  0.7368  0.2846  1.0339
 5837SOL    HW218411   2.479   0.914   4.919 -1.1301 -0.2366 -1.5081
 5838SOL     OW18412   6.567   0.165   3.028 -0.5444 -0.2511  0.2619
 5838SOL    HW118413   6.653   0.129   2.992 -0.7552 -0.2555 -0.2579
 5838SOL    HW218414   6.576   0.263   3.044  0.6585 -0.7831  3.5595
 5839SOL     OW18415   6.798   4.542   2.836  0.1183  0.4668 -0.6237
 5839SOL    HW118416   6.738   4.564   2.912  1.6026  2.6341  0.0137
 5839SOL    HW218417   6.847   4.457   2.855  0.4756  0.9831  0.8612
 5840SOL     OW18418   5.087   0.697   6.685  0.5776  0.2174  0.0434
 5840SOL    HW118419   5.036   0.773   6.644 -0.5612 -0.0693  0.8846
 5840SOL    HW218420   5.049   0.675   6.775  1.6338 -0.5973  0.3158
 5841SOL     OW18421   4.654   5.803   6.784 -0.4389  0.5667  0.3030
 5841SOL    HW118422   4.684   5.710   6.761 -0.2049  0.0283  2.5504
 5841SOL    HW218423   4.555   5.810   6.769 -0.6746 -0.4550  1.2118
 5842SOL     OW18424   0.318   3.295   6.984  0.3840  0.1691 -0.1658
 5842SOL    HW118425   0.400   3.247   7.016  0.0593 -0.8951 -0.9090
 5842SOL    HW218426   0.306   3.279   6.886 -2.0496 -1.7355  0.3465
 5843SOL     OW18427   5.165   4.978   1.604 -0.0307 -0.2898  0.2252
 5843SOL    HW118428   5.253   4.933   1.619  1.2674  2.4732  1.8596
 5843SOL    HW218429   5.181   5.071   1.569 -2.1907  0.6456  1.5024
 5844SOL     OW18430   6.621   0.421   6.629  0.2599  0.2746  0.3436
 5844SOL    HW118431   6.532   0.445   6.589  1.3114  0.9090 -1.7476
 5844SOL    HW218432   6.661   0.503   6.670  1.7644  1.1539 -2.6352
 5845SOL     OW18433   0.663   5.444   1.201 -0.0544 -0.6548  0.2105
 5845SOL    HW118434   0.675   5.439   1.300 -2.0380 -0.9698  0.4786
 5845SOL    HW218435   0.703   5.528   1.166  0.6971 -0.5564  1.2717
 5846SOL     OW18436   2.537   3.020   6.851 -0.3747  0.2745  0.6929
 5846SOL    HW118437   2.567   3.012   6.946 -1.1176  0.6345  0.9656
 5846SOL    HW218438   2.570   3.106   6.812 -2.2948  1.4159  1.4763
 5847SOL     OW18439   3.638   0.916   3.077 -0.0639 -0.1654 -0.2712
 5847SOL    HW118440   3.577   0.925   3.156 -0.2461  0.6208 -0.4959
 5847SOL    HW218441   3.626   0.994   3.016 -1.7932 -2.0109 -2.4315
 5848SOL     OW18442   6.359   0.468   2.836  0.0946 -0.0398 -0.0543
 5848SOL    HW118443   6.328   0.455   2.742  0.8791 -0.4026 -0.2701
 5848SOL    HW218444   6.459   0.472   2.839  0.0638  0.9566  0.6434
 5849SOL     OW18445   1.134   2.707   2.814 -0.1223  0.0535  0.3066
 5849SOL    HW118446   1.097   2.798   2.833 -0.2305  0.3732 -1.2649
 5849SOL    HW218447   1.160   2.701   2.718  1.4129 -1.0596  0.7351
 5850SOL     OW18448   5.514   1.397   5.215 -0.1428 -0.0023 -0.0421
 5850SOL    HW118449   5.554   1.367   5.301  1.6683  1.3490 -0.3538
 5850SOL    HW218450   5.498   1.495   5.218  0.1469  0.1015 -1.3112
 5851SOL     OW18451   1.228   0.982   5.056 -0.3602  0.1975  0.8316
 5851SOL    HW118452   1.207   0.890   5.020  0.8339  1.1250 -2.6728
 5851SOL    HW218453   1.154   1.012   5.115 -3.3811 -1.0890 -1.9597
 5852SOL     OW18454   3.614   2.581   1.285  0.3513  0.7257  0.3469
 5852SOL    HW118455   3.660   2.616   1.204  0.8591 -2.4234 -0.8555
 5852SOL    HW218456   3.515   2.581   1.271  0.4781 -0.6982 -0.7328
 5853SOL     OW18457   5.924   6.931   5.714 -0.2255 -0.0825 -0.0574
 5853SOL    HW118458   5.871   6.855   5.752  0.4826 -0.1268  0.8884
 5853SOL    HW218459   6.018   6.925   5.747 -0.1514  1.1952  0.0077
 5854SOL     OW18460   2.843   1.257   0.777  0.0053  0.5654  0.3494
 5854SOL    HW118461   2.934   1.236   0.813 -0.2352 -4.1033 -1.0567
 5854SOL    HW218462   2.851   1.304   0.689  1.3829 -2.4138 -1.2545
 5855SOL     OW18463   2.426   0.437   6.361  0.2884  0.1289  0.1550
 5855SOL    HW118464   2.427   0.348   6.406 -2.1898  0.1724  0.4090
 5855SOL    HW218465   2.510   0.448   6.307 -0.4010 -3.4505 -1.9254
 5856SOL     OW18466   2.956   4.744   5.893 -0.2237  0.3019 -0.2848
 5856SOL    HW118467   2.926   4.754   5.988 -0.6314  1.4189 -0.5183
 5856SOL    HW218468   3.048   4.705   5.890  0.2524  1.3142  0.6145
 5857SOL     OW18469   6.460   6.988   4.724 -0.3244 -0.1162 -0.3266
 5857SOL    HW118470   6.384   6.924   4.730  0.1897 -0.5822  2.6214
 5857SOL    HW218471   6.544   6.939   4.699 -0.3732 -0.1430 -0.4426
 5858SOL     OW18472   1.696   1.097   2.268  0.4699  0.3903  0.3603
 5858SOL    HW118473   1.614   1.151   2.250  0.4989  0.0438 -0.9107
 5858SOL    HW218474   1.753   1.143   2.336 -0.1507  1.2709  0.2915
 5859SOL     OW18475   1.959   2.839   3.437 -0.0374 -0.5211 -0.4604
 5859SOL    HW118476   2.041   2.893   3.418 -0.5638  1.3987  2.1783
 5859SOL    HW218477   1.949   2.767   3.368  2.1939  1.0555 -2.5612
 5860SOL     OW18478   1.300   5.653   1.124  0.7305 -0.0280 -0.0731
 5860SOL    HW118479   1.344   5.656   1.034 -0.4134 -1.3997 -0.7250
 5860SOL    HW218480   1.346   5.585   1.181  0.9763  0.2904  0.1096
 5861SOL     OW18481   5.398   5.047   5.342  0.0441 -0.2311  0.4479
 5861SOL    HW118482   5.338   4.981   5.388 -1.3327  1.4775  1.2365
 5861SOL    HW218483   5.344   5.127   5.315  1.0833 -0.5182 -2.9092
 5862SOL     OW18484   6.490   6.301   3.533  0.2602  0.2950 -0.1056
 5862SOL    HW118485   6.435   6.296   3.450 -2.1671 -0.4071  1.4440
 5862SOL    HW218486   6.502   6.210   3.571  0.8524  0.6666  0.6398
 5863SOL     OW18487   6.987   3.507   0.653 -1.0704  0.4432 -0.0062
 5863SOL    HW118488   6.922   3.483   0.582 -1.0245 -1.0900  0.4306
 5863SOL    HW218489   7.042   3.585   0.623 -1.9250  0.6589 -1.0853
 5864SOL     OW18490   6.379   2.932   2.835 -0.0385 -0.3730  0.2557
 5864SOL    HW118491   6.329   3.017   2.855  0.8895  0.2297  0.0687
 5864SOL    HW218492   6.473   2.940   2.869  1.0962  0.0129 -2.6944
 5865SOL     OW18493   6.140   5.460   6.469 -0.2806  0.5351 -0.6136
 5865SOL    HW118494   6.099   5.421   6.387 -1.1017 -1.5012  0.6722
 5865SOL    HW218495   6.204   5.394   6.509 -0.3327  1.2342  0.6845
 5866SOL     OW18496   1.076   4.083   2.549  0.7890 -0.5504  0.2541
 5866SOL    HW118497   1.063   4.182   2.553  0.3230 -0.6279  0.6942
 5866SOL    HW218498   1.160   4.063   2.497 -0.9930 -0.0537 -3.0887
 5867SOL     OW18499   4.524   1.581   4.459 -0.3256  0.1664 -0.5350
 5867SOL    HW118500   4.472   1.650   4.510  0.2718  2.0411 -2.2874
 5867SOL    HW218501   4.483   1.569   4.368  0.2009 -1.0357 -0.6288
 5868SOL     OW18502   0.105   5.845   4.384 -0.0650  0.4296 -0.6225
 5868SOL    HW118503   0.173   5.916   4.368 -0.6969  1.5032  1.1192
 5868SOL    HW218504   0.150   5.759   4.409  0.7012  1.2874  1.1376
 5869SOL     OW18505   3.236   0.729   3.116  0.4271  0.1939  0.5092
 5869SOL    HW118506   3.255   0.632   3.129  2.0141  0.0154 -2.2957
 5869SOL    HW218507   3.189   0.743   3.029  1.7078  2.0233  0.0338
 5870SOL     OW18508   3.796   3.872   1.633  0.4186 -0.4704  0.0966
 5870SOL    HW118509   3.706   3.835   1.612  1.0174 -0.7528 -2.2957
 5870SOL    HW218510   3.860   3.797   1.652  0.7235 -0.4417 -0.7845
 5871SOL     OW18511   2.110   3.232   4.399  0.3988  0.2068 -0.5494
 5871SOL    HW118512   2.115   3.169   4.477 -1.1345 -0.5369 -1.0259
 5871SOL    HW218513   2.072   3.320   4.430  0.2334  0.0717 -0.3650
 5872SOL     OW18514   6.505   6.124   4.532 -0.1836  0.4368 -0.7655
 5872SOL    HW118515   6.573   6.158   4.597  1.2674  0.3482 -2.1848
 5872SOL    HW218516   6.533   6.147   4.439 -1.9525  0.1072 -1.4126
 5873SOL     OW18517   2.751   5.859   3.427 -0.2530 -0.4351  0.3901
 5873SOL    HW118518   2.786   5.889   3.515 -1.6487  1.2651  0.4248
 5873SOL    HW218519   2.775   5.926   3.357 -1.0283 -0.6473 -0.0979
 5874SOL     OW18520   4.481   0.053   0.482 -0.3589  1.0618  0.0983
 5874SOL    HW118521   4.530   0.040   0.395 -1.5864  2.2513 -0.8183
 5874SOL    HW218522   4.426   0.136   0.477 -1.4802  0.4471  1.5487
 5875SOL     OW18523   3.237   4.904   6.168 -0.2378 -0.2036  0.0502
 5875SOL    HW118524   3.292   4.881   6.088  1.1409 -0.4088  0.9989
 5875SOL    HW218525   3.147   4.935   6.140  0.9642  1.9740 -1.7057
 5876SOL     OW18526   0.056   1.927   5.178 -0.3695  0.1552 -0.1164
 5876SOL    HW118527   0.101   1.839   5.163 -1.1797 -0.0249 -1.6930
 5876SOL    HW218528   0.125   1.997   5.197  0.4063 -0.5307 -0.3576
 5877SOL     OW18529   0.570   5.755   6.677 -0.7647  0.6736  0.1250
 5877SOL    HW118530   0.657   5.773   6.723 -1.1416  1.9070  0.3873
 5877SOL    HW218531   0.495   5.795   6.730 -1.3614  0.7968 -0.7927
 5878SOL     OW18532   6.772   2.033   4.835 -0.1377  0.4504  0.1929
 5878SOL    HW118533   6.702   2.102   4.853 -0.4698  0.1880 -0.0746
 5878SOL    HW218534   6.730   1.953   4.794  0.2796  0.1711  0.3008
 5879SOL     OW18535   0.129   4.092   0.259  0.1662  0.1706  0.3569
 5879SOL    HW118536   0.149   4.189   0.243  0.3777  0.0976  0.1803
 5879SOL    HW218537   0.085   4.054   0.177  1.0780 -0.1573  0.0060
 5880SOL     OW18538   6.080   6.758   1.786  0.5590  0.5570 -0.3954
 5880SOL    HW118539   6.178   6.750   1.765  0.5651  0.1283 -0.1985
 5880SOL    HW218540   6.044   6.669   1.812  0.8225  1.2273  2.6448
 5881SOL     OW18541   3.759   0.154   0.207 -0.3523 -0.0486  0.0278
 5881SOL    HW118542   3.685   0.183   0.268 -0.2458  0.1702  0.0531
 5881SOL    HW218543   3.725   0.151   0.113 -0.5793 -0.6031  0.1214
 5882SOL     OW18544   1.637   5.227   0.101  0.0590 -0.2583 -0.0640
 5882SOL    HW118545   1.730   5.264   0.102 -0.4558  1.1548 -1.0955
 5882SOL    HW218546   1.615   5.188   0.191  2.0807 -1.8366 -0.1761
 5883SOL     OW18547   6.863   3.786   0.820  0.0726  0.3899  0.4382
 5883SOL    HW118548   6.815   3.793   0.733 -1.9901 -0.1680  1.4719
 5883SOL    HW218549   6.804   3.742   0.888  1.9217  0.0313  1.9177
 5884SOL     OW18550   6.226   1.988   4.874  0.0136 -0.0766 -0.3233
 5884SOL    HW118551   6.190   2.058   4.936 -1.4714 -0.5970 -0.5718
 5884SOL    HW218552   6.165   1.909   4.872  0.1855 -0.2120 -2.2155
 5885SOL     OW18553   3.055   5.014   5.312  0.0627 -1.0590  0.0656
 5885SOL    HW118554   2.998   4.992   5.391 -0.2647  0.9000  0.4178
 5885SOL    HW218555   3.006   4.988   5.228 -1.2079  0.1512  0.3831
 5886SOL     OW18556   2.383   1.414   5.457  0.4549 -0.5875  0.2352
 5886SOL    HW118557   2.435   1.417   5.372  0.4979 -0.6478  0.2592
 5886SOL    HW218558   2.375   1.320   5.489 -0.3775 -0.6771 -0.2032
 5887SOL     OW18559   3.292   6.153   1.540  0.4835 -0.2286  0.2945
 5887SOL    HW118560   3.290   6.176   1.443 -1.1445 -1.6142 -0.0568
 5887SOL    HW218561   3.219   6.203   1.587  0.5852 -0.3637  0.5966
 5888SOL     OW18562   1.328   4.316   1.483  0.5718 -0.0968  0.2219
 5888SOL    HW118563   1.276   4.326   1.398  0.5845  0.1353  0.2390
 5888SOL    HW218564   1.281   4.366   1.556  0.9699  0.3676  0.1683
 5889SOL     OW18565   3.210   5.912   6.410  0.2307 -0.4257  0.3788
 5889SOL    HW118566   3.205   5.813   6.423  1.4240 -0.6876 -0.9116
 5889SOL    HW218567   3.140   5.940   6.344 -0.0460 -0.4162  0.6736
 5890SOL     OW18568   3.401   0.345   4.276 -0.6173  0.2122  0.0950
 5890SOL    HW118569   3.345   0.396   4.210  1.1151  0.9992 -0.8299
 5890SOL    HW218570   3.496   0.374   4.268 -0.1960 -0.4299  2.2684
 5891SOL     OW18571   4.670   1.349   4.403  0.2653 -0.5416 -0.4715
 5891SOL    HW118572   4.606   1.411   4.447  0.3477 -1.3492  0.8574
 5891SOL    HW218573   4.664   1.358   4.304 -1.6959 -0.4097 -0.3614
 5892SOL     OW18574   5.558   5.553   0.268  0.8475 -0.0234 -0.4817
 5892SOL    HW118575   5.626   5.594   0.329  0.2025 -0.6273  0.6656
 5892SOL    HW218576   5.557   5.454   0.280 -0.8204  0.0377  0.1542
 5893SOL     OW18577   6.881   0.673   2.348 -0.0995 -0.2855 -0.7464
 5893SOL    HW118578   6.810   0.613   2.386  0.5016 -0.9781 -0.7021
 5893SOL    HW218579   6.863   0.687   2.250 -0.4869 -0.1747 -0.6621
 5894SOL     OW18580   0.415   3.864   0.792 -0.0068 -0.5158 -0.0101
 5894SOL    HW118581   0.386   3.771   0.767  0.4880 -0.3920 -1.1175
 5894SOL    HW218582   0.501   3.885   0.746 -0.1748  0.5365  0.1452
 5895SOL     OW18583   5.235   4.368   2.469 -0.5447 -0.6808  0.3083
 5895SOL    HW118584   5.334   4.363   2.483 -0.6107 -0.0088  1.1030
 5895SOL    HW218585   5.194   4.281   2.495 -0.3424 -0.3862  1.7042
 5896SOL     OW18586   2.674   0.924   2.778 -0.5392  0.6052  0.1753
 5896SOL    HW118587   2.773   0.935   2.767 -0.3432 -0.7313  0.4323
 5896SOL    HW218588   2.647   0.834   2.745 -1.9271  1.5385 -1.3588
 5897SOL     OW18589   3.273   0.151   5.149 -0.4062 -0.4044 -0.2613
 5897SOL    HW118590   3.351   0.191   5.101 -0.8401 -0.2142 -0.8090
 5897SOL    HW218591   3.211   0.108   5.084 -1.8091  1.2378 -0.0751
 5898SOL     OW18592   0.536   6.156   1.215  0.1931  0.7056 -0.2851
 5898SOL    HW118593   0.483   6.095   1.275 -0.7816  2.7114  0.9890
 5898SOL    HW218594   0.535   6.120   1.122 -1.5859 -0.4477  0.1339
 5899SOL     OW18595   1.490   5.152   3.383 -0.3370  0.1712 -0.4108
 5899SOL    HW118596   1.445   5.163   3.472 -0.9273 -0.7399 -0.5792
 5899SOL    HW218597   1.583   5.187   3.388 -0.7596  1.2533  0.2134
 5900SOL     OW18598   1.326   6.476   2.310  0.0904 -0.4809  0.2708
 5900SOL    HW118599   1.288   6.555   2.356 -0.1433 -0.5037  0.1181
 5900SOL    HW218600   1.264   6.398   2.320  0.3606 -0.6684  0.4949
 5901SOL     OW18601   5.495   0.456   5.090 -0.0798  0.0047 -0.2311
 5901SOL    HW118602   5.423   0.522   5.071  1.2149  0.7927 -2.8156
 5901SOL    HW218603   5.579   0.504   5.116 -0.2150 -0.8786  2.1480
 5902SOL     OW18604   0.861   3.297   1.483  0.4261  0.0204  0.5399
 5902SOL    HW118605   0.944   3.269   1.435  0.3642  1.4998 -0.4952
 5902SOL    HW218606   0.818   3.217   1.526  2.7979 -0.6610  1.8004
 5903SOL     OW18607   2.557   4.728   1.362  0.3173 -0.1165  0.6399
 5903SOL    HW118608   2.635   4.674   1.392 -0.4087 -1.7989 -0.3570
 5903SOL    HW218609   2.481   4.716   1.427  0.1368 -0.3708  0.3865
 5904SOL     OW18610   1.476   3.161   4.177  0.6043 -0.0787 -0.0030
 5904SOL    HW118611   1.482   3.067   4.143  0.1559  0.5557 -1.9851
 5904SOL    HW218612   1.473   3.224   4.099  1.4866  1.6281  1.2830
 5905SOL     OW18613   5.999   3.194   1.143 -0.0899  0.4013  0.4596
 5905SOL    HW118614   6.020   3.277   1.195  0.4674 -1.2881  3.1470
 5905SOL    HW218615   6.084   3.151   1.113 -0.3581  0.5220 -0.5172
 5906SOL     OW18616   2.897   4.663   6.148  0.5088  0.1895  0.0041
 5906SOL    HW118617   2.860   4.570   6.150  0.9914  0.0053  0.9209
 5906SOL    HW218618   2.918   4.692   6.241 -0.3927  1.5361 -0.1923
 5907SOL     OW18619   0.937   0.790   3.229 -0.3604 -0.4091  0.1308
 5907SOL    HW118620   0.838   0.797   3.234 -0.2238  1.1831  1.2435
 5907SOL    HW218621   0.971   0.854   3.160 -0.0522 -0.3245  0.3595
 5908SOL     OW18622   0.577   3.020   6.209 -0.4293 -0.5979 -0.4870
 5908SOL    HW118623   0.676   3.028   6.224 -0.3890  3.1955 -1.7403
 5908SOL    HW218624   0.528   3.047   6.292 -0.3572  0.8523 -0.9017
 5909SOL     OW18625   3.136   5.600   2.012 -0.3608  0.5242 -0.3919
 5909SOL    HW118626   3.087   5.642   1.936 -1.0040  1.1546  0.3583
 5909SOL    HW218627   3.204   5.664   2.047  0.3476  0.0120 -0.8025
 5910SOL     OW18628   1.290   5.980   0.113  0.2461 -0.1583  0.1098
 5910SOL    HW118629   1.212   5.961   0.053 -0.7686  2.1006  0.6144
 5910SOL    HW218630   1.269   5.949   0.206 -0.3307  0.9742  0.3729
 5911SOL     OW18631   5.960   2.722   4.622  0.2587 -0.1583  0.3728
 5911SOL    HW118632   6.044   2.688   4.581  0.4612  1.3799 -0.5845
 5911SOL    HW218633   5.888   2.653   4.614  1.1510 -1.1029  0.3104
 5912SOL     OW18634   5.148   5.010   4.693  0.2321 -0.0309 -0.6693
 5912SOL    HW118635   5.197   5.061   4.764  0.1051 -2.5693  1.3894
 5912SOL    HW218636   5.051   5.006   4.715  0.3293 -1.6659 -0.3798
 5913SOL     OW18637   4.226   1.077   3.861  0.3815  0.1815 -0.0712
 5913SOL    HW118638   4.314   1.122   3.848  0.6830 -0.6049 -0.7565
 5913SOL    HW218639   4.233   0.980   3.840 -0.9957  0.3730 -1.5887
 5914SOL     OW18640   6.801   4.824   5.631  0.7915 -0.1657 -0.1393
 5914SOL    HW118641   6.810   4.730   5.663  0.8883  0.0049  0.3353
 5914SOL    HW218642   6.858   4.837   5.549 -0.4066 -0.9354 -1.1318
 5915SOL     OW18643   0.997   4.859   2.074  0.1057  0.4363  0.2709
 5915SOL    HW118644   1.044   4.831   2.158  0.4757  0.3555  0.0387
 5915SOL    HW218645   1.049   4.932   2.030 -0.5472  1.1088  0.5715
 5916SOL     OW18646   0.417   4.618   4.784  0.0321  0.8577 -0.4575
 5916SOL    HW118647   0.322   4.634   4.756  0.3910 -0.5730 -2.7195
 5916SOL    HW218648   0.419   4.541   4.847 -0.2608  0.5111 -0.8629
 5917SOL     OW18649   3.037   4.574   1.720 -0.8748 -0.0779 -0.2367
 5917SOL    HW118650   3.091   4.650   1.755  0.2422 -0.4057 -1.1837
 5917SOL    HW218651   2.954   4.564   1.775 -1.0851  1.8515 -0.1446
 5918SOL     OW18652   1.181   3.936   0.272  0.2539  0.2561  0.3922
 5918SOL    HW118653   1.094   3.909   0.311  0.4102  0.7229  1.0925
 5918SOL    HW218654   1.230   3.855   0.239  0.3944 -0.2338  1.7538
 5919SOL     OW18655   0.034   1.844   2.310 -0.7749 -0.2193 -0.2258
 5919SOL    HW118656   0.134   1.845   2.312 -0.7492  0.8117 -1.1400
 5919SOL    HW218657   0.001   1.749   2.306  0.2041 -0.5201 -1.4723
 5920SOL     OW18658   2.067   0.061   0.094  0.3294 -0.4480  0.5518
 5920SOL    HW118659   1.993   0.116   0.054  0.3420 -0.6259  0.2822
 5920SOL    HW218660   2.130   0.032   0.022  0.6167 -0.3675  0.7715
 5921SOL     OW18661   1.602   3.926   3.858  0.0357  0.0656  0.4087
 5921SOL    HW118662   1.640   3.959   3.772 -1.3611 -2.1734 -1.1738
 5921SOL    HW218663   1.626   3.990   3.931  3.2893  0.8375 -1.1411
 5922SOL     OW18664   3.606   3.959   2.993  0.1847  0.5468  0.2134
 5922SOL    HW118665   3.587   3.869   2.954 -1.1675  1.2454 -0.8431
 5922SOL    HW218666   3.700   3.985   2.971  0.5085 -0.4886  0.3141
 5923SOL     OW18667   2.843   4.812   4.074 -0.1033 -0.0277 -0.4078
 5923SOL    HW118668   2.846   4.748   3.997  1.9076 -1.9984  1.1638
 5923SOL    HW218669   2.748   4.831   4.097 -0.8147 -2.5018 -0.9523
 5924SOL     OW18670   2.299   2.505   2.573  0.1725  0.0474 -0.3426
 5924SOL    HW118671   2.243   2.425   2.551  1.5674 -1.4148  1.1585
 5924SOL    HW218672   2.340   2.542   2.489  1.2238 -2.1536 -0.8663
 5925SOL     OW18673   5.691   3.928   3.023 -0.3318 -0.0632  0.1260
 5925SOL    HW118674   5.663   4.020   2.994  0.8611  0.4311  0.4799
 5925SOL    HW218675   5.729   3.878   2.945  3.6016  1.5403  0.8043
 5926SOL     OW18676   2.617   5.719   0.433  0.2371 -0.3187 -0.3085
 5926SOL    HW118677   2.576   5.788   0.374 -0.6004 -0.7927 -0.2927
 5926SOL    HW218678   2.584   5.628   0.407  0.5485 -0.6171  0.3098
 5927SOL     OW18679   0.871   3.301   2.132 -0.6540 -0.0601  0.2280
 5927SOL    HW118680   0.931   3.340   2.202  1.6214 -1.3938 -0.8639
 5927SOL    HW218681   0.810   3.372   2.097 -0.0927  1.2365  1.7772
 5928SOL     OW18682   4.453   0.878   0.992 -0.1985 -0.1971  0.7270
 5928SOL    HW118683   4.415   0.867   0.900 -1.7122 -0.9201  1.3879
 5928SOL    HW218684   4.538   0.929   0.987  0.1403 -0.8479 -1.1491
 5929SOL     OW18685   6.292   6.038   6.040  0.7815 -0.0193  0.7764
 5929SOL    HW118686   6.386   6.007   6.028  0.6368  0.0392 -0.7013
 5929SOL    HW218687   6.229   5.964   6.016  0.4494  0.5406 -0.1043
 5930SOL     OW18688   5.030   6.750   5.537 -0.1179 -0.1397  0.3497
 5930SOL    HW118689   5.066   6.670   5.585  2.8997  0.5864 -0.5421
 5930SOL    HW218690   5.065   6.752   5.443 -3.1895  0.2684 -0.9084
 5931SOL     OW18691   0.671   0.184   5.281 -0.2991 -0.1963  0.1844
 5931SOL    HW118692   0.584   0.190   5.330 -0.6486  0.0381 -0.4538
 5931SOL    HW218693   0.735   0.251   5.319 -0.0455 -1.0499  1.3233
 5932SOL     OW18694   0.693   4.822   0.186 -0.7583  0.5994  0.5567
 5932SOL    HW118695   0.713   4.887   0.113 -1.0059  1.4920  1.2705
 5932SOL    HW218696   0.599   4.788   0.176 -0.3135 -0.4143 -0.3790
 5933SOL     OW18697   1.481   6.745   0.517 -0.0107 -0.4732 -0.3904
 5933SOL    HW118698   1.521   6.716   0.604 -0.0339 -0.1396 -0.2668
 5933SOL    HW218699   1.410   6.680   0.489  0.0379 -0.6123 -0.1895
 5934SOL     OW18700   1.310   4.499   3.771 -0.0933  0.0098  0.1996
 5934SOL    HW118701   1.268   4.574   3.721  1.0129 -0.2933 -1.2526
 5934SOL    HW218702   1.312   4.417   3.714  3.5123  0.3213 -0.3796
 5935SOL     OW18703   5.056   2.302   0.221 -0.0212  0.1108  0.5576
 5935SOL    HW118704   5.112   2.280   0.300 -0.1867  0.8800  0.8953
 5935SOL    HW218705   5.086   2.247   0.143  0.4461 -0.3137  1.0265
 5936SOL     OW18706   4.442   1.481   2.482  0.4102 -0.0186 -0.4696
 5936SOL    HW118707   4.402   1.403   2.434 -2.2147 -0.6101  2.3928
 5936SOL    HW218708   4.477   1.452   2.571 -1.4169  2.0927  1.0604
 5937SOL     OW18709   1.844   2.330   2.877  0.4627 -0.7066 -0.2817
 5937SOL    HW118710   1.809   2.418   2.844  0.2556 -0.7900 -0.2861
 5937SOL    HW218711   1.939   2.319   2.848  1.0878  0.3283  1.2422
 5938SOL     OW18712   6.020   0.598   1.236 -0.5946 -0.3260  0.0638
 5938SOL    HW118713   6.120   0.595   1.227 -0.3475  1.0291  1.7701
 5938SOL    HW218714   5.988   0.691   1.217 -1.7136 -1.0066 -1.6171
 5939SOL     OW18715   6.015   3.941   0.712 -0.0708  0.2153 -0.2942
 5939SOL    HW118716   6.020   3.868   0.644 -0.4633  0.2609 -0.3723
 5939SOL    HW218717   6.106   3.955   0.752 -0.2731 -1.3597  0.8289
 5940SOL     OW18718   6.255   6.483   5.477 -0.0285 -0.1694  0.0164
 5940SOL    HW118719   6.338   6.512   5.429 -0.6928 -1.4667 -2.0601
 5940SOL    HW218720   6.279   6.446   5.566  1.8081 -1.6309 -1.0128
 5941SOL     OW18721   2.043   0.692   6.484  0.2810  1.0621  0.6518
 5941SOL    HW118722   2.003   0.636   6.556  0.9352  0.2714  0.4116
 5941SOL    HW218723   2.053   0.786   6.516 -1.5371  1.2478  0.8025
 5942SOL     OW18724   3.366   1.112   2.767 -0.3691 -0.3400  0.2082
 5942SOL    HW118725   3.375   1.097   2.669 -2.7263 -0.0057 -0.1035
 5942SOL    HW218726   3.456   1.135   2.805  0.4825  0.1341 -1.9478
 5943SOL     OW18727   5.768   5.872   1.097 -0.0674 -0.3811 -0.3845
 5943SOL    HW118728   5.823   5.889   1.179 -1.5538 -0.6672  0.7196
 5943SOL    HW218729   5.769   5.953   1.039 -3.1041  1.9462  2.4240
 5944SOL     OW18730   1.250   5.942   1.302 -0.3565  0.3061  0.3947
 5944SOL    HW118731   1.258   5.883   1.221  0.2610 -0.2660  0.8573
 5944SOL    HW218732   1.248   6.038   1.274  1.9469  0.2328 -0.2270
 5945SOL     OW18733   6.287   2.952   3.613  0.3502 -0.4595 -0.3359
 5945SOL    HW118734   6.246   2.871   3.570 -0.8991  1.0715 -2.1983
 5945SOL    HW218735   6.214   3.016   3.638  1.3472  0.3199  0.6700
 5946SOL     OW18736   5.563   5.204   2.300 -0.3578 -0.4345  0.5278
 5946SOL    HW118737   5.657   5.209   2.266 -0.0695 -1.2708  1.1484
 5946SOL    HW218738   5.502   5.254   2.239  0.2096 -1.4623 -0.9492
 5947SOL     OW18739   1.333   1.917   5.027  0.2019  0.7396  0.3557
 5947SOL    HW118740   1.239   1.895   5.056 -0.0459 -1.1556 -1.6105
 5947SOL    HW218741   1.330   1.981   4.951  0.4761  0.3161 -0.0129
 5948SOL     OW18742   5.905   2.086   4.022 -0.0548  0.1393 -0.1673
 5948SOL    HW118743   5.807   2.102   4.025 -1.0835 -4.6292  1.2603
 5948SOL    HW218744   5.934   2.068   3.927 -0.2436  2.4996 -0.7253
 5949SOL     OW18745   4.397   5.623   0.369 -0.3593 -0.4363 -0.1270
 5949SOL    HW118746   4.430   5.609   0.463  0.7090 -0.9317 -0.5685
 5949SOL    HW218747   4.473   5.652   0.311 -1.1145  0.3436 -0.7480
 5950SOL     OW18748   3.530   4.754   0.848  0.5867 -0.2664  1.4251
 5950SOL    HW118749   3.468   4.833   0.853  0.2601 -0.3210 -0.8727
 5950SOL    HW218750   3.477   4.670   0.851  0.6467 -0.3315  0.8405
 5951SOL     OW18751   3.995   0.288   5.988 -0.1985  0.2008 -0.5715
 5951SOL    HW118752   3.966   0.192   5.993 -1.3830  0.4867 -1.6243
 5951SOL    HW218753   4.072   0.302   6.051 -0.5687 -1.2255  0.2550
 5952SOL     OW18754   3.439   1.925   6.613  0.0702 -0.2105  0.7154
 5952SOL    HW118755   3.367   1.940   6.680 -0.2500 -0.6147  0.4644
 5952SOL    HW218756   3.436   1.997   6.544 -1.6022 -1.4730 -0.6120
 5953SOL     OW18757   3.242   2.829   6.301 -0.3089 -0.0697  0.0424
 5953SOL    HW118758   3.181   2.795   6.372  0.2297 -1.2426 -0.0208
 5953SOL    HW218759   3.188   2.873   6.229 -1.3266 -2.4471 -0.7944
 5954SOL     OW18760   2.167   5.842   5.452  0.3702  0.4104 -0.1535
 5954SOL    HW118761   2.141   5.822   5.357  2.9667  2.5573 -1.4476
 5954SOL    HW218762   2.158   5.940   5.469  2.4912  0.4634  0.9187
 5955SOL     OW18763   5.423   5.167   5.635  0.3817  0.1024  0.6743
 5955SOL    HW118764   5.329   5.136   5.649 -0.0929  0.4471 -1.4165
 5955SOL    HW218765   5.424   5.241   5.569  2.3678 -2.3457 -2.3477
 5956SOL     OW18766   3.300   0.680   5.252 -1.5098  0.4914  0.0294
 5956SOL    HW118767   3.249   0.698   5.167  0.5454  2.9203 -0.8017
 5956SOL    HW218768   3.378   0.621   5.232 -1.7984 -0.0729  0.5346
 5957SOL     OW18769   3.590   4.914   1.194  0.3257  0.4253 -0.2964
 5957SOL    HW118770   3.608   4.990   1.130  1.3314  1.0656  0.7015
 5957SOL    HW218771   3.660   4.844   1.182 -0.8754 -0.6136 -1.5504
 5958SOL     OW18772   5.641   2.616   4.895 -0.9673 -0.2581  0.4601
 5958SOL    HW118773   5.724   2.584   4.940 -0.8369 -0.9944 -0.2749
 5958SOL    HW218774   5.637   2.715   4.899  0.6794 -0.1041 -0.7388
 5959SOL     OW18775   6.293   6.091   1.792 -0.0129  0.4312 -0.1951
 5959SOL    HW118776   6.225   6.104   1.720  0.7319 -0.2287 -1.0572
 5959SOL    HW218777   6.253   6.112   1.881 -1.4623 -0.3275 -0.6376
 5960SOL     OW18778   5.269   5.460   1.790 -0.1618  0.4059 -0.0929
 5960SOL    HW118779   5.229   5.458   1.882  0.6431  1.2634  0.2980
 5960SOL    HW218780   5.256   5.551   1.750 -1.5979 -0.3118 -1.3591
 5961SOL     OW18781   5.137   6.124   4.676 -0.1712  0.0952  0.3452
 5961SOL    HW118782   5.142   6.160   4.582 -1.8903  0.1836  0.2640
 5961SOL    HW218783   5.199   6.045   4.684  2.7501  2.1833  0.1794
 5962SOL     OW18784   3.780   1.406   6.474 -0.7439 -0.0442 -0.2001
 5962SOL    HW118785   3.730   1.357   6.546  0.2310  0.3688  0.7905
 5962SOL    HW218786   3.779   1.504   6.495 -0.7183  0.1175 -0.9333
 5963SOL     OW18787   4.139   3.343   2.732 -0.0275  0.4278 -0.4980
 5963SOL    HW118788   4.227   3.312   2.768 -0.3884  0.5976  0.5919
 5963SOL    HW218789   4.066   3.287   2.770 -0.5703  1.7017  0.4328
 5964SOL     OW18790   3.674   5.605   1.575 -0.0765 -0.2338  0.1663
 5964SOL    HW118791   3.650   5.626   1.669  1.8297  0.4287  0.5424
 5964SOL    HW218792   3.773   5.597   1.566 -0.2445 -0.9463 -1.6628
 5965SOL     OW18793   2.588   6.560   0.459 -0.9391 -0.5749 -0.3185
 5965SOL    HW118794   2.673   6.520   0.426  1.0081  2.2337  0.9524
 5965SOL    HW218795   2.576   6.650   0.418 -2.7837 -0.4689  0.3719
 5966SOL     OW18796   0.176   3.045   1.391  0.6014 -0.7079  0.4869
 5966SOL    HW118797   0.080   3.061   1.416  0.8755 -0.3194  1.3281
 5966SOL    HW218798   0.180   2.984   1.312 -0.3167 -1.5029  1.0329
 5967SOL     OW18799   4.323   1.920   6.491  0.1956  0.3915 -0.4308
 5967SOL    HW118800   4.299   1.853   6.421 -0.3754  1.3820 -1.2092
 5967SOL    HW218801   4.242   1.974   6.515  0.1668 -0.4816  1.6339
 5968SOL     OW18802   5.842   0.641   6.111  0.3101 -0.2029 -0.0640
 5968SOL    HW118803   5.855   0.574   6.039  1.7908 -0.5441  0.4900
 5968SOL    HW218804   5.861   0.733   6.075 -1.3991 -0.0823 -0.7341
 5969SOL     OW18805   4.570   0.594   6.596  0.4608  0.1885  0.6104
 5969SOL    HW118806   4.487   0.640   6.627 -1.4817 -2.3836 -0.4377
 5969SOL    HW218807   4.616   0.552   6.675 -1.2395 -1.3422  0.8702
 5970SOL     OW18808   6.787   1.855   0.454  0.9011  0.5433 -0.2068
 5970SOL    HW118809   6.833   1.840   0.366  1.0435  0.2641 -0.0852
 5970SOL    HW218810   6.802   1.950   0.484  0.9949  0.5894 -0.3990
 5971SOL     OW18811   5.101   2.157   3.043  0.4992  0.5372  0.2953
 5971SOL    HW118812   5.146   2.239   3.008 -0.5345  1.2389  0.5784
 5971SOL    HW218813   5.003   2.161   3.024  0.5756 -1.1787 -0.7312
 5972SOL     OW18814   2.102   5.056   2.305  0.0739 -0.1871 -0.3811
 5972SOL    HW118815   2.041   5.118   2.256 -0.2276  0.2130  0.4678
 5972SOL    HW218816   2.053   5.016   2.382  1.2639  1.3412  1.2639
 5973SOL     OW18817   4.548   5.600   2.608  0.3037  0.4003  0.1002
 5973SOL    HW118818   4.506   5.571   2.694 -0.1534  0.8239  0.0294
 5973SOL    HW218819   4.519   5.539   2.535  1.1171 -0.2787  0.3325
 5974SOL     OW18820   2.656   0.874   0.846  0.2284  0.4748  0.3190
 5974SOL    HW118821   2.576   0.863   0.905 -0.9931  0.1083 -1.3265
 5974SOL    HW218822   2.641   0.949   0.783  0.5819 -0.4792 -0.9372
 5975SOL     OW18823   0.281   2.862   5.112  0.5035 -0.4373 -0.0033
 5975SOL    HW118824   0.184   2.881   5.096 -0.2662 -1.9392  2.3140
 5975SOL    HW218825   0.312   2.915   5.191  1.3431 -0.5687 -0.2435
 5976SOL     OW18826   6.739   2.852   2.587 -0.0006  0.1685  0.1299
 5976SOL    HW118827   6.738   2.789   2.665  0.9300  0.9073  0.7573
 5976SOL    HW218828   6.761   2.944   2.618 -1.5155  0.8817 -0.7522
 5977SOL     OW18829   4.785   2.484   5.287 -0.2284 -0.0790  0.0464
 5977SOL    HW118830   4.752   2.523   5.201 -0.3018  0.8199  0.4692
 5977SOL    HW218831   4.757   2.388   5.293 -2.9859  0.6659  0.4475
 5978SOL     OW18832   6.162   6.466   3.184  0.3964  0.2299  0.0615
 5978SOL    HW118833   6.120   6.381   3.154  0.4466 -0.2123  1.1897
 5978SOL    HW218834   6.212   6.508   3.108  1.5204 -1.4573 -0.1809
 5979SOL     OW18835   0.889   2.121   3.184  0.4700 -0.0332  0.1913
 5979SOL    HW118836   0.817   2.106   3.251  0.9062 -2.1341  0.2466
 5979SOL    HW218837   0.904   2.038   3.131  1.0513  1.1543 -1.6431
 5980SOL     OW18838   3.931   0.801   3.051 -0.6154  0.4800 -0.6059
 5980SOL    HW118839   3.967   0.839   2.966 -1.8672  2.3919 -0.3245
 5980SOL    HW218840   3.842   0.841   3.072  0.1457  0.9495  2.1885
 5981SOL     OW18841   6.275   2.008   0.015 -0.1779 -1.0671  0.6472
 5981SOL    HW118842   6.237   2.011   0.108 -0.1533  1.9309  0.6502
 5981SOL    HW218843   6.335   2.087   0.000 -0.4559 -1.2572 -2.0397
 5982SOL     OW18844   6.858   5.850   1.578  0.1577 -0.4399 -0.0401
 5982SOL    HW118845   6.930   5.870   1.645  0.5399  0.5505 -0.7131
 5982SOL    HW218846   6.837   5.753   1.579  1.6548 -0.7807  0.0326
 5983SOL     OW18847   6.101   6.235   4.365 -0.3463  0.2254 -0.0895
 5983SOL    HW118848   6.154   6.210   4.284  0.6598  1.6315  0.0931
 5983SOL    HW218849   6.039   6.160   4.389 -2.0395  0.4615 -3.2434
 5984SOL     OW18850   4.756   0.909   3.992  0.0942  0.4033 -0.3759
 5984SOL    HW118851   4.738   0.813   3.970 -1.7788  0.6196  0.0293
 5984SOL    HW218852   4.842   0.938   3.949  0.2754 -1.2112 -1.1767
 5985SOL     OW18853   0.213   1.864   0.247 -0.2334  0.7996  0.3758
 5985SOL    HW118854   0.160   1.792   0.291 -0.3488  0.8144  0.2635
 5985SOL    HW218855   0.301   1.828   0.217 -0.8016  0.3667 -0.8379
 5986SOL     OW18856   2.876   0.678   5.439  0.0260 -0.0899 -0.0061
 5986SOL    HW118857   2.930   0.601   5.472  0.1948  0.3058  0.6731
 5986SOL    HW218858   2.779   0.664   5.461  0.1860  0.3473  1.0355
 5987SOL     OW18859   4.626   3.381   5.255 -0.4262 -0.7666 -0.5253
 5987SOL    HW118860   4.666   3.445   5.189  0.2056 -1.4336 -0.7908
 5987SOL    HW218861   4.526   3.388   5.251 -0.3658  0.5912 -0.1657
 5988SOL     OW18862   3.861   3.454   5.173  0.0305  0.0686  0.2628
 5988SOL    HW118863   3.843   3.510   5.255 -0.1913  0.1884  0.1335
 5988SOL    HW218864   3.785   3.391   5.159 -0.9542  1.4624 -1.0216
 5989SOL     OW18865   4.189   0.359   6.758  0.4844  0.3208  0.2356
 5989SOL    HW118866   4.234   0.384   6.673 -0.6329 -0.1538 -0.5161
 5989SOL    HW218867   4.097   0.324   6.739  0.7747 -1.2858  1.4844
 5990SOL     OW18868   4.079   1.300   6.298  0.6653  0.9206 -0.2014
 5990SOL    HW118869   4.159   1.308   6.239  1.4334 -0.4349  0.5979
 5990SOL    HW218870   3.999   1.276   6.244  1.1181  0.8241 -0.8381
 5991SOL     OW18871   1.255   2.964   3.628  0.9367 -0.3358 -0.7054
 5991SOL    HW118872   1.170   2.912   3.633  1.1836 -0.6413  0.8985
 5991SOL    HW218873   1.241   3.046   3.572 -1.1345  0.8801  1.4025
 5992SOL     OW18874   3.420   4.899   3.032 -0.2927 -0.1486 -0.3160
 5992SOL    HW118875   3.517   4.877   3.046 -0.0412  1.1600  0.1311
 5992SOL    HW218876   3.408   4.940   2.942 -0.2115  0.7815  0.0808
 5993SOL     OW18877   6.792   0.639   6.720 -0.1408  0.7216  0.6031
 5993SOL    HW118878   6.803   0.738   6.711 -2.3951  1.1902  2.0418
 5993SOL    HW218879   6.865   0.602   6.778 -1.3218  2.2520  3.2639
 5994SOL     OW18880   6.540   6.296   1.262 -0.1311 -0.6790 -0.4021
 5994SOL    HW118881   6.561   6.198   1.257 -1.3922 -0.9893  0.1540
 5994SOL    HW218882   6.614   6.343   1.312  1.1516 -1.1028 -1.8195
 5995SOL     OW18883   0.391   4.959   6.148  0.0935  0.4377 -0.1914
 5995SOL    HW118884   0.435   4.872   6.166  0.0951  0.9810  2.9365
 5995SOL    HW218885   0.453   5.034   6.171 -0.4697  1.2801 -1.2860
 5996SOL     OW18886   2.693   0.215   0.397  0.6441  0.0192 -0.0331
 5996SOL    HW118887   2.642   0.211   0.483  0.1536  1.0244 -0.2565
 5996SOL    HW218888   2.760   0.289   0.402  1.6308 -0.8533  0.0010
 5997SOL     OW18889   5.549   5.809   5.439 -0.1618  0.2416 -0.0641
 5997SOL    HW118890   5.602   5.891   5.463 -0.1959 -0.2333  1.6884
 5997SOL    HW218891   5.452   5.830   5.442 -0.1640  0.2016  0.1480
 5998SOL     OW18892   6.405   4.430   3.494  0.3136 -0.5264 -0.3848
 5998SOL    HW118893   6.456   4.353   3.533  0.0274 -0.1178  0.8183
 5998SOL    HW218894   6.365   4.485   3.567 -1.6800 -0.6924 -1.2741
 5999SOL     OW18895   0.064   1.973   4.160  0.2748 -0.2635  0.1499
 5999SOL    HW118896   0.107   2.058   4.130 -0.3746 -0.4665 -1.4592
 5999SOL    HW218897   0.032   1.983   4.254  1.5917  0.7224  0.5218
 6000SOL     OW18898   3.799   1.571   3.069 -0.3448 -0.1873 -0.3556
 6000SOL    HW118899   3.708   1.536   3.044  0.6685 -1.7473 -2.1532
 6000SOL    HW218900   3.854   1.496   3.107  0.8534  0.1794 -1.2907
 6001SOL     OW18901   2.224   5.794   4.252  0.2356  0.3245 -0.3036
 6001SOL    HW118902   2.324   5.787   4.243  0.0801 -1.3784 -1.1067
 6001SOL    HW218903   2.193   5.729   4.321 -0.2954  1.1608  0.2565
 6002SOL     OW18904   3.195   4.722   0.695  0.0324  0.0595 -0.0231
 6002SOL    HW118905   3.266   4.657   0.669  0.2062 -0.9893  2.7311
 6002SOL    HW218906   3.106   4.676   0.693 -0.1724  0.4689 -0.4524
 6003SOL     OW18907   1.963   2.091   2.688 -0.3362  0.3453  0.3324
 6003SOL    HW118908   1.911   2.042   2.758  0.5960 -1.8720 -0.4645
 6003SOL    HW218909   1.976   2.186   2.718 -2.0833  0.1306  1.9843
 6004SOL     OW18910   4.541   1.749   3.812  0.5907  0.1704 -0.1138
 6004SOL    HW118911   4.499   1.694   3.884 -0.8590  0.5753 -0.6299
 6004SOL    HW218912   4.641   1.749   3.824  0.6957 -2.8882 -0.3290
 6005SOL     OW18913   0.224   4.613   6.242  0.4337 -0.0776 -0.2464
 6005SOL    HW118914   0.321   4.639   6.244  0.1620  1.1146 -1.1483
 6005SOL    HW218915   0.216   4.515   6.227  1.5097 -0.5464  1.7970
 6006SOL     OW18916   6.762   3.470   6.001  0.2340 -0.4349  0.6247
 6006SOL    HW118917   6.804   3.436   6.085 -1.1985 -3.0237  0.3972
 6006SOL    HW218918   6.821   3.450   5.923  0.4636 -0.2155  0.7392
 6007SOL     OW18919   3.069   2.215   4.312 -0.0014  0.1090 -0.7034
 6007SOL    HW118920   3.011   2.261   4.379  0.9237  0.8201 -0.3652
 6007SOL    HW218921   3.149   2.176   4.358  0.4866  0.3323 -1.3480
 6008SOL     OW18922   4.955   4.487   1.919  0.2128 -1.0275 -0.6057
 6008SOL    HW118923   4.860   4.465   1.898  0.0805 -0.2491 -0.8866
 6008SOL    HW218924   4.994   4.417   1.979  0.5030 -3.2150 -3.1572
 6009SOL     OW18925   1.428   5.573   0.860  0.3104 -0.3730 -0.1047
 6009SOL    HW118926   1.526   5.557   0.865  0.3934  0.1836  0.1492
 6009SOL    HW218927   1.382   5.489   0.832  0.9974 -0.2120 -1.7878
 6010SOL     OW18928   2.778   6.184   0.963  0.1351 -0.2211  0.0280
 6010SOL    HW118929   2.863   6.161   0.916 -0.0020  0.1730 -0.4269
 6010SOL    HW218930   2.776   6.282   0.982 -0.7016 -0.0117 -0.9886
 6011SOL     OW18931   6.586   4.895   3.363  0.1454  0.1518 -0.3379
 6011SOL    HW118932   6.570   4.967   3.431  0.4830  0.0189 -0.1176
 6011SOL    HW218933   6.524   4.909   3.285 -0.6819 -0.0592  0.2678
 6012SOL     OW18934   0.444   4.316   4.061 -0.5569 -0.6093  0.5587
 6012SOL    HW118935   0.474   4.408   4.035  0.1296 -0.5409  1.5188
 6012SOL    HW218936   0.376   4.283   3.996 -2.9157  1.6825  1.6912
 6013SOL     OW18937   1.620   0.496   3.651 -0.3007 -0.1630  0.6500
 6013SOL    HW118938   1.607   0.534   3.743 -1.2139  1.9348 -0.3010
 6013SOL    HW218939   1.542   0.519   3.594  0.1880 -1.5812 -0.6350
 6014SOL     OW18940   6.972   2.207   6.415 -0.0018 -0.1448  0.2477
 6014SOL    HW118941   6.875   2.229   6.404  0.3783  2.7051  1.6439
 6014SOL    HW218942   6.986   2.108   6.405 -3.2166 -0.8023  1.2125
 6015SOL     OW18943   2.780   0.747   6.350  0.1850 -0.2284 -0.0092
 6015SOL    HW118944   2.823   0.754   6.260  1.1893  1.3847  0.5619
 6015SOL    HW218945   2.688   0.787   6.346 -0.2396 -1.2363 -0.5831
 6016SOL     OW18946   2.019   1.899   5.199 -0.0477  0.3036  0.1732
 6016SOL    HW118947   2.111   1.873   5.169 -0.4092  0.0215 -0.7125
 6016SOL    HW218948   1.953   1.876   5.128 -1.1075 -1.5658  1.6903
 6017SOL     OW18949   2.945   2.661   1.060  0.1487  0.0166 -0.1621
 6017SOL    HW118950   3.001   2.713   1.125  0.0574  0.5385 -0.4962
 6017SOL    HW218951   2.871   2.720   1.026  0.4343 -0.1198 -1.0500
 6018SOL     OW18952   1.041   1.222   2.558 -0.2416  0.0767 -0.6793
 6018SOL    HW118953   0.965   1.283   2.579 -2.1869 -1.5090 -2.5980
 6018SOL    HW218954   1.031   1.136   2.608  2.5977  1.2115  2.1875
 6019SOL     OW18955   6.078   1.937   6.142 -0.2787 -0.1613 -0.4099
 6019SOL    HW118956   6.153   1.969   6.200 -1.8081  0.2261  1.4505
 6019SOL    HW218957   6.104   1.948   6.046  2.0092 -0.0088  0.1589
 6020SOL     OW18958   1.328   0.738   6.075 -0.1356 -0.0665  0.0056
 6020SOL    HW118959   1.313   0.787   5.989  3.1284 -1.9201 -1.8448
 6020SOL    HW218960   1.248   0.682   6.095 -1.3144  1.0389 -1.3665
 6021SOL     OW18961   4.430   0.466   2.725  0.3582 -0.3626  0.0512
 6021SOL    HW118962   4.341   0.507   2.703  0.1146 -1.2620 -0.7030
 6021SOL    HW218963   4.502   0.513   2.675  0.1978 -0.2166 -0.0434
 6022SOL     OW18964   6.905   0.759   4.360 -0.6851 -0.7144 -0.3447
 6022SOL    HW118965   6.987   0.807   4.393 -1.7647 -0.0762  1.5930
 6022SOL    HW218966   6.856   0.817   4.295 -1.6719  0.7008  1.5366
 6023SOL     OW18967   5.703   5.764   0.109  0.1081  0.6548 -0.1095
 6023SOL    HW118968   5.748   5.732   0.192 -1.5278  0.8568  0.8967
 6023SOL    HW218969   5.648   5.690   0.070  0.8088  0.5828 -0.9918
 6024SOL     OW18970   5.092   6.823   2.742  0.1109 -0.4367 -0.2825
 6024SOL    HW118971   5.137   6.746   2.696 -0.9367  0.0457 -2.2137
 6024SOL    HW218972   4.995   6.803   2.754  0.1413 -0.0518  0.6933
 6025SOL     OW18973   0.590   1.469   6.509 -0.0385 -0.1531  0.3253
 6025SOL    HW118974   0.663   1.453   6.576 -0.7591 -1.5767  0.8001
 6025SOL    HW218975   0.598   1.402   6.435  1.0224  1.6736 -1.3049
 6026SOL     OW18976   6.739   6.602   5.230 -0.9751 -0.0457  0.3661
 6026SOL    HW118977   6.824   6.626   5.278 -0.6838 -0.0672 -0.1291
 6026SOL    HW218978   6.723   6.504   5.238  0.2639 -0.4384 -1.4350
 6027SOL     OW18979   6.836   6.767   4.298 -1.2139  0.5472  0.0363
 6027SOL    HW118980   6.859   6.704   4.224  1.5337 -0.1096  1.3297
 6027SOL    HW218981   6.803   6.853   4.260  1.4523  0.7533 -2.0712
 6028SOL     OW18982   6.154   4.747   2.381  0.7504 -0.6938  1.0345
 6028SOL    HW118983   6.071   4.693   2.394  0.5374 -0.3097  1.2925
 6028SOL    HW218984   6.143   4.837   2.424 -0.1155  0.8137 -2.0221
 6029SOL     OW18985   2.832   5.632   2.125 -0.1600  0.2678  0.1838
 6029SOL    HW118986   2.888   5.646   2.043 -0.6622  0.7574 -0.0877
 6029SOL    HW218987   2.874   5.677   2.203  0.2910 -0.1492  0.1846
 6030SOL     OW18988   2.143   5.610   4.426 -0.4930  0.3143 -0.4162
 6030SOL    HW118989   2.104   5.650   4.509 -2.5984  0.4440 -1.4032
 6030SOL    HW218990   2.085   5.535   4.394  2.1725 -2.1630  0.1289
 6031SOL     OW18991   6.641   2.597   3.289 -0.7565 -0.2017  0.1249
 6031SOL    HW118992   6.546   2.620   3.268 -1.2606 -0.7891  1.6084
 6031SOL    HW218993   6.676   2.534   3.220 -0.4861  2.1156 -2.0138
 6032SOL     OW18994   6.664   3.750   4.055  0.1182  0.1429  0.4520
 6032SOL    HW118995   6.604   3.694   4.112  0.2831 -0.4327  0.0688
 6032SOL    HW218996   6.755   3.708   4.052  0.2069  0.3624  0.0601
 6033SOL     OW18997   0.032   3.903   3.322 -0.2852 -0.5210  0.4629
 6033SOL    HW118998   0.076   3.814   3.312 -2.8480 -1.6627 -1.9689
 6033SOL    HW218999  -0.067   3.893   3.308 -0.7415  2.6408  0.6976
 6034SOL     OW19000   6.899   3.623   4.118 -0.3506 -0.3985 -0.0204
 6034SOL    HW119001   6.935   3.574   4.039 -3.3273  1.1067 -2.5256
 6034SOL    HW219002   6.866   3.557   4.186  1.3972 -1.7385 -0.4253
 6035SOL     OW19003   1.208   3.301   6.848 -0.0403  0.2987 -0.4441
 6035SOL    HW119004   1.149   3.273   6.924  0.9290 -0.3040  0.0944
 6035SOL    HW219005   1.223   3.223   6.787  3.0101 -0.6030  1.2848
 6036SOL     OW19006   5.653   5.273   5.269 -0.3582  0.3094  0.0514
 6036SOL    HW119007   5.663   5.174   5.256 -1.3405  0.4013 -1.6857
 6036SOL    HW219008   5.651   5.318   5.180  1.3838  2.0762  0.8170
 6037SOL     OW19009   5.834   2.252   2.523 -0.1761  0.0024 -0.1674
 6037SOL    HW119010   5.782   2.170   2.499 -0.0014 -0.2049  0.1630
 6037SOL    HW219011   5.932   2.233   2.512 -0.0543 -0.2666  1.2002
 6038SOL     OW19012   0.607   0.057   3.457 -0.0000  0.0581  0.0687
 6038SOL    HW119013   0.630   0.154   3.464  0.6097 -0.0723 -0.0716
 6038SOL    HW219014   0.678   0.010   3.406  0.4094 -0.7167  1.3273
 6039SOL     OW19015   3.358   4.233   5.477  0.2800 -0.2751 -0.3589
 6039SOL    HW119016   3.270   4.243   5.524  0.7223  1.2075  0.1893
 6039SOL    HW219017   3.365   4.140   5.441 -1.2038 -0.6413  0.2019
 6040SOL     OW19018   5.944   5.570   6.987  0.0239  0.2602 -0.2763
 6040SOL    HW119019   5.922   5.668   6.986  0.3031  0.3312 -1.1545
 6040SOL    HW219020   5.951   5.538   6.892  2.2077 -0.0775 -0.0404
 6041SOL     OW19021   4.362   4.711   6.875  0.0364 -0.0158  0.2753
 6041SOL    HW119022   4.389   4.628   6.826 -0.6671 -0.7434  1.0966
 6041SOL    HW219023   4.274   4.743   6.840  1.0613  1.3539 -1.1828
 6042SOL     OW19024   0.961   2.721   6.896  0.1282  0.3915 -0.0690
 6042SOL    HW119025   0.935   2.808   6.855  0.1660  0.6759  0.4894
 6042SOL    HW219026   1.058   2.703   6.878  0.4609  1.1091  0.9054
 6043SOL     OW19027   3.773   1.791   4.228 -0.4847  0.2939  0.6874
 6043SOL    HW119028   3.838   1.835   4.290 -0.3974 -0.1676  0.9295
 6043SOL    HW219029   3.724   1.719   4.277  0.1073 -0.5755  0.0214
 6044SOL     OW19030   1.583   4.736   4.173 -0.3133 -0.1131 -0.3303
 6044SOL    HW119031   1.669   4.759   4.129 -0.8823 -0.0814 -1.4675
 6044SOL    HW219032   1.531   4.673   4.115 -0.6183 -0.9594  0.8051
 6045SOL     OW19033   1.787   4.360   1.317  0.5344 -0.4701  0.0543
 6045SOL    HW119034   1.804   4.265   1.346 -3.3285 -1.1737  0.5753
 6045SOL    HW219035   1.800   4.421   1.395 -0.7829 -1.1492  0.8422
 6046SOL     OW19036   6.601   2.050   0.978  0.2959 -0.0606 -0.5238
 6046SOL    HW119037   6.683   2.065   1.034  0.9889  0.2099 -1.5798
 6046SOL    HW219038   6.564   2.138   0.948 -1.8880  0.0020  1.9616
 6047SOL     OW19039   2.565   2.435   2.917 -0.1271 -0.0044  0.1856
 6047SOL    HW119040   2.546   2.455   2.821 -0.7494 -0.1371  0.2765
 6047SOL    HW219041   2.521   2.349   2.942  1.2419 -0.7160  0.2117
 6048SOL     OW19042   2.387   0.469   0.148 -0.2559 -0.6858  0.5566
 6048SOL    HW119043   2.385   0.386   0.203 -1.0861 -0.8570  0.2911
 6048SOL    HW219044   2.323   0.460   0.072  1.1739 -0.6018 -0.6773
 6049SOL     OW19045   0.531   3.899   5.720  0.0670  0.3143 -0.6465
 6049SOL    HW119046   0.616   3.853   5.694 -0.2731 -0.0453 -1.1512
 6049SOL    HW219047   0.494   3.946   5.639 -1.4137 -1.4485 -1.0560
 6050SOL     OW19048   1.890   0.599   2.978 -0.3202 -0.6694  0.4509
 6050SOL    HW119049   1.913   0.676   3.037  0.5574  0.3096 -1.0848
 6050SOL    HW219050   1.859   0.522   3.033 -1.9397  1.0012  2.0100
 6051SOL     OW19051   0.638   6.138   3.851 -0.4562  0.0600  0.3416
 6051SOL    HW119052   0.724   6.098   3.819  0.0094  0.5614  0.9123
 6051SOL    HW219053   0.625   6.228   3.809 -0.9941 -0.2572 -0.1791
 6052SOL     OW19054   3.423   6.231   6.666  0.5318 -0.4511  0.6720
 6052SOL    HW119055   3.342   6.172   6.665  1.2884 -1.5160  1.0704
 6052SOL    HW219056   3.401   6.317   6.713 -0.7789 -0.0876 -0.5196
 6053SOL     OW19057   6.229   4.280   5.560  0.2233 -0.3461 -0.4823
 6053SOL    HW119058   6.240   4.219   5.639 -0.8271  0.0276 -0.0283
 6053SOL    HW219059   6.221   4.375   5.592  3.8056  0.3941 -1.2601
 6054SOL     OW19060   1.933   3.872   6.518  0.0145  0.2107 -0.2602
 6054SOL    HW119061   1.843   3.913   6.528 -0.0215  0.1978 -0.5334
 6054SOL    HW219062   1.984   3.920   6.447  0.4825  0.6669  0.3718
 6055SOL     OW19063   6.168   1.461   3.869  0.1004  0.2412 -0.1303
 6055SOL    HW119064   6.076   1.480   3.903 -0.4309  0.2166 -1.4508
 6055SOL    HW219065   6.179   1.362   3.856  0.4886  0.2018  0.4765
 6056SOL     OW19066   6.424   6.942   3.713  0.1762 -0.5934  0.3661
 6056SOL    HW119067   6.481   6.860   3.722  0.8343 -0.2089 -0.2086
 6056SOL    HW219068   6.402   6.977   3.804  0.2932 -1.1291  0.6065
 6057SOL     OW19069   3.602   1.607   5.521 -0.8073  0.2999 -0.3804
 6057SOL    HW119070   3.555   1.565   5.444 -1.4687 -2.2811  1.2929
 6057SOL    HW219071   3.535   1.650   5.582 -0.5629  0.1549 -0.0052
 6058SOL     OW19072   4.763   1.620   2.812  0.0752  0.4493 -0.3935
 6058SOL    HW119073   4.672   1.578   2.821 -0.2753  1.2382 -0.1524
 6058SOL    HW219074   4.792   1.618   2.717  0.7599 -1.7247 -0.2143
 6059SOL     OW19075   4.543   6.449   6.028  0.7359  0.0768 -0.5772
 6059SOL    HW119076   4.464   6.387   6.033  2.2097 -1.8769 -0.2545
 6059SOL    HW219077   4.513   6.542   6.047 -1.2210 -0.8293  1.2122
 6060SOL     OW19078   6.085   6.597   6.908 -0.2857  0.0049 -0.2634
 6060SOL    HW119079   6.152   6.616   6.980  0.3556 -0.5261 -0.7063
 6060SOL    HW219080   6.111   6.645   6.825 -1.0683  0.6810 -0.1274
 6061SOL     OW19081   5.092   1.083   5.150 -0.5431 -0.2189  0.4114
 6061SOL    HW119082   5.149   1.012   5.108 -1.3988 -0.7180  0.0617
 6061SOL    HW219083   5.107   1.170   5.103 -0.4950 -0.4782 -0.0675
 6062SOL     OW19084   6.732   5.797   5.738 -0.0895 -0.2494 -0.4065
 6062SOL    HW119085   6.649   5.743   5.730 -0.2380 -0.0245 -0.3799
 6062SOL    HW219086   6.723   5.862   5.814  0.6545 -1.2013  0.5263
 6063SOL     OW19087   4.784   4.842   0.630  0.4038  0.2211 -0.1176
 6063SOL    HW119088   4.808   4.746   0.616  0.1933  0.3171 -1.1555
 6063SOL    HW219089   4.690   4.858   0.600  0.2964  0.6643  0.4423
 6064SOL     OW19090   0.059   5.431   6.370 -0.6699  0.1703  0.2598
 6064SOL    HW119091   0.022   5.455   6.281  0.3291 -0.9579 -0.4786
 6064SOL    HW219092   0.049   5.332   6.385  0.6198  0.0957  0.6999
 6065SOL     OW19093   3.993   4.782   1.735  0.3411  0.1245 -0.7808
 6065SOL    HW119094   3.910   4.729   1.720 -0.6429  0.9442  1.3173
 6065SOL    HW219095   4.050   4.735   1.802 -0.3017  1.3694  0.7102
 6066SOL     OW19096   1.935   0.736   3.448 -0.5358  0.5461  0.1722
 6066SOL    HW119097   1.969   0.771   3.536 -1.4969  1.3661  0.2300
 6066SOL    HW219098   1.877   0.805   3.405 -0.5502 -0.0826 -0.8377
 6067SOL     OW19099   5.177   2.496   0.866 -0.0193 -0.3383  0.0388
 6067SOL    HW119100   5.270   2.501   0.830 -0.3699 -1.4210 -1.1177
 6067SOL    HW219101   5.161   2.405   0.904 -0.2089  0.2528  1.4267
 6068SOL     OW19102   0.688   0.846   1.490  0.0468 -0.1352  0.0848
 6068SOL    HW119103   0.696   0.943   1.513 -1.9438 -0.1513  1.0606
 6068SOL    HW219104   0.670   0.793   1.573  2.1900 -1.5512 -0.2574
 6069SOL     OW19105   4.631   4.889   4.517 -0.6069  0.2232 -0.2541
 6069SOL    HW119106   4.553   4.917   4.461 -1.1562 -0.0525  0.3700
 6069SOL    HW219107   4.700   4.962   4.516 -1.4792  1.0757  0.3318
 6070SOL     OW19108   5.708   3.556   3.762 -0.1096 -0.4358 -0.0605
 6070SOL    HW119109   5.720   3.502   3.678  1.7109 -0.0340 -0.0900
 6070SOL    HW219110   5.637   3.625   3.746 -0.3247 -0.8524 -1.0221
 6071SOL     OW19111   6.921   0.405   5.874 -0.7244 -0.1297 -0.8120
 6071SOL    HW119112   6.880   0.375   5.961  0.8904  0.0651  0.0558
 6071SOL    HW219113   6.957   0.498   5.885  1.5363 -0.9397 -0.9484
 6072SOL     OW19114   3.033   6.122   0.730 -0.2809  0.1713  0.0179
 6072SOL    HW119115   3.072   6.197   0.678 -1.6554  0.8778 -0.0475
 6072SOL    HW219116   2.986   6.059   0.668 -1.5715  0.8009  0.3118
 6073SOL     OW19117   2.244   6.937   4.052 -0.4933 -0.1035 -0.2145
 6073SOL    HW119118   2.146   6.921   4.067 -0.7604  0.9858 -0.6878
 6073SOL    HW219119   2.257   7.029   4.014  0.5782 -0.7682 -1.5567
 6074SOL     OW19120   4.851   2.143   0.767  0.6780  0.2801 -0.3607
 6074SOL    HW119121   4.861   2.090   0.683  3.6586  1.5386 -0.9297
 6074SOL    HW219122   4.898   2.097   0.842 -0.6641 -0.0747  0.2988
 6075SOL     OW19123   1.249   0.741   3.015 -0.3869 -0.5907  0.4957
 6075SOL    HW119124   1.162   0.786   2.994  0.5370  1.2738  0.4290
 6075SOL    HW219125   1.315   0.763   2.943  0.1114 -2.1471  0.4463
 6076SOL     OW19126   6.320   2.211   4.050  0.1536  0.1773  0.0579
 6076SOL    HW119127   6.247   2.182   4.111 -0.5699  1.3447 -0.2032
 6076SOL    HW219128   6.392   2.143   4.048 -1.3699 -1.4984 -0.4184
 6077SOL     OW19129   6.169   0.153   1.561  0.3776  0.2846 -0.2797
 6077SOL    HW119130   6.095   0.198   1.611 -2.1641 -0.8248 -2.7624
 6077SOL    HW219131   6.197   0.209   1.484  0.3351 -0.4314 -0.8242
 6078SOL     OW19132   4.436   1.217   6.776 -0.0238  0.1081 -0.2381
 6078SOL    HW119133   4.398   1.242   6.865  0.9436  0.8402 -0.0154
 6078SOL    HW219134   4.469   1.299   6.729 -1.4069 -0.1206 -1.7157
 6079SOL     OW19135   1.578   0.073   3.900  0.3398  0.3663  0.1617
 6079SOL    HW119136   1.574   0.084   4.000  0.5428  1.9425  0.0192
 6079SOL    HW219137   1.489   0.094   3.860  0.3045 -0.1023 -0.0153
 6080SOL     OW19138   4.034   3.588   2.094  0.1389 -0.3575 -0.0478
 6080SOL    HW119139   4.076   3.561   2.180  1.7721  0.6624 -0.4796
 6080SOL    HW219140   4.027   3.688   2.090 -2.0180 -0.4716 -0.1700
 6081SOL     OW19141   3.471   2.526   1.603 -0.2021 -0.5510 -0.2599
 6081SOL    HW119142   3.472   2.456   1.532  0.1479 -0.3628 -0.4441
 6081SOL    HW219143   3.388   2.517   1.658 -1.4265  0.4552 -1.8569
 6082SOL     OW19144   4.294   5.137   3.751  0.0946 -0.4418  0.3324
 6082SOL    HW119145   4.212   5.084   3.773  0.5785 -0.5920  1.9245
 6082SOL    HW219146   4.308   5.207   3.822  0.2975  0.8505 -0.9401
 6083SOL     OW19147   4.974   1.349   5.065 -0.4085 -0.0329 -0.0912
 6083SOL    HW119148   4.916   1.354   5.147  0.4730  1.5193  0.4795
 6083SOL    HW219149   4.923   1.384   4.986 -1.7114 -2.7006 -0.5450
 6084SOL     OW19150   5.217   2.404   3.876 -0.0645 -0.6387 -0.2683
 6084SOL    HW119151   5.131   2.353   3.884 -0.1278 -0.6679 -1.0232
 6084SOL    HW219152   5.265   2.374   3.793 -1.3837  2.3953 -2.2912
 6085SOL     OW19153   1.706   5.535   1.170 -0.1967  0.1201 -0.0709
 6085SOL    HW119154   1.695   5.547   1.071 -0.9798 -1.0161 -0.1457
 6085SOL    HW219155   1.752   5.448   1.188  2.1360  1.3888  0.5214
 6086SOL     OW19156   6.234   2.018   0.295  0.3921  0.6983 -0.1351
 6086SOL    HW119157   6.140   2.020   0.329  0.1732 -1.7256 -0.4151
 6086SOL    HW219158   6.289   2.083   0.347 -0.8795  0.2781  1.8539
 6087SOL     OW19159   1.120   5.847   5.024 -0.6604 -0.0674  0.4051
 6087SOL    HW119160   1.062   5.816   5.099 -0.9906 -0.7726 -0.1301
 6087SOL    HW219161   1.193   5.781   5.009 -0.1462  0.4463  0.5850
 6088SOL     OW19162   1.607   6.348   2.213 -0.2770 -0.5194  0.2861
 6088SOL    HW119163   1.669   6.384   2.142  1.7456  0.1237  2.2719
 6088SOL    HW219164   1.527   6.408   2.221 -1.2105 -1.2933 -2.2493
 6089SOL     OW19165   4.241   6.142   4.594  0.4919  0.0518 -0.2373
 6089SOL    HW119166   4.230   6.094   4.506  1.0311 -0.0322 -0.2603
 6089SOL    HW219167   4.164   6.118   4.653  0.0600  0.1992 -0.7251
 6090SOL     OW19168   0.976   6.303   1.975  0.9071 -0.1509  0.5720
 6090SOL    HW119169   0.979   6.220   2.031  0.5741 -1.4304 -1.1895
 6090SOL    HW219170   1.036   6.291   1.896 -0.1580  0.7509 -0.4106
 6091SOL     OW19171   6.047   0.655   5.798  0.2396 -0.4480 -0.8259
 6091SOL    HW119172   6.005   0.571   5.833 -1.3573  0.3871 -0.6160
 6091SOL    HW219173   5.978   0.728   5.796  1.8463  1.1888  0.1126
 6092SOL     OW19174   6.175   4.575   0.102 -0.4574  0.3729 -0.5083
 6092SOL    HW119175   6.241   4.638   0.062 -1.0156  0.0504 -2.0103
 6092SOL    HW219176   6.128   4.620   0.178  1.2190  0.7160  0.3847
 6093SOL     OW19177   0.483   2.377   0.276  0.2437  0.1219 -0.3798
 6093SOL    HW119178   0.450   2.282   0.273  0.3736 -0.0007  1.2081
 6093SOL    HW219179   0.476   2.418   0.185  0.4313 -1.4894 -1.1523
 6094SOL     OW19180   0.552   3.659   6.990  0.1605 -0.4929 -0.2192
 6094SOL    HW119181   0.490   3.624   7.060  0.2190 -0.0949  0.0346
 6094SOL    HW219182   0.622   3.717   7.033 -1.6286  2.3814 -0.9302
 6095SOL     OW19183   6.899   3.732   1.672  0.3351  0.3262 -0.4931
 6095SOL    HW119184   6.940   3.795   1.737  1.2758  0.5400 -1.2735
 6095SOL    HW219185   6.900   3.773   1.580  1.3025 -0.9357 -1.0802
 6096SOL     OW19186   3.375   6.293   2.313 -0.4945  0.4780 -0.0647
 6096SOL    HW119187   3.334   6.384   2.320 -1.6419 -0.0176 -0.1200
 6096SOL    HW219188   3.358   6.242   2.397  3.0434  1.4030  1.4242
 6097SOL     OW19189   5.331   5.197   0.057 -0.0706 -0.1891  0.0063
 6097SOL    HW119190   5.424   5.233   0.062  0.0984 -0.5287 -0.5960
 6097SOL    HW219191   5.271   5.251   0.117  0.4313  0.2693  0.1047
 6098SOL     OW19192   3.859   3.278   0.223 -0.6950  0.4868 -0.0079
 6098SOL    HW119193   3.887   3.366   0.263 -0.6448  1.1985 -1.5175
 6098SOL    HW219194   3.815   3.222   0.293 -2.3335  2.4225  0.6357
 6099SOL     OW19195   2.929   0.286   5.122  0.5088 -0.1990  0.6963
 6099SOL    HW119196   2.955   0.323   5.211  0.2929 -0.7835  1.0119
 6099SOL    HW219197   2.989   0.322   5.051  0.1873  0.8777  0.9637
 6100SOL     OW19198   4.529   4.293   5.914  0.3559  0.1575 -0.3807
 6100SOL    HW119199   4.626   4.296   5.890  0.5333 -0.8957  0.1518
 6100SOL    HW219200   4.483   4.227   5.855 -0.0175  0.5440 -0.5278
 6101SOL     OW19201   3.635   1.536   4.625  0.7146 -0.2807 -0.3846
 6101SOL    HW119202   3.649   1.557   4.528 -1.6045 -1.0302 -0.9401
 6101SOL    HW219203   3.538   1.544   4.648  0.7558 -2.8807  1.1757
 6102SOL     OW19204   4.180   5.987   4.906  0.4382 -0.7052  0.3569
 6102SOL    HW119205   4.092   5.943   4.921  0.1566 -0.4188 -0.3831
 6102SOL    HW219206   4.227   5.942   4.829 -0.7188  1.4352 -1.7448
 6103SOL     OW19207   0.353   3.827   3.264  0.0129  0.2867 -0.0062
 6103SOL    HW119208   0.413   3.773   3.322 -0.5120 -1.1575 -0.7492
 6103SOL    HW219209   0.280   3.868   3.319 -1.0146 -1.8128  0.2759
 6104SOL     OW19210   3.959   1.175   5.861 -0.1943  0.1831  0.1725
 6104SOL    HW119211   4.054   1.160   5.886 -0.6085 -0.5034  1.3890
 6104SOL    HW219212   3.916   1.237   5.927  0.5330  4.3049 -2.7763
 6105SOL     OW19213   1.802   3.033   1.997  0.1844  0.4240 -1.0610
 6105SOL    HW119214   1.807   3.122   1.952  0.4152  0.6936 -0.5177
 6105SOL    HW219215   1.726   2.980   1.960 -0.1485  0.9722 -1.1594
 6106SOL     OW19216   1.262   0.962   2.323 -0.1355 -0.2015  0.0347
 6106SOL    HW119217   1.241   0.872   2.284  0.4381 -0.2388 -0.1962
 6106SOL    HW219218   1.280   0.952   2.421 -3.3643  0.1446  0.7691
 6107SOL     OW19219   1.800   3.032   5.718 -0.3902 -0.0585 -0.2549
 6107SOL    HW119220   1.749   3.046   5.803  1.5402 -0.4080  1.0444
 6107SOL    HW219221   1.793   2.937   5.690 -1.2265  0.1081 -0.6554
 6108SOL     OW19222   6.659   2.933   0.661 -0.2361 -0.1215 -0.3787
 6108SOL    HW119223   6.736   2.878   0.628 -0.0036  0.7697 -1.3565
 6108SOL    HW219224   6.692   2.998   0.729  0.6268  2.6165 -3.2039
 6109SOL     OW19225   0.861   3.174   3.215 -0.3168  0.3153 -0.0022
 6109SOL    HW119226   0.886   3.270   3.202 -1.5206  0.8280  1.1859
 6109SOL    HW219227   0.806   3.143   3.138 -1.5086  1.1854  0.4584
 6110SOL     OW19228   1.742   5.894   1.430  1.1344 -0.5071 -0.3742
 6110SOL    HW119229   1.684   5.892   1.349 -1.0637  0.9337  1.0578
 6110SOL    HW219230   1.786   5.805   1.443  0.1415 -1.2947 -2.1421
 6111SOL     OW19231   1.580   0.842   1.815 -0.3289  0.6767  0.7873
 6111SOL    HW119232   1.674   0.877   1.807 -0.0157 -0.4942 -1.5123
 6111SOL    HW219233   1.556   0.833   1.911  2.7497 -1.0316  1.5398
 6112SOL     OW19234   3.915   6.522   2.193  0.2977  0.3869  0.1248
 6112SOL    HW119235   3.936   6.596   2.256 -2.2635 -1.0855  2.9856
 6112SOL    HW219236   3.818   6.526   2.168  0.7037 -0.5185 -1.8514
 6113SOL     OW19237   6.336   3.921   0.524  0.2665  0.4748 -0.0037
 6113SOL    HW119238   6.287   4.005   0.499  0.8700  0.7535 -0.2746
 6113SOL    HW219239   6.326   3.904   0.622 -1.6745 -0.3276 -0.2992
 6114SOL     OW19240   3.825   1.330   4.427 -0.3856  0.2575  0.0393
 6114SOL    HW119241   3.804   1.407   4.367  0.6995  0.5865  0.0656
 6114SOL    HW219242   3.773   1.250   4.397  0.2163  0.3877 -1.4172
 6115SOL     OW19243   0.389   0.838   1.157 -0.4825 -0.1484  0.4229
 6115SOL    HW119244   0.444   0.867   1.078 -1.2384  0.1332 -0.0131
 6115SOL    HW219245   0.294   0.827   1.128 -0.8807  0.5393  1.4439
 6116SOL     OW19246   0.176   4.978   2.990 -0.1125 -0.1198  0.5599
 6116SOL    HW119247   0.232   5.028   3.055 -0.5219 -2.3516  2.8304
 6116SOL    HW219248   0.099   4.936   3.039 -1.9800  0.2527 -1.8852
 6117SOL     OW19249   5.157   3.004   1.852 -0.3135  0.0157 -0.4578
 6117SOL    HW119250   5.232   2.958   1.804 -1.1757 -1.8341 -0.1417
 6117SOL    HW219251   5.069   2.968   1.819 -1.0129  0.8566  0.4161
 6118SOL     OW19252   5.370   0.021   0.739 -0.3332 -0.1237 -0.2123
 6118SOL    HW119253   5.392  -0.020   0.827 -1.5435 -1.6114 -0.5727
 6118SOL    HW219254   5.455   0.049   0.693  0.2907  1.0864  1.5659
 6119SOL     OW19255   1.935   5.411   0.022 -0.4988 -0.3110  0.2930
 6119SOL    HW119256   1.850   5.426   0.074 -1.2245 -0.7695 -0.7311
 6119SOL    HW219257   1.935   5.319  -0.016 -0.6330  0.4197 -1.6199
 6120SOL     OW19258   3.814   5.864   0.912 -0.5185 -0.5228 -0.2358
 6120SOL    HW119259   3.805   5.865   1.011  0.0170  0.2647 -0.1795
 6120SOL    HW219260   3.869   5.785   0.884 -0.8867 -0.8897  0.0640
 6121SOL     OW19261   2.152   5.917   1.511 -0.3561  0.4369 -0.3348
 6121SOL    HW119262   2.140   5.912   1.412 -0.6180 -0.0888 -0.2786
 6121SOL    HW219263   2.064   5.900   1.556 -0.2993  0.9598 -0.0174
 6122SOL     OW19264   6.999   4.440   4.378  0.3719  0.1285  0.4778
 6122SOL    HW119265   6.922   4.385   4.411 -0.3806  0.3902 -0.7488
 6122SOL    HW219266   7.002   4.527   4.428 -1.9079  1.3378 -1.2670
 6123SOL     OW19267   0.047   2.059   6.025 -0.2550  0.6564  0.4832
 6123SOL    HW119268   0.131   2.037   5.976  0.1664  0.5117  1.2508
 6123SOL    HW219269   0.050   2.153   6.056 -0.1370  0.4892  0.9818
 6124SOL     OW19270   2.978   0.637   5.163 -0.0084 -0.3675 -0.2081
 6124SOL    HW119271   2.934   0.717   5.202 -1.0282 -0.6248 -0.7955
 6124SOL    HW219272   2.990   0.568   5.234  0.9865  0.3333  0.3280
 6125SOL     OW19273   3.414   0.940   6.158  0.4964  0.6828  0.2502
 6125SOL    HW119274   3.367   0.982   6.236 -3.5728  0.7769 -1.9781
 6125SOL    HW219275   3.496   0.893   6.190  0.6356  3.0789  4.0881
 6126SOL     OW19276   6.656   2.945   2.891  0.3603 -0.3413  0.0252
 6126SOL    HW119277   6.688   2.850   2.898  0.7645 -0.1054  2.1692
 6126SOL    HW219278   6.650   2.985   2.983 -0.1555  1.6101 -0.8031
 6127SOL     OW19279   1.522   1.677   1.310  0.2416 -0.2808  0.1662
 6127SOL    HW119280   1.538   1.705   1.405 -0.2892 -2.0453  0.7935
 6127SOL    HW219281   1.448   1.611   1.306  0.8558 -0.9151 -1.3856
 6128SOL     OW19282   3.681   5.240   4.301  0.3597  0.0102 -0.2537
 6128SOL    HW119283   3.650   5.277   4.389 -0.2522 -0.3125 -0.3241
 6128SOL    HW219284   3.622   5.276   4.228  0.2477 -0.4831 -0.4106
 6129SOL     OW19285   5.619   3.422   0.946  0.5545 -0.0304  0.7290
 6129SOL    HW119286   5.560   3.435   0.867  1.2858  3.3446  0.5899
 6129SOL    HW219287   5.693   3.358   0.923  0.9961  1.1832 -1.5167
 6130SOL     OW19288   6.835   1.951   6.607 -0.9547 -0.5429 -0.1003
 6130SOL    HW119289   6.884   1.954   6.520  1.0909 -1.8468  0.9503
 6130SOL    HW219290   6.821   1.856   6.635 -1.2797 -0.1528  1.1494
 6131SOL     OW19291   0.936   6.464   1.675 -0.0768 -0.4774  0.1383
 6131SOL    HW119292   0.872   6.421   1.738 -1.6974  1.8284  0.1980
 6131SOL    HW219293   0.911   6.560   1.662  2.9102  0.3257 -0.5145
 6132SOL     OW19294   1.761   5.927   0.401 -0.1626 -0.0120 -0.6509
 6132SOL    HW119295   1.852   5.952   0.434  0.2134 -0.2531 -1.4797
 6132SOL    HW219296   1.731   5.844   0.447 -0.1891  0.3442 -0.0021
 6133SOL     OW19297   3.312   0.941   1.681 -0.0880  0.4590  0.1953
 6133SOL    HW119298   3.223   0.902   1.659 -0.4693  0.3654  1.8117
 6133SOL    HW219299   3.326   1.024   1.626  0.4698 -1.4656 -2.8043
 6134SOL     OW19300   6.567   1.838   5.482 -0.0350  0.1571 -0.7674
 6134SOL    HW119301   6.614   1.752   5.458 -0.3657  0.2370 -1.7673
 6134SOL    HW219302   6.545   1.838   5.579  1.4621 -0.1624 -0.3939
 6135SOL     OW19303   5.876   5.922   4.137 -0.2613 -0.0504  0.3500
 6135SOL    HW119304   5.802   5.915   4.204  0.5791  0.6689  1.3977
 6135SOL    HW219305   5.837   5.924   4.045 -1.6576  1.6465  0.9120
 6136SOL     OW19306   0.396   2.760   1.895 -0.5854 -0.2065  0.6282
 6136SOL    HW119307   0.386   2.718   1.804 -1.4847  1.4084 -0.0611
 6136SOL    HW219308   0.475   2.821   1.895  0.2331 -1.2233  1.3821
 6137SOL     OW19309   3.902   5.150   0.181 -0.2531  0.1531 -0.4378
 6137SOL    HW119310   3.968   5.164   0.255  0.4663  1.2085 -1.2460
 6137SOL    HW219311   3.884   5.052   0.171  0.4832 -0.0846  0.3968
 6138SOL     OW19312   2.988   5.410   0.343  0.2448 -0.5070  0.1238
 6138SOL    HW119313   2.960   5.486   0.402 -3.3220 -2.0118  0.5896
 6138SOL    HW219314   2.939   5.416   0.256  2.6182 -0.4143 -1.2914
 6139SOL     OW19315   3.032   6.235   5.335 -0.0801 -0.0875 -0.2198
 6139SOL    HW119316   3.115   6.291   5.326 -0.3762  0.5515  0.8416
 6139SOL    HW219317   2.973   6.273   5.406 -0.3205 -1.7173  0.5146
 6140SOL     OW19318   1.775   5.657   3.705  0.1237  0.1721 -0.1863
 6140SOL    HW119319   1.874   5.642   3.706  0.1080 -0.0525 -1.1437
 6140SOL    HW219320   1.749   5.702   3.620 -0.7677 -0.9315 -0.5081
 6141SOL     OW19321   4.456   2.350   3.904  0.2463 -0.0590 -0.5328
 6141SOL    HW119322   4.500   2.439   3.893 -0.0911  0.1175 -0.4687
 6141SOL    HW219323   4.397   2.332   3.826  0.5509 -0.3646 -0.6936
 6142SOL     OW19324   1.956   6.878   4.052 -0.1662 -0.1578 -0.1221
 6142SOL    HW119325   1.995   6.796   4.011  1.7768  0.6501  0.0040
 6142SOL    HW219326   1.884   6.914   3.993 -0.4227 -1.4326 -0.6180
 6143SOL     OW19327   6.996   1.050   2.052 -0.5991 -0.1355 -0.5520
 6143SOL    HW119328   7.070   1.005   2.003  1.2248  1.3103  0.7179
 6143SOL    HW219329   6.911   1.000   2.037  0.8972 -2.8236 -0.8060
 6144SOL     OW19330   6.964   1.267   6.105  0.1610 -0.1194 -0.1602
 6144SOL    HW119331   6.985   1.187   6.161 -2.0659 -0.6042  0.0680
 6144SOL    HW219332   7.035   1.279   6.036  2.3109 -0.2804  1.8787
 6145SOL     OW19333   0.905   5.067   4.012  0.5707  0.1900 -0.0353
 6145SOL    HW119334   0.962   5.087   3.932  0.0103 -0.8984 -0.7259
 6145SOL    HW219335   0.926   5.132   4.084  0.8416  1.4314 -1.1848
 6146SOL     OW19336   4.667   5.140   1.830 -0.7897 -0.1994 -0.2872
 6146SOL    HW119337   4.695   5.229   1.793 -3.4519  1.1877  0.7906
 6146SOL    HW219338   4.732   5.112   1.900 -0.5084  1.5001  0.1858
 6147SOL     OW19339   1.263   3.076   4.753  0.5294  0.2477 -0.1157
 6147SOL    HW119340   1.221   2.990   4.782 -0.1308  0.1760 -1.2626
 6147SOL    HW219341   1.218   3.110   4.671  0.4571  1.9580  0.5862
 6148SOL     OW19342   1.898   2.360   4.848 -0.2928  0.0766 -0.1933
 6148SOL    HW119343   1.869   2.434   4.787 -0.8961  0.7481  0.8751
 6148SOL    HW219344   1.835   2.353   4.925  2.1302  1.5013  2.1497
 6149SOL     OW19345   4.479   4.868   2.108 -0.2560 -0.3980 -0.1871
 6149SOL    HW119346   4.448   4.881   2.014  1.4121 -1.0541 -0.8706
 6149SOL    HW219347   4.536   4.785   2.113 -0.3975 -0.4287  1.4266
 6150SOL     OW19348   4.178   1.979   4.607 -0.1016 -0.2873 -0.3829
 6150SOL    HW119349   4.160   2.077   4.598 -2.2489 -0.5695  0.1201
 6150SOL    HW219350   4.155   1.951   4.701  0.6863 -1.2371 -0.4696
 6151SOL     OW19351   1.979   0.896   2.146  0.1289  0.6247 -0.2401
 6151SOL    HW119352   1.889   0.865   2.117 -0.3411  1.9817 -0.3243
 6151SOL    HW219353   1.982   0.996   2.142  0.8973  0.7328  1.8683
 6152SOL     OW19354   2.029   4.358   4.935  0.2820 -0.3023  0.0818
 6152SOL    HW119355   1.973   4.335   4.855 -0.4503 -0.9293  0.7578
 6152SOL    HW219356   2.089   4.435   4.912 -0.1842 -0.2237 -0.9502
 6153SOL     OW19357   2.891   1.392   1.736  0.0786 -0.6869  0.5454
 6153SOL    HW119358   2.843   1.455   1.797 -0.7172 -0.3584 -0.4068
 6153SOL    HW219359   2.988   1.390   1.761  0.1477  0.9982  0.5329
 6154SOL     OW19360   4.591   1.439   0.254 -0.2877 -0.3493 -0.2309
 6154SOL    HW119361   4.498   1.465   0.232  0.1453  2.0153  0.4510
 6154SOL    HW219362   4.591   1.381   0.336 -1.2207 -1.7928 -1.2061
 6155SOL     OW19363   3.676   2.169   0.826 -0.5785  0.3876  0.3104
 6155SOL    HW119364   3.736   2.096   0.792 -1.1120 -0.8039  1.8054
 6155SOL    HW219365   3.698   2.188   0.922 -1.9645  0.5774  0.6109
 6156SOL     OW19366   0.641   6.363   4.063 -0.0945  0.2152 -0.0305
 6156SOL    HW119367   0.545   6.383   4.083  0.0701 -0.0901  1.1112
 6156SOL    HW219368   0.652   6.266   4.045 -0.1670  0.4161 -1.2764
 6157SOL     OW19369   6.553   5.146   4.751  0.3768 -0.3606  0.2712
 6157SOL    HW119370   6.546   5.245   4.739  3.5057  0.3553  2.7734
 6157SOL    HW219371   6.462   5.107   4.762 -0.9922  2.0776 -1.5282
 6158SOL     OW19372   7.003   4.507   6.667 -0.1648  0.7528  0.0916
 6158SOL    HW119373   6.910   4.529   6.635  0.0617  0.4689 -0.7835
 6158SOL    HW219374   6.997   4.459   6.754 -0.9507 -0.6659 -0.6953
 6159SOL     OW19375   4.643   4.500   3.350 -0.0287 -0.0166 -0.2088
 6159SOL    HW119376   4.649   4.598   3.335 -2.0266  0.0978 -0.4948
 6159SOL    HW219377   4.719   4.470   3.408 -0.9169  2.1430  2.2168
 6160SOL     OW19378   4.210   6.162   1.896 -0.0782 -0.0415  0.2088
 6160SOL    HW119379   4.208   6.232   1.824 -0.1223 -0.9374 -0.6787
 6160SOL    HW219380   4.119   6.153   1.936 -0.1549  0.1579  0.0821
 6161SOL     OW19381   1.011   5.631   0.012 -0.0035  0.1077  0.1511
 6161SOL    HW119382   1.090   5.622  -0.048 -1.2318 -1.7247 -1.3194
 6161SOL    HW219383   0.948   5.554  -0.004 -2.6655  2.0967  0.3742
 6162SOL     OW19384   4.850   1.975   6.482 -0.0485  0.5159  0.1079
 6162SOL    HW119385   4.852   2.072   6.460 -0.7904  0.3342 -0.8152
 6162SOL    HW219386   4.828   1.922   6.400  0.9741 -0.4912  0.4455
 6163SOL     OW19387   5.480   2.920   6.620 -0.0026 -0.1828  0.1363
 6163SOL    HW119388   5.446   2.841   6.568 -0.1440 -0.9164  1.3039
 6163SOL    HW219389   5.437   2.921   6.711  0.9690  0.5162  0.6043
 6164SOL     OW19390   1.979   6.865   6.186  0.0015  0.8683  0.1175
 6164SOL    HW119391   2.056   6.875   6.123 -0.3859  2.1406 -0.1791
 6164SOL    HW219392   1.953   6.769   6.192 -0.4333  0.7636 -2.2796
 6165SOL     OW19393   4.420   6.727   3.681  0.0095 -0.4943  0.5222
 6165SOL    HW119394   4.432   6.659   3.609  0.9009  3.1753 -3.1456
 6165SOL    HW219395   4.508   6.772   3.699 -0.8858  0.9705  1.4203
 6166SOL     OW19396   2.392   0.786   0.469  0.0946 -0.2519 -0.1402
 6166SOL    HW119397   2.321   0.849   0.439  1.6021  1.8411  0.4246
 6166SOL    HW219398   2.451   0.832   0.535  0.6368 -2.6612  1.1582
 6167SOL     OW19399   0.843   3.413   3.108  0.0182  0.4803  0.6777
 6167SOL    HW119400   0.896   3.429   3.025 -0.3647 -0.0802  0.3220
 6167SOL    HW219401   0.780   3.489   3.122 -0.6015  0.1175 -0.0782
 6168SOL     OW19402   0.022   5.469   6.959  0.6856  0.2284 -0.5664
 6168SOL    HW119403   0.111   5.424   6.952  0.2436 -0.5379 -1.6105
 6168SOL    HW219404  -0.012   5.461   7.052  0.4587 -1.9588 -0.7979
 6169SOL     OW19405   5.484   0.225   0.416 -0.3705  0.4613  0.0432
 6169SOL    HW119406   5.444   0.178   0.337  1.3512  0.4263 -0.8577
 6169SOL    HW219407   5.565   0.175   0.446  0.1201  1.5540  0.5775
 6170SOL     OW19408   6.470   3.136   2.611  0.3954 -0.0321 -0.0831
 6170SOL    HW119409   6.526   3.054   2.606  0.4161 -0.0678  0.6011
 6170SOL    HW219410   6.379   3.118   2.573 -0.0678 -0.7922  1.2933
 6171SOL     OW19411   4.266   5.155   1.127  0.0192  0.3488 -0.7638
 6171SOL    HW119412   4.348   5.146   1.184 -0.0973  0.5091 -0.5701
 6171SOL    HW219413   4.187   5.119   1.176  0.0518 -0.2303 -1.1338
 6172SOL     OW19414   4.003   6.481   0.822  0.1554 -0.1151  0.3130
 6172SOL    HW119415   3.933   6.415   0.795  0.9775 -0.9940  0.3155
 6172SOL    HW219416   3.959   6.568   0.844 -1.0605 -0.9488  1.3489
 6173SOL     OW19417   2.787   2.349   5.133  0.7309  0.2925 -0.5255
 6173SOL    HW119418   2.691   2.322   5.139 -0.0686  2.9292 -0.2866
 6173SOL    HW219419   2.798   2.416   5.061  2.2759  0.5292 -0.0940
 6174SOL     OW19420   6.056   4.542   4.936 -0.2094  0.1723  0.4564
 6174SOL    HW119421   6.003   4.490   5.004 -1.2764 -1.6845 -1.6632
 6174SOL    HW219422   6.021   4.522   4.845  0.0403  3.9000 -0.5983
 6175SOL     OW19423   0.800   6.051   3.150  0.3139  0.4222  0.5095
 6175SOL    HW119424   0.869   5.996   3.197  1.2420 -0.2798 -1.5564
 6175SOL    HW219425   0.771   6.126   3.209  1.1464 -0.5913  2.3008
 6176SOL     OW19426   1.310   6.260   2.057  0.2602 -0.3816  0.8867
 6176SOL    HW119427   1.232   6.271   1.995  1.5671  0.9848 -0.6039
 6176SOL    HW219428   1.279   6.269   2.152 -1.2214  1.3918  0.2907
 6177SOL     OW19429   4.153   2.693   6.430  0.3705 -0.2631  0.3953
 6177SOL    HW119430   4.107   2.782   6.439  0.4482 -0.0716 -0.8830
 6177SOL    HW219431   4.136   2.638   6.512  0.4845  0.9989  1.2916
 6178SOL     OW19432   1.632   6.420   6.029 -0.3220 -0.1278 -0.0301
 6178SOL    HW119433   1.696   6.492   6.057 -0.6535  0.0952  0.1478
 6178SOL    HW219434   1.681   6.333   6.024  0.3395  0.2718 -1.2414
 6179SOL     OW19435   0.212   6.978   6.635 -0.3323  0.0216  0.0219
 6179SOL    HW119436   0.275   7.017   6.702 -2.1769  0.7046  1.4312
 6179SOL    HW219437   0.221   6.879   6.635  0.0980  0.0519  0.8550
 6180SOL     OW19438   4.288   2.268   6.854  0.2293  0.2110 -0.2429
 6180SOL    HW119439   4.341   2.292   6.935  0.1457  0.4361 -0.2532
 6180SOL    HW219440   4.299   2.339   6.785 -1.3323  1.0880  0.3378
 6181SOL     OW19441   3.242   0.566   5.971 -0.0403  0.7379  0.8365
 6181SOL    HW119442   3.332   0.526   5.985 -1.0625 -1.7494  0.9467
 6181SOL    HW219443   3.184   0.545   6.050 -1.2685  0.5090 -0.0928
 6182SOL     OW19444   2.983   0.088   4.122 -0.0073  0.1373  0.2314
 6182SOL    HW119445   3.037   0.005   4.138 -1.1028 -0.9123 -1.2947
 6182SOL    HW219446   2.924   0.105   4.201 -0.8854 -1.4447 -0.0392
 6183SOL     OW19447   4.154   0.003   6.185  0.1027  0.3681  0.1509
 6183SOL    HW119448   4.211  -0.017   6.106 -0.9500 -0.5506 -0.4125
 6183SOL    HW219449   4.150   0.102   6.200 -0.4507  0.6355 -1.5499
 6184SOL     OW19450   5.566   6.364   2.954  0.4777 -0.4232 -0.3835
 6184SOL    HW119451   5.521   6.321   2.875  1.8572 -0.3173 -1.2647
 6184SOL    HW219452   5.558   6.464   2.946 -0.0437 -0.4264  0.0310
 6185SOL     OW19453   6.006   1.546   0.390  0.1038  0.2651 -0.0505
 6185SOL    HW119454   6.072   1.558   0.316  1.0979 -1.0492  0.5864
 6185SOL    HW219455   6.030   1.608   0.466  0.4937 -0.0681  0.1009
 6186SOL     OW19456   3.058   2.979   5.145 -0.3033  0.3259 -0.4362
 6186SOL    HW119457   3.129   2.986   5.214 -0.3975 -0.9026 -0.1868
 6186SOL    HW219458   2.975   3.023   5.178 -0.2187  0.1200  0.0661
 6187SOL     OW19459   1.195   0.764   1.976 -0.6685  0.3660  0.0927
 6187SOL    HW119460   1.161   0.839   1.919  1.1798  0.3543 -1.0805
 6187SOL    HW219461   1.209   0.683   1.920 -2.1343 -0.7645  1.2521
 6188SOL     OW19462   0.500   4.437   2.135 -0.0839 -0.4555 -0.3927
 6188SOL    HW119463   0.498   4.536   2.151  0.2305 -0.4885 -0.1314
 6188SOL    HW219464   0.590   4.401   2.160 -0.3291 -0.8724 -0.0883
 6189SOL     OW19465   6.945   4.894   5.418 -0.4593  0.1418 -0.1140
 6189SOL    HW119466   7.036   4.932   5.399 -0.0037 -0.6182  0.4843
 6189SOL    HW219467   6.875   4.960   5.392  0.2412  0.4767 -1.2222
 6190SOL     OW19468   1.697   2.162   1.333  0.5141  0.2068  0.4333
 6190SOL    HW119469   1.653   2.225   1.397  1.2045  0.5574  0.5693
 6190SOL    HW219470   1.740   2.087   1.383 -1.5063 -1.2111  0.2156
 6191SOL     OW19471   2.130   3.640   2.929 -0.1064  0.1257 -0.6076
 6191SOL    HW119472   2.171   3.661   3.017  0.3516  1.1892 -1.0572
 6191SOL    HW219473   2.158   3.708   2.862 -2.1986  0.6112 -1.0615
 6192SOL     OW19474   0.994   1.999   0.756 -0.2868  0.0274 -0.2612
 6192SOL    HW119475   1.024   2.091   0.780  0.8697 -0.2684 -0.4888
 6192SOL    HW219476   1.057   1.960   0.688 -1.6188 -0.3656 -1.3123
 6193SOL     OW19477   4.531   1.322   3.500  0.2814 -0.1838  0.5212
 6193SOL    HW119478   4.547   1.255   3.428  1.1837  0.5428  0.0144
 6193SOL    HW219479   4.552   1.281   3.589  2.1688 -0.2067  0.1145
 6194SOL     OW19480   0.205   1.097   3.099  0.0990 -0.7166 -0.6575
 6194SOL    HW119481   0.163   1.033   3.164  1.5185 -0.1898  0.8540
 6194SOL    HW219482   0.172   1.190   3.118  2.4827 -0.1524  1.1535
 6195SOL     OW19483   5.898   2.949   6.466 -0.2088  0.0551  0.0752
 6195SOL    HW119484   5.911   2.989   6.376  0.7371  0.6411  0.4626
 6195SOL    HW219485   5.882   2.851   6.457  2.1023 -0.3146 -0.6163
 6196SOL     OW19486   3.682   0.863   0.980 -0.2627 -0.7098 -0.1268
 6196SOL    HW119487   3.776   0.851   1.012 -0.8123 -1.3070  1.3681
 6196SOL    HW219488   3.682   0.896   0.885  1.4374 -0.5645 -0.0958
 6197SOL     OW19489   3.026   3.302   5.538 -0.3848  0.3491 -0.9033
 6197SOL    HW119490   3.039   3.383   5.596  1.7813  0.6213 -1.6668
 6197SOL    HW219491   3.026   3.220   5.594 -0.2798  0.7269 -0.3422
 6198SOL     OW19492   1.908   2.088   2.396  0.4562  0.1891 -0.2499
 6198SOL    HW119493   1.819   2.131   2.408  1.3506  2.2967 -0.6505
 6198SOL    HW219494   1.946   2.063   2.485  0.3156  1.1453  0.0869
 6199SOL     OW19495   4.205   4.777   1.121 -0.3684 -0.1492 -0.0485
 6199SOL    HW119496   4.171   4.733   1.038  1.4651  0.5835 -1.2388
 6199SOL    HW219497   4.128   4.809   1.176 -1.6161 -0.5508 -1.5061
 6200SOL     OW19498   6.692   6.772   1.336  0.2036  0.1842  0.5981
 6200SOL    HW119499   6.604   6.818   1.346 -0.4498 -1.2813  1.8498
 6200SOL    HW219500   6.677   6.679   1.303  1.1878 -0.3902  1.7032
 6201SOL     OW19501   1.383   2.748   5.969 -0.2713  0.3177 -0.7677
 6201SOL    HW119502   1.321   2.696   5.911 -0.5272  0.8029 -0.9380
 6201SOL    HW219503   1.421   2.689   6.040 -0.9293  0.0105 -0.6624
 6202SOL     OW19504   0.111   3.597   1.354  0.4491 -0.0553 -0.6661
 6202SOL    HW119505   0.100   3.505   1.317  1.8918  0.2200 -1.8717
 6202SOL    HW219506   0.193   3.639   1.316  0.9629  0.9861  1.4388
 6203SOL     OW19507   1.109   5.499   5.295 -0.5519 -0.1179  0.5110
 6203SOL    HW119508   1.057   5.454   5.367 -0.6889  1.0610  1.1682
 6203SOL    HW219509   1.066   5.586   5.272 -0.7242 -0.6395 -1.2740
 6204SOL     OW19510   3.776   0.680   6.980  0.1917  0.1976 -0.3514
 6204SOL    HW119511   3.754   0.700   6.884 -0.5204 -0.3382 -0.3161
 6204SOL    HW219512   3.713   0.609   7.014  0.5419  0.2661  0.4641
 6205SOL     OW19513   4.828   0.290   6.965 -0.8650 -0.3347  0.4163
 6205SOL    HW119514   4.807   0.362   7.031 -0.7917  0.7225 -0.6787
 6205SOL    HW219515   4.926   0.273   6.964 -1.0651 -1.7540  1.9679
 6206SOL     OW19516   4.323   2.330   1.268  0.3500  0.1469  0.2219
 6206SOL    HW119517   4.270   2.383   1.202  0.9893 -0.4894 -0.8305
 6206SOL    HW219518   4.420   2.355   1.261  0.5021 -0.3496  0.5093
 6207SOL     OW19519   4.355   2.418   3.120 -0.5799  0.2752  0.2910
 6207SOL    HW119520   4.441   2.466   3.100 -0.1290 -0.9395 -0.8869
 6207SOL    HW219521   4.323   2.372   3.037 -1.7735 -0.2193  1.0063
 6208SOL     OW19522   4.518   4.935   2.953 -0.0364 -0.5095  0.2902
 6208SOL    HW119523   4.618   4.940   2.950 -0.0740  1.0084  0.4066
 6208SOL    HW219524   4.483   5.015   3.002 -1.3443 -0.4114 -0.7452
 6209SOL     OW19525   4.319   1.553   0.008  0.1406 -0.0571  0.7837
 6209SOL    HW119526   4.304   1.605   0.092  0.6767  0.7485  0.3845
 6209SOL    HW219527   4.325   1.455   0.031  2.2852  0.2954  1.9742
 6210SOL     OW19528   1.633   5.125   1.262 -0.0954 -0.2563 -0.0679
 6210SOL    HW119529   1.681   5.105   1.348  0.3585 -3.2161 -0.8992
 6210SOL    HW219530   1.697   5.117   1.186 -0.8237  0.8616 -0.8221
 6211SOL     OW19531   2.725   6.362   6.588  0.6334  0.4329 -0.0320
 6211SOL    HW119532   2.731   6.267   6.618  3.1002  0.1759 -1.0954
 6211SOL    HW219533   2.782   6.419   6.647 -1.6627  1.5377  1.2868
 6212SOL     OW19534   6.235   3.984   4.384 -0.0160 -0.1502  0.0682
 6212SOL    HW119535   6.287   3.927   4.320  1.9118  1.9124 -0.3237
 6212SOL    HW219536   6.298   4.039   4.438 -1.7729  1.4527  0.5691
 6213SOL     OW19537   1.613   2.232   2.077 -0.3786 -0.3599  0.1256
 6213SOL    HW119538   1.698   2.273   2.110 -0.9355 -0.1139  1.3206
 6213SOL    HW219539   1.578   2.168   2.146 -1.8433  0.5313  0.2472
 6214SOL     OW19540   2.703   4.856   0.231 -0.3118  0.1498 -0.7549
 6214SOL    HW119541   2.661   4.895   0.149  0.0378 -1.0125 -1.5155
 6214SOL    HW219542   2.800   4.840   0.214 -0.4845 -1.2538 -0.5922
 6215SOL     OW19543   4.664   2.592   2.703 -0.5504 -0.4874 -0.4418
 6215SOL    HW119544   4.574   2.563   2.736 -1.2285  0.8564 -1.0563
 6215SOL    HW219545   4.658   2.621   2.608  0.4037  0.2240 -0.3040
 6216SOL     OW19546   6.826   4.928   1.642  0.9708  0.0389  0.0750
 6216SOL    HW119547   6.726   4.930   1.641  0.9302 -1.0599 -0.0414
 6216SOL    HW219548   6.857   4.859   1.576  1.7168 -1.3292  1.7803
 6217SOL     OW19549   3.871   3.472   1.891  0.2127  0.2299  1.0405
 6217SOL    HW119550   3.931   3.487   1.969  0.8802 -0.5260  0.6933
 6217SOL    HW219551   3.916   3.503   1.808 -0.7187  1.5529  0.9970
 6218SOL     OW19552   0.153   2.468   5.494 -0.3990 -0.4276 -0.1962
 6218SOL    HW119553   0.224   2.487   5.563  0.9803 -1.8427 -1.1587
 6218SOL    HW219554   0.176   2.514   5.409  0.0233 -1.8547 -0.8744
 6219SOL     OW19555   0.465   2.771   6.909 -0.0806 -0.4457 -0.4722
 6219SOL    HW119556   0.505   2.692   6.863 -0.0840 -0.5671 -0.2661
 6219SOL    HW219557   0.538   2.834   6.936 -0.2233  0.8452 -2.8554
 6220SOL     OW19558   6.868   4.736   5.932 -0.0044 -0.5003 -0.3155
 6220SOL    HW119559   6.855   4.825   5.888 -0.3869  0.5946  1.9012
 6220SOL    HW219560   6.946   4.740   5.994 -0.5948 -1.4092  0.5212
 6221SOL     OW19561   2.669   6.278   2.074  0.2999 -0.7093 -0.2789
 6221SOL    HW119562   2.615   6.311   1.997  0.1273 -0.4857 -0.0654
 6221SOL    HW219563   2.732   6.207   2.043  0.5941 -0.2563 -0.7150
 6222SOL     OW19564   1.033   0.386   6.329 -0.4893  0.1020 -0.4001
 6222SOL    HW119565   0.991   0.383   6.420 -1.3273  2.8590 -0.5905
 6222SOL    HW219566   1.130   0.363   6.336 -0.5471  0.2464  1.1962
 6223SOL     OW19567   2.551   1.335   3.768 -0.7452 -0.0598  0.3545
 6223SOL    HW119568   2.646   1.349   3.792 -0.6759  1.5538 -0.7044
 6223SOL    HW219569   2.545   1.292   3.678 -1.0240 -0.6905  0.6673
 6224SOL     OW19570   5.759   5.598   4.650  0.0614 -0.4633 -0.7419
 6224SOL    HW119571   5.679   5.566   4.597 -0.7239  0.7953 -0.3517
 6224SOL    HW219572   5.833   5.620   4.587 -1.3360  2.4156 -1.5648
 6225SOL     OW19573   2.453   6.824   4.924 -0.2709  0.7865  0.3725
 6225SOL    HW119574   2.414   6.817   4.832 -0.3579  0.6226  0.4210
 6225SOL    HW219575   2.552   6.807   4.919 -0.3425  0.3598  0.3662
 6226SOL     OW19576   3.530   6.220   4.427 -0.7843  0.1944  0.3412
 6226SOL    HW119577   3.548   6.190   4.333  0.5822  0.8060  0.3814
 6226SOL    HW219578   3.546   6.319   4.434 -2.9583  0.5713  0.7383
 6227SOL     OW19579   3.565   3.696   2.869  1.0737 -0.3678 -0.6734
 6227SOL    HW119580   3.568   3.610   2.920  2.3979  0.2894  0.4361
 6227SOL    HW219581   3.630   3.692   2.793 -0.2596 -1.0159 -1.8421
 6228SOL     OW19582   2.820   2.066   5.295 -0.4306 -0.2242 -0.3575
 6228SOL    HW119583   2.819   2.032   5.389 -0.1318  0.2192 -0.1928
 6228SOL    HW219584   2.733   2.043   5.250 -0.6049 -0.3623  0.0520
 6229SOL     OW19585   0.866   0.003   5.295  0.3907 -0.2771 -0.0292
 6229SOL    HW119586   0.916   0.013   5.210 -0.0029 -0.6459 -0.3129
 6229SOL    HW219587   0.787   0.065   5.296  0.7472  0.1785  0.3410
 6230SOL     OW19588   5.835   2.583   5.092  0.4090  0.4539  0.3500
 6230SOL    HW119589   5.868   2.550   5.181  0.1875 -0.3038  0.1659
 6230SOL    HW219590   5.806   2.678   5.100  0.2581  0.3498  1.1336
 6231SOL     OW19591   2.939   1.416   4.152 -0.2812 -0.3404  0.6152
 6231SOL    HW119592   2.938   1.326   4.197 -0.6815  0.0472  1.4045
 6231SOL    HW219593   2.845   1.450   4.144 -0.2202 -0.3894 -0.5303
 6232SOL     OW19594   6.058   3.922   3.951  0.4525 -0.4018  0.3893
 6232SOL    HW119595   6.107   4.009   3.958 -1.6189  0.9562 -0.9459
 6232SOL    HW219596   5.960   3.938   3.963  0.0031 -2.5467 -0.0128
 6233SOL     OW19597   5.942   3.966   3.273 -0.1551  0.2261  0.4242
 6233SOL    HW119598   6.033   4.003   3.253 -0.7162  1.2398 -0.3174
 6233SOL    HW219599   5.934   3.873   3.237  0.6538  0.0448  0.6951
 6234SOL     OW19600   0.831   2.092   4.199 -0.2310  0.1187  0.1700
 6234SOL    HW119601   0.736   2.061   4.205  0.1108 -1.6191 -1.9200
 6234SOL    HW219602   0.866   2.073   4.107  2.4751 -0.2171  1.1866
 6235SOL     OW19603   1.494   5.449   2.877  0.3073  0.0447  0.8843
 6235SOL    HW119604   1.548   5.499   2.810  2.0127 -0.0707  2.0971
 6235SOL    HW219605   1.493   5.352   2.852 -2.8264  0.5138 -1.3508
 6236SOL     OW19606   1.744   1.557   5.120 -0.0939  0.0329  0.3016
 6236SOL    HW119607   1.823   1.567   5.180 -0.8883  1.1762  1.2059
 6236SOL    HW219608   1.690   1.641   5.122 -0.2883  0.0247 -1.8427
 6237SOL     OW19609   3.383   3.323   3.784  0.1859 -0.1556  0.2381
 6237SOL    HW119610   3.349   3.362   3.870  0.3446  0.2607  0.1139
 6237SOL    HW219611   3.432   3.393   3.733 -1.5650  0.1844 -1.0968
 6238SOL     OW19612   1.629   6.723   1.886  0.5853  0.5267  0.1748
 6238SOL    HW119613   1.557   6.698   1.951 -0.4403  1.9336 -0.3672
 6238SOL    HW219614   1.618   6.670   1.802 -0.3594  1.3315 -0.2252
 6239SOL     OW19615   6.147   4.485   6.740  0.5082  0.5485 -0.6793
 6239SOL    HW119616   6.160   4.391   6.707 -1.8855 -0.3712  0.6992
 6239SOL    HW219617   6.177   4.550   6.671  2.7690 -1.1925 -1.4608
 6240SOL     OW19618   3.937   0.911   1.548  0.2851 -0.6569 -0.0672
 6240SOL    HW119619   3.917   1.007   1.526 -0.3115  0.2395  3.5759
 6240SOL    HW219620   3.852   0.860   1.553  0.1680 -0.3496  1.7407
 6241SOL     OW19621   0.997   0.030   5.993  0.3012  0.2183 -0.4851
 6241SOL    HW119622   1.086   0.044   5.949  0.0601 -0.4000 -1.1831
 6241SOL    HW219623   0.928   0.086   5.947  0.4853  1.4484  0.6645
 6242SOL     OW19624   4.858   3.990   2.618  0.4956  0.3970 -0.1169
 6242SOL    HW119625   4.887   3.935   2.539 -1.6659  0.0589 -0.7271
 6242SOL    HW219626   4.786   4.053   2.589  0.6952  1.3042  1.2971
 6243SOL     OW19627   3.112   0.472   4.998  0.0195 -0.1268 -0.5258
 6243SOL    HW119628   3.038   0.529   5.033 -1.1967 -3.0358  2.1459
 6243SOL    HW219629   3.193   0.483   5.056  0.9911  1.3573 -2.0879
 6244SOL     OW19630   0.228   6.959   1.824 -0.2294 -0.1354 -0.1995
 6244SOL    HW119631   0.170   7.038   1.803 -0.3910 -0.6027 -1.6699
 6244SOL    HW219632   0.323   6.989   1.833 -0.5284  0.4813  1.1750
 6245SOL     OW19633   0.978   5.229   4.200  0.2221  0.0190  0.1116
 6245SOL    HW119634   1.042   5.297   4.163 -1.9574  1.6468 -0.9430
 6245SOL    HW219635   1.016   5.188   4.282  2.5513  0.9510 -0.4271
 6246SOL     OW19636   6.865   5.172   1.409 -0.1387 -0.3150  0.0970
 6246SOL    HW119637   6.823   5.190   1.498 -0.6749 -1.0800  0.0112
 6246SOL    HW219638   6.859   5.074   1.389  0.7680 -0.2810 -0.3886
 6247SOL     OW19639   5.953   1.280   0.449  0.4883  0.4728  0.2954
 6247SOL    HW119640   5.977   1.220   0.373  0.7268  0.0350  0.7139
 6247SOL    HW219641   5.960   1.375   0.419  1.4832  0.3297  0.0285
 6248SOL     OW19642   3.139   0.678   2.579  0.2951 -0.0959  0.1770
 6248SOL    HW119643   3.091   0.726   2.506 -1.6568 -0.3841  1.1985
 6248SOL    HW219644   3.162   0.586   2.549  0.7612  0.2461 -0.5358
 6249SOL     OW19645   0.091   0.194   1.821 -0.5100 -0.0377  0.1080
 6249SOL    HW119646   0.019   0.182   1.753  1.5506 -0.6070 -2.1187
 6249SOL    HW219647   0.159   0.259   1.786 -1.1051  2.5288  3.2167
 6250SOL     OW19648   6.971   6.848   4.879  0.2027 -0.4525  0.1055
 6250SOL    HW119649   7.035   6.774   4.895  0.8317 -0.0084 -0.2796
 6250SOL    HW219650   6.967   6.868   4.781  0.7788  0.6461  0.2848
 6251SOL     OW19651   6.882   4.025   5.244  0.1464 -0.4358  0.0538
 6251SOL    HW119652   6.806   3.964   5.223  0.2900 -0.7509  0.4378
 6251SOL    HW219653   6.863   4.076   5.329  0.8416 -1.3489  0.7797
 6252SOL     OW19654   3.341   3.310   5.227 -0.5845  0.0084 -0.0874
 6252SOL    HW119655   3.354   3.296   5.128  0.2541 -0.6706  0.1047
 6252SOL    HW219656   3.350   3.407   5.248  0.3383  0.0357 -0.5423
 6253SOL     OW19657   4.449   0.761   6.014  0.9457  0.4637 -0.8199
 6253SOL    HW119658   4.446   0.806   6.104 -1.0837 -0.6494 -0.2579
 6253SOL    HW219659   4.467   0.830   5.944 -0.9269  2.0276  0.1194
 6254SOL     OW19660   5.864   1.270   3.917  0.4676 -0.2514  0.0826
 6254SOL    HW119661   5.944   1.226   3.875 -0.5042 -1.9434 -0.0875
 6254SOL    HW219662   5.875   1.370   3.913  1.2652 -0.3695 -2.5520
 6255SOL     OW19663   1.554   6.666   0.779  0.3371  0.2167  0.3508
 6255SOL    HW119664   1.613   6.722   0.836 -0.5134  0.8076  0.6758
 6255SOL    HW219665   1.466   6.653   0.825  0.8107 -2.1434  0.6766
 6256SOL     OW19666   1.851   3.024   2.832 -0.6569 -0.0523  0.3648
 6256SOL    HW119667   1.811   3.073   2.910 -0.2252 -0.3902  0.8090
 6256SOL    HW219668   1.892   3.089   2.769 -0.4128  0.1840  0.7653
 6257SOL     OW19669   1.340   0.719   0.702  0.5234  0.3892 -0.3880
 6257SOL    HW119670   1.330   0.716   0.802  0.4987 -0.3206 -0.4075
 6257SOL    HW219671   1.434   0.741   0.678  0.4823  0.7737 -0.2133
 6258SOL     OW19672   1.434   0.114   0.606  0.5306  0.8909 -0.7599
 6258SOL    HW119673   1.450   0.068   0.693 -2.8838  0.8748 -0.0015
 6258SOL    HW219674   1.438   0.213   0.620  3.2654  0.9618 -1.4102
 6259SOL     OW19675   2.209   0.902   0.310  0.6573 -0.0446 -0.3325
 6259SOL    HW119676   2.120   0.946   0.316 -0.5737 -2.4203 -0.0396
 6259SOL    HW219677   2.237   0.895   0.214  1.7954  2.9119 -0.3232
 6260SOL     OW19678   5.910   2.933   4.442 -0.1669  0.2409 -0.2579
 6260SOL    HW119679   5.935   2.874   4.366 -0.8994  1.2825 -1.3440
 6260SOL    HW219680   5.904   2.879   4.526 -0.5504 -1.1591 -1.1580
 6261SOL     OW19681   2.073   3.876   3.783 -0.1742 -0.2421 -0.1572
 6261SOL    HW119682   2.124   3.912   3.861 -1.3745 -0.3011  0.6817
 6261SOL    HW219683   2.114   3.908   3.698  1.3280 -0.4039  0.4860
 6262SOL     OW19684   1.508   1.259   2.129  0.0581 -0.0637 -0.5001
 6262SOL    HW119685   1.445   1.181   2.124  0.1989 -0.1754 -0.5561
 6262SOL    HW219686   1.506   1.308   2.042  1.7908 -1.4446 -1.3929
 6263SOL     OW19687   0.988   2.175   0.413 -0.0682 -0.1772 -0.3244
 6263SOL    HW119688   1.054   2.116   0.460 -0.6966  0.1456  1.0008
 6263SOL    HW219689   0.923   2.213   0.479 -0.9688  0.3288 -1.4565
 6264SOL     OW19690   4.356   4.425   5.709  0.2155  0.1182 -0.0300
 6264SOL    HW119691   4.418   4.384   5.776 -1.4257  0.4594  1.7760
 6264SOL    HW219692   4.381   4.521   5.697 -0.0411  0.3146  0.8659
 6265SOL     OW19693   0.814   0.967   0.917  0.1485  0.4394  0.0647
 6265SOL    HW119694   0.814   1.037   0.847  1.2059  0.5451  0.1471
 6265SOL    HW219695   0.868   0.889   0.886 -1.7971 -0.7798 -0.4197
 6266SOL     OW19696   4.965   1.066   3.886 -0.1349 -0.0397 -0.1609
 6266SOL    HW119697   4.952   1.115   3.800 -0.9295  0.3519  0.1759
 6266SOL    HW219698   4.995   1.130   3.956  1.3988 -0.5153 -0.3471
 6267SOL     OW19699   0.861   5.430   6.633  0.1082  0.0724  0.0317
 6267SOL    HW119700   0.845   5.375   6.551  2.1699 -0.8068  0.1624
 6267SOL    HW219701   0.922   5.506   6.611  1.2047 -0.5468  0.8554
 6268SOL     OW19702   1.923   4.950   5.382 -0.5644  0.6062 -0.5941
 6268SOL    HW119703   1.918   5.003   5.466 -1.5535 -1.4439  0.7356
 6268SOL    HW219704   1.930   4.852   5.404  1.6367  0.1197 -2.8992
 6269SOL     OW19705   2.776   3.997   0.921  0.3726  0.1685  0.1211
 6269SOL    HW119706   2.684   3.979   0.958 -0.0727  1.0771 -0.5068
 6269SOL    HW219707   2.832   3.915   0.931  0.5102  0.5420  3.4619
 6270SOL     OW19708   4.089   0.564   3.386  0.6259 -0.2051  0.5212
 6270SOL    HW119709   4.149   0.586   3.309 -2.5254  1.3756 -1.7108
 6270SOL    HW219710   4.101   0.633   3.458  1.8296 -0.2341  0.3667
 6271SOL     OW19711   5.099   5.156   4.396  0.7328  0.0506  0.1473
 6271SOL    HW119712   5.053   5.239   4.427 -0.2544 -0.9951  1.6646
 6271SOL    HW219713   5.100   5.089   4.471  0.7846 -1.5958 -1.2658
 6272SOL     OW19714   6.071   6.586   6.494 -0.1727 -0.3623  0.4913
 6272SOL    HW119715   6.098   6.491   6.475 -0.3331 -0.3196  0.0392
 6272SOL    HW219716   5.973   6.597   6.477 -0.0776 -0.0201  0.1649
 6273SOL     OW19717   2.178   1.217   1.702 -0.2965  0.3372  0.1151
 6273SOL    HW119718   2.078   1.223   1.703 -0.3708 -0.6744  0.7042
 6273SOL    HW219719   2.214   1.268   1.624 -1.2688  0.7275 -0.0931
 6274SOL     OW19720   1.885   5.211   0.276 -0.6131  0.1183 -0.0472
 6274SOL    HW119721   1.914   5.298   0.316 -1.6135  2.2121 -3.4401
 6274SOL    HW219722   1.960   5.145   0.280  0.5688  1.4799  1.6054
 6275SOL     OW19723   1.720   4.300   6.123  0.0106  0.0823 -0.2950
 6275SOL    HW119724   1.819   4.289   6.133 -0.2097 -0.7598  1.2876
 6275SOL    HW219725   1.678   4.210   6.118 -0.8245  0.3804  0.9470
 6276SOL     OW19726   4.918   0.452   2.208  0.2299  0.0455  0.3168
 6276SOL    HW119727   4.994   0.400   2.247  0.9472 -0.4002 -1.5528
 6276SOL    HW219728   4.853   0.388   2.166 -0.7349  0.4771  1.1330
 6277SOL     OW19729   6.306   5.187   4.222 -0.6790 -0.1487  0.3980
 6277SOL    HW119730   6.322   5.116   4.291  2.2178  0.3577  0.3880
 6277SOL    HW219731   6.356   5.270   4.247 -1.5141  0.8613 -1.1214
 6278SOL     OW19732   3.377   2.091   4.671  0.2027 -0.0910  0.5384
 6278SOL    HW119733   3.435   2.078   4.752  1.0455  1.4334  0.2069
 6278SOL    HW219734   3.288   2.127   4.699 -0.4625 -1.9636  0.9987
 6279SOL     OW19735   6.983   2.770   6.897  0.2414 -0.2606 -0.0221
 6279SOL    HW119736   7.011   2.683   6.855  1.1278  0.6341 -1.3895
 6279SOL    HW219737   7.057   2.836   6.887 -0.0192  0.3771  1.9132
 6280SOL     OW19738   6.247   5.573   4.582  0.5049  0.8122 -0.6195
 6280SOL    HW119739   6.182   5.506   4.548  3.7764 -2.4487 -1.1591
 6280SOL    HW219740   6.318   5.590   4.513  2.3982  1.0146  1.2544
 6281SOL     OW19741   3.535   0.265   5.344  0.2343 -0.1627 -0.6473
 6281SOL    HW119742   3.615   0.289   5.400 -0.1178  0.8106 -0.5268
 6281SOL    HW219743   3.548   0.299   5.251 -0.3306  0.6470 -0.4436
 6282SOL     OW19744   2.103   6.459   3.490  0.5152 -0.6770 -0.3365
 6282SOL    HW119745   2.028   6.395   3.507  0.9318 -1.1437 -0.2339
 6282SOL    HW219746   2.118   6.467   3.391  0.0474 -0.2447 -0.3784
 6283SOL     OW19747   3.591   6.220   6.265  0.0618 -0.0495  0.0796
 6283SOL    HW119748   3.664   6.257   6.322 -0.4222  0.2350  0.5297
 6283SOL    HW219749   3.547   6.143   6.312 -0.6995  0.5360  0.3482
 6284SOL     OW19750   2.405   6.231   4.882  0.1802  0.6238  0.4484
 6284SOL    HW119751   2.407   6.209   4.785 -0.5946  3.8656 -0.4194
 6284SOL    HW219752   2.490   6.277   4.907  0.2658  0.0431  1.2916
 6285SOL     OW19753   3.069   3.383   4.900 -0.0748  0.3489  0.3682
 6285SOL    HW119754   3.079   3.307   4.836  0.1156 -0.1253  0.9584
 6285SOL    HW219755   3.004   3.357   4.972 -0.7250  1.0851  0.0578
 6286SOL     OW19756   3.943   4.389   6.610  0.0101  1.1434 -0.0466
 6286SOL    HW119757   3.984   4.361   6.523  1.4472  0.6515  0.7576
 6286SOL    HW219758   4.014   4.393   6.680 -1.4345 -0.5403  1.6116
 6287SOL     OW19759   6.039   5.112   3.895 -0.7421  0.0123  0.1381
 6287SOL    HW119760   6.035   5.202   3.851 -0.6353  0.0764  0.2585
 6287SOL    HW219761   5.952   5.093   3.941 -0.3241  0.6114  1.2027
 6288SOL     OW19762   5.286   2.798   4.835 -0.2240  0.1644  0.1120
 6288SOL    HW119763   5.229   2.869   4.878 -3.0015 -1.9048  0.1339
 6288SOL    HW219764   5.310   2.729   4.904  1.5632  0.5009 -0.1338
 6289SOL     OW19765   4.052   3.807   2.859  0.2862 -0.6194 -0.3459
 6289SOL    HW119766   4.105   3.791   2.942 -2.3975  0.8957  1.7778
 6289SOL    HW219767   4.027   3.719   2.818  4.9810 -1.4707 -2.0387
 6290SOL     OW19768   6.975   1.363   3.777 -0.1264  0.4037 -0.2550
 6290SOL    HW119769   6.960   1.280   3.832 -0.6209 -0.3844 -1.5247
 6290SOL    HW219770   6.917   1.437   3.812 -1.5720 -0.5169 -0.6047
 6291SOL     OW19771   5.308   1.115   6.220 -0.5061 -0.2701  0.0076
 6291SOL    HW119772   5.255   1.177   6.161  0.1901  0.3050 -0.0293
 6291SOL    HW219773   5.270   1.117   6.312  1.6436  3.0586  0.9815
 6292SOL     OW19774   1.624   3.829   0.073 -0.1862  0.3881 -0.7190
 6292SOL    HW119775   1.660   3.747   0.117 -0.1960 -0.5966 -2.4443
 6292SOL    HW219776   1.694   3.865   0.010 -0.2810  1.5673 -0.1731
 6293SOL     OW19777   4.399   0.236   6.868 -0.0939  0.4461  0.0794
 6293SOL    HW119778   4.345   0.157   6.899 -0.1119  0.8033  1.0022
 6293SOL    HW219779   4.347   0.289   6.802  0.0844 -0.5457 -0.8881
 6294SOL     OW19780   3.787   4.167   0.586 -0.2356  0.1489 -0.1898
 6294SOL    HW119781   3.825   4.088   0.537  0.2693  0.2564  0.0202
 6294SOL    HW219782   3.713   4.136   0.646 -1.6059  0.1524 -1.7757
 6295SOL     OW19783   1.687   0.937   4.476 -0.2514 -0.5976 -0.2835
 6295SOL    HW119784   1.779   0.912   4.504  0.2578  0.4660 -0.9420
 6295SOL    HW219785   1.637   0.974   4.554 -0.2694 -1.5462  0.1693
 6296SOL     OW19786   3.496   5.505   5.051  0.1221 -0.3598  0.1217
 6296SOL    HW119787   3.408   5.497   5.097  0.5881 -2.3853  0.7472
 6296SOL    HW219788   3.495   5.452   4.966  0.5775  0.0073 -0.1193
 6297SOL     OW19789   4.638   0.194   3.120  0.0814 -0.4753 -0.1224
 6297SOL    HW119790   4.600   0.224   3.208  0.1964 -0.1041 -0.1992
 6297SOL    HW219791   4.564   0.165   3.060  0.0768 -1.9067  0.5292
 6298SOL     OW19792   0.790   1.016   5.268  0.0099  0.1456  0.2347
 6298SOL    HW119793   0.720   1.086   5.258  0.1153  0.3029  0.6009
 6298SOL    HW219794   0.759   0.931   5.224  0.1064  0.5745 -0.6787
 6299SOL     OW19795   0.096   0.945   4.949 -0.4236 -0.0905 -0.0172
 6299SOL    HW119796   0.130   0.863   4.995 -2.1855 -0.5633  0.4876
 6299SOL    HW219797   0.040   0.919   4.870  0.9620  0.6899 -1.3316
 6300SOL     OW19798   0.861   0.263   2.839 -0.6357 -0.4601  0.1486
 6300SOL    HW119799   0.837   0.349   2.793 -0.6191 -0.0807  0.8397
 6300SOL    HW219800   0.850   0.187   2.775 -0.0325  0.1230 -0.6624
 6301SOL     OW19801   3.067   1.440   3.881 -0.5327 -0.6872  0.3122
 6301SOL    HW119802   3.085   1.380   3.959  1.0898 -0.2045  0.3497
 6301SOL    HW219803   3.082   1.535   3.908  0.0262 -0.5107 -0.5799
 6302SOL     OW19804   3.505   2.075   2.185 -0.2672  0.7267 -0.4893
 6302SOL    HW119805   3.591   2.125   2.172  0.8911 -0.2505  2.4876
 6302SOL    HW219806   3.514   1.983   2.149 -1.2924  1.5495 -3.0812
 6303SOL     OW19807   5.546   4.150   0.067 -0.1316 -0.0426  0.0413
 6303SOL    HW119808   5.560   4.055   0.097 -0.9675 -0.0385  0.4843
 6303SOL    HW219809   5.570   4.158  -0.030 -0.5690 -0.8344 -0.1399
 6304SOL     OW19810   6.313   4.747   3.098  0.0195 -0.3500  0.3088
 6304SOL    HW119811   6.373   4.678   3.057 -1.9796 -0.5215 -2.6490
 6304SOL    HW219812   6.218   4.720   3.084 -0.7949  2.2377  0.4491
 6305SOL     OW19813   5.914   2.475   0.006  0.1495  0.0497  0.2223
 6305SOL    HW119814   5.871   2.395  -0.037 -0.4050  0.8117 -0.6802
 6305SOL    HW219815   6.005   2.450   0.037  0.3046 -0.7273 -0.7846
 6306SOL     OW19816   5.398   2.528   1.525  0.4272  0.2457 -0.2024
 6306SOL    HW119817   5.409   2.502   1.621 -0.4161  1.6011  0.2875
 6306SOL    HW219818   5.382   2.446   1.470  0.8387 -0.5417  0.8148
 6307SOL     OW19819   4.007   2.131   5.473  0.3983 -0.6075  0.8240
 6307SOL    HW119820   3.913   2.106   5.494 -0.4470  0.6907 -1.0875
 6307SOL    HW219821   4.011   2.229   5.452  1.7444 -1.0418 -1.2017
 6308SOL     OW19822   4.900   2.838   4.576 -0.1134  0.4565  0.2556
 6308SOL    HW119823   4.861   2.887   4.498  1.0732  1.9678  0.5659
 6308SOL    HW219824   4.997   2.821   4.560  0.1538  0.8198  1.4255
 6309SOL     OW19825   1.180   6.878   5.578 -0.5780  0.3946  0.1523
 6309SOL    HW119826   1.278   6.873   5.595 -0.6195  1.5440  0.8392
 6309SOL    HW219827   1.130   6.843   5.658 -0.7309  1.9893  0.7922
 6310SOL     OW19828   4.367   1.846   1.491  0.0517 -0.1266 -0.5010
 6310SOL    HW119829   4.440   1.898   1.536  0.0460  0.1385 -0.7921
 6310SOL    HW219830   4.358   1.877   1.396 -0.3853 -0.2123 -0.4900
 6311SOL     OW19831   6.054   2.721   3.043  0.6405  0.7290  0.2320
 6311SOL    HW119832   6.067   2.806   3.094  0.1213  2.2548 -2.0296
 6311SOL    HW219833   6.129   2.710   2.978 -0.4496  0.7011 -1.0723
 6312SOL     OW19834   0.505   6.029   4.435  0.2183 -0.0655  0.3998
 6312SOL    HW119835   0.419   6.045   4.387  0.0363  1.0169  1.0496
 6312SOL    HW219836   0.526   5.931   4.435 -0.4560 -0.2226 -0.6876
 6313SOL     OW19837   4.806   5.113   4.513 -0.8367 -0.1521 -0.6774
 6313SOL    HW119838   4.812   5.184   4.443  0.7499  0.1074 -0.2998
 6313SOL    HW219839   4.851   5.144   4.597  0.6944 -1.9184 -0.7910
 6314SOL     OW19840   1.194   1.026   0.077 -0.0285  0.2149 -0.5251
 6314SOL    HW119841   1.258   1.099   0.052  0.9426 -0.8502 -1.2487
 6314SOL    HW219842   1.121   1.064   0.134 -0.4931  2.0755 -2.2574
 6315SOL     OW19843   6.500   6.673   5.712  0.7584 -0.1523 -0.1074
 6315SOL    HW119844   6.456   6.584   5.698  1.5869 -0.6369  0.2895
 6315SOL    HW219845   6.595   6.668   5.682  0.6897  0.7448 -0.5106
 6316SOL     OW19846   0.306   5.090   7.004  0.4822  0.4244 -0.5537
 6316SOL    HW119847   0.243   5.016   7.026 -0.7665  2.0786  1.9031
 6316SOL    HW219848   0.380   5.093   7.072  1.4949  0.4085 -1.6221
 6317SOL     OW19849   4.879   3.277   3.925  0.3072  0.0303  0.1629
 6317SOL    HW119850   4.865   3.253   4.021 -2.0883  0.7970  0.0618
 6317SOL    HW219851   4.896   3.194   3.872 -0.2199 -0.6046  0.9660
 6318SOL     OW19852   5.299   4.457   1.612  0.0711  0.7201 -0.3689
 6318SOL    HW119853   5.258   4.443   1.522  0.1227 -1.2199 -0.1356
 6318SOL    HW219854   5.260   4.391   1.677  2.7509 -0.5110  0.1122
 6319SOL     OW19855   2.403   5.246   1.818 -0.8025  0.3961  0.4423
 6319SOL    HW119856   2.463   5.202   1.751 -1.3940  0.6568 -0.2669
 6319SOL    HW219857   2.414   5.201   1.907  0.0489  0.1022  0.1998
 6320SOL     OW19858   2.533   4.594   0.644 -0.1358 -0.5931  0.3939
 6320SOL    HW119859   2.603   4.544   0.695 -1.4346 -0.5265  2.3661
 6320SOL    HW219860   2.576   4.642   0.567  1.7114 -1.7691  0.6239
 6321SOL     OW19861   4.943   6.363   4.648 -0.0805 -0.0578 -0.4952
 6321SOL    HW119862   4.948   6.273   4.605 -1.6066 -0.0734 -0.7115
 6321SOL    HW219863   4.956   6.354   4.746 -0.8608 -0.6235 -0.4319
 6322SOL     OW19864   5.343   3.960   1.188 -0.4530  0.2590 -0.1248
 6322SOL    HW119865   5.399   3.877   1.183 -1.8334 -0.7370  0.1655
 6322SOL    HW219866   5.369   4.012   1.270 -0.7007 -0.7734  0.6358
 6323SOL     OW19867   0.444   3.353   3.269  0.2795  0.0082  0.2448
 6323SOL    HW119868   0.461   3.254   3.262  0.9736  0.1010  0.4845
 6323SOL    HW219869   0.453   3.395   3.179  1.8496  0.1169  0.4247
 6324SOL     OW19870   3.857   2.113   2.529  0.2831  0.7215 -0.1944
 6324SOL    HW119871   3.864   2.134   2.432  0.8371  0.3105 -0.2476
 6324SOL    HW219872   3.905   2.028   2.549  1.0643  1.3287  0.6095
 6325SOL     OW19873   5.410   6.322   1.692  0.5391 -0.2367  0.0283
 6325SOL    HW119874   5.393   6.224   1.707 -0.1280 -0.4905 -2.0686
 6325SOL    HW219875   5.398   6.343   1.595  1.6735  1.7504  0.2710
 6326SOL     OW19876   5.350   0.698   3.348 -0.3629  0.2863 -0.7380
 6326SOL    HW119877   5.341   0.727   3.444 -3.9648 -0.8661 -0.5826
 6326SOL    HW219878   5.358   0.779   3.290  0.7861  1.0498  0.4120
 6327SOL     OW19879   0.627   5.770   3.723 -0.0720  0.4865  0.4152
 6327SOL    HW119880   0.557   5.826   3.677  1.0439  0.8386 -0.9349
 6327SOL    HW219881   0.589   5.681   3.746 -1.1780  0.9332  0.3773
 6328SOL     OW19882   1.850   5.890   4.437 -0.0245  0.7283 -0.0010
 6328SOL    HW119883   1.896   5.843   4.512 -1.0599  1.6585  1.2547
 6328SOL    HW219884   1.776   5.833   4.402 -0.5201  0.9110  0.7249
 6329SOL     OW19885   6.123   4.866   1.735  0.3706  0.0681 -0.1968
 6329SOL    HW119886   6.174   4.784   1.760 -2.1702 -1.6153 -0.1365
 6329SOL    HW219887   6.187   4.938   1.708  2.7487 -1.5422  0.7802
 6330SOL     OW19888   5.733   3.594   5.818  0.4565 -0.0043  0.5421
 6330SOL    HW119889   5.661   3.664   5.809  0.1436 -0.4668 -0.9296
 6330SOL    HW219890   5.737   3.562   5.913  0.7783  2.1656  1.3129
 6331SOL     OW19891   5.589   0.215   3.241  0.5022  0.0457 -0.3518
 6331SOL    HW119892   5.669   0.231   3.298 -0.3979 -0.3742  1.0812
 6331SOL    HW219893   5.568   0.297   3.189  1.6171  0.2853 -0.4573
 6332SOL     OW19894   5.875   4.646   2.026 -0.0634  0.1001 -0.6338
 6332SOL    HW119895   5.842   4.601   1.943 -1.3924  2.2478 -1.3271
 6332SOL    HW219896   5.835   4.737   2.034  1.9379  0.9136  1.1195
 6333SOL     OW19897   6.167   5.802   6.011 -0.4829  1.0225 -0.1364
 6333SOL    HW119898   6.161   5.782   5.913 -0.3625  2.8778 -0.5723
 6333SOL    HW219899   6.210   5.726   6.058 -0.8207 -0.0397 -1.4761
 6334SOL     OW19900   1.517   5.184   2.646  0.5232 -0.3450 -0.3683
 6334SOL    HW119901   1.515   5.086   2.669 -0.8801 -0.2767 -0.0955
 6334SOL    HW219902   1.424   5.221   2.652  1.0671  1.0521 -0.3171
 6335SOL     OW19903   0.751   5.271   3.857 -0.2031 -0.4150 -0.6073
 6335SOL    HW119904   0.761   5.201   3.926  1.2313  0.1236 -0.2359
 6335SOL    HW219905   0.695   5.236   3.782  0.5307 -1.9667 -0.4684
 6336SOL     OW19906   1.683   3.799   4.159  0.4117  0.0855 -0.1465
 6336SOL    HW119907   1.716   3.802   4.253 -0.2954 -0.5081  0.1368
 6336SOL    HW219908   1.648   3.889   4.133  2.0486  0.6742 -0.3978
 6337SOL     OW19909   0.328   6.003   1.321  0.1435  0.0430 -0.2425
 6337SOL    HW119910   0.286   6.010   1.411 -0.0044 -2.1631 -0.0779
 6337SOL    HW219911   0.258   6.017   1.250  0.1360  1.1515 -0.0306
 6338SOL     OW19912   2.889   6.621   2.115 -0.5580  0.0283  0.0164
 6338SOL    HW119913   2.913   6.540   2.168 -1.5556 -1.1736 -1.2836
 6338SOL    HW219914   2.896   6.600   2.017 -0.5895  1.5979 -0.3510
 6339SOL     OW19915   3.762   5.698   3.257  0.1936  0.4368 -0.2314
 6339SOL    HW119916   3.834   5.751   3.212  0.8179  1.6054  2.0012
 6339SOL    HW219917   3.796   5.607   3.279  1.0169  0.9704  0.7759
 6340SOL     OW19918   5.609   1.427   4.583 -0.1201  0.1360  0.2529
 6340SOL    HW119919   5.640   1.332   4.581  0.9137  0.4435  0.7578
 6340SOL    HW219920   5.676   1.485   4.536  0.0709  0.8234  1.3409
 6341SOL     OW19921   3.957   6.550   6.297 -0.6398  0.1868  0.1928
 6341SOL    HW119922   3.982   6.646   6.308 -0.2692  0.0568  0.5177
 6341SOL    HW219923   4.015   6.493   6.355  0.8202 -0.4632 -1.7761
 6342SOL     OW19924   1.563   0.133   1.102  0.2269  0.4159  0.2137
 6342SOL    HW119925   1.637   0.187   1.061 -1.0066  1.3063 -0.9123
 6342SOL    HW219926   1.517   0.188   1.172  0.8763 -0.2928  1.2256
 6343SOL     OW19927   3.718   4.985   4.887  0.3358 -0.5920 -0.0666
 6343SOL    HW119928   3.622   4.965   4.868  0.0390  0.7841 -0.1260
 6343SOL    HW219929   3.772   4.974   4.804  0.9352 -4.9066  0.6841
 6344SOL     OW19930   6.459   2.444   4.040 -0.4066 -0.6222  0.1985
 6344SOL    HW119931   6.491   2.449   3.945 -0.9542 -0.1123  0.0378
 6344SOL    HW219932   6.406   2.360   4.053 -0.6733 -0.4925 -0.0519
 6345SOL     OW19933   6.499   2.182   6.929 -0.8697 -0.3338  0.4852
 6345SOL    HW119934   6.559   2.251   6.889 -0.7330 -0.1921  0.9277
 6345SOL    HW219935   6.539   2.091   6.917 -1.2996 -0.3994 -0.5621
 6346SOL     OW19936   0.604   2.798   6.541  0.0243 -0.2597 -0.1374
 6346SOL    HW119937   0.646   2.762   6.458 -0.0550 -1.7072  0.4114
 6346SOL    HW219938   0.573   2.721   6.598  0.3760  0.6747  1.3779
 6347SOL     OW19939   0.315   2.970   1.617 -0.4468 -0.0326 -0.0931
 6347SOL    HW119940   0.286   2.988   1.523 -1.3698  1.5217  0.4566
 6347SOL    HW219941   0.309   3.054   1.671 -0.1164 -0.9379  1.4196
 6348SOL     OW19942   1.161   1.992   0.520  0.2958  0.2743 -0.0980
 6348SOL    HW119943   1.130   1.912   0.468 -0.0697  1.0133 -1.0642
 6348SOL    HW219944   1.247   2.024   0.482 -0.4076  1.3461 -0.8635
 6349SOL     OW19945   4.328   5.992   4.368 -0.3581 -0.0161 -0.1611
 6349SOL    HW119946   4.418   6.015   4.331 -0.0299 -0.6409  0.2440
 6349SOL    HW219947   4.323   5.895   4.389 -0.9908  0.0837  0.2068
 6350SOL     OW19948   2.988   1.183   2.170  0.6642 -0.4466  0.2057
 6350SOL    HW119949   3.035   1.118   2.110 -0.8920 -1.5627  0.1172
 6350SOL    HW219950   2.889   1.175   2.156  0.3760  0.8399  1.3476
 6351SOL     OW19951   2.779   2.915   1.270 -0.4638 -0.6969  0.2094
 6351SOL    HW119952   2.764   2.837   1.331 -0.9005  0.0271  1.0674
 6351SOL    HW219953   2.775   2.885   1.175 -1.8252 -1.5220  0.5008
 6352SOL     OW19954   6.601   6.848   6.849 -0.2653  0.6226 -0.6303
 6352SOL    HW119955   6.641   6.904   6.776  0.3855  1.4433  0.3147
 6352SOL    HW219956   6.548   6.773   6.809 -1.7688  2.3055 -1.9642
 6353SOL     OW19957   0.106   5.702   2.230  0.3013 -0.3953 -0.4105
 6353SOL    HW119958   0.205   5.716   2.229 -0.0809  3.0018 -0.4060
 6353SOL    HW219959   0.081   5.651   2.312  1.8466  0.7205  0.8085
 6354SOL     OW19960   1.349   0.842   1.689 -0.4916  0.5982 -0.5998
 6354SOL    HW119961   1.430   0.840   1.747 -0.2493 -0.7397 -0.9422
 6354SOL    HW219962   1.370   0.799   1.601 -2.4743 -3.2461  0.6025
 6355SOL     OW19963   3.348   1.971   0.417 -0.2438 -0.3659  0.9393
 6355SOL    HW119964   3.276   1.953   0.350  0.6866  1.4466 -0.6770
 6355SOL    HW219965   3.310   1.971   0.509 -2.2192  0.0883  0.1710
 6356SOL     OW19966   2.180   0.292   1.277  0.2983 -0.2466 -0.1732
 6356SOL    HW119967   2.134   0.337   1.354 -2.3127  0.4250 -2.0064
 6356SOL    HW219968   2.266   0.339   1.258  1.4882 -0.9784  2.7977
 6357SOL     OW19969   5.531   6.470   2.587  0.1367  0.3547  0.1461
 6357SOL    HW119970   5.587   6.446   2.508 -0.6015 -0.0584 -0.2638
 6357SOL    HW219971   5.572   6.547   2.635 -0.0500  1.4161 -1.3420
 6358SOL     OW19972   5.904   4.135   3.029 -0.4455 -0.1717  0.1948
 6358SOL    HW119973   5.884   4.220   3.077 -1.5945 -0.1073 -0.3590
 6358SOL    HW219974   5.893   4.058   3.091  0.5829  0.0576  0.6951
 6359SOL     OW19975   0.604   6.955   1.004  0.1928 -0.5209  0.1370
 6359SOL    HW119976   0.681   6.891   1.004  0.1245 -0.6084 -0.5671
 6359SOL    HW219977   0.637   7.047   0.981 -0.1197 -0.8465 -1.8412
 6360SOL     OW19978   0.974   6.014   4.848  0.8061 -0.3335  0.3979
 6360SOL    HW119979   1.031   6.060   4.781  0.4914 -2.0133 -1.0971
 6360SOL    HW219980   1.032   5.980   4.923  1.2272  1.0779  0.7500
 6361SOL     OW19981   4.823   5.706   6.135 -0.0213  0.1979 -0.0353
 6361SOL    HW119982   4.852   5.776   6.201  0.9217 -0.8940  0.7568
 6361SOL    HW219983   4.891   5.701   6.061  0.1765 -0.2151  0.1724
 6362SOL     OW19984   4.090   1.134   0.325  0.1352  0.4760 -0.5896
 6362SOL    HW119985   4.074   1.222   0.281 -0.2587  1.5951  1.6445
 6362SOL    HW219986   4.007   1.078   0.317 -0.0615  0.8098 -0.9225
 6363SOL     OW19987   6.574   5.533   6.653 -0.1146 -0.4137 -0.1873
 6363SOL    HW119988   6.622   5.529   6.741  1.0714 -1.2140 -0.8311
 6363SOL    HW219989   6.640   5.552   6.580 -1.1146  0.4649 -0.8889
 6364SOL     OW19990   2.049   2.337   1.976  0.6886 -0.5492 -0.5796
 6364SOL    HW119991   2.075   2.414   1.919  1.7776 -0.9376 -0.6248
 6364SOL    HW219992   2.121   2.318   2.043 -0.5427 -0.1303  0.9210
 6365SOL     OW19993   0.895   5.299   3.420  0.0056  0.4404  0.5395
 6365SOL    HW119994   0.871   5.375   3.481  1.2562  0.1667  1.4123
 6365SOL    HW219995   0.961   5.239   3.465  1.8299  0.8131 -1.4372
 6366SOL     OW19996   1.948   6.169   0.501 -0.3727  0.5935  0.1041
 6366SOL    HW119997   1.986   6.200   0.588  2.5419  0.2982 -0.9594
 6366SOL    HW219998   1.908   6.247   0.453  2.3618  1.8572 -0.3337
 6367SOL     OW19999   0.335   4.788   2.295  0.0205 -0.5604 -0.7298
 6367SOL    HW120000   0.396   4.777   2.374  0.3340  1.3311 -0.6579
 6367SOL    HW220001   0.241   4.771   2.324 -0.0221  1.3430  0.4224
 6368SOL     OW20002   3.044   6.766   1.731 -0.8234 -0.1842  0.7162
 6368SOL    HW120003   3.074   6.766   1.635  0.2090  0.0478  1.0281
 6368SOL    HW220004   2.976   6.838   1.744  1.6007  2.2543  0.8894
 6369SOL     OW20005   5.918   0.756   1.740  0.1222  0.2346 -0.3290
 6369SOL    HW120006   5.850   0.683   1.729 -2.1848  1.9658  1.4736
 6369SOL    HW220007   5.941   0.793   1.650 -0.0103 -1.4841 -1.1202
 6370SOL     OW20008   3.907   1.679   0.704  0.5006  0.5690  0.4616
 6370SOL    HW120009   3.814   1.656   0.731  0.5252  1.1671  1.0624
 6370SOL    HW220010   3.919   1.657   0.607 -0.4649  1.0930  0.2090
 6371SOL     OW20011   2.038   2.501   5.728  0.4446  0.0867 -0.3498
 6371SOL    HW120012   2.020   2.443   5.648  0.4251  0.4074 -0.5766
 6371SOL    HW220013   1.951   2.533   5.766  0.4615  0.0923 -0.3152
 6372SOL     OW20014   4.951   4.428   4.249 -1.0066  0.1682  0.4827
 6372SOL    HW120015   4.914   4.500   4.309 -0.7912 -0.4493  1.3749
 6372SOL    HW220016   4.992   4.356   4.305  3.4787  1.7150 -0.3895
 6373SOL     OW20017   6.361   3.220   2.188  0.5767 -0.0332  0.1151
 6373SOL    HW120018   6.296   3.174   2.128  0.1829  0.3544  0.2335
 6373SOL    HW220019   6.382   3.162   2.266 -0.5068  0.2803  0.6601
 6374SOL     OW20020   1.171   4.739   2.253 -0.3359 -0.3256  0.1223
 6374SOL    HW120021   1.126   4.652   2.274 -1.0096 -0.1899 -0.7055
 6374SOL    HW220022   1.176   4.794   2.336 -2.0787 -0.1975  0.1927
 6375SOL     OW20023   5.731   0.330   0.723 -0.1401  0.2082  0.3410
 6375SOL    HW120024   5.822   0.289   0.720 -0.2092  0.0997 -1.7714
 6375SOL    HW220025   5.708   0.352   0.818  2.4871  1.1861  0.8372
 6376SOL     OW20026   5.769   4.774   0.951 -0.1969  0.4483 -0.4065
 6376SOL    HW120027   5.705   4.795   0.877 -0.6801 -0.9519 -0.4274
 6376SOL    HW220028   5.756   4.839   1.026 -2.9233 -0.7754  0.3208
 6377SOL     OW20029   6.540   2.753   2.405 -0.0335  0.2933 -0.7523
 6377SOL    HW120030   6.627   2.748   2.455 -0.5625  1.9623  0.4430
 6377SOL    HW220031   6.504   2.661   2.390  1.9451 -0.4369 -1.3260
 6378SOL     OW20032   6.049   0.889   1.175 -0.0095 -0.2646 -0.6837
 6378SOL    HW120033   6.044   0.953   1.251 -0.1188 -0.7170 -0.3066
 6378SOL    HW220034   6.136   0.901   1.127 -0.8590  1.5461 -1.8582
 6379SOL     OW20035   5.499   1.301   6.669  0.4522  0.1618 -0.0836
 6379SOL    HW120036   5.469   1.251   6.750 -0.6457 -0.3912 -0.8096
 6379SOL    HW220037   5.561   1.374   6.697 -1.7766  1.5811  1.5585
 6380SOL     OW20038   0.124   1.769   4.892 -0.6045 -0.2671  0.1777
 6380SOL    HW120039   0.049   1.829   4.866  1.9241  2.5980 -1.1657
 6380SOL    HW220040   0.144   1.706   4.817 -0.3060  0.4781 -0.3809
 6381SOL     OW20041   6.661   1.661   6.899 -0.6234  0.2989 -0.1812
 6381SOL    HW120042   6.593   1.589   6.912 -1.1351  1.0612  1.7795
 6381SOL    HW220043   6.625   1.747   6.934  0.5633  1.1869 -1.0705
 6382SOL     OW20044   6.252   6.656   1.123  0.5326  0.0410  0.7841
 6382SOL    HW120045   6.216   6.576   1.075  2.9940  0.3279 -1.7481
 6382SOL    HW220046   6.177   6.721   1.138 -0.4210  0.0348 -2.9774
 6383SOL     OW20047   6.878   6.572   5.475 -0.2010 -0.1762  0.2372
 6383SOL    HW120048   6.905   6.488   5.427 -0.4524 -0.3866  0.4638
 6383SOL    HW220049   6.844   6.549   5.566 -0.6013  0.1433  0.1694
 6384SOL     OW20050   0.096   4.961   5.024  0.7214  0.1198  0.2441
 6384SOL    HW120051   0.028   5.005   5.082  0.5435 -1.7582  1.5694
 6384SOL    HW220052   0.050   4.911   4.951  0.7559  0.0121  0.2956
 6385SOL     OW20053   2.114   3.099   1.195  0.1080 -0.7364  0.0348
 6385SOL    HW120054   2.182   3.119   1.124  0.0489 -0.0546  0.1698
 6385SOL    HW220055   2.044   3.170   1.197  0.2355 -0.6176  0.9291
 6386SOL     OW20056   4.224   6.907   5.194  0.4585 -0.0609 -0.6852
 6386SOL    HW120057   4.302   6.908   5.131 -0.3445 -0.9095 -1.7262
 6386SOL    HW220058   4.220   6.818   5.240 -0.9112 -0.7491 -2.0132
 6387SOL     OW20059   3.514   6.546   3.032 -0.2354 -0.2236 -0.5292
 6387SOL    HW120060   3.478   6.635   3.001  1.2748  0.6219  0.0197
 6387SOL    HW220061   3.476   6.524   3.122  1.6633  1.4324  0.7845
 6388SOL     OW20062   1.983   5.765   2.357  0.0733 -0.1558  0.1622
 6388SOL    HW120063   1.966   5.815   2.272  3.0904 -1.2793 -1.2454
 6388SOL    HW220064   1.920   5.688   2.363 -0.7801  0.4553 -0.5598
 6389SOL     OW20065   6.936   1.745   3.198  0.2101  0.3112 -0.0580
 6389SOL    HW120066   6.872   1.817   3.227 -0.4738  0.8443 -2.5696
 6389SOL    HW220067   6.887   1.658   3.191  0.3537  0.2019  0.2664
 6390SOL     OW20068   1.040   1.956   2.114  0.4561 -0.3429  0.0153
 6390SOL    HW120069   1.048   1.957   2.214 -2.7552 -2.2562  0.4493
 6390SOL    HW220070   0.982   2.032   2.085 -1.6900 -1.8271  0.1427
 6391SOL     OW20071   1.740   6.541   0.329 -0.2026  1.0310  0.1746
 6391SOL    HW120072   1.715   6.543   0.232 -0.9051 -0.0039  0.3219
 6391SOL    HW220073   1.689   6.469   0.375  0.8509  0.8734  1.1271
 6392SOL     OW20074   3.600   0.587   1.374 -0.0713  0.2480  0.1573
 6392SOL    HW120075   3.512   0.613   1.335 -0.6829 -1.2729  0.4378
 6392SOL    HW220076   3.649   0.528   1.309  0.7790  1.1260 -0.0221
 6393SOL     OW20077   3.390   5.066   1.289  0.1278  0.0337 -0.6442
 6393SOL    HW120078   3.371   5.033   1.381 -0.5714 -0.3570 -0.9243
 6393SOL    HW220079   3.470   5.019   1.253  0.4443  0.2341 -0.2149
 6394SOL     OW20080   3.583   6.470   5.107 -0.7730  0.7600  0.5080
 6394SOL    HW120081   3.546   6.503   5.020  0.0232  0.9647  0.2387
 6394SOL    HW220082   3.615   6.376   5.095 -0.4010  0.8885  0.5054
 6395SOL     OW20083   2.759   2.931   5.668  0.1681  0.4572 -0.1215
 6395SOL    HW120084   2.694   2.855   5.672 -1.7027  1.9664  0.0466
 6395SOL    HW220085   2.722   3.003   5.609  1.3124  1.7325  0.6649
 6396SOL     OW20086   4.097   0.843   1.344 -0.1239  0.1099  0.1610
 6396SOL    HW120087   4.038   0.787   1.286 -0.5125 -0.3071  0.9428
 6396SOL    HW220088   4.050   0.864   1.430  0.8650 -0.2523  0.8195
 6397SOL     OW20089   2.804   5.575   4.096 -0.2497 -0.6495 -0.2502
 6397SOL    HW120090   2.745   5.559   4.175 -0.3075  1.5873  0.2451
 6397SOL    HW220091   2.751   5.617   4.022  0.4791  0.4718 -0.1659
 6398SOL     OW20092   2.638   5.240   4.899 -0.1808 -0.0707 -0.4474
 6398SOL    HW120093   2.559   5.223   4.841 -2.0725  1.2637  1.5460
 6398SOL    HW220094   2.703   5.165   4.890 -1.1243 -0.6922 -2.9752
 6399SOL     OW20095   6.159   3.581   0.807  0.1705 -0.2924  0.1676
 6399SOL    HW120096   6.164   3.489   0.845  1.5280  0.1188  1.0859
 6399SOL    HW220097   6.209   3.644   0.867  0.1357  0.8585 -0.9701
 6400SOL     OW20098   0.880   0.113   6.453 -0.0191 -0.1990  0.2413
 6400SOL    HW120099   0.791   0.145   6.420  0.8899  3.0715  0.6303
 6400SOL    HW220100   0.940   0.094   6.375 -0.3651 -0.2778 -0.0093
 6401SOL     OW20101   5.635   5.061   4.758 -0.8402 -0.4415 -0.3286
 6401SOL    HW120102   5.594   5.010   4.833 -1.1973  1.2286  0.6740
 6401SOL    HW220103   5.577   5.139   4.735 -1.1493 -1.3251 -2.9184
 6402SOL     OW20104   4.708   5.230   1.461  0.5746  0.3159  0.0736
 6402SOL    HW120105   4.713   5.131   1.472 -0.3008  0.1915 -0.5422
 6402SOL    HW220106   4.682   5.272   1.548 -2.7230 -0.3464 -0.4646
 6403SOL     OW20107   0.695   2.870   4.164 -0.8237 -0.0006  0.8740
 6403SOL    HW120108   0.621   2.804   4.180 -0.6435 -0.4179  0.0542
 6403SOL    HW220109   0.698   2.935   4.239 -1.2421 -0.7124  1.5267
 6404SOL     OW20110   4.842   4.787   6.252 -0.1764 -0.4574  0.7157
 6404SOL    HW120111   4.918   4.780   6.316  0.9009 -2.9403 -0.6662
 6404SOL    HW220112   4.766   4.730   6.285 -0.3436 -0.2462  0.6986
 6405SOL     OW20113   4.959   3.708   3.676 -0.2056  0.3643 -0.7672
 6405SOL    HW120114   4.907   3.678   3.756 -1.9678 -2.7484 -2.8588
 6405SOL    HW220115   5.055   3.717   3.700 -0.8041  0.4340  1.8664
 6406SOL     OW20116   6.715   4.001   1.105 -0.1618 -0.3485 -0.5782
 6406SOL    HW120117   6.707   4.066   1.180 -0.4042 -0.7049 -0.2949
 6406SOL    HW220118   6.633   3.945   1.100  1.5663 -3.4226  1.8040
 6407SOL     OW20119   2.938   6.347   3.713  0.0781  0.0273  0.3576
 6407SOL    HW120120   2.982   6.319   3.798 -0.8034 -2.6739 -0.0102
 6407SOL    HW220121   2.994   6.318   3.635 -0.5056 -0.0669 -0.0348
 6408SOL     OW20122   3.989   3.646   3.911 -0.2807 -0.0529 -0.3029
 6408SOL    HW120123   3.895   3.656   3.878 -0.1511  0.8087 -0.4325
 6408SOL    HW220124   4.051   3.635   3.833  0.1958  3.2991 -0.5693
 6409SOL     OW20125   4.041   1.896   1.085 -0.1622 -1.1021 -0.0890
 6409SOL    HW120126   4.049   1.996   1.090  0.2310 -1.1808  1.8798
 6409SOL    HW220127   3.949   1.869   1.113 -0.2568 -1.2861 -0.5867
 6410SOL     OW20128   2.077   0.646   5.313  0.3647  0.0883  0.1659
 6410SOL    HW120129   1.997   0.635   5.255 -0.5271 -1.8648  1.6487
 6410SOL    HW220130   2.156   0.672   5.257 -0.6397 -0.8350 -1.7575
 6411SOL     OW20131   5.581   6.068   4.677 -0.4403  0.7311  0.0893
 6411SOL    HW120132   5.645   6.041   4.749  0.3395  0.3937 -0.7153
 6411SOL    HW220133   5.592   6.166   4.658 -0.7522  0.8554  0.5125
 6412SOL     OW20134   6.744   3.814   0.559  0.0543 -0.3507 -0.0788
 6412SOL    HW120135   6.716   3.908   0.538 -2.2431 -0.8823  0.3080
 6412SOL    HW220136   6.780   3.771   0.476 -0.3173  0.4150 -0.6511
 6413SOL     OW20137   5.817   3.800   3.511  0.1676 -0.2133  0.3261
 6413SOL    HW120138   5.749   3.824   3.580  0.0604 -0.8237  0.4311
 6413SOL    HW220139   5.778   3.815   3.420 -0.1233 -0.6122  0.3858
 6414SOL     OW20140   3.261   1.799   3.687  0.1294 -0.1465 -0.4331
 6414SOL    HW120141   3.288   1.794   3.591 -0.5111  0.7705 -0.6743
 6414SOL    HW220142   3.161   1.793   3.693  0.2475 -1.7409  0.3014
 6415SOL     OW20143   3.393   0.057   5.467 -0.2193  0.0519  0.0777
 6415SOL    HW120144   3.476   0.107   5.443 -0.9191  0.8153 -0.8761
 6415SOL    HW220145   3.416  -0.037   5.493  0.9362  0.2752 -0.0968
 6416SOL     OW20146   1.110   2.010   0.083 -0.0209  0.1396 -0.4231
 6416SOL    HW120147   1.177   2.062   0.136 -0.4707 -2.1632  2.6811
 6416SOL    HW220148   1.018   2.043   0.103 -0.2259 -1.0350  0.6676
 6417SOL     OW20149   1.157   3.872   1.062 -0.3347 -0.1934 -0.2614
 6417SOL    HW120150   1.169   3.907   1.155  1.9918 -0.6292 -0.3129
 6417SOL    HW220151   1.185   3.942   0.997 -2.3421  0.2540 -0.6972
 6418SOL     OW20152   4.009   0.064   6.809 -0.2214 -0.2436  0.4540
 6418SOL    HW120153   3.966   0.027   6.727  0.3348 -0.6522  0.3444
 6418SOL    HW220154   3.941   0.072   6.881 -1.0718  1.5126 -0.4659
 6419SOL     OW20155   3.600   2.410   0.645 -0.0068 -0.7936 -0.2345
 6419SOL    HW120156   3.611   2.331   0.705  0.7042 -1.6531 -1.4380
 6419SOL    HW220157   3.537   2.386   0.570 -0.8072  0.2192  0.0892
 6420SOL     OW20158   0.341   3.284   2.801  0.1941 -0.4703 -0.3078
 6420SOL    HW120159   0.368   3.191   2.825  0.5590 -0.3902 -0.3922
 6420SOL    HW220160   0.296   3.284   2.711  1.0239 -0.4485 -0.7360
 6421SOL     OW20161   6.707   2.235   6.335 -0.4068  0.3378 -0.4576
 6421SOL    HW120162   6.636   2.194   6.392  0.0363  0.2716  0.0573
 6421SOL    HW220163   6.721   2.179   6.254 -0.6943  0.1650 -0.3900
 6422SOL     OW20164   5.390   3.036   0.174 -0.3885 -0.2550 -0.3186
 6422SOL    HW120165   5.438   3.068   0.093  0.6103  1.4007  0.8584
 6422SOL    HW220166   5.447   2.970   0.224 -0.0771  0.3484  0.1366
 6423SOL     OW20167   6.846   0.592   2.918  0.3117 -0.5266 -0.3556
 6423SOL    HW120168   6.878   0.502   2.890  0.8553 -0.0927 -1.1690
 6423SOL    HW220169   6.760   0.583   2.969  0.4925 -1.5137 -0.2120
 6424SOL     OW20170   2.078   2.599   3.879  0.4214  0.3378 -0.3381
 6424SOL    HW120171   2.011   2.598   3.954 -1.3026 -1.1971 -1.7900
 6424SOL    HW220172   2.160   2.549   3.907 -0.9138 -1.8240  0.0044
 6425SOL     OW20173   2.927   5.585   0.815  0.0756 -0.7739  0.3220
 6425SOL    HW120174   3.012   5.559   0.768  0.1062 -1.9907  1.0204
 6425SOL    HW220175   2.900   5.513   0.878 -0.6247  0.3037  1.2931
 6426SOL     OW20176   0.743   6.605   3.029  0.3056  0.1746  0.0063
 6426SOL    HW120177   0.833   6.597   2.987  0.6111 -1.3021  0.8564
 6426SOL    HW220178   0.679   6.646   2.964  1.0299 -0.9548 -1.4911
 6427SOL     OW20179   3.673   4.029   5.747  0.5210 -0.5810  0.3810
 6427SOL    HW120180   3.740   4.060   5.679  0.6579  1.3932  1.3303
 6427SOL    HW220181   3.706   4.052   5.839 -1.1266 -0.2142  0.9125
 6428SOL     OW20182   0.534   1.686   0.664 -0.3642  0.0611 -0.0290
 6428SOL    HW120183   0.568   1.781   0.662  2.5790 -0.8237  1.6953
 6428SOL    HW220184   0.434   1.687   0.660 -0.6728  3.4549  2.8471
 6429SOL     OW20185   6.664   5.602   2.409 -0.6626 -0.1165 -0.1712
 6429SOL    HW120186   6.752   5.620   2.365  0.1880 -0.0748  1.4797
 6429SOL    HW220187   6.673   5.523   2.470 -2.0771 -0.8034 -0.8018
 6430SOL     OW20188   2.757   2.489   5.369  0.1649 -0.2186 -0.3679
 6430SOL    HW120189   2.757   2.433   5.452  0.2659 -1.0816 -0.9333
 6430SOL    HW220190   2.773   2.430   5.290 -0.0945  0.5708 -1.0177
 6431SOL     OW20191   0.908   2.591   0.533  0.7305 -0.3563  0.5491
 6431SOL    HW120192   0.940   2.540   0.612  2.3444 -0.1005  0.0934
 6431SOL    HW220193   0.857   2.530   0.472 -1.2101 -0.3883  2.1009
 6432SOL     OW20194   0.793   5.534   1.522 -0.4850 -0.4589  0.2413
 6432SOL    HW120195   0.828   5.553   1.614 -1.2779  1.3759  0.2229
 6432SOL    HW220196   0.729   5.606   1.496  0.2125 -0.5753 -2.0197
 6433SOL     OW20197   6.565   4.533   1.366  0.0915  0.3651  0.0998
 6433SOL    HW120198   6.542   4.465   1.436 -0.8814  2.9618  2.5258
 6433SOL    HW220199   6.609   4.612   1.410  1.0314  1.4087 -2.5290
 6434SOL     OW20200   5.516   3.140   0.719 -0.2418 -0.1853  0.3853
 6434SOL    HW120201   5.485   3.192   0.798 -2.0632  1.6582 -1.3940
 6434SOL    HW220202   5.481   3.046   0.725 -1.4808  0.2980  1.1604
 6435SOL     OW20203   1.350   3.719   2.902  0.2123  0.2983 -0.0657
 6435SOL    HW120204   1.368   3.625   2.872 -0.1612  0.5747 -1.1962
 6435SOL    HW220205   1.430   3.755   2.949  0.6845 -0.2788 -0.4126
 6436SOL     OW20206   6.232   5.292   6.841  0.0532  0.4027 -0.3571
 6436SOL    HW120207   6.165   5.284   6.916 -0.6131  0.7196 -0.9051
 6436SOL    HW220208   6.317   5.248   6.868 -0.6944 -0.9003  0.0018
 6437SOL     OW20209   0.075   4.670   5.074  0.2981 -0.0385 -0.7411
 6437SOL    HW120210   0.081   4.572   5.056 -0.4047 -0.2881  0.2883
 6437SOL    HW220211   0.067   4.720   4.988 -0.6441 -0.9904 -1.2191
 6438SOL     OW20212   6.823   5.972   0.488  0.2270  0.1440 -0.8583
 6438SOL    HW120213   6.724   5.960   0.475 -0.2299  2.3804  0.1267
 6438SOL    HW220214   6.847   5.954   0.583  0.6211  0.4103 -0.9057
 6439SOL     OW20215   1.140   3.447   0.428  0.1859 -0.3207  0.3903
 6439SOL    HW120216   1.219   3.433   0.368 -0.8323  1.2217 -1.4378
 6439SOL    HW220217   1.091   3.361   0.440  0.2640 -0.6250 -1.2791
 6440SOL     OW20218   5.004   4.085   1.363 -0.4262  0.3083 -0.1311
 6440SOL    HW120219   5.055   4.162   1.325 -0.9911  0.6950 -0.1045
 6440SOL    HW220220   5.010   4.086   1.462  0.4378 -0.2853 -0.1650
 6441SOL     OW20221   0.042   3.724   2.568 -0.0034  0.2934  0.1240
 6441SOL    HW120222   0.042   3.732   2.468  1.3435 -1.0347 -0.0216
 6441SOL    HW220223  -0.037   3.671   2.597  0.0521 -0.0339 -0.3147
 6442SOL     OW20224   2.278   6.706   5.658  0.0527 -0.2212  0.4218
 6442SOL    HW120225   2.358   6.671   5.706  0.3553 -0.0694  0.0293
 6442SOL    HW220226   2.275   6.668   5.566 -0.8311 -0.9520  0.7373
 6443SOL     OW20227   4.078   2.756   5.325  0.0537  0.2007 -0.3003
 6443SOL    HW120228   4.131   2.744   5.409 -1.6838  0.0202  0.8213
 6443SOL    HW220229   4.083   2.672   5.271  0.2891 -0.0830  0.1563
 6444SOL     OW20230   0.952   4.548   4.387 -0.3469  0.6634 -0.1275
 6444SOL    HW120231   0.859   4.514   4.378  0.2435 -0.9810 -0.5182
 6444SOL    HW220232   0.952   4.647   4.396 -2.3105  0.5346  2.4881
 6445SOL     OW20233   5.229   2.835   5.637 -0.0076  0.7021 -0.0628
 6445SOL    HW120234   5.173   2.777   5.696  0.2213  0.9886  0.4486
 6445SOL    HW220235   5.233   2.796   5.545 -0.6113  0.4059  0.0343
 6446SOL     OW20236   6.910   6.568   3.883 -0.1504 -0.0505 -0.2972
 6446SOL    HW120237   6.961   6.652   3.866  1.3960 -0.9677 -0.4520
 6446SOL    HW220238   6.860   6.575   3.969  2.0102  0.1485  1.0252
 6447SOL     OW20239   5.555   3.074   4.193 -0.3376 -0.3799  0.1793
 6447SOL    HW120240   5.616   3.077   4.271  0.3222 -2.1905 -0.2238
 6447SOL    HW220241   5.592   3.013   4.123 -1.3811  0.4412 -1.1552
 6448SOL     OW20242   3.273   5.356   6.218  0.4100 -0.2269  0.5260
 6448SOL    HW120243   3.338   5.327   6.289  0.3433 -1.5262  0.0840
 6448SOL    HW220244   3.189   5.302   6.226 -1.0754  2.0690  1.6970
 6449SOL     OW20245   7.005   5.758   5.507  0.5202 -0.1530  0.1010
 6449SOL    HW120246   6.967   5.850   5.518  0.9254  0.0572 -0.1893
 6449SOL    HW220247   7.077   5.743   5.574  1.2828  0.2017 -0.6129
 6450SOL     OW20248   0.345   3.679   5.719  0.2989  0.0937 -0.3074
 6450SOL    HW120249   0.337   3.590   5.764  0.1195  0.7942  1.0800
 6450SOL    HW220250   0.429   3.724   5.749  0.2550  0.5173 -0.8003
 6451SOL     OW20251   2.476   0.633   2.615  0.3940 -0.5639 -0.1764
 6451SOL    HW120252   2.461   0.537   2.639  1.6521 -0.5224  0.8680
 6451SOL    HW220253   2.428   0.691   2.680  1.0998 -0.4852  0.2888
 6452SOL     OW20254   4.607   1.863   5.583 -0.3853 -0.6238  0.1373
 6452SOL    HW120255   4.550   1.787   5.552 -1.7859 -0.2602  1.6816
 6452SOL    HW220256   4.638   1.847   5.676  1.6726 -0.5518 -0.4784
 6453SOL     OW20257   2.026   1.632   2.329 -0.1552 -0.2859 -0.5083
 6453SOL    HW120258   2.123   1.621   2.350 -0.2150 -1.2753 -0.6976
 6453SOL    HW220259   1.974   1.639   2.414 -0.0377 -0.8839 -0.3853
 6454SOL     OW20260   2.503   4.715   0.358  0.4316  0.4166 -0.1962
 6454SOL    HW120261   2.575   4.774   0.322 -0.8190  0.8543 -2.1655
 6454SOL    HW220262   2.522   4.620   0.333 -0.6761  0.7676 -2.7011
 6455SOL     OW20263   1.428   1.074   1.455 -0.1738  0.5972  0.1862
 6455SOL    HW120264   1.336   1.035   1.445 -0.1616  0.4546  0.6319
 6455SOL    HW220265   1.480   1.057   1.371 -0.9915  1.8655 -0.6295
 6456SOL     OW20266   0.344   4.703   1.689  0.3752  0.2192 -0.4865
 6456SOL    HW120267   0.257   4.712   1.642  1.3431 -0.0733 -2.4205
 6456SOL    HW220268   0.330   4.712   1.788 -1.7236  0.8005 -0.8013
 6457SOL     OW20269   6.968   6.034   5.915 -0.2451  0.1847  0.1970
 6457SOL    HW120270   6.989   6.131   5.922 -1.3318  0.6198 -1.8487
 6457SOL    HW220271   6.933   6.001   6.002  0.9842  1.3765  1.1950
 6458SOL     OW20272   5.275   5.579   5.469  0.3846 -0.1339  0.0795
 6458SOL    HW120273   5.261   5.646   5.395  0.9446 -0.3082 -0.1840
 6458SOL    HW220274   5.347   5.515   5.443  0.6194 -0.1690  0.7988
 6459SOL     OW20275   0.589   4.301   1.383 -0.2210  0.1510  0.4244
 6459SOL    HW120276   0.666   4.239   1.395  0.1765  0.5525 -0.0221
 6459SOL    HW220277   0.614   4.374   1.319 -0.3505  1.3313  1.6827
 6460SOL     OW20278   1.518   3.328   3.735  0.3996 -0.7660 -0.2857
 6460SOL    HW120279   1.540   3.234   3.710  1.8795 -0.3638 -0.5614
 6460SOL    HW220280   1.592   3.389   3.706 -1.0123  0.6453 -1.0680
 6461SOL     OW20281   5.417   1.447   4.100 -0.2092  0.5320 -0.1169
 6461SOL    HW120282   5.495   1.467   4.159  0.1322  1.6036 -0.8988
 6461SOL    HW220283   5.442   1.464   4.004 -1.1036 -0.0566 -0.4708
 6462SOL     OW20284   1.615   4.732   0.561 -0.0720  0.2044  0.3694
 6462SOL    HW120285   1.695   4.681   0.529  1.3150 -0.2368  4.0814
 6462SOL    HW220286   1.644   4.819   0.601 -1.8306  1.3897 -0.7936
 6463SOL     OW20287   5.085   0.998   3.028  0.0009  0.0488  0.1543
 6463SOL    HW120288   5.050   1.091   3.019  0.4401  0.3698  1.6403
 6463SOL    HW220289   5.136   0.988   3.113 -1.1033 -1.8947  0.6635
 6464SOL     OW20290   6.711   3.351   4.870 -0.7613  0.7081 -0.6021
 6464SOL    HW120291   6.646   3.413   4.826 -1.4842  1.6644  1.6613
 6464SOL    HW220292   6.773   3.403   4.928 -1.5392 -0.6412  1.5689
 6465SOL     OW20293   5.184   2.003   5.279 -0.1473  0.0106  0.0559
 6465SOL    HW120294   5.241   2.076   5.317 -4.4194  3.0287  1.3445
 6465SOL    HW220295   5.175   1.929   5.345  1.3449 -0.0302  0.2368
 6466SOL     OW20296   1.668   5.114   1.598 -0.3258  0.5540 -0.2446
 6466SOL    HW120297   1.749   5.090   1.545  0.4253  0.3578  0.9557
 6466SOL    HW220298   1.643   5.037   1.657 -0.1741  1.3272  0.8636
 6467SOL     OW20299   6.844   5.970   4.387 -0.2158  0.1281 -0.2522
 6467SOL    HW120300   6.936   5.933   4.398  0.6743  2.2676  0.0873
 6467SOL    HW220301   6.843   6.032   4.308 -0.9108  1.3783  0.7034
 6468SOL     OW20302   0.225   3.684   1.765  0.0351 -0.0729 -0.4372
 6468SOL    HW120303   0.301   3.721   1.712 -0.6413 -0.4236 -1.7217
 6468SOL    HW220304   0.259   3.614   1.827  0.7320 -0.4753 -1.2412
 6469SOL     OW20305   3.466   4.097   2.810  0.5878  0.5938  0.4703
 6469SOL    HW120306   3.373   4.099   2.846 -0.0472 -4.0258 -0.2834
 6469SOL    HW220307   3.526   4.050   2.875  1.2246 -0.6844 -0.9603
 6470SOL     OW20308   0.889   3.970   3.368 -0.4109 -0.2821  0.3263
 6470SOL    HW120309   0.806   4.021   3.343  0.2271  1.1662  1.0349
 6470SOL    HW220310   0.955   4.033   3.409  0.5693 -1.6446  0.8898
 6471SOL     OW20311   6.310   2.031   6.295 -0.6488 -0.1426  0.0211
 6471SOL    HW120312   6.282   2.105   6.356 -0.3905  0.1847 -0.2538
 6471SOL    HW220313   6.351   1.957   6.348  0.2827  0.4643  0.1760
 6472SOL     OW20314   2.180   5.403   5.603 -0.2834 -0.0879  0.4082
 6472SOL    HW120315   2.152   5.440   5.692  0.1009  2.8700 -0.5824
 6472SOL    HW220316   2.250   5.333   5.617 -1.4733 -0.9478  2.4716
 6473SOL     OW20317   4.075   5.073   3.882 -0.8081  0.1065 -0.1213
 6473SOL    HW120318   4.058   4.977   3.902  0.1559 -0.2587 -0.9313
 6473SOL    HW220319   4.067   5.127   3.966  0.8891 -1.0263  0.8356
 6474SOL     OW20320   5.366   2.992   5.281  0.5239 -0.0719 -0.5497
 6474SOL    HW120321   5.315   2.908   5.303  2.3235 -1.2457 -0.6511
 6474SOL    HW220322   5.319   3.040   5.207 -0.0014 -1.5709 -1.2466
 6475SOL     OW20323   4.711   4.988   1.148 -0.8009 -0.5749  0.0732
 6475SOL    HW120324   4.741   5.004   1.054 -1.2352 -1.2379 -0.1888
 6475SOL    HW220325   4.644   4.913   1.149  0.4800 -1.7545  1.1154
 6476SOL     OW20326   2.758   2.679   6.561 -1.0690  0.6045 -0.3187
 6476SOL    HW120327   2.732   2.689   6.657  1.4832  0.2890  0.4831
 6476SOL    HW220328   2.815   2.597   6.550 -0.6223  1.0908 -1.9325
 6477SOL     OW20329   1.175   4.131   6.474 -0.8859  0.5466  0.0631
 6477SOL    HW120330   1.254   4.102   6.528  0.8337  0.7690 -2.2029
 6477SOL    HW220331   1.185   4.226   6.446 -1.6647  0.4181 -0.7287
 6478SOL     OW20332   6.776   6.389   5.981  0.6063 -0.6572  0.0628
 6478SOL    HW120333   6.851   6.336   6.020  1.2373 -0.0837 -0.3383
 6478SOL    HW220334   6.725   6.435   6.055  1.5924  0.1653  0.2575
 6479SOL     OW20335   4.021   6.315   2.731 -0.3188  0.1874  0.0394
 6479SOL    HW120336   4.103   6.257   2.730  0.3350  1.0727  0.6674
 6479SOL    HW220337   4.000   6.344   2.637  1.2081  1.4471  0.0358
 6480SOL     OW20338   5.720   6.510   3.750 -0.0738  0.0857  0.3656
 6480SOL    HW120339   5.702   6.448   3.827  1.7919 -1.3341 -0.2734
 6480SOL    HW220340   5.650   6.582   3.749 -0.3356  0.0018  3.2015
 6481SOL     OW20341   2.447   0.623   2.146 -0.2185 -0.0380  0.2187
 6481SOL    HW120342   2.407   0.706   2.184 -1.2121 -0.0033 -0.8602
 6481SOL    HW220343   2.377   0.571   2.097  0.4483 -1.3698  0.6074
 6482SOL     OW20344   3.183   0.136   2.688 -0.1069  0.2415 -0.7012
 6482SOL    HW120345   3.124   0.214   2.709 -0.9056 -0.2675 -1.0184
 6482SOL    HW220346   3.250   0.163   2.618  0.0987  0.8407 -0.2850
 6483SOL     OW20347   0.493   0.014   1.834 -0.1300  0.2320  0.0484
 6483SOL    HW120348   0.566  -0.018   1.773  0.8205  0.5765  0.9708
 6483SOL    HW220349   0.503   0.112   1.849 -1.1468  0.3987 -0.2673
 6484SOL     OW20350   4.971   5.265   0.664 -0.4874  0.3793 -0.4010
 6484SOL    HW120351   4.890   5.302   0.710  0.1913  2.2530 -0.6437
 6484SOL    HW220352   5.051   5.319   0.688  0.8872 -1.8715  0.3954
 6485SOL     OW20353   3.459   3.560   5.250 -0.0727  0.1790  0.1111
 6485SOL    HW120354   3.549   3.588   5.282  0.2822 -0.6783 -0.1097
 6485SOL    HW220355   3.457   3.559   5.150 -0.4164  0.4684  0.1130
 6486SOL     OW20356   5.332   2.722   0.466 -0.1841 -0.0542  0.1174
 6486SOL    HW120357   5.323   2.628   0.432 -0.5267  0.6817 -1.9736
 6486SOL    HW220358   5.242   2.761   0.482 -0.0876  0.2939 -0.1661
 6487SOL     OW20359   5.165   3.473   3.822  0.6409  0.6287  0.3394
 6487SOL    HW120360   5.104   3.394   3.819  0.9923  0.3843 -2.1454
 6487SOL    HW220361   5.111   3.555   3.841 -0.3992  0.3218 -1.1006
 6488SOL     OW20362   1.742   2.198   3.604  0.6888 -0.6085  0.1922
 6488SOL    HW120363   1.741   2.119   3.665 -0.8478 -0.2564  0.6777
 6488SOL    HW220364   1.681   2.269   3.641 -1.6923 -1.0263 -2.5762
 6489SOL     OW20365   0.414   0.425   4.665  0.2175 -0.2010 -0.1929
 6489SOL    HW120366   0.505   0.430   4.704 -0.0610 -0.2001  0.4691
 6489SOL    HW220367   0.418   0.449   4.568  0.6175  1.7804  0.2742
 6490SOL     OW20368   0.910   1.483   6.532 -0.2253 -0.1128  0.4139
 6490SOL    HW120369   0.998   1.477   6.578  0.4195 -1.2252 -0.8762
 6490SOL    HW220370   0.907   1.414   6.459 -2.9159 -1.4606  1.6590
 6491SOL     OW20371   0.572   1.908   2.204  0.3771  0.5306 -0.1367
 6491SOL    HW120372   0.668   1.925   2.226  0.9868 -2.6680  0.1621
 6491SOL    HW220373   0.523   1.995   2.195  2.7962  2.2077  1.8195
 6492SOL     OW20374   3.581   3.019   4.150  0.5926  0.2186 -0.1065
 6492SOL    HW120375   3.641   3.071   4.089 -0.0583  1.9616  0.6816
 6492SOL    HW220376   3.635   2.981   4.225  1.0490 -0.1446 -0.6059
 6493SOL     OW20377   1.484   4.508   5.091 -0.5963 -0.7283  0.1690
 6493SOL    HW120378   1.430   4.581   5.132 -0.6583 -0.4168 -0.4478
 6493SOL    HW220379   1.547   4.469   5.159  1.0773  1.4280 -0.0290
 6494SOL     OW20380   5.643   5.625   1.121 -0.3285 -0.2896 -0.0449
 6494SOL    HW120381   5.675   5.716   1.094  1.8010 -0.8251  0.4942
 6494SOL    HW220382   5.579   5.634   1.198 -0.2220  0.7545 -0.0620
 6495SOL     OW20383   5.369   2.046   3.840 -0.2533  0.1767 -0.0993
 6495SOL    HW120384   5.334   2.079   3.752  0.2113  1.1613  0.0713
 6495SOL    HW220385   5.356   1.947   3.846 -2.0281  0.3487 -0.4904
 6496SOL     OW20386   2.029   2.605   3.577  0.1797 -0.2719 -0.2370
 6496SOL    HW120387   2.056   2.588   3.671 -0.6411 -1.3722 -0.1823
 6496SOL    HW220388   2.021   2.703   3.561 -0.8760 -0.1039  1.1924
 6497SOL     OW20389   1.973   1.459   2.932 -0.6578 -0.2590  0.3213
 6497SOL    HW120390   2.041   1.484   3.001  0.9064  0.1918 -1.3052
 6497SOL    HW220391   2.017   1.456   2.842 -2.7947 -0.0270 -0.7835
 6498SOL     OW20392   5.212   6.588   4.203 -0.0081 -0.6498  0.1387
 6498SOL    HW120393   5.164   6.584   4.291 -1.3479  1.7128 -0.3920
 6498SOL    HW220394   5.181   6.513   4.145 -3.2047  0.7465 -0.1645
 6499SOL     OW20395   5.658   1.318   4.851  0.6509  0.0823  0.6915
 6499SOL    HW120396   5.630   1.359   4.764  1.1323 -1.0306 -0.0173
 6499SOL    HW220397   5.586   1.256   4.883  0.7467  0.0043  0.7551
 6500SOL     OW20398   2.747   5.723   5.564  0.0093  0.1057  0.0591
 6500SOL    HW120399   2.664   5.741   5.512 -0.1736  2.1661  0.9753
 6500SOL    HW220400   2.802   5.806   5.570  1.2360 -0.7289  1.0521
 6501SOL     OW20401   0.693   4.594   6.669 -0.2600  0.0317 -0.3819
 6501SOL    HW120402   0.606   4.640   6.650 -0.3238  0.1560  0.1721
 6501SOL    HW220403   0.769   4.654   6.647 -0.3480  0.5545  0.6713
 6502SOL     OW20404   3.272   2.166   3.069 -0.1989  0.0460  0.6363
 6502SOL    HW120405   3.263   2.185   2.971  0.0826 -1.1206  0.3589
 6502SOL    HW220406   3.185   2.184   3.115 -0.3025  0.7036  0.1871
 6503SOL     OW20407   4.020   3.467   4.348  0.1320 -0.3050 -0.7306
 6503SOL    HW120408   3.920   3.477   4.354 -0.1339 -1.1701 -2.7572
 6503SOL    HW220409   4.051   3.404   4.420 -0.5509  1.0118  0.7888
 6504SOL     OW20410   2.137   6.574   6.319 -0.3156 -0.4673 -0.0304
 6504SOL    HW120411   2.192   6.498   6.350 -0.2208 -0.5795 -0.4642
 6504SOL    HW220412   2.107   6.557   6.225  1.0512  0.7499 -0.7264
 6505SOL     OW20413   0.391   5.055   1.320 -0.1332  0.5741 -0.4355
 6505SOL    HW120414   0.318   5.000   1.361  1.6066 -1.5875 -0.0832
 6505SOL    HW220415   0.458   5.079   1.389 -0.6916  2.9869 -0.6490
 6506SOL     OW20416   0.995   2.669   1.908  0.2087 -0.3339 -0.0296
 6506SOL    HW120417   1.063   2.644   1.839  1.1456 -0.5010  0.9187
 6506SOL    HW220418   0.986   2.595   1.974 -1.1101 -0.4205 -0.2773
 6507SOL     OW20419   5.425   5.965   2.304  0.4124 -0.0548  0.3100
 6507SOL    HW120420   5.344   5.927   2.258  0.7380  0.0592 -0.3559
 6507SOL    HW220421   5.421   6.065   2.301  0.6501 -0.0498  0.1494
 6508SOL     OW20422   5.781   5.008   2.424 -0.3138 -0.3778 -0.5422
 6508SOL    HW120423   5.761   5.054   2.338 -1.3917  0.6471  0.2223
 6508SOL    HW220424   5.736   4.919   2.426 -1.6885  0.2982 -0.3926
 6509SOL     OW20425   6.080   5.646   5.438  0.1801 -0.7582 -0.1162
 6509SOL    HW120426   6.047   5.553   5.427 -2.0665  0.1514 -2.1746
 6509SOL    HW220427   6.128   5.674   5.354 -0.4138  0.3663 -0.0968
 6510SOL     OW20428   3.699   0.493   0.839  0.4091 -0.0615  0.2346
 6510SOL    HW120429   3.775   0.447   0.793 -0.5262  0.5269 -2.0756
 6510SOL    HW220430   3.631   0.426   0.866  0.1861 -0.2921 -0.8562
 6511SOL     OW20431   3.922   5.433   0.149 -0.1321  0.2175  0.3794
 6511SOL    HW120432   3.898   5.344   0.109  1.6595  0.9446 -2.6704
 6511SOL    HW220433   4.021   5.446   0.145 -0.4099  2.6886 -0.1130
 6512SOL     OW20434   1.049   6.831   4.161 -0.3850  0.6368  0.0685
 6512SOL    HW120435   1.076   6.842   4.256  1.8273 -1.2693 -0.2417
 6512SOL    HW220436   1.106   6.891   4.103 -0.8040  0.8168 -0.1609
 6513SOL     OW20437   5.105   2.512   1.667  0.2171 -0.4985 -0.1379
 6513SOL    HW120438   5.169   2.586   1.645  0.5602  0.1149  2.5101
 6513SOL    HW220439   5.085   2.514   1.765  0.7519 -4.3158  0.2204
 6514SOL     OW20440   5.437   6.361   0.409 -0.4143 -0.8629 -0.1631
 6514SOL    HW120441   5.379   6.431   0.367  0.4455  0.8632  1.3391
 6514SOL    HW220442   5.404   6.341   0.501  2.0780  1.3164  1.3533
 6515SOL     OW20443   1.359   4.216   6.190  0.6850  0.4157  0.3174
 6515SOL    HW120444   1.335   4.290   6.253 -0.6678  0.2283  0.0485
 6515SOL    HW220445   1.354   4.249   6.096  1.6495  0.4055  0.2576
 6516SOL     OW20446   6.513   5.578   5.183 -0.0195  0.0036 -0.2419
 6516SOL    HW120447   6.501   5.510   5.111  0.3153  0.1466 -0.4338
 6516SOL    HW220448   6.456   5.553   5.262  0.6953 -0.9397 -0.0002
 6517SOL     OW20449   6.289   5.330   2.076  0.3246  0.2744  0.4553
 6517SOL    HW120450   6.209   5.276   2.052  1.2811 -1.3104  0.6854
 6517SOL    HW220451   6.260   5.417   2.116 -1.2614  0.3589 -0.7663
 6518SOL     OW20452   3.611   3.641   0.038  0.2949  0.7015 -0.2863
 6518SOL    HW120453   3.641   3.573  -0.029 -0.1497 -0.8378  1.0172
 6518SOL    HW220454   3.669   3.722   0.032  1.6294 -0.2819 -1.0511
 6519SOL     OW20455   3.165   3.690   5.197  0.3704 -0.1646  0.0544
 6519SOL    HW120456   3.112   3.741   5.265 -0.5533  0.3464 -1.0141
 6519SOL    HW220457   3.109   3.614   5.162  0.4065  0.2588 -0.9477
 6520SOL     OW20458   5.954   0.395   5.070  0.3631 -0.0157 -0.0549
 6520SOL    HW120459   5.992   0.336   5.142 -0.8395 -2.5120 -1.3280
 6520SOL    HW220460   6.024   0.413   5.001  0.8411  0.3633  0.5186
 6521SOL     OW20461   5.120   0.994   1.427  0.1454 -0.2122 -0.5255
 6521SOL    HW120462   5.088   1.080   1.467 -0.2031 -1.0020  0.9406
 6521SOL    HW220463   5.183   0.949   1.489 -0.3022 -1.4081 -0.9089
 6522SOL     OW20464   0.054   3.062   2.184 -0.3621  0.2640  0.1873
 6522SOL    HW120465   0.062   3.046   2.085  1.1891  1.2276  0.1287
 6522SOL    HW220466   0.059   3.160   2.202 -3.2067  0.3365  1.0550
 6523SOL     OW20467   5.306   5.657   6.439  0.4513  0.4817 -0.1757
 6523SOL    HW120468   5.239   5.583   6.447  0.2355  0.8771  2.2994
 6523SOL    HW220469   5.286   5.711   6.357 -0.2603 -1.3071 -1.2493
 6524SOL     OW20470   0.877   0.113   2.595  0.2322  0.2877 -0.1273
 6524SOL    HW120471   0.922   0.029   2.564  1.0063  1.4113 -2.2011
 6524SOL    HW220472   0.780   0.095   2.610  0.6474 -1.3138  0.9908
 6525SOL     OW20473   4.104   3.568   6.101  0.2667 -0.9087  0.5652
 6525SOL    HW120474   4.147   3.647   6.145 -0.4740 -0.3373  0.2615
 6525SOL    HW220475   4.172   3.495   6.092  0.6515 -0.7481  1.9243
 6526SOL     OW20476   4.465   6.748   4.068 -0.0423  0.1747 -0.5014
 6526SOL    HW120477   4.411   6.776   4.147 -0.0979  0.5151 -0.6592
 6526SOL    HW220478   4.435   6.658   4.037 -1.1035  0.7112 -1.1018
 6527SOL     OW20479   5.856   4.457   4.456 -0.1886 -0.1048  0.0404
 6527SOL    HW120480   5.905   4.399   4.390  1.0535  0.0511  0.7933
 6527SOL    HW220481   5.760   4.430   4.458  0.4918 -2.8074  1.0187
 6528SOL     OW20482   1.747   2.604   2.824  0.1546  0.1460  0.1522
 6528SOL    HW120483   1.788   2.618   2.914  0.0035 -3.4485  0.8994
 6528SOL    HW220484   1.648   2.614   2.832  0.3004  3.0155 -0.4234
 6529SOL     OW20485   1.726   1.575   0.547  0.1086  0.8425 -0.0838
 6529SOL    HW120486   1.677   1.632   0.614  0.5158  1.7661 -0.5477
 6529SOL    HW220487   1.756   1.632   0.470  1.3039  0.1685 -0.1486
 6530SOL     OW20488   6.233   6.141   2.272 -0.4690  0.2766 -0.3716
 6530SOL    HW120489   6.242   6.177   2.365 -1.9560  0.4420 -0.2716
 6530SOL    HW220490   6.300   6.067   2.258 -1.9254 -1.5663  1.7308
 6531SOL     OW20491   6.534   4.237   2.228 -0.8209  0.5116  0.9461
 6531SOL    HW120492   6.622   4.236   2.182 -1.9831  1.9047 -1.4443
 6531SOL    HW220493   6.544   4.196   2.319  2.3764  1.1817  1.0017
 6532SOL     OW20494   0.372   4.652   5.664 -0.2594  0.4240  0.3507
 6532SOL    HW120495   0.299   4.648   5.596 -0.6275 -1.0577  0.7810
 6532SOL    HW220496   0.458   4.674   5.618 -0.2783 -1.6723 -0.8419
 6533SOL     OW20497   3.304   5.015   1.554  0.2501  0.4226 -0.4153
 6533SOL    HW120498   3.333   4.978   1.642 -0.3411  0.3997 -0.2260
 6533SOL    HW220499   3.233   5.084   1.568 -1.0663 -0.7552 -0.9407
 6534SOL     OW20500   1.828   4.000   1.619 -0.1836  0.0366 -0.3638
 6534SOL    HW120501   1.760   4.056   1.666  0.6277 -0.1799  1.1230
 6534SOL    HW220502   1.792   3.908   1.606 -0.4904  0.1513 -0.3402
 6535SOL     OW20503   6.177   3.847   3.024 -0.1227 -0.5298  0.2537
 6535SOL    HW120504   6.171   3.831   2.925 -3.0868  1.8248 -0.0850
 6535SOL    HW220505   6.100   3.803   3.069  0.8142 -0.9734  1.4622
 6536SOL     OW20506   5.258   5.538   2.527  0.1750  0.5303 -0.0615
 6536SOL    HW120507   5.191   5.464   2.529 -0.3519  0.9251 -1.4387
 6536SOL    HW220508   5.349   5.501   2.511  0.0939  0.0920  0.4797
 6537SOL     OW20509   6.146   1.601   2.195 -0.5113 -0.1757  0.0460
 6537SOL    HW120510   6.181   1.621   2.287 -0.2514  1.2713 -0.3329
 6537SOL    HW220511   6.167   1.679   2.135  0.4439 -1.6146 -1.5604
 6538SOL     OW20512   1.396   2.536   5.055  0.3635  0.0987  0.0912
 6538SOL    HW120513   1.397   2.442   5.020  0.6252  0.0697  0.1816
 6538SOL    HW220514   1.489   2.569   5.065  0.2699  0.4139 -0.0587
 6539SOL     OW20515   6.130   0.994   1.591 -0.1203  0.2789 -0.5438
 6539SOL    HW120516   6.162   1.086   1.613 -0.0937  0.7589 -2.4255
 6539SOL    HW220517   6.070   0.997   1.511 -1.0608 -1.2084  0.0542
 6540SOL     OW20518   0.423   2.144   2.224 -1.3882  0.2433 -0.1441
 6540SOL    HW120519   0.341   2.100   2.186 -0.5223 -1.2218 -0.3866
 6540SOL    HW220520   0.413   2.152   2.324 -0.7504 -2.4478  0.2092
 6541SOL     OW20521   2.890   0.613   7.000  0.4524  0.4113  0.4137
 6541SOL    HW120522   2.946   0.542   6.958 -1.7669 -0.8631 -0.5790
 6541SOL    HW220523   2.793   0.589   6.991 -0.2863  2.1836  2.6005
 6542SOL     OW20524   2.158   5.074   0.823 -0.8810 -0.2223 -0.1177
 6542SOL    HW120525   2.130   5.150   0.882 -1.5510 -0.3829 -0.2213
 6542SOL    HW220526   2.241   5.100   0.773 -1.1375  0.4701 -0.2064
 6543SOL     OW20527   6.830   3.150   2.347  0.2633 -0.4377  0.2590
 6543SOL    HW120528   6.866   3.165   2.256  2.7156  0.8616  1.3426
 6543SOL    HW220529   6.738   3.109   2.341  0.7767 -1.3691 -2.7068
 6544SOL     OW20530   3.683   0.883   5.188  0.4525 -0.3012  0.1257
 6544SOL    HW120531   3.646   0.965   5.145  1.3504  0.7831  1.3325
 6544SOL    HW220532   3.646   0.874   5.280 -0.5875 -1.9700 -0.4097
 6545SOL     OW20533   4.896   0.827   1.451  0.3022 -0.5287  0.1268
 6545SOL    HW120534   4.954   0.767   1.506  1.0904  1.2392  1.3559
 6545SOL    HW220535   4.937   0.919   1.449 -1.5867  0.3526 -0.4256
 6546SOL     OW20536   4.204   0.209   1.996  0.6737 -0.1371 -0.2749
 6546SOL    HW120537   4.111   0.206   2.035  0.4647 -0.2109 -0.7763
 6546SOL    HW220538   4.266   0.158   2.055  0.3214 -0.4036 -0.1304
 6547SOL     OW20539   2.335   0.994   5.766 -0.5600 -0.1820  0.6094
 6547SOL    HW120540   2.258   0.931   5.759 -0.9889  0.5063 -3.0346
 6547SOL    HW220541   2.414   0.946   5.806 -1.3904 -2.4792 -0.3358
 6548SOL     OW20542   2.682   0.330   6.684  0.8565 -0.5594  0.3022
 6548SOL    HW120543   2.591   0.370   6.674  0.1786 -1.7043  1.6108
 6548SOL    HW220544   2.751   0.396   6.655 -0.3314  0.7132  0.3081
 6549SOL     OW20545   1.531   1.795   1.560 -0.1027  0.8511 -0.2613
 6549SOL    HW120546   1.510   1.723   1.627 -0.4821  1.5805  0.4198
 6549SOL    HW220547   1.557   1.879   1.608  1.1916  0.9331 -1.0609
 6550SOL     OW20548   2.133   0.475   6.012 -0.1484  0.7174 -0.1103
 6550SOL    HW120549   2.045   0.493   5.968 -0.6055 -0.8980  0.0518
 6550SOL    HW220550   2.124   0.393   6.069  1.5437  0.3701 -0.3139
 6551SOL     OW20551   4.569   4.875   6.967  0.1716  0.2625  0.2064
 6551SOL    HW120552   4.496   4.821   6.927 -0.3476  0.2212  1.1636
 6551SOL    HW220553   4.585   4.957   6.912 -0.5211  0.2123 -0.0758
 6552SOL     OW20554   2.389   2.925   5.518  0.4225  0.4223 -0.3321
 6552SOL    HW120555   2.399   2.885   5.426 -0.6261 -1.4408  0.3105
 6552SOL    HW220556   2.433   2.866   5.585 -1.0539  0.3624  0.6469
 6553SOL     OW20557   3.133   2.155   3.705 -0.1587  0.4121  0.0229
 6553SOL    HW120558   3.214   2.177   3.760 -0.1837  1.5320 -0.3771
 6553SOL    HW220559   3.055   2.143   3.766  0.4995 -1.8869  0.5394
 6554SOL     OW20560   3.126   4.848   4.828  0.1283  0.1132 -0.1637
 6554SOL    HW120561   3.194   4.781   4.800 -0.2544 -0.9458  1.3418
 6554SOL    HW220562   3.131   4.863   4.927  0.5463  2.7321 -0.4857
 6555SOL     OW20563   0.268   0.076   6.073 -0.3596 -0.6545 -0.0600
 6555SOL    HW120564   0.210   0.085   6.153 -0.8953  1.2375 -0.6169
 6555SOL    HW220565   0.219   0.108   5.992  1.1109  0.1003 -0.6942
 6556SOL     OW20566   3.693   3.037   5.680 -0.0019 -0.1498 -0.2154
 6556SOL    HW120567   3.793   3.042   5.677  0.1315 -1.9566 -3.7596
 6556SOL    HW220568   3.654   3.120   5.640  0.0632  0.2429  0.5142
 6557SOL     OW20569   6.300   0.884   2.682 -0.6605 -0.4265 -0.4589
 6557SOL    HW120570   6.350   0.911   2.600  1.1653 -0.9572  0.4223
 6557SOL    HW220571   6.288   0.784   2.682  2.1868 -0.8746  1.3429
 6558SOL     OW20572   5.755   0.634   6.679 -0.7451 -0.2715 -0.2113
 6558SOL    HW120573   5.787   0.626   6.584 -2.1675 -2.8408 -0.5552
 6558SOL    HW220574   5.834   0.636   6.740  0.2037  1.4696 -1.3882
 6559SOL     OW20575   5.809   2.907   2.537 -0.0621  0.3087  0.4192
 6559SOL    HW120576   5.744   2.867   2.602  0.5910 -2.0575 -0.3007
 6559SOL    HW220577   5.799   2.863   2.448  0.7650  1.7574 -0.4304
 6560SOL     OW20578   4.065   0.746   5.929 -0.5400  0.6585  0.3233
 6560SOL    HW120579   3.991   0.680   5.917 -0.5498  0.9714 -1.8522
 6560SOL    HW220580   4.057   0.817   5.859  0.8520  1.6542  1.1238
 6561SOL     OW20581   0.558   1.057   2.658  0.4894 -0.1009  0.3746
 6561SOL    HW120582   0.585   1.104   2.574 -0.6500 -0.1770 -0.0447
 6561SOL    HW220583   0.461   1.073   2.676  0.7216 -0.0592  1.6988
 6562SOL     OW20584   5.473   3.348   4.127  0.0731 -0.2719 -0.0388
 6562SOL    HW120585   5.500   3.256   4.156 -1.1697 -0.1004  1.8598
 6562SOL    HW220586   5.373   3.354   4.126  0.1038  1.7096  2.2400
 6563SOL     OW20587   4.464   6.850   0.856  0.0377 -0.0286 -0.4874
 6563SOL    HW120588   4.455   6.917   0.930  0.2849  1.6650 -1.9222
 6563SOL    HW220589   4.374   6.813   0.834 -0.2395  0.5359 -0.3151
 6564SOL     OW20590   1.509   6.317   1.855 -0.6854  0.6027 -0.7240
 6564SOL    HW120591   1.440   6.292   1.923 -0.3137 -0.5539 -0.7505
 6564SOL    HW220592   1.479   6.290   1.764 -1.0552  1.8913 -0.9942
 6565SOL     OW20593   5.244   5.776   5.284 -0.2156 -0.2472 -0.0020
 6565SOL    HW120594   5.167   5.807   5.227 -1.8109 -2.4014  0.8534
 6565SOL    HW220595   5.321   5.752   5.225 -0.7383  0.4543 -1.0113
 6566SOL     OW20596   0.675   1.272   2.047 -0.0705 -0.6451  0.5016
 6566SOL    HW120597   0.659   1.359   2.000  0.2801 -0.9972 -0.2940
 6566SOL    HW220598   0.748   1.282   2.114  1.7730 -0.8909 -1.3538
 6567SOL     OW20599   3.898   1.897   3.816 -0.3420 -0.2174  0.0189
 6567SOL    HW120600   3.930   1.835   3.887  0.3746 -0.4945 -0.5444
 6567SOL    HW220601   3.834   1.849   3.756  0.4230 -0.4944 -0.5797
 6568SOL     OW20602   5.021   3.674   5.382 -0.4767  0.7175 -0.0362
 6568SOL    HW120603   5.092   3.705   5.445 -1.2654  0.4448  1.0137
 6568SOL    HW220604   5.036   3.577   5.360 -0.1385  0.8422 -0.3733
 6569SOL     OW20605   6.618   2.387   6.790  0.1832  0.5250 -0.3185
 6569SOL    HW120606   6.666   2.349   6.712 -0.6391 -1.4808  0.0945
 6569SOL    HW220607   6.652   2.480   6.809  0.7421  0.8558 -2.6997
 6570SOL     OW20608   6.288   5.166   4.766  0.7846  0.7277  0.0610
 6570SOL    HW120609   6.208   5.127   4.810  0.3911 -1.2211 -2.1960
 6570SOL    HW220610   6.286   5.266   4.774 -2.2710  0.7887 -0.5608
 6571SOL     OW20611   5.674   5.373   4.026  0.1106 -0.1187 -0.6002
 6571SOL    HW120612   5.732   5.425   3.964  1.3605 -1.2337 -0.4010
 6571SOL    HW220613   5.628   5.300   3.975 -1.0459  0.6651 -0.7283
 6572SOL     OW20614   6.602   0.635   3.792 -0.0382 -0.1687  0.5217
 6572SOL    HW120615   6.596   0.601   3.885  0.1594 -1.7677 -0.0294
 6572SOL    HW220616   6.681   0.594   3.746 -0.4769  0.1367 -0.5345
 6573SOL     OW20617   1.052   3.992   1.306 -0.1102 -0.2606  0.1943
 6573SOL    HW120618   0.958   4.025   1.300 -0.5672 -0.9383  2.5837
 6573SOL    HW220619   1.115   4.070   1.302 -0.7328  0.1740 -1.6625
 6574SOL     OW20620   5.839   0.842   5.815  0.3782 -0.1111 -0.2218
 6574SOL    HW120621   5.812   0.924   5.765 -1.3168  0.0945  0.9471
 6574SOL    HW220622   5.859   0.866   5.910  1.1549 -0.8684 -0.1815
 6575SOL     OW20623   1.439   0.719   1.446  0.0883 -0.4527  0.2266
 6575SOL    HW120624   1.538   0.706   1.434  0.1962  0.2497  0.3164
 6575SOL    HW220625   1.392   0.632   1.430  0.6490 -0.6199 -0.6096
 6576SOL     OW20626   4.360   5.720   4.131  0.0807  0.3094 -0.7060
 6576SOL    HW120627   4.364   5.724   4.231 -0.7196  0.1937 -0.6597
 6576SOL    HW220628   4.452   5.711   4.094  0.2717 -1.9860  0.1279
 6577SOL     OW20629   1.515   4.703   4.860 -0.5936 -0.3725  0.4747
 6577SOL    HW120630   1.502   4.665   4.952 -0.5333  1.8907  1.4978
 6577SOL    HW220631   1.467   4.648   4.793 -0.9036 -1.9065  1.9082
 6578SOL     OW20632   3.315   3.841   0.274 -0.7560  0.1962  0.0435
 6578SOL    HW120633   3.304   3.940   0.270  2.7938  0.8035  1.7195
 6578SOL    HW220634   3.251   3.803   0.341 -0.6286  1.6943  1.0678
 6579SOL     OW20635   1.987   1.790   6.184 -0.0360 -0.3987 -0.3721
 6579SOL    HW120636   1.941   1.814   6.269  0.0567 -2.0362  0.1703
 6579SOL    HW220637   2.078   1.830   6.183 -0.6678  1.1101 -0.5201
 6580SOL     OW20638   3.551   4.645   5.585 -0.0675  0.3607  0.0332
 6580SOL    HW120639   3.594   4.556   5.570  0.0192  0.6824 -1.9858
 6580SOL    HW220640   3.567   4.675   5.679  1.2194 -1.0568  0.3028
 6581SOL     OW20641   2.034   0.028   4.660  0.0197  0.2841  0.3202
 6581SOL    HW120642   1.955  -0.020   4.622 -0.7651  0.9340  1.0750
 6581SOL    HW220643   2.062  -0.017   4.745  2.3088 -1.6912 -1.3324
 6582SOL     OW20644   1.670   0.196   3.684 -0.4208  0.0973  0.5365
 6582SOL    HW120645   1.613   0.277   3.672  0.6238  0.9392  1.0486
 6582SOL    HW220646   1.648   0.152   3.772 -0.6994  0.0698  0.4513
 6583SOL     OW20647   6.886   5.724   5.271 -0.3774 -0.0157  0.2978
 6583SOL    HW120648   6.952   5.736   5.345  0.4964  0.9614 -0.6069
 6583SOL    HW220649   6.793   5.723   5.309 -0.0645  2.2059  1.2526
 6584SOL     OW20650   5.149   1.504   1.883 -0.1502  0.0735 -0.4050
 6584SOL    HW120651   5.064   1.557   1.882 -0.8543 -0.9964  0.5536
 6584SOL    HW220652   5.227   1.567   1.880 -0.9451  1.0486 -2.0770
 6585SOL     OW20653   1.436   2.915   6.490  0.2436 -0.2174  0.0008
 6585SOL    HW120654   1.534   2.922   6.473  0.6526 -3.1648  0.5926
 6585SOL    HW220655   1.419   2.844   6.558 -2.3318  0.2573 -0.0363
 6586SOL     OW20656   5.965   6.277   2.497  0.1193  0.3473  0.3782
 6586SOL    HW120657   5.969   6.247   2.592  3.3156  0.0377  0.2503
 6586SOL    HW220658   6.032   6.349   2.482 -0.8811  0.9672 -1.5138
 6587SOL     OW20659   3.305   1.320   1.593 -0.3677  0.0911 -0.4598
 6587SOL    HW120660   3.247   1.265   1.533 -2.2284 -0.7950  1.9555
 6587SOL    HW220661   3.401   1.298   1.577 -0.9417 -1.9817 -1.3268
 6588SOL     OW20662   2.849   1.022   1.388  0.1866  0.5969  0.1781
 6588SOL    HW120663   2.916   1.031   1.315  0.0221 -1.2924 -0.2708
 6588SOL    HW220664   2.887   1.056   1.474  1.3507  0.4559 -0.2725
 6589SOL     OW20665   5.239   5.297   6.481  0.5071  0.1752 -0.5596
 6589SOL    HW120666   5.184   5.379   6.468  1.1491  0.7681  0.3230
 6589SOL    HW220667   5.186   5.228   6.531 -0.0852 -0.0291 -1.4355
 6590SOL     OW20668   0.136   2.355   2.456  0.3502 -0.1868 -0.5238
 6590SOL    HW120669   0.165   2.279   2.514  1.2985  0.1591 -0.5317
 6590SOL    HW220670   0.216   2.398   2.414 -0.1689  0.8211 -0.5203
 6591SOL     OW20671   2.712   5.598   2.429 -0.8320 -0.4054  0.2257
 6591SOL    HW120672   2.658   5.558   2.503 -0.4183 -1.1825  0.1197
 6591SOL    HW220673   2.742   5.526   2.367 -0.4456  0.1332 -0.2232
 6592SOL     OW20674   6.328   0.935   5.127  0.4144 -0.0087  0.1872
 6592SOL    HW120675   6.343   1.012   5.188  0.5316  1.2552 -1.3670
 6592SOL    HW220676   6.417   0.897   5.099  0.4671  0.8707 -0.9263
 6593SOL     OW20677   1.195   1.710   6.387  0.1731  0.4542 -0.2541
 6593SOL    HW120678   1.146   1.657   6.456  0.2911  1.1568  0.3925
 6593SOL    HW220679   1.223   1.651   6.312  0.3845 -0.4120  0.4948
 6594SOL     OW20680   6.348   1.925   2.326  0.2171 -0.6425  0.1095
 6594SOL    HW120681   6.380   1.833   2.351  1.7451 -0.3460 -0.5797
 6594SOL    HW220682   6.351   1.934   2.226 -0.1303  0.0875  0.1634
 6595SOL     OW20683   1.725   0.609   1.116 -0.8181  0.1558  0.2523
 6595SOL    HW120684   1.811   0.569   1.087  0.4684  3.0303 -0.1902
 6595SOL    HW220685   1.742   0.698   1.159 -3.6296  1.4663 -1.0914
 6596SOL     OW20686   4.059   3.864   2.109 -0.1762 -0.0313  0.0583
 6596SOL    HW120687   3.975   3.918   2.106 -0.1722 -0.0751 -1.8646
 6596SOL    HW220688   4.131   3.918   2.153 -0.6752  0.8055 -0.1300
 6597SOL     OW20689   2.137   3.158   4.674  0.0023  0.0084 -0.0603
 6597SOL    HW120690   2.156   3.146   4.772  1.2743  0.8406 -0.1801
 6597SOL    HW220691   2.124   3.255   4.654 -0.5866 -0.1878 -0.6676
 6598SOL     OW20692   6.951   1.758   1.835 -0.0143 -0.1331  0.4728
 6598SOL    HW120693   7.030   1.815   1.857  0.0919  0.0710 -0.3916
 6598SOL    HW220694   6.982   1.670   1.799 -0.1695 -1.0273  2.4125
 6599SOL     OW20695   3.887   6.831   2.389  0.3027  0.4420 -0.0272
 6599SOL    HW120696   3.825   6.856   2.315  0.3074 -0.5267 -0.3795
 6599SOL    HW220697   3.835   6.792   2.465  0.5458 -1.9164 -0.9751
 6600SOL     OW20698   0.273   4.166   6.522 -0.6086 -0.8697  0.1151
 6600SOL    HW120699   0.251   4.136   6.429 -2.1364 -1.7384  0.7322
 6600SOL    HW220700   0.261   4.265   6.529 -0.5420 -0.8087 -0.5928
 6601SOL     OW20701   0.295   4.198   4.699 -0.3167 -0.2455 -0.5720
 6601SOL    HW120702   0.379   4.150   4.672  0.5365  1.3245 -0.8689
 6601SOL    HW220703   0.237   4.212   4.619  0.4158  1.0130 -0.9145
 6602SOL     OW20704   0.871   2.962   2.879 -0.2148 -0.5619 -0.4983
 6602SOL    HW120705   0.836   2.869   2.873 -0.7710 -0.5320  1.6350
 6602SOL    HW220706   0.809   3.018   2.934  1.0081  0.6144 -0.2589
 6603SOL     OW20707   3.390   0.035   3.095 -0.0250 -0.2922  0.1419
 6603SOL    HW120708   3.460  -0.022   3.138  0.1897  0.0016  0.1845
 6603SOL    HW220709   3.328   0.070   3.166 -0.5634 -1.0193  0.0405
 6604SOL     OW20710   6.918   0.573   5.591  0.2547  0.0208  0.6273
 6604SOL    HW120711   6.824   0.538   5.586  0.7947 -1.5488  0.6307
 6604SOL    HW220712   6.953   0.562   5.684  0.8932 -0.7277  0.3131
 6605SOL     OW20713   3.732   1.850   3.299 -0.0420  0.0173 -0.6601
 6605SOL    HW120714   3.728   1.787   3.222  2.4376  1.1561 -1.8358
 6605SOL    HW220715   3.758   1.800   3.381 -1.8246 -1.0539 -0.6900
 6606SOL     OW20716   3.958   1.586   4.480  0.4589 -0.5762  0.3459
 6606SOL    HW120717   4.045   1.546   4.452 -0.1696 -1.7684  0.0026
 6606SOL    HW220718   3.891   1.513   4.493 -1.0927  0.4234 -1.4995
 6607SOL     OW20719   5.286   1.210   6.521  0.1333 -0.1395 -0.0624
 6607SOL    HW120720   5.363   1.261   6.560  0.5908 -0.4974 -0.4880
 6607SOL    HW220721   5.224   1.274   6.475  0.5388  0.0723 -0.3228
 6608SOL     OW20722   3.716   3.513   4.399  0.3117  0.0265 -0.0079
 6608SOL    HW120723   3.712   3.445   4.472 -0.0336  0.1198  0.0572
 6608SOL    HW220724   3.631   3.511   4.346 -0.1691  1.1922  0.6881
 6609SOL     OW20725   6.075   1.277   6.525 -0.3375  0.8190  0.2135
 6609SOL    HW120726   6.062   1.258   6.427 -0.6549 -0.1472  0.4383
 6609SOL    HW220727   6.107   1.195   6.571 -0.1916  1.2718  0.9308
 6610SOL     OW20728   3.848   5.126   2.394  0.1710 -0.1522 -0.6917
 6610SOL    HW120729   3.808   5.160   2.479  1.5195  0.3165 -0.2204
 6610SOL    HW220730   3.827   5.029   2.384  1.1525 -0.5738  0.9069
 6611SOL     OW20731   4.577   0.129   1.281  0.3528 -0.1481 -0.0067
 6611SOL    HW120732   4.623   0.217   1.275  1.2288 -0.5712  0.3087
 6611SOL    HW220733   4.640   0.056   1.256 -0.1378 -0.7508  0.4641
 6612SOL     OW20734   6.254   4.994   0.258  0.3215 -0.5115  0.0428
 6612SOL    HW120735   6.351   4.974   0.245  0.1348 -0.9266 -0.7967
 6612SOL    HW220736   6.229   5.074   0.203 -0.3830 -2.0132 -1.9282
 6613SOL     OW20737   2.724   4.453   0.760 -0.6351  0.2802 -0.2221
 6613SOL    HW120738   2.787   4.423   0.688  0.0001  1.7978 -0.3302
 6613SOL    HW220739   2.754   4.415   0.848 -1.0231 -1.0276 -0.6346
 6614SOL     OW20740   6.924   6.732   6.848 -0.6328 -0.3177  0.3698
 6614SOL    HW120741   6.930   6.829   6.826 -2.3684  0.0590  1.3719
 6614SOL    HW220742   6.847   6.691   6.799 -0.6164 -0.9098  0.8213
 6615SOL     OW20743   3.174   3.134   0.790 -0.4748 -0.1997 -0.2733
 6615SOL    HW120744   3.096   3.185   0.826  0.4712  0.1346  1.4044
 6615SOL    HW220745   3.219   3.189   0.720 -0.2249  0.7472  0.6065
 6616SOL     OW20746   4.618   1.636   5.144  0.9715 -0.4627  0.1725
 6616SOL    HW120747   4.648   1.705   5.079 -1.3143  0.3843 -0.0575
 6616SOL    HW220748   4.685   1.630   5.219  2.5087  0.1005 -1.0938
 6617SOL     OW20749   5.482   6.593   3.070 -0.4063 -0.3891 -0.1949
 6617SOL    HW120750   5.470   6.692   3.061 -2.3775 -0.5452  0.1011
 6617SOL    HW220751   5.393   6.551   3.090  0.3044 -2.2747 -0.7518
 6618SOL     OW20752   5.892   3.201   3.911 -0.0418 -0.2259 -0.8964
 6618SOL    HW120753   5.854   3.288   3.944  1.1329  0.6757 -1.8600
 6618SOL    HW220754   5.913   3.143   3.990 -1.1159  0.2181 -0.2498
 6619SOL     OW20755   2.379   6.024   6.470  0.3573 -0.5224  0.2831
 6619SOL    HW120756   2.399   6.050   6.376  1.4397 -1.3456  0.2729
 6619SOL    HW220757   2.287   6.056   6.494  0.7882  1.3727 -0.4137
 6620SOL     OW20758   4.851   3.406   6.478 -0.3256  0.3024  0.5998
 6620SOL    HW120759   4.782   3.443   6.417  0.5755  1.2348  0.1155
 6620SOL    HW220760   4.924   3.473   6.492  2.1983 -1.7122 -1.5954
 6621SOL     OW20761   2.561   1.641   2.441 -0.1577 -0.0955 -0.2242
 6621SOL    HW120762   2.594   1.728   2.477  0.9099 -1.7730  3.3239
 6621SOL    HW220763   2.609   1.620   2.356  3.1480  0.7356  1.2569
 6622SOL     OW20764   0.091   4.365   3.235  0.2025  0.1946  0.7009
 6622SOL    HW120765   0.167   4.334   3.177 -0.3459  2.9070 -1.7340
 6622SOL    HW220766   0.057   4.289   3.290  1.2713 -2.4463 -2.0245
 6623SOL     OW20767   2.807   5.912   6.014 -0.5215  0.4407  0.4510
 6623SOL    HW120768   2.822   6.001   5.972  1.6658 -0.0498  0.1082
 6623SOL    HW220769   2.819   5.920   6.113  0.9632  0.3139  0.3035
 6624SOL     OW20770   5.179   0.524   1.438  0.0967 -0.7923  0.1939
 6624SOL    HW120771   5.157   0.551   1.344  0.1153 -0.3142  0.3257
 6624SOL    HW220772   5.258   0.462   1.437 -0.6136 -1.7318 -0.2012
 6625SOL     OW20773   0.074   5.429   1.720  0.5415 -0.4205 -0.1729
 6625SOL    HW120774   0.163   5.420   1.675 -0.0695  0.4585 -1.6192
 6625SOL    HW220775   0.025   5.343   1.714  1.1366 -0.8025  0.3117
 6626SOL     OW20776   4.677   1.349   4.079 -0.2721 -0.2794 -0.2142
 6626SOL    HW120777   4.688   1.398   3.992 -1.6780  0.0619 -0.2247
 6626SOL    HW220778   4.614   1.273   4.066 -1.1061  0.2386  0.6663
 6627SOL     OW20779   1.161   5.064   1.977 -0.4443 -0.4579 -0.1746
 6627SOL    HW120780   1.124   5.126   1.908 -0.4505 -3.1067 -2.7225
 6627SOL    HW220781   1.254   5.091   2.001 -0.7337  0.9618 -0.5871
 6628SOL     OW20782   3.374   0.607   5.507 -0.1544  0.1012 -0.0175
 6628SOL    HW120783   3.337   0.616   5.415 -1.0963  3.1539  0.5437
 6628SOL    HW220784   3.470   0.636   5.507 -0.9119  2.9196  0.3293
 6629SOL     OW20785   6.495   6.503   4.289  0.4206 -0.4316 -0.4993
 6629SOL    HW120786   6.493   6.594   4.247 -0.8934 -0.2481 -0.0728
 6629SOL    HW220787   6.487   6.512   4.388 -2.0648 -1.0599 -0.5754
 6630SOL     OW20788   3.160   5.341   3.717 -0.1646  0.1465 -0.4073
 6630SOL    HW120789   3.122   5.411   3.656  0.8323  0.4992 -0.6420
 6630SOL    HW220790   3.236   5.380   3.770 -0.2774 -0.4721  0.2314
 6631SOL     OW20791   6.086   6.667   0.853  0.2633 -0.4360  0.6262
 6631SOL    HW120792   6.033   6.710   0.925  0.1624 -1.1127  0.9596
 6631SOL    HW220793   6.141   6.592   0.891  1.2474  0.0630  0.2449
 6632SOL     OW20794   1.476   4.931   2.719  0.5786  0.0169  0.2933
 6632SOL    HW120795   1.528   4.845   2.726  3.0898  1.4572  0.6539
 6632SOL    HW220796   1.400   4.928   2.783 -0.0708 -2.3319 -0.4739
 6633SOL     OW20797   4.995   1.660   0.715 -0.2309 -0.7408  0.9530
 6633SOL    HW120798   5.005   1.758   0.735 -1.1819 -0.6435  1.0308
 6633SOL    HW220799   4.929   1.620   0.778 -2.1663 -0.7451 -0.9493
 6634SOL     OW20800   5.432   0.577   3.891  0.2105 -0.4739  0.4062
 6634SOL    HW120801   5.398   0.571   3.984 -1.6554  0.5223 -0.1669
 6634SOL    HW220802   5.355   0.583   3.827  1.4424  0.5192 -1.0672
 6635SOL     OW20803   4.793   1.100   5.056 -0.1005 -0.6465  0.0712
 6635SOL    HW120804   4.791   1.111   4.956  0.2353 -2.4771 -0.1765
 6635SOL    HW220805   4.888   1.097   5.087 -0.2044  0.2360  0.5055
 6636SOL     OW20806   3.073   3.962   5.024 -0.2762 -0.6048  0.5107
 6636SOL    HW120807   3.041   4.037   5.081  0.3297 -0.2139  0.3455
 6636SOL    HW220808   3.005   3.888   5.025 -0.5401 -0.3654  1.2623
 6637SOL     OW20809   6.312   5.878   3.089  0.3593 -0.3456 -0.3467
 6637SOL    HW120810   6.402   5.920   3.103 -0.5982  1.2675  1.3388
 6637SOL    HW220811   6.323   5.791   3.040  2.6117  0.8564 -2.1517
 6638SOL     OW20812   0.144   1.299   1.180 -0.3766 -0.2114 -0.3387
 6638SOL    HW120813   0.212   1.292   1.108 -0.1576 -1.4709 -0.0348
 6638SOL    HW220814   0.113   1.207   1.206 -2.6923  0.3495 -0.9293
 6639SOL     OW20815   4.195   6.252   5.491  0.4743 -0.4717  0.0727
 6639SOL    HW120816   4.147   6.183   5.438  1.6467 -1.4523  0.2523
 6639SOL    HW220817   4.272   6.288   5.437  0.0265  0.5341  0.0725
 6640SOL     OW20818   5.912   6.879   2.397  0.5779 -0.6700  0.1071
 6640SOL    HW120819   5.850   6.801   2.408  1.7672 -1.7499 -0.6038
 6640SOL    HW220820   5.877   6.938   2.324  0.1339 -0.9966  0.0488
 6641SOL     OW20821   2.787   1.649   2.961  0.2084 -0.0031  0.3545
 6641SOL    HW120822   2.780   1.588   2.882  1.1741 -1.4238  1.3303
 6641SOL    HW220823   2.835   1.732   2.935  0.5812 -0.4889 -0.5325
 6642SOL     OW20824   3.713   0.132   6.941  0.5069 -0.3775 -0.7682
 6642SOL    HW120825   3.768   0.210   6.912  1.0990 -0.6891 -0.4993
 6642SOL    HW220826   3.637   0.119   6.877  0.5099  0.3025 -0.9174
 6643SOL     OW20827   5.647   3.644   4.288 -0.2825 -0.6198  0.2517
 6643SOL    HW120828   5.661   3.691   4.375 -0.5448 -1.1086  0.5612
 6643SOL    HW220829   5.555   3.605   4.286  0.1193 -1.5911  0.2253
 6644SOL     OW20830   6.579   0.419   3.417 -0.1732  0.2101  0.5146
 6644SOL    HW120831   6.645   0.469   3.362 -0.8956  0.3314 -0.2722
 6644SOL    HW220832   6.527   0.357   3.358 -0.6176 -0.0332  1.1495
 6645SOL     OW20833   0.777   6.695   1.594 -0.5015  0.3596 -0.1601
 6645SOL    HW120834   0.696   6.649   1.559 -0.4304 -0.1199  0.2941
 6645SOL    HW220835   0.750   6.768   1.658 -0.5681  0.0304  0.1891
 6646SOL     OW20836   3.456   0.910   1.384  0.1558  0.4340 -0.0818
 6646SOL    HW120837   3.455   0.853   1.302 -0.9981 -1.9569  1.4748
 6646SOL    HW220838   3.546   0.906   1.426  0.5039  0.9846 -0.7470
 6647SOL     OW20839   2.319   0.641   5.568  0.1006 -0.3266 -0.3340
 6647SOL    HW120840   2.273   0.553   5.554  0.8683 -1.0630  1.3992
 6647SOL    HW220841   2.255   0.707   5.605  0.1412 -1.0219  1.0351
 6648SOL     OW20842   2.801   3.751   6.288  0.7909  0.5537 -0.3407
 6648SOL    HW120843   2.839   3.718   6.374 -0.0769  1.2006  0.3158
 6648SOL    HW220844   2.743   3.680   6.247  0.2848  0.6432  0.2048
 6649SOL     OW20845   1.024   1.604   3.617 -0.0615  0.1390  0.8495
 6649SOL    HW120846   1.016   1.575   3.521 -0.8893 -0.2781  1.0318
 6649SOL    HW220847   0.945   1.571   3.668  0.2597  0.5561  1.6340
 6650SOL     OW20848   4.891   4.892   5.588  0.2947 -0.0039  0.2647
 6650SOL    HW120849   4.871   4.947   5.669  1.3189  1.0390 -0.1775
 6650SOL    HW220850   4.871   4.944   5.506  0.4994 -0.5878 -0.1638
 6651SOL     OW20851   0.188   0.040   0.453  0.7098  0.2442 -0.0966
 6651SOL    HW120852   0.253   0.046   0.529 -1.2132 -1.4389  1.8319
 6651SOL    HW220853   0.231  -0.005   0.375  2.0460 -0.2917  0.9151
 6652SOL     OW20854   3.482   6.814   5.602  0.3008  0.1814  0.3276
 6652SOL    HW120855   3.519   6.743   5.661  0.6574 -0.0852 -0.2165
 6652SOL    HW220856   3.544   6.831   5.526  0.3843  1.3017  0.6180
 6653SOL     OW20857   6.729   1.455   5.151  0.0117  0.4762 -0.4720
 6653SOL    HW120858   6.809   1.494   5.106  0.1105  1.6204  0.6347
 6653SOL    HW220859   6.709   1.365   5.112  1.7226  0.2417 -0.8849
 6654SOL     OW20860   1.635   2.311   3.894 -0.7434 -1.3593 -0.0598
 6654SOL    HW120861   1.605   2.270   3.980  0.2946 -0.9044  0.5406
 6654SOL    HW220862   1.730   2.286   3.876 -0.2654  0.2492  0.0343
 6655SOL     OW20863   2.206   6.431   6.721  0.3879 -0.2615  0.1269
 6655SOL    HW120864   2.303   6.412   6.704  0.0937 -1.1435 -0.6532
 6655SOL    HW220865   2.190   6.435   6.819  1.9725  4.0234  0.4158
 6656SOL     OW20866   6.274   1.514   0.686  0.0257  0.0152 -0.3255
 6656SOL    HW120867   6.254   1.592   0.626  1.6181  0.2282 -0.6314
 6656SOL    HW220868   6.373   1.502   0.693 -0.1667 -1.1551  0.8120
 6657SOL     OW20869   3.390   0.083   0.230  0.3168 -0.7123  0.0245
 6657SOL    HW120870   3.375  -0.014   0.250 -0.0708 -0.6123  0.2435
 6657SOL    HW220871   3.301   0.128   0.216  0.3656 -0.0483  1.6145
 6658SOL     OW20872   5.462   0.121   6.356  0.1194 -0.7218 -0.3147
 6658SOL    HW120873   5.408   0.196   6.320  0.2228  0.5451  1.9801
 6658SOL    HW220874   5.528   0.091   6.287 -0.4097  0.7926 -1.5301
 6659SOL     OW20875   6.310   2.570   0.922 -0.0357  1.0035 -0.4687
 6659SOL    HW120876   6.403   2.539   0.903 -0.0973 -0.0201  0.7903
 6659SOL    HW220877   6.269   2.605   0.837  2.1131  3.2865 -0.6801
 6660SOL     OW20878   2.819   2.291   5.571 -0.6596 -0.3166 -0.3669
 6660SOL    HW120879   2.885   2.217   5.558 -0.8678 -0.5274 -0.2536
 6660SOL    HW220880   2.859   2.363   5.628 -0.6596 -0.6210  0.0235
 6661SOL     OW20881   2.569   4.888   2.489 -0.0321 -0.1006 -0.1187
 6661SOL    HW120882   2.550   4.869   2.393 -1.2005 -0.8451  0.2387
 6661SOL    HW220883   2.630   4.967   2.496  1.8221 -1.3197 -1.5381
 6662SOL     OW20884   6.701   4.557   5.526 -0.1128 -0.3579 -0.0690
 6662SOL    HW120885   6.773   4.547   5.595  0.6643 -0.5581 -0.8983
 6662SOL    HW220886   6.736   4.532   5.436 -0.8945  0.6612 -0.6796
 6663SOL     OW20887   5.673   5.663   2.924  0.3970 -0.0296 -0.2270
 6663SOL    HW120888   5.612   5.599   2.877  0.7839  0.2211 -1.0787
 6663SOL    HW220889   5.670   5.644   3.023 -0.7048 -0.3083 -0.3010
 6664SOL     OW20890   6.212   5.613   2.505 -0.0719  0.1216 -0.2400
 6664SOL    HW120891   6.302   5.657   2.511 -0.1862  0.6729 -2.0092
 6664SOL    HW220892   6.146   5.666   2.559  0.8504 -0.9533  2.0687
 6665SOL     OW20893   4.949   5.674   1.464 -0.0281 -0.0978  0.2232
 6665SOL    HW120894   4.961   5.575   1.457  1.1967  0.0790 -0.4516
 6665SOL    HW220895   4.963   5.716   1.374 -0.2194  0.7180  0.5616
 6666SOL     OW20896   0.280   5.845   3.817  0.2627 -0.1343 -0.4671
 6666SOL    HW120897   0.248   5.835   3.912  1.8010 -0.6019  0.0416
 6666SOL    HW220898   0.331   5.762   3.791  0.5529  0.3349 -1.4096
 6667SOL     OW20899   2.732   0.422   5.823 -0.0644  0.1220 -0.1813
 6667SOL    HW120900   2.656   0.487   5.815  0.2194  0.3147 -1.5557
 6667SOL    HW220901   2.778   0.435   5.911 -2.1922 -0.6607  1.0997
 6668SOL     OW20902   1.788   5.401   1.530 -0.7370  0.0354  0.4484
 6668SOL    HW120903   1.700   5.371   1.494 -0.4649 -0.1364 -0.0848
 6668SOL    HW220904   1.785   5.402   1.630 -0.9106 -1.2675  0.4663
 6669SOL     OW20905   1.228   2.563   6.206 -0.1929  0.1249 -0.4738
 6669SOL    HW120906   1.167   2.490   6.174 -0.2301 -0.1186  0.1493
 6669SOL    HW220907   1.174   2.645   6.225 -0.5630 -0.5015  1.4099
 6670SOL     OW20908   2.859   5.027   2.655 -0.0168 -0.5131 -0.1377
 6670SOL    HW120909   2.883   4.953   2.719 -0.1178 -0.5850 -0.1831
 6670SOL    HW220910   2.906   5.111   2.683  0.4073 -0.6890 -0.3127
 6671SOL     OW20911   0.642   6.004   6.905 -0.4372  0.9647  0.2865
 6671SOL    HW120912   0.645   6.104   6.901 -0.0981  0.9331 -0.8262
 6671SOL    HW220913   0.550   5.973   6.880 -0.0048  0.9694 -1.4944
 6672SOL     OW20914   5.380   2.416   2.441 -0.4021 -0.0529 -0.1336
 6672SOL    HW120915   5.464   2.460   2.472  1.2663 -2.1458 -1.3883
 6672SOL    HW220916   5.321   2.397   2.520  0.1443  1.6849  0.7365
 6673SOL     OW20917   1.694   2.039   6.548 -0.0452  0.0276  0.1300
 6673SOL    HW120918   1.701   2.097   6.467 -0.5161  0.1454  0.1748
 6673SOL    HW220919   1.601   2.005   6.557 -0.0966  0.3681  0.8723
 6674SOL     OW20920   5.024   0.846   5.332  0.1851 -0.0846  0.1974
 6674SOL    HW120921   5.009   0.943   5.354 -2.3606 -0.7907  2.1144
 6674SOL    HW220922   4.936   0.801   5.318  1.3382 -2.0365 -1.3697
 6675SOL     OW20923   6.869   3.535   4.982 -0.1168  0.6947  0.3257
 6675SOL    HW120924   6.829   3.562   5.070  0.0155 -1.1814  1.0070
 6675SOL    HW220925   6.968   3.523   4.993 -0.1712 -0.0187  0.0506
 6676SOL     OW20926   4.503   6.419   3.301 -0.8699 -0.8101  0.6034
 6676SOL    HW120927   4.560   6.367   3.237  0.7406  2.0927 -0.5016
 6676SOL    HW220928   4.544   6.415   3.393  0.5203  0.2465  0.0671
 6677SOL     OW20929   0.276   2.464   6.898 -0.6379  0.3767  0.0242
 6677SOL    HW120930   0.375   2.465   6.911 -0.6484  0.7153  0.1030
 6677SOL    HW220931   0.239   2.376   6.927 -0.4664  0.5683  0.8772
 6678SOL     OW20932   6.468   5.396   3.205  0.1483 -0.1765 -0.1930
 6678SOL    HW120933   6.532   5.369   3.277 -1.9548 -0.4116  1.6738
 6678SOL    HW220934   6.405   5.321   3.186 -1.4245  1.0024  0.1391
 6679SOL     OW20935   5.113   0.967   6.551  0.0278  0.0516 -0.5831
 6679SOL    HW120936   5.029   0.977   6.604 -0.4934 -0.9756 -1.1903
 6679SOL    HW220937   5.167   1.051   6.557 -0.8397  0.5663  0.1494
 6680SOL     OW20938   5.371   4.839   4.672  0.4739 -0.0468  0.0772
 6680SOL    HW120939   5.376   4.772   4.597  0.4218 -1.0110  0.9145
 6680SOL    HW220940   5.289   4.895   4.660  0.0391 -0.7131 -0.1654
 6681SOL     OW20941   0.909   0.523   5.581 -0.2362 -0.0724 -0.0728
 6681SOL    HW120942   1.007   0.516   5.603  0.2898 -1.1637 -2.4191
 6681SOL    HW220943   0.887   0.618   5.557  0.5428 -0.0285 -0.6582
 6682SOL     OW20944   5.829   6.687   5.214  0.8702 -0.6285  0.0545
 6682SOL    HW120945   5.760   6.721   5.279 -0.7822  0.1832 -1.9947
 6682SOL    HW220946   5.918   6.725   5.238 -0.1105  1.6408  0.4796
 6683SOL     OW20947   0.528   0.409   1.365  0.6708 -0.5507  0.2586
 6683SOL    HW120948   0.528   0.504   1.335  1.7030 -1.0508 -1.4493
 6683SOL    HW220949   0.472   0.355   1.303  0.1802 -1.0973  1.1562
 6684SOL     OW20950   5.866   2.896   1.743  0.6820  0.3106  0.4792
 6684SOL    HW120951   5.843   2.947   1.826  0.8253 -0.4621  1.0082
 6684SOL    HW220952   5.811   2.930   1.667 -0.1042  0.4287  1.0864
 6685SOL     OW20953   1.407   0.408   0.625  0.1224  0.1600  0.5620
 6685SOL    HW120954   1.321   0.392   0.673  0.2048 -0.8862  0.3719
 6685SOL    HW220955   1.416   0.506   0.606 -0.6382  0.3870  1.2933
 6686SOL     OW20956   4.178   3.735   1.158  0.2772  0.1139  0.2932
 6686SOL    HW120957   4.225   3.805   1.104 -0.3292  0.1754 -0.1643
 6686SOL    HW220958   4.184   3.647   1.111  0.1541  0.0671  0.3659
 6687SOL     OW20959   4.641   3.814   1.574  0.0420 -0.9452  0.1762
 6687SOL    HW120960   4.574   3.748   1.607  1.1420 -2.3091 -0.2390
 6687SOL    HW220961   4.719   3.816   1.635  0.3698 -0.6195 -0.2458
 6688SOL     OW20962   3.385   6.360   5.446 -0.4607 -0.1456  0.4058
 6688SOL    HW120963   3.444   6.287   5.410 -0.2026  0.4393 -0.3786
 6688SOL    HW220964   3.393   6.362   5.546  0.6645 -0.2402  0.3345
 6689SOL     OW20965   6.140   6.592   0.232  0.4420  0.2758  0.2929
 6689SOL    HW120966   6.173   6.675   0.190  1.1221 -0.3045 -0.3426
 6689SOL    HW220967   6.169   6.589   0.328  1.4051  0.2241  0.0011
 6690SOL     OW20968   0.520   2.309   6.044  0.5819  0.7700  0.2544
 6690SOL    HW120969   0.579   2.269   5.973 -0.4921  0.6425 -0.5956
 6690SOL    HW220970   0.469   2.386   6.005 -0.7634  0.0838  0.5980
 6691SOL     OW20971   4.587   1.650   2.326 -0.0893 -0.7230 -0.1519
 6691SOL    HW120972   4.675   1.667   2.370  0.4741 -2.2229 -0.6359
 6691SOL    HW220973   4.530   1.594   2.385 -0.8500  0.4333  0.2595
 6692SOL     OW20974   3.859   6.646   4.050 -0.2529 -0.4255  0.6181
 6692SOL    HW120975   3.953   6.673   4.073  1.0718 -1.6449 -2.6572
 6692SOL    HW220976   3.809   6.725   4.015 -0.0158 -0.0273  1.1787
 6693SOL     OW20977   5.670   0.524   0.351  0.1900 -0.2106  0.7881
 6693SOL    HW120978   5.712   0.605   0.309 -0.4053 -0.5574 -0.5204
 6693SOL    HW220979   5.640   0.547   0.443 -1.4995  1.5976 -0.1276
 6694SOL     OW20980   0.400   4.405   4.361  0.1259  0.0877 -0.2167
 6694SOL    HW120981   0.340   4.349   4.418 -1.5396  1.4724 -0.4853
 6694SOL    HW220982   0.400   4.370   4.267 -1.0294  0.5719 -0.4177
 6695SOL     OW20983   3.493   1.020   6.623 -0.1541  0.0209  0.4622
 6695SOL    HW120984   3.504   0.947   6.691  2.3608 -1.6480 -1.5498
 6695SOL    HW220985   3.397   1.045   6.616 -0.8089 -1.5752  2.7576
 6696SOL     OW20986   3.052   5.688   6.477  0.1943  0.0932 -0.5143
 6696SOL    HW120987   3.011   5.620   6.538  0.3832 -0.9543 -1.5210
 6696SOL    HW220988   3.074   5.645   6.390  1.4542  1.1709 -0.7534
 6697SOL     OW20989   4.701   1.853   5.856 -0.3908  0.5239  0.6580
 6697SOL    HW120990   4.642   1.787   5.902 -1.0801  0.9689  0.4219
 6697SOL    HW220991   4.664   1.945   5.867 -0.3986  0.6737 -0.5138
 6698SOL     OW20992   5.656   1.752   1.137  0.5520  0.0726  0.2593
 6698SOL    HW120993   5.692   1.688   1.204  0.7968  1.3524  1.3755
 6698SOL    HW220994   5.696   1.732   1.047  1.6870 -0.4517  0.8647
 6699SOL     OW20995   1.309   4.719   5.690 -0.0628 -0.3959 -0.2427
 6699SOL    HW120996   1.343   4.626   5.698  1.0939  0.0372  0.0906
 6699SOL    HW220997   1.232   4.732   5.752  0.7520 -0.6970  0.8542
 6700SOL     OW20998   2.141   4.877   4.439  0.1416  0.1616  0.1493
 6700SOL    HW120999   2.097   4.917   4.359  0.8438 -0.1105 -0.3793
 6700SOL    HW221000   2.147   4.778   4.427  1.5693  0.2639 -0.1373
 6701SOL     OW21001   1.288   5.116   2.333  0.1900  0.3225  0.4876
 6701SOL    HW121002   1.336   5.039   2.374 -0.5694 -0.0621  0.6631
 6701SOL    HW221003   1.329   5.137   2.244  0.1195 -0.5702  0.2366
 6702SOL     OW21004   1.925   4.150   4.186 -0.6520  0.0061 -0.3010
 6702SOL    HW121005   2.008   4.159   4.131 -0.0084 -0.1747  0.6256
 6702SOL    HW221006   1.902   4.238   4.227 -0.9099  0.0490 -0.5329
 6703SOL     OW21007   1.101   0.209   0.719  0.5586 -0.0004  0.0349
 6703SOL    HW121008   1.163   0.130   0.716 -0.0824 -0.5403  0.5985
 6703SOL    HW221009   1.120   0.262   0.802  1.1640  0.5952 -0.4748
 6704SOL     OW21010   1.697   4.441   6.523  0.0720  0.2208  0.2672
 6704SOL    HW121011   1.714   4.470   6.429  0.3734  2.0440  0.8528
 6704SOL    HW221012   1.735   4.349   6.537 -0.1013 -0.1378 -1.4089
 6705SOL     OW21013   1.740   6.914   1.702 -0.2893 -0.0004  0.4794
 6705SOL    HW121014   1.684   6.864   1.767  0.9679 -0.1490  1.5033
 6705SOL    HW221015   1.837   6.891   1.716  0.2408  1.8607  0.2525
 6706SOL     OW21016   4.810   1.874   6.243 -0.3481 -0.4446 -0.4620
 6706SOL    HW121017   4.872   1.899   6.169 -0.7298 -0.3968 -0.7682
 6706SOL    HW221018   4.792   1.775   6.240  3.4972 -1.5211  2.4968
 6707SOL     OW21019   3.831   1.158   1.503 -0.0739  0.2723 -0.4422
 6707SOL    HW121020   3.881   1.222   1.562  1.0100 -0.9976  0.0511
 6707SOL    HW221021   3.820   1.200   1.412 -1.2965  2.0225  0.4443
 6708SOL     OW21022   1.112   6.357   3.292  0.5182  0.1503  0.6457
 6708SOL    HW121023   1.088   6.349   3.195 -1.4490  1.2006  0.9820
 6708SOL    HW221024   1.176   6.284   3.317 -0.0680 -1.0293 -1.0878
 6709SOL     OW21025   2.036   6.201   6.380 -0.2414  0.0515 -0.4673
 6709SOL    HW121026   1.955   6.201   6.321 -0.6880 -2.1380  0.0668
 6709SOL    HW221027   2.117   6.222   6.325 -1.0388  1.3731 -1.1843
 6710SOL     OW21028   0.188   2.652   5.284  0.2163 -0.4059  0.2389
 6710SOL    HW121029   0.218   2.710   5.208 -0.8362 -0.7460 -0.4731
 6710SOL    HW221030   0.116   2.698   5.335 -0.0792 -0.7524  0.1435
 6711SOL     OW21031   2.041   3.528   5.838 -0.2286 -0.4778 -0.4536
 6711SOL    HW121032   1.993   3.450   5.798  0.0853 -0.5618 -0.6621
 6711SOL    HW221033   2.091   3.498   5.919 -1.6986 -0.1178  0.6459
 6712SOL     OW21034   2.681   6.110   6.700  0.0377 -0.2039  0.3907
 6712SOL    HW121035   2.719   6.026   6.738  0.7800 -0.1893 -0.3012
 6712SOL    HW221036   2.679   6.181   6.771 -0.0399 -0.6258  0.8149
 6713SOL     OW21037   0.558   0.271   0.585 -0.5170  0.1842  0.0583
 6713SOL    HW121038   0.513   0.307   0.503  1.1090  0.0249 -0.9336
 6713SOL    HW221039   0.650   0.242   0.562  0.6956  1.9200  2.3267
 6714SOL     OW21040   1.884   5.807   0.793 -0.2793  0.1039  0.1600
 6714SOL    HW121041   1.859   5.856   0.877  0.4266 -0.0616  0.4799
 6714SOL    HW221042   1.983   5.818   0.777 -0.1790 -0.9045  0.0407
 6715SOL     OW21043   0.452   6.089   6.558  0.8696  0.8760  0.3918
 6715SOL    HW121044   0.461   6.182   6.593 -0.1968  1.1897 -0.1142
 6715SOL    HW221045   0.540   6.060   6.519  1.5200  1.2458  1.5314
 6716SOL     OW21046   4.527   5.364   1.651 -0.2423 -0.1142  0.2126
 6716SOL    HW121047   4.532   5.462   1.670 -2.9829  0.1368  0.1492
 6716SOL    HW221048   4.468   5.350   1.571 -1.0113 -1.8590  1.0500
 6717SOL     OW21049   3.538   4.658   5.297  0.6926 -0.0791 -0.1089
 6717SOL    HW121050   3.536   4.669   5.397  0.7127  1.3602 -0.2505
 6717SOL    HW221051   3.481   4.580   5.271  0.3162 -0.1826  0.9851
 6718SOL     OW21052   0.657   2.666   0.619 -0.4855 -0.0264  0.2528
 6718SOL    HW121053   0.629   2.761   0.604 -0.8397 -0.1179  0.3328
 6718SOL    HW221054   0.757   2.660   0.614 -0.3182  0.6776  1.9699
 6719SOL     OW21055   4.954   5.882   2.187 -0.1531 -0.0614  0.5364
 6719SOL    HW121056   4.946   5.834   2.100 -0.7036  1.0427 -0.0383
 6719SOL    HW221057   4.982   5.977   2.171  0.1000  0.0597  1.5924
 6720SOL     OW21058   5.323   5.921   0.555  0.2423 -0.0473 -0.0220
 6720SOL    HW121059   5.287   5.992   0.494  0.3977 -1.6714 -2.0973
 6720SOL    HW221060   5.399   5.959   0.608  0.0760  1.4432 -0.7925
 6721SOL     OW21061   6.315   0.047   5.116  0.0166 -0.5239  0.2125
 6721SOL    HW121062   6.327   0.036   5.215  0.5665  2.1303  0.5203
 6721SOL    HW221063   6.332  -0.040   5.070 -0.3504 -1.8509  2.4365
 6722SOL     OW21064   3.654   6.823   5.401 -0.0151  0.2850  0.7054
 6722SOL    HW121065   3.751   6.848   5.395 -0.0183  0.4609  1.3735
 6722SOL    HW221066   3.641   6.730   5.365  0.3050  0.4796  0.0715
 6723SOL     OW21067   1.829   0.324   0.622  0.2634  0.4435 -0.1016
 6723SOL    HW121068   1.865   0.401   0.570  0.9804 -0.2422 -0.6490
 6723SOL    HW221069   1.904   0.261   0.644 -0.0987  0.4981  1.4010
 6724SOL     OW21070   2.268   6.202   2.499 -0.1465 -0.2352  0.5527
 6724SOL    HW121071   2.228   6.173   2.412 -0.4617  0.4972  0.4480
 6724SOL    HW221072   2.251   6.299   2.513 -0.4133 -0.4163  1.6025
 6725SOL     OW21073   5.199   2.858   4.478  0.1264  0.5745 -0.0458
 6725SOL    HW121074   5.271   2.789   4.486  0.3417  0.5466 -1.7730
 6725SOL    HW221075   5.221   2.921   4.404 -1.6873  0.4584 -0.7561
 6726SOL     OW21076   5.283   6.606   6.430  0.3972  0.6363  0.0865
 6726SOL    HW121077   5.286   6.530   6.366  0.5382  1.2816 -0.6856
 6726SOL    HW221078   5.194   6.651   6.424  0.4763  0.8115  0.2097
 6727SOL     OW21079   0.571   1.886   5.493 -0.3273  0.3569  0.1159
 6727SOL    HW121080   0.531   1.811   5.439 -0.9010  3.0767 -3.6769
 6727SOL    HW221081   0.499   1.928   5.548 -0.3275 -0.8648  1.1017
 6728SOL     OW21082   6.387   2.587   3.137  0.1049 -0.1094  0.1315
 6728SOL    HW121083   6.344   2.625   3.055 -0.6325 -2.0867 -0.4488
 6728SOL    HW221084   6.405   2.490   3.123  0.6617 -0.3136  2.0566
 6729SOL     OW21085   1.237   3.203   1.277 -0.1542  0.7535 -0.5923
 6729SOL    HW121086   1.198   3.198   1.185 -0.3972 -0.1101 -0.4524
 6729SOL    HW221087   1.226   3.296   1.313 -0.9969  0.8323 -1.0339
 6730SOL     OW21088   5.439   4.319   1.145  0.0237 -0.4690  0.0097
 6730SOL    HW121089   5.350   4.274   1.138  0.5857 -1.4408 -1.2115
 6730SOL    HW221090   5.441   4.399   1.085  1.0166 -2.3238 -2.6213
 6731SOL     OW21091   6.074   3.951   4.600  0.0696 -0.6116  0.1557
 6731SOL    HW121092   6.124   3.984   4.520  1.7535 -0.9810  1.0203
 6731SOL    HW221093   6.075   3.851   4.601  0.4253 -0.6075  0.8426
 6732SOL     OW21094   2.788   4.593   1.076  0.1513 -0.0606 -0.8032
 6732SOL    HW121095   2.747   4.514   1.122  1.1880 -1.4183 -2.1077
 6732SOL    HW221096   2.734   4.675   1.095 -0.7828 -1.0150  0.8363
 6733SOL     OW21097   4.165   6.255   2.293 -0.0443  0.8122 -0.1897
 6733SOL    HW121098   4.232   6.324   2.263  0.3859 -0.3637 -2.0993
 6733SOL    HW221099   4.119   6.217   2.213 -0.4337 -0.9672  0.8444
 6734SOL     OW21100   2.963   5.923   0.542 -0.3107 -0.6906  0.3766
 6734SOL    HW121101   2.973   5.824   0.544  1.0574 -0.5765  0.1215
 6734SOL    HW221102   2.951   5.953   0.447 -0.9457 -0.6152  0.4727
 6735SOL     OW21103   0.558   6.060   5.272  0.2547  0.0162 -0.0938
 6735SOL    HW121104   0.511   5.972   5.270 -2.1704  1.2290 -0.2387
 6735SOL    HW221105   0.596   6.079   5.182  0.7288 -0.8340 -0.0836
 6736SOL     OW21106   6.243   2.222   6.787 -0.3205 -0.4085 -0.0250
 6736SOL    HW121107   6.337   2.206   6.819  0.5383  1.5379 -1.3385
 6736SOL    HW221108   6.211   2.310   6.824  0.2790  1.3619 -3.3698
 6737SOL     OW21109   2.183   6.033   5.658 -0.0349 -0.0675  0.7052
 6737SOL    HW121110   2.170   6.103   5.727  0.2436  0.4995  0.1902
 6737SOL    HW221111   2.261   6.057   5.601  0.4139 -1.0774  0.8700
 6738SOL     OW21112   0.740   4.917   2.033  0.2575  0.4058 -0.2635
 6738SOL    HW121113   0.723   4.959   1.944 -0.4472 -0.7902 -0.7163
 6738SOL    HW221114   0.839   4.907   2.047  0.3628 -1.3762 -1.8993
 6739SOL     OW21115   1.101   0.876   0.305  0.7664 -0.1234 -0.0257
 6739SOL    HW121116   1.134   0.799   0.360  1.9536  1.2701  1.3050
 6739SOL    HW221117   1.175   0.911   0.248  0.5219  0.6088  0.0880
 6740SOL     OW21118   4.195   3.495   1.041  0.5151  0.1347  0.2898
 6740SOL    HW121119   4.152   3.487   0.952  0.0478 -1.6675  0.6373
 6740SOL    HW221120   4.277   3.438   1.044  1.0305  0.8776  0.7389
 6741SOL     OW21121   4.210   2.418   1.512 -0.2988  0.1409 -0.2814
 6741SOL    HW121122   4.202   2.363   1.429 -0.3797 -1.4507  0.7445
 6741SOL    HW221123   4.135   2.484   1.516 -0.9362 -0.5302 -0.9307
 6742SOL     OW21124   1.684   0.811   0.384 -0.1168  0.0051  0.6843
 6742SOL    HW121125   1.675   0.797   0.285 -1.9144 -0.4561  0.8909
 6742SOL    HW221126   1.708   0.906   0.402  1.0820 -0.0947 -0.2086
 6743SOL     OW21127   3.339   5.591   2.866 -0.0036 -0.0320  0.0875
 6743SOL    HW121128   3.427   5.574   2.911 -0.9669  0.6324  2.3491
 6743SOL    HW221129   3.287   5.658   2.919 -1.8617 -0.3406 -1.2550
 6744SOL     OW21130   2.389   3.576   1.625  0.1593 -0.1484  0.3716
 6744SOL    HW121131   2.403   3.525   1.710  1.2170  0.6984  0.7455
 6744SOL    HW221132   2.300   3.620   1.627 -0.1178 -0.7133  0.7300
 6745SOL     OW21133   4.017   3.794   1.384  0.1672 -0.5734 -0.2434
 6745SOL    HW121134   4.062   3.797   1.294 -1.0222  1.1464 -0.8475
 6745SOL    HW221135   4.065   3.855   1.447  0.2874 -0.8515 -0.0646
 6746SOL     OW21136   0.987   5.334   2.699 -0.1479  0.5664 -0.4870
 6746SOL    HW121137   0.924   5.412   2.707  0.6072  1.0747  1.1482
 6746SOL    HW221138   0.971   5.271   2.775  1.4741  0.8793  0.1736
 6747SOL     OW21139   5.972   6.739   2.152  0.0552 -0.2609  0.1741
 6747SOL    HW121140   6.031   6.723   2.231 -1.5997 -0.1991  1.5021
 6747SOL    HW221141   5.981   6.834   2.122  1.2301 -0.4761 -0.1964
 6748SOL     OW21142   6.252   0.421   5.208  0.1608 -0.1536  0.6577
 6748SOL    HW121143   6.267   0.382   5.117  0.9153  1.5954  0.0010
 6748SOL    HW221144   6.285   0.356   5.277 -0.9641 -1.7598 -0.2405
 6749SOL     OW21145   5.331   3.089   3.125 -0.1979  0.0095  0.0007
 6749SOL    HW121146   5.357   3.113   3.219  0.9238  2.0912 -0.7814
 6749SOL    HW221147   5.403   3.032   3.084 -0.0126  0.2679 -0.0361
 6750SOL     OW21148   3.243   0.274   5.640  0.2769 -0.3721  0.2169
 6750SOL    HW121149   3.255   0.347   5.573  0.2102 -0.0128  0.5941
 6750SOL    HW221150   3.269   0.186   5.599  1.3152 -0.0104  0.0642
 6751SOL     OW21151   2.035   1.375   6.300 -0.2218  0.4598 -0.7294
 6751SOL    HW121152   2.000   1.395   6.392  2.1045  1.5674  0.0001
 6751SOL    HW221153   1.978   1.420   6.232 -1.6592  0.0937  0.1707
 6752SOL     OW21154   2.965   6.022   3.543  0.0188 -0.0279 -0.4197
 6752SOL    HW121155   3.004   5.933   3.519  1.7725 -0.0805  2.2164
 6752SOL    HW221156   3.010   6.094   3.490 -0.0658 -0.5249 -1.1836
 6753SOL     OW21157   1.451   0.806   2.841  0.3900 -0.5192  0.3409
 6753SOL    HW121158   1.508   0.886   2.821 -0.8604  0.6785  1.2940
 6753SOL    HW221159   1.501   0.722   2.818  1.5446  0.5317 -1.1982
 6754SOL     OW21160   6.221   1.727   0.522  0.3541  0.0407  0.0398
 6754SOL    HW121161   6.242   1.714   0.425 -0.2269  1.2698 -0.2681
 6754SOL    HW221162   6.133   1.773   0.531  1.1546  1.4366  1.1047
 6755SOL     OW21163   2.214   2.616   5.298 -0.6546  0.2060 -0.4492
 6755SOL    HW121164   2.312   2.633   5.284 -0.3749 -2.6246 -2.8212
 6755SOL    HW221165   2.162   2.696   5.267  0.8236  0.9936 -1.0293
 6756SOL     OW21166   0.311   6.302   0.968  0.4142  0.0157  0.5702
 6756SOL    HW121167   0.321   6.373   1.037 -0.2183 -0.4961  1.2186
 6756SOL    HW221168   0.384   6.309   0.901  0.1606  1.4877  0.4203
 6757SOL     OW21169   5.904   5.835   5.493  0.3636  0.6877 -0.4069
 6757SOL    HW121170   5.973   5.778   5.448  0.4874  0.3468  0.2065
 6757SOL    HW221171   5.870   5.903   5.428  2.8347  2.2983 -0.1880
 6758SOL     OW21172   6.331   6.761   1.716 -0.2187  1.5577  0.9224
 6758SOL    HW121173   6.361   6.714   1.633 -1.2837  2.3046  0.0715
 6758SOL    HW221174   6.387   6.733   1.793 -0.0056 -0.1187  0.2020
 6759SOL     OW21175   6.648   5.995   0.948 -0.5419 -0.4847  0.6799
 6759SOL    HW121176   6.631   5.991   1.047  0.1918  0.0619  0.8398
 6759SOL    HW221177   6.562   6.010   0.900 -1.1661 -2.4773  1.1001
 6760SOL     OW21178   3.247   3.475   3.194  0.2847  0.0350  0.4328
 6760SOL    HW121179   3.150   3.450   3.195 -0.1789  1.6992  0.8055
 6760SOL    HW221180   3.298   3.416   3.257 -0.8044  0.2390  1.5422
 6761SOL     OW21181   5.815   6.528   4.973  0.0180 -0.3510 -0.1470
 6761SOL    HW121182   5.807   6.592   5.050 -0.1339  0.3315 -0.7145
 6761SOL    HW221183   5.814   6.434   5.007  1.0964 -0.0534  0.7987
 6762SOL     OW21184   6.411   4.826   0.983  0.6119 -0.1496  0.2729
 6762SOL    HW121185   6.417   4.795   1.078 -0.9502  1.0508  0.8091
 6762SOL    HW221186   6.427   4.749   0.922 -1.2330 -1.6154  1.5308
 6763SOL     OW21187   0.360   2.716   1.556  0.0764 -0.0016 -0.2486
 6763SOL    HW121188   0.281   2.668   1.595  0.4466 -0.9514 -0.6230
 6763SOL    HW221189   0.350   2.814   1.569 -0.3627 -0.2221  1.1956
 6764SOL     OW21190   1.428   6.624   2.034 -0.1880 -0.3953 -0.7637
 6764SOL    HW121191   1.402   6.571   2.115  0.5861  3.3195  2.2078
 6764SOL    HW221192   1.364   6.604   1.960 -0.4294 -4.6518  0.3061
 6765SOL     OW21193   1.107   3.639   2.186 -0.5596  0.4875  0.7145
 6765SOL    HW121194   1.115   3.541   2.203 -0.2367  0.4896  0.5875
 6765SOL    HW221195   1.049   3.681   2.255  0.1286  0.3770  1.3761
 6766SOL     OW21196   6.244   5.745   4.775 -0.1393 -0.4209 -0.2692
 6766SOL    HW121197   6.255   5.842   4.753 -0.4689 -0.2534  0.2827
 6766SOL    HW221198   6.230   5.693   4.691  2.8429 -0.4120 -0.8949
 6767SOL     OW21199   2.392   6.813   3.854  0.5306 -0.1507  0.4913
 6767SOL    HW121200   2.339   6.861   3.924  1.8040  0.3645  1.1311
 6767SOL    HW221201   2.424   6.726   3.890  1.1055  0.0732  0.5403
 6768SOL     OW21202   3.702   5.061   5.333  0.3708 -0.4138  0.4111
 6768SOL    HW121203   3.764   5.016   5.269 -1.1777 -0.8654 -0.8316
 6768SOL    HW221204   3.704   5.160   5.318  0.2249 -0.4930 -0.1575
 6769SOL     OW21205   0.971   6.009   4.492 -0.2540 -0.0649 -0.0859
 6769SOL    HW121206   1.030   6.059   4.555 -0.6625 -0.8775  0.9655
 6769SOL    HW221207   0.992   6.035   4.398  2.3397 -0.9097  0.1991
 6770SOL     OW21208   6.163   2.083   2.453 -0.6326  0.3355 -0.0926
 6770SOL    HW121209   6.091   2.023   2.489 -1.1071  1.4676  0.9141
 6770SOL    HW221210   6.216   2.034   2.384 -1.4667 -0.9892  0.1769
 6771SOL     OW21211   0.300   3.426   4.101  0.4632  0.1928  0.2841
 6771SOL    HW121212   0.397   3.422   4.126  0.0770 -0.1289  1.8776
 6771SOL    HW221213   0.282   3.507   4.047  1.3406  1.1614  1.3944
 6772SOL     OW21214   3.336   1.657   6.746  0.1323  0.4742  0.2278
 6772SOL    HW121215   3.325   1.671   6.844 -0.6330  0.0805  0.2092
 6772SOL    HW221216   3.282   1.725   6.696  2.1781  2.0397  0.0221
 6773SOL     OW21217   4.406   5.853   2.653  0.0605 -0.0285 -1.0387
 6773SOL    HW121218   4.428   5.938   2.607 -0.3334  0.8498  0.3325
 6773SOL    HW221219   4.487   5.820   2.703 -0.0519  0.0677 -0.7881
 6774SOL     OW21220   1.146   5.268   1.076 -0.0564  0.2147 -0.2200
 6774SOL    HW121221   1.060   5.280   1.026 -0.7410  0.7870  1.0521
 6774SOL    HW221222   1.222   5.260   1.011 -1.0616 -0.2841 -1.3592
 6775SOL     OW21223   0.674   4.511   2.737  0.0781 -0.4570 -0.1645
 6775SOL    HW121224   0.581   4.476   2.723  0.1091  0.0447 -1.8229
 6775SOL    HW221225   0.735   4.436   2.762 -0.6648 -0.8666  0.4664
 6776SOL     OW21226   6.039   4.763   0.992  0.2403  0.2516  0.4098
 6776SOL    HW121227   5.941   4.773   0.975  0.2073  1.6081  1.1876
 6776SOL    HW221228   6.057   4.673   1.031 -0.4691 -0.5810 -1.1059
 6777SOL     OW21229   1.145   2.228   4.759  0.0883 -0.1113  0.2257
 6777SOL    HW121230   1.107   2.320   4.766  2.4912  1.0467 -0.8147
 6777SOL    HW221231   1.132   2.193   4.666  1.1492  0.1448 -0.0327
 6778SOL     OW21232   5.469   5.280   4.737  0.5034 -0.3911  0.3619
 6778SOL    HW121233   5.408   5.327   4.801  1.8241  1.6909  0.2209
 6778SOL    HW221234   5.474   5.333   4.652  0.8991 -1.6459 -0.4178
 6779SOL     OW21235   5.192   2.739   3.052 -0.5423 -0.5253  0.3890
 6779SOL    HW121236   5.102   2.718   3.015 -0.4179 -1.4965  0.5875
 6779SOL    HW221237   5.183   2.773   3.146 -0.6225 -3.7267  1.7015
 6780SOL     OW21238   3.272   3.139   4.469  0.1875  0.0349 -0.1915
 6780SOL    HW121239   3.189   3.135   4.524  0.3266  0.6283  0.0750
 6780SOL    HW221240   3.247   3.141   4.372 -0.1463  0.8612 -0.0954
 6781SOL     OW21241   6.366   6.224   2.519  0.6761 -0.5444  0.0986
 6781SOL    HW121242   6.336   6.319   2.509 -0.5262 -1.0093 -0.8442
 6781SOL    HW221243   6.387   6.206   2.616 -0.0259  0.4025  0.4358
 6782SOL     OW21244   0.739   3.295   6.887  0.0876 -0.0789 -0.8305
 6782SOL    HW121245   0.695   3.371   6.839 -0.3036  1.0729  1.2206
 6782SOL    HW221246   0.677   3.260   6.957  1.3204 -0.3845  0.1485
 6783SOL     OW21247   6.644   0.442   2.228  0.6171  0.3328 -0.8646
 6783SOL    HW121248   6.627   0.489   2.314 -0.2034 -0.4010 -0.6063
 6783SOL    HW221249   6.718   0.376   2.240 -0.9867 -1.4061 -0.0499
 6784SOL     OW21250   3.864   5.509   4.407  0.1490  0.0125 -0.1749
 6784SOL    HW121251   3.774   5.515   4.364 -0.3805 -0.6443  0.8035
 6784SOL    HW221252   3.853   5.488   4.504  1.2901  1.8413  0.3967
 6785SOL     OW21253   1.974   4.303   2.754  0.1850  0.3321 -1.0902
 6785SOL    HW121254   2.006   4.250   2.675  1.6051  0.6975 -0.7899
 6785SOL    HW221255   1.875   4.295   2.761  0.2016 -1.0440 -1.9438
 6786SOL     OW21256   4.815   0.665   3.823  0.0147 -0.0721 -0.4655
 6786SOL    HW121257   4.827   0.593   3.754 -2.4077 -1.5779  0.5544
 6786SOL    HW221258   4.849   0.632   3.911  1.4717  1.1600 -0.5429
 6787SOL     OW21259   0.826   0.796   5.536  0.0344  0.2268  0.1914
 6787SOL    HW121260   0.738   0.817   5.579 -0.0963  1.9357 -0.8138
 6787SOL    HW221261   0.839   0.854   5.455  2.0073 -0.1050  0.2076
 6788SOL     OW21262   1.945   3.739   5.059 -0.3167  0.5164 -0.0910
 6788SOL    HW121263   1.992   3.669   5.005 -0.3233  0.3928  0.0650
 6788SOL    HW221264   2.012   3.806   5.091 -0.0889 -0.1736  0.9337
 6789SOL     OW21265   5.479   3.717   1.079  0.4018  0.1954  0.0941
 6789SOL    HW121266   5.476   3.619   1.102 -1.3193  0.2595  0.2765
 6789SOL    HW221267   5.495   3.728   0.981 -1.4079 -0.3565 -0.2939
 6790SOL     OW21268   5.327   0.323   2.736 -0.2470  0.5396  0.6242
 6790SOL    HW121269   5.299   0.397   2.674  2.2386  0.5515 -0.6099
 6790SOL    HW221270   5.271   0.243   2.719 -0.0401  0.7412 -1.2830
 6791SOL     OW21271   0.840   4.495   0.772  0.1461 -0.0051  0.3753
 6791SOL    HW121272   0.841   4.577   0.714  1.8534 -0.0609  0.2949
 6791SOL    HW221273   0.932   4.476   0.806 -0.6802 -0.3854  2.5616
 6792SOL     OW21274   1.420   3.369   4.002 -0.3060  0.0870 -0.0080
 6792SOL    HW121275   1.455   3.461   4.024 -0.9776  0.5646 -0.8600
 6792SOL    HW221276   1.390   3.367   3.906  1.5509 -1.5997 -0.6242
 6793SOL     OW21277   3.827   3.365   3.911  0.4435  0.4607 -0.1619
 6793SOL    HW121278   3.908   3.389   3.966 -0.2048 -0.2080  1.1240
 6793SOL    HW221279   3.745   3.395   3.959 -0.1033  1.3496 -1.5693
 6794SOL     OW21280   3.811   2.690   0.439 -0.4462 -0.1664  0.4739
 6794SOL    HW121281   3.805   2.778   0.391 -1.7498  0.2226  1.2960
 6794SOL    HW221282   3.830   2.617   0.373  0.2145  0.6612 -0.2824
 6795SOL     OW21283   5.582   0.852   6.723  0.1180  0.0826 -0.1093
 6795SOL    HW121284   5.526   0.827   6.802  2.0827  0.2322  1.4075
 6795SOL    HW221285   5.637   0.774   6.695 -0.3970  0.0990 -1.2419
 6796SOL     OW21286   0.011   5.897   3.958  0.5288 -0.1796 -0.3688
 6796SOL    HW121287   0.050   5.824   4.015 -0.1516 -0.6197 -0.4503
 6796SOL    HW221288   0.057   5.983   3.977  0.1350 -0.2602  1.0650
 6797SOL     OW21289   6.159   0.366   0.477 -0.2500  0.5354 -0.2070
 6797SOL    HW121290   6.186   0.327   0.389  1.0746 -2.8235  1.5225
 6797SOL    HW221291   6.060   0.373   0.481 -0.3460  0.5287 -1.8516
 6798SOL     OW21292   5.083   3.053   4.120  0.3096  0.3644 -0.3671
 6798SOL    HW121293   5.023   2.987   4.074 -0.6330 -0.4491  1.9138
 6798SOL    HW221294   5.173   3.053   4.075 -0.5994 -0.1924 -2.3136
 6799SOL     OW21295   5.530   4.224   5.837 -0.1447 -0.6741 -0.1186
 6799SOL    HW121296   5.457   4.245   5.902  0.0149  1.4203 -0.5202
 6799SOL    HW221297   5.499   4.244   5.744  0.0546 -2.4028 -0.5809
 6800SOL     OW21298   3.876   4.333   5.662  0.0535  0.5469 -0.0285
 6800SOL    HW121299   3.782   4.356   5.637  0.6177  1.6472 -1.2406
 6800SOL    HW221300   3.939   4.389   5.609  1.4011 -0.0283  0.9195
 6801SOL     OW21301   1.644   2.020   1.659  0.2678 -0.4309 -0.0116
 6801SOL    HW121302   1.651   2.017   1.759  0.4827 -0.1504 -0.0205
 6801SOL    HW221303   1.613   2.111   1.630 -0.6215 -0.7611 -0.1488
 6802SOL     OW21304   4.832   2.199   5.255  0.8508 -0.0263  0.3928
 6802SOL    HW121305   4.923   2.202   5.213  0.7256 -0.7713  0.0454
 6802SOL    HW221306   4.812   2.105   5.282  1.1059  0.4847  2.5416
 6803SOL     OW21307   5.308   1.917   6.118 -0.2249 -0.1652 -0.1561
 6803SOL    HW121308   5.385   1.937   6.179  0.3653 -0.6622 -0.7236
 6803SOL    HW221309   5.222   1.925   6.169  0.1042  1.5864  0.1816
 6804SOL     OW21310   6.671   0.320   0.331  0.2047  0.3348 -0.5717
 6804SOL    HW121311   6.572   0.311   0.347  0.4023 -0.3697  0.3521
 6804SOL    HW221312   6.718   0.240   0.368  1.0856  0.4077 -1.4911
 6805SOL     OW21313   6.693   3.584   4.685 -0.0156 -0.5589  0.2103
 6805SOL    HW121314   6.624   3.520   4.650 -0.3223  0.0910 -0.3847
 6805SOL    HW221315   6.664   3.678   4.667  0.4985 -0.2436  0.9539
 6806SOL     OW21316   6.177   2.553   5.128  0.5121 -0.3758  0.0850
 6806SOL    HW121317   6.276   2.562   5.120  0.4215 -0.5294 -1.5474
 6806SOL    HW221318   6.134   2.643   5.116  0.5097  0.0873  2.9162
 6807SOL     OW21319   4.311   3.339   1.702  0.4361  1.0163  0.0490
 6807SOL    HW121320   4.384   3.328   1.636  1.7035  1.1779  1.3825
 6807SOL    HW221321   4.297   3.253   1.751  0.0873  1.1347  0.1627
 6808SOL     OW21322   5.305   4.320   5.975 -0.4533 -0.6883  0.4855
 6808SOL    HW121323   5.302   4.406   6.027  2.0810  1.7155 -2.8609
 6808SOL    HW221324   5.228   4.318   5.911  1.1686  0.9217 -1.6987
 6809SOL     OW21325   6.009   4.650   6.891 -0.0127  0.4974 -0.3222
 6809SOL    HW121326   6.051   4.641   6.981 -0.1018 -1.3520 -0.4095
 6809SOL    HW221327   6.054   4.586   6.828 -0.4331  1.2504 -1.3983
 6810SOL     OW21328   6.264   3.790   1.447 -0.1350  0.4046 -0.3319
 6810SOL    HW121329   6.272   3.879   1.492  1.0488 -0.5450  1.4296
 6810SOL    HW221330   6.176   3.748   1.471 -0.0481  0.4549  0.0805
 6811SOL     OW21331   1.066   2.507   4.209  0.5498 -0.2411  0.4284
 6811SOL    HW121332   1.083   2.601   4.182  0.7308  0.2148  2.0283
 6811SOL    HW221333   1.046   2.452   4.128 -3.0369  1.8272 -0.3256
 6812SOL     OW21334   6.902   0.410   1.508 -0.5749 -0.1874 -0.0425
 6812SOL    HW121335   6.899   0.333   1.573 -2.3775 -1.2200 -1.2965
 6812SOL    HW221336   6.900   0.375   1.415 -0.1121  1.3662 -0.6614
 6813SOL     OW21337   0.740   1.562   0.858  0.1719 -1.0577  0.0625
 6813SOL    HW121338   0.801   1.553   0.779  0.1470 -1.6557  0.1124
 6813SOL    HW221339   0.648   1.585   0.827  0.6452  1.0499  0.0365
 6814SOL     OW21340   5.118   3.867   0.940  0.0695 -0.1778 -0.4716
 6814SOL    HW121341   5.186   3.878   1.012  0.2829 -0.1598 -0.6735
 6814SOL    HW221342   5.134   3.935   0.868 -1.1841  0.9400  0.2576
 6815SOL     OW21343   3.037   4.465   6.348 -0.2024  0.9917  0.1930
 6815SOL    HW121344   2.995   4.427   6.265 -1.0394  1.0774  0.5725
 6815SOL    HW221345   2.988   4.547   6.376 -1.2098 -0.1215  1.8860
 6816SOL     OW21346   3.097   0.997   0.175  0.2791 -0.2320  0.1967
 6816SOL    HW121347   3.086   0.953   0.263  1.5073  0.7603  0.8862
 6816SOL    HW221348   3.009   1.001   0.128 -0.5835  0.0768  1.7789
 6817SOL     OW21349   2.422   5.737   6.922 -0.1235 -0.0010  0.2448
 6817SOL    HW121350   2.454   5.690   6.839 -0.0920  1.6987 -0.7544
 6817SOL    HW221351   2.324   5.756   6.913 -0.3101 -0.5769  0.9986
 6818SOL     OW21352   6.151   0.481   6.728 -0.7090 -0.6092  0.0159
 6818SOL    HW121353   6.204   0.537   6.664  0.1364 -2.2635 -0.7837
 6818SOL    HW221354   6.061   0.522   6.741  0.0698  1.2432 -0.0690
 6819SOL     OW21355   0.189   0.739   4.643  0.1734 -0.2619 -0.4716
 6819SOL    HW121356   0.181   0.705   4.549 -0.7167  0.5485 -0.7086
 6819SOL    HW221357   0.109   0.794   4.665 -0.2051 -1.4196  1.1978
 6820SOL     OW21358   5.019   3.642   6.534 -0.2078  0.4085  0.0959
 6820SOL    HW121359   5.103   3.665   6.484  0.9593 -2.1434  0.7114
 6820SOL    HW221360   5.032   3.661   6.631 -1.3510  2.4375 -0.0939
 6821SOL     OW21361   2.975   6.742   0.071 -0.6059 -0.5176 -0.3916
 6821SOL    HW121362   2.966   6.644   0.088  0.0130 -0.6954 -1.0434
 6821SOL    HW221363   2.884   6.783   0.062 -0.8710 -0.9891  0.0830
 6822SOL     OW21364   6.013   6.220   0.818  0.5071  0.3897 -0.1400
 6822SOL    HW121365   6.027   6.319   0.814 -0.2420  0.7122  2.7978
 6822SOL    HW221366   6.092   6.173   0.778  1.1544  2.1389 -1.0262
 6823SOL     OW21367   4.737   0.415   0.549 -0.0488  0.6124 -0.0060
 6823SOL    HW121368   4.802   0.419   0.625 -1.2626 -1.5101  1.2550
 6823SOL    HW221369   4.644   0.414   0.586 -0.6445 -2.6897 -1.2768
 6824SOL     OW21370   2.632   5.570   4.355  0.1976  0.3646 -0.4917
 6824SOL    HW121371   2.706   5.511   4.387  0.1230  0.9395  0.7635
 6824SOL    HW221372   2.544   5.533   4.383  0.2110  1.8600  1.7340
 6825SOL     OW21373   2.899   5.569   2.700  0.0726 -0.6705  0.0700
 6825SOL    HW121374   2.832   5.507   2.658  1.1675 -1.5103 -0.4913
 6825SOL    HW221375   2.880   5.578   2.797 -0.0752 -1.9689  0.1807
 6826SOL     OW21376   4.575   2.960   0.687 -0.5010 -0.1554 -0.9418
 6826SOL    HW121377   4.591   3.027   0.759  2.7516  0.8508 -2.3782
 6826SOL    HW221378   4.572   2.869   0.726 -2.5233  0.5657  0.7810
 6827SOL     OW21379   3.419   4.908   3.487  0.3316  0.0417  0.7829
 6827SOL    HW121380   3.357   4.972   3.532 -0.4555  1.4796 -2.0657
 6827SOL    HW221381   3.507   4.953   3.471  0.9836 -0.8270  1.7622
 6828SOL     OW21382   1.969   3.852   2.184  0.4541 -0.4739  0.3771
 6828SOL    HW121383   1.978   3.795   2.103  1.2987  0.7447 -0.4183
 6828SOL    HW221384   1.881   3.833   2.229  1.7250 -4.2729  1.6548
 6829SOL     OW21385   0.737   6.859   0.372 -0.8262 -0.0668 -0.4468
 6829SOL    HW121386   0.713   6.950   0.339 -2.2124  0.0092  0.6880
 6829SOL    HW221387   0.806   6.866   0.444 -0.6300  0.0535 -0.6476
 6830SOL     OW21388   3.621   0.744   5.454  0.4499  0.1117 -0.7610
 6830SOL    HW121389   3.609   0.823   5.514  0.2080 -1.0862  0.8638
 6830SOL    HW221390   3.707   0.698   5.476  0.3060 -0.4095 -1.2552
 6831SOL     OW21391   0.675   1.433   4.838  0.3690  0.3951  0.1181
 6831SOL    HW121392   0.681   1.345   4.791 -1.6669  0.1315  0.2514
 6831SOL    HW221393   0.722   1.503   4.784  1.1118 -0.5648 -0.5128
 6832SOL     OW21394   6.594   1.538   3.434 -0.2230  0.5577  0.1551
 6832SOL    HW121395   6.683   1.495   3.448 -0.2987  0.0926 -0.6921
 6832SOL    HW221396   6.550   1.497   3.354 -0.7909  1.4415  0.0017
 6833SOL     OW21397   4.035   0.442   5.655  0.0258 -0.0670 -1.1353
 6833SOL    HW121398   4.073   0.453   5.563 -0.1920  0.2347 -1.1914
 6833SOL    HW221399   3.945   0.485   5.660 -0.0496 -0.2520 -0.8342
 6834SOL     OW21400   0.941   4.553   5.738  0.1256 -0.0975 -0.1826
 6834SOL    HW121401   0.867   4.511   5.685  2.0851 -2.0076 -1.5625
 6834SOL    HW221402   1.029   4.527   5.698  1.5838  2.0157  1.4564
 6835SOL     OW21403   6.161   1.835   6.544 -0.0364  0.0345 -0.4681
 6835SOL    HW121404   6.094   1.894   6.498 -0.4981 -0.5034 -0.5080
 6835SOL    HW221405   6.223   1.797   6.476  0.4467  0.7074 -0.4031
 6836SOL     OW21406   5.132   2.550   0.092 -0.0248  0.0365 -0.1004
 6836SOL    HW121407   5.074   2.480   0.135 -0.5729  0.1496 -0.6478
 6836SOL    HW221408   5.225   2.541   0.127 -0.5405  0.4039  1.4423
 6837SOL     OW21409   5.311   3.107   3.949  0.4236  0.1856 -0.1730
 6837SOL    HW121410   5.261   3.110   3.862  0.1971  1.4488 -0.0072
 6837SOL    HW221411   5.409   3.107   3.931  0.3966  1.5273 -0.4276
 6838SOL     OW21412   2.143   1.317   4.429 -0.1729  0.6569  0.1335
 6838SOL    HW121413   2.169   1.233   4.381 -0.6311  0.6059 -0.0260
 6838SOL    HW221414   2.181   1.396   4.380  0.4631  0.5322  0.4185
 6839SOL     OW21415   2.699   1.539   1.902  0.5564  0.3216 -0.5137
 6839SOL    HW121416   2.609   1.566   1.869  0.6487 -0.1348 -1.1534
 6839SOL    HW221417   2.728   1.603   1.973 -0.6623 -0.0448  0.3560
 6840SOL     OW21418   2.564   0.004   6.374  0.8180 -0.7953  0.5645
 6840SOL    HW121419   2.559  -0.095   6.364  1.6672 -0.7272 -0.8176
 6840SOL    HW221420   2.484   0.046   6.332  0.3285 -0.8902  1.3780
 6841SOL     OW21421   0.263   5.753   2.570  0.4397 -0.1452 -0.5035
 6841SOL    HW121422   0.163   5.750   2.570  0.4617 -1.4126 -1.4993
 6841SOL    HW221423   0.296   5.759   2.665 -0.5494 -0.4994 -0.1230
 6842SOL     OW21424   3.680   2.466   0.096 -0.6560 -0.1628 -0.0057
 6842SOL    HW121425   3.704   2.439   0.003 -0.3642  0.6779 -0.1742
 6842SOL    HW221426   3.716   2.557   0.116 -1.0721 -0.1592  0.7878
 6843SOL     OW21427   1.394   5.599   2.504 -0.5484 -0.4051 -0.4038
 6843SOL    HW121428   1.413   5.671   2.438  1.5018  1.2812  1.8669
 6843SOL    HW221429   1.326   5.536   2.465 -0.9495  1.5727 -3.2503
 6844SOL     OW21430   3.432   0.707   2.557  0.2081 -0.2305  0.1110
 6844SOL    HW121431   3.359   0.735   2.620 -0.5400  0.4405 -1.0103
 6844SOL    HW221432   3.396   0.637   2.494  0.3856  0.4072 -0.7197
 6845SOL     OW21433   5.786   1.018   2.251  0.0557 -0.3879  0.2098
 6845SOL    HW121434   5.856   1.035   2.182 -2.0081  0.1728 -1.8950
 6845SOL    HW221435   5.797   1.083   2.326  1.0584  0.4826 -0.6577
 6846SOL     OW21436   0.021   4.782   6.746 -0.1628  0.0001 -0.2348
 6846SOL    HW121437  -0.011   4.864   6.698  1.2030  0.5945 -0.1908
 6846SOL    HW221438   0.008   4.702   6.687 -0.9954  0.3272 -0.5063
 6847SOL     OW21439   6.397   0.988   4.813  0.3171 -0.7181 -0.1424
 6847SOL    HW121440   6.487   1.029   4.810 -0.5192  1.1463 -1.2124
 6847SOL    HW221441   6.369   0.975   4.908  1.6583 -1.3060  0.2009
 6848SOL     OW21442   6.031   1.481   1.409 -0.8503  0.1944 -0.2765
 6848SOL    HW121443   5.953   1.419   1.411  0.2756 -1.2690 -0.1692
 6848SOL    HW221444   6.107   1.441   1.461 -0.8070  2.7099  1.8007
 6849SOL     OW21445   1.041   4.914   4.185  0.1200  0.4680 -0.2282
 6849SOL    HW121446   0.983   4.964   4.120  0.6363  0.6218 -0.5733
 6849SOL    HW221447   1.111   4.863   4.134 -0.1595 -0.3060  0.1413
 6850SOL     OW21448   1.537   1.928   5.849 -0.5850 -0.2214 -0.3381
 6850SOL    HW121449   1.623   1.894   5.811 -0.4996 -0.5874  0.1702
 6850SOL    HW221450   1.479   1.961   5.775  0.4276  1.0640 -0.6065
 6851SOL     OW21451   3.296   3.592   6.739  0.9429  0.0270  0.7076
 6851SOL    HW121452   3.365   3.525   6.766  1.4924  0.6522  0.8839
 6851SOL    HW221453   3.264   3.642   6.820  1.9128  1.2618  0.3666
 6852SOL     OW21454   3.385   5.217   3.051 -0.2272 -0.2952  0.1364
 6852SOL    HW121455   3.420   5.295   3.103 -0.9897  0.0606  0.1151
 6852SOL    HW221456   3.417   5.132   3.094 -1.8759 -0.0554  1.9668
 6853SOL     OW21457   6.589   0.161   5.276 -0.6896 -0.2611 -0.8489
 6853SOL    HW121458   6.687   0.172   5.293 -0.9005 -0.6984  0.8501
 6853SOL    HW221459   6.575   0.137   5.180  0.9890 -1.5191 -0.8353
 6854SOL     OW21460   3.747   3.642   5.344 -0.1011 -0.0128 -0.5834
 6854SOL    HW121461   3.731   3.729   5.296  4.3271  1.8850  0.9274
 6854SOL    HW221462   3.794   3.659   5.430  1.0679 -3.9704 -0.2458
 6855SOL     OW21463   3.832   2.781   5.481 -0.7203 -0.3882 -0.4190
 6855SOL    HW121464   3.816   2.696   5.531  3.1520 -2.5211 -2.2906
 6855SOL    HW221465   3.884   2.843   5.539  0.3338 -1.2246 -0.4269
 6856SOL     OW21466   1.596   1.793   0.658  0.2332 -0.2753  0.4068
 6856SOL    HW121467   1.580   1.810   0.560  3.4664  0.7429 -0.0772
 6856SOL    HW221468   1.523   1.835   0.712  0.1601  2.2118 -1.4580
 6857SOL     OW21469   0.997   6.680   3.904  0.2573 -0.2552  0.1925
 6857SOL    HW121470   0.996   6.731   3.990 -1.0343  1.1727 -0.6202
 6857SOL    HW221471   1.091   6.671   3.872  0.5441  1.9586  0.2179
 6858SOL     OW21472   0.856   0.341   5.388 -0.0102 -0.3227 -0.3537
 6858SOL    HW121473   0.949   0.344   5.352 -0.6681  1.5113 -2.0702
 6858SOL    HW221474   0.854   0.384   5.478  0.6030  0.7685 -0.8445
 6859SOL     OW21475   3.527   2.108   3.191  0.7415  1.0128 -0.0172
 6859SOL    HW121476   3.437   2.127   3.150  0.6851  2.1100  0.5956
 6859SOL    HW221477   3.586   2.066   3.123 -0.2890  0.1038 -0.3865
 6860SOL     OW21478   0.888   5.610   6.186  0.3169  0.3383  0.3083
 6860SOL    HW121479   0.875   5.642   6.092 -3.2426  0.4183  0.7154
 6860SOL    HW221480   0.897   5.510   6.186 -0.4202  0.2653 -0.0750
 6861SOL     OW21481   1.511   1.724   6.303  0.0015  0.1623  0.2038
 6861SOL    HW121482   1.415   1.701   6.289  0.6037 -2.6391  0.0797
 6861SOL    HW221483   1.549   1.760   6.218 -1.0255  1.8404  0.4149
 6862SOL     OW21484   1.114   2.817   5.751  0.2568  0.1368 -0.2718
 6862SOL    HW121485   1.205   2.825   5.711  1.3470 -1.2797  1.7592
 6862SOL    HW221486   1.111   2.865   5.838 -1.5294  1.6462 -1.0833
 6863SOL     OW21487   0.371   1.989   6.437  0.1369  0.7196 -0.4583
 6863SOL    HW121488   0.356   1.894   6.409  0.4058  0.3326  0.6268
 6863SOL    HW221489   0.428   2.035   6.370  0.6459 -0.1150 -0.6109
 6864SOL     OW21490   4.514   5.277   0.086 -0.2388 -0.4553  0.2124
 6864SOL    HW121491   4.508   5.297   0.184 -1.6086  0.8148 -0.0936
 6864SOL    HW221492   4.608   5.252   0.063 -0.0124 -1.3338  1.9313
 6865SOL     OW21493   4.882   1.939   4.594  0.9163 -0.1172  0.9015
 6865SOL    HW121494   4.872   2.037   4.579 -0.6715 -0.0506  2.1111
 6865SOL    HW221495   4.965   1.906   4.548  2.1372  1.9918  1.4527
 6866SOL     OW21496   4.103   4.439   5.589 -0.1910  0.1300 -0.3951
 6866SOL    HW121497   4.186   4.402   5.630 -0.0372 -0.3374 -1.1049
 6866SOL    HW221498   4.121   4.463   5.493 -0.8943 -0.0700 -0.5867
 6867SOL     OW21499   4.113   3.249   3.487  0.0191 -0.1387  0.0264
 6867SOL    HW121500   4.122   3.160   3.533 -0.1893  2.0307  4.8992
 6867SOL    HW221501   4.018   3.280   3.495  0.3589  1.0702 -0.4807
 6868SOL     OW21502   5.497   1.266   1.736 -0.0963  0.0268 -0.5153
 6868SOL    HW121503   5.572   1.204   1.717  1.8071  2.3025 -0.9101
 6868SOL    HW221504   5.443   1.281   1.653 -0.4690 -0.9147 -0.4547
 6869SOL     OW21505   1.082   2.296   5.822 -0.0672  0.2990  0.2831
 6869SOL    HW121506   1.154   2.364   5.807  0.5462 -0.5328 -0.6686
 6869SOL    HW221507   0.995   2.330   5.787 -0.4242  1.7559  2.3805
 6870SOL     OW21508   4.699   4.359   0.155  0.5532 -0.2852 -0.2890
 6870SOL    HW121509   4.766   4.287   0.178  2.1670  1.3406  0.3582
 6870SOL    HW221510   4.680   4.356   0.057  0.5193 -1.6447 -0.2581
 6871SOL     OW21511   6.302   4.649   2.615 -0.5405 -0.6461 -0.2494
 6871SOL    HW121512   6.232   4.672   2.548 -1.3989 -1.1430  0.4613
 6871SOL    HW221513   6.337   4.733   2.656 -0.7919 -0.3959 -0.5441
 6872SOL     OW21514   4.468   5.858   6.136 -0.1362  0.5975  0.0610
 6872SOL    HW121515   4.554   5.855   6.187  0.6108  1.2800 -1.0963
 6872SOL    HW221516   4.407   5.927   6.175  0.8207  1.8150 -0.5204
 6873SOL     OW21517   1.147   4.822   2.502 -0.3779  0.1716 -0.1867
 6873SOL    HW121518   1.192   4.907   2.530 -1.1512  0.5543 -0.0815
 6873SOL    HW221519   1.149   4.757   2.578  2.4016 -0.8541 -1.0393
 6874SOL     OW21520   5.172   6.120   5.258  0.1304  0.0866  0.0575
 6874SOL    HW121521   5.228   6.063   5.196 -0.3833  2.3346 -2.6791
 6874SOL    HW221522   5.089   6.071   5.282  0.8914 -1.3167 -0.0558
 6875SOL     OW21523   2.445   5.652   6.630 -0.1489  0.2046  0.2935
 6875SOL    HW121524   2.543   5.667   6.618 -0.1693  1.7483  1.6527
 6875SOL    HW221525   2.398   5.670   6.543  0.7353 -0.2455 -0.2884
 6876SOL     OW21526   4.563   2.003   3.063 -0.5627  0.1538 -0.5567
 6876SOL    HW121527   4.482   1.985   3.119 -0.4460  0.3731 -0.3113
 6876SOL    HW221528   4.555   2.093   3.021  0.3406  0.9728  0.9131
 6877SOL     OW21529   2.940   6.805   2.626  0.3374 -0.1680  0.1441
 6877SOL    HW121530   2.857   6.757   2.653  0.6041 -0.8512 -0.2348
 6877SOL    HW221531   2.917   6.899   2.599 -0.2459 -0.2162  0.4735
 6878SOL     OW21532   3.006   3.955   6.331 -0.6884 -0.4637  0.3264
 6878SOL    HW121533   2.975   3.933   6.238 -0.0965  0.4139 -0.0937
 6878SOL    HW221534   2.968   4.043   6.358  2.5085  1.4130 -0.8014
 6879SOL     OW21535   5.542   4.317   2.452  0.6240  0.5949  0.1521
 6879SOL    HW121536   5.593   4.361   2.527  1.5758  1.2669 -0.8441
 6879SOL    HW221537   5.528   4.221   2.473  4.3294 -0.2426 -0.4279
 6880SOL     OW21538   3.738   2.138   3.866  0.0481  0.0506  0.8226
 6880SOL    HW121539   3.639   2.143   3.878 -0.0504 -0.5674  0.2878
 6880SOL    HW221540   3.764   2.049   3.829  0.8329  0.1128  1.1900
 6881SOL     OW21541   1.402   2.250   3.364 -0.2805 -0.4494 -0.4821
 6881SOL    HW121542   1.462   2.325   3.395 -0.5734 -0.0600 -0.8536
 6881SOL    HW221543   1.307   2.274   3.383 -0.2734 -1.5028  1.0396
 6882SOL     OW21544   1.560   2.914   1.895 -0.3877 -0.4732 -1.0149
 6882SOL    HW121545   1.578   2.904   1.993  0.5560  0.6075 -1.0482
 6882SOL    HW221546   1.500   2.993   1.880 -1.2536 -1.1594 -1.2647
 6883SOL     OW21547   2.576   0.796   2.425 -0.0082 -0.8798 -0.0924
 6883SOL    HW121548   2.507   0.868   2.434  0.8047 -0.3068  2.4585
 6883SOL    HW221549   2.558   0.725   2.493  1.7394 -0.8597  0.4207
 6884SOL     OW21550   5.678   6.886   6.400 -0.1153 -0.2410  0.2704
 6884SOL    HW121551   5.677   6.974   6.448 -0.2898 -0.3099  0.3959
 6884SOL    HW221552   5.744   6.890   6.325 -0.1805  0.0253  0.2230
 6885SOL     OW21553   6.631   0.915   2.889  0.2363 -0.3090  0.0756
 6885SOL    HW121554   6.721   0.891   2.852 -0.0940 -1.1012 -0.2280
 6885SOL    HW221555   6.614   1.012   2.872  1.0170 -0.1548  0.1112
 6886SOL     OW21556   1.455   1.149   6.877 -0.5134 -0.0575  0.2631
 6886SOL    HW121557   1.472   1.241   6.843 -0.9849  0.3495  1.1029
 6886SOL    HW221558   1.526   1.123   6.943 -0.5846 -0.1506  0.3045
 6887SOL     OW21559   5.156   4.218   6.311 -0.5861 -0.0476 -0.2407
 6887SOL    HW121560   5.116   4.301   6.350 -1.0962 -0.9627  1.2547
 6887SOL    HW221561   5.131   4.139   6.367 -0.7666 -1.3470 -2.0674
 6888SOL     OW21562   1.542   2.215   6.297  0.3750  0.3470  0.8824
 6888SOL    HW121563   1.514   2.297   6.247 -1.1142 -0.1649  0.8188
 6888SOL    HW221564   1.529   2.135   6.239  0.6360 -0.0554  1.3700
 6889SOL     OW21565   1.130   0.955   3.333 -0.1839  0.0571  0.0004
 6889SOL    HW121566   1.087   0.870   3.302 -1.9618  0.8400  0.1679
 6889SOL    HW221567   1.222   0.937   3.365 -0.2162 -1.6541 -0.7948
 6890SOL     OW21568   2.733   4.851   4.366 -0.1745 -0.3658 -0.2203
 6890SOL    HW121569   2.746   4.949   4.378 -0.1823 -0.4506  0.4697
 6890SOL    HW221570   2.658   4.836   4.301  0.3982  0.0838 -1.0016
 6891SOL     OW21571   6.426   4.720   1.550  0.2411  0.1416 -0.0337
 6891SOL    HW121572   6.486   4.667   1.610  1.0326  2.2445  1.1346
 6891SOL    HW221573   6.331   4.692   1.564  0.2611  1.2597  3.0728
 6892SOL     OW21574   4.036   1.280   1.645  0.4298 -0.1047  0.2846
 6892SOL    HW121575   4.002   1.367   1.681  0.4942 -1.2121  3.2484
 6892SOL    HW221576   4.123   1.294   1.599  0.5595  1.3542  0.9363
 6893SOL     OW21577   0.869   4.664   1.932  0.0894  0.0579 -0.1626
 6893SOL    HW121578   0.789   4.695   1.880  1.2666  1.2380 -1.3650
 6893SOL    HW221579   0.903   4.739   1.988  1.2251  0.0708 -0.8271
 6894SOL     OW21580   0.376   4.483   2.704  0.6779 -0.2500 -0.7938
 6894SOL    HW121581   0.348   4.389   2.719 -0.1930  0.0682 -0.3763
 6894SOL    HW221582   0.403   4.495   2.608 -0.0362 -0.7112 -1.0555
 6895SOL     OW21583   2.209   1.972   2.653 -0.6187  0.3387 -0.3667
 6895SOL    HW121584   2.243   2.063   2.678  0.7275 -0.7645  2.2344
 6895SOL    HW221585   2.110   1.975   2.641 -0.3349  2.6169 -2.9430
 6896SOL     OW21586   5.607   2.352   5.826  0.0240  0.4830 -0.3135
 6896SOL    HW121587   5.600   2.391   5.734  2.3564 -0.1184 -0.8093
 6896SOL    HW221588   5.692   2.383   5.868  0.3431 -1.4537  0.5440
 6897SOL     OW21589   3.409   5.129   4.599 -0.6024  0.3884 -0.7887
 6897SOL    HW121590   3.329   5.180   4.568 -2.6429 -2.6790 -0.9080
 6897SOL    HW221591   3.424   5.050   4.539  0.7628 -0.7108  0.9104
 6898SOL     OW21592   0.364   6.898   0.879  0.3571 -0.1596  0.3128
 6898SOL    HW121593   0.455   6.912   0.917  1.2825 -0.3992 -1.6632
 6898SOL    HW221594   0.344   6.970   0.812 -1.3168  0.4231  1.3698
 6899SOL     OW21595   4.752   2.548   4.072 -0.1881 -0.5304  0.4827
 6899SOL    HW121596   4.682   2.496   4.121  0.9434 -1.7125  0.9078
 6899SOL    HW221597   4.840   2.502   4.082  0.2792 -0.2438 -1.7834
 6900SOL     OW21598   2.639   4.410   5.263 -0.3074 -0.3281  0.5463
 6900SOL    HW121599   2.563   4.414   5.198 -1.1804 -1.0092  1.4906
 6900SOL    HW221600   2.724   4.436   5.216 -0.9613 -0.4382 -0.7585
 6901SOL     OW21601   4.193   2.989   6.843 -0.0784  0.2214  0.0880
 6901SOL    HW121602   4.110   3.029   6.805  0.2397  1.4080  0.5911
 6901SOL    HW221603   4.179   2.972   6.941  0.0963 -0.0920  0.0600
 6902SOL     OW21604   3.642   5.088   1.635  0.0785 -0.2781  0.1207
 6902SOL    HW121605   3.564   5.151   1.638 -1.3572 -1.9919  1.8819
 6902SOL    HW221606   3.705   5.109   1.710 -0.3489 -0.8186  0.6460
 6903SOL     OW21607   4.130   3.466   3.326 -0.0683 -0.5872  0.3420
 6903SOL    HW121608   4.046   3.474   3.380  0.3167  2.3859  0.6654
 6903SOL    HW221609   4.190   3.399   3.368 -0.6832  0.0852  2.4378
 6904SOL     OW21610   0.779   1.023   1.952 -0.6857  0.2546 -0.5915
 6904SOL    HW121611   0.729   0.937   1.964 -2.1079  1.1319  0.0598
 6904SOL    HW221612   0.737   1.094   2.009  2.1240  0.7563  1.0425
 6905SOL     OW21613   3.960   1.085   5.104  0.0008  0.2863 -0.3295
 6905SOL    HW121614   4.025   1.156   5.077  0.6414 -0.4740 -0.8392
 6905SOL    HW221615   3.873   1.100   5.057 -0.4028  1.6284  0.7782
 6906SOL     OW21616   0.981   1.868   1.218 -0.6092  0.7264 -0.1803
 6906SOL    HW121617   0.929   1.871   1.133 -0.4511 -0.4147 -0.3336
 6906SOL    HW221618   0.932   1.919   1.289 -0.1358  2.7321 -1.2482
 6907SOL     OW21619   5.256   3.840   6.954  0.9391 -0.3032 -0.5105
 6907SOL    HW121620   5.247   3.928   7.001 -0.5587 -2.1198  2.9671
 6907SOL    HW221621   5.277   3.769   7.021 -2.0483 -3.2619 -2.4321
 6908SOL     OW21622   6.457   5.925   0.188  0.4518 -0.0064  0.4555
 6908SOL    HW121623   6.455   5.825   0.192  0.7873 -0.2313 -2.7535
 6908SOL    HW221624   6.365   5.961   0.199  0.3519 -0.6073  1.8382
 6909SOL     OW21625   0.140   6.791   2.907  0.0206  0.0596  0.7263
 6909SOL    HW121626   0.155   6.740   2.992 -0.0641  0.8237  1.2184
 6909SOL    HW221627   0.094   6.733   2.840  0.8239 -0.8088  0.9089
 6910SOL     OW21628   2.659   2.418   4.543 -0.1979  0.3458 -1.0150
 6910SOL    HW121629   2.589   2.463   4.489 -2.0565 -1.7420 -0.5091
 6910SOL    HW221630   2.634   2.423   4.640  1.2823  1.0410 -0.6390
 6911SOL     OW21631   3.798   6.034   6.866  1.0003 -0.2991 -0.3881
 6911SOL    HW121632   3.875   6.022   6.804  0.8432  0.9455 -0.8483
 6911SOL    HW221633   3.730   6.095   6.825  0.1798 -0.6591  0.3795
 6912SOL     OW21634   0.331   6.126   2.729 -0.2235 -0.1421 -0.2945
 6912SOL    HW121635   0.282   6.142   2.644 -0.7920 -0.2639  0.0058
 6912SOL    HW221636   0.366   6.213   2.765  0.1958 -0.1172 -0.7512
 6913SOL     OW21637   1.026   0.320   5.081 -0.0588 -0.3382 -0.8158
 6913SOL    HW121638   0.943   0.300   5.028  0.6600 -0.6051 -1.8855
 6913SOL    HW221639   1.103   0.328   5.018  0.5448  0.9613  0.0583
 6914SOL     OW21640   5.340   2.906   6.059 -0.0435 -0.1781 -0.8134
 6914SOL    HW121641   5.368   2.835   5.994  0.1073  0.9391 -1.9979
 6914SOL    HW221642   5.265   2.960   6.020 -0.0451  0.4295  0.0003
 6915SOL     OW21643   1.775   1.354   2.539 -0.2224 -0.8264 -0.1858
 6915SOL    HW121644   1.682   1.327   2.563 -0.4361 -0.4377 -0.5600
 6915SOL    HW221645   1.835   1.274   2.540 -0.5319 -1.0563  0.1874
 6916SOL     OW21646   3.243   5.345   1.984 -0.1292 -0.1347 -0.1273
 6916SOL    HW121647   3.287   5.325   2.071  1.7111  1.4361 -0.6153
 6916SOL    HW221648   3.216   5.441   1.981  1.3706  0.2868 -1.8669
 6917SOL     OW21649   6.137   3.150   5.840 -0.1175  0.0926 -0.3128
 6917SOL    HW121650   6.156   3.203   5.757  0.9851  0.1793 -0.0111
 6917SOL    HW221651   6.098   3.061   5.814  3.2668 -1.2968 -1.1949
 6918SOL     OW21652   4.180   6.625   2.844 -0.5634  0.6324 -0.2914
 6918SOL    HW121653   4.093   6.671   2.859 -0.1778  1.0055  0.9073
 6918SOL    HW221654   4.244   6.649   2.917  0.0997 -0.7296 -0.3920
 6919SOL     OW21655   1.588   1.819   4.610  0.1337  0.8681  0.9935
 6919SOL    HW121656   1.550   1.733   4.647  0.0668  0.0573 -0.8587
 6919SOL    HW221657   1.513   1.885   4.597 -0.2282  0.3072  0.1066
 6920SOL     OW21658   6.038   2.341   1.059 -0.4728  0.1958 -0.4492
 6920SOL    HW121659   6.091   2.385   1.132 -0.2963  0.4477 -0.7283
 6920SOL    HW221660   6.099   2.318   0.983 -0.0540 -2.7585  0.6482
 6921SOL     OW21661   0.296   4.835   6.822 -0.0685 -0.3084  0.2807
 6921SOL    HW121662   0.278   4.924   6.862  1.3472  0.9262 -1.6767
 6921SOL    HW221663   0.214   4.802   6.774 -0.5163  0.0452  0.8014
 6922SOL     OW21664   1.639   4.826   7.008  0.2535 -0.7379 -0.1365
 6922SOL    HW121665   1.625   4.746   6.950 -1.2896 -0.4195 -0.2455
 6922SOL    HW221666   1.637   4.798   7.104 -0.3544 -0.8218 -0.1729
 6923SOL     OW21667   0.735   4.014   1.587 -0.4094  0.2068  0.2544
 6923SOL    HW121668   0.729   4.063   1.500  2.1667 -2.0159 -1.3595
 6923SOL    HW221669   0.798   4.062   1.648 -0.2482  0.4672 -0.1134
 6924SOL     OW21670   3.957   6.065   3.537 -0.3913  0.0396 -0.2147
 6924SOL    HW121671   3.961   6.114   3.624 -0.7167  0.7404 -0.5849
 6924SOL    HW221672   3.917   5.974   3.551 -2.0245  0.7789  0.1059
 6925SOL     OW21673   6.498   1.926   6.720  0.0174  0.0802  0.2843
 6925SOL    HW121674   6.542   1.902   6.806 -0.3848 -0.5312  0.3292
 6925SOL    HW221675   6.403   1.896   6.722  0.1536 -0.4426 -0.5859
 6926SOL     OW21676   3.782   1.888   5.729  0.5110  0.1950 -0.4883
 6926SOL    HW121677   3.702   1.935   5.692  0.4161 -0.5642 -1.2863
 6926SOL    HW221678   3.865   1.934   5.699  0.3904  0.7720  0.0445
 6927SOL     OW21679   6.771   6.992   1.135 -0.3732 -0.2743  0.4506
 6927SOL    HW121680   6.851   6.968   1.080 -0.1276 -0.3877  0.8520
 6927SOL    HW221681   6.751   6.918   1.199 -2.0147 -1.1608 -0.9845
 6928SOL     OW21682   1.233   0.710   2.237  0.0886 -0.2342  0.1722
 6928SOL    HW121683   1.184   0.630   2.270 -1.1782 -0.0141 -1.0755
 6928SOL    HW221684   1.224   0.716   2.137  2.5542 -0.0898 -0.0898
 6929SOL     OW21685   6.145   2.753   2.123 -0.3819 -0.4909 -0.1602
 6929SOL    HW121686   6.059   2.781   2.166 -0.4209  0.9627 -1.0976
 6929SOL    HW221687   6.219   2.758   2.190 -0.2151  2.9281 -0.4184
 6930SOL     OW21688   3.837   2.514   6.874 -0.5457 -0.1357 -0.6784
 6930SOL    HW121689   3.758   2.465   6.836 -0.0911 -2.3353  1.0361
 6930SOL    HW221690   3.916   2.453   6.877  0.3578  1.0402  0.5479
 6931SOL     OW21691   6.707   0.870   3.661  0.0727  0.3118 -0.5950
 6931SOL    HW121692   6.676   0.851   3.568 -0.0930 -0.7437 -0.3440
 6931SOL    HW221693   6.672   0.800   3.723  1.0621  0.3816  0.0797
 6932SOL     OW21694   2.753   3.178   6.546 -0.1167 -0.4354  0.3418
 6932SOL    HW121695   2.693   3.213   6.618  2.2115  0.6812  1.8639
 6932SOL    HW221696   2.736   3.229   6.462 -1.2360 -0.0960  0.7586
 6933SOL     OW21697   5.017   4.538   6.167  0.1495 -0.4278 -0.2142
 6933SOL    HW121698   5.097   4.589   6.136 -0.2561  0.0140 -0.5381
 6933SOL    HW221699   4.957   4.518   6.089 -0.7616  0.4798  0.2305
 6934SOL     OW21700   6.687   4.434   4.357 -0.3127 -1.0004  0.3436
 6934SOL    HW121701   6.700   4.362   4.426 -0.7991 -1.1128  0.3165
 6934SOL    HW221702   6.590   4.450   4.343 -0.4186 -3.4635 -2.8957
 6935SOL     OW21703   3.882   6.225   4.839  0.0645 -0.3215 -0.4206
 6935SOL    HW121704   3.873   6.174   4.753  0.7964  0.9526 -1.2880
 6935SOL    HW221705   3.977   6.256   4.850 -0.6422  2.1710 -0.7329
 6936SOL     OW21706   2.295   2.304   4.291 -0.4540 -0.2283 -0.4683
 6936SOL    HW121707   2.285   2.219   4.343  1.0515  0.3647  0.8832
 6936SOL    HW221708   2.392   2.321   4.275 -0.6789  1.6404  0.0092
 6937SOL     OW21709   2.342   6.284   0.787 -0.1494  0.0299 -0.0480
 6937SOL    HW121710   2.374   6.360   0.844  1.6768 -0.0896 -0.8358
 6937SOL    HW221711   2.415   6.215   0.780 -1.4512 -1.3856 -0.0645
 6938SOL     OW21712   6.858   2.291   4.752 -0.2061 -0.2085  0.1774
 6938SOL    HW121713   6.892   2.323   4.663 -1.0275  1.2918  0.3853
 6938SOL    HW221714   6.852   2.191   4.750  1.2696 -0.3078 -0.9096
 6939SOL     OW21715   0.082   1.798   2.936  0.4050 -0.0434  0.1803
 6939SOL    HW121716   0.051   1.790   3.032  1.7342  0.9975  0.7142
 6939SOL    HW221717   0.012   1.847   2.883  0.7065  1.5312  1.1772
 6940SOL     OW21718   0.617   5.290   3.019  0.3349 -0.2389  0.4305
 6940SOL    HW121719   0.651   5.205   2.979 -1.0722 -0.6957  0.1721
 6940SOL    HW221720   0.614   5.281   3.118  2.3186  0.3370  0.5930
 6941SOL     OW21721   6.321   5.198   3.956 -0.2250  0.2063 -0.4733
 6941SOL    HW121722   6.231   5.196   3.912 -0.6784 -0.6690  0.4650
 6941SOL    HW221723   6.310   5.194   4.055  0.7756  2.2627 -0.2149
 6942SOL     OW21724   5.430   6.547   6.971  0.8139 -0.1468 -0.1219
 6942SOL    HW121725   5.447   6.580   6.879  3.1140 -0.0982  0.2673
 6942SOL    HW221726   5.490   6.594   7.036  1.2839 -2.1800  1.0096
 6943SOL     OW21727   5.814   5.762   0.376  0.5966 -0.8218 -0.0598
 6943SOL    HW121728   5.777   5.827   0.443  0.0949 -0.2803 -0.8514
 6943SOL    HW221729   5.894   5.716   0.415  1.3782  0.7688  0.2710
 6944SOL     OW21730   0.527   6.157   3.152 -0.1410  0.1811 -0.2141
 6944SOL    HW121731   0.433   6.122   3.150  0.4790 -1.5965 -1.2095
 6944SOL    HW221732   0.590   6.084   3.126  1.3108  1.9986 -2.1849
 6945SOL     OW21733   5.410   6.408   3.983 -0.6510 -0.4045  0.3884
 6945SOL    HW121734   5.339   6.455   3.931  0.5898  0.1824 -0.8522
 6945SOL    HW221735   5.473   6.475   4.022 -1.1806 -0.8790  2.1259
 6946SOL     OW21736   4.468   2.470   1.554  0.0433 -0.2017  0.3881
 6946SOL    HW121737   4.375   2.447   1.525 -0.1473  0.3787  0.5347
 6946SOL    HW221738   4.467   2.551   1.612  0.7578  0.6025 -0.6584
 6947SOL     OW21739   3.063   5.647   3.982 -0.4220  0.3200 -0.1083
 6947SOL    HW121740   3.037   5.673   3.889  0.2999 -0.6058 -0.5922
 6947SOL    HW221741   2.982   5.617   4.032 -0.8433  0.9866 -0.3766
 6948SOL     OW21742   6.885   2.863   6.089 -0.0703  0.0679 -0.4298
 6948SOL    HW121743   6.917   2.901   6.003 -0.4505  2.3661  0.3896
 6948SOL    HW221744   6.904   2.927   6.164 -1.7795 -0.8401  0.8624
 6949SOL     OW21745   3.086   5.309   1.216  0.1640  0.4301  0.3225
 6949SOL    HW121746   3.157   5.261   1.163  1.6410  0.8733  1.8210
 6949SOL    HW221747   3.086   5.406   1.190  0.3926  0.5094  0.6186
 6950SOL     OW21748   4.937   0.072   4.089  0.7144  0.2953 -0.7715
 6950SOL    HW121749   4.977   0.159   4.117  1.6282 -0.5525  0.6831
 6950SOL    HW221750   4.869   0.043   4.157  0.8091 -0.3856 -0.9635
 6951SOL     OW21751   4.308   3.058   5.571  0.3785 -0.8049 -0.7886
 6951SOL    HW121752   4.339   3.019   5.484  3.2711 -1.0377  0.2224
 6951SOL    HW221753   4.282   2.984   5.634  0.0016 -0.7343 -0.8575
 6952SOL     OW21754   5.299   3.259   0.311  0.0333  0.5150 -0.2031
 6952SOL    HW121755   5.332   3.177   0.265 -1.6060  0.8694 -2.1358
 6952SOL    HW221756   5.200   3.251   0.326  0.0873  1.5685  0.8456
 6953SOL     OW21757   1.274   4.289   5.883  0.1696  0.0187 -0.3636
 6953SOL    HW121758   1.372   4.269   5.877  0.1258 -0.1247 -0.6429
 6953SOL    HW221759   1.223   4.203   5.888  0.1163  0.1098  0.8360
 6954SOL     OW21760   3.156   1.394   1.794  0.2800  0.6937  0.3731
 6954SOL    HW121761   3.212   1.357   1.719 -0.2198  2.5535 -0.9871
 6954SOL    HW221762   3.179   1.346   1.879  2.5924  0.1418 -0.4824
 6955SOL     OW21763   5.969   1.903   2.542 -0.0124 -0.0259 -0.4618
 6955SOL    HW121764   5.928   1.908   2.633 -0.5096  1.0687 -0.7220
 6955SOL    HW221765   5.925   1.831   2.489  0.4298 -0.8165  0.2302
 6956SOL     OW21766   4.223   5.060   0.483 -0.6308 -0.7324 -0.2647
 6956SOL    HW121767   4.152   5.003   0.523  1.8781 -3.4711  0.6384
 6956SOL    HW221768   4.210   5.155   0.513 -3.1977 -1.3124  0.7304
 6957SOL     OW21769   1.553   0.697   3.876  0.1943 -0.6763 -0.3500
 6957SOL    HW121770   1.637   0.693   3.929 -0.4752 -1.0986  0.7133
 6957SOL    HW221771   1.475   0.708   3.938 -0.4628  0.6704 -1.3711
 6958SOL     OW21772   1.961   0.313   2.274 -0.1706  1.1886  0.0142
 6958SOL    HW121773   1.909   0.271   2.349 -1.6566  1.5807 -0.7650
 6958SOL    HW221774   1.957   0.412   2.282 -1.6969  1.2892 -1.4183
 6959SOL     OW21775   4.979   6.194   0.601  0.7574 -0.5387  0.8371
 6959SOL    HW121776   5.015   6.204   0.694  0.7671 -0.9229  0.8770
 6959SOL    HW221777   4.902   6.130   0.603 -1.0760  1.5696  1.0494
 6960SOL     OW21778   6.610   3.357   2.489 -0.0833 -0.1199 -0.2166
 6960SOL    HW121779   6.595   3.266   2.529 -1.1806  0.4660  0.8014
 6960SOL    HW221780   6.528   3.385   2.438 -0.9007  1.3505  1.7299
 6961SOL     OW21781   5.100   2.948   3.225 -0.3622 -0.1927 -0.5349
 6961SOL    HW121782   5.009   2.972   3.194 -0.9157  1.3381  2.0373
 6961SOL    HW221783   5.167   3.007   3.180 -0.8216  0.0444 -0.9178
 6962SOL     OW21784   6.890   3.044   0.390 -0.6572 -0.1666  0.5363
 6962SOL    HW121785   6.792   3.056   0.409 -0.4582  1.6480  0.6659
 6962SOL    HW221786   6.905   3.038   0.292 -0.8932 -0.4128  0.5141
 6963SOL     OW21787   2.413   2.782   6.801  0.0654 -0.0344  0.6399
 6963SOL    HW121788   2.333   2.805   6.745  0.7233 -1.7875 -1.1646
 6963SOL    HW221789   2.457   2.866   6.832 -0.8407  1.0217 -0.7844
 6964SOL     OW21790   6.347   0.641   1.266  0.1770 -0.0090 -0.2579
 6964SOL    HW121791   6.329   0.548   1.298 -1.3101 -0.2057 -1.6012
 6964SOL    HW221792   6.401   0.690   1.336  1.7722 -2.1161  0.0767
 6965SOL     OW21793   5.747   4.868   1.808 -0.4474  0.5073 -0.6021
 6965SOL    HW121794   5.742   4.944   1.743 -2.1502  0.3184 -0.7364
 6965SOL    HW221795   5.718   4.784   1.763 -0.4447  0.1414  0.0703
 6966SOL     OW21796   2.662   6.262   2.512 -0.3788  0.3008  0.1650
 6966SOL    HW121797   2.755   6.233   2.533 -0.1979  0.9049  0.2243
 6966SOL    HW221798   2.617   6.193   2.456  0.7673  0.8703 -1.5531
 6967SOL     OW21799   1.328   2.311   0.685  0.7200 -0.5651 -0.1907
 6967SOL    HW121800   1.282   2.246   0.745 -0.2555 -0.3759 -0.7114
 6967SOL    HW221801   1.385   2.262   0.620  0.9348 -0.8287  0.1909
 6968SOL     OW21802   2.862   0.818   0.170  0.3367  0.2374 -0.1933
 6968SOL    HW121803   2.873   0.776   0.080 -1.3685  0.2949 -0.4783
 6968SOL    HW221804   2.776   0.869   0.172  1.7711  2.8025  0.5123
 6969SOL     OW21805   4.714   0.751   2.126  0.3871 -0.5914  0.7006
 6969SOL    HW121806   4.632   0.806   2.142  0.9283 -0.2729  2.6896
 6969SOL    HW221807   4.705   0.702   2.039 -0.1051  2.6493 -1.2562
 6970SOL     OW21808   3.872   6.919   4.247 -0.2231 -0.2704  0.0627
 6970SOL    HW121809   3.835   6.873   4.328 -1.0157 -0.8710 -0.6161
 6970SOL    HW221810   3.967   6.943   4.262 -1.7067  5.0566  3.5515
 6971SOL     OW21811   6.914   3.059   1.155 -0.2855 -0.2800 -0.5943
 6971SOL    HW121812   6.966   3.094   1.077  0.6310 -1.0268 -0.3309
 6971SOL    HW221813   6.821   3.097   1.152  0.2998  1.1913 -0.9773
 6972SOL     OW21814   0.951   4.911   5.167  0.4066  0.0726 -0.4924
 6972SOL    HW121815   1.009   4.861   5.231 -1.0148 -0.3624  0.4846
 6972SOL    HW221816   0.984   5.005   5.160  1.8647 -0.4216 -0.7941
 6973SOL     OW21817   6.283   1.208   1.649 -0.0926 -0.0352 -0.3325
 6973SOL    HW121818   6.319   1.173   1.734 -1.6634 -0.1583  0.3235
 6973SOL    HW221819   6.343   1.184   1.573  0.8626 -0.6845  0.6238
 6974SOL     OW21820   4.151   3.756   6.345  0.0890  0.1835  0.3766
 6974SOL    HW121821   4.247   3.744   6.373  0.1253  0.5120  0.3943
 6974SOL    HW221822   4.128   3.853   6.346  0.4647  0.3592 -1.9567
 6975SOL     OW21823   4.874   6.889   3.912  0.1874  0.0322 -0.4913
 6975SOL    HW121824   4.812   6.865   3.986 -2.0679  0.5551 -2.1228
 6975SOL    HW221825   4.933   6.965   3.942  1.3105 -1.5720  1.6506
 6976SOL     OW21826   6.251   3.887   1.208  0.4164  0.6162 -0.0152
 6976SOL    HW121827   6.311   3.967   1.202 -0.7603  1.5020 -0.3316
 6976SOL    HW221828   6.282   3.828   1.283  1.3695  1.3110  0.1607
 6977SOL     OW21829   1.565   1.312   4.359 -0.0643  0.1833 -0.1044
 6977SOL    HW121830   1.560   1.243   4.287 -0.8199  1.1411 -1.0137
 6977SOL    HW221831   1.660   1.336   4.376  0.1219  0.0377 -0.8975
 6978SOL     OW21832   4.055   1.569   0.447  0.3620  0.2456  0.1530
 6978SOL    HW121833   4.025   1.484   0.406  0.9070  0.4590 -0.7118
 6978SOL    HW221834   4.126   1.550   0.516 -1.4473 -0.2286  1.9786
 6979SOL     OW21835   2.767   3.057   6.210 -0.1707 -0.2224  0.0341
 6979SOL    HW121836   2.668   3.049   6.197 -0.0381 -0.8637 -0.6774
 6979SOL    HW221837   2.802   2.972   6.249  0.0557  0.1284  0.5933
 6980SOL     OW21838   0.776   3.378   4.171  0.3459 -0.1573 -0.1513
 6980SOL    HW121839   0.694   3.409   4.123 -0.3058  0.1993  1.1420
 6980SOL    HW221840   0.784   3.426   4.258  2.3482  0.3652 -0.5618
 6981SOL     OW21841   2.363   0.960   5.302  0.3587 -0.6169  0.5017
 6981SOL    HW121842   2.349   0.868   5.266  0.2679 -0.2594 -0.4215
 6981SOL    HW221843   2.454   0.967   5.343 -0.2555 -1.5749  2.1072
 6982SOL     OW21844   0.427   5.327   2.219  0.4514 -0.0321 -0.0380
 6982SOL    HW121845   0.379   5.371   2.295 -1.0760 -1.6944  0.0292
 6982SOL    HW221846   0.467   5.241   2.250 -0.4887 -0.9027 -1.1694
 6983SOL     OW21847   1.949   4.634   1.265  0.0806 -0.3322  0.3602
 6983SOL    HW121848   2.025   4.683   1.224  1.2635 -0.7328  1.9802
 6983SOL    HW221849   1.938   4.545   1.221  0.3302 -0.1385 -0.0967
 6984SOL     OW21850   3.715   6.029   0.610 -0.2044  0.7799  0.2394
 6984SOL    HW121851   3.682   6.123   0.622  0.0882  0.8252  0.7289
 6984SOL    HW221852   3.815   6.027   0.618 -0.0867  0.6203 -1.0914
 6985SOL     OW21853   0.396   4.371   5.782 -0.0399  0.4118  0.0244
 6985SOL    HW121854   0.359   4.306   5.715 -1.2591  0.7436  0.3540
 6985SOL    HW221855   0.401   4.462   5.741  1.8803  0.1002 -0.5111
 6986SOL     OW21856   1.155   3.168   2.384  0.5601  0.0456 -0.3759
 6986SOL    HW121857   1.100   3.125   2.312  0.5023  1.4053 -1.1954
 6986SOL    HW221858   1.182   3.100   2.452 -3.4942 -0.4225  0.9922
 6987SOL     OW21859   2.473   5.414   1.115  0.3105  0.0227 -0.4768
 6987SOL    HW121860   2.474   5.513   1.100  1.8443  0.1154  0.0608
 6987SOL    HW221861   2.562   5.376   1.090  0.6419 -0.8283  1.7942
 6988SOL     OW21862   1.537   6.575   5.537 -0.1427  0.3796 -0.7189
 6988SOL    HW121863   1.481   6.493   5.549  0.4223  0.1112  0.1990
 6988SOL    HW221864   1.557   6.615   5.626  1.1708  0.4199 -1.0066
 6989SOL     OW21865   6.201   4.605   1.541  0.2570  0.3869  0.2557
 6989SOL    HW121866   6.104   4.626   1.552 -0.1247 -1.1938  0.0876
 6989SOL    HW221867   6.213   4.507   1.530  1.6023  0.7557 -2.5035
 6990SOL     OW21868   2.879   0.663   3.665  0.0112 -0.0637  0.2025
 6990SOL    HW121869   2.808   0.720   3.624 -0.4865 -0.4612  0.4923
 6990SOL    HW221870   2.907   0.593   3.599 -0.4200 -0.3798  0.3422
 6991SOL     OW21871   3.439   1.706   1.565 -0.1520  0.1901 -0.1099
 6991SOL    HW121872   3.352   1.748   1.539 -1.0578 -0.2266  2.0187
 6991SOL    HW221873   3.480   1.661   1.485 -1.0170  1.8459 -1.5473
 6992SOL     OW21874   4.591   2.073   6.147  0.7485  0.0825  0.1741
 6992SOL    HW121875   4.624   2.120   6.065  0.5946  0.8164  0.5298
 6992SOL    HW221876   4.662   2.012   6.181  0.7231 -0.4312 -0.6550
 6993SOL     OW21877   6.948   3.525   4.606  0.4907 -0.2066  0.2388
 6993SOL    HW121878   6.991   3.448   4.652 -0.9901 -1.8861 -1.0476
 6993SOL    HW221879   6.859   3.543   4.648  0.6527  0.5486  0.2675
 6994SOL     OW21880   0.321   5.632   4.463 -0.2287  0.1698 -0.1001
 6994SOL    HW121881   0.298   5.553   4.519 -1.3669  0.5868  0.0520
 6994SOL    HW221882   0.402   5.677   4.500  0.1273 -0.6225  0.1018
 6995SOL     OW21883   2.926   5.494   3.561  0.2962 -0.0101 -0.0372
 6995SOL    HW121884   2.845   5.511   3.505 -0.0774  4.6799  1.4359
 6995SOL    HW221885   3.008   5.527   3.514  0.5552  0.0699  0.4537
 6996SOL     OW21886   5.887   5.147   3.251 -0.0310 -0.1218 -0.7237
 6996SOL    HW121887   5.832   5.064   3.237  0.8828 -0.5984 -1.5987
 6996SOL    HW221888   5.977   5.122   3.286 -0.2523  0.6354  0.4542
 6997SOL     OW21889   0.096   2.965   4.778 -0.0197  0.6358 -0.5434
 6997SOL    HW121890   0.130   2.983   4.686  1.2322 -0.3287 -0.2902
 6997SOL    HW221891   0.086   2.867   4.792 -1.8041  0.8294 -0.1861
 6998SOL     OW21892   0.764   6.774   3.715 -0.1640  0.0812  0.2631
 6998SOL    HW121893   0.810   6.766   3.803 -0.3031 -2.3867  0.1772
 6998SOL    HW221894   0.665   6.775   3.728 -0.1779  0.1114  0.1604
 6999SOL     OW21895   2.548   2.396   4.228  0.5073  0.1174  0.1302
 6999SOL    HW121896   2.602   2.314   4.248 -0.2850 -0.4483 -0.0141
 6999SOL    HW221897   2.563   2.423   4.133 -0.6985 -1.0158 -0.4242
 7000SOL     OW21898   2.735   6.796   0.338  0.4961 -0.3998 -0.0840
 7000SOL    HW121899   2.660   6.775   0.276  0.4717 -0.9176  0.1181
 7000SOL    HW221900   2.793   6.867   0.297 -0.7945  0.9332  0.3032
 7001SOL     OW21901   2.370   4.301   6.289  0.3754  0.3509 -0.0591
 7001SOL    HW121902   2.382   4.348   6.376  0.2485 -0.8073  0.6158
 7001SOL    HW221903   2.329   4.363   6.223  1.3829  1.5522  0.3997
 7002SOL     OW21904   0.328   4.990   0.382  0.0933 -0.0259 -0.0045
 7002SOL    HW121905   0.315   5.021   0.288  1.1714  0.1365 -0.1085
 7002SOL    HW221906   0.238   4.978   0.425 -0.4808 -1.4377 -1.4736
 7003SOL     OW21907   4.356   0.405   6.552  0.0904 -0.0083  0.0464
 7003SOL    HW121908   4.427   0.464   6.589  0.0705 -0.6765  1.2058
 7003SOL    HW221909   4.384   0.309   6.562  0.4184 -0.2202 -2.3918
 7004SOL     OW21910   3.825   3.044   2.095  0.4758  0.1436 -0.2351
 7004SOL    HW121911   3.804   3.124   2.038 -0.2746  1.9108  2.3227
 7004SOL    HW221912   3.920   3.047   2.124 -0.0562  1.3712  1.5588
 7005SOL     OW21913   4.764   2.815   2.848  0.4956 -0.0166  0.1579
 7005SOL    HW121914   4.794   2.771   2.933  0.6570 -0.7459 -0.2646
 7005SOL    HW221915   4.729   2.745   2.785  0.5079  0.4970 -0.4301
 7006SOL     OW21916   1.389   2.132   0.471 -0.0642  0.3434 -0.1446
 7006SOL    HW121917   1.461   2.086   0.523  0.4574  1.3113 -0.0063
 7006SOL    HW221918   1.410   2.127   0.373  0.3367  0.8827 -0.0842
 7007SOL     OW21919   3.734   3.742   6.443  0.1750  0.1495 -0.4436
 7007SOL    HW121920   3.750   3.839   6.461 -0.8075  0.3202 -0.4476
 7007SOL    HW221921   3.637   3.721   6.453  0.2708 -0.6995 -1.1133
 7008SOL     OW21922   2.258   4.687   5.298 -0.0209  0.2159  0.3426
 7008SOL    HW121923   2.307   4.651   5.378  0.5097  0.2947  0.0607
 7008SOL    HW221924   2.297   4.648   5.215 -0.4138  0.3177  0.1070
 7009SOL     OW21925   5.171   0.999   0.040  0.4061 -1.2381  0.3557
 7009SOL    HW121926   5.152   1.077  -0.021 -1.2444 -0.8275  1.3384
 7009SOL    HW221927   5.095   0.988   0.105 -0.0532 -4.4784 -0.5496
 7010SOL     OW21928   0.506   2.563   6.644  0.4800 -0.3197 -0.1112
 7010SOL    HW121929   0.532   2.514   6.561  0.8881 -0.3035  0.0055
 7010SOL    HW221930   0.407   2.566   6.651  0.4356  0.1900 -0.9038
 7011SOL     OW21931   4.650   3.352   0.940  0.3178  0.0854  0.0412
 7011SOL    HW121932   4.591   3.421   0.983 -2.1054 -0.4695 -2.1374
 7011SOL    HW221933   4.618   3.261   0.965 -2.0745 -0.3001 -3.6896
 7012SOL     OW21934   1.218   3.553   5.725 -0.0035 -0.4801 -0.3372
 7012SOL    HW121935   1.131   3.563   5.676 -1.1526 -1.2245  1.4431
 7012SOL    HW221936   1.220   3.464   5.770  1.4505 -0.2334  0.1287
 7013SOL     OW21937   6.219   1.806   2.041 -0.0423 -0.4964  0.2610
 7013SOL    HW121938   6.171   1.889   2.071 -0.9590 -1.0552  0.3600
 7013SOL    HW221939   6.318   1.820   2.050 -0.2358 -0.0466  1.9852
 7014SOL     OW21940   2.909   1.761   0.608 -0.5296 -0.4273 -0.6069
 7014SOL    HW121941   2.818   1.750   0.568 -1.6204  1.0887  1.2713
 7014SOL    HW221942   2.916   1.851   0.651  0.9308 -1.4652  1.5127
 7015SOL     OW21943   5.712   1.720   3.288  0.2066 -0.6970 -0.1735
 7015SOL    HW121944   5.634   1.727   3.351  0.4929 -0.0895  0.1243
 7015SOL    HW221945   5.683   1.748   3.197  0.2107  0.1001  0.0598
 7016SOL     OW21946   5.153   4.894   2.695 -0.8482 -0.0389 -0.4156
 7016SOL    HW121947   5.110   4.831   2.630 -1.9485  1.5578 -1.2948
 7016SOL    HW221948   5.083   4.931   2.756  0.1149 -1.2147  1.4795
 7017SOL     OW21949   6.286   2.869   4.365 -0.0721  0.2832  0.6553
 7017SOL    HW121950   6.367   2.891   4.418 -0.5189  1.5086  0.8652
 7017SOL    HW221951   6.292   2.775   4.331  0.7083 -0.1541  1.9530
 7018SOL     OW21952   1.072   1.074   5.267  0.1408  0.1733 -0.6422
 7018SOL    HW121953   1.068   1.173   5.277 -1.8911  0.3196 -2.1849
 7018SOL    HW221954   0.983   1.034   5.290  0.1497 -0.9894 -2.3678
 7019SOL     OW21955   6.322   2.610   1.819  0.5506 -0.4557  0.4037
 7019SOL    HW121956   6.249   2.674   1.796  0.9233 -0.4454 -0.8243
 7019SOL    HW221957   6.409   2.658   1.821  0.5485 -0.4738  1.8450
 7020SOL     OW21958   6.106   6.287   0.355  0.6465  0.1323 -0.0752
 7020SOL    HW121959   6.140   6.340   0.432 -1.4416 -0.8249  1.6010
 7020SOL    HW221960   6.021   6.327   0.321 -0.3261 -1.3853  0.4520
 7021SOL     OW21961   1.243   5.245   2.589 -0.3496 -0.0871 -0.1838
 7021SOL    HW121962   1.171   5.288   2.643 -0.1759 -0.5714  0.4333
 7021SOL    HW221963   1.212   5.235   2.494 -1.3498 -0.8966  0.2120
 7022SOL     OW21964   4.089   5.176   3.001 -0.3653  0.1537  0.0969
 7022SOL    HW121965   4.114   5.273   2.993 -0.4713  0.0597 -1.5669
 7022SOL    HW221966   4.015   5.155   2.937 -1.7928 -0.5799  1.8885
 7023SOL     OW21967   1.030   3.516   0.942 -0.0319 -0.2135  0.9547
 7023SOL    HW121968   0.967   3.546   1.014  0.9057 -1.2890  2.2644
 7023SOL    HW221969   0.980   3.462   0.874 -0.8594  0.4981  0.9770
 7024SOL     OW21970   1.432   2.800   3.497 -0.0025  0.3487 -0.3868
 7024SOL    HW121971   1.351   2.838   3.541 -0.6980 -1.4433 -0.0220
 7024SOL    HW221972   1.512   2.852   3.524 -0.5109 -0.1729  2.4042
 7025SOL     OW21973   6.562   5.227   5.670 -0.1364  0.0320 -0.3530
 7025SOL    HW121974   6.653   5.214   5.631  0.1902  0.7793  0.1340
 7025SOL    HW221975   6.569   5.232   5.769 -0.4784  1.6178 -0.3731
 7026SOL     OW21976   3.493   3.525   3.062  0.5004 -0.1211 -0.2544
 7026SOL    HW121977   3.454   3.434   3.074 -1.1831  0.1711 -2.8148
 7026SOL    HW221978   3.420   3.592   3.048  1.7579  0.7994 -3.1515
 7027SOL     OW21979   1.574   4.616   0.953  0.2125 -0.2541 -0.4485
 7027SOL    HW121980   1.627   4.691   0.914  1.4404  0.0744  1.6703
 7027SOL    HW221981   1.636   4.540   0.974  0.0510  0.2936  2.4867
 7028SOL     OW21982   0.629   0.652   0.547 -0.3805  0.6109 -0.0002
 7028SOL    HW121983   0.602   0.603   0.464  0.3454  0.2404 -0.0281
 7028SOL    HW221984   0.649   0.747   0.524 -2.6313  1.1862  0.2022
 7029SOL     OW21985   1.722   2.201   0.025 -0.6163 -0.2574 -0.7685
 7029SOL    HW121986   1.658   2.252   0.084  0.9080  1.8057 -0.7747
 7029SOL    HW221987   1.806   2.182   0.075 -0.5115 -1.3017 -1.3186
 7030SOL     OW21988   5.156   0.627   5.237 -0.3577  0.1069  0.6511
 7030SOL    HW121989   5.162   0.541   5.288 -0.6499  0.5165  1.3974
 7030SOL    HW221990   5.118   0.697   5.296 -0.2150  0.7283  0.0128
 7031SOL     OW21991   5.556   2.603   6.555 -0.4375 -0.1610  0.3605
 7031SOL    HW121992   5.495   2.526   6.577 -1.0795  0.1736 -0.1961
 7031SOL    HW221993   5.636   2.600   6.614 -1.0866 -0.5043  1.2480
 7032SOL     OW21994   6.463   4.422   2.039  0.3747 -0.2929  0.4978
 7032SOL    HW121995   6.497   4.353   2.103  3.0745 -1.0077 -1.4923
 7032SOL    HW221996   6.511   4.508   2.055  2.3213 -0.9150 -1.4305
 7033SOL     OW21997   2.509   5.656   6.291  0.2696  0.2135 -0.3986
 7033SOL    HW121998   2.549   5.572   6.327 -0.7747 -0.4428 -0.7458
 7033SOL    HW221999   2.542   5.670   6.197 -0.9237 -0.7680 -0.9842
 7034SOL     OW22000   2.414   3.839   0.432 -0.1920  0.2274  0.8494
 7034SOL    HW122001   2.495   3.845   0.491  0.4858 -0.4241  0.0099
 7034SOL    HW222002   2.439   3.865   0.339 -0.9408 -0.0380  0.5712
 7035SOL     OW22003   0.983   1.359   5.713 -0.5906  0.5628 -0.1061
 7035SOL    HW122004   1.040   1.356   5.795 -0.2803  2.6483 -0.1914
 7035SOL    HW222005   0.936   1.272   5.701 -0.1513  0.0133  1.9263
 7036SOL     OW22006   0.163   5.575   3.629 -0.0404 -0.5075 -0.0603
 7036SOL    HW122007   0.218   5.584   3.546 -1.9398  0.1594 -1.3016
 7036SOL    HW222008   0.220   5.598   3.709  1.8140 -1.1107 -1.1370
 7037SOL     OW22009   3.816   5.918   2.665 -0.4365  0.2392 -0.7995
 7037SOL    HW122010   3.820   6.000   2.722  0.1292  1.7486 -2.8657
 7037SOL    HW222011   3.909   5.894   2.636 -0.3537 -2.2910  1.1900
 7038SOL     OW22012   1.517   6.866   6.619 -0.1245 -0.4912  0.6038
 7038SOL    HW122013   1.430   6.848   6.664 -0.5113 -0.0611  0.0402
 7038SOL    HW222014   1.502   6.927   6.541  0.5411 -1.1969 -0.0851
 7039SOL     OW22015   6.998   2.493   6.838 -0.0461 -0.5687 -0.1229
 7039SOL    HW122016   7.092   2.461   6.848 -0.1608 -0.9479 -0.2217
 7039SOL    HW222017   6.947   2.473   6.922 -0.0453 -0.3925 -0.0810
 7040SOL     OW22018   6.947   5.559   4.909  0.2403  0.4413  0.1139
 7040SOL    HW122019   6.870   5.612   4.944  0.2363  0.7530 -0.3576
 7040SOL    HW222020   6.958   5.476   4.964 -1.2420 -0.2628 -0.5893
 7041SOL     OW22021   0.860   7.002   3.401  0.5418 -0.6571  0.1113
 7041SOL    HW122022   0.946   7.037   3.439 -0.1594  0.1960  0.9629
 7041SOL    HW222023   0.861   6.902   3.402  1.8346 -0.6781 -0.6297
 7042SOL     OW22024   0.270   0.149   4.430  0.4060 -0.0258 -0.2340
 7042SOL    HW122025   0.368   0.133   4.435  0.6059  0.5064 -1.8317
 7042SOL    HW222026   0.234   0.164   4.522  1.3814 -2.5671  0.6447
 7043SOL     OW22027   2.281   1.729   6.824 -0.3128 -0.1442  0.5477
 7043SOL    HW122028   2.280   1.826   6.802 -1.5525 -0.2246  0.1225
 7043SOL    HW222029   2.224   1.680   6.758  1.6469 -1.4177 -0.2640
 7044SOL     OW22030   5.254   1.461   5.097 -0.3445 -0.5387  0.7067
 7044SOL    HW122031   5.168   1.432   5.053  0.9032 -1.2709 -1.3910
 7044SOL    HW222032   5.321   1.387   5.091  1.3567  1.0179 -0.3358
 7045SOL     OW22033   4.363   5.604   1.608 -0.2306 -0.0152  0.2007
 7045SOL    HW122034   4.390   5.605   1.512 -1.0149  0.2341 -0.0278
 7045SOL    HW222035   4.397   5.686   1.653 -0.2127  0.0700  0.0326
 7046SOL     OW22036   5.252   2.110   1.296  0.4675 -0.5856 -0.5056
 7046SOL    HW122037   5.316   2.055   1.349  0.3470 -0.9886 -0.7726
 7046SOL    HW222038   5.164   2.063   1.291 -0.3928  0.7190  1.2703
 7047SOL     OW22039   5.113   2.661   4.200  0.3578  0.3124 -0.1810
 7047SOL    HW122040   5.207   2.692   4.211  0.3214  0.0958  0.9185
 7047SOL    HW222041   5.050   2.735   4.226  0.2607 -0.1909  1.0946
 7048SOL     OW22042   6.219   0.651   4.689  0.3978 -0.3913  0.2347
 7048SOL    HW122043   6.174   0.740   4.697 -0.9388 -0.9128 -1.0429
 7048SOL    HW222044   6.318   0.663   4.698  0.3288  1.3795 -0.9112
 7049SOL     OW22045   3.277   1.174   5.256 -0.1585 -0.6697  0.3312
 7049SOL    HW122046   3.367   1.219   5.256  0.6599 -2.1559 -1.8308
 7049SOL    HW222047   3.286   1.082   5.295 -1.2583 -0.0709  2.1486
 7050SOL     OW22048   4.511   4.548   6.047  0.0570 -0.3468 -0.4644
 7050SOL    HW122049   4.449   4.603   5.992  1.7637  1.0840 -1.0216
 7050SOL    HW222050   4.569   4.492   5.987 -0.4040 -1.3972  0.0375
 7051SOL     OW22051   6.570   2.078   5.035  0.2179  0.1387  0.6047
 7051SOL    HW122052   6.528   2.164   5.062  0.4477  0.8634 -1.2659
 7051SOL    HW222053   6.651   2.062   5.092 -0.0250  0.9769  1.2059
 7052SOL     OW22054   4.871   4.719   2.060 -0.0290  0.3499  0.7086
 7052SOL    HW122055   4.911   4.645   2.006 -2.6812 -1.4946  1.0677
 7052SOL    HW222056   4.930   4.739   2.138  1.3493 -0.4987 -0.0705
 7053SOL     OW22057   6.012   0.231   0.737  0.2283  0.0812  0.4423
 7053SOL    HW122058   6.094   0.211   0.790 -0.4948  0.8391  1.9191
 7053SOL    HW222059   6.022   0.194   0.645  1.9831 -0.3221  0.7563
 7054SOL     OW22060   6.085   3.388   0.428  0.2722 -0.1387  0.5851
 7054SOL    HW122061   6.069   3.374   0.330  0.4840  0.5352  0.4546
 7054SOL    HW222062   6.021   3.455   0.463  0.0977 -0.4890  0.9484
 7055SOL     OW22063   6.698   6.755   0.078  0.3448  0.0197  0.1584
 7055SOL    HW122064   6.673   6.789  -0.012 -0.0591  0.4201  0.4143
 7055SOL    HW222065   6.794   6.773   0.096  0.1775  0.8864  0.2210
 7056SOL     OW22066   0.696   3.682   2.665  0.2749 -0.2014  0.0414
 7056SOL    HW122067   0.642   3.766   2.665 -0.4568 -0.6580 -0.6913
 7056SOL    HW222068   0.787   3.701   2.701  0.7262  1.3173 -1.7590
 7057SOL     OW22069   2.413   6.319   5.294  0.1660 -0.4664  0.0571
 7057SOL    HW122070   2.368   6.267   5.221  2.4014 -0.4263 -1.4674
 7057SOL    HW222071   2.439   6.409   5.260 -0.7284  0.4368  1.6527
 7058SOL     OW22072   2.350   2.086   3.569 -0.4275 -0.5974  0.1548
 7058SOL    HW122073   2.254   2.093   3.544 -0.3932  0.8286  0.3483
 7058SOL    HW222074   2.360   2.099   3.668  0.2835  3.6121 -0.3027
 7059SOL     OW22075   4.362   0.337   6.141  0.3984  0.2774  0.1261
 7059SOL    HW122076   4.450   0.362   6.181  0.3860  0.0974  0.2627
 7059SOL    HW222077   4.315   0.420   6.110 -1.0579  0.8765  3.4553
 7060SOL     OW22078   1.546   0.918   2.110  0.1241  0.6756 -0.2764
 7060SOL    HW122079   1.605   0.973   2.169 -0.3752  0.4881  0.4024
 7060SOL    HW222080   1.457   0.962   2.101 -0.1799  0.1322  0.0295
 7061SOL     OW22081   1.891   0.280   1.980  0.2089 -0.2859  0.4681
 7061SOL    HW122082   1.823   0.221   2.024 -0.8477  0.6694  0.1670
 7061SOL    HW222083   1.931   0.341   2.049  0.3948 -0.5099  0.5579
 7062SOL     OW22084   5.086   5.232   6.892 -0.2068  0.1138 -0.1627
 7062SOL    HW122085   4.992   5.223   6.925 -0.4841 -2.8559 -1.4584
 7062SOL    HW222086   5.147   5.177   6.949  0.6204  1.2985  0.1226
 7063SOL     OW22087   6.627   1.566   1.157  0.8578  0.3542 -0.0700
 7063SOL    HW122088   6.647   1.493   1.091  0.1613 -0.1308  0.2411
 7063SOL    HW222089   6.624   1.654   1.109 -1.1157 -0.1489 -1.0131
 7064SOL     OW22090   5.679   5.212   5.687  0.1104  0.7342  0.3493
 7064SOL    HW122091   5.581   5.212   5.668  0.0030  3.8190  0.4021
 7064SOL    HW222092   5.729   5.201   5.601 -0.3397  1.6762 -0.0557
 7065SOL     OW22093   4.768   1.517   3.092  0.1262 -0.3589 -0.1108
 7065SOL    HW122094   4.711   1.587   3.136  1.2402  0.5290 -0.0381
 7065SOL    HW222095   4.830   1.561   3.027  0.4465 -1.3559 -0.4916
 7066SOL     OW22096   1.630   6.881   2.207  0.1306  0.3886 -0.5353
 7066SOL    HW122097   1.721   6.843   2.226 -0.7668 -0.6038  2.1127
 7066SOL    HW222098   1.568   6.807   2.184 -0.9302  0.5043  1.7230
 7067SOL     OW22099   1.867   3.313   4.044  0.2740  0.3804 -0.1620
 7067SOL    HW122100   1.960   3.337   4.073  0.2749 -0.8036  0.8946
 7067SOL    HW222101   1.814   3.396   4.028  1.2261  1.0640  0.1709
 7068SOL     OW22102   6.031   3.270   4.813 -0.0354 -0.2246 -0.2076
 7068SOL    HW122103   5.937   3.248   4.840 -0.3588  0.7034 -0.5479
 7068SOL    HW222104   6.049   3.231   4.722 -0.6797  1.0656 -0.9052
 7069SOL     OW22105   0.345   5.250   2.991  0.2802  0.0189 -0.3560
 7069SOL    HW122106   0.439   5.276   2.969  0.0559  0.1533 -1.1654
 7069SOL    HW222107   0.340   5.224   3.088  0.8032  1.6420  0.1418
 7070SOL     OW22108   4.359   2.773   1.424 -0.3519 -0.3319 -0.3226
 7070SOL    HW122109   4.412   2.781   1.508 -0.0468  1.3794 -0.6405
 7070SOL    HW222110   4.299   2.852   1.414 -0.4886 -0.5696 -1.6362
 7071SOL     OW22111   2.945   0.762   4.385 -0.3916 -0.9409 -0.2251
 7071SOL    HW122112   2.918   0.825   4.458  3.9216 -1.0680  1.7862
 7071SOL    HW222113   3.006   0.808   4.321 -0.9545 -1.8995 -1.4996
 7072SOL     OW22114   1.721   6.595   2.774  0.1443  0.2432 -0.5054
 7072SOL    HW122115   1.675   6.617   2.689  0.4783 -0.0005 -0.7553
 7072SOL    HW222116   1.770   6.675   2.808 -0.4813  0.5130 -0.2201
 7073SOL     OW22117   3.582   6.518   2.384  0.5668  0.1753 -0.0891
 7073SOL    HW122118   3.486   6.544   2.373  0.5213  0.6303  1.2591
 7073SOL    HW222119   3.633   6.594   2.426  1.1905 -0.6022  0.5898
 7074SOL     OW22120   0.926   0.331   3.221  0.7680  0.2978 -0.1384
 7074SOL    HW122121   0.834   0.318   3.257  0.7321  1.5937  0.2785
 7074SOL    HW222122   0.982   0.378   3.289  1.9473 -1.0656 -0.1224
 7075SOL     OW22123   3.551   3.137   4.507  0.6108 -0.3496  0.3610
 7075SOL    HW122124   3.459   3.167   4.481 -0.4000 -0.2073  3.6850
 7075SOL    HW222125   3.580   3.063   4.446 -2.0943 -1.0526 -0.2329
 7076SOL     OW22126   3.367   5.852   5.356 -0.5709 -0.5279  0.2105
 7076SOL    HW122127   3.335   5.828   5.448 -0.0635  2.7230  1.3613
 7076SOL    HW222128   3.292   5.895   5.305 -0.4029 -0.8821 -0.3508
 7077SOL     OW22129   4.548   1.982   6.982  0.1685  0.1476 -0.0909
 7077SOL    HW122130   4.621   2.037   6.942 -0.6514  1.1581 -0.2444
 7077SOL    HW222131   4.481   1.959   6.911  0.2574 -0.6633  0.0729
 7078SOL     OW22132   6.701   6.426   3.200  0.8148  0.9570 -0.0036
 7078SOL    HW122133   6.657   6.432   3.290 -1.6300 -4.2972 -0.4404
 7078SOL    HW222134   6.800   6.416   3.212  0.4581 -0.8805  2.3517
 7079SOL     OW22135   0.073   4.922   0.459  0.6293  0.3938 -0.5841
 7079SOL    HW122136   0.034   4.955   0.373  0.1917  2.5822  0.3970
 7079SOL    HW222137   0.002   4.881   0.515  0.1729  2.0681  0.1248
 7080SOL     OW22138   6.807   0.877   4.064 -0.7972  1.2784 -0.3192
 7080SOL    HW122139   6.714   0.844   4.080 -0.8165 -0.6251 -3.4027
 7080SOL    HW222140   6.805   0.975   4.045 -2.0382  1.4228  0.4367
 7081SOL     OW22141   6.951   0.682   4.971  0.2467  0.3406 -0.2139
 7081SOL    HW122142   7.033   0.631   4.997  0.5812  1.9539  2.2510
 7081SOL    HW222143   6.905   0.716   5.053 -0.9803  2.4017 -1.6501
 7082SOL     OW22144   3.779   0.079   0.596 -0.3419 -0.1462 -0.1803
 7082SOL    HW122145   3.789   0.115   0.689 -0.4166  1.1856 -0.6710
 7082SOL    HW222146   3.753  -0.018   0.601 -0.4808 -0.0627  1.1810
 7083SOL     OW22147   6.964   4.804   0.008  0.1482  0.2825  0.4772
 7083SOL    HW122148   6.889   4.739   0.020  0.4407  0.3086  2.7373
 7083SOL    HW222149   6.982   4.815  -0.090 -1.7903 -0.8471 -0.0642
 7084SOL     OW22150   6.916   4.449   1.413  0.0548  0.2817  0.5341
 7084SOL    HW122151   6.966   4.436   1.328 -0.4532  2.3741 -0.1337
 7084SOL    HW222152   6.954   4.389   1.484  3.8264  2.0116  0.2112
 7085SOL     OW22153   5.190   0.084   2.657 -0.2945 -0.2470  0.1174
 7085SOL    HW122154   5.236   0.076   2.568  3.1194 -0.1748  1.7036
 7085SOL    HW222155   5.167  -0.007   2.690  1.1391 -0.5466  0.3782
 7086SOL     OW22156   0.363   6.727   2.142  0.2617  0.2695  0.3979
 7086SOL    HW122157   0.432   6.780   2.094  0.3708 -1.4052 -1.4478
 7086SOL    HW222158   0.407   6.654   2.195  0.0376  1.1067  1.8021
 7087SOL     OW22159   5.017   6.721   3.154 -0.6546  0.3106 -0.2942
 7087SOL    HW122160   5.032   6.801   3.096  1.4939  2.1260  2.4503
 7087SOL    HW222161   5.091   6.655   3.138  0.2649  1.0661  0.6553
 7088SOL     OW22162   0.273   2.473   5.084 -0.2801 -0.2079  0.6722
 7088SOL    HW122163   0.202   2.417   5.042 -0.2850 -0.5796  1.1695
 7088SOL    HW222164   0.234   2.523   5.162 -0.3955  0.8575 -0.0516
 7089SOL     OW22165   0.347   6.605   4.700 -0.1242  0.0553 -0.1758
 7089SOL    HW122166   0.403   6.525   4.719  0.6084  0.6713  0.2826
 7089SOL    HW222167   0.294   6.629   4.782  1.7427  1.6799  0.6140
 7090SOL     OW22168   6.817   4.618   0.907  0.1490  0.7305 -0.4213
 7090SOL    HW122169   6.774   4.555   0.972  0.6512  1.3998  0.5847
 7090SOL    HW222170   6.764   4.702   0.901 -0.1834  0.4618 -1.2891
 7091SOL     OW22171   6.161   1.534   1.167 -0.6312 -0.0605 -0.2819
 7091SOL    HW122172   6.117   1.556   1.254  1.4479  0.2674  0.7365
 7091SOL    HW222173   6.222   1.608   1.140 -1.1980 -0.1820 -2.0325
 7092SOL     OW22174   3.325   6.580   2.312  0.2402 -0.2099  0.2245
 7092SOL    HW122175   3.357   6.660   2.261  0.6155  0.2433  1.1428
 7092SOL    HW222176   3.257   6.609   2.380 -0.5570 -0.8637 -0.2726
 7093SOL     OW22177   6.229   6.074   0.254 -0.4742  0.1143  0.5138
 7093SOL    HW122178   6.174   6.051   0.174 -0.8786  1.9744  0.2094
 7093SOL    HW222179   6.189   6.153   0.300 -0.0097 -0.6599  2.3356
 7094SOL     OW22180   6.932   1.894   1.455  1.3177  0.5279  0.0877
 7094SOL    HW122181   6.934   1.963   1.528 -1.1892  2.6906 -1.7021
 7094SOL    HW222182   6.855   1.832   1.470  1.9377 -0.2176  0.2450
 7095SOL     OW22183   1.100   4.248   0.763  0.5451  0.0506 -0.5417
 7095SOL    HW122184   1.114   4.346   0.775 -0.6276  0.2808 -0.9379
 7095SOL    HW222185   1.019   4.220   0.815  2.2430 -1.1902  1.5942
 7096SOL     OW22186   3.715   6.311   0.185 -0.1371 -0.2286 -0.1765
 7096SOL    HW122187   3.736   6.214   0.174  0.6671  0.0689 -1.3930
 7096SOL    HW222188   3.754   6.345   0.270 -1.4309 -1.2252  0.8608
 7097SOL     OW22189   3.861   3.937   3.673 -0.3279 -0.0911 -0.1995
 7097SOL    HW122190   3.940   3.913   3.615 -0.0783 -0.4185  0.2650
 7097SOL    HW222191   3.786   3.970   3.616 -0.9217 -2.5561 -0.9767
 7098SOL     OW22192   3.066   4.293   1.451  0.9145 -0.6922 -0.5357
 7098SOL    HW122193   3.155   4.303   1.495  0.8587  0.4400 -0.6601
 7098SOL    HW222194   3.064   4.347   1.366 -1.3372  3.1097  1.6466
 7099SOL     OW22195   0.714   2.686   5.476  0.1646 -0.1526  0.2638
 7099SOL    HW122196   0.684   2.732   5.393  1.6284  1.1621  0.4022
 7099SOL    HW222197   0.783   2.617   5.453  0.7758  0.4043  0.3831
 7100SOL     OW22198   0.563   6.549   4.925 -0.2115 -0.3876  0.2413
 7100SOL    HW122199   0.488   6.505   4.975 -1.0479  1.1679  0.4289
 7100SOL    HW222200   0.579   6.500   4.839  0.3198 -2.2738  1.3456
 7101SOL     OW22201   2.645   5.315   5.735  0.4673  0.1888  0.0351
 7101SOL    HW122202   2.686   5.333   5.824 -2.3196  2.0109  1.0534
 7101SOL    HW222203   2.692   5.369   5.665  3.2764 -1.9411  0.0740
 7102SOL     OW22204   4.140   0.187   4.844  0.3071  0.6479 -0.1454
 7102SOL    HW122205   4.125   0.225   4.935 -1.1179  0.6846 -0.3767
 7102SOL    HW222206   4.104   0.094   4.840 -0.5834  1.0193 -0.9634
 7103SOL     OW22207   1.504   3.635   1.181  0.0844 -0.0608  0.0680
 7103SOL    HW122208   1.420   3.643   1.126 -0.3925  0.5610  0.8714
 7103SOL    HW222209   1.516   3.540   1.209  0.2478 -0.3618 -0.9676
 7104SOL     OW22210   2.936   6.416   5.717 -0.3381 -0.0652 -0.3849
 7104SOL    HW122211   3.016   6.359   5.697 -1.0808 -0.8174 -1.3252
 7104SOL    HW222212   2.965   6.511   5.729  0.7808 -0.4443  0.0221
 7105SOL     OW22213   2.448   2.146   1.941  0.5482  0.2367  0.0969
 7105SOL    HW122214   2.391   2.169   2.020  1.0675  0.6839  0.3447
 7105SOL    HW222215   2.494   2.059   1.958 -0.7977 -0.6405 -0.5117
 7106SOL     OW22216   6.956   6.984   6.755 -0.2945  0.2031  0.9180
 7106SOL    HW122217   7.037   6.957   6.704 -0.8816  0.3264 -0.1054
 7106SOL    HW222218   6.971   7.075   6.795 -0.4399  0.8625 -0.4752
 7107SOL     OW22219   6.714   2.907   5.226 -0.0024 -0.1464 -0.1775
 7107SOL    HW122220   6.681   2.985   5.172 -0.6168  0.3795  0.9250
 7107SOL    HW222221   6.722   2.826   5.167 -2.6199 -0.1262 -0.6804
 7108SOL     OW22222   1.697   2.259   6.742 -0.2091 -0.3011 -0.4082
 7108SOL    HW122223   1.741   2.235   6.829 -1.0797  0.9701  0.4094
 7108SOL    HW222224   1.725   2.193   6.672  0.8334 -1.1163  0.7220
 7109SOL     OW22225   2.312   4.407   2.218 -0.0465 -0.3528  0.0129
 7109SOL    HW122226   2.238   4.342   2.232 -1.1525  0.4913 -1.6548
 7109SOL    HW222227   2.293   4.491   2.268 -0.3812 -0.0218 -0.6624
 7110SOL     OW22228   0.716   0.480   1.074  0.2843 -0.1640 -0.0134
 7110SOL    HW122229   0.710   0.547   1.148  1.3924  0.9003 -0.8615
 7110SOL    HW222230   0.693   0.523   0.987 -2.7949 -1.8139 -0.1579
 7111SOL     OW22231   0.937   1.761   6.091 -0.1246  0.1094  0.2779
 7111SOL    HW122232   1.035   1.762   6.114  0.1298 -0.9107 -0.6537
 7111SOL    HW222233   0.915   1.843   6.038 -0.1899  1.2455  1.9969
 7112SOL     OW22234   2.574   0.928   1.601  0.2778 -0.9098  0.2898
 7112SOL    HW122235   2.511   0.878   1.541  1.3876 -0.9650 -0.8783
 7112SOL    HW222236   2.668   0.909   1.573  0.7729  1.7102 -0.1469
 7113SOL     OW22237   6.106   4.901   6.929  0.2346 -0.9609 -0.2081
 7113SOL    HW122238   6.052   4.821   6.902  1.2735 -1.5580 -0.5863
 7113SOL    HW222239   6.080   4.980   6.873  0.1363 -1.3762 -0.7553
 7114SOL     OW22240   5.903   1.244   6.857  0.3395  0.2592 -0.6934
 7114SOL    HW122241   5.912   1.337   6.821 -1.5317  0.7366 -0.0553
 7114SOL    HW222242   5.878   1.182   6.783 -0.7589  0.7257 -0.7328
 7115SOL     OW22243   7.003   0.342   2.127 -0.2513 -0.4261 -0.1718
 7115SOL    HW122244   6.990   0.248   2.159  0.0314 -0.8839 -1.3259
 7115SOL    HW222245   7.089   0.348   2.077 -0.4180  0.3777 -0.3764
 7116SOL     OW22246   4.373   0.921   2.826  0.0746  0.1870  0.4243
 7116SOL    HW122247   4.446   0.854   2.842  0.1929  0.0608 -0.5976
 7116SOL    HW222248   4.414   1.007   2.795 -0.1884  0.2131  0.1530
 7117SOL     OW22249   5.708   5.394   1.501  0.2166  0.2777  0.2310
 7117SOL    HW122250   5.756   5.315   1.463 -1.3624 -2.1410  2.8999
 7117SOL    HW222251   5.615   5.397   1.464  0.2047  0.7613  0.2946
 7118SOL     OW22252   6.503   4.526   0.097  0.3773 -0.1764 -0.2001
 7118SOL    HW122253   6.427   4.536   0.161  1.6681  3.0163  1.0480
 7118SOL    HW222254   6.468   4.524   0.003 -1.2825  0.7205  0.3576
 7119SOL     OW22255   4.178   3.693   5.551 -0.3574 -0.1029  0.0639
 7119SOL    HW122256   4.151   3.622   5.616 -2.2611  0.2024 -0.3443
 7119SOL    HW222257   4.142   3.781   5.580  0.4589  0.3914 -0.3778
 7120SOL     OW22258   0.182   4.653   5.486 -0.7924 -0.2433 -0.3401
 7120SOL    HW122259   0.128   4.737   5.487 -0.5242 -0.0595  0.7619
 7120SOL    HW222260   0.122   4.575   5.469 -1.2121  0.0772 -0.3394
 7121SOL     OW22261   5.253   1.921   5.028 -0.0457  0.2157  0.2559
 7121SOL    HW122262   5.221   1.827   5.010  2.2869 -1.0906  2.2905
 7121SOL    HW222263   5.213   1.954   5.113 -1.8406  1.6620 -1.0724
 7122SOL     OW22264   1.987   5.990   0.017  0.2173  0.3854 -0.0359
 7122SOL    HW122265   2.031   6.045   0.087  0.0303  1.2459 -0.5773
 7122SOL    HW222266   1.971   6.046  -0.064  1.1135 -0.7619 -1.0562
 7123SOL     OW22267   0.410   0.269   1.169 -0.4959 -0.3846  0.6697
 7123SOL    HW122268   0.504   0.260   1.137 -0.4807 -0.0991  0.6284
 7123SOL    HW222269   0.348   0.227   1.104 -0.5218  0.7594 -0.0808
 7124SOL     OW22270   3.730   5.310   5.986  0.0356  0.3893  0.0451
 7124SOL    HW122271   3.668   5.298   5.908  1.0067 -1.4021 -0.5314
 7124SOL    HW222272   3.700   5.387   6.041 -1.5795  0.7591 -1.2536
 7125SOL     OW22273   0.190   6.897   4.062 -0.1308 -0.7194  0.3577
 7125SOL    HW122274   0.280   6.858   4.044 -0.2750 -0.8010 -0.2232
 7125SOL    HW222275   0.173   6.899   4.160  2.1653  2.9058  0.8918
 7126SOL     OW22276   0.702   3.757   1.896  0.0478 -0.6432 -0.1566
 7126SOL    HW122277   0.684   3.744   1.798 -1.0438 -1.8444  0.1842
 7126SOL    HW222278   0.788   3.807   1.907  0.2336 -0.5587 -1.7244
 7127SOL     OW22279   5.795   1.432   0.010  0.4074 -0.2642  0.3641
 7127SOL    HW122280   5.832   1.350  -0.034 -0.8695 -0.6403 -0.0564
 7127SOL    HW222281   5.711   1.408   0.060  0.9862  0.4599  1.7307
 7128SOL     OW22282   0.792   2.725   1.006  0.8405 -0.2955 -0.4088
 7128SOL    HW122283   0.780   2.630   0.975 -0.5172 -0.5915  0.9638
 7128SOL    HW222284   0.824   2.726   1.100 -0.4748  0.6164  0.0459
 7129SOL     OW22285   1.925   0.712   5.512 -0.4760  0.5106 -0.1097
 7129SOL    HW122286   1.979   0.685   5.433 -2.7824 -0.8713 -1.3005
 7129SOL    HW222287   1.874   0.796   5.491 -0.3228  0.7143  0.3043
 7130SOL     OW22288   2.352   0.635   6.499  0.6689 -0.4707  0.2170
 7130SOL    HW122289   2.254   0.652   6.499  1.1633  3.5293 -0.9646
 7130SOL    HW222290   2.372   0.552   6.446 -1.9672 -0.0189 -1.6958
 7131SOL     OW22291   3.242   6.748   4.941  0.1820 -0.4073 -0.2071
 7131SOL    HW122292   3.282   6.743   5.033  0.0986  0.0308 -0.1447
 7131SOL    HW222293   3.289   6.684   4.881  1.6975  0.8004 -0.3949
 7132SOL     OW22294   3.790   0.325   5.448  0.4157  0.0069 -0.4521
 7132SOL    HW122295   3.808   0.418   5.415 -2.0455  0.4870 -0.6564
 7132SOL    HW222296   3.811   0.320   5.546  0.0602  0.9778 -0.3063
 7133SOL     OW22297   1.824   5.792   1.105 -0.0522  0.9193 -0.2748
 7133SOL    HW122298   1.891   5.719   1.116  0.0750  0.8368 -1.4468
 7133SOL    HW222299   1.733   5.757   1.127 -0.0462  0.2780 -1.2330
 7134SOL     OW22300   1.293   5.820   0.349 -0.4304 -0.0781 -0.4662
 7134SOL    HW122301   1.215   5.824   0.412 -1.0247 -0.0432 -1.1996
 7134SOL    HW222302   1.377   5.808   0.402 -0.9622 -0.4572  0.3108
 7135SOL     OW22303   6.166   0.774   2.243  0.5400  0.2547 -0.0496
 7135SOL    HW122304   6.204   0.837   2.311  3.4742 -0.5339 -0.8113
 7135SOL    HW222305   6.079   0.738   2.275  1.0740  1.1060  2.5587
 7136SOL     OW22306   0.849   4.238   5.114 -0.0102  1.0678  0.3550
 7136SOL    HW122307   0.823   4.227   5.210  0.6367  0.6932  0.4883
 7136SOL    HW222308   0.919   4.309   5.106  2.8655 -1.5202  0.6897
 7137SOL     OW22309   1.953   6.398   5.787 -0.5086  0.5286  0.2286
 7137SOL    HW122310   1.918   6.447   5.866 -1.3715  0.2189  0.0505
 7137SOL    HW222311   1.880   6.343   5.747 -0.1830  0.9601 -1.0027
 7138SOL     OW22312   2.837   4.695   0.645  0.2977 -0.1748 -0.1471
 7138SOL    HW122313   2.837   4.602   0.683 -0.8181 -1.1980 -2.3980
 7138SOL    HW222314   2.800   4.759   0.711  3.3891 -0.7881  2.4415
 7139SOL     OW22315   3.895   6.143   2.311 -0.3203 -0.0233 -0.5013
 7139SOL    HW122316   3.978   6.171   2.358 -0.4130  0.8705 -0.8534
 7139SOL    HW222317   3.818   6.142   2.376 -0.6454  2.1350 -0.7864
 7140SOL     OW22318   5.774   1.023   3.744 -0.0987 -0.6750  0.5455
 7140SOL    HW122319   5.682   1.014   3.707  0.5780  0.0391 -1.4442
 7140SOL    HW222320   5.779   0.978   3.834 -2.0079 -1.8949  0.0883
 7141SOL     OW22321   1.055   2.190   2.753 -0.4728 -0.4278 -0.2345
 7141SOL    HW122322   1.088   2.147   2.837  0.3192 -2.1181 -1.3489
 7141SOL    HW222323   1.126   2.249   2.715 -1.4326  1.7316  1.1035
 7142SOL     OW22324   0.084   4.706   4.227  0.2406 -0.2040  0.2736
 7142SOL    HW122325   0.154   4.776   4.213  0.0559 -0.1297 -0.3159
 7142SOL    HW222326   0.115   4.620   4.186  0.5406 -0.5208  1.1440
 7143SOL     OW22327   4.195   5.320   0.594  0.3803  0.3140 -0.7126
 7143SOL    HW122328   4.177   5.417   0.607 -0.2957  0.0838  0.1015
 7143SOL    HW222329   4.113   5.267   0.616  1.5173 -0.6484  1.5393
 7144SOL     OW22330   0.242   2.433   1.753 -0.4058 -0.6770  0.2943
 7144SOL    HW122331   0.199   2.370   1.817  1.8431  0.4621  3.1549
 7144SOL    HW222332   0.174   2.497   1.718 -2.3521 -3.3657 -1.2105
 7145SOL     OW22333   3.038   1.445   6.670 -0.0959  0.2292  0.0206
 7145SOL    HW122334   3.027   1.462   6.768 -1.9739 -1.6538  0.2049
 7145SOL    HW222335   3.135   1.445   6.647  0.4005  0.3444  1.9470
 7146SOL     OW22336   5.652   6.709   2.364  0.1567 -0.0476 -0.1091
 7146SOL    HW122337   5.671   6.634   2.427 -2.0196  0.2437  0.9799
 7146SOL    HW222338   5.683   6.684   2.272  1.1086 -1.5196  0.5829
 7147SOL     OW22339   4.128   2.556   5.691  0.4345  0.1698  0.6292
 7147SOL    HW122340   4.128   2.497   5.772  3.9716 -0.3092  0.4559
 7147SOL    HW222341   4.119   2.500   5.609 -1.2416  0.4698  0.5710
 7148SOL     OW22342   3.193   1.984   0.030  0.3436 -0.3081 -0.6380
 7148SOL    HW122343   3.214   1.898   0.076 -0.2416 -1.3051 -2.1702
 7148SOL    HW222344   3.227   2.060   0.085 -0.9224 -1.3798  1.7880
 7149SOL     OW22345   2.109   5.589   2.047 -0.1839 -0.6908  0.2096
 7149SOL    HW122346   2.020   5.568   2.088 -0.5276  1.3060  0.5568
 7149SOL    HW222347   2.168   5.631   2.116  0.6557 -0.9843 -0.3163
 7150SOL     OW22348   4.145   1.782   2.984 -0.2148 -0.9903  0.0137
 7150SOL    HW122349   4.133   1.722   2.905  0.3311  0.0456 -0.8847
 7150SOL    HW222350   4.183   1.870   2.954  0.4108 -0.7241  1.4823
 7151SOL     OW22351   4.341   4.333   6.489  0.2441 -0.0832 -0.2544
 7151SOL    HW122352   4.342   4.385   6.404  0.1080  0.3097 -0.0169
 7151SOL    HW222353   4.355   4.236   6.469 -1.2069 -0.2006 -0.8732
 7152SOL     OW22354   3.630   5.960   3.056  0.0349 -0.9431  0.5339
 7152SOL    HW122355   3.646   5.866   3.024  0.8063 -0.0372 -1.9846
 7152SOL    HW222356   3.594   6.015   2.980 -0.3125  0.8542  1.9287
 7153SOL     OW22357   1.537   0.092   3.237  0.0545  1.2282 -0.3590
 7153SOL    HW122358   1.540   0.061   3.142 -1.8388  0.6142 -0.2647
 7153SOL    HW222359   1.619   0.144   3.258  1.9379 -1.1137 -1.4548
 7154SOL     OW22360   3.392   3.373   1.673 -0.7852 -0.1144 -0.3203
 7154SOL    HW122361   3.344   3.404   1.591 -0.9904  0.9333  0.1738
 7154SOL    HW222362   3.328   3.327   1.734 -0.8254 -0.0942 -0.3480
 7155SOL     OW22363   4.811   4.260   1.628  0.5391  0.0779 -0.1910
 7155SOL    HW122364   4.774   4.343   1.670 -0.1868 -0.7916  0.9370
 7155SOL    HW222365   4.791   4.261   1.530  0.9346  1.4312 -0.2846
 7156SOL     OW22366   1.051   4.294   1.353 -0.0048  0.1753 -0.5320
 7156SOL    HW122367   1.020   4.319   1.444  0.3490  0.9386 -0.6159
 7156SOL    HW222368   0.972   4.277   1.294 -0.2735 -2.2560  0.3966
 7157SOL     OW22369   6.790   3.468   4.390  0.4553 -0.1400  0.0857
 7157SOL    HW122370   6.787   3.383   4.443  1.5654 -0.5580 -0.4968
 7157SOL    HW222371   6.832   3.540   4.446 -0.5179  0.0490  0.5916
 7158SOL     OW22372   0.606   1.537   0.418 -0.0100 -0.3729 -0.1111
 7158SOL    HW122373   0.651   1.591   0.346 -1.9991  0.2972 -0.9179
 7158SOL    HW222374   0.626   1.578   0.507 -0.3027  0.8837 -0.5921
 7159SOL     OW22375   4.956   5.473   5.067 -0.2696  0.0839  0.3171
 7159SOL    HW122376   4.869   5.450   5.022 -0.3283 -0.0695  0.5079
 7159SOL    HW222377   4.944   5.467   5.166  0.4181 -1.5815  0.3120
 7160SOL     OW22378   1.721   2.532   6.334 -0.1982 -0.1092 -0.0845
 7160SOL    HW122379   1.799   2.496   6.283 -0.2833  0.0178 -0.3103
 7160SOL    HW222380   1.701   2.473   6.412 -1.2987 -1.4270 -1.3162
 7161SOL     OW22381   2.002   2.243   6.818  0.4321  0.5821  0.6234
 7161SOL    HW122382   2.002   2.307   6.740  2.0550  0.9432  0.8890
 7161SOL    HW222383   1.997   2.295   6.903  0.3465  0.2708  0.8079
 7162SOL     OW22384   2.860   0.007   0.257  0.3474  0.4528 -0.5883
 7162SOL    HW122385   2.913   0.050   0.184  0.1378  0.2802 -0.8424
 7162SOL    HW222386   2.788   0.069   0.288  0.0329  0.2808 -0.9682
 7163SOL     OW22387   3.224   5.764   5.588  0.3049  0.7991 -0.6658
 7163SOL    HW122388   3.274   5.745   5.673  1.1747  1.7848 -0.9455
 7163SOL    HW222389   3.188   5.678   5.551  1.1263  0.1761 -0.0544
 7164SOL     OW22390   0.690   4.178   5.374  0.7895 -0.4905  0.1749
 7164SOL    HW122391   0.655   4.269   5.355  0.1013 -0.8843 -0.4844
 7164SOL    HW222392   0.778   4.185   5.421 -0.1543  0.5208  1.8838
 7165SOL     OW22393   6.255   1.369   2.927  0.2853  0.2464 -0.5610
 7165SOL    HW122394   6.231   1.343   3.020  0.1957 -0.7212 -0.8389
 7165SOL    HW222395   6.177   1.354   2.866  0.9330 -0.9982 -1.1214
 7166SOL     OW22396   5.791   5.920   2.513 -0.8106 -0.0220  0.2499
 7166SOL    HW122397   5.740   5.981   2.574 -0.6354  0.1985  0.1794
 7166SOL    HW222398   5.821   5.839   2.563 -0.0218  0.5109  0.6489
 7167SOL     OW22399   4.042   1.915   0.501 -0.6895  0.0593 -0.4205
 7167SOL    HW122400   4.115   1.951   0.443 -3.7748  1.5722 -3.7867
 7167SOL    HW222401   4.027   1.819   0.481  0.1816 -0.1908  0.0998
 7168SOL     OW22402   3.606   4.971   5.597 -0.6870 -0.5063 -0.0213
 7168SOL    HW122403   3.517   4.926   5.598 -2.6636  2.9992 -0.1183
 7168SOL    HW222404   3.614   5.027   5.514  0.6958  0.8406  0.9527
 7169SOL     OW22405   5.449   1.062   5.261 -0.3724  0.2037 -0.4733
 7169SOL    HW122406   5.540   1.095   5.234  0.2583 -1.2340 -0.2090
 7169SOL    HW222407   5.459   0.993   5.332 -1.8285  1.6293  1.2173
 7170SOL     OW22408   4.386   5.879   6.735 -0.2606 -0.2595  0.4789
 7170SOL    HW122409   4.336   5.851   6.818 -1.9896 -0.9099 -0.7239
 7170SOL    HW222410   4.383   5.978   6.726 -3.0046 -0.3568 -0.4881
 7171SOL     OW22411   6.315   4.225   2.539  0.1808 -0.2461 -0.0503
 7171SOL    HW122412   6.393   4.275   2.577  0.0348 -0.5739  0.6925
 7171SOL    HW222413   6.292   4.148   2.598  0.1774 -0.9992 -0.9926
 7172SOL     OW22414   5.943   1.876   1.377 -0.3665  0.3011 -0.6425
 7172SOL    HW122415   5.870   1.835   1.431 -0.3612  0.7810 -0.2734
 7172SOL    HW222416   5.975   1.960   1.420 -0.9988  1.2005 -1.8770
 7173SOL     OW22417   6.522   2.947   3.281 -0.0995 -0.0608  0.4894
 7173SOL    HW122418   6.534   3.016   3.210  0.2983  0.9016  1.4564
 7173SOL    HW222419   6.593   2.958   3.350 -0.9932 -0.4014  1.4865
 7174SOL     OW22420   4.728   1.118   0.644  0.1473 -0.4783 -0.4508
 7174SOL    HW122421   4.810   1.172   0.665 -0.2230 -0.6498  1.6356
 7174SOL    HW222422   4.752   1.021   0.642  0.2436 -0.4476 -1.2775
 7175SOL     OW22423   2.687   2.959   5.365 -0.1954  0.2132 -0.3308
 7175SOL    HW122424   2.607   2.982   5.309 -1.0992 -1.3234  0.2472
 7175SOL    HW222425   2.664   2.881   5.424  0.8675  1.4789  1.8534
 7176SOL     OW22426   2.231   0.378   5.510  0.5775  0.0678 -0.6738
 7176SOL    HW122427   2.166   0.405   5.440 -0.5930  0.2188  0.4247
 7176SOL    HW222428   2.183   0.329   5.583  2.1575 -2.4656 -1.1926
 7177SOL     OW22429   5.524   3.371   1.578  0.1924  0.4100  0.1265
 7177SOL    HW122430   5.480   3.300   1.633  1.6743 -0.2798  0.4774
 7177SOL    HW222431   5.487   3.369   1.485 -0.8219  0.1674  0.5227
 7178SOL     OW22432   1.326   5.267   0.872  0.0582 -0.3391  0.1969
 7178SOL    HW122433   1.348   5.302   0.781  0.7204 -1.9207 -0.2924
 7178SOL    HW222434   1.405   5.220   0.910 -0.4472 -0.3582  1.2756
 7179SOL     OW22435   5.526   6.280   1.170  0.0951  0.6865  0.1608
 7179SOL    HW122436   5.431   6.291   1.141 -0.2903  1.0802  1.4812
 7179SOL    HW222437   5.529   6.228   1.256  1.1786 -0.4624 -0.5337
 7180SOL     OW22438   0.539   4.233   5.944  0.0532  0.2300 -0.2965
 7180SOL    HW122439   0.492   4.292   5.877  0.0777 -1.8798 -2.2991
 7180SOL    HW222440   0.636   4.259   5.948 -0.0345  0.6609 -0.7666
 7181SOL     OW22441   4.380   1.716   0.470  1.0146 -0.4605 -0.7369
 7181SOL    HW122442   4.479   1.716   0.483  1.1005 -1.7591 -1.1569
 7181SOL    HW222443   4.335   1.703   0.558  1.1959  0.5582 -0.4882
 7182SOL     OW22444   4.511   4.622   2.425  0.5109  0.1303  0.3327
 7182SOL    HW122445   4.519   4.696   2.358  0.4581  0.1286  0.3251
 7182SOL    HW222446   4.513   4.534   2.377 -1.5439  0.1455  0.1146
 7183SOL     OW22447   0.947   6.839   0.063  0.4631 -0.4070  0.0721
 7183SOL    HW122448   0.999   6.908   0.012  1.3836 -1.5469 -0.5799
 7183SOL    HW222449   0.887   6.885   0.129  1.7702  0.9924  0.3566
 7184SOL     OW22450   2.981   4.617   1.472  0.4628 -0.0079 -0.3687
 7184SOL    HW122451   3.028   4.697   1.435 -1.2349  2.4678  2.3055
 7184SOL    HW222452   3.023   4.592   1.559  0.2409 -1.2901 -0.6201
 7185SOL     OW22453   2.043   0.269   4.535 -0.5091  0.6424  0.0418
 7185SOL    HW122454   2.065   0.183   4.580 -2.2444 -0.1264 -0.4853
 7185SOL    HW222455   2.104   0.341   4.568 -0.5220 -0.2852  2.2281
 7186SOL     OW22456   2.197   2.993   3.365 -0.2372 -0.4922 -0.2136
 7186SOL    HW122457   2.226   2.945   3.283 -0.7301 -0.3869 -0.4548
 7186SOL    HW222458   2.159   3.082   3.339  1.0348  0.2112  0.2538
 7187SOL     OW22459   6.264   1.306   0.528  0.7252  0.1303 -0.3208
 7187SOL    HW122460   6.181   1.252   0.517  0.5637  0.0821  0.9111
 7187SOL    HW222461   6.244   1.386   0.585  0.9944  1.4169 -1.9586
 7188SOL     OW22462   6.405   6.276   1.015  0.0467 -0.6839 -0.2213
 7188SOL    HW122463   6.461   6.351   0.979 -0.5367  0.0793  0.4204
 7188SOL    HW222464   6.426   6.262   1.111 -1.9647  0.7248  0.5006
 7189SOL     OW22465   0.027   4.796   4.830  0.1648 -0.0450 -0.2691
 7189SOL    HW122466  -0.069   4.808   4.804 -0.1049 -1.9651 -0.2698
 7189SOL    HW222467   0.071   4.734   4.765  1.3277  0.4915 -0.0252
 7190SOL     OW22468   0.312   0.802   4.001 -0.2360 -0.3222 -0.1320
 7190SOL    HW122469   0.385   0.870   4.014 -1.2506  1.2349 -1.8960
 7190SOL    HW222470   0.225   0.841   4.030 -0.5530 -1.7643  0.9562
 7191SOL     OW22471   5.434   5.377   5.418  0.1046 -0.3106  0.0642
 7191SOL    HW122472   5.350   5.354   5.368 -0.6819 -1.7848  1.9198
 7191SOL    HW222473   5.512   5.329   5.377 -0.5894 -1.8071  0.4160
 7192SOL     OW22474   5.882   1.076   0.058  0.0938  0.3456  0.3696
 7192SOL    HW122475   5.788   1.102   0.080  0.5980  1.3484  1.4849
 7192SOL    HW222476   5.921   1.144  -0.005  0.2814  0.3155  0.4530
 7193SOL     OW22477   1.074   3.059   0.460 -0.0825 -0.0968 -0.9098
 7193SOL    HW122478   1.147   3.008   0.415  1.5219 -0.0896  1.4974
 7193SOL    HW222479   1.000   2.996   0.486  0.8361 -0.8538 -0.0166
 7194SOL     OW22480   1.017   1.277   3.764  0.1629 -0.1212  0.1566
 7194SOL    HW122481   0.985   1.232   3.681  0.0773  0.3770 -0.0781
 7194SOL    HW222482   1.092   1.339   3.742 -0.9979  1.3402  0.1709
 7195SOL     OW22483   0.705   3.151   2.977 -0.1986 -0.5105  0.7955
 7195SOL    HW122484   0.729   3.236   2.932 -0.3972 -0.5919  0.5379
 7195SOL    HW222485   0.611   3.155   3.009 -0.0306 -0.4165  1.2869
 7196SOL     OW22486   6.570   2.695   3.644 -0.0778  0.3800 -0.4363
 7196SOL    HW122487   6.589   2.788   3.613  1.5135 -0.2453 -1.4532
 7196SOL    HW222488   6.604   2.629   3.577 -1.4762 -0.9582  0.0932
 7197SOL     OW22489   6.911   6.237   1.145 -0.0596 -0.3442  0.2328
 7197SOL    HW122490   6.926   6.241   1.046 -0.9148 -1.7984  0.0057
 7197SOL    HW222491   6.824   6.280   1.167 -0.6742 -1.5089  0.1200
 7198SOL     OW22492   4.658   3.160   5.380 -0.4225 -0.1787  0.0251
 7198SOL    HW122493   4.646   3.243   5.326  1.0512 -0.3843 -0.6767
 7198SOL    HW222494   4.645   3.080   5.321 -0.1439 -0.4194  0.2867
 7199SOL     OW22495   1.553   2.119   4.072  0.2382 -0.6194  0.0692
 7199SOL    HW122496   1.475   2.164   4.116  0.9683  2.0095 -1.1280
 7199SOL    HW222497   1.525   2.029   4.040 -2.3689  0.2648 -0.4214
 7200SOL     OW22498   4.642   6.370   2.681  0.1308 -0.2075  0.1947
 7200SOL    HW122499   4.595   6.284   2.702 -3.7454  1.2689 -1.5022
 7200SOL    HW222500   4.613   6.441   2.745  1.4041  0.4104  0.1213
 7201SOL     OW22501   3.675   5.412   0.306  0.2936 -0.3089  0.0472
 7201SOL    HW122502   3.706   5.419   0.401  1.1191  0.3408 -0.2594
 7201SOL    HW222503   3.752   5.426   0.244 -0.2052 -0.8687 -0.7308
 7202SOL     OW22504   5.381   1.982   1.743 -0.3894  0.3977 -0.4694
 7202SOL    HW122505   5.467   2.032   1.757 -0.5229  0.1271  1.6690
 7202SOL    HW222506   5.320   2.000   1.820 -0.8902 -2.1358 -0.2063
 7203SOL     OW22507   4.573   0.485   4.254  0.4705  0.4025 -0.5498
 7203SOL    HW122508   4.609   0.394   4.279  0.2977  0.4208 -0.2290
 7203SOL    HW222509   4.473   0.483   4.257  0.4666  0.5957 -0.5712
 7204SOL     OW22510   3.459   6.401   3.246 -0.1915  0.2760  0.0716
 7204SOL    HW122511   3.552   6.421   3.275 -0.7406  1.0631  1.3831
 7204SOL    HW222512   3.416   6.338   3.311 -0.3371 -0.7330 -0.9564
 7205SOL     OW22513   0.928   4.597   1.282 -0.1009 -0.1047  0.0221
 7205SOL    HW122514   0.856   4.667   1.283  0.2029  0.2185  1.0804
 7205SOL    HW222515   0.886   4.506   1.275 -0.6192  0.0797  0.6101
 7206SOL     OW22516   3.797   6.034   5.214 -0.0864  0.4488  0.4604
 7206SOL    HW122517   3.739   5.974   5.269  1.5018 -0.4320  1.2463
 7206SOL    HW222518   3.834   6.107   5.271  1.1712 -0.1770  0.4865
 7207SOL     OW22519   4.624   6.703   1.706  1.5686  0.2279 -0.2285
 7207SOL    HW122520   4.607   6.778   1.770  1.6585  0.0488  0.0109
 7207SOL    HW222521   4.587   6.618   1.744  0.7602  0.2908 -0.8659
 7208SOL     OW22522   0.068   2.197   0.320 -0.3322  0.0610  0.4259
 7208SOL    HW122523   0.158   2.201   0.362 -0.3282 -0.4879  0.4689
 7208SOL    HW222524  -0.001   2.182   0.390 -0.2194 -2.0219  0.1383
 7209SOL     OW22525   4.929   3.346   4.849  0.2347 -0.4228 -0.4187
 7209SOL    HW122526   4.889   3.437   4.860  0.9198 -0.1910  0.2468
 7209SOL    HW222527   4.939   3.326   4.751 -2.1990 -0.8272 -0.6621
 7210SOL     OW22528   0.435   5.420   1.939  0.3529 -0.3975  0.1007
 7210SOL    HW122529   0.452   5.388   2.033  0.5152 -0.1728  0.1480
 7210SOL    HW222530   0.344   5.461   1.934  0.9995  1.1734  0.5860
 7211SOL     OW22531   1.859   1.319   1.931 -0.0417 -0.3672  0.3807
 7211SOL    HW122532   1.863   1.415   1.957  2.4645  0.8905 -3.6234
 7211SOL    HW222533   1.917   1.265   1.993  1.4758  1.4045  0.5940
 7212SOL     OW22534   2.447   4.717   3.733  0.2519 -0.4364  0.5556
 7212SOL    HW122535   2.413   4.776   3.659 -0.2385 -1.5910 -0.1609
 7212SOL    HW222536   2.524   4.762   3.778  0.5842  0.2811 -0.6762
 7213SOL     OW22537   6.612   2.188   4.316  0.2043 -0.3744  0.1382
 7213SOL    HW122538   6.585   2.170   4.221  1.8212 -0.3414 -0.3671
 7213SOL    HW222539   6.541   2.240   4.362 -0.5987 -0.3637 -1.0717
 7214SOL     OW22540   3.165   3.858   4.401  0.4377 -0.4829  0.1389
 7214SOL    HW122541   3.189   3.950   4.432 -0.9352  0.5099 -1.5440
 7214SOL    HW222542   3.131   3.804   4.478 -0.9567  1.2023  0.7493
 7215SOL     OW22543   6.046   2.176   1.385  0.5038  0.7142  0.4732
 7215SOL    HW122544   5.947   2.168   1.384  0.3247  2.4755  0.4870
 7215SOL    HW222545   6.072   2.268   1.356  2.1585  0.1505  0.0575
 7216SOL     OW22546   5.821   3.111   5.179  0.0078  0.5477 -0.1849
 7216SOL    HW122547   5.781   3.202   5.175  1.2401  1.0706 -1.3973
 7216SOL    HW222548   5.885   3.106   5.255 -1.6439 -0.0156  1.2160
 7217SOL     OW22549   6.359   2.800   5.371  0.2553 -0.1895  0.3961
 7217SOL    HW122550   6.390   2.889   5.403  1.7494 -0.5748  0.0815
 7217SOL    HW222551   6.297   2.813   5.293  0.0980  0.5785  0.6394
 7218SOL     OW22552   5.681   5.363   1.146 -0.0340  0.6118  0.4812
 7218SOL    HW122553   5.622   5.330   1.220 -0.6151 -1.1830 -0.7096
 7218SOL    HW222554   5.674   5.462   1.139 -0.6732  0.7213  2.2204
 7219SOL     OW22555   6.668   5.552   3.953  0.4562  0.2218  0.2656
 7219SOL    HW122556   6.694   5.645   3.930 -0.3747  1.0010  2.2753
 7219SOL    HW222557   6.570   5.540   3.939  0.5841 -0.4199 -0.1344
 7220SOL     OW22558   2.401   5.815   3.764 -0.2632  0.2279  0.0274
 7220SOL    HW122559   2.335   5.884   3.791 -0.1254  0.2961  0.1900
 7220SOL    HW222560   2.453   5.847   3.685 -0.9111 -0.1185 -0.5508
 7221SOL     OW22561   0.120   3.866   6.864  0.6475  0.2149 -0.0689
 7221SOL    HW122562   0.038   3.882   6.919 -0.2499  0.5110 -1.4223
 7221SOL    HW222563   0.106   3.905   6.773  1.3937 -1.7103 -1.0588
 7222SOL     OW22564   1.072   4.756   0.279 -0.3187 -0.7347  0.1622
 7222SOL    HW122565   1.021   4.765   0.193  1.5333 -1.0492 -1.0216
 7222SOL    HW222566   1.012   4.779   0.356 -1.7498  0.5561 -1.2655
 7223SOL     OW22567   0.931   1.641   2.750  0.3656 -0.2140  0.1833
 7223SOL    HW122568   0.920   1.741   2.744 -0.2670 -0.2951 -0.1097
 7223SOL    HW222569   0.997   1.611   2.682 -0.4653 -0.1457 -0.6752
 7224SOL     OW22570   2.155   6.484   0.363  0.4175 -0.8979 -0.1248
 7224SOL    HW122571   2.133   6.441   0.275 -0.7655 -1.9402  0.6414
 7224SOL    HW222572   2.178   6.414   0.430 -0.7331 -0.2925  0.9440
 7225SOL     OW22573   6.988   6.596   2.879 -0.0272 -0.3675 -0.1565
 7225SOL    HW122574   6.913   6.651   2.843 -0.3509 -0.2108  0.7320
 7225SOL    HW222575   7.020   6.635   2.965  0.3554 -1.0421  0.0152
 7226SOL     OW22576   6.420   1.001   6.216 -0.6499  0.0094 -0.0624
 7226SOL    HW122577   6.425   0.915   6.166 -1.7824 -0.8588  1.2149
 7226SOL    HW222578   6.361   1.065   6.167  0.8968  0.4206 -1.4662
 7227SOL     OW22579   5.328   6.963   6.504 -0.0266  0.8234 -0.0873
 7227SOL    HW122580   5.367   7.026   6.437 -1.3864  0.3167 -1.4147
 7227SOL    HW222581   5.396   6.944   6.575  2.8664 -1.2964 -3.1114
 7228SOL     OW22582   2.227   4.305   3.131 -0.3080 -0.1691 -0.3064
 7228SOL    HW122583   2.191   4.345   3.047 -1.8502  0.0692  0.4263
 7228SOL    HW222584   2.321   4.334   3.144 -1.6121  4.3516  0.7603
 7229SOL     OW22585   5.803   1.438   1.056 -0.2262 -0.5017  0.2438
 7229SOL    HW122586   5.808   1.449   1.155 -1.5362 -1.0703  0.3936
 7229SOL    HW222587   5.805   1.527   1.012  0.7490 -0.2654  0.7585
 7230SOL     OW22588   2.781   4.114   0.133 -0.2114  0.0812 -0.5706
 7230SOL    HW122589   2.865   4.144   0.089 -0.9165  0.2427 -1.8778
 7230SOL    HW222590   2.702   4.154   0.085 -1.0366 -0.1359  0.5578
 7231SOL     OW22591   4.981   6.542   0.803 -0.1056 -0.0946  0.0615
 7231SOL    HW122592   4.931   6.629   0.809 -2.2306 -1.0035 -2.5862
 7231SOL    HW222593   5.075   6.560   0.773 -0.3350  1.3063  0.0802
 7232SOL     OW22594   2.169   6.189   5.874 -0.6996  0.2179 -0.0585
 7232SOL    HW122595   2.099   6.132   5.916 -0.9715 -0.7294 -1.7348
 7232SOL    HW222596   2.128   6.277   5.847 -0.8554  0.2755  0.3546
 7233SOL     OW22597   5.229   4.247   0.931 -0.0038 -0.3188 -0.1794
 7233SOL    HW122598   5.219   4.343   0.904  1.1475 -0.5430 -1.4748
 7233SOL    HW222599   5.195   4.188   0.859  0.5603 -0.9073  0.0259
 7234SOL     OW22600   5.468   6.898   5.579  0.0875  0.1633 -0.4518
 7234SOL    HW122601   5.376   6.936   5.568 -0.2930 -1.1521 -2.4707
 7234SOL    HW222602   5.462   6.798   5.587  1.2249  0.2240  1.7891
 7235SOL     OW22603   2.818   2.381   1.645  0.3111 -0.3436 -0.1819
 7235SOL    HW122604   2.851   2.398   1.738  0.7030 -0.7782 -0.2406
 7235SOL    HW222605   2.788   2.286   1.637 -0.3207 -0.1360 -0.3236
 7236SOL     OW22606   5.957   4.557   4.682  0.4942  0.1060  0.0776
 7236SOL    HW122607   5.959   4.651   4.649 -1.2600  0.1834  0.1385
 7236SOL    HW222608   5.917   4.497   4.613  0.0165 -0.3097  0.7014
 7237SOL     OW22609   2.265   1.363   4.971 -0.2087  0.0872  0.8084
 7237SOL    HW122610   2.244   1.271   5.006 -0.9677  0.5695  1.6609
 7237SOL    HW222611   2.212   1.431   5.022  0.3277  1.0046  0.1688
 7238SOL     OW22612   0.215   5.684   6.052  0.1497 -0.3262 -0.0757
 7238SOL    HW122613   0.200   5.731   6.139 -0.6017  0.0480 -0.4004
 7238SOL    HW222614   0.312   5.688   6.028  0.2182  0.3567  0.3012
 7239SOL     OW22615   5.824   4.682   6.556  0.4677 -0.1815  0.2230
 7239SOL    HW122616   5.776   4.643   6.635  0.7522 -0.3997  0.2916
 7239SOL    HW222617   5.897   4.742   6.588  1.3122 -1.1467  0.1533
 7240SOL     OW22618   4.268   2.018   2.864 -0.1431  0.2911 -0.1221
 7240SOL    HW122619   4.352   1.998   2.815 -0.2466 -0.3938 -0.0322
 7240SOL    HW222620   4.266   2.115   2.889  1.2232  0.0611  1.0063
 7241SOL     OW22621   0.059   4.155   4.193 -0.6574 -0.4170  0.4501
 7241SOL    HW122622   0.055   4.088   4.267 -0.7688 -1.0289 -0.1027
 7241SOL    HW222623  -0.034   4.182   4.167 -0.6358 -0.5683  0.2109
 7242SOL     OW22624   6.033   6.508   2.706  0.2322  0.7084  0.4526
 7242SOL    HW122625   6.048   6.586   2.767  0.7785 -0.2336  1.5554
 7242SOL    HW222626   5.968   6.445   2.748  2.4831 -1.1876  1.2483
 7243SOL     OW22627   5.739   5.844   4.969  0.0571 -0.0874 -0.2012
 7243SOL    HW122628   5.796   5.783   5.025  0.4432 -0.6506 -1.1921
 7243SOL    HW222629   5.696   5.912   5.028  2.9080  1.2952  0.4492
 7244SOL     OW22630   1.545   1.406   6.757  0.0139 -0.1034  0.0618
 7244SOL    HW122631   1.515   1.497   6.730 -0.3583 -0.2342  0.0254
 7244SOL    HW222632   1.629   1.383   6.709  0.4953  0.4992  0.5970
 7245SOL     OW22633   0.098   4.622   3.537 -0.6119  0.7769 -0.0455
 7245SOL    HW122634   0.135   4.645   3.627  1.1984 -1.2620 -0.1963
 7245SOL    HW222635  -0.001   4.607   3.545 -0.2917 -0.7922  1.9861
 7246SOL     OW22636   6.858   2.748   0.577 -0.3012 -0.1691  0.1155
 7246SOL    HW122637   6.881   2.742   0.480  0.0077  1.0124  0.0911
 7246SOL    HW222638   6.923   2.810   0.622 -0.8618 -0.1646  0.9338
 7247SOL     OW22639   1.761   2.777   5.597  0.8772 -0.3794  0.2554
 7247SOL    HW122640   1.775   2.821   5.509 -0.0668  1.0071  0.7710
 7247SOL    HW222641   1.745   2.679   5.583 -1.8589  0.1980 -1.3875
 7248SOL     OW22642   2.929   2.613   0.218  0.5272  0.1599  0.5557
 7248SOL    HW122643   3.023   2.613   0.184  0.5092  1.1075  0.4657
 7248SOL    HW222644   2.870   2.565   0.153  0.5403  1.7200 -0.6749
 7249SOL     OW22645   3.406   4.070   1.571 -0.0380 -0.2428  0.2986
 7249SOL    HW122646   3.437   3.975   1.568  0.7600  0.0231  0.0405
 7249SOL    HW222647   3.389   4.096   1.667  1.3405 -0.1467  0.5342
 7250SOL     OW22648   2.538   6.270   3.803 -0.5673  0.3403 -0.7569
 7250SOL    HW122649   2.631   6.272   3.766 -0.5413 -0.4931 -0.7566
 7250SOL    HW222650   2.513   6.361   3.836  0.2321  0.5807 -0.7965
 7251SOL     OW22651   1.370   3.935   2.735 -0.0422 -0.3017 -0.2673
 7251SOL    HW122652   1.350   3.911   2.640 -0.7846 -4.1135  0.6716
 7251SOL    HW222653   1.344   3.859   2.795  2.2298  1.1230  2.8342
 7252SOL     OW22654   3.628   4.877   2.668  0.1722 -0.0281  0.4759
 7252SOL    HW122655   3.547   4.864   2.726 -0.5836 -2.4288 -0.9995
 7252SOL    HW222656   3.708   4.839   2.714 -0.0554 -0.1899  0.7432
 7253SOL     OW22657   3.874   1.233   2.622 -0.8971 -0.3994  0.2713
 7253SOL    HW122658   3.974   1.222   2.617 -0.8998 -0.1897 -0.3555
 7253SOL    HW222659   3.845   1.302   2.556 -1.5095 -0.7856  0.1235
 7254SOL     OW22660   3.549   6.659   3.652  0.1204  0.0268  0.0521
 7254SOL    HW122661   3.604   6.604   3.589  0.3722  0.5471 -0.1894
 7254SOL    HW222662   3.528   6.605   3.734 -2.9389 -1.8329 -1.7679
 7255SOL     OW22663   1.808   4.086   1.372 -0.5657 -0.7289  0.9259
 7255SOL    HW122664   1.838   4.026   1.298  1.8776  0.5175  0.7944
 7255SOL    HW222665   1.791   4.033   1.454 -0.3250 -1.7932  0.3048
 7256SOL     OW22666   0.286   2.654   0.527 -0.0416 -0.6684 -0.1824
 7256SOL    HW122667   0.354   2.654   0.600 -0.2636  1.0061  0.0560
 7256SOL    HW222668   0.228   2.573   0.536  0.5102 -0.9616  0.9372
 7257SOL     OW22669   6.559   3.190   5.939 -0.4415  0.0841  0.1822
 7257SOL    HW122670   6.606   3.267   5.983 -0.5606  0.3400 -0.1243
 7257SOL    HW222671   6.468   3.179   5.978 -0.2146 -0.2626  0.6162
 7258SOL     OW22672   0.854   6.687   4.880  0.2927  0.0419  0.3409
 7258SOL    HW122673   0.863   6.593   4.847  2.9260  1.7768 -5.0785
 7258SOL    HW222674   0.758   6.714   4.876 -0.0361 -1.1052 -3.0418
 7259SOL     OW22675   1.217   5.619   6.093 -0.1086 -0.0549  0.2202
 7259SOL    HW122676   1.230   5.567   6.177  1.8414 -1.6424 -0.9587
 7259SOL    HW222677   1.165   5.563   6.028 -0.8539  0.8159  0.0551
 7260SOL     OW22678   2.365   6.856   0.760  0.5164 -0.1524  0.1003
 7260SOL    HW122679   2.372   6.929   0.828  0.9939 -2.4890  2.7279
 7260SOL    HW222680   2.287   6.874   0.700 -0.2689  1.7570  1.6017
 7261SOL     OW22681   5.667   0.037   5.208 -0.3362 -0.0414 -0.1283
 7261SOL    HW122682   5.680   0.112   5.142 -0.3142 -0.3481 -0.4758
 7261SOL    HW222683   5.663   0.075   5.300 -2.8369  0.6687 -0.4514
 7262SOL     OW22684   1.566   1.740   1.939  0.3825 -0.2453 -0.5370
 7262SOL    HW122685   1.494   1.723   2.007  1.0610  2.6533  1.0818
 7262SOL    HW222686   1.524   1.761   1.851 -0.5404 -3.1728 -0.9085
 7263SOL     OW22687   2.076   4.779   0.875  0.4711 -0.3464 -0.4649
 7263SOL    HW122688   1.982   4.799   0.901  0.9868  2.0830 -0.2338
 7263SOL    HW222689   2.120   4.862   0.840  2.7042 -1.2564 -0.0468
 7264SOL     OW22690   4.992   0.094   0.673  0.0589  0.5305 -0.0795
 7264SOL    HW122691   4.897   0.086   0.705 -0.6243 -1.9388 -2.3865
 7264SOL    HW222692   4.992   0.126   0.578  1.3334 -1.5101 -0.8326
 7265SOL     OW22693   1.435   0.657   3.513  0.5564  0.2515  0.3860
 7265SOL    HW122694   1.346   0.685   3.548  0.0452  1.3452 -1.5822
 7265SOL    HW222695   1.447   0.693   3.420  2.2803 -1.4469 -0.1317
 7266SOL     OW22696   1.479   3.411   1.327 -0.2717  0.0199 -0.7088
 7266SOL    HW122697   1.379   3.409   1.332 -0.2818  1.8635  1.0650
 7266SOL    HW222698   1.514   3.318   1.316 -2.0930 -0.9414  0.9456
 7267SOL     OW22699   6.086   2.918   5.045 -0.0641  0.6123 -0.2870
 7267SOL    HW122700   6.163   2.960   4.997 -0.3042  0.3872 -0.8771
 7267SOL    HW222701   6.005   2.919   4.987 -0.1597 -0.3669 -0.1885
 7268SOL     OW22702   3.926   6.845   5.378  0.2459  0.6045 -0.2280
 7268SOL    HW122703   3.953   6.749   5.382  1.8579  0.9020 -2.5133
 7268SOL    HW222704   4.006   6.904   5.392 -0.4435  1.6032 -0.3323
 7269SOL     OW22705   2.537   0.854   6.590 -0.3432 -0.0222  0.5279
 7269SOL    HW122706   2.605   0.798   6.638  1.0808  0.5599 -0.7075
 7269SOL    HW222707   2.450   0.805   6.585 -0.0945 -0.7348  2.2862
 7270SOL     OW22708   0.943   5.705   1.730  0.4038 -0.5952 -0.5977
 7270SOL    HW122709   1.007   5.668   1.797  0.7226  1.6838  0.4343
 7270SOL    HW222710   0.979   5.790   1.692 -1.0945 -0.3317 -1.5186
 7271SOL     OW22711   5.035   4.618   0.308  0.4724 -0.0831  0.3822
 7271SOL    HW122712   5.067   4.650   0.396 -1.7308 -1.0287  1.6206
 7271SOL    HW222713   5.088   4.538   0.279 -0.1717 -1.1258  1.9683
 7272SOL     OW22714   6.616   4.593   1.740  0.2953 -0.1416 -0.3402
 7272SOL    HW122715   6.670   4.530   1.796  0.2081 -0.0812 -0.1870
 7272SOL    HW222716   6.529   4.611   1.786  0.1207 -0.2854 -0.6146
 7273SOL     OW22717   5.244   2.994   6.852 -0.7360  0.4099  0.4055
 7273SOL    HW122718   5.322   2.956   6.901  0.9077 -0.3264 -2.5496
 7273SOL    HW222719   5.172   2.925   6.845 -1.5368  0.9180  2.6712
 7274SOL     OW22720   3.706   1.596   2.767  0.4928 -0.1208 -0.5855
 7274SOL    HW122721   3.763   1.623   2.845 -1.4557  0.1388  0.8154
 7274SOL    HW222722   3.685   1.675   2.711 -0.1685  0.1820  0.0721
 7275SOL     OW22723   1.127   0.908   4.678  0.2116  0.5446  0.1216
 7275SOL    HW122724   1.182   0.910   4.594  0.6597  3.4330  0.3627
 7275SOL    HW222725   1.133   0.998   4.723 -1.5512 -0.3290  2.2541
 7276SOL     OW22726   6.064   5.770   3.869 -0.1127  0.6164  0.4110
 7276SOL    HW122727   6.094   5.842   3.807  3.8744 -1.2395 -0.1258
 7276SOL    HW222728   6.078   5.800   3.964  1.4745  0.6444  0.1937
 7277SOL     OW22729   0.781   4.610   2.450 -0.0019 -0.0218 -0.0267
 7277SOL    HW122730   0.867   4.572   2.486 -0.4410 -1.4820 -0.4583
 7277SOL    HW222731   0.780   4.709   2.466  2.9533  0.5485 -2.3334
 7278SOL     OW22732   5.358   4.775   6.605 -0.3743 -0.6815  0.1451
 7278SOL    HW122733   5.444   4.825   6.592  0.1773 -1.2597  1.4299
 7278SOL    HW222734   5.296   4.830   6.662 -0.3913 -0.7981  0.2377
 7279SOL     OW22735   3.729   4.213   6.642  0.2286 -0.0640 -0.7334
 7279SOL    HW122736   3.799   4.278   6.613 -0.1074 -0.6795 -3.1161
 7279SOL    HW222737   3.771   4.125   6.663  0.2994 -0.0951 -1.0038
 7280SOL     OW22738   2.994   6.758   3.841 -0.3762 -0.2961  0.1063
 7280SOL    HW122739   3.026   6.753   3.746 -1.7838  0.3752 -0.4233
 7280SOL    HW222740   2.999   6.667   3.882 -0.6984 -0.7963 -0.9287
 7281SOL     OW22741   1.094   5.953   0.500  0.3899  0.5072 -0.7366
 7281SOL    HW122742   1.138   5.951   0.590 -1.4530  1.1366  0.2255
 7281SOL    HW222743   1.010   6.007   0.505 -0.4647 -0.5749 -2.5085
 7282SOL     OW22744   2.926   2.010   0.763 -0.5647  0.2779 -1.4366
 7282SOL    HW122745   2.904   2.001   0.860 -1.8454 -0.9640 -1.7966
 7282SOL    HW222746   3.005   2.070   0.752 -0.8136  0.9969  0.3137
 7283SOL     OW22747   1.444   0.773   6.637 -0.0484 -0.0995  0.4057
 7283SOL    HW122748   1.375   0.781   6.565  0.4616 -0.8862 -0.1786
 7283SOL    HW222749   1.403   0.733   6.718 -1.0316  2.2330  1.1473
 7284SOL     OW22750   4.589   4.124   6.114  0.1438  0.3771  0.3894
 7284SOL    HW122751   4.665   4.159   6.169 -0.2932  1.2398  0.4505
 7284SOL    HW222752   4.550   4.198   6.059  0.2576 -0.3664 -0.7267
 7285SOL     OW22753   3.186   3.745   6.945  0.2039  0.7134  0.2038
 7285SOL    HW122754   3.214   3.841   6.947 -1.5677  1.2633  0.5489
 7285SOL    HW222755   3.095   3.738   6.905  1.1225 -1.0788 -1.7236
 7286SOL     OW22756   0.004   6.203   0.512  0.3701 -0.5319  0.1136
 7286SOL    HW122757   0.028   6.213   0.609 -0.6806 -1.9567  0.5494
 7286SOL    HW222758  -0.032   6.112   0.496 -2.0563  0.5542 -1.0689
 7287SOL     OW22759   2.201   0.498   3.886 -0.5738 -0.0215  0.6721
 7287SOL    HW122760   2.236   0.519   3.977 -1.2941  1.8378  0.5550
 7287SOL    HW222761   2.273   0.510   3.818 -0.7133  1.2378  0.7235
 7288SOL     OW22762   0.649   0.212   0.974  0.2676 -0.1376  0.2415
 7288SOL    HW122763   0.626   0.300   0.933 -0.2062 -0.2106  0.3416
 7288SOL    HW222764   0.748   0.206   0.987  0.1522  1.2659  2.2220
 7289SOL     OW22765   1.344   6.431   6.457 -0.0641 -0.1224 -0.0267
 7289SOL    HW122766   1.353   6.442   6.358  0.4801 -1.1647 -0.1054
 7289SOL    HW222767   1.415   6.482   6.504  0.1645 -0.2660 -0.2159
 7290SOL     OW22768   5.518   4.051   0.954  0.5280 -0.1140 -0.5726
 7290SOL    HW122769   5.488   4.027   0.862 -0.7791 -0.0645 -0.1704
 7290SOL    HW222770   5.439   4.069   1.012  1.3609  2.8945 -0.2202
 7291SOL     OW22771   0.776   0.468   2.643 -0.0044  0.4201  0.1242
 7291SOL    HW122772   0.870   0.434   2.639 -0.1316 -0.2151  1.8366
 7291SOL    HW222773   0.777   0.568   2.638  0.7498  0.4055 -0.1365
 7292SOL     OW22774   3.283   6.096   1.252  0.1308 -0.0318  0.2916
 7292SOL    HW122775   3.315   6.001   1.256 -1.4752 -0.5548  1.9696
 7292SOL    HW222776   3.212   6.105   1.183  3.1025  0.9893 -2.9573
 7293SOL     OW22777   6.135   6.771   6.322 -0.0585  0.5247 -0.1521
 7293SOL    HW122778   6.110   6.697   6.384 -0.9926  1.6101  0.8099
 7293SOL    HW222779   6.195   6.836   6.369  0.0905  0.8019 -0.7150
 7294SOL     OW22780   6.648   5.183   0.748  0.2842  0.3203 -0.6602
 7294SOL    HW122781   6.638   5.238   0.831  0.2656 -0.5888 -0.0427
 7294SOL    HW222782   6.561   5.138   0.728  0.6596 -0.5604 -0.3659
 7295SOL     OW22783   5.701   3.412   4.017  0.1482  0.0835  0.6873
 7295SOL    HW122784   5.617   3.397   4.069  0.4327 -1.5950  0.6901
 7295SOL    HW222785   5.679   3.456   3.930 -0.6638  0.1403  0.9124
 7296SOL     OW22786   1.855   1.536   6.138  0.3418  0.3828  0.8223
 7296SOL    HW122787   1.874   1.634   6.148  1.9300 -0.0121  2.0660
 7296SOL    HW222788   1.866   1.510   6.042  0.8316  1.2615  0.6244
 7297SOL     OW22789   3.150   6.016   2.443  0.3624 -0.2454 -0.4299
 7297SOL    HW122790   3.137   5.957   2.522 -1.0763  0.2179 -0.2965
 7297SOL    HW222791   3.064   6.064   2.422  0.9844  0.3799 -1.6687
 7298SOL     OW22792   2.782   1.961   5.591  0.4566  0.5066 -0.1714
 7298SOL    HW122793   2.831   1.896   5.649  0.2654 -0.3008 -0.8929
 7298SOL    HW222794   2.684   1.951   5.605  0.4331  0.7956 -0.1234
 7299SOL     OW22795   0.428   1.762   1.408  0.0593 -0.2361 -0.1753
 7299SOL    HW122796   0.341   1.810   1.404 -0.9450 -2.0138 -0.9177
 7299SOL    HW222797   0.459   1.743   1.315  0.7222 -0.5127  0.0983
 7300SOL     OW22798   5.167   3.762   6.313  0.4413  0.1267 -0.3297
 7300SOL    HW122799   5.133   3.703   6.240  0.4022 -0.6756  0.3209
 7300SOL    HW222800   5.248   3.812   6.280  1.4770 -1.5081 -0.4064
 7301SOL     OW22801   4.870   0.649   5.905  0.3024 -1.0662 -0.0731
 7301SOL    HW122802   4.897   0.588   5.979 -0.4907 -2.0141 -0.5502
 7301SOL    HW222803   4.770   0.648   5.896  0.4603 -2.2825 -2.2308
 7302SOL     OW22804   4.109   3.188   1.541 -0.7738 -0.1078 -0.5277
 7302SOL    HW122805   4.015   3.201   1.511 -1.0143 -0.8485 -0.1158
 7302SOL    HW222806   4.113   3.189   1.641 -0.1439  1.2215 -0.5475
 7303SOL     OW22807   1.172   0.751   2.579  0.1203 -0.0905 -0.5905
 7303SOL    HW122808   1.169   0.681   2.651 -2.2713  0.1817 -0.3363
 7303SOL    HW222809   1.132   0.714   2.495  1.2592  0.1720 -1.2807
 7304SOL     OW22810   3.043   4.488   5.618  0.0256 -0.0893  0.3787
 7304SOL    HW122811   2.967   4.500   5.683 -0.1380  1.9163 -0.1318
 7304SOL    HW222812   3.121   4.543   5.648  0.5196 -0.4290 -0.2689
 7305SOL     OW22813   2.209   5.883   2.416  0.3331  0.1620  0.3496
 7305SOL    HW122814   2.229   5.882   2.514 -1.2560  0.7193  0.7109
 7305SOL    HW222815   2.135   5.820   2.396  1.1620 -0.5292 -0.6444
 7306SOL     OW22816   2.180   5.625   3.777  0.0167  0.1130 -0.0300
 7306SOL    HW122817   2.121   5.643   3.698 -0.6657  1.5376  0.7893
 7306SOL    HW222818   2.270   5.666   3.761  0.5645 -1.3136 -0.8939
 7307SOL     OW22819   5.106   0.701   2.965  0.4828 -0.2731  0.2027
 7307SOL    HW122820   5.128   0.789   3.007  0.8402 -0.1278 -0.2737
 7307SOL    HW222821   5.151   0.628   3.017 -0.1856 -0.2191  0.8655
 7308SOL     OW22822   1.273   1.240   2.410 -0.3826 -0.3985 -0.0942
 7308SOL    HW122823   1.293   1.151   2.367  1.8599  0.0764 -0.1583
 7308SOL    HW222824   1.190   1.232   2.466 -1.7311 -1.8260 -2.1122
 7309SOL     OW22825   2.375   0.557   0.903 -0.6672 -0.1021 -0.0678
 7309SOL    HW122826   2.463   0.539   0.859 -0.2485 -0.5881  0.9486
 7309SOL    HW222827   2.318   0.475   0.899 -0.1026 -0.6057  1.4617
 7310SOL     OW22828   0.969   0.966   2.425  0.1989 -0.6279 -0.1174
 7310SOL    HW122829   1.036   1.022   2.377 -1.1440  0.2154 -1.0893
 7310SOL    HW222830   0.985   0.870   2.405 -0.0322 -0.3216 -1.9032
 7311SOL     OW22831   6.813   5.921   4.923 -0.0862  0.0986 -0.5682
 7311SOL    HW122832   6.885   5.934   4.991  0.2061 -0.2396 -0.8107
 7311SOL    HW222833   6.770   5.832   4.937 -1.7416  1.0498  0.7697
 7312SOL     OW22834   4.807   1.987   3.755 -0.2702 -0.0847  0.1980
 7312SOL    HW122835   4.824   1.894   3.724  0.1340  0.2903 -0.7480
 7312SOL    HW222836   4.811   1.990   3.855  0.1135 -1.0054  0.2207
 7313SOL     OW22837   0.871   3.297   6.151  0.1424 -0.3887 -0.1850
 7313SOL    HW122838   0.909   3.354   6.078  1.4500 -0.1770  0.6298
 7313SOL    HW222839   0.792   3.342   6.191  1.1350  0.8704  0.4228
 7314SOL     OW22840   6.964   1.478   1.700 -0.6315  0.2235  0.1815
 7314SOL    HW122841   6.890   1.469   1.766 -3.0236 -0.3045 -2.3797
 7314SOL    HW222842   7.026   1.400   1.708 -1.2498 -0.1730  1.3235
 7315SOL     OW22843   1.010   4.432   2.582  0.3848  0.4229  0.0991
 7315SOL    HW122844   1.045   4.521   2.612  2.2451 -0.4352  0.5913
 7315SOL    HW222845   1.016   4.427   2.482  3.1518 -0.2064  0.2108
 7316SOL     OW22846   1.551   1.902   3.623 -0.1684  0.2315  0.2119
 7316SOL    HW122847   1.484   1.935   3.556  0.6910 -0.9065 -1.2599
 7316SOL    HW222848   1.511   1.828   3.677  0.2092 -1.2481 -1.4519
 7317SOL     OW22849   0.041   3.381   6.707  0.1666  0.5348  0.3396
 7317SOL    HW122850   0.068   3.431   6.790  0.2925  0.8873  0.0880
 7317SOL    HW222851  -0.056   3.397   6.689 -0.0474 -0.1533  0.8398
 7318SOL     OW22852   1.270   5.578   3.538 -0.1553 -0.2775  0.7286
 7318SOL    HW122853   1.256   5.657   3.598  2.3433 -0.0240  1.0828
 7318SOL    HW222854   1.219   5.592   3.453 -1.6113  0.6027  1.6867
 7319SOL     OW22855   0.087   5.651   4.062 -0.0305 -0.3877 -0.6483
 7319SOL    HW122856   0.050   5.598   3.985 -0.3374  0.9330 -1.4402
 7319SOL    HW222857   0.028   5.640   4.142 -0.0489 -1.2885 -0.7815
 7320SOL     OW22858   3.147   5.269   5.600 -0.2818 -0.5284 -0.5390
 7320SOL    HW122859   3.205   5.339   5.558 -1.0152  0.2924 -0.2371
 7320SOL    HW222860   3.052   5.282   5.569 -0.8159 -0.0133  1.1773
 7321SOL     OW22861   4.950   5.635   3.441  0.2266  0.1911  0.2191
 7321SOL    HW122862   5.048   5.649   3.452  0.2591  1.4709 -1.2014
 7321SOL    HW222863   4.901   5.716   3.475 -0.3784 -0.5780  1.2305
 7322SOL     OW22864   1.777   3.238   1.002  0.2653  0.3201 -0.8853
 7322SOL    HW122865   1.859   3.282   1.041 -0.7386  1.3278  0.1706
 7322SOL    HW222866   1.804   3.177   0.928  2.0114  0.3668 -0.3347
 7323SOL     OW22867   5.808   3.020   1.979  0.0851 -0.5368  0.8789
 7323SOL    HW122868   5.741   2.972   2.035 -0.2127 -1.3804 -0.1846
 7323SOL    HW222869   5.821   3.112   2.016  1.2256 -1.6164  3.4000
 7324SOL     OW22870   6.849   1.159   4.980 -0.1777  0.0127 -0.1111
 7324SOL    HW122871   6.868   1.139   5.076 -1.3015 -0.1556  0.0868
 7324SOL    HW222872   6.935   1.171   4.931  0.4185  1.4836  1.1997
 7325SOL     OW22873   3.743   0.588   6.633 -0.3977  0.2767 -0.2434
 7325SOL    HW122874   3.839   0.591   6.658 -0.8216 -2.3487  2.2832
 7325SOL    HW222875   3.733   0.539   6.546  0.4787 -1.4381  0.5748
 7326SOL     OW22876   5.067   3.686   4.406 -0.1745 -0.1017  0.4315
 7326SOL    HW122877   5.084   3.632   4.324 -1.4476  1.5709 -1.0352
 7326SOL    HW222878   5.022   3.629   4.475 -0.6462 -1.1523 -0.6995
 7327SOL     OW22879   4.527   0.908   6.243 -0.5842  0.0462 -0.2272
 7327SOL    HW122880   4.482   0.981   6.296  0.5395  0.4272  0.2469
 7327SOL    HW222881   4.586   0.855   6.304  0.3928  0.2090 -1.0041
 7328SOL     OW22882   0.803   0.207   6.932 -0.1443 -0.0267  0.2488
 7328SOL    HW122883   0.710   0.175   6.950 -0.8641  1.2761 -0.9171
 7328SOL    HW222884   0.864   0.177   7.005 -1.4717 -0.9415  1.0101
 7329SOL     OW22885   4.502   4.754   1.459  0.3817 -0.5625  0.7919
 7329SOL    HW122886   4.543   4.664   1.477 -2.8056 -2.1246  0.9756
 7329SOL    HW222887   4.408   4.755   1.494  0.2825  2.8760  0.7182
 7330SOL     OW22888   1.008   6.387   3.007  0.0490 -0.2460 -0.1353
 7330SOL    HW122889   1.066   6.430   2.938 -0.1715  0.5259  0.1534
 7330SOL    HW222890   0.989   6.293   2.980 -1.7602  0.6281 -2.2374
 7331SOL     OW22891   1.720   0.003   2.015 -0.4381 -0.4163 -1.1400
 7331SOL    HW122892   1.692  -0.050   2.096 -0.5192  1.8314  0.3971
 7331SOL    HW222893   1.788  -0.048   1.964  1.1211 -1.1302  1.4551
 7332SOL     OW22894   0.445   2.728   1.004  0.3965 -0.0681 -0.2559
 7332SOL    HW122895   0.398   2.713   1.091  2.3909 -0.9398  0.7355
 7332SOL    HW222896   0.544   2.727   1.018  0.7905 -0.1237 -2.5317
 7333SOL     OW22897   0.913   3.888   2.865  0.5177  0.2278  0.0630
 7333SOL    HW122898   0.939   3.837   2.946  0.0180 -1.2260 -0.6504
 7333SOL    HW222899   0.826   3.936   2.882 -0.5266 -1.5067 -0.1333
 7334SOL     OW22900   4.017   4.635   0.340 -0.6125  0.3949  0.0957
 7334SOL    HW122901   3.941   4.575   0.365 -0.0308 -0.2999  0.2169
 7334SOL    HW222902   4.034   4.700   0.414 -1.8631  1.3779 -0.4218
 7335SOL     OW22903   6.365   2.235   6.531  0.6768 -0.2707  0.1141
 7335SOL    HW122904   6.339   2.284   6.614  1.0642  0.9838 -0.4864
 7335SOL    HW222905   6.457   2.197   6.541 -0.4422 -2.8945  1.4362
 7336SOL     OW22906   6.249   5.555   2.247 -0.6214  0.2982  0.0988
 7336SOL    HW122907   6.221   5.564   2.343 -1.1518  3.4175 -0.2321
 7336SOL    HW222908   6.334   5.606   2.232 -1.0042  0.5815 -1.2355
 7337SOL     OW22909   5.987   4.902   6.272  0.4616  0.3222  0.1859
 7337SOL    HW122910   6.049   4.855   6.210  0.2968 -0.8178  0.8606
 7337SOL    HW222911   6.019   4.891   6.366 -0.2164  0.5848  0.4553
 7338SOL     OW22912   6.400   5.822   3.460  0.0806 -0.3533  0.0633
 7338SOL    HW122913   6.419   5.750   3.393 -0.2587 -1.1780  0.8348
 7338SOL    HW222914   6.303   5.823   3.482 -0.0306  0.7684 -0.3950
 7339SOL     OW22915   5.227   2.168   3.289 -0.2883 -0.2920  0.0299
 7339SOL    HW122916   5.170   2.154   3.208 -1.0669 -1.8746  0.8036
 7339SOL    HW222917   5.181   2.232   3.351  1.2704  2.6212 -1.6103
 7340SOL     OW22918   5.813   0.668   5.499  0.3381 -0.3544  0.4310
 7340SOL    HW122919   5.900   0.717   5.513  0.8641 -0.9748 -0.6171
 7340SOL    HW222920   5.763   0.665   5.586  0.2364  2.1134  0.5355
 7341SOL     OW22921   0.550   4.738   5.307  0.1784 -0.0383  0.2077
 7341SOL    HW122922   0.457   4.773   5.291  0.1183 -0.0354  0.5434
 7341SOL    HW222923   0.556   4.702   5.400  0.1697 -1.1735 -0.2186
 7342SOL     OW22924   6.684   1.196   3.650  0.1814 -0.7739  0.7513
 7342SOL    HW122925   6.686   1.145   3.564  0.4991  0.2010  0.1673
 7342SOL    HW222926   6.598   1.247   3.656  0.6380  0.0437  0.4766
 7343SOL     OW22927   6.667   1.323   1.027 -0.5192  0.2452 -0.0362
 7343SOL    HW122928   6.720   1.266   1.090 -0.3298  1.5218  1.0126
 7343SOL    HW222929   6.723   1.345   0.947 -0.5918 -1.0024 -0.4416
 7344SOL     OW22930   6.199   3.690   5.674 -0.5923  0.2180 -0.2497
 7344SOL    HW122931   6.145   3.694   5.758  1.7184  2.8288  1.2939
 7344SOL    HW222932   6.254   3.606   5.674 -0.5588  0.2180  0.9219
 7345SOL     OW22933   3.004   3.259   3.427 -0.4930  0.1890 -0.2991
 7345SOL    HW122934   3.075   3.208   3.476  0.3962  0.1175 -1.6074
 7345SOL    HW222935   2.926   3.274   3.487  0.0854 -0.8981  0.7637
 7346SOL     OW22936   2.001   6.533   5.545  0.4803  0.1719  0.7673
 7346SOL    HW122937   2.098   6.516   5.528  0.6775 -0.6982  2.5926
 7346SOL    HW222938   1.977   6.502   5.637 -1.8430 -0.8946 -0.1284
 7347SOL     OW22939   5.440   3.534   3.555  0.1998 -0.3300  0.2553
 7347SOL    HW122940   5.520   3.494   3.598 -0.0866  1.3006  2.4799
 7347SOL    HW222941   5.466   3.580   3.470  1.1104 -2.0561 -0.4361
 7348SOL     OW22942   1.012   2.455   4.772  0.3501 -0.0975  0.5137
 7348SOL    HW122943   0.920   2.487   4.755  0.0147 -1.8227 -1.3108
 7348SOL    HW222944   1.078   2.520   4.734 -0.1644  0.3134  0.3118
 7349SOL     OW22945   0.446   5.736   1.347  0.1314  0.2095  0.3927
 7349SOL    HW122946   0.403   5.687   1.272 -1.0705  1.3373  0.3039
 7349SOL    HW222947   0.420   5.833   1.343 -1.4807  0.0237  3.2668
 7350SOL     OW22948   1.636   0.102   6.905  0.1341 -0.1368  0.9220
 7350SOL    HW122949   1.703   0.125   6.976 -0.3249 -3.1140  2.4672
 7350SOL    HW222950   1.684   0.064   6.826  0.3832 -1.6040  1.7450
 7351SOL     OW22951   5.331   1.558   4.609  0.1302  0.0552 -0.4424
 7351SOL    HW122952   5.415   1.507   4.626 -0.4350 -0.9193 -0.4423
 7351SOL    HW222953   5.268   1.501   4.556 -0.0336  1.2445 -1.5724
 7352SOL     OW22954   6.563   3.748   5.594  0.5726  0.1253  0.0580
 7352SOL    HW122955   6.621   3.758   5.674  0.1596 -0.0565  0.3843
 7352SOL    HW222956   6.549   3.651   5.574 -1.8666  0.0647  1.6665
 7353SOL     OW22957   5.815   2.020   2.232 -0.1301 -0.0355  0.4005
 7353SOL    HW122958   5.731   2.074   2.224 -0.7510 -1.1430 -1.0080
 7353SOL    HW222959   5.813   1.968   2.318  0.0709  1.4439  1.3421
 7354SOL     OW22960   6.495   2.515   2.726  0.4017 -0.3795  0.0046
 7354SOL    HW122961   6.432   2.439   2.740  0.9365 -1.0504 -1.1033
 7354SOL    HW222962   6.460   2.576   2.656 -0.4376  0.9011  1.4756
 7355SOL     OW22963   1.942   5.823   3.931  0.0952 -0.1661 -0.0376
 7355SOL    HW122964   1.878   5.774   3.990 -0.3308  0.7140  0.2494
 7355SOL    HW222965   2.033   5.824   3.972 -0.0533 -0.1189  0.2884
 7356SOL     OW22966   6.571   2.029   1.367  0.3532 -0.3804  0.0622
 7356SOL    HW122967   6.474   2.014   1.350  0.3861  1.1591 -2.0021
 7356SOL    HW222968   6.583   2.112   1.422  0.4959 -1.3519  1.5476
 7357SOL     OW22969   4.281   2.305   0.593 -0.2058 -0.0145  0.0578
 7357SOL    HW122970   4.186   2.275   0.601  0.2677 -1.3596  0.9881
 7357SOL    HW222971   4.311   2.299   0.498 -0.1658 -2.5550  0.1601
 7358SOL     OW22972   6.005   6.596   3.371 -0.2764  0.3941  0.8261
 7358SOL    HW122973   6.039   6.676   3.322  1.0159  0.2898  1.5085
 7358SOL    HW222974   6.042   6.512   3.329  0.1188  0.2664  1.4165
 7359SOL     OW22975   1.554   1.776   1.046 -0.5314  0.7599  0.3345
 7359SOL    HW122976   1.561   1.876   1.056 -1.5587  0.9212 -0.3073
 7359SOL    HW222977   1.542   1.735   1.136  1.5244  1.0404  0.7687
 7360SOL     OW22978   6.339   1.399   5.593  0.2613  0.1252 -0.5680
 7360SOL    HW122979   6.410   1.460   5.628 -0.3442 -0.4369  1.8122
 7360SOL    HW222980   6.280   1.450   5.530  2.4403  0.7057 -2.2971
 7361SOL     OW22981   1.409   1.998   2.394  0.5030  0.4306 -0.8078
 7361SOL    HW122982   1.503   1.971   2.370  0.0888 -2.6784  0.6867
 7361SOL    HW222983   1.344   1.936   2.350 -0.6737  0.3763  0.9062
 7362SOL     OW22984   4.985   4.818   4.493  0.1986 -0.6243 -0.2316
 7362SOL    HW122985   5.037   4.884   4.546  0.1798 -0.7923 -0.0017
 7362SOL    HW222986   4.893   4.808   4.532 -0.2242  0.1447 -1.0179
 7363SOL     OW22987   2.420   6.604   4.358  0.3121 -0.4406  0.1868
 7363SOL    HW122988   2.379   6.693   4.340 -0.5840 -0.9660 -0.4518
 7363SOL    HW222989   2.405   6.543   4.280 -0.6261 -1.6841  1.2754
 7364SOL     OW22990   5.764   2.638   3.961 -0.0621 -0.4005  0.0512
 7364SOL    HW122991   5.770   2.553   4.014 -1.5977 -1.1168 -0.8856
 7364SOL    HW222992   5.857   2.671   3.942  0.5484 -1.5343  0.9166
 7365SOL     OW22993   4.595   0.559   5.854  0.3174 -0.1748  0.6675
 7365SOL    HW122994   4.554   0.475   5.817 -1.1070  0.3071  1.0899
 7365SOL    HW222995   4.525   0.611   5.902  1.2299  1.1919  0.5464
 7366SOL     OW22996   0.333   1.286   4.862  0.3612  0.2136 -0.0329
 7366SOL    HW122997   0.417   1.233   4.857  0.8621  0.9414  0.4285
 7366SOL    HW222998   0.353   1.376   4.901 -0.7713  0.0832  0.9137
 7367SOL     OW22999   0.670   4.507   1.188  0.0930  0.4527  0.3883
 7367SOL    HW123000   0.619   4.516   1.102 -0.1723 -0.3395  0.4578
 7367SOL    HW223001   0.688   4.598   1.225 -3.6182  0.8368  1.7229
 7368SOL     OW23002   2.046   2.472   0.885 -0.3409 -0.2326  0.4552
 7368SOL    HW123003   2.126   2.460   0.943 -1.0304 -0.7552  1.3371
 7368SOL    HW223004   2.010   2.382   0.860 -0.6765 -0.0042  0.1197
 7369SOL     OW23005   2.984   4.027   0.484 -0.1950 -0.4308  0.1007
 7369SOL    HW123006   3.055   3.957   0.489  0.5152  0.2195 -0.5598
 7369SOL    HW223007   2.949   4.032   0.390 -1.4293 -1.0287  0.5031
 7370SOL     OW23008   3.812   2.121   5.130  0.1856  0.0387 -0.2606
 7370SOL    HW123009   3.714   2.139   5.125  0.1195  0.4495  1.7133
 7370SOL    HW223010   3.840   2.111   5.226  2.3204  1.4944 -0.6326
 7371SOL     OW23011   6.481   4.210   3.634 -0.2490  0.0409  0.2589
 7371SOL    HW123012   6.528   4.134   3.679 -0.2406 -0.1211 -0.0257
 7371SOL    HW223013   6.393   4.180   3.599  0.6565 -0.4123 -1.7543
 7372SOL     OW23014   0.861   4.314   2.781  0.5715  0.9314 -0.2365
 7372SOL    HW123015   0.912   4.267   2.853  0.3544  1.6148  0.3782
 7372SOL    HW223016   0.923   4.369   2.725  0.6481  0.9522 -0.1303
 7373SOL     OW23017   4.293   1.134   4.267 -0.1040 -0.0520  0.2032
 7373SOL    HW123018   4.310   1.181   4.354 -1.6308  1.0130 -0.0335
 7373SOL    HW223019   4.334   1.043   4.270 -0.1934 -0.0693  2.0636
 7374SOL     OW23020   2.810   2.123   1.769  0.1518 -0.2729 -0.1301
 7374SOL    HW123021   2.848   2.031   1.775 -0.0637 -0.3188  0.5775
 7374SOL    HW223022   2.857   2.184   1.833 -0.7970 -0.2814  0.5958
 7375SOL     OW23023   0.968   0.536   2.996 -0.1526  0.0427  0.2246
 7375SOL    HW123024   0.890   0.599   2.995  0.7398  1.1914  0.9699
 7375SOL    HW223025   0.956   0.469   3.069 -0.9515 -0.5016 -0.3736
 7376SOL     OW23026   6.919   3.787   0.288 -0.2255 -0.2956  0.1660
 7376SOL    HW123027   6.871   3.831   0.212 -0.1668  0.3184  0.4726
 7376SOL    HW223028   6.981   3.853   0.331  2.2878 -1.5467 -1.3403
 7377SOL     OW23029   1.416   0.229   1.516  0.1557  0.2759  0.2178
 7377SOL    HW123030   1.340   0.175   1.551  0.3149 -0.0221  0.1071
 7377SOL    HW223031   1.497   0.172   1.509  0.7082  0.8855  1.4685
 7378SOL     OW23032   0.842   6.730   3.345 -0.0870  0.2931  0.0101
 7378SOL    HW123033   0.915   6.698   3.285  0.7863  2.4611 -0.1992
 7378SOL    HW223034   0.761   6.753   3.291 -0.3542 -0.5090  0.0488
 7379SOL     OW23035   0.823   6.275   5.673 -0.4675 -0.2038 -0.4768
 7379SOL    HW123036   0.866   6.189   5.702  0.9978  0.2199 -1.2493
 7379SOL    HW223037   0.745   6.255   5.614  0.4219 -1.0289 -1.4274
 7380SOL     OW23038   2.471   0.469   5.205  0.0456 -0.2740 -0.0168
 7380SOL    HW123039   2.419   0.418   5.274  0.2518 -0.0635  0.3005
 7380SOL    HW223040   2.540   0.410   5.164  1.8272  0.2934  1.9560
 7381SOL     OW23041   6.930   2.255   2.328  0.7191 -1.0498 -0.2355
 7381SOL    HW123042   6.896   2.294   2.242 -0.6348 -1.2459  0.1916
 7381SOL    HW223043   7.016   2.299   2.352 -0.2027  0.9180 -0.3343
 7382SOL     OW23044   1.720   2.951   4.049 -0.1498  0.0587  0.1539
 7382SOL    HW123045   1.805   2.936   4.100 -1.7345  1.7414  3.6380
 7382SOL    HW223046   1.713   3.047   4.023 -1.1517  0.0276  0.2553
 7383SOL     OW23047   6.659   1.263   0.175 -0.3640  0.4655 -0.0410
 7383SOL    HW123048   6.599   1.269   0.255 -1.5924  1.0238 -0.9763
 7383SOL    HW223049   6.633   1.332   0.108  1.3823  0.7675 -0.4745
 7384SOL     OW23050   6.779   4.102   0.536  0.0752 -0.0412  0.3501
 7384SOL    HW123051   6.741   4.087   0.445  0.1183 -1.3999  0.5291
 7384SOL    HW223052   6.876   4.078   0.536  0.1918  0.4084  0.6495
 7385SOL     OW23053   1.758   3.356   1.848  0.8313 -0.3548 -0.2446
 7385SOL    HW123054   1.705   3.320   1.772  0.4244  0.2620 -0.2613
 7385SOL    HW223055   1.760   3.456   1.842  0.6764 -0.2939  0.6302
 7386SOL     OW23056   5.664   5.543   4.255 -0.2902 -0.2094 -0.3026
 7386SOL    HW123057   5.669   5.484   4.174  1.4635  0.8266 -1.0089
 7386SOL    HW223058   5.652   5.486   4.336 -0.9840 -1.3585 -1.1701
 7387SOL     OW23059   4.702   4.113   6.732  1.0485 -0.0937 -0.5388
 7387SOL    HW123060   4.787   4.092   6.780  2.0836  0.2356 -2.1348
 7387SOL    HW223061   4.699   4.211   6.711  0.2122 -0.0795 -0.3835
 7388SOL     OW23062   0.432   5.743   2.208 -0.2706  0.1366 -0.0778
 7388SOL    HW123063   0.520   5.756   2.253 -0.1776 -1.1213  0.1412
 7388SOL    HW223064   0.447   5.727   2.110 -0.3823  1.5192 -0.3406
 7389SOL     OW23065   6.934   5.448   2.514 -0.4072 -0.2941  0.2846
 7389SOL    HW123066   6.856   5.408   2.466  0.0381 -1.3162  0.3869
 7389SOL    HW223067   7.018   5.430   2.462 -0.0086 -0.8063  1.0943
 7390SOL     OW23068   3.438   3.398   4.621  0.2427  0.5083 -0.1157
 7390SOL    HW123069   3.535   3.412   4.639  0.2467  1.4100 -0.7550
 7390SOL    HW223070   3.406   3.319   4.672  2.0354 -1.7243 -2.1840
 7391SOL     OW23071   5.154   0.194   5.875  0.9758  0.2269 -0.2250
 7391SOL    HW123072   5.064   0.155   5.892  1.2793 -0.2810  0.2673
 7391SOL    HW223073   5.223   0.143   5.926  1.4248  1.2358  0.2213
 7392SOL     OW23074   1.129   5.550   2.353  0.5730  0.1710  0.0638
 7392SOL    HW123075   1.118   5.592   2.263 -0.4246  0.2581  0.2193
 7392SOL    HW223076   1.127   5.451   2.343 -2.1484  0.1490  0.2536
 7393SOL     OW23077   5.101   6.811   6.443  0.0008 -0.1042  0.1705
 7393SOL    HW123078   5.188   6.852   6.470 -0.3266 -0.9446  2.8033
 7393SOL    HW223079   5.054   6.872   6.380  2.5065  0.2983 -1.4771
 7394SOL     OW23080   0.978   0.684   2.379 -0.3618  0.6938  0.3372
 7394SOL    HW123081   1.015   0.593   2.398  1.6087  0.7118 -2.6948
 7394SOL    HW223082   0.894   0.675   2.326 -0.9340  0.6664  1.2342
 7395SOL     OW23083   2.182   0.516   1.736  0.4338 -0.1851  0.7545
 7395SOL    HW123084   2.172   0.599   1.681  0.2629 -0.3136  0.5906
 7395SOL    HW223085   2.230   0.446   1.683 -2.3066 -1.3562 -0.3707
 7396SOL     OW23086   1.684   3.986   0.272  0.1901 -0.4141 -0.1209
 7396SOL    HW123087   1.670   3.940   0.184  1.4999 -1.2368  0.0730
 7396SOL    HW223088   1.611   3.959   0.335 -0.6746  0.0583 -0.8832
 7397SOL     OW23089   2.139   4.467   6.046  0.4422  0.3427  0.7022
 7397SOL    HW123090   2.163   4.556   6.086  0.6387  0.6924 -0.1680
 7397SOL    HW223091   2.205   4.444   5.974 -0.2729  0.0453  0.1236
 7398SOL     OW23092   3.242   3.308   1.891 -0.3992 -0.5413 -0.2356
 7398SOL    HW123093   3.299   3.367   1.948 -2.3999  1.5876 -0.2915
 7398SOL    HW223094   3.198   3.238   1.948 -1.0292  0.4825  0.5607
 7399SOL     OW23095   1.123   3.503   6.679 -0.0151  0.2481  0.2603
 7399SOL    HW123096   1.165   3.496   6.589 -0.8661  1.0818 -0.2284
 7399SOL    HW223097   1.158   3.432   6.739  1.1528  0.1756 -0.4924
 7400SOL     OW23098   5.696   6.122   2.128  0.6323  0.3895  0.2197
 7400SOL    HW123099   5.615   6.155   2.175  0.5749  1.1385 -0.3827
 7400SOL    HW223100   5.764   6.092   2.195 -0.5173 -1.2184  0.7083
 7401SOL     OW23101   6.611   2.981   1.404 -0.1697  0.1607  0.5240
 7401SOL    HW123102   6.619   2.979   1.504 -0.3327 -0.8311  0.5308
 7401SOL    HW223103   6.520   3.012   1.379 -0.4134 -0.3890  0.7082
 7402SOL     OW23104   3.123   1.619   0.566  0.2811  0.0055  0.2756
 7402SOL    HW123105   3.114   1.541   0.504  3.4082  1.1905 -1.9410
 7402SOL    HW223106   3.036   1.669   0.569 -2.0439 -3.6910  2.2647
 7403SOL     OW23107   0.565   2.126   5.222 -0.5580 -0.3557  0.0417
 7403SOL    HW123108   0.555   2.090   5.315  0.2940 -0.3034  0.1570
 7403SOL    HW223109   0.631   2.070   5.172 -0.9167 -0.3041 -0.4981
 7404SOL     OW23110   5.240   1.695   5.957  0.0712 -0.4535  0.3714
 7404SOL    HW123111   5.163   1.716   5.897 -0.9809 -0.2731  1.7448
 7404SOL    HW223112   5.258   1.772   6.018  0.5845 -0.9294  0.8443
 7405SOL     OW23113   4.776   0.357   1.161 -0.4711 -0.1111 -0.3191
 7405SOL    HW123114   4.837   0.436   1.157 -0.6221 -0.0090 -0.6768
 7405SOL    HW223115   4.744   0.335   1.069 -0.2881 -0.7029 -0.2498
 7406SOL     OW23116   0.419   1.474   2.662  0.4680  0.2571  0.6880
 7406SOL    HW123117   0.328   1.504   2.633  0.8634  2.3524  1.4214
 7406SOL    HW223118   0.421   1.464   2.761  1.2699  1.2425  0.7938
 7407SOL     OW23119   3.715   3.777   4.373  0.0654 -0.1366  0.0379
 7407SOL    HW123120   3.723   3.678   4.383  0.5255 -0.2750 -1.4991
 7407SOL    HW223121   3.618   3.803   4.369 -0.0633 -0.4636  0.8175
 7408SOL     OW23122   0.307   5.481   0.874 -0.2633 -0.5723  0.0657
 7408SOL    HW123123   0.250   5.401   0.859 -0.9074 -0.3260  1.0797
 7408SOL    HW223124   0.403   5.454   0.872 -0.4601 -1.2860 -0.0877
 7409SOL     OW23125   1.876   0.085   1.386  0.5693 -0.8099  0.0988
 7409SOL    HW123126   1.939   0.146   1.436  0.8078  0.2663 -1.4282
 7409SOL    HW223127   1.867   0.118   1.292 -3.1102 -0.3004  0.5046
 7410SOL     OW23128   4.819   6.842   2.760 -0.0164  0.1382 -0.2014
 7410SOL    HW123129   4.785   6.763   2.708  0.0788  0.1502 -0.2831
 7410SOL    HW223130   4.765   6.923   2.737  0.5451  0.3212 -0.8988
 7411SOL     OW23131   6.646   4.694   4.500  0.0385 -0.4031 -0.0015
 7411SOL    HW123132   6.712   4.630   4.461  0.9654 -2.1574  3.9398
 7411SOL    HW223133   6.572   4.642   4.543 -0.0143  1.2142  1.9712
 7412SOL     OW23134   5.892   1.995   5.098 -0.2773  0.3802 -0.8385
 7412SOL    HW123135   5.915   2.080   5.051  0.8125 -0.7893 -2.5420
 7412SOL    HW223136   5.916   2.002   5.195  0.5259  1.7306 -1.1140
 7413SOL     OW23137   4.325   0.605   6.365 -0.9936 -0.8854  0.2794
 7413SOL    HW123138   4.336   0.533   6.433 -0.5783 -0.0903  1.0736
 7413SOL    HW223139   4.354   0.693   6.404 -2.0276 -0.1875 -0.4740
 7414SOL     OW23140   0.595   1.531   5.862 -0.2986  0.0078  0.8826
 7414SOL    HW123141   0.695   1.527   5.858 -0.2747  0.8156  0.4686
 7414SOL    HW223142   0.566   1.543   5.957 -0.0024 -0.1191  0.9897
 7415SOL     OW23143   4.727   4.329   6.489 -0.1567 -0.1298 -0.2795
 7415SOL    HW123144   4.702   4.406   6.547  3.8080  0.6908  0.6101
 7415SOL    HW223145   4.752   4.362   6.398 -0.3442 -0.6277 -0.5151
 7416SOL     OW23146   4.799   1.057   6.440 -0.0629 -0.8565 -0.0685
 7416SOL    HW123147   4.818   1.003   6.358 -3.1326  0.2272 -1.6549
 7416SOL    HW223148   4.708   1.097   6.433  1.1247  2.6683  2.0475
 7417SOL     OW23149   1.095   2.946   5.987 -0.1239 -0.0541  0.0307
 7417SOL    HW123150   1.109   2.905   6.077  0.1685 -2.6897 -1.1270
 7417SOL    HW223151   1.007   2.994   5.985 -0.1754 -0.0429  1.6635
 7418SOL     OW23152   4.974   5.805   6.867 -0.2228 -0.4151  0.1841
 7418SOL    HW123153   4.919   5.848   6.796 -0.0220 -0.5254 -0.0393
 7418SOL    HW223154   5.042   5.745   6.825 -1.7964 -2.5409  0.5510
 7419SOL     OW23155   4.409   1.407   4.761  0.4949 -0.6366 -0.5010
 7419SOL    HW123156   4.396   1.506   4.758  1.6633 -0.4872 -2.4285
 7419SOL    HW223157   4.474   1.384   4.833 -1.3572 -0.2685  1.3851
 7420SOL     OW23158   3.527   1.293   7.011  0.1609 -0.3178 -0.2666
 7420SOL    HW123159   3.435   1.330   7.025  0.6072  0.1115  2.0487
 7420SOL    HW223160   3.537   1.209   7.065  1.0366 -0.5245 -0.7330
 7421SOL     OW23161   1.161   0.466   2.382 -0.2245  0.2095 -0.5407
 7421SOL    HW123162   1.121   0.391   2.435 -0.7377  0.4654 -0.5639
 7421SOL    HW223163   1.260   0.464   2.392 -0.3498  0.7326  1.0857
 7422SOL     OW23164   4.872   3.570   3.893  0.1489  0.2519  0.5934
 7422SOL    HW123165   4.860   3.470   3.889  1.4720  0.0414  1.3144
 7422SOL    HW223166   4.901   3.596   3.985  2.1441  1.0104 -0.2044
 7423SOL     OW23167   4.055   2.028   5.076  0.1136 -0.5206  0.0437
 7423SOL    HW123168   3.975   2.086   5.092 -1.5850 -2.5340 -0.7415
 7423SOL    HW223169   4.072   1.972   5.157  2.5883  1.8343  1.3431
 7424SOL     OW23170   0.257   2.899   2.372  0.2513 -0.3872  0.3389
 7424SOL    HW123171   0.320   2.912   2.295  2.6646  0.1262  2.2868
 7424SOL    HW223172   0.172   2.948   2.354  1.0926  0.4816 -1.5856
 7425SOL     OW23173   4.508   2.924   6.009  0.1098 -0.3413 -0.2059
 7425SOL    HW123174   4.530   2.924   6.106 -0.2252  1.7578 -0.0904
 7425SOL    HW223175   4.589   2.949   5.956 -0.7878  3.6815 -0.0255
 7426SOL     OW23176   3.446   6.943   5.856 -0.4901 -0.0770 -0.7856
 7426SOL    HW123177   3.438   6.881   5.779 -0.5922 -0.8054 -0.2028
 7426SOL    HW223178   3.539   6.937   5.894 -0.9462 -1.0749  0.2403
 7427SOL     OW23179   6.828   0.169   0.032  0.5450 -0.6615 -0.1595
 7427SOL    HW123180   6.774   0.119   0.100  0.8438  1.3814  1.7121
 7427SOL    HW223181   6.776   0.174  -0.054 -1.5748 -0.1884  1.0617
 7428SOL     OW23182   5.317   3.698   6.613  0.6465 -0.0392  0.2948
 7428SOL    HW123183   5.317   3.600   6.632 -3.0748 -0.8868 -2.8868
 7428SOL    HW223184   5.250   3.743   6.673 -0.7228 -0.2811 -0.9823
 7429SOL     OW23185   4.998   1.980   0.577  0.0765  0.2973 -0.0315
 7429SOL    HW123186   5.087   2.003   0.614  0.2382  1.3949 -1.0353
 7429SOL    HW223187   5.003   1.978   0.477 -0.7879 -0.6605 -0.0723
 7430SOL     OW23188   6.175   1.422   5.985  0.1993 -0.2212 -0.1992
 7430SOL    HW123189   6.241   1.490   6.020  0.2482 -0.1103 -0.5093
 7430SOL    HW223190   6.083   1.462   5.988  0.3173  0.1242 -1.0654
 7431SOL     OW23191   4.001   5.911   0.385  0.7150  0.3964 -0.0552
 7431SOL    HW123192   3.989   5.940   0.480  0.4311  0.8977 -0.2408
 7431SOL    HW223193   3.920   5.863   0.353  0.4632  0.9821 -0.3097
 7432SOL     OW23194   0.742   3.639   6.467  0.4144  0.1860 -0.0078
 7432SOL    HW123195   0.753   3.595   6.557  1.6048  0.4081 -0.0253
 7432SOL    HW223196   0.713   3.733   6.480 -1.6736 -0.4175  0.0462
 7433SOL     OW23197   5.142   3.030   5.935 -0.1439 -0.5705  1.2683
 7433SOL    HW123198   5.124   3.114   5.985  0.3336  0.1177  0.3101
 7433SOL    HW223199   5.055   2.988   5.909 -0.3982  0.3250  0.6253
 7434SOL     OW23200   3.029   6.916   6.406 -0.1749  0.0775  0.4213
 7434SOL    HW123201   3.104   6.922   6.340 -0.5436 -2.4600 -0.3300
 7434SOL    HW223202   3.065   6.934   6.498  1.3781 -0.9255  0.0591
 7435SOL     OW23203   4.225   1.640   1.619  0.0045  0.2158 -0.5637
 7435SOL    HW123204   4.310   1.681   1.587  0.0262 -0.4416 -1.3779
 7435SOL    HW223205   4.214   1.657   1.717 -0.6605  3.3833 -1.0725
 7436SOL     OW23206   5.575   1.524   2.896 -0.0383  0.0265  0.4712
 7436SOL    HW123207   5.561   1.466   2.816  0.0055  0.1372  0.3838
 7436SOL    HW223208   5.659   1.497   2.942 -1.6999 -2.3219  2.4144
 7437SOL     OW23209   3.844   3.783   0.049 -0.6677  0.5615  0.6015
 7437SOL    HW123210   3.875   3.799   0.143 -2.2529 -0.6052  1.3667
 7437SOL    HW223211   3.900   3.713   0.006 -1.1720 -0.3348  1.3833
 7438SOL     OW23212   2.658   5.937   6.478 -0.3469 -0.2511 -0.0929
 7438SOL    HW123213   2.572   5.938   6.427 -0.9701 -1.5621  0.8670
 7438SOL    HW223214   2.649   5.993   6.560 -0.5057 -0.8335  0.3005
 7439SOL     OW23215   6.841   4.030   2.555 -0.2186  0.0594 -0.4898
 7439SOL    HW123216   6.924   4.015   2.502  1.1217  1.0402  1.2152
 7439SOL    HW223217   6.849   4.115   2.606 -2.6734  0.6317 -0.9412
 7440SOL     OW23218   4.640   0.220   4.345  0.4316  0.0627  0.5234
 7440SOL    HW123219   4.606   0.258   4.432  1.9456 -0.7177  1.4973
 7440SOL    HW223220   4.697   0.140   4.364  0.9315 -0.0247 -1.2118
 7441SOL     OW23221   4.864   6.429   6.652  0.2065  0.0185  0.1006
 7441SOL    HW123222   4.836   6.497   6.720 -1.9277 -0.0624 -0.6262
 7441SOL    HW223223   4.884   6.342   6.698 -0.1280  0.2768  0.7456
 7442SOL     OW23224   5.820   6.409   5.330  0.1126  0.4436 -0.3650
 7442SOL    HW123225   5.879   6.480   5.369 -1.0676  1.1620  0.1760
 7442SOL    HW223226   5.861   6.374   5.246  2.5833 -0.9207  1.2751
 7443SOL     OW23227   2.402   4.193   0.898 -0.2530 -0.4810  0.5351
 7443SOL    HW123228   2.305   4.212   0.882 -0.0855 -1.1500 -1.7114
 7443SOL    HW223229   2.452   4.205   0.812  1.5793 -0.6888  1.5226
 7444SOL     OW23230   2.118   4.163   0.910  0.2776  0.4281 -0.2683
 7444SOL    HW123231   2.133   4.064   0.907 -0.7908  0.2481  0.0357
 7444SOL    HW223232   2.020   4.183   0.904  0.4493  1.4539  0.0495
 7445SOL     OW23233   2.711   1.847   4.163 -0.0844  0.2267  0.1077
 7445SOL    HW123234   2.765   1.931   4.160 -2.3688  1.7482 -1.5100
 7445SOL    HW223235   2.638   1.856   4.231  0.7224 -1.2303  1.2297
 7446SOL     OW23236   0.901   4.939   1.641  0.3041  0.7533  0.0251
 7446SOL    HW123237   0.839   4.983   1.706 -0.2361 -0.2047  0.1715
 7446SOL    HW223238   0.995   4.954   1.670  0.1195  1.5800  0.2200
 7447SOL     OW23239   2.370   4.805   0.996  0.2356 -0.4720 -0.4972
 7447SOL    HW123240   2.466   4.821   1.020 -0.0853  0.6228  0.1462
 7447SOL    HW223241   2.365   4.768   0.904  1.2680 -0.3340 -0.6280
 7448SOL     OW23242   4.595   3.051   0.968  0.2909 -0.8585  0.5304
 7448SOL    HW123243   4.549   3.009   1.045  0.2523  2.5931  2.5931
 7448SOL    HW223244   4.690   3.072   0.993  1.4016 -2.7286 -1.6718
 7449SOL     OW23245   1.724   1.541   1.106  0.2408  0.3607  0.1362
 7449SOL    HW123246   1.660   1.524   1.031  0.5465 -1.1099  0.1803
 7449SOL    HW223247   1.689   1.500   1.190  0.9308  0.0978  0.3014
 7450SOL     OW23248   6.444   1.030   6.839 -0.0749 -0.6030 -0.2100
 7450SOL    HW123249   6.520   1.066   6.785 -1.9729 -0.0099 -2.6919
 7450SOL    HW223250   6.443   0.931   6.834  0.9485 -0.6729  0.5359
 7451SOL     OW23251   0.498   4.278   3.655 -0.6706 -0.3487 -0.1727
 7451SOL    HW123252   0.411   4.291   3.702  0.2378  1.7848  1.0951
 7451SOL    HW223253   0.482   4.263   3.557 -2.4603  2.3595 -0.3940
 7452SOL     OW23254   2.386   5.284   5.307 -0.2306 -0.4134  0.3545
 7452SOL    HW123255   2.300   5.273   5.257 -1.3332  0.1731  2.0436
 7452SOL    HW223256   2.367   5.294   5.404  1.8198 -0.9273  0.8474
 7453SOL     OW23257   1.895   5.387   3.969  0.2118  0.0739 -0.0447
 7453SOL    HW123258   1.856   5.457   4.029 -0.6536 -0.9398  0.6150
 7453SOL    HW223259   1.826   5.317   3.949  0.2873  0.6840 -2.7725
 7454SOL     OW23260   6.173   4.320   3.331 -0.1513 -0.0286 -0.5568
 7454SOL    HW123261   6.197   4.295   3.237 -0.4983 -0.8922 -0.4227
 7454SOL    HW223262   6.254   4.358   3.377 -0.3916  2.0872 -1.7231
 7455SOL     OW23263   1.753   4.820   2.065  0.1779 -0.3515  0.5349
 7455SOL    HW123264   1.840   4.860   2.092  0.4957 -0.3238 -0.5001
 7455SOL    HW223265   1.766   4.760   1.986 -0.7238 -0.4053  0.4117
 7456SOL     OW23266   4.770   1.986   2.528  0.1504  0.0213  0.5628
 7456SOL    HW123267   4.753   2.084   2.543  0.2707  0.1949 -0.3801
 7456SOL    HW223268   4.865   1.973   2.499 -0.6393 -0.0058 -2.2912
 7457SOL     OW23269   4.434   0.895   0.124 -0.2439 -0.1199  0.0387
 7457SOL    HW123270   4.364   0.937   0.065 -0.4524  1.6760  1.4802
 7457SOL    HW223271   4.522   0.941   0.109  0.5591 -1.9551 -1.3074
 7458SOL     OW23272   1.871   3.482   2.781  0.0247  0.5543 -0.2309
 7458SOL    HW123273   1.850   3.537   2.700  1.3975  2.6473  0.7495
 7458SOL    HW223274   1.795   3.488   2.845  0.6345  2.4274  0.3882
 7459SOL     OW23275   2.303   2.922   0.552 -0.1649  0.2087 -0.0876
 7459SOL    HW123276   2.400   2.928   0.573 -0.1873  0.0029  0.0761
 7459SOL    HW223277   2.251   2.913   0.637 -0.6554  4.0739  0.1990
 7460SOL     OW23278   6.866   6.412   0.141 -0.2806 -0.0891  0.2638
 7460SOL    HW123279   6.816   6.410   0.054 -1.7354 -0.1832  1.0904
 7460SOL    HW223280   6.831   6.342   0.202  1.2809 -0.5684  0.6677
 7461SOL     OW23281   3.638   6.239   2.434 -0.5953 -0.1404  0.3454
 7461SOL    HW123282   3.565   6.201   2.491  0.0943  0.0765  1.4059
 7461SOL    HW223283   3.618   6.335   2.414  0.0151  0.2936  1.7300
 7462SOL     OW23284   4.631   0.114   6.949  0.8244 -0.0026  0.3783
 7462SOL    HW123285   4.553   0.161   6.909 -0.5555 -1.4898  1.2282
 7462SOL    HW223286   4.706   0.179   6.962 -0.0579  1.3363 -0.9379
 7463SOL     OW23287   6.247   0.362   3.461  0.1073  0.1569 -0.2325
 7463SOL    HW123288   6.306   0.327   3.388  0.9214 -1.1679  1.0054
 7463SOL    HW223289   6.303   0.392   3.538 -0.7860 -0.2537  0.6052
 7464SOL     OW23290   4.342   5.167   2.841 -0.0588  0.0439 -0.0180
 7464SOL    HW123291   4.347   5.070   2.818 -1.0713  0.1988 -1.0015
 7464SOL    HW223292   4.251   5.188   2.877  0.4039  0.4870  0.9086
 7465SOL     OW23293   3.151   3.904   3.758  0.4485  0.0866 -0.3781
 7465SOL    HW123294   3.159   3.924   3.660 -0.1867  2.2595 -0.0554
 7465SOL    HW223295   3.169   3.988   3.810 -1.6537 -0.3758  1.2535
 7466SOL     OW23296   3.549   0.213   5.934 -0.5112  0.7430 -0.4195
 7466SOL    HW123297   3.627   0.247   5.881 -1.2839  1.3259 -1.1981
 7466SOL    HW223298   3.521   0.124   5.899 -0.1778  0.5094 -0.1064
 7467SOL     OW23299   1.020   6.562   2.730 -1.3502  0.3582  0.4566
 7467SOL    HW123300   1.117   6.555   2.707 -1.5499  1.7679 -0.9891
 7467SOL    HW223301   0.979   6.470   2.728 -0.1471 -0.2111  0.7410
 7468SOL     OW23302   0.367   6.296   6.721 -0.2794 -0.0855  0.3610
 7468SOL    HW123303   0.427   6.300   6.801 -0.1665 -1.6626  0.4008
 7468SOL    HW223304   0.297   6.226   6.736  1.1341 -2.1369 -1.7494
 7469SOL     OW23305   1.421   3.032   5.993  0.4661  0.0641 -0.1137
 7469SOL    HW123306   1.356   3.028   6.069 -0.6183  1.6090 -0.8984
 7469SOL    HW223307   1.430   2.942   5.952  0.1985 -0.5452  1.1286
 7470SOL     OW23308   2.983   1.090   4.284  0.1684 -0.4333  0.0891
 7470SOL    HW123309   3.060   1.034   4.313  0.7897  0.9658  1.2600
 7470SOL    HW223310   2.971   1.166   4.348 -0.3927  1.0212 -1.6497
 7471SOL     OW23311   6.511   3.778   3.511 -0.6559  0.5723  0.0153
 7471SOL    HW123312   6.551   3.859   3.468 -0.1299  0.7624  0.8288
 7471SOL    HW223313   6.530   3.781   3.610  0.3556 -1.1059 -0.0955
 7472SOL     OW23314   2.941   0.481   5.654 -0.0738 -0.1351  0.3654
 7472SOL    HW123315   3.016   0.519   5.709 -0.5869  1.3037  0.1225
 7472SOL    HW223316   2.863   0.460   5.713 -0.0268 -0.1725  0.4140
 7473SOL     OW23317   3.758   6.155   4.608 -0.7716  0.3869  0.1285
 7473SOL    HW123318   3.675   6.185   4.560 -0.7753  0.0742 -0.0630
 7473SOL    HW223319   3.745   6.062   4.641 -0.8981  0.7249  1.0501
 7474SOL     OW23320   2.537   2.761   6.099  0.3516  0.7076  0.5713
 7474SOL    HW123321   2.609   2.746   6.167  0.5966 -0.9377 -0.0150
 7474SOL    HW223322   2.577   2.800   6.016  0.6982 -0.7272  0.0387
 7475SOL     OW23323   1.301   2.503   5.777 -0.6934 -0.1198 -0.1102
 7475SOL    HW123324   1.374   2.436   5.777 -2.4760 -2.1859 -1.4675
 7475SOL    HW223325   1.311   2.565   5.699 -0.4439 -0.4585 -0.3484
 7476SOL     OW23326   2.498   3.565   0.134 -0.0419  0.1775 -0.2462
 7476SOL    HW123327   2.431   3.500   0.098 -1.0146  0.9453  0.1670
 7476SOL    HW223328   2.473   3.658   0.106  1.4618  0.3835 -1.0260
 7477SOL     OW23329   6.360   2.484   6.816  0.4468  0.7437  0.0337
 7477SOL    HW123330   6.443   2.429   6.823 -0.1359 -0.2267 -0.4687
 7477SOL    HW223331   6.350   2.519   6.723 -0.4769 -0.4248 -0.3328
 7478SOL     OW23332   6.514   1.244   0.468  0.2005  0.0008 -0.3265
 7478SOL    HW123333   6.420   1.271   0.491  0.9696  1.7911  0.9384
 7478SOL    HW223334   6.517   1.145   0.454 -1.2941 -0.6280  2.8763
 7479SOL     OW23335   4.934   0.448   3.221 -0.2811 -0.4374  0.3127
 7479SOL    HW123336   5.033   0.463   3.220 -0.4525  0.8952  0.9489
 7479SOL    HW223337   4.901   0.439   3.127  0.1323  1.5826 -0.0828
 7480SOL     OW23338   1.179   4.151   4.321  0.3516  0.4289 -0.4089
 7480SOL    HW123339   1.108   4.093   4.361 -1.6279  2.1947 -1.1527
 7480SOL    HW223340   1.267   4.130   4.363 -0.3757 -2.5406 -0.1378
 7481SOL     OW23341   5.731   6.644   2.703  0.0997 -0.1448  0.2358
 7481SOL    HW123342   5.712   6.725   2.759  1.7388 -1.0942  2.3246
 7481SOL    HW223343   5.826   6.646   2.674 -0.0661 -0.9362 -0.3737
 7482SOL     OW23344   6.457   4.519   5.392 -0.5347  0.1460  0.2012
 7482SOL    HW123345   6.470   4.430   5.347  0.5034  0.7171 -0.6762
 7482SOL    HW223346   6.521   4.526   5.469 -0.4314  0.2391  0.1065
 7483SOL     OW23347   5.665   6.668   0.630 -0.1210  0.5886 -0.3114
 7483SOL    HW123348   5.582   6.712   0.594 -0.3833 -1.2907 -2.1589
 7483SOL    HW223349   5.655   6.569   0.625  2.5001  0.3021 -1.1499
 7484SOL     OW23350   1.496   2.859   0.954 -0.5655  0.0373 -0.0969
 7484SOL    HW123351   1.440   2.779   0.973  0.1221 -0.4845 -0.2427
 7484SOL    HW223352   1.450   2.941   0.988 -0.9316 -0.4993  0.7150
 7485SOL     OW23353   0.079   3.761   4.289  0.2552 -0.3786 -0.0066
 7485SOL    HW123354   0.004   3.726   4.232  0.7015 -0.5811 -0.4726
 7485SOL    HW223355   0.165   3.755   4.239  0.6436 -0.4735  0.6556
 7486SOL     OW23356   5.927   4.044   0.432  0.0315 -0.2428  0.0595
 7486SOL    HW123357   5.877   4.100   0.498  1.1765 -1.3061  1.9027
 7486SOL    HW223358   5.895   4.065   0.339 -0.8997  2.0278  0.8374
 7487SOL     OW23359   6.781   4.639   1.522  0.2291 -0.8664 -0.1376
 7487SOL    HW123360   6.741   4.610   1.609 -1.5574 -0.7098 -0.8681
 7487SOL    HW223361   6.824   4.561   1.477  2.3603 -0.6950  1.4367
 7488SOL     OW23362   6.032   5.755   0.737 -0.2522  0.5632  0.1687
 7488SOL    HW123363   5.954   5.808   0.705 -1.1011  0.5175  2.0061
 7488SOL    HW223364   6.055   5.784   0.830  2.5318  1.2109 -0.6316
 7489SOL     OW23365   3.242   4.100   3.206 -0.2552  0.3276 -0.3202
 7489SOL    HW123366   3.165   4.036   3.199 -3.1166  3.2211  1.6554
 7489SOL    HW223367   3.212   4.191   3.176  2.3171  1.6463  0.8224
 7490SOL     OW23368   6.015   2.657   6.777 -0.0058  0.2099 -0.9951
 7490SOL    HW123369   6.070   2.605   6.713  1.0271  1.1602 -0.8999
 7490SOL    HW223370   6.074   2.697   6.847 -1.0803 -0.7226  0.5252
 7491SOL     OW23371   3.842   4.883   5.123 -0.1428 -0.8610 -0.4698
 7491SOL    HW123372   3.774   4.914   5.056 -0.1454 -0.5513 -0.3231
 7491SOL    HW223373   3.934   4.888   5.082  0.1452  1.6673  0.3279
 7492SOL     OW23374   2.193   0.962   1.561  0.4242  0.0005 -0.5219
 7492SOL    HW123375   2.119   0.900   1.536  1.0186 -1.2064  0.5919
 7492SOL    HW223376   2.156   1.037   1.616 -0.0837 -0.1360 -0.6718
 7493SOL     OW23377   6.523   0.699   2.799  0.1897 -0.3101 -0.0211
 7493SOL    HW123378   6.426   0.711   2.780  0.5324  1.6611 -0.6689
 7493SOL    HW223379   6.562   0.784   2.835  1.8808 -0.7472 -0.7081
 7494SOL     OW23380   4.217   6.191   5.065 -0.0442 -0.1217 -0.0199
 7494SOL    HW123381   4.222   6.101   5.022  0.3279 -0.4268  0.6461
 7494SOL    HW223382   4.180   6.257   5.000 -0.2946 -0.7479 -0.5243
 7495SOL     OW23383   3.687   5.644   4.167 -0.2300  0.4644 -0.3284
 7495SOL    HW123384   3.638   5.723   4.203 -0.5505 -0.3318  1.0609
 7495SOL    HW223385   3.784   5.652   4.189 -0.4153  0.0121  0.6981
 7496SOL     OW23386   1.225   2.331   2.254 -0.1553 -0.3075  0.4638
 7496SOL    HW123387   1.165   2.252   2.268 -0.5414 -0.0458  0.3062
 7496SOL    HW223388   1.279   2.346   2.337 -1.7190  0.6251  1.3626
 7497SOL     OW23389   0.409   2.108   6.179 -0.9033 -0.2502  0.1555
 7497SOL    HW123390   0.393   2.057   6.094 -2.1591  1.4026 -0.6594
 7497SOL    HW223391   0.434   2.202   6.157  0.8807 -0.3323  1.6368
 7498SOL     OW23392   4.071   2.350   6.325  0.2143  0.3551  0.2699
 7498SOL    HW123393   4.098   2.365   6.420  1.5630  0.0078 -0.0378
 7498SOL    HW223394   4.073   2.438   6.276 -3.1538  1.0586  1.1462
 7499SOL     OW23395   1.278   4.622   3.005  0.0586 -0.6175  0.0833
 7499SOL    HW123396   1.348   4.561   2.970 -0.6733 -1.4863  0.0897
 7499SOL    HW223397   1.208   4.569   3.053  0.9154  0.4844  2.7404
 7500SOL     OW23398   0.045   0.233   1.144 -0.5382  1.0217 -0.2167
 7500SOL    HW123399   0.087   0.144   1.129 -1.1901  0.7024 -0.1583
 7500SOL    HW223400   0.050   0.287   1.060  0.2675  1.1066 -0.1199
 7501SOL     OW23401   0.856   5.279   2.222 -0.0404  0.3641 -0.3807
 7501SOL    HW123402   0.782   5.214   2.238 -0.1681  0.7290  0.6044
 7501SOL    HW223403   0.935   5.255   2.279 -0.6562  1.9489  1.2465
 7502SOL     OW23404   6.498   6.542   5.377  0.5533  0.2281  0.0556
 7502SOL    HW123405   6.552   6.461   5.358 -1.5034 -1.1168 -0.4757
 7502SOL    HW223406   6.547   6.623   5.344  2.9254 -0.6781  1.1544
 7503SOL     OW23407   3.125   3.577   0.621  0.4429 -0.1985 -0.1413
 7503SOL    HW123408   3.046   3.559   0.679  0.3066  0.6195 -0.0532
 7503SOL    HW223409   3.105   3.548   0.527  0.0075  0.0683 -0.1321
 7504SOL     OW23410   1.659   3.391   2.533  0.1235 -0.5040  0.3756
 7504SOL    HW123411   1.582   3.411   2.472  0.2147 -1.9884 -0.2855
 7504SOL    HW223412   1.731   3.459   2.520 -1.0408  0.8786  0.9798
 7505SOL     OW23413   4.567   5.289   2.419  0.3672 -0.2282 -0.1256
 7505SOL    HW123414   4.550   5.309   2.516 -0.1453  0.6047 -0.3800
 7505SOL    HW223415   4.539   5.195   2.399 -0.5385 -0.0578  0.2957
 7506SOL     OW23416   3.973   5.580   2.542 -0.0645  0.1801 -0.0613
 7506SOL    HW123417   4.067   5.610   2.556 -0.0777  0.2549 -0.1299
 7506SOL    HW223418   3.971   5.509   2.471  0.0827 -0.6854  0.7764
 7507SOL     OW23419   0.156   5.538   0.429  0.4406  0.1428  0.0866
 7507SOL    HW123420   0.190   5.559   0.521  3.2920 -1.9498 -0.3688
 7507SOL    HW223421   0.231   5.545   0.363 -0.8214 -1.3695 -1.6110
 7508SOL     OW23422   2.044   2.234   0.190  0.4654  0.1151  0.4710
 7508SOL    HW123423   2.067   2.322   0.149  0.1300  0.3118  0.6992
 7508SOL    HW223424   2.103   2.163   0.152  1.4307  0.5982  1.0228
 7509SOL     OW23425   4.983   5.614   2.339  0.0570  0.8188 -0.4985
 7509SOL    HW123426   4.959   5.695   2.285  0.6686  0.9298 -0.6150
 7509SOL    HW223427   5.053   5.637   2.406  0.2495  0.3830 -0.5419
 7510SOL     OW23428   3.865   6.777   3.758 -0.2109 -0.6670 -0.0600
 7510SOL    HW123429   3.791   6.780   3.691 -0.0596  0.4411 -0.1889
 7510SOL    HW223430   3.853   6.850   3.825  0.7925 -0.4311 -0.1223
 7511SOL     OW23431   3.428   0.518   6.702  0.1072  0.2305 -0.3554
 7511SOL    HW123432   3.372   0.600   6.717 -0.9498 -0.2784 -1.3928
 7511SOL    HW223433   3.522   0.546   6.685  0.3463  1.0773  1.9808
 7512SOL     OW23434   5.714   6.862   3.145 -0.3917  0.7173  0.5941
 7512SOL    HW123435   5.673   6.860   3.236  0.9523 -1.5030  1.2244
 7512SOL    HW223436   5.797   6.918   3.146 -1.1006  1.7914  0.3703
 7513SOL     OW23437   5.983   1.176   2.800 -0.2611 -0.2082  0.4568
 7513SOL    HW123438   5.960   1.267   2.835 -1.0534 -0.4371  0.5394
 7513SOL    HW223439   5.899   1.127   2.776  0.2111  0.5681 -3.4623
 7514SOL     OW23440   3.944   6.589   5.486 -0.0416  0.0771  0.2316
 7514SOL    HW123441   4.038   6.615   5.505  0.0641  0.0857 -0.2696
 7514SOL    HW223442   3.919   6.508   5.538 -1.0988  2.3743  3.6274
 7515SOL     OW23443   4.098   4.678   6.099 -0.9798 -0.0491  0.3547
 7515SOL    HW123444   4.095   4.650   6.003  1.0245 -0.0149  0.2529
 7515SOL    HW223445   4.125   4.774   6.105 -3.4523  0.6912  0.8986
 7516SOL     OW23446   2.601   5.686   3.923 -0.3879  0.2017 -0.3198
 7516SOL    HW123447   2.551   5.738   3.853 -0.7329  1.0152  0.5085
 7516SOL    HW223448   2.540   5.618   3.963 -1.0351  1.5388  1.0524
 7517SOL     OW23449   4.854   3.071   6.835  0.1546 -0.4175  0.2422
 7517SOL    HW123450   4.895   3.004   6.772  1.1421  0.2763  0.1123
 7517SOL    HW223451   4.858   3.036   6.928 -0.8648 -1.2439 -0.0056
 7518SOL     OW23452   1.046   4.557   3.134 -0.2647 -0.7191 -0.6067
 7518SOL    HW123453   0.950   4.575   3.111 -0.5142  0.7451  1.3353
 7518SOL    HW223454   1.056   4.463   3.166 -1.2785 -0.5752  0.1701
 7519SOL     OW23455   2.975   5.967   3.804 -0.4099  0.7503  0.3013
 7519SOL    HW123456   2.957   6.012   3.717 -2.2019  1.5254  1.0033
 7519SOL    HW223457   2.926   5.880   3.807 -0.0883  0.5744  0.4004
 7520SOL     OW23458   2.568   2.101   1.689 -0.5534  0.5394  0.2378
 7520SOL    HW123459   2.505   2.144   1.753 -0.0522  2.1624 -0.3152
 7520SOL    HW223460   2.660   2.103   1.726 -0.8375 -2.4374  1.3483
 7521SOL     OW23461   2.460   0.274   0.777  0.1552 -0.0260  0.4013
 7521SOL    HW123462   2.508   0.195   0.739 -0.0887  0.7084 -1.5465
 7521SOL    HW223463   2.527   0.342   0.807  0.3501 -0.6190  1.3576
 7522SOL     OW23464   5.569   4.185   4.394 -0.1775  0.1780 -0.6851
 7522SOL    HW123465   5.613   4.201   4.482  2.1014  2.8132 -2.1534
 7522SOL    HW223466   5.473   4.213   4.400 -0.5967 -1.4357  1.3807
 7523SOL     OW23467   4.124   5.691   6.659  0.3583  0.1020  0.6418
 7523SOL    HW123468   4.176   5.725   6.737  1.4249 -1.9012  0.8731
 7523SOL    HW223469   4.153   5.598   6.638 -1.0332  0.0230 -1.1655
 7524SOL     OW23470   6.218   6.231   5.845 -0.4474  0.3799  0.3339
 7524SOL    HW123471   6.128   6.204   5.810  0.4032 -1.4590 -0.5352
 7524SOL    HW223472   6.262   6.153   5.888  1.8760  0.4575 -1.7224
 7525SOL     OW23473   3.464   0.277   1.789 -0.0756 -0.2183  0.2561
 7525SOL    HW123474   3.482   0.179   1.796  0.2501 -0.0877  1.4656
 7525SOL    HW223475   3.550   0.327   1.781 -0.2953 -0.1169 -2.1176
 7526SOL     OW23476   6.209   3.453   3.955  0.2668  0.3802  0.5467
 7526SOL    HW123477   6.194   3.550   3.974 -2.6092  0.4164 -1.3031
 7526SOL    HW223478   6.181   3.398   4.033 -1.1367  0.9291  0.4445
 7527SOL     OW23479   1.987   2.906   0.692 -0.0339 -0.4138 -0.0405
 7527SOL    HW123480   1.943   2.933   0.606 -1.3109 -0.7444  0.4898
 7527SOL    HW223481   1.987   2.984   0.755  0.1285 -0.4218 -0.0303
 7528SOL     OW23482   1.126   0.882   1.160 -0.7379  1.0024  0.0784
 7528SOL    HW123483   1.143   0.883   1.258  3.5604 -0.8991 -0.3953
 7528SOL    HW223484   1.165   0.965   1.119 -0.4704  0.7443 -0.1984
 7529SOL     OW23485   2.397   3.245   5.318  0.5739 -0.3665  0.3920
 7529SOL    HW123486   2.479   3.296   5.343 -0.0530  2.0440 -1.9649
 7529SOL    HW223487   2.422   3.152   5.294  3.1824  0.9216 -2.6588
 7530SOL     OW23488   1.141   4.503   0.831  0.3819  0.2570  0.1139
 7530SOL    HW123489   1.236   4.474   0.840 -0.0403 -1.0085  0.7591
 7530SOL    HW223490   1.113   4.552   0.914  0.2731  0.0470  0.2000
 7531SOL     OW23491   0.117   0.059   6.968  0.0476  0.4157 -0.0462
 7531SOL    HW123492   0.115   0.147   7.015 -1.2634 -0.9591  2.6587
 7531SOL    HW223493   0.064  -0.008   7.019  0.9125 -1.9797 -2.0662
 7532SOL     OW23494   6.734   3.794   2.686 -0.1680  0.3010  0.6018
 7532SOL    HW123495   6.642   3.829   2.701 -0.5979 -0.1748 -0.8013
 7532SOL    HW223496   6.794   3.869   2.657 -0.4260  0.3802  0.2695
 7533SOL     OW23497   6.950   2.545   2.858  0.4862  0.3808  0.1106
 7533SOL    HW123498   6.994   2.547   2.769  0.4947 -0.7022  0.0698
 7533SOL    HW223499   7.019   2.552   2.930  0.3141  3.8810  0.1017
 7534SOL     OW23500   5.730   0.839   4.756 -0.2777 -0.3268 -0.4761
 7534SOL    HW123501   5.827   0.853   4.776 -0.3779  2.3335 -1.4094
 7534SOL    HW223502   5.678   0.849   4.841  0.1586 -0.6279 -0.1629
 7535SOL     OW23503   6.335   0.724   5.749  0.0400 -0.0561  0.5773
 7535SOL    HW123504   6.339   0.801   5.685 -0.2598  0.1253  0.7699
 7535SOL    HW223505   6.255   0.668   5.729  0.2014 -0.2603  0.5022
 7536SOL     OW23506   1.274   4.626   3.487 -0.1474  0.0215  0.4525
 7536SOL    HW123507   1.262   4.562   3.411  1.3385 -1.1271  1.1267
 7536SOL    HW223508   1.366   4.665   3.484  0.4429 -1.0805  2.3643
 7537SOL     OW23509   1.697   1.160   3.564  0.6620  0.2581 -0.1813
 7537SOL    HW123510   1.668   1.219   3.488  1.7863  0.7274 -0.2624
 7537SOL    HW223511   1.653   1.191   3.648  0.9082  0.9652 -0.3004
 7538SOL     OW23512   0.189   2.205   4.575 -0.5903  0.1864 -0.1276
 7538SOL    HW123513   0.235   2.118   4.557 -0.9564  0.3930 -2.3721
 7538SOL    HW223514   0.193   2.225   4.673 -0.4673 -2.3259  0.4594
 7539SOL     OW23515   0.378   6.010   6.825  0.5956  0.2485 -0.4011
 7539SOL    HW123516   0.285   5.996   6.858  0.3403  1.1276 -0.7225
 7539SOL    HW223517   0.380   6.002   6.725  0.9764 -0.3544 -0.3483
 7540SOL     OW23518   6.691   0.820   0.269  0.3611  0.2875  0.1982
 7540SOL    HW123519   6.613   0.870   0.307  1.6873  1.7645  1.1029
 7540SOL    HW223520   6.702   0.844   0.172 -1.3491 -1.3326 -0.4512
 7541SOL     OW23521   3.459   0.216   2.153  0.3020  0.2358 -0.0030
 7541SOL    HW123522   3.396   0.207   2.076  0.7488  0.2894 -0.3807
 7541SOL    HW223523   3.528   0.285   2.132 -0.2278  1.0603  0.9049
 7542SOL     OW23524   0.741   5.211   4.316 -0.2185 -0.0284 -0.2824
 7542SOL    HW123525   0.816   5.229   4.252  0.9543  0.0311  1.0652
 7542SOL    HW223526   0.702   5.298   4.345  0.7689  0.0774  0.8044
 7543SOL     OW23527   5.994   4.439   2.686 -0.6714 -0.3101 -0.6067
 7543SOL    HW123528   6.067   4.466   2.623 -1.6464  0.9935 -1.2242
 7543SOL    HW223529   5.985   4.507   2.759  0.3243 -1.7072  0.9102
 7544SOL     OW23530   5.989   6.602   5.442 -0.0339 -0.3888 -0.0431
 7544SOL    HW123531   6.074   6.551   5.458 -0.2348 -0.3868  1.1554
 7544SOL    HW223532   6.008   6.682   5.387  0.5201 -1.0541 -0.8396
 7545SOL     OW23533   0.575   2.584   1.633  0.7505  1.0918 -1.0114
 7545SOL    HW123534   0.549   2.525   1.709  2.0781 -0.7986 -1.9364
 7545SOL    HW223535   0.496   2.640   1.606 -0.0648  0.9869  0.9737
 7546SOL     OW23536   2.443   6.967   5.776  0.2401  0.1158  0.0096
 7546SOL    HW123537   2.491   7.055   5.768 -1.2242  1.1968  2.0569
 7546SOL    HW223538   2.366   6.965   5.713 -0.1777  0.6724  0.4812
 7547SOL     OW23539   3.261   4.791   6.610 -0.0317 -0.5440  0.4527
 7547SOL    HW123540   3.259   4.717   6.676  2.0342 -0.4105  0.7157
 7547SOL    HW223541   3.230   4.876   6.653  2.4647 -0.1808  1.6927
 7548SOL     OW23542   1.894   5.658   1.466  0.1636 -0.6671 -0.1516
 7548SOL    HW123543   1.854   5.568   1.485  2.0831 -2.1184 -2.3698
 7548SOL    HW223544   1.986   5.646   1.429  1.0692  2.3351  0.8264
 7549SOL     OW23545   3.800   2.086   0.439  0.0669  0.1381 -0.1462
 7549SOL    HW123546   3.846   1.998   0.434  0.6038  0.4210 -0.2549
 7549SOL    HW223547   3.708   2.074   0.477 -0.2078 -0.5940 -1.0102
 7550SOL     OW23548   3.917   6.447   0.037 -0.3741  0.5538 -0.5200
 7550SOL    HW123549   3.847   6.393   0.085  1.3731 -0.6748  0.7471
 7550SOL    HW223550   3.925   6.536   0.080  1.4307 -0.6585  1.8901
 7551SOL     OW23551   1.068   0.535   2.736 -0.0769 -0.3041 -0.6566
 7551SOL    HW123552   1.029   0.551   2.827  1.2226  1.2190 -0.3374
 7551SOL    HW223553   1.150   0.478   2.745  0.7091  0.7999 -0.7284
 7552SOL     OW23554   2.078   5.229   4.552 -0.6747 -0.3594  0.0984
 7552SOL    HW123555   2.102   5.312   4.602  0.6901 -0.2052 -0.7784
 7552SOL    HW223556   2.004   5.249   4.488 -0.5553  0.0973  0.1008
 7553SOL     OW23557   4.678   3.658   0.442  0.0923 -0.6035 -0.0571
 7553SOL    HW123558   4.657   3.597   0.365  3.1438 -0.0975 -1.4702
 7553SOL    HW223559   4.677   3.606   0.527 -1.9920 -1.5008 -0.5622
 7554SOL     OW23560   3.519   4.122   6.415 -0.1797  0.0248  0.1291
 7554SOL    HW123561   3.577   4.159   6.489 -1.5686 -0.3221  1.4379
 7554SOL    HW223562   3.474   4.198   6.368  0.8409  0.2594 -0.5220
 7555SOL     OW23563   6.707   2.332   3.093 -0.2061 -0.2336 -0.2315
 7555SOL    HW123564   6.716   2.350   2.995  0.1350 -0.6511 -0.2758
 7555SOL    HW223565   6.797   2.324   3.134 -0.3509 -1.3437 -0.1134
 7556SOL     OW23566   5.694   1.719   2.705  0.2729  0.2734 -0.2902
 7556SOL    HW123567   5.779   1.755   2.744  1.6720 -1.6048 -1.4391
 7556SOL    HW223568   5.653   1.653   2.768 -0.5979  1.4518  0.4297
 7557SOL     OW23569   5.991   0.862   6.573  0.4244 -0.2984 -0.5061
 7557SOL    HW123570   6.076   0.814   6.552  0.5035 -1.0078  1.2625
 7557SOL    HW223571   5.915   0.819   6.525  0.9304 -0.1482 -1.4740
 7558SOL     OW23572   3.939   3.116   6.826 -0.6077  0.8797 -0.7212
 7558SOL    HW123573   3.915   3.199   6.876 -2.1781  0.5434 -0.8702
 7558SOL    HW223574   3.922   3.131   6.728  0.5999  0.8859 -0.9447
 7559SOL     OW23575   3.915   1.997   1.739  0.8872 -0.2920 -0.1501
 7559SOL    HW123576   3.939   2.080   1.790 -0.1045  1.0320 -1.7664
 7559SOL    HW223577   3.981   1.982   1.666  1.1050 -1.0043  0.1794
 7560SOL     OW23578   1.028   2.772   6.518  0.5765 -0.3617 -0.2171
 7560SOL    HW123579   0.955   2.726   6.569  1.0373 -2.1052 -1.0797
 7560SOL    HW223580   1.116   2.740   6.551  0.9002 -0.4763 -1.1909
 7561SOL     OW23581   4.759   0.941   2.954 -0.8287 -0.2160 -0.2584
 7561SOL    HW123582   4.741   1.039   2.950  0.1242  0.0224  0.7583
 7561SOL    HW223583   4.855   0.924   2.930 -1.0382 -0.9303 -0.6244
 7562SOL     OW23584   5.911   0.046   3.162 -0.2402 -0.2109  0.5192
 7562SOL    HW123585   5.855   0.106   3.105  1.2658  0.4283 -0.3533
 7562SOL    HW223586   6.007   0.053   3.133  0.0655 -2.5992  0.7591
 7563SOL     OW23587   3.992   6.897   2.076  0.2257  0.3602 -0.1939
 7563SOL    HW123588   3.938   6.981   2.067 -0.9082 -0.3716 -0.3607
 7563SOL    HW223589   4.051   6.905   2.156  1.2814  1.9282 -1.0798
 7564SOL     OW23590   6.962   3.251   3.437 -0.0247  0.1926 -0.4557
 7564SOL    HW123591   7.031   3.275   3.370  0.2118  2.3456  0.4927
 7564SOL    HW223592   6.881   3.216   3.390  0.4162  0.9273 -1.8086
 7565SOL     OW23593   0.439   0.162   0.196  0.0155  0.7872  0.4673
 7565SOL    HW123594   0.407   0.238   0.252 -1.2421 -1.0079  2.3569
 7565SOL    HW223595   0.367   0.093   0.190  0.6233  0.2558 -2.2901
 7566SOL     OW23596   6.683   0.204   6.493 -0.3930  0.5642  0.4722
 7566SOL    HW123597   6.668   0.292   6.539 -1.5706 -0.3787  1.9828
 7566SOL    HW223598   6.754   0.215   6.424 -0.0564  2.5537  1.0547
 7567SOL     OW23599   2.873   3.299   5.085 -0.5346 -0.3679 -0.4243
 7567SOL    HW123600   2.889   3.244   5.167 -0.1577 -1.3168 -1.1130
 7567SOL    HW223601   2.819   3.246   5.019  0.3879 -0.1744 -1.3621
 7568SOL     OW23602   2.631   0.317   4.761 -0.3093  0.9438 -0.1821
 7568SOL    HW123603   2.570   0.273   4.695  1.0267  0.5720 -1.2320
 7568SOL    HW223604   2.673   0.397   4.718 -0.9623  1.9121  0.9382
 7569SOL     OW23605   3.540   0.393   3.930 -0.2405 -0.0068  1.1381
 7569SOL    HW123606   3.624   0.441   3.904 -0.8716 -0.4387 -2.1550
 7569SOL    HW223607   3.557   0.336   4.010  1.2961  3.3658  3.4337
 7570SOL     OW23608   1.826   1.768   5.467 -0.1657 -0.5312 -0.5140
 7570SOL    HW123609   1.912   1.799   5.508  0.0011  0.2895 -1.4293
 7570SOL    HW223610   1.777   1.847   5.430 -0.9928 -1.0756 -0.6003
 7571SOL     OW23611   2.186   1.610   5.423  0.8496 -0.0524 -0.0839
 7571SOL    HW123612   2.199   1.709   5.434 -1.5455  0.2732  0.3772
 7571SOL    HW223613   2.273   1.563   5.436  1.8692  1.9148  0.5770
 7572SOL     OW23614   2.257   0.419   5.002 -0.4502 -0.3792  0.1713
 7572SOL    HW123615   2.291   0.372   4.921  0.3872  0.5763 -0.0500
 7572SOL    HW223616   2.333   0.463   5.050 -0.9341 -0.9198  1.4784
 7573SOL     OW23617   5.301   3.839   5.401 -0.0351 -0.0904  0.0075
 7573SOL    HW123618   5.276   3.766   5.465 -0.6870  1.6505  1.8568
 7573SOL    HW223619   5.399   3.832   5.381  0.0523 -1.0989  0.6424
 7574SOL     OW23620   3.320   0.436   4.532  0.3076  0.3705 -0.4410
 7574SOL    HW123621   3.353   0.382   4.454  0.2709  2.9752 -2.3780
 7574SOL    HW223622   3.223   0.456   4.521 -0.4067 -1.4363  1.7313
 7575SOL     OW23623   0.288   0.733   7.009 -0.0473 -0.1632  0.6048
 7575SOL    HW123624   0.377   0.778   7.015  0.0087 -0.3603  1.4787
 7575SOL    HW223625   0.299   0.635   7.024 -0.2036 -0.4485 -1.0412
 7576SOL     OW23626   0.927   1.239   6.256 -0.4251  0.5018  0.0796
 7576SOL    HW123627   0.917   1.140   6.263  3.1296  0.0796  1.0151
 7576SOL    HW223628   0.983   1.261   6.176  2.7001  1.2625  2.2919
 7577SOL     OW23629   5.323   6.546   0.741 -0.1726 -0.1478 -0.2262
 7577SOL    HW123630   5.331   6.456   0.699  1.7097  0.3700 -1.1072
 7577SOL    HW223631   5.353   6.616   0.676  0.7249  0.8916  1.2339
 7578SOL     OW23632   0.517   2.248   1.244  0.4835  0.6437 -0.1952
 7578SOL    HW123633   0.568   2.201   1.171 -0.0904  0.0058 -0.1969
 7578SOL    HW223634   0.433   2.287   1.206  0.1480  0.2512  0.1314
 7579SOL     OW23635   2.579   4.852   2.215 -0.5163 -0.1922 -0.0505
 7579SOL    HW123636   2.564   4.760   2.180 -2.8207  0.2758 -0.4826
 7579SOL    HW223637   2.653   4.896   2.165 -0.1675 -1.3895 -0.6183
 7580SOL     OW23638   5.081   4.665   3.086 -1.0948  0.0803  0.5170
 7580SOL    HW123639   5.074   4.569   3.113  0.4527 -0.4666 -0.8258
 7580SOL    HW223640   5.079   4.671   2.986  0.9295  1.2000  0.4910
 7581SOL     OW23641   6.448   5.651   3.270 -0.1072 -0.2355 -0.4305
 7581SOL    HW123642   6.451   5.555   3.243 -0.0496 -0.5956  0.7754
 7581SOL    HW223643   6.528   5.699   3.234  0.7058 -1.0257  0.2635
 7582SOL     OW23644   6.647   2.313   2.807  0.9523  0.1777  0.0741
 7582SOL    HW123645   6.577   2.383   2.803  1.3280  0.5158 -0.9358
 7582SOL    HW223646   6.721   2.335   2.744  1.0966 -1.1040 -0.2488
 7583SOL     OW23647   0.352   5.355   4.567 -0.0513 -0.1875  0.3569
 7583SOL    HW123648   0.396   5.282   4.515 -2.1702 -0.2902 -1.4485
 7583SOL    HW223649   0.278   5.316   4.623 -1.4611  0.5336 -0.9156
 7584SOL     OW23650   5.571   0.976   3.564  0.0380 -0.0053 -0.0731
 7584SOL    HW123651   5.482   0.931   3.561 -1.1123  1.9528  1.6783
 7584SOL    HW223652   5.566   1.064   3.516  0.8232  0.3866  0.5309
 7585SOL     OW23653   5.733   6.394   0.480  0.5042 -0.2346  1.3471
 7585SOL    HW123654   5.651   6.356   0.435  0.6359  1.6910 -0.6657
 7585SOL    HW223655   5.795   6.429   0.411  0.3043  3.7801  2.9713
 7586SOL     OW23656   5.296   6.155   6.762 -0.1837  0.2506 -0.1891
 7586SOL    HW123657   5.354   6.074   6.765 -1.2426 -0.5955 -1.3234
 7586SOL    HW223658   5.287   6.187   6.667 -1.4390  0.4301 -0.0339
 7587SOL     OW23659   1.627   2.366   4.929  0.5852 -0.7531  0.4544
 7587SOL    HW123660   1.598   2.426   4.855 -1.2205 -1.9846  0.0941
 7587SOL    HW223661   1.615   2.270   4.902  3.8588 -1.3794  0.8184
 7588SOL     OW23662   2.744   2.299   3.130 -0.2452 -0.4006 -0.0645
 7588SOL    HW123663   2.718   2.354   3.209  0.9325  0.4863 -0.2814
 7588SOL    HW223664   2.672   2.306   3.060 -0.4158  0.3019  0.1776
 7589SOL     OW23665   2.414   0.773   1.888  0.0422 -0.6049 -0.8082
 7589SOL    HW123666   2.361   0.857   1.879 -0.9091 -1.3446 -2.5412
 7589SOL    HW223667   2.421   0.748   1.985  1.1909  1.9452 -0.1455
 7590SOL     OW23668   0.146   1.914   1.650 -0.0759  0.2043  0.5249
 7590SOL    HW123669   0.197   2.001   1.649 -0.2674  0.3194  0.6200
 7590SOL    HW223670   0.119   1.890   1.557  0.7437 -0.2096  0.3892
 7591SOL     OW23671   6.605   6.531   3.425 -0.3277 -0.0320  0.0180
 7591SOL    HW123672   6.578   6.627   3.417  2.3745  0.8209  0.0379
 7591SOL    HW223673   6.532   6.479   3.470 -1.2567  2.3073  1.3666
 7592SOL     OW23674   4.815   6.994   3.204 -0.1324 -0.1249 -0.2076
 7592SOL    HW123675   4.900   6.974   3.154 -0.5175  0.1571 -0.9858
 7592SOL    HW223676   4.780   7.083   3.175 -0.7476 -0.2864  0.0351
 7593SOL     OW23677   2.079   5.452   4.715 -0.0165 -0.2962  0.1804
 7593SOL    HW123678   2.100   5.452   4.813 -1.0577 -4.5185  0.6186
 7593SOL    HW223679   1.984   5.482   4.702  0.1013  0.2078  0.4639
 7594SOL     OW23680   0.006   3.704   6.465  0.1184 -0.3499 -0.1804
 7594SOL    HW123681   0.060   3.747   6.538 -1.9227  1.7254  0.2131
 7594SOL    HW223682  -0.087   3.688   6.497 -0.2027 -1.6271 -1.6071
 7595SOL     OW23683   4.381   2.637   0.451 -0.2215  0.1470  0.0346
 7595SOL    HW123684   4.392   2.582   0.534 -0.6510  0.3384  0.2206
 7595SOL    HW223685   4.283   2.646   0.430 -0.1018 -0.2376 -0.7189
 7596SOL     OW23686   1.788   1.145   4.024 -0.3900 -0.2808  0.6844
 7596SOL    HW123687   1.841   1.061   4.036 -0.4835 -0.5835 -0.8154
 7596SOL    HW223688   1.841   1.223   4.059  1.1533 -0.5523 -0.8822
 7597SOL     OW23689   0.276   0.298   2.241  0.2423 -0.1226 -0.1759
 7597SOL    HW123690   0.201   0.349   2.283 -0.0892  0.0130 -0.9152
 7597SOL    HW223691   0.333   0.361   2.188 -0.4802 -0.5960 -1.5393
 7598SOL     OW23692   4.207   5.496   5.455  0.4130 -0.1992 -0.3650
 7598SOL    HW123693   4.257   5.475   5.539 -1.1023  2.6101  1.4150
 7598SOL    HW223694   4.124   5.442   5.451 -0.8056  1.3774  1.4134
 7599SOL     OW23695   6.374   5.715   1.602 -0.0372  0.2319  0.1685
 7599SOL    HW123696   6.278   5.735   1.625 -0.4615 -2.8451  1.7100
 7599SOL    HW223697   6.434   5.767   1.663 -0.7700  1.1913  0.0906
 7600SOL     OW23698   2.576   5.690   4.799 -0.0554  0.6875 -0.1919
 7600SOL    HW123699   2.499   5.698   4.736  0.0361  1.6676 -0.1859
 7600SOL    HW223700   2.552   5.626   4.873 -0.3150 -0.1384 -0.9748
 7601SOL     OW23701   0.259   6.401   2.382 -0.1525 -0.2638  0.4233
 7601SOL    HW123702   0.251   6.305   2.406 -1.1383 -1.2822 -3.2993
 7601SOL    HW223703   0.352   6.421   2.351  0.2408  0.2207  1.8385
 7602SOL     OW23704   0.272   3.291   1.726  0.1424  0.2844 -0.3571
 7602SOL    HW123705   0.368   3.312   1.704  1.3200 -0.0581  3.6246
 7602SOL    HW223706   0.212   3.349   1.671  2.6737  1.9897 -1.5495
 7603SOL     OW23707   1.279   6.357   3.844 -0.2413  0.4944 -0.1617
 7603SOL    HW123708   1.321   6.443   3.872  0.0664 -0.2846  1.9199
 7603SOL    HW223709   1.202   6.336   3.904  0.8246 -1.5672  0.5614
 7604SOL     OW23710   0.941   2.730   3.157 -0.4921 -0.6165  0.2945
 7604SOL    HW123711   0.966   2.776   3.242 -2.4682  2.3629 -0.5717
 7604SOL    HW223712   1.020   2.683   3.120  2.2766  3.3558  0.5824
 7605SOL     OW23713   6.852   1.063   2.532 -0.3017 -0.2415  0.2857
 7605SOL    HW123714   6.768   1.114   2.513 -0.0227  0.4942  0.9733
 7605SOL    HW223715   6.830   0.984   2.590 -0.8028 -1.1926 -1.1451
 7606SOL     OW23716   6.289   5.179   1.379 -0.0835 -0.1102 -0.5153
 7606SOL    HW123717   6.349   5.181   1.299 -3.1873  0.5530 -3.0226
 7606SOL    HW223718   6.276   5.272   1.414  0.7558 -0.3250  0.4265
 7607SOL     OW23719   1.512   6.011   5.384 -0.1584  0.0069  0.2039
 7607SOL    HW123720   1.579   6.080   5.356 -0.8436  1.1321  1.2164
 7607SOL    HW223721   1.448   5.993   5.310  1.1215 -0.9604 -0.7194
 7608SOL     OW23722   0.692   0.874   4.733  0.3416 -0.4552  0.1329
 7608SOL    HW123723   0.599   0.854   4.705  0.0791  1.5357 -0.5435
 7608SOL    HW223724   0.753   0.867   4.655  0.3445  0.6068  0.0211
 7609SOL     OW23725   6.711   3.070   4.983 -0.4948 -0.2930  0.3675
 7609SOL    HW123726   6.705   3.163   4.948  0.6506 -0.8682 -1.5055
 7609SOL    HW223727   6.804   3.035   4.970 -0.6771 -1.4216  1.8090
 7610SOL     OW23728   2.505   2.556   3.574  0.6396  0.4297 -0.4460
 7610SOL    HW123729   2.555   2.499   3.509 -2.2063 -3.1422  0.1734
 7610SOL    HW223730   2.423   2.593   3.531 -0.3925 -0.5858  0.5783
 7611SOL     OW23731   2.860   6.783   1.345  0.0211  0.0494 -0.3125
 7611SOL    HW123732   2.932   6.803   1.410 -0.7210 -3.6378  1.9754
 7611SOL    HW223733   2.900   6.763   1.255  1.6270  0.2590  0.3330
 7612SOL     OW23734   3.808   0.413   1.946 -0.3519  0.7168  0.3747
 7612SOL    HW123735   3.719   0.450   1.919 -1.0210 -0.2907  1.1049
 7612SOL    HW223736   3.811   0.403   2.046 -0.9155 -2.7248  0.1751
 7613SOL     OW23737   6.683   2.642   6.827 -0.2508 -0.0603  0.6566
 7613SOL    HW123738   6.697   2.681   6.736  1.4774  0.1326  0.9697
 7613SOL    HW223739   6.739   2.692   6.893 -1.5460 -0.1367  1.8693
 7614SOL     OW23740   1.917   1.033   5.429  0.2525  0.5521 -0.0461
 7614SOL    HW123741   1.891   1.095   5.356 -0.6171 -0.5913 -0.7366
 7614SOL    HW223742   2.014   1.042   5.448  0.7011  0.2230 -1.9943
 7615SOL     OW23743   6.717   6.946   6.619 -0.0852 -0.1651  0.4319
 7615SOL    HW123744   6.807   6.950   6.661 -0.0121  0.3315  0.2395
 7615SOL    HW223745   6.692   7.037   6.584  0.2426 -0.7234 -1.3756
 7616SOL     OW23746   3.199   5.637   1.739 -0.4056 -0.1191 -0.0881
 7616SOL    HW123747   3.278   5.689   1.770 -0.5741  0.5433 -0.7504
 7616SOL    HW223748   3.187   5.651   1.641 -0.4966 -1.3469 -0.2681
 7617SOL     OW23749   1.742   5.676   6.682 -0.4899  0.4600 -0.8631
 7617SOL    HW123750   1.695   5.703   6.766  1.3432 -0.1439  0.4174
 7617SOL    HW223751   1.707   5.587   6.652  0.4362 -0.4350  0.6081
 7618SOL     OW23752   6.587   2.566   4.245  0.1907 -0.4468  1.2337
 7618SOL    HW123753   6.594   2.666   4.233  1.0321 -0.6213  0.0046
 7618SOL    HW223754   6.530   2.529   4.172  0.1249 -0.9020  1.5181
 7619SOL     OW23755   0.699   3.903   0.747 -0.0712 -0.0085 -0.1651
 7619SOL    HW123756   0.782   3.864   0.709  1.2315  2.3304  0.0642
 7619SOL    HW223757   0.702   4.003   0.739 -2.6897  0.1859  0.2355
 7620SOL     OW23758   5.538   2.712   1.915  0.6241  0.3381  0.0162
 7620SOL    HW123759   5.505   2.636   1.860  0.4717 -0.2967  0.9516
 7620SOL    HW223760   5.610   2.680   1.977  1.1429  1.1398 -0.1597
 7621SOL     OW23761   2.127   1.314   6.590  0.4812 -0.1599 -0.6541
 7621SOL    HW123762   2.191   1.356   6.654  0.9357 -0.9277 -0.5946
 7621SOL    HW223763   2.163   1.321   6.497  0.6826 -0.6266 -0.6161
 7622SOL     OW23764   0.251   5.026   0.899 -0.7182  0.2187 -0.8175
 7622SOL    HW123765   0.281   5.099   0.962 -0.1928 -0.6111 -0.0802
 7622SOL    HW223766   0.153   5.011   0.911 -0.6172  0.0494 -0.1649
 7623SOL     OW23767   6.252   0.667   4.270  0.8395 -0.1215  0.0520
 7623SOL    HW123768   6.251   0.751   4.323  1.5104  0.6014 -1.0481
 7623SOL    HW223769   6.211   0.593   4.324  1.3597  0.6083  1.5017
 7624SOL     OW23770   2.033   4.976   6.578 -0.1354 -0.1244  0.8148
 7624SOL    HW123771   2.042   5.071   6.607  1.3062 -0.4578  1.6010
 7624SOL    HW223772   2.095   4.959   6.502  0.4821 -0.6902  1.4234
 7625SOL     OW23773   2.322   4.412   4.373  0.2885 -0.6020  1.1023
 7625SOL    HW123774   2.341   4.399   4.275 -0.8419  0.7551  0.6685
 7625SOL    HW223775   2.400   4.458   4.415  0.4899 -0.5530  0.6881
 7626SOL     OW23776   6.045   1.086   0.273  0.5327 -0.0059  0.1067
 7626SOL    HW123777   5.992   1.076   0.189  0.2031  0.6462  0.2305
 7626SOL    HW223778   6.105   1.006   0.285 -0.5826 -0.8601  0.0844
 7627SOL     OW23779   3.746   2.383   6.224 -0.1306  0.4670 -0.6900
 7627SOL    HW123780   3.792   2.296   6.242 -0.8205  0.1086 -0.6305
 7627SOL    HW223781   3.674   2.398   6.292  0.6106  1.5543 -0.1062
 7628SOL     OW23782   1.056   0.419   0.568 -0.0988 -0.5089  0.0311
 7628SOL    HW123783   1.043   0.338   0.624 -1.4686 -0.5213 -0.2777
 7628SOL    HW223784   1.023   0.402   0.475 -1.0899  0.6110  0.1518
 7629SOL     OW23785   5.852   2.818   0.979 -0.3470  0.2608 -0.5319
 7629SOL    HW123786   5.949   2.797   0.975 -0.8253 -2.6346  0.3326
 7629SOL    HW223787   5.830   2.858   1.068 -0.0379  0.1989 -0.4273
 7630SOL     OW23788   1.812   0.535   1.814 -0.3539  0.1785  0.1589
 7630SOL    HW123789   1.877   0.459   1.816 -0.6329 -0.0872 -0.5472
 7630SOL    HW223790   1.815   0.580   1.725  1.3008  2.3458  1.2187
 7631SOL     OW23791   4.453   0.070   3.617 -0.1106 -0.2200 -0.0555
 7631SOL    HW123792   4.494  -0.020   3.601  0.2505  0.0395 -0.6582
 7631SOL    HW223793   4.526   0.138   3.626 -0.3666 -0.0746  0.9881
 7632SOL     OW23794   2.345   1.619   6.510 -0.1855  0.3764 -0.2444
 7632SOL    HW123795   2.357   1.576   6.420 -1.3185 -0.5287  0.0263
 7632SOL    HW223796   2.432   1.616   6.559  0.4491  0.8700 -1.2917
 7633SOL     OW23797   6.344   3.418   2.695 -0.4481  0.9428  0.2827
 7633SOL    HW123798   6.284   3.375   2.763  0.1601  1.6166  1.2817
 7633SOL    HW223799   6.416   3.354   2.669 -0.6422  0.7047  0.3230
 7634SOL     OW23800   0.299   2.316   6.370  0.0535 -0.1063  0.5105
 7634SOL    HW123801   0.299   2.278   6.463  0.5409 -0.8542  0.2159
 7634SOL    HW223802   0.368   2.269   6.315 -2.4334 -2.0507 -1.1625
 7635SOL     OW23803   2.036   0.778   3.717  0.2153 -0.4633  0.4717
 7635SOL    HW123804   2.008   0.872   3.738  0.3417  0.1353 -1.7747
 7635SOL    HW223805   2.132   0.766   3.741  0.5301  0.3732 -0.3141
 7636SOL     OW23806   5.777   4.142   6.440 -0.2214 -0.4494  0.7438
 7636SOL    HW123807   5.736   4.080   6.507 -0.1212 -0.4683  0.7884
 7636SOL    HW223808   5.877   4.134   6.444 -0.2259 -0.7441  0.3125
 7637SOL     OW23809   6.964   0.067   2.009  0.3813 -0.2801 -0.4256
 7637SOL    HW123810   7.016   0.127   1.948  1.2286 -2.3760 -1.8929
 7637SOL    HW223811   7.012  -0.020   2.019 -0.9220 -0.8458  1.4171
 7638SOL     OW23812   3.245   5.099   1.857 -0.6614 -0.0224 -0.2918
 7638SOL    HW123813   3.248   5.164   1.933  0.5116  0.8395 -1.0450
 7638SOL    HW223814   3.334   5.056   1.846 -0.7308  0.0801 -1.3645
 7639SOL     OW23815   4.003   4.320   1.174 -0.2746 -0.0079  0.1966
 7639SOL    HW123816   3.995   4.336   1.076 -0.5176  0.9294  0.3638
 7639SOL    HW223817   4.097   4.335   1.203 -0.2592 -0.0266  0.1568
 7640SOL     OW23818   4.660   4.287   4.059 -0.0306  0.5732 -0.1656
 7640SOL    HW123819   4.643   4.363   3.996 -3.4360  1.1194  1.1958
 7640SOL    HW223820   4.663   4.201   4.007 -2.3180  1.0398 -1.1797
 7641SOL     OW23821   6.860   2.899   5.444 -0.2442  0.1747 -1.0952
 7641SOL    HW123822   6.930   2.970   5.450  0.5352 -0.6674  0.5749
 7641SOL    HW223823   6.803   2.915   5.364  0.6569  1.9770 -1.4315
 7642SOL     OW23824   0.269   1.821   6.151  0.3621  0.0267 -0.4796
 7642SOL    HW123825   0.369   1.823   6.144  0.3484  2.1589 -0.5483
 7642SOL    HW223826   0.230   1.894   6.096 -1.3356 -1.4231 -1.3108
 7643SOL     OW23827   2.720   4.281   6.617  0.2572  0.3033 -0.0414
 7643SOL    HW123828   2.688   4.187   6.631  1.2986  0.1086  1.1678
 7643SOL    HW223829   2.751   4.319   6.704  0.1971  1.6520 -0.5868
 7644SOL     OW23830   6.560   3.065   6.738 -0.5849  0.0785 -0.6299
 7644SOL    HW123831   6.573   2.998   6.665 -0.0470 -0.0541 -0.4139
 7644SOL    HW223832   6.499   3.137   6.706 -1.5523 -0.7520 -0.7049
 7645SOL     OW23833   2.596   0.088   1.060 -0.2848 -0.0431  0.1922
 7645SOL    HW123834   2.616   0.024   1.134 -1.2158  0.4406  0.8702
 7645SOL    HW223835   2.522   0.051   1.004 -1.2010  0.6730  0.9078
 7646SOL     OW23836   2.772   1.437   5.186  0.2417 -0.1514  0.3032
 7646SOL    HW123837   2.859   1.484   5.200  2.5855 -3.2157 -2.4352
 7646SOL    HW223838   2.761   1.366   5.256  0.4014 -0.3439  0.1343
 7647SOL     OW23839   6.524   2.091   2.728  0.1202 -0.4183  0.6420
 7647SOL    HW123840   6.533   2.083   2.628 -1.8202  0.7764  0.3209
 7647SOL    HW223841   6.578   2.169   2.760 -0.0471 -0.1956  0.3856
 7648SOL     OW23842   2.823   3.908   1.631 -0.0188 -0.0862 -0.4283
 7648SOL    HW123843   2.732   3.891   1.668  0.6071 -0.2296  1.1174
 7648SOL    HW223844   2.831   4.003   1.603 -0.6540 -0.0874 -0.6328
 7649SOL     OW23845   2.329   3.768   0.045  0.1707 -0.0879  0.0213
 7649SOL    HW123846   2.258   3.747   0.112  0.7793 -0.3745  0.5885
 7649SOL    HW223847   2.303   3.850  -0.007 -0.4911 -0.0964  0.3289
 7650SOL     OW23848   3.624   5.070   6.599 -0.2009 -0.0487  0.2374
 7650SOL    HW123849   3.575   5.064   6.512 -0.7584 -0.7066  0.5815
 7650SOL    HW223850   3.717   5.035   6.587  0.0417  0.7573 -0.3081
 7651SOL     OW23851   4.272   2.275   4.353  0.0475  0.0961 -0.6531
 7651SOL    HW123852   4.180   2.255   4.319 -0.9378  3.4698 -0.4028
 7651SOL    HW223853   4.335   2.282   4.276 -0.7191  1.1703 -1.2098
 7652SOL     OW23854   0.014   0.422   3.450  0.3661  0.8994  0.3401
 7652SOL    HW123855  -0.061   0.430   3.384 -0.4088  1.7022  1.2696
 7652SOL    HW223856   0.090   0.372   3.409 -0.2177  1.0878 -1.0344
 7653SOL     OW23857   6.525   2.049   5.805  0.0104  0.1563  0.2871
 7653SOL    HW123858   6.527   1.950   5.815 -1.0768  0.2415  1.6914
 7653SOL    HW223859   6.451   2.075   5.743  0.8044  0.0708 -0.7182
 7654SOL     OW23860   1.532   1.120   5.982  0.4634 -0.3048 -0.0917
 7654SOL    HW123861   1.624   1.145   6.013  0.9817 -1.5928 -0.5198
 7654SOL    HW223862   1.531   1.023   5.957 -1.2611 -0.5438  0.8006
 7655SOL     OW23863   3.959   6.816   6.220 -0.6803  0.1498  0.2214
 7655SOL    HW123864   4.033   6.879   6.196 -0.9408  1.7078  3.0706
 7655SOL    HW223865   3.879   6.834   6.163 -0.6496  2.2485  0.7830
 7656SOL     OW23866   2.933   0.385   1.750 -0.3508  0.1280  0.0806
 7656SOL    HW123867   2.937   0.485   1.747  0.5952  0.1912  1.9115
 7656SOL    HW223868   3.025   0.348   1.761 -0.7549 -0.9155  0.0704
 7657SOL     OW23869   4.794   1.861   3.004 -0.2038 -0.4884 -0.1410
 7657SOL    HW123870   4.714   1.922   3.007 -0.1322 -0.4007 -0.0055
 7657SOL    HW223871   4.791   1.806   2.921  0.2870  0.4479 -0.7923
 7658SOL     OW23872   6.768   5.812   3.936  0.0265  0.5582  0.4731
 7658SOL    HW123873   6.868   5.816   3.928 -0.0422  1.2699 -0.1054
 7658SOL    HW223874   6.735   5.897   3.976 -0.1835 -0.5047  2.7370
 7659SOL     OW23875   4.624   2.619   6.649 -0.4615  0.2597  0.0999
 7659SOL    HW123876   4.596   2.587   6.558  0.3781 -0.7747  0.1888
 7659SOL    HW223877   4.721   2.599   6.663 -1.1185 -1.8939  2.1654
 7660SOL     OW23878   3.099   0.143   1.956  0.2597  0.1190  0.3437
 7660SOL    HW123879   3.049   0.063   1.923 -0.3073  0.7857 -0.4712
 7660SOL    HW223880   3.063   0.170   2.046 -0.1171 -0.0561  0.2501
 7661SOL     OW23881   0.751   2.430   3.002  0.3251  0.0253  0.4149
 7661SOL    HW123882   0.743   2.394   2.909  0.0894 -0.4825  0.6266
 7661SOL    HW223883   0.840   2.403   3.040 -1.1197 -3.3488  1.7946
 7662SOL     OW23884   1.224   1.789   2.343  0.3685  0.4436  0.2349
 7662SOL    HW123885   1.252   1.741   2.260  1.0554 -0.7644  1.1359
 7662SOL    HW223886   1.275   1.753   2.422 -0.9454  0.8983  1.3352
 7663SOL     OW23887   0.237   0.354   6.375 -0.2979 -0.0866 -0.0031
 7663SOL    HW123888   0.240   0.258   6.403  0.0645 -0.0272  0.1636
 7663SOL    HW223889   0.265   0.412   6.452  0.7215  0.0764 -0.4816
 7664SOL     OW23890   2.245   2.854   4.846  0.6615  0.4554  0.1634
 7664SOL    HW123891   2.218   2.759   4.859 -1.5556  0.8972 -0.8020
 7664SOL    HW223892   2.275   2.893   4.934 -0.5528 -0.5061  1.0352
 7665SOL     OW23893   6.244   0.865   0.292 -0.0355  0.1771  0.2600
 7665SOL    HW123894   6.294   0.824   0.215 -1.4859  1.2880 -1.3427
 7665SOL    HW223895   6.201   0.793   0.346  0.8224 -0.6136 -0.0856
 7666SOL     OW23896   3.118   2.225   0.226  0.7550  0.3548 -0.1019
 7666SOL    HW123897   3.130   2.248   0.322  0.2429  0.2665 -0.0141
 7666SOL    HW223898   3.028   2.184   0.212  0.8801  0.2364 -0.5952
 7667SOL     OW23899   1.648   0.835   0.900  0.0539  0.1415 -0.3863
 7667SOL    HW123900   1.670   0.841   0.803 -0.4785 -1.3159 -0.6206
 7667SOL    HW223901   1.637   0.739   0.926  0.0700  0.5124  1.0961
 7668SOL     OW23902   3.223   5.506   5.156 -0.2316  0.2488  0.5836
 7668SOL    HW123903   3.157   5.447   5.110  0.1511  0.0364  0.2945
 7668SOL    HW223904   3.206   5.601   5.132 -1.4328  0.3618  1.7800
 7669SOL     OW23905   3.714   6.886   2.172  0.1262  0.0334 -0.2352
 7669SOL    HW123906   3.728   6.932   2.084 -1.3104  0.8311 -0.0815
 7669SOL    HW223907   3.665   6.947   2.234 -0.1070 -1.0154  0.6454
 7670SOL     OW23908   2.497   1.456   5.154 -0.6024  0.0346 -0.5459
 7670SOL    HW123909   2.594   1.460   5.132 -0.6297  0.0544 -0.6665
 7670SOL    HW223910   2.449   1.403   5.084 -0.2367 -2.5864  1.0431
 7671SOL     OW23911   0.529   3.608   4.325  0.8013 -0.5635  0.1967
 7671SOL    HW123912   0.606   3.650   4.372  0.6478 -0.1963  0.1184
 7671SOL    HW223913   0.532   3.509   4.340  0.9476 -0.4881  0.6848
 7672SOL     OW23914   3.575   6.589   1.687  0.7468  0.1030 -0.1838
 7672SOL    HW123915   3.491   6.614   1.638  1.7003  0.2259 -1.7964
 7672SOL    HW223916   3.566   6.496   1.721 -0.7600  0.7282  1.3167
 7673SOL     OW23917   4.744   5.156   5.831  0.0058  0.8167  0.3323
 7673SOL    HW123918   4.842   5.174   5.824 -0.0598  1.4624  0.9888
 7673SOL    HW223919   4.696   5.240   5.857 -0.9991  1.0470 -2.0621
 7674SOL     OW23920   6.570   4.876   6.017  0.4843  0.2261  0.0729
 7674SOL    HW123921   6.502   4.853   6.087  0.8378  0.6797  0.5801
 7674SOL    HW223922   6.549   4.828   5.932 -0.5117  0.4118  0.1995
 7675SOL     OW23923   0.036   5.940   4.801 -0.1293  0.0035 -0.1367
 7675SOL    HW123924  -0.056   5.938   4.839  0.6598  0.1501  1.9037
 7675SOL    HW223925   0.063   5.848   4.774 -0.6508 -0.1373 -0.1938
 7676SOL     OW23926   3.273   6.278   5.172  0.1769  0.6879  0.2511
 7676SOL    HW123927   3.333   6.312   5.245 -0.1768  0.0139  0.8690
 7676SOL    HW223928   3.322   6.211   5.117  0.6581  1.6752 -0.5534
 7677SOL     OW23929   0.509   0.268   5.737  0.8746 -0.5077  0.3681
 7677SOL    HW123930   0.559   0.342   5.694  0.5269 -1.0249 -0.9766
 7677SOL    HW223931   0.557   0.181   5.721  0.1699 -0.8525  0.0511
 7678SOL     OW23932   0.197   0.867   1.957 -0.7622 -0.2205  0.3278
 7678SOL    HW123933   0.201   0.857   1.857 -1.2048 -2.3968  0.4930
 7678SOL    HW223934   0.275   0.822   1.998  0.1769  1.8712  0.9467
 7679SOL     OW23935   5.505   5.624   5.205  0.0641 -0.4610  0.2030
 7679SOL    HW123936   5.579   5.586   5.150 -0.4293 -0.6766 -0.3236
 7679SOL    HW223937   5.540   5.650   5.295  0.3671 -2.4380  0.6920
 7680SOL     OW23938   2.846   6.556   4.110 -0.0329 -0.5713 -0.1886
 7680SOL    HW123939   2.942   6.562   4.083 -0.1757  1.3108 -0.4014
 7680SOL    HW223940   2.788   6.591   4.037 -0.7147  0.5529  0.8479
 7681SOL     OW23941   2.399   6.124   5.494 -0.3290 -0.1461  1.3091
 7681SOL    HW123942   2.497   6.135   5.505 -0.7162  1.3699  4.3247
 7681SOL    HW223943   2.368   6.174   5.413  1.4350 -1.5821 -0.3580
 7682SOL     OW23944   1.535   5.457   1.944  0.0572  0.1046 -0.0188
 7682SOL    HW123945   1.618   5.405   1.925  1.6121  2.0149  1.2625
 7682SOL    HW223946   1.536   5.489   2.039 -1.4643  1.3587 -0.3794
 7683SOL     OW23947   3.714   3.835   5.157 -0.6708 -0.0961  0.3166
 7683SOL    HW123948   3.732   3.831   5.059 -3.2107 -1.4700 -0.1678
 7683SOL    HW223949   3.775   3.902   5.199 -0.3296  1.4251 -2.3812
 7684SOL     OW23950   2.829   6.957   1.778 -0.7495  0.1700 -0.1581
 7684SOL    HW123951   2.736   6.920   1.777 -0.4291 -0.6681 -1.8249
 7684SOL    HW223952   2.831   7.044   1.729 -0.3259 -0.7706 -1.8873
 7685SOL     OW23953   0.466   2.521   2.926 -0.5675  0.1797  0.6240
 7685SOL    HW123954   0.408   2.567   2.993  0.4549 -0.1644  1.7949
 7685SOL    HW223955   0.550   2.490   2.971 -0.1933 -0.7542 -0.6572
 7686SOL     OW23956   3.030   6.020   1.724  0.2001  0.2364 -0.4263
 7686SOL    HW123957   3.092   5.978   1.791 -2.4234  0.8722  2.6257
 7686SOL    HW223958   3.080   6.090   1.672  2.4612 -0.5614  0.5346
 7687SOL     OW23959   4.374   2.529   0.717 -0.4230 -0.0125 -0.0399
 7687SOL    HW123960   4.316   2.577   0.782  0.9271  2.0115 -0.2407
 7687SOL    HW223961   4.323   2.454   0.675 -2.1876  0.4015  1.2849
 7688SOL     OW23962   3.094   0.436   1.064  0.1292 -0.5621 -0.0690
 7688SOL    HW123963   3.150   0.417   1.144 -0.1964  0.4035  0.4002
 7688SOL    HW223964   3.042   0.354   1.039 -0.2318 -0.6958  1.0817
 7689SOL     OW23965   2.638   5.782   3.085  0.0479 -0.6805 -0.4821
 7689SOL    HW123966   2.696   5.852   3.127 -1.0351 -1.1852  2.0365
 7689SOL    HW223967   2.553   5.824   3.053  0.7284 -0.3554 -1.9479
 7690SOL     OW23968   0.431   3.026   3.430  0.4673  0.6634  0.2101
 7690SOL    HW123969   0.332   3.037   3.438  0.0551 -1.3734 -1.2400
 7690SOL    HW223970   0.477   3.110   3.460 -1.4260  0.3032  4.8680
 7691SOL     OW23971   0.027   5.047   2.776 -0.4647 -0.0308  0.2395
 7691SOL    HW123972   0.083   5.053   2.859 -0.5238 -0.7957  0.3375
 7691SOL    HW223973  -0.007   4.954   2.765 -1.2000  0.2762 -0.1641
 7692SOL     OW23974   5.956   4.687   5.519  0.2986  0.1666  0.3322
 7692SOL    HW123975   5.914   4.735   5.442 -0.7967 -1.9834 -0.4967
 7692SOL    HW223976   6.046   4.653   5.492 -0.5487 -1.5661 -0.4606
 7693SOL     OW23977   5.076   1.886   1.350 -0.1274  0.1473  0.3303
 7693SOL    HW123978   5.149   1.877   1.417  0.2871  0.5343 -0.0663
 7693SOL    HW223979   5.078   1.807   1.288  0.2372  0.3797  0.0450
 7694SOL     OW23980   2.349   4.615   6.872  0.0896  0.4289  0.3084
 7694SOL    HW123981   2.363   4.612   6.971 -0.4875 -0.2975  0.3840
 7694SOL    HW223982   2.257   4.580   6.851  0.0382  0.9932 -0.4523
 7695SOL     OW23983   3.180   6.425   4.661 -0.5069 -0.4824  0.0693
 7695SOL    HW123984   3.214   6.342   4.617  0.5838  0.1425 -0.2795
 7695SOL    HW223985   3.141   6.486   4.592 -2.9969 -1.4301  0.5057
 7696SOL     OW23986   1.510   2.491   3.474  0.2571  0.3164 -0.4892
 7696SOL    HW123987   1.566   2.504   3.392  0.3650 -0.1148 -0.4891
 7696SOL    HW223988   1.562   2.519   3.555  0.1459  0.7550 -0.5699
 7697SOL     OW23989   2.985   1.810   3.726  0.1526 -0.3398 -0.5195
 7697SOL    HW123990   2.922   1.758   3.785  2.5611 -0.1150  2.5370
 7697SOL    HW223991   2.977   1.907   3.748  1.1612 -0.2598 -0.5023
 7698SOL     OW23992   5.408   5.789   5.771 -0.4174 -0.1649 -0.4667
 7698SOL    HW123993   5.353   5.803   5.689 -2.4167 -0.0291  0.8092
 7698SOL    HW223994   5.401   5.693   5.799  0.5450 -0.2914 -0.6361
 7699SOL     OW23995   2.676   1.493   3.157  0.3498  0.2766  0.0274
 7699SOL    HW123996   2.691   1.396   3.137  3.0511  0.3736  1.2209
 7699SOL    HW223997   2.722   1.549   3.087  0.3493  0.6932  0.3571
 7700SOL     OW23998   0.443   1.185   3.547  0.2450 -0.4439  0.0253
 7700SOL    HW123999   0.360   1.139   3.516  0.5637  0.0483 -1.6775
 7700SOL    HW224000   0.425   1.231   3.634 -0.8751 -1.3992  0.3326
 7701SOL     OW24001   1.938   1.560   6.695  0.1628  0.1812 -0.3333
 7701SOL    HW124002   1.992   1.476   6.700  1.6976  1.1379 -0.2536
 7701SOL    HW224003   1.997   1.636   6.668 -1.2436  1.2013 -0.6315
 7702SOL     OW24004   5.494   2.377   4.145 -0.2813 -0.3058 -0.6460
 7702SOL    HW124005   5.479   2.456   4.084 -0.6838  0.3196  0.2426
 7702SOL    HW224006   5.408   2.329   4.160 -0.3595  0.0592  0.1164
 7703SOL     OW24007   4.328   2.899   6.637  0.1584  0.0452 -0.4593
 7703SOL    HW124008   4.326   2.963   6.560 -0.6415  1.9343  1.0482
 7703SOL    HW224009   4.285   2.941   6.717 -0.8116 -2.5679  0.5083
 7704SOL     OW24010   1.973   4.678   5.404 -0.1490  0.7275 -0.4427
 7704SOL    HW124011   1.919   4.609   5.357  1.6964 -1.2045  0.0786
 7704SOL    HW224012   2.061   4.689   5.357  1.0826 -0.0785  1.5083
 7705SOL     OW24013   1.910   4.407   6.970  0.4870 -0.0520  0.0988
 7705SOL    HW124014   1.814   4.410   6.944  0.8069  1.1847 -1.0815
 7705SOL    HW224015   1.928   4.325   7.023 -1.1488 -0.4535  0.0842
 7706SOL     OW24016   2.385   4.839   6.648  0.1208  0.1461  0.3298
 7706SOL    HW124017   2.352   4.795   6.732 -1.1512 -2.6837 -1.4902
 7706SOL    HW224018   2.474   4.801   6.624 -0.2728 -0.3221 -0.4317
 7707SOL     OW24019   0.975   3.488   4.830  0.0173  0.5589 -0.2048
 7707SOL    HW124020   0.992   3.526   4.921 -0.9421  0.3272  0.0817
 7707SOL    HW224021   1.062   3.469   4.785  0.5034  0.5052  0.7338
 7708SOL     OW24022   0.000   5.892   1.796 -0.6038 -0.6284  0.0359
 7708SOL    HW124023  -0.045   5.895   1.885  0.9783  0.5598  0.8445
 7708SOL    HW224024   0.066   5.817   1.795 -1.5874 -1.5196 -0.6702
 7709SOL     OW24025   5.262   3.687   2.735 -0.2949  0.6416  0.2688
 7709SOL    HW124026   5.237   3.768   2.788 -1.6883  0.6122 -0.3145
 7709SOL    HW224027   5.362   3.677   2.735 -0.0954  2.4159  0.2508
 7710SOL     OW24028   6.079   2.306   6.129  0.1301  0.2009  0.3096
 7710SOL    HW124029   5.994   2.254   6.135 -0.4859  1.2393  0.5949
 7710SOL    HW224030   6.135   2.268   6.055  0.3125 -1.7478  1.3521
 7711SOL     OW24031   4.596   4.617   6.565 -0.3156  1.0634  0.3103
 7711SOL    HW124032   4.595   4.599   6.467  0.4381 -0.5528  0.5694
 7711SOL    HW224033   4.528   4.560   6.611 -0.9695  2.1237  0.7049
 7712SOL     OW24034   2.389   0.400   4.083  0.1631  0.2669 -0.1284
 7712SOL    HW124035   2.336   0.357   4.156  0.5976 -0.8465 -0.4615
 7712SOL    HW224036   2.482   0.364   4.083  0.1889  0.3075 -1.1833
 7713SOL     OW24037   3.670   5.317   3.765  0.0293 -0.5955  0.3672
 7713SOL    HW124038   3.606   5.359   3.700  1.6238  0.1470 -0.7704
 7713SOL    HW224039   3.618   5.278   3.841 -1.9408 -1.8810 -1.5287
 7714SOL     OW24040   0.575   2.163   4.302  0.6516  0.1148 -0.1202
 7714SOL    HW124041   0.626   2.249   4.311  0.5667  0.0841  0.7361
 7714SOL    HW224042   0.477   2.183   4.306  0.6187 -0.2297  2.6249
 7715SOL     OW24043   5.867   6.517   5.694  0.4156 -0.5501  0.0882
 7715SOL    HW124044   5.920   6.560   5.621  0.1301  0.2632  0.3542
 7715SOL    HW224045   5.794   6.579   5.724  1.0975 -0.4678  1.6955
 7716SOL     OW24046   5.868   5.211   3.528 -0.1242 -0.1495 -0.5907
 7716SOL    HW124047   5.814   5.139   3.572 -1.4585  1.6665  0.9179
 7716SOL    HW224048   5.876   5.191   3.430 -1.1485 -1.9135 -0.3600
 7717SOL     OW24049   0.514   6.075   0.879  0.8329  0.0078  0.1938
 7717SOL    HW124050   0.541   6.153   0.821  0.0757 -0.5627 -0.9616
 7717SOL    HW224051   0.452   6.016   0.828  0.7430 -0.9254  1.3533
 7718SOL     OW24052   3.032   4.726   6.462  0.8746 -0.2719 -0.3741
 7718SOL    HW124053   3.125   4.758   6.482  0.0684  1.8557  0.1472
 7718SOL    HW224054   2.992   4.686   6.544  1.1672 -0.8704 -0.5103
 7719SOL     OW24055   1.849   0.243   1.149  0.2964  0.4110 -0.5717
 7719SOL    HW124056   1.843   0.177   1.074 -0.7286  0.2522 -0.3651
 7719SOL    HW224057   1.900   0.323   1.118  1.8442 -0.5975 -0.7276
 7720SOL     OW24058   5.550   1.465   3.846 -0.1813 -0.4776 -0.2766
 7720SOL    HW124059   5.585   1.541   3.901 -1.3913  0.0560 -0.2179
 7720SOL    HW224060   5.570   1.482   3.749  3.1977 -2.0784  0.0044
 7721SOL     OW24061   2.380   4.481   3.875  0.2476 -0.1844  0.1612
 7721SOL    HW124062   2.406   4.555   3.812  0.6196 -0.6082 -0.1892
 7721SOL    HW224063   2.288   4.499   3.911  0.0652  0.1091 -0.4360
 7722SOL     OW24064   2.097   3.869   3.244  0.1328  0.0487 -0.0112
 7722SOL    HW124065   2.005   3.833   3.232 -0.9014  1.9625  1.6347
 7722SOL    HW224066   2.109   3.900   3.338  1.5458  2.2701 -0.8516
 7723SOL     OW24067   2.366   6.507   2.188 -0.3553 -0.7272 -0.4441
 7723SOL    HW124068   2.360   6.494   2.089  0.1053 -1.7125 -0.3635
 7723SOL    HW224069   2.363   6.604   2.210 -1.5829 -0.5530 -1.3373
 7724SOL     OW24070   0.674   2.445   6.229 -0.2351  0.5696 -0.5722
 7724SOL    HW124071   0.697   2.389   6.308  2.1676  1.9598 -0.1516
 7724SOL    HW224072   0.637   2.388   6.156  0.9983 -1.3772  0.2387
 7725SOL     OW24073   4.299   0.220   1.330 -0.2122  0.1351 -0.0228
 7725SOL    HW124074   4.293   0.241   1.428  1.3446 -1.0132  0.3628
 7725SOL    HW224075   4.386   0.174   1.311 -0.0958  1.1232 -2.1208
 7726SOL     OW24076   5.386   2.726   4.164  0.5423 -0.1937  0.0234
 7726SOL    HW124077   5.421   2.820   4.167  1.1425 -0.4456  1.0988
 7726SOL    HW224078   5.432   2.676   4.091  2.4704 -0.5085  1.3879
 7727SOL     OW24079   5.714   4.435   2.686  0.1954  0.6598 -0.1504
 7727SOL    HW124080   5.810   4.442   2.659  0.5389 -0.0301  0.8230
 7727SOL    HW224081   5.694   4.503   2.757  0.0703  0.5344 -0.0645
 7728SOL     OW24082   0.531   3.250   0.600  0.0857  0.0959  0.1123
 7728SOL    HW124083   0.543   3.347   0.622 -2.5399  0.1714  1.7041
 7728SOL    HW224084   0.537   3.237   0.501 -0.4680  2.0853 -0.2264
 7729SOL     OW24085   2.319   1.626   1.484  0.0986 -0.3936 -0.0545
 7729SOL    HW124086   2.224   1.620   1.514 -0.1848 -0.0283 -0.8415
 7729SOL    HW224087   2.379   1.633   1.564 -0.6953  1.4031  0.4300
 7730SOL     OW24088   4.791   3.550   1.524 -0.6710 -0.0897 -0.0882
 7730SOL    HW124089   4.728   3.627   1.516  1.3551  1.6913  0.2163
 7730SOL    HW224090   4.806   3.510   1.433 -0.9323  0.5727 -0.4304
 7731SOL     OW24091   0.043   2.850   3.223  0.2853 -0.0394  0.1459
 7731SOL    HW124092   0.131   2.831   3.178  0.2088 -1.0436  0.3760
 7731SOL    HW224093  -0.018   2.897   3.160  1.4746  2.0037  0.4502
 7732SOL     OW24094   2.721   0.082   2.842 -0.5641 -0.1336  0.0441
 7732SOL    HW124095   2.789   0.062   2.914  1.6989  0.9019 -1.6709
 7732SOL    HW224096   2.697  -0.003   2.795 -0.3108 -0.4990  0.5674
 7733SOL     OW24097   4.256   6.253   3.865 -0.3418 -0.0254 -0.0088
 7733SOL    HW124098   4.161   6.232   3.890 -0.4025  0.2296 -0.0205
 7733SOL    HW224099   4.287   6.189   3.795 -0.4542 -0.2053  0.1045
 7734SOL     OW24100   3.121   3.532   2.111 -0.4398 -0.2957 -0.4831
 7734SOL    HW124101   3.122   3.467   2.187  1.8628  0.7972  0.5236
 7734SOL    HW224102   3.096   3.484   2.027  0.9823 -2.4797  0.2591
 7735SOL     OW24103   5.980   5.901   2.073 -0.4919  0.0819  0.7227
 7735SOL    HW124104   5.973   5.991   2.031  0.3185 -0.1811 -0.0003
 7735SOL    HW224105   6.010   5.911   2.168  0.3271  0.5475  0.4230
 7736SOL     OW24106   1.258   0.512   0.284 -0.0713 -0.0874 -0.4360
 7736SOL    HW124107   1.296   0.425   0.316 -1.1154 -0.3108  0.2289
 7736SOL    HW224108   1.268   0.581   0.355  0.5770  0.2964 -0.8893
 7737SOL     OW24109   3.969   4.209   6.992  0.5195  0.0356 -0.1427
 7737SOL    HW124110   4.024   4.179   6.914 -0.2845  1.0703 -1.1522
 7737SOL    HW224111   3.885   4.154   6.997  0.3760  0.2401 -0.2698
 7738SOL     OW24112   4.110   2.899   0.978  0.2519  0.4364  0.6442
 7738SOL    HW124113   4.150   2.857   0.897  1.0336  1.1780  0.6372
 7738SOL    HW224114   4.012   2.878   0.981  0.4340 -0.5380  0.1215
 7739SOL     OW24115   2.361   4.035   6.617  0.0946 -0.0188 -0.5464
 7739SOL    HW124116   2.313   4.123   6.619 -2.8986 -1.5255  0.0757
 7739SOL    HW224117   2.317   3.975   6.550  1.7950 -1.2273 -0.6353
 7740SOL     OW24118   4.580   5.815   0.262  0.2612  0.2628  0.5735
 7740SOL    HW124119   4.603   5.846   0.169  0.6510 -0.5174  0.4042
 7740SOL    HW224120   4.659   5.771   0.303 -0.1375 -0.0583  1.0025
 7741SOL     OW24121   3.088   0.762   1.567  0.2395 -0.1123  0.3162
 7741SOL    HW124122   3.015   0.719   1.622 -1.0781  0.9122 -0.5820
 7741SOL    HW224123   3.128   0.693   1.507 -0.4098 -0.5630  0.3808
 7742SOL     OW24124   3.523   1.248   0.828  0.0254  0.1233 -0.3920
 7742SOL    HW124125   3.467   1.327   0.852 -0.4431 -0.6896  1.3610
 7742SOL    HW224126   3.538   1.192   0.909  1.1550 -1.0936 -1.3964
 7743SOL     OW24127   1.750   4.790   5.179 -0.0120  0.6111 -0.8649
 7743SOL    HW124128   1.768   4.747   5.090  2.0129 -0.2763 -0.0709
 7743SOL    HW224129   1.820   4.859   5.197 -0.6376  1.0632 -0.1117
 7744SOL     OW24130   1.324   6.440   3.074 -0.4314 -0.2585 -0.1178
 7744SOL    HW124131   1.314   6.342   3.092  0.1924 -0.4715 -0.8439
 7744SOL    HW224132   1.417   6.468   3.098 -1.0603  0.5194  1.5888
 7745SOL     OW24133   1.462   0.481   5.975 -0.0961  0.3637 -0.2830
 7745SOL    HW124134   1.394   0.543   6.014 -0.7178 -0.9592  0.8343
 7745SOL    HW224135   1.415   0.406   5.929  0.5986 -0.4480  0.3044
 7746SOL     OW24136   5.229   3.810   5.928 -0.0997  0.1571 -0.0802
 7746SOL    HW124137   5.168   3.883   5.957 -0.5030  0.3158 -1.2522
 7746SOL    HW224138   5.276   3.837   5.844  1.0152 -0.2749  0.3814
 7747SOL     OW24139   3.894   3.181   5.008 -0.0191 -0.8945 -0.3697
 7747SOL    HW124140   3.958   3.257   5.017 -0.0413 -0.8369 -0.6888
 7747SOL    HW224141   3.928   3.102   5.059  0.4852 -0.9754 -0.8232
 7748SOL     OW24142   6.483   5.171   1.177  0.2081 -0.1372 -0.9912
 7748SOL    HW124143   6.547   5.247   1.179 -0.7016  0.6332  0.4913
 7748SOL    HW224144   6.532   5.086   1.196  0.8418  0.3914 -0.2135
 7749SOL     OW24145   2.200   4.597   6.435 -0.2003  0.7689  0.1376
 7749SOL    HW124146   2.142   4.632   6.509 -0.2185 -0.4757  0.7453
 7749SOL    HW224147   2.154   4.520   6.391 -0.2594  1.5919 -1.3023
 7750SOL     OW24148   3.997   0.519   4.436  0.3881  0.1080 -0.0009
 7750SOL    HW124149   3.959   0.511   4.528 -0.0112 -0.8118 -0.2409
 7750SOL    HW224150   3.968   0.442   4.380  1.2730  0.2419 -0.6798
 7751SOL     OW24151   6.545   3.296   3.480 -0.2434 -0.1943 -0.6507
 7751SOL    HW124152   6.449   3.324   3.478 -0.0267  0.6157 -0.4446
 7751SOL    HW224153   6.552   3.199   3.502 -1.0394 -0.4238 -1.3607
 7752SOL     OW24154   0.604   6.654   3.965  0.0960 -0.2038 -0.3552
 7752SOL    HW124155   0.625   6.597   3.886  0.1943 -2.2078  1.0379
 7752SOL    HW224156   0.679   6.649   4.031 -0.4014  0.6488  0.2979
 7753SOL     OW24157   6.807   2.579   1.689 -0.1458  0.3936  0.2401
 7753SOL    HW124158   6.780   2.569   1.593  0.0462 -0.4939  0.2710
 7753SOL    HW224159   6.803   2.490   1.734  0.3649  0.6997  0.8998
 7754SOL     OW24160   0.821   1.545   3.081 -0.2132 -0.1163  0.9502
 7754SOL    HW124161   0.765   1.567   3.162 -0.7562  0.6352  0.3912
 7754SOL    HW224162   0.786   1.596   3.002  0.3549 -0.7847  0.2533
 7755SOL     OW24163   2.198   3.918   2.366  0.0672  0.2313  0.5739
 7755SOL    HW124164   2.273   3.978   2.338  1.4330 -1.3022  0.8409
 7755SOL    HW224165   2.137   3.903   2.288  0.5800  0.6854  0.0770
 7756SOL     OW24166   4.839   5.738   0.359 -0.7879  0.0953 -0.7088
 7756SOL    HW124167   4.843   5.832   0.391 -1.2402 -0.4215  0.9621
 7756SOL    HW224168   4.888   5.730   0.273 -1.9855  2.1420 -1.6528
 7757SOL     OW24169   4.330   4.767   0.131  0.5400 -0.2046 -0.3129
 7757SOL    HW124170   4.282   4.682   0.155  0.1639 -0.2422 -1.1743
 7757SOL    HW224171   4.346   4.769   0.033  1.9983 -0.0208 -0.0908
 7758SOL     OW24172   2.115   1.029   3.935  0.2981 -0.1768 -0.1087
 7758SOL    HW124173   2.029   0.986   3.964 -1.4415  1.8911 -1.8235
 7758SOL    HW224174   2.094   1.113   3.886  3.3400  0.0329 -1.2104
 7759SOL     OW24175   3.739   3.922   0.455 -0.2203 -0.5920 -0.1927
 7759SOL    HW124176   3.641   3.941   0.461  0.0274  0.4739  0.8342
 7759SOL    HW224177   3.757   3.830   0.491 -0.8280 -0.7775 -0.3446
 7760SOL     OW24178   1.891   2.808   4.325 -0.0143  0.7711  0.3069
 7760SOL    HW124179   1.939   2.779   4.407 -0.4788  0.8678  0.6153
 7760SOL    HW224180   1.938   2.887   4.284  0.0169  0.9413  0.6717
 7761SOL     OW24181   2.913   6.322   0.543 -0.2672  0.0405 -0.2802
 7761SOL    HW124182   2.943   6.412   0.510 -0.9072  0.3975  0.0986
 7761SOL    HW224183   2.883   6.266   0.466  1.9482 -0.5762 -0.7722
 7762SOL     OW24184   6.066   4.221   6.396 -0.6646  0.1346 -0.3193
 7762SOL    HW124185   6.027   4.215   6.304  1.6823  1.5322 -1.4857
 7762SOL    HW224186   6.129   4.298   6.401  0.9561 -1.2049  1.8305
 7763SOL     OW24187   0.769   0.505   4.175 -0.8918  0.4029  0.0826
 7763SOL    HW124188   0.770   0.436   4.248 -0.8296 -1.4827 -1.5905
 7763SOL    HW224189   0.710   0.473   4.100  0.5902  1.2839 -1.5457
 7764SOL     OW24190   1.471   4.487   5.714  0.0951 -0.0197 -0.2631
 7764SOL    HW124191   1.486   4.404   5.661  0.8101 -0.3535  0.4329
 7764SOL    HW224192   1.531   4.486   5.794 -1.0534  0.3935  0.6348
 7765SOL     OW24193   1.201   1.242   0.272 -0.0533 -0.8749  0.1538
 7765SOL    HW124194   1.108   1.277   0.260  0.8126  2.4366  1.8612
 7765SOL    HW224195   1.262   1.285   0.206  0.7376 -0.8249  0.8994
 7766SOL     OW24196   2.814   0.079   6.344 -0.9087  0.1223  0.8558
 7766SOL    HW124197   2.887   0.014   6.366 -0.6007 -0.9229 -2.6447
 7766SOL    HW224198   2.727   0.042   6.376 -0.6932 -1.9538 -0.6901
 7767SOL     OW24199   2.257   6.493   5.453 -0.0652  0.2362 -0.5268
 7767SOL    HW124200   2.313   6.419   5.414 -0.5500  0.6408 -2.0212
 7767SOL    HW224201   2.242   6.563   5.384 -0.6191  1.1741  0.5271
 7768SOL     OW24202   3.924   0.407   6.323 -0.0696 -0.6501  0.2555
 7768SOL    HW124203   4.004   0.348   6.314 -1.5533 -3.1001  1.9763
 7768SOL    HW224204   3.954   0.500   6.347  2.2679 -1.0722 -0.7863
 7769SOL     OW24205   0.099   0.186   5.888  0.0129  0.3555 -0.2126
 7769SOL    HW124206   0.037   0.264   5.876 -1.0007 -0.4573 -0.4102
 7769SOL    HW224207   0.104   0.135   5.802  2.7909  1.6655 -0.9563
 7770SOL     OW24208   1.489   4.704   3.342 -0.9511 -0.3788  0.5612
 7770SOL    HW124209   1.424   4.665   3.276  0.1566 -1.9040  0.3340
 7770SOL    HW224210   1.537   4.630   3.389 -0.9049  0.7058  2.2934
 7771SOL     OW24211   5.882   2.097   6.202 -0.0965  0.4786  0.0909
 7771SOL    HW124212   5.814   2.094   6.129 -2.2467  0.9047  1.9589
 7771SOL    HW224213   5.957   2.034   6.181 -0.9381  0.1389 -2.1411
 7772SOL     OW24214   6.963   0.968   6.475 -0.0187 -0.4302  0.3050
 7772SOL    HW124215   7.002   0.896   6.532 -0.0413 -1.6363 -1.1665
 7772SOL    HW224216   6.982   1.057   6.517 -0.0658 -1.2630  2.1961
 7773SOL     OW24217   3.726   5.237   1.391 -0.5880 -0.1499  0.1250
 7773SOL    HW124218   3.664   5.160   1.407 -0.5526 -0.3541 -0.6985
 7773SOL    HW224219   3.694   5.290   1.313 -0.7924  0.8694  0.8851
 7774SOL     OW24220   2.446   2.002   2.419 -0.3726 -0.3603  0.3987
 7774SOL    HW124221   2.525   1.950   2.449 -0.7701 -0.2679  1.6744
 7774SOL    HW224222   2.368   1.982   2.479 -2.0189 -2.2467 -2.1764
 7775SOL     OW24223   5.641   2.611   5.389  0.3628 -0.1390 -0.5228
 7775SOL    HW124224   5.728   2.565   5.369  0.3932  0.1436 -1.0571
 7775SOL    HW224225   5.631   2.690   5.329  0.6534  1.0085  0.8871
 7776SOL     OW24226   1.330   5.998   5.194 -0.1387  0.2738  0.0513
 7776SOL    HW124227   1.250   5.961   5.147 -0.3666  0.4782  0.2760
 7776SOL    HW224228   1.325   6.098   5.195 -0.9425  0.2624  1.8709
 7777SOL     OW24229   0.458   2.432   1.912  0.1424 -1.2472 -0.5638
 7777SOL    HW124230   0.384   2.457   1.850  0.4871 -0.4290 -0.6583
 7777SOL    HW224231   0.451   2.335   1.934 -1.7181 -0.9261  0.4559
 7778SOL     OW24232   6.446   3.450   2.290 -0.8348  0.7979  0.0926
 7778SOL    HW124233   6.536   3.484   2.263 -0.2162 -0.6827  0.2075
 7778SOL    HW224234   6.424   3.369   2.236 -1.0207 -0.2907  1.7377
 7779SOL     OW24235   1.821   1.168   6.132 -0.5678 -0.3606  0.0627
 7779SOL    HW124236   1.894   1.230   6.102 -1.1554  0.1626 -0.3206
 7779SOL    HW224237   1.820   1.087   6.074 -1.5621  0.5485 -1.2811
 7780SOL     OW24238   1.163   4.393   6.348 -0.8137  0.0522  0.1418
 7780SOL    HW124239   1.175   4.457   6.424 -2.1943  1.4613 -0.7468
 7780SOL    HW224240   1.099   4.433   6.282 -0.5205 -1.6195 -1.2078
 7781SOL     OW24241   0.784   4.212   5.790  0.5352  0.1808  0.2142
 7781SOL    HW124242   0.838   4.230   5.873 -0.3386 -0.7241  1.0172
 7781SOL    HW224243   0.809   4.122   5.754  0.6615  0.4234 -0.3121
 7782SOL     OW24244   6.019   4.826   3.771 -0.1525 -0.0250  0.0371
 7782SOL    HW124245   6.069   4.892   3.827 -0.4696  0.9210 -0.7677
 7782SOL    HW224246   6.070   4.740   3.767 -0.2728 -0.2323  2.0146
 7783SOL     OW24247   1.982   0.322   5.344  0.6251  0.4875  0.2789
 7783SOL    HW124248   2.032   0.242   5.374  0.3162  0.0714 -0.2877
 7783SOL    HW224249   1.994   0.335   5.245  1.7649  1.9226  0.5680
 7784SOL     OW24250   3.072   6.723   3.584  0.2392  1.2190 -0.8928
 7784SOL    HW124251   3.153   6.669   3.559 -0.4851 -0.4797  0.3020
 7784SOL    HW224252   3.038   6.770   3.503  1.4662  0.6527 -1.7707
 7785SOL     OW24253   2.183   3.998   4.831  0.1840  0.6620 -0.7166
 7785SOL    HW124254   2.207   4.000   4.928 -3.2413 -0.9804  0.3176
 7785SOL    HW224255   2.239   4.064   4.781  4.1990 -0.5378  1.7756
 7786SOL     OW24256   5.435   0.724   5.197  0.0467  0.1057 -0.2430
 7786SOL    HW124257   5.340   0.694   5.207  0.2750 -0.9384 -1.0429
 7786SOL    HW224258   5.481   0.722   5.286 -0.9315  1.5611  0.3256
 7787SOL     OW24259   1.072   2.363   3.339  0.3462  0.2336  0.0194
 7787SOL    HW124260   1.141   2.432   3.363 -0.9346  1.5192  0.1279
 7787SOL    HW224261   1.060   2.361   3.240  0.0871  0.4747  0.0441
 7788SOL     OW24262   4.190   1.444   2.264  0.2136 -0.2324 -0.2203
 7788SOL    HW124263   4.177   1.353   2.224  1.3216 -0.6717  0.3532
 7788SOL    HW224264   4.131   1.510   2.218 -1.6772 -1.4900  0.3190
 7789SOL     OW24265   0.280   6.054   4.289 -0.6594 -0.3287  0.1286
 7789SOL    HW124266   0.321   6.005   4.212 -0.8119  0.2801 -0.3492
 7789SOL    HW224267   0.198   6.102   4.257 -1.3708 -0.9974  0.9266
 7790SOL     OW24268   5.633   2.159   3.986 -0.5425  0.0449  0.5829
 7790SOL    HW124269   5.576   2.117   3.915 -1.3251 -0.4256  1.4661
 7790SOL    HW224270   5.575   2.203   4.054  0.1278 -0.6326  1.6184
 7791SOL     OW24271   1.450   1.656   6.675 -0.3384  0.8818 -0.3146
 7791SOL    HW124272   1.421   1.594   6.603  1.6616 -0.7065  0.1479
 7791SOL    HW224273   1.453   1.750   6.639  2.2507 -0.0415 -2.9553
 7792SOL     OW24274   0.261   1.318   2.407 -0.2241 -0.5993 -0.1823
 7792SOL    HW124275   0.359   1.336   2.402 -0.5403  1.0983 -0.9226
 7792SOL    HW224276   0.235   1.255   2.334  0.1603 -0.3143 -0.5703
 7793SOL     OW24277   4.225   0.013   2.576  0.4749 -0.5017  0.6758
 7793SOL    HW124278   4.198   0.080   2.507  2.7652 -0.8221 -0.6115
 7793SOL    HW224279   4.151  -0.053   2.589  0.5626 -1.4643 -2.7771
 7794SOL     OW24280   2.103   4.104   1.386  0.3862  0.4065 -0.5046
 7794SOL    HW124281   2.005   4.112   1.404  0.7861  0.5722  1.9541
 7794SOL    HW224282   2.130   4.172   1.318 -1.0785  0.8455 -0.6776
 7795SOL     OW24283   0.657   3.178   1.804 -0.1483 -0.6847  0.0827
 7795SOL    HW124284   0.573   3.217   1.765  0.2103 -0.3431 -0.3579
 7795SOL    HW224285   0.696   3.243   1.869  1.1976  0.3483 -1.6655
 7796SOL     OW24286   2.045   1.300   1.308  0.5217 -0.0491  0.1076
 7796SOL    HW124287   1.947   1.302   1.329 -0.0286 -0.1607 -2.1660
 7796SOL    HW224288   2.071   1.386   1.265  0.6603 -1.1716 -2.1794
 7797SOL     OW24289   5.051   5.289   1.226  0.1256  0.0451  0.5323
 7797SOL    HW124290   5.017   5.199   1.255  0.4921  0.5804  2.8933
 7797SOL    HW224291   4.988   5.329   1.161  0.9019 -2.6744 -2.1166
 7798SOL     OW24292   1.313   2.205   6.075  0.1689 -0.5034  0.3338
 7798SOL    HW124293   1.232   2.245   6.117  0.1921 -0.3548  0.2353
 7798SOL    HW224294   1.349   2.266   6.005  0.3823 -0.5574  0.3952
 7799SOL     OW24295   6.767   3.178   5.555  0.1223  0.2368 -0.0456
 7799SOL    HW124296   6.788   3.273   5.534 -0.7586  0.9659  2.0554
 7799SOL    HW224297   6.681   3.152   5.511  0.5579  0.2781 -0.9318
 7800SOL     OW24298   5.284   2.012   4.782  0.9139  0.4960 -0.3197
 7800SOL    HW124299   5.290   1.922   4.739 -1.3546 -0.0079  0.3196
 7800SOL    HW224300   5.277   2.001   4.881 -0.2691  1.3228 -0.2959
 7801SOL     OW24301   4.849   3.672   0.027  0.0654 -0.5377  0.0335
 7801SOL    HW124302   4.908   3.593   0.043  0.0176 -0.5838 -0.0153
 7801SOL    HW224303   4.841   3.725   0.112 -0.8317 -1.2193  0.4040
 7802SOL     OW24304   4.130   4.403   5.936  0.3704  0.0105  1.0266
 7802SOL    HW124305   4.179   4.453   6.007  0.8325  1.2209 -0.0951
 7802SOL    HW224306   4.125   4.459   5.853 -1.4437 -0.7594  0.5523
 7803SOL     OW24307   1.289   0.110   2.641 -0.0722 -0.0805 -0.5543
 7803SOL    HW124308   1.332   0.176   2.703  0.5817  0.2290 -1.3130
 7803SOL    HW224309   1.341   0.107   2.555  1.0152 -2.9423  0.0898
 7804SOL     OW24310   3.448   6.979   4.690 -0.4758 -0.3396  0.1752
 7804SOL    HW124311   3.427   7.055   4.628 -0.2347  0.4466  1.0456
 7804SOL    HW224312   3.543   6.951   4.677 -0.6046 -0.5838 -0.2445
 7805SOL     OW24313   4.030   1.680   6.453 -0.5319 -0.3253  0.2899
 7805SOL    HW124314   4.031   1.715   6.547 -0.6339  0.2979  0.0590
 7805SOL    HW224315   3.938   1.685   6.416 -0.8689 -2.2139  0.7527
 7806SOL     OW24316   6.279   5.442   1.439  0.0689 -0.0204 -0.6152
 7806SOL    HW124317   6.372   5.467   1.467 -0.7773 -0.0655  2.7236
 7806SOL    HW224318   6.218   5.519   1.455 -0.9642 -1.0161  0.4616
 7807SOL     OW24319   6.018   2.791   6.153 -0.1734 -0.1097 -0.3528
 7807SOL    HW124320   6.112   2.810   6.183 -0.0815 -1.6513  0.4427
 7807SOL    HW224321   5.994   2.697   6.176 -2.3838  0.6194  0.6349
 7808SOL     OW24322   0.546   1.491   6.124 -0.5963 -0.1544  0.3283
 7808SOL    HW124323   0.580   1.397   6.121  0.6241  0.2653  0.4907
 7808SOL    HW224324   0.595   1.542   6.194  1.0653  1.4602 -1.8679
 7809SOL     OW24325   3.459   5.108   0.208 -0.2502  0.1660  0.4439
 7809SOL    HW124326   3.510   5.121   0.293 -0.3878 -1.6295  0.8429
 7809SOL    HW224327   3.519   5.125   0.130  0.3660  0.1770  0.9134
 7810SOL     OW24328   1.904   1.644   4.301  0.5453  0.2829  0.6483
 7810SOL    HW124329   1.986   1.681   4.258  0.5706 -0.5385 -0.0259
 7810SOL    HW224330   1.858   1.716   4.351  1.1929  0.9630  0.2856
 7811SOL     OW24331   5.264   3.740   3.683  0.9117  0.1312 -0.3789
 7811SOL    HW124332   5.348   3.748   3.736  1.3523 -1.2920 -0.8113
 7811SOL    HW224333   5.276   3.671   3.611 -0.7983 -0.5274 -0.0876
 7812SOL     OW24334   0.380   3.463   3.016  0.3434  0.4018 -0.5343
 7812SOL    HW124335   0.295   3.516   3.022  1.4427  2.1966  0.3921
 7812SOL    HW224336   0.364   3.378   2.967 -1.9982  0.6417 -0.2735
 7813SOL     OW24337   0.957   4.427   0.064 -0.2793  0.1705  0.2632
 7813SOL    HW124338   0.866   4.461   0.045 -0.2580  1.2405  1.8428
 7813SOL    HW224339   0.978   4.440   0.161  1.1221 -1.1013  0.1750
 7814SOL     OW24340   4.284   6.311   2.546  0.1611 -0.1373  0.7721
 7814SOL    HW124341   4.278   6.407   2.573  0.0843 -0.5022  2.1064
 7814SOL    HW224342   4.260   6.303   2.449  0.1612  1.1824  0.6379
 7815SOL     OW24343   5.528   4.561   2.302 -0.0432 -0.0255 -0.2374
 7815SOL    HW124344   5.467   4.570   2.223 -1.0300  0.3470  0.5572
 7815SOL    HW224345   5.532   4.464   2.329 -0.6219  0.0041 -0.0324
 7816SOL     OW24346   0.039   3.148   5.558 -0.6903  0.4005  0.7440
 7816SOL    HW124347   0.069   3.192   5.473  0.5628 -0.4429  0.7168
 7816SOL    HW224348  -0.060   3.160   5.569 -1.8663 -3.1418 -3.1481
 7817SOL     OW24349   4.572   4.569   4.818  0.0942 -0.1342 -0.0056
 7817SOL    HW124350   4.506   4.576   4.743 -0.8919 -0.0262  0.8456
 7817SOL    HW224351   4.537   4.505   4.886  1.1084 -0.4389  0.2442
 7818SOL     OW24352   6.466   0.756   6.647  0.0338 -0.3647  0.4234
 7818SOL    HW124353   6.546   0.751   6.587  0.9713  0.3896  1.5704
 7818SOL    HW224354   6.492   0.728   6.740 -0.5283  1.7244  1.2732
 7819SOL     OW24355   5.530   4.505   0.301 -0.2967 -0.4180  0.6707
 7819SOL    HW124356   5.545   4.541   0.393 -0.5356 -0.5788  0.7758
 7819SOL    HW224357   5.507   4.407   0.308 -3.1252  0.1590  0.6822
 7820SOL     OW24358   4.720   6.396   0.815 -0.2777  0.8546  0.2413
 7820SOL    HW124359   4.804   6.443   0.786  0.4723 -0.1212  0.7721
 7820SOL    HW224360   4.669   6.455   0.878 -0.4799  1.8325 -0.8084
 7821SOL     OW24361   1.476   0.036   6.414 -0.6753  0.0831  0.3270
 7821SOL    HW124362   1.510   0.125   6.443  1.4894 -0.0741 -1.4770
 7821SOL    HW224363   1.376   0.039   6.408 -0.7078  2.1095  1.0932
 7822SOL     OW24364   2.110   2.367   4.683 -0.3228  0.0204  0.2582
 7822SOL    HW124365   2.073   2.363   4.590 -0.8047 -0.4030  0.4584
 7822SOL    HW224366   2.034   2.360   4.748  0.0198  0.2454  0.6811
 7823SOL     OW24367   6.628   0.917   4.424 -0.3740 -0.1929 -0.4425
 7823SOL    HW124368   6.595   0.826   4.447 -0.3257 -0.1592 -0.2437
 7823SOL    HW224369   6.556   0.984   4.443  0.7143  0.2571  2.7505
 7824SOL     OW24370   4.611   1.323   6.182 -0.2280 -0.4421  1.0438
 7824SOL    HW124371   4.671   1.283   6.113  0.4799 -0.6555  1.7569
 7824SOL    HW224372   4.622   1.422   6.183 -0.8779 -0.3555  0.2808
 7825SOL     OW24373   0.016   1.010   6.227  0.9032 -0.1759  0.2052
 7825SOL    HW124374   0.040   0.915   6.207 -0.9242 -0.7013  0.2926
 7825SOL    HW224375  -0.023   1.016   6.319  0.9176  0.6514  0.1672
 7826SOL     OW24376   0.702   3.921   6.528 -0.2092  0.7160 -0.1277
 7826SOL    HW124377   0.664   4.005   6.490  0.4964  1.0784 -0.0464
 7826SOL    HW224378   0.785   3.942   6.580 -1.7180  0.4315  2.6323
 7827SOL     OW24379   6.288   3.596   3.457 -0.4000  0.3180 -0.5185
 7827SOL    HW124380   6.349   3.665   3.495 -0.4890  2.3100 -3.7004
 7827SOL    HW224381   6.193   3.626   3.467 -0.6278 -0.6258  0.3649
 7828SOL     OW24382   4.355   5.315   1.878  0.7528  0.0292 -1.0460
 7828SOL    HW124383   4.410   5.292   1.958  0.1935 -0.3312 -0.7610
 7828SOL    HW224384   4.406   5.291   1.795  1.0326 -0.2930 -0.7857
 7829SOL     OW24385   4.918   5.210   2.149 -0.1507 -0.3072  0.2049
 7829SOL    HW124386   4.872   5.194   2.237 -0.0996 -0.8243  0.1389
 7829SOL    HW224387   4.895   5.301   2.116 -1.6872 -0.8057 -0.1714
 7830SOL     OW24388   0.174   1.541   2.561  0.6054  0.0699 -0.6409
 7830SOL    HW124389   0.193   1.456   2.511  0.1484 -0.0827 -0.5650
 7830SOL    HW224390   0.079   1.540   2.592 -0.0102  1.4452 -2.3106
 7831SOL     OW24391   0.318   1.321   3.909  0.1909  0.2013  0.1056
 7831SOL    HW124392   0.368   1.289   3.989  0.4329  2.5284  0.9464
 7831SOL    HW224393   0.232   1.270   3.901  0.1424 -0.0432  1.8747
 7832SOL     OW24394   2.440   3.585   5.895  0.3934 -0.1236  0.1032
 7832SOL    HW124395   2.458   3.643   5.974 -1.9128  1.2377 -0.2818
 7832SOL    HW224396   2.413   3.641   5.817 -2.4812 -1.6357 -0.1363
 7833SOL     OW24397   5.087   5.513   6.104  0.0691 -0.2176 -0.5281
 7833SOL    HW124398   5.051   5.457   6.178  2.6811  0.7413  1.6386
 7833SOL    HW224399   5.140   5.455   6.041 -0.6495 -0.7702 -0.6347
 7834SOL     OW24400   3.957   2.173   1.033 -0.2695 -0.2527  0.2845
 7834SOL    HW124401   3.970   2.272   1.030  1.5224 -0.4314  0.8578
 7834SOL    HW224402   3.908   2.149   1.117 -0.9273  0.1472  0.0278
 7835SOL     OW24403   5.800   3.829   4.517 -0.5814 -0.7359  0.1222
 7835SOL    HW124404   5.718   3.882   4.493  0.2372  1.2726  1.5273
 7835SOL    HW224405   5.864   3.831   4.441  0.5416  2.6507  1.0014
 7836SOL     OW24406   4.193   4.465   6.688  0.4847 -0.6810  0.2420
 7836SOL    HW124407   4.214   4.562   6.676  2.2158 -0.4409  3.7373
 7836SOL    HW224408   4.257   4.411   6.634  1.6454  0.1881  0.6800
 7837SOL     OW24409   3.202   6.376   0.078  0.3281  0.2036 -0.0417
 7837SOL    HW124410   3.169   6.315   0.006  1.0112 -0.9971  0.6240
 7837SOL    HW224411   3.301   6.365   0.088  0.4737  1.4899  0.0539
 7838SOL     OW24412   0.438   4.766   0.275 -0.3878 -0.2624 -0.1268
 7838SOL    HW124413   0.417   4.861   0.301 -1.7525  0.1993 -2.5744
 7838SOL    HW224414   0.443   4.710   0.357 -0.2911  1.7788  1.3560
 7839SOL     OW24415   6.800   2.580   2.423  0.0266  0.5787 -0.0457
 7839SOL    HW124416   6.784   2.615   2.330  1.3579  1.0043 -0.1350
 7839SOL    HW224417   6.763   2.488   2.430 -0.1732  0.5699 -0.9784
 7840SOL     OW24418   4.603   5.599   4.918  0.2300 -0.1827 -0.2746
 7840SOL    HW124419   4.668   5.666   4.882  0.9183 -0.9370 -0.4717
 7840SOL    HW224420   4.514   5.643   4.932  1.1424  1.2773  1.4470
 7841SOL     OW24421   5.460   3.072   2.466  0.1355 -0.2965 -0.6231
 7841SOL    HW124422   5.414   3.135   2.404  0.0611 -0.7898 -1.0683
 7841SOL    HW224423   5.459   2.980   2.428  0.8553 -0.4465 -0.2949
 7842SOL     OW24424   1.145   5.825   5.845  0.1791  0.0630  0.7234
 7842SOL    HW124425   1.232   5.834   5.894  1.1994  0.2205 -1.0288
 7842SOL    HW224426   1.161   5.781   5.757 -1.5574  0.0037  0.3988
 7843SOL     OW24427   6.757   4.054   6.095 -0.1212 -0.2937  0.1523
 7843SOL    HW124428   6.825   3.995   6.052 -0.1356 -0.4386  0.3271
 7843SOL    HW224429   6.773   4.149   6.068  0.8260 -0.1769  1.0664
 7844SOL     OW24430   4.169   1.533   1.382 -0.0489  0.3323 -0.2275
 7844SOL    HW124431   4.183   1.561   1.477  0.1829  0.6148 -0.3444
 7844SOL    HW224432   4.258   1.512   1.340 -0.2157 -0.7085 -0.1065
 7845SOL     OW24433   6.911   3.409   5.789  0.4699 -0.5155 -0.3013
 7845SOL    HW124434   6.975   3.485   5.778 -1.2867  1.2483  0.9206
 7845SOL    HW224435   6.860   3.396   5.704  0.9976 -0.5731 -0.6174
 7846SOL     OW24436   1.610   4.310   3.685 -0.4735 -0.0402  0.4097
 7846SOL    HW124437   1.654   4.225   3.659 -0.2212 -0.0279  0.7944
 7846SOL    HW224438   1.511   4.296   3.695 -0.2488 -0.6804  2.0520
 7847SOL     OW24439   1.245   0.081   1.965  0.4684  0.0430  0.0736
 7847SOL    HW124440   1.316   0.149   1.946  1.0312 -0.7403 -0.7114
 7847SOL    HW224441   1.236   0.020   1.887  0.8206 -1.5312  1.2237
 7848SOL     OW24442   3.701   6.282   6.717 -0.1579 -0.3226  0.2784
 7848SOL    HW124443   3.687   6.371   6.672  0.1895 -0.2979  0.2109
 7848SOL    HW224444   3.619   6.226   6.707  0.1920 -0.6385 -1.1413
 7849SOL     OW24445   4.531   2.519   3.542 -0.3138  0.2290  0.3050
 7849SOL    HW124446   4.480   2.602   3.560  0.8271  0.9552  0.3292
 7849SOL    HW224447   4.477   2.439   3.568 -1.7636  0.9127 -0.5514
 7850SOL     OW24448   4.282   3.246   0.723  0.0350 -0.8073  0.5673
 7850SOL    HW124449   4.285   3.199   0.811  0.0082 -0.7002  0.6265
 7850SOL    HW224450   4.190   3.280   0.706  0.4538  0.8166  1.3804
 7851SOL     OW24451   4.549   5.999   1.684  0.1692 -0.2292 -0.1993
 7851SOL    HW124452   4.520   5.914   1.728  0.6551 -0.4247 -0.2498
 7851SOL    HW224453   4.506   6.077   1.731 -0.1141 -0.4869 -0.0222
 7852SOL     OW24454   4.985   3.669   5.701  0.0162  0.2666  0.2206
 7852SOL    HW124455   4.898   3.619   5.706 -0.7932  1.7129  1.1857
 7852SOL    HW224456   4.974   3.759   5.743  2.2130  0.1713  1.0969
 7853SOL     OW24457   3.417   4.187   5.795  0.1507  0.1254 -0.0676
 7853SOL    HW124458   3.342   4.130   5.828 -0.1995  0.5667 -0.1024
 7853SOL    HW224459   3.498   4.130   5.781  0.6880  0.0688  2.6556
 7854SOL     OW24460   6.053   5.521   4.157  0.0676 -0.0519  0.7181
 7854SOL    HW124461   5.991   5.520   4.078  1.5858 -0.8693 -0.5200
 7854SOL    HW224462   6.046   5.434   4.206 -2.1430  1.0814  2.5986
 7855SOL     OW24463   6.558   3.913   1.471 -0.1412 -0.2654  0.3324
 7855SOL    HW124464   6.565   3.820   1.434 -0.0164 -0.2518  0.3218
 7855SOL    HW224465   6.462   3.939   1.476 -0.1613 -0.2918  0.0818
 7856SOL     OW24466   1.588   3.643   1.921 -0.2996  0.0694  0.4687
 7856SOL    HW124467   1.514   3.575   1.928 -0.1878 -0.0064  0.9120
 7856SOL    HW224468   1.550   3.735   1.934 -0.5807  0.1698 -0.8664
 7857SOL     OW24469   0.178   3.468   5.502 -0.2922  0.2796  0.2846
 7857SOL    HW124470   0.213   3.454   5.595  0.0705 -2.1571 -0.1520
 7857SOL    HW224471   0.252   3.451   5.437 -1.1374 -0.4069 -0.5074
 7858SOL     OW24472   1.898   2.858   4.761 -0.1700  0.2876  0.0813
 7858SOL    HW124473   1.956   2.776   4.755 -1.2596 -0.5950  1.0178
 7858SOL    HW224474   1.919   2.907   4.845 -0.9138 -0.1732  0.5522
 7859SOL     OW24475   6.648   1.195   2.394 -0.3372 -0.5310 -0.0298
 7859SOL    HW124476   6.592   1.275   2.372 -0.6788 -0.6341  0.4586
 7859SOL    HW224477   6.605   1.113   2.357 -1.0943 -0.7512  1.2660
 7860SOL     OW24478   1.899   1.695   2.555  0.3030  0.7758  0.4041
 7860SOL    HW124479   1.814   1.732   2.517 -0.1078 -0.1222  0.4206
 7860SOL    HW224480   1.904   1.718   2.653 -1.3976 -1.6288  1.1563
 7861SOL     OW24481   1.838   3.201   3.540  0.2389 -0.6662 -0.1370
 7861SOL    HW124482   1.823   3.266   3.614  3.1253 -0.4932  0.4406
 7861SOL    HW224483   1.829   3.108   3.575 -3.3948 -0.7244 -0.8499
 7862SOL     OW24484   5.324   6.157   4.032 -0.4253 -0.6868 -0.2076
 7862SOL    HW124485   5.269   6.178   4.112  0.7238  0.5513  0.2947
 7862SOL    HW224486   5.363   6.241   3.995 -0.2252 -1.3402 -1.5464
 7863SOL     OW24487   6.710   4.225   1.886  0.0243  0.2311 -0.1036
 7863SOL    HW124488   6.736   4.171   1.966 -0.2971  1.0027  0.5307
 7863SOL    HW224489   6.661   4.167   1.821  2.3068 -1.0069 -0.8410
 7864SOL     OW24490   3.254   0.229   2.405  0.2379  0.3490  0.6287
 7864SOL    HW124491   3.189   0.155   2.422  1.3443 -0.4833  1.4016
 7864SOL    HW224492   3.299   0.214   2.316 -0.6851  0.9876  0.0413
 7865SOL     OW24493   0.611   2.583   4.019 -0.4004  0.4497  0.1862
 7865SOL    HW124494   0.617   2.509   4.086  2.9147 -1.1332 -1.6107
 7865SOL    HW224495   0.640   2.669   4.061 -0.9168  0.0529  1.3989
 7866SOL     OW24496   4.509   2.190   1.964  0.2584  0.4051 -0.0151
 7866SOL    HW124497   4.504   2.188   1.865 -0.4871  2.5436 -0.0654
 7866SOL    HW224498   4.458   2.113   2.002 -1.8777  1.1168 -1.2643
 7867SOL     OW24499   1.261   1.124   4.836  0.0815  0.3193 -0.4711
 7867SOL    HW124500   1.242   1.075   4.921  0.3925 -0.4940 -0.8597
 7867SOL    HW224501   1.357   1.152   4.834  0.0901  0.2831 -0.5805
 7868SOL     OW24502   3.302   1.167   6.872  0.3751  0.3263 -0.1531
 7868SOL    HW124503   3.241   1.118   6.809 -0.3405  0.9237  0.0712
 7868SOL    HW224504   3.278   1.264   6.873  1.2756  0.5558  0.0092
 7869SOL     OW24505   1.844   6.019   0.968 -0.0800  0.4053 -0.7566
 7869SOL    HW124506   1.816   5.953   1.038  0.2335  1.4966  0.4485
 7869SOL    HW224507   1.764   6.046   0.914 -0.1236 -1.2976 -1.6061
 7870SOL     OW24508   0.496   0.507   1.644 -0.3114 -0.4960 -0.3690
 7870SOL    HW124509   0.535   0.599   1.655 -0.7588 -0.5300  1.9904
 7870SOL    HW224510   0.498   0.482   1.547  2.0456  0.9989 -0.8065
 7871SOL     OW24511   0.660   2.067   3.342  0.3768 -0.1592 -0.1203
 7871SOL    HW124512   0.630   2.160   3.323 -1.8242 -0.1744  2.6802
 7871SOL    HW224513   0.595   2.002   3.303 -0.7800 -0.3142  1.9104
 7872SOL     OW24514   1.746   1.552   4.122  0.0598  0.9457  0.1209
 7872SOL    HW124515   1.800   1.474   4.088 -1.4381 -0.2346  0.3202
 7872SOL    HW224516   1.789   1.589   4.205  0.0499 -0.6220  0.8664
 7873SOL     OW24517   5.082   2.833   6.398  0.3523  0.0892 -0.2784
 7873SOL    HW124518   5.117   2.792   6.314  0.2574 -1.4340  0.3981
 7873SOL    HW224519   5.146   2.815   6.473 -0.1214  0.4221  0.2123
 7874SOL     OW24520   4.458   0.180   2.619  0.3359 -0.0062  0.2604
 7874SOL    HW124521   4.381   0.122   2.591  0.6737 -0.8451  1.0192
 7874SOL    HW224522   4.425   0.273   2.636 -0.3387 -0.1285 -0.3084
 7875SOL     OW24523   0.093   4.007   3.955 -0.3701  0.1692  0.0021
 7875SOL    HW124524   0.052   4.078   3.898 -0.0782  0.3048 -0.0426
 7875SOL    HW224525   0.133   4.050   4.036 -1.1967 -0.0669  0.5568
 7876SOL     OW24526   4.063   0.908   2.185  0.3964  0.2352  0.0439
 7876SOL    HW124527   4.041   0.917   2.088  2.2606  0.6742 -0.3670
 7876SOL    HW224528   3.979   0.920   2.239 -0.4705  1.2028 -1.4357
 7877SOL     OW24529   2.955   3.432   3.195  0.4197 -0.1066 -0.2512
 7877SOL    HW124530   2.976   3.340   3.228 -1.7858 -0.4522  0.3122
 7877SOL    HW224531   2.932   3.490   3.273 -2.7364 -0.3564 -0.8719
 7878SOL     OW24532   3.978   3.759   6.785  0.5410  0.1369 -0.3393
 7878SOL    HW124533   4.037   3.810   6.848  0.5351 -1.0851  0.6949
 7878SOL    HW224534   4.034   3.713   6.717  0.7082 -0.1791  0.0093
 7879SOL     OW24535   5.021   1.220   6.339  0.6250  0.1565 -0.4166
 7879SOL    HW124536   4.970   1.305   6.351  1.1434  0.2171  1.9624
 7879SOL    HW224537   4.981   1.149   6.397  2.7174 -0.0005  0.9464
 7880SOL     OW24538   5.791   4.979   3.992  0.2923 -0.2297  0.2196
 7880SOL    HW124539   5.789   5.007   4.088 -0.2197 -0.1875  0.1972
 7880SOL    HW224540   5.711   4.922   3.972  1.4940 -2.0793  0.3662
 7881SOL     OW24541   6.041   2.881   5.832 -0.0616 -0.0925 -0.1670
 7881SOL    HW124542   6.106   2.845   5.899 -1.1629  1.7184  2.0413
 7881SOL    HW224543   6.007   2.806   5.775  0.5844 -1.8726  1.6460
 7882SOL     OW24544   0.143   0.603   4.376  0.1858 -0.1130 -0.0363
 7882SOL    HW124545   0.063   0.662   4.367 -0.2949 -0.6926  0.3551
 7882SOL    HW224546   0.187   0.592   4.286 -0.7500 -0.5768 -0.4556
 7883SOL     OW24547   1.808   1.960   2.893  0.0397  0.2365  0.5856
 7883SOL    HW124548   1.831   1.933   2.986 -0.3668  1.4155  1.0458
 7883SOL    HW224549   1.715   1.930   2.871 -0.5184  1.4343  1.1982
 7884SOL     OW24550   1.522   0.611   2.632 -0.5734 -0.0111  0.2395
 7884SOL    HW124551   1.521   0.665   2.548  0.5040 -0.4760 -0.0918
 7884SOL    HW224552   1.537   0.515   2.609 -2.1330 -0.4323  0.8425
 7885SOL     OW24553   1.548   5.256   4.845 -0.7169 -0.2903 -0.2280
 7885SOL    HW124554   1.604   5.175   4.826  0.6695  0.5506  0.1683
 7885SOL    HW224555   1.469   5.229   4.902  1.2095 -0.9463  2.3088
 7886SOL     OW24556   2.312   2.666   0.205 -0.3726 -0.5099 -0.4255
 7886SOL    HW124557   2.236   2.668   0.270  0.3920 -0.4034  0.4910
 7886SOL    HW224558   2.398   2.671   0.255  0.3562 -3.4470 -1.2264
 7887SOL     OW24559   4.431   1.897   4.164  0.0991 -0.3306  0.5004
 7887SOL    HW124560   4.483   1.930   4.243 -0.1481  1.5344 -0.0623
 7887SOL    HW224561   4.474   1.930   4.080 -1.2160  0.0894 -0.0272
 7888SOL     OW24562   2.594   5.403   3.015 -0.2890 -0.6691  0.1754
 7888SOL    HW124563   2.579   5.339   2.939 -0.7597 -1.3761  0.8468
 7888SOL    HW224564   2.667   5.466   2.991 -0.5386 -0.7735 -0.9365
 7889SOL     OW24565   5.481   0.594   6.156  0.1184 -0.1723  0.1050
 7889SOL    HW124566   5.563   0.615   6.102  0.5167 -0.3797  0.6271
 7889SOL    HW224567   5.415   0.668   6.146  0.1211 -0.2792 -0.7976
 7890SOL     OW24568   4.723   0.767   4.443 -0.7241  0.6361 -0.2103
 7890SOL    HW124569   4.715   0.842   4.509 -0.2395  0.2499  0.2979
 7890SOL    HW224570   4.769   0.799   4.361 -2.0423  1.3283 -0.7002
 7891SOL     OW24571   6.849   5.111   0.270  0.1144 -0.3724 -0.4643
 7891SOL    HW124572   6.830   5.015   0.248 -0.3381 -0.1724 -0.9618
 7891SOL    HW224573   6.829   5.128   0.367  3.4939 -1.6264  0.5932
 7892SOL     OW24574   6.807   2.515   4.386 -0.2284  0.8040  0.0815
 7892SOL    HW124575   6.729   2.536   4.328 -0.8351  0.3065  0.6989
 7892SOL    HW224576   6.854   2.434   4.350  0.1122  1.2070 -0.3888
 7893SOL     OW24577   3.733   2.260   6.552 -0.1510 -0.2574  0.3929
 7893SOL    HW124578   3.644   2.216   6.534  0.2392 -1.0766  0.4226
 7893SOL    HW224579   3.718   2.356   6.577 -0.9513 -0.0172 -0.8815
 7894SOL     OW24580   4.377   5.319   1.432  0.3021  0.4674 -0.0047
 7894SOL    HW124581   4.416   5.380   1.363 -0.9604  0.1687 -1.0307
 7894SOL    HW224582   4.277   5.328   1.431  0.0599 -1.6923 -0.2963
 7895SOL     OW24583   3.302   3.321   6.197 -0.0112 -0.1979  0.1877
 7895SOL    HW124584   3.245   3.290   6.273 -0.0722 -0.2490  0.1205
 7895SOL    HW224585   3.344   3.242   6.152  0.9612 -0.1060  0.8982
 7896SOL     OW24586   6.634   6.534   6.163 -0.0782  0.5126 -0.0228
 7896SOL    HW124587   6.610   6.608   6.101  0.6172 -0.1535 -1.1199
 7896SOL    HW224588   6.560   6.467   6.165 -0.9430  1.4455  1.3763
 7897SOL     OW24589   2.152   2.581   4.321 -0.4385  0.2691  0.4084
 7897SOL    HW124590   2.214   2.651   4.284  0.9038 -0.6910  0.7580
 7897SOL    HW224591   2.202   2.495   4.334 -1.4669 -0.1293  2.1296
 7898SOL     OW24592   0.568   3.934   0.079  0.4625 -0.4245 -0.4239
 7898SOL    HW124593   0.506   3.950   0.002  1.5864  2.2328 -0.8687
 7898SOL    HW224594   0.635   4.007   0.084  2.6235 -2.3574  1.0072
 7899SOL     OW24595   0.572   3.446   2.142 -0.0056 -0.2226 -0.2190
 7899SOL    HW124596   0.624   3.437   2.227  1.8535  3.2985 -0.7711
 7899SOL    HW224597   0.635   3.435   2.064 -1.9498 -5.2133 -1.4716
 7900SOL     OW24598   5.136   6.139   1.371  0.1613  0.3233  0.1965
 7900SOL    HW124599   5.084   6.164   1.453  1.1769  2.8398  0.1554
 7900SOL    HW224600   5.197   6.062   1.392 -0.3606  0.2446  1.4828
 7901SOL     OW24601   1.188   1.622   4.626  0.2040 -0.0186 -0.5319
 7901SOL    HW124602   1.278   1.610   4.668  1.0275  0.2059 -2.1404
 7901SOL    HW224603   1.124   1.658   4.694  1.5651  0.6956  0.4295
 7902SOL     OW24604   6.107   5.522   5.119  0.0251 -0.3066 -0.5769
 7902SOL    HW124605   6.201   5.553   5.104 -0.2373  0.4072 -0.7940
 7902SOL    HW224606   6.108   5.442   5.179  0.6454  0.8684  1.0460
 7903SOL     OW24607   3.398   4.919   4.121 -0.2853 -0.2239  0.1956
 7903SOL    HW124608   3.436   4.856   4.053  1.5076  1.1327 -0.1281
 7903SOL    HW224609   3.339   4.986   4.075 -0.2070 -0.1607  0.1880
 7904SOL     OW24610   6.953   2.082   0.837  0.1574  0.2276 -0.0851
 7904SOL    HW124611   6.925   2.173   0.868 -0.4407  0.5931 -1.6025
 7904SOL    HW224612   7.007   2.038   0.908 -1.0507  1.0457  1.4012
 7905SOL     OW24613   0.089   4.039   1.521  0.5545  0.6810  0.3227
 7905SOL    HW124614   0.118   4.061   1.428 -0.0246  0.5066  0.1008
 7905SOL    HW224615   0.146   3.964   1.556  0.2540  0.2127 -0.1801
 7906SOL     OW24616   1.555   6.567   5.819  0.1361 -0.0687 -0.7151
 7906SOL    HW124617   1.465   6.542   5.783  0.8443 -0.0518 -2.5985
 7906SOL    HW224618   1.582   6.502   5.890 -0.7726 -0.8882 -1.0953
 7907SOL     OW24619   3.266   1.245   5.541 -0.4324  0.1975 -0.1579
 7907SOL    HW124620   3.199   1.200   5.482 -0.7462  0.6262 -0.1417
 7907SOL    HW224621   3.342   1.279   5.486 -0.6628  0.4868 -0.2999
 7908SOL     OW24622   3.220   3.412   5.901 -0.2917  0.0510  0.0591
 7908SOL    HW124623   3.152   3.454   5.840  0.2090  1.8880  0.7075
 7908SOL    HW224624   3.264   3.483   5.956  1.9501 -1.1050 -0.1109
 7909SOL     OW24625   5.028   5.423   3.016 -0.1188 -0.6357 -0.4265
 7909SOL    HW124626   5.120   5.451   3.042  0.2499 -0.2362 -2.0363
 7909SOL    HW224627   4.969   5.504   3.008 -0.9676 -0.9732  1.7303
 7910SOL     OW24628   4.709   4.418   1.862 -0.2883 -0.3223 -0.0981
 7910SOL    HW124629   4.653   4.366   1.925 -0.9760  2.0941  1.4326
 7910SOL    HW224630   4.650   4.475   1.804  0.3540 -2.0888 -2.6689
 7911SOL     OW24631   5.649   6.486   5.530  0.5502 -0.5184 -0.1694
 7911SOL    HW124632   5.681   6.464   5.438  0.8668 -0.4884 -0.0672
 7911SOL    HW224633   5.728   6.493   5.592  0.2667 -1.7232  0.3530
 7912SOL     OW24634   5.224   3.597   0.067  0.0464 -0.1919  0.4481
 7912SOL    HW124635   5.153   3.555   0.010  0.9769 -0.8633 -0.2378
 7912SOL    HW224636   5.276   3.526   0.113  0.8011  0.2570  0.2993
 7913SOL     OW24637   5.237   4.592   6.982 -0.6543 -0.6287 -0.2450
 7913SOL    HW124638   5.292   4.553   6.908 -0.4115 -1.7773  0.5191
 7913SOL    HW224639   5.290   4.661   7.030  0.5231 -2.3589  1.0613
 7914SOL     OW24640   5.298   1.867   0.879 -0.4102  0.2038  0.2760
 7914SOL    HW124641   5.326   1.786   0.828  0.6186  1.4695 -1.2858
 7914SOL    HW224642   5.374   1.901   0.933 -0.0913  1.4202 -0.8961
 7915SOL     OW24643   6.142   2.534   4.469 -0.5442  0.2831  0.1153
 7915SOL    HW124644   6.222   2.553   4.413 -0.8066  0.3712 -0.2356
 7915SOL    HW224645   6.063   2.516   4.410 -0.3400 -1.8295  0.4208
 7916SOL     OW24646   4.930   4.258   5.254 -0.2860 -0.0762  1.2642
 7916SOL    HW124647   4.889   4.343   5.219 -0.2782 -0.7144 -0.3851
 7916SOL    HW224648   5.012   4.236   5.201 -0.4085 -1.2179  1.5290
 7917SOL     OW24649   5.388   5.168   4.273 -0.1352  0.4219  0.2888
 7917SOL    HW124650   5.379   5.219   4.187 -2.1487 -0.1935  0.0769
 7917SOL    HW224651   5.299   5.132   4.300  0.7227 -0.6353  1.8961
 7918SOL     OW24652   2.875   6.223   5.071 -0.0328 -0.0083  0.5368
 7918SOL    HW124653   2.909   6.284   5.000 -1.9872  0.8731  0.3082
 7918SOL    HW224654   2.929   6.236   5.155  0.6551  0.7952 -0.0160
 7919SOL     OW24655   3.902   3.892   2.398 -0.0647  0.1011  0.4530
 7919SOL    HW124656   3.843   3.811   2.403 -0.3199  0.2528 -0.0504
 7919SOL    HW224657   3.870   3.952   2.326  0.7851  0.1283  0.0826
 7920SOL     OW24658   2.334   6.107   1.469 -0.0873  0.6857 -0.5937
 7920SOL    HW124659   2.262   6.054   1.513  0.4624  0.3436 -0.0975
 7920SOL    HW224660   2.353   6.069   1.379  2.1670 -1.7084  0.7794
 7921SOL     OW24661   1.028   6.361   3.954 -0.0430  0.5243 -0.3893
 7921SOL    HW124662   0.931   6.335   3.946  0.4747 -2.8255  2.1185
 7921SOL    HW224663   1.037   6.431   4.025 -0.5207 -0.7905  1.0413
 7922SOL     OW24664   0.195   4.491   2.243 -0.4588 -0.1476 -0.3077
 7922SOL    HW124665   0.241   4.503   2.155 -1.6810 -1.4116 -1.1739
 7922SOL    HW224666   0.162   4.580   2.275  0.2070  0.3666 -0.9990
 7923SOL     OW24667   1.468   4.072   2.236  0.1912 -0.1848 -0.1348
 7923SOL    HW124668   1.514   4.087   2.323 -1.4270 -0.6112  0.8387
 7923SOL    HW224669   1.446   4.160   2.194  1.7255  0.0242 -0.5662
 7924SOL     OW24670   3.816   5.777   3.625 -0.0329  0.7895 -0.2489
 7924SOL    HW124671   3.858   5.687   3.612 -0.2330  0.6687 -0.0762
 7924SOL    HW224672   3.859   5.823   3.703 -0.2764  0.6298 -0.0175
 7925SOL     OW24673   0.395   6.489   1.720  0.2499 -0.2064 -0.1739
 7925SOL    HW124674   0.360   6.572   1.763 -1.6346 -0.2277 -1.5784
 7925SOL    HW224675   0.328   6.416   1.727  0.7742 -0.8278 -1.2833
 7926SOL     OW24676   1.192   4.901   1.135 -0.3961  0.1033 -0.4303
 7926SOL    HW124677   1.119   4.968   1.123 -0.2401  0.2406 -0.6265
 7926SOL    HW224678   1.212   4.890   1.232 -0.2207  0.5592 -0.4151
 7927SOL     OW24679   1.823   6.257   2.661  0.3010  0.2956  0.0994
 7927SOL    HW124680   1.767   6.282   2.740 -1.6447 -2.6571 -0.1954
 7927SOL    HW224681   1.914   6.229   2.692  0.9843  3.0484  0.8026
 7928SOL     OW24682   6.999   5.443   2.783  0.1142  0.3656  0.0636
 7928SOL    HW124683   7.083   5.392   2.766 -0.3891 -0.1881 -0.8662
 7928SOL    HW224684   6.947   5.449   2.698  1.5224  5.0225 -0.7499
 7929SOL     OW24685   0.508   1.291   4.106 -0.0619 -0.8482  0.2658
 7929SOL    HW124686   0.607   1.304   4.102 -0.3339  1.1035 -1.2065
 7929SOL    HW224687   0.480   1.286   4.202  1.3029 -0.0820  0.7465
 7930SOL     OW24688   5.324   3.639   2.106 -0.5577 -0.4779  0.1387
 7930SOL    HW124689   5.304   3.556   2.157  0.3471 -0.2959  0.7964
 7930SOL    HW224690   5.247   3.703   2.116  0.3087  0.2731  2.7632
 7931SOL     OW24691   0.644   0.466   5.645 -0.1492  0.6796  0.1063
 7931SOL    HW124692   0.599   0.504   5.564  1.9081 -0.1686 -1.5265
 7931SOL    HW224693   0.743   0.473   5.633  0.2061 -0.6104  2.0254
 7932SOL     OW24694   3.665   6.835   4.554  0.0645 -0.1055  0.1837
 7932SOL    HW124695   3.664   6.758   4.618 -0.0120  0.0503  0.3698
 7932SOL    HW224696   3.627   6.805   4.466  2.2387 -0.9446 -0.5318
 7933SOL     OW24697   1.827   1.016   6.387  0.2198  0.1957  0.8143
 7933SOL    HW124698   1.845   1.087   6.319 -2.5298 -0.6168 -0.9454
 7933SOL    HW224699   1.753   1.046   6.447  1.2649  0.0803  2.2021
 7934SOL     OW24700   6.340   5.433   5.352 -0.2695 -0.3103  0.3283
 7934SOL    HW124701   6.323   5.440   5.450  1.9755 -1.1954  0.8453
 7934SOL    HW224702   6.296   5.351   5.316 -0.0355 -0.6755  0.8686
 7935SOL     OW24703   0.664   4.404   6.167  0.3075  0.1987 -0.7218
 7935SOL    HW124704   0.650   4.488   6.220 -0.3749  0.0969 -0.7343
 7935SOL    HW224705   0.578   4.353   6.163  0.0828  0.6569 -2.7437
 7936SOL     OW24706   1.704   6.113   4.059 -0.1663  0.0980 -0.0687
 7936SOL    HW124707   1.721   6.175   4.136 -0.8184 -0.4545  0.5350
 7936SOL    HW224708   1.612   6.129   4.023  0.1456  0.3723 -0.7592
 7937SOL     OW24709   5.150   0.598   4.951  0.0177 -0.0995 -0.5391
 7937SOL    HW124710   5.133   0.548   5.036  1.2235 -1.9338 -1.3072
 7937SOL    HW224711   5.077   0.578   4.885 -1.3122  1.8913  0.2216
 7938SOL     OW24712   3.482   2.896   5.164 -0.4384 -0.0326 -0.2994
 7938SOL    HW124713   3.482   2.797   5.182  0.2119 -0.0864 -0.5818
 7938SOL    HW224714   3.572   2.924   5.131 -0.3082  0.8251  0.7200
 7939SOL     OW24715   4.631   2.228   0.359 -0.1561  0.5459 -0.6602
 7939SOL    HW124716   4.633   2.224   0.459 -1.2671 -0.5410 -0.6551
 7939SOL    HW224717   4.687   2.305   0.328  0.6673  0.5642  0.7605
 7940SOL     OW24718   2.689   3.609   0.372  0.2838 -0.1681 -0.1621
 7940SOL    HW124719   2.625   3.577   0.302  0.7460 -0.4039 -0.4851
 7940SOL    HW224720   2.715   3.532   0.431 -0.5556  0.1508  0.6410
 7941SOL     OW24721   6.123   3.113   2.008  0.7219  0.0917  0.2269
 7941SOL    HW124722   6.073   3.082   2.089  1.5390 -2.1031 -0.0202
 7941SOL    HW224723   6.064   3.107   1.928  0.1554  1.5107  0.5150
 7942SOL     OW24724   1.542   0.521   3.063  0.6860 -0.0314 -0.2437
 7942SOL    HW124725   1.584   0.442   3.019 -0.4238 -1.0538  0.4484
 7942SOL    HW224726   1.447   0.529   3.031  0.7146  0.8696 -0.1106
 7943SOL     OW24727   5.543   6.921   5.836 -0.1229 -0.3922 -0.1332
 7943SOL    HW124728   5.464   6.964   5.879  0.7187  1.4680 -0.3784
 7943SOL    HW224729   5.525   6.909   5.738 -0.0341  0.2042 -0.2250
 7944SOL     OW24730   4.342   4.907   2.741 -0.4381  0.2293 -0.4253
 7944SOL    HW124731   4.270   4.838   2.747 -1.2362  0.9979 -1.0051
 7944SOL    HW224732   4.417   4.881   2.802 -0.8740 -0.9577 -0.3564
 7945SOL     OW24733   4.732   6.367   1.899  0.5933  0.4481 -0.1849
 7945SOL    HW124734   4.776   6.409   1.820  1.4321 -0.0159  0.0210
 7945SOL    HW224735   4.733   6.267   1.887 -0.4795  0.4343 -0.2100
 7946SOL     OW24736   1.628   0.676   5.154  0.1213 -0.2084 -0.1076
 7946SOL    HW124737   1.684   0.684   5.071 -1.6913  2.8822 -1.1718
 7946SOL    HW224738   1.672   0.725   5.228 -0.9936  2.1812 -0.9326
 7947SOL     OW24739   1.222   6.119   3.673 -0.2610  0.3926  0.0243
 7947SOL    HW124740   1.253   6.050   3.737  0.5560 -0.0366 -0.8097
 7947SOL    HW224741   1.253   6.209   3.702  2.8180 -0.1183 -1.3215
 7948SOL     OW24742   2.400   1.825   4.913  0.2060  0.3016  0.2967
 7948SOL    HW124743   2.385   1.791   5.006 -0.0034 -1.8811 -0.4749
 7948SOL    HW224744   2.477   1.776   4.872 -0.6042  0.1945 -1.1598
 7949SOL     OW24745   4.081   1.676   2.125 -0.2983  0.0659 -0.5593
 7949SOL    HW124746   4.104   1.721   2.039 -1.7398 -0.1772 -1.1068
 7949SOL    HW224747   3.999   1.719   2.164  0.2228  0.0464  0.5990
 7950SOL     OW24748   5.846   3.476   5.392  0.4015  0.1574  0.1208
 7950SOL    HW124749   5.830   3.460   5.295  0.6793  1.1478 -0.1012
 7950SOL    HW224750   5.845   3.574   5.410 -0.0149 -0.0338  1.1886
 7951SOL     OW24751   1.340   0.206   0.233  0.3781 -0.8737 -0.5600
 7951SOL    HW124752   1.307   0.119   0.271 -1.2754 -0.3828 -0.8260
 7951SOL    HW224753   1.279   0.236   0.159  0.6374  0.7792 -0.1327
 7952SOL     OW24754   6.269   0.957   3.132  0.2512  0.2189 -0.1591
 7952SOL    HW124755   6.190   1.002   3.174 -1.0045 -2.3249  0.4452
 7952SOL    HW224756   6.250   0.939   3.035 -0.2719 -1.0565  0.1620
 7953SOL     OW24757   6.862   5.222   2.896  0.3076 -0.2787 -0.2345
 7953SOL    HW124758   6.907   5.140   2.861 -0.4761 -0.5729 -0.5884
 7953SOL    HW224759   6.902   5.303   2.854 -0.2653 -0.6012 -1.4563
 7954SOL     OW24760   0.352   6.403   5.020  0.2808 -0.2488  0.3153
 7954SOL    HW124761   0.307   6.348   5.090 -0.8736 -0.4411 -0.5475
 7954SOL    HW224762   0.288   6.421   4.945  1.4773 -0.0323 -0.6896
 7955SOL     OW24763   3.479   3.538   6.143 -0.1189  0.7134  0.2121
 7955SOL    HW124764   3.408   3.473   6.170 -0.5601  1.3467  0.5971
 7955SOL    HW224765   3.442   3.605   6.079  0.0539  1.1996  0.6055
 7956SOL     OW24766   5.738   0.971   1.190 -0.1489  0.4872 -0.5368
 7956SOL    HW124767   5.778   0.970   1.099  0.1383  0.2946 -0.4130
 7956SOL    HW224768   5.710   1.064   1.214  2.1895  1.0738  0.2117
 7957SOL     OW24769   3.706   4.788   0.162 -0.3915 -0.2433  0.0786
 7957SOL    HW124770   3.647   4.775   0.082 -0.5804 -1.0599  0.3349
 7957SOL    HW224771   3.799   4.809   0.132 -0.8763  1.4948 -0.3323
 7958SOL     OW24772   5.748   6.013   3.885 -0.6289 -0.5506 -0.2006
 7958SOL    HW124773   5.783   5.956   3.810 -1.1435  0.0892 -0.9348
 7958SOL    HW224774   5.649   6.005   3.889 -0.6119 -0.5114  0.3657
 7959SOL     OW24775   2.110   0.874   4.946  0.7798  0.2358  0.0551
 7959SOL    HW124776   2.132   0.776   4.946 -0.3669 -0.0400 -0.5473
 7959SOL    HW224777   2.015   0.887   4.974  0.3675  1.0093 -1.5401
 7960SOL     OW24778   1.599   3.731   0.934  0.6702  0.5173  0.3475
 7960SOL    HW124779   1.580   3.707   1.029 -0.2548  1.4448  0.4204
 7960SOL    HW224780   1.630   3.826   0.930  0.1008  0.6802 -0.3381
 7961SOL     OW24781   1.577   4.860   3.556  0.1903 -0.4848 -0.0428
 7961SOL    HW124782   1.534   4.837   3.469  0.8376 -0.3183 -0.4176
 7961SOL    HW224783   1.515   4.917   3.609 -0.7108 -1.6266  0.1510
 7962SOL     OW24784   6.698   0.376   4.655 -0.5226  0.4736  0.0603
 7962SOL    HW124785   6.611   0.382   4.704 -0.5178  0.7745  0.0315
 7962SOL    HW224786   6.751   0.459   4.671  0.5471 -0.4452  1.5554
 7963SOL     OW24787   1.907   3.039   5.184 -0.4542  0.4299  0.8226
 7963SOL    HW124788   1.988   2.982   5.199 -0.7329 -0.4456 -0.7868
 7963SOL    HW224789   1.935   3.134   5.174  0.3988  0.1285  0.2393
 7964SOL     OW24790   4.480   6.162   2.692 -0.3898 -0.5500 -0.5202
 7964SOL    HW124791   4.410   6.225   2.658 -1.0403 -0.4876  0.8769
 7964SOL    HW224792   4.506   6.099   2.619 -1.5199 -0.2342 -1.2183
 7965SOL     OW24793   3.650   1.120   5.052  0.0222  0.0116 -0.4232
 7965SOL    HW124794   3.667   1.061   4.973 -2.8282  0.0874 -1.2239
 7965SOL    HW224795   3.563   1.168   5.039  0.5857  1.7673  1.7704
 7966SOL     OW24796   6.315   3.442   5.664  0.2504  0.9194 -0.0307
 7966SOL    HW124797   6.354   3.351   5.656  1.7153  1.4687  0.3948
 7966SOL    HW224798   6.247   3.443   5.738 -1.0625 -0.1975 -1.1736
 7967SOL     OW24799   0.033   2.696   4.791 -0.2147  0.4280 -0.4339
 7967SOL    HW124800   0.015   2.663   4.698  1.0459  0.1648 -0.6018
 7967SOL    HW224801  -0.054   2.708   4.839 -0.8470 -0.1936 -1.3804
 7968SOL     OW24802   1.333   6.661   3.880  0.0416 -0.1001 -0.7463
 7968SOL    HW124803   1.419   6.685   3.924 -0.3729  0.7517 -0.3779
 7968SOL    HW224804   1.311   6.728   3.809 -0.8567  0.3501 -0.0758
 7969SOL     OW24805   1.342   3.113   0.570 -0.5934 -0.0827 -0.5230
 7969SOL    HW124806   1.245   3.090   0.562 -0.2891 -1.7193  0.1326
 7969SOL    HW224807   1.358   3.162   0.655 -1.1701  2.3010 -1.7009
 7970SOL     OW24808   0.690   1.105   1.540 -0.9281 -0.5689 -0.2962
 7970SOL    HW124809   0.748   1.150   1.472 -0.9369 -0.3558 -0.1623
 7970SOL    HW224810   0.614   1.165   1.564 -1.0068 -0.7042 -0.2068
 7971SOL     OW24811   5.731   1.213   6.342  0.3394 -0.1040 -0.2935
 7971SOL    HW124812   5.703   1.195   6.436 -0.5489  1.1391 -0.2935
 7971SOL    HW224813   5.659   1.181   6.279  0.2445  0.4344 -0.4623
 7972SOL     OW24814   4.980   3.481   0.190  0.3465 -0.0987 -0.0307
 7972SOL    HW124815   4.983   3.387   0.222  3.9993 -0.5071 -1.1476
 7972SOL    HW224816   5.022   3.541   0.258 -1.4040  0.6855  0.4062
 7973SOL     OW24817   6.839   4.198   4.430 -0.1067 -0.2478  0.6269
 7973SOL    HW124818   6.914   4.136   4.455 -0.2721 -0.2803  1.0415
 7973SOL    HW224819   6.755   4.146   4.418  0.4739 -0.6608 -2.6505
 7974SOL     OW24820   0.120   3.277   5.929  0.1307 -0.8470 -0.3456
 7974SOL    HW124821   0.102   3.179   5.937  0.2660 -1.0014 -1.7331
 7974SOL    HW224822   0.040   3.324   5.892 -0.5226 -0.1490  1.7970
 7975SOL     OW24823   5.078   5.298   2.576  0.2140 -0.6306  0.6364
 7975SOL    HW124824   4.986   5.329   2.554  0.2766  0.1430  1.4040
 7975SOL    HW224825   5.130   5.286   2.492  0.0013  0.8269  0.2731
 7976SOL     OW24826   6.839   4.165   5.512  0.1455  0.4111  0.0153
 7976SOL    HW124827   6.866   4.148   5.607 -1.4437 -2.1073  0.1197
 7976SOL    HW224828   6.739   4.169   5.506  0.1785 -0.2996 -1.6504
 7977SOL     OW24829   3.529   1.903   0.040 -0.5270 -0.5451 -0.0128
 7977SOL    HW124830   3.504   1.999   0.026  0.3183  0.2604  3.2747
 7977SOL    HW224831   3.625   1.890   0.014 -0.0121  0.0531  1.5225
 7978SOL     OW24832   2.929   3.719   1.435  0.1671  0.1781  0.3982
 7978SOL    HW124833   2.882   3.780   1.499 -1.3950  0.6072 -1.0786
 7978SOL    HW224834   2.904   3.624   1.455  0.4997  0.2177  1.0373
 7979SOL     OW24835   3.354   4.322   6.314 -1.0330 -0.6840 -0.0540
 7979SOL    HW124836   3.326   4.395   6.377  0.5444 -1.3940  1.5654
 7979SOL    HW224837   3.272   4.278   6.276 -2.0433  0.1913  1.0244
 7980SOL     OW24838   2.306   1.462   6.243  0.0112 -0.5031 -0.4624
 7980SOL    HW124839   2.210   1.433   6.241  0.1946 -1.0874 -1.7015
 7980SOL    HW224840   2.322   1.529   6.171  0.4754 -0.1919 -0.0711
 7981SOL     OW24841   0.823   1.770   2.296  0.1758  0.2201 -0.6737
 7981SOL    HW124842   0.754   1.722   2.351 -0.3678  1.7531  0.0311
 7981SOL    HW224843   0.816   1.742   2.201 -2.0378  0.9732 -0.7866
 7982SOL     OW24844   5.776   3.390   2.645  0.0254 -0.1898  0.0037
 7982SOL    HW124845   5.793   3.321   2.574 -2.5681  0.1924 -1.1020
 7982SOL    HW224846   5.717   3.352   2.715  1.2047 -0.0241  1.1282
 7983SOL     OW24847   5.627   0.608   1.733  0.2831 -0.1966  0.6145
 7983SOL    HW124848   5.605   0.680   1.798  2.5954  0.1445  1.1114
 7983SOL    HW224849   5.594   0.633   1.642 -1.0167  0.3560  1.2189
 7984SOL     OW24850   6.579   1.673   2.880 -0.2355  0.2137  0.4610
 7984SOL    HW124851   6.544   1.579   2.883 -2.9212  1.1100  0.2211
 7984SOL    HW224852   6.557   1.720   2.965 -1.1511  1.3066 -0.3375
 7985SOL     OW24853   2.289   5.656   4.743  0.3301 -0.0179 -0.6456
 7985SOL    HW124854   2.277   5.597   4.823  0.5688  0.4537 -0.2622
 7985SOL    HW224855   2.242   5.614   4.664  0.5032 -0.7239 -0.3845
 7986SOL     OW24856   3.352   6.811   6.726 -0.3517  0.3395  0.7991
 7986SOL    HW124857   3.393   6.759   6.801  0.2474 -0.5722 -0.1542
 7986SOL    HW224858   3.257   6.832   6.750 -0.3257 -0.3777  1.5945
 7987SOL     OW24859   1.564   3.952   4.480 -0.3303 -0.0680  0.5537
 7987SOL    HW124860   1.502   3.875   4.476 -0.1752 -0.1176 -1.9469
 7987SOL    HW224861   1.512   4.037   4.485 -0.5516 -0.1926  0.3363
 7988SOL     OW24862   5.581   0.851   5.981 -0.1248  0.3482  0.1093
 7988SOL    HW124863   5.680   0.835   5.973 -0.3030 -0.8201  0.0584
 7988SOL    HW224864   5.549   0.905   5.903  0.6293  1.5989  0.6360
 7989SOL     OW24865   3.178   4.139   4.743 -0.3842 -0.2929  0.1997
 7989SOL    HW124866   3.212   4.046   4.755  2.4912  0.4973 -1.0604
 7989SOL    HW224867   3.111   4.160   4.815  0.5558 -2.5642  1.8400
 7990SOL     OW24868   5.106   4.055   6.003  0.4175 -0.1752 -0.3182
 7990SOL    HW124869   5.201   4.080   5.986  0.6093  1.3686  2.3399
 7990SOL    HW224870   5.090   4.051   6.102 -2.6498  1.3481 -0.6296
 7991SOL     OW24871   2.331   2.033   6.457  0.1076 -0.1766  0.3487
 7991SOL    HW124872   2.295   2.029   6.551 -0.9434  1.1304  0.0292
 7991SOL    HW224873   2.263   1.997   6.394 -1.1861  3.1737 -0.3700
 7992SOL     OW24874   3.533   5.875   1.537  0.5011 -0.0418 -1.1068
 7992SOL    HW124875   3.547   5.972   1.557  0.7137 -0.1700 -0.5993
 7992SOL    HW224876   3.481   5.865   1.452 -1.2937  0.5514 -0.1218
 7993SOL     OW24877   4.799   2.862   5.036  0.2030  0.2028  0.0817
 7993SOL    HW124878   4.828   2.767   5.045 -2.2699 -0.6321 -0.0505
 7993SOL    HW224879   4.847   2.905   4.959 -0.1856 -1.5833 -1.1955
 7994SOL     OW24880   6.443   2.370   1.892  0.7287 -0.3399  0.3504
 7994SOL    HW124881   6.481   2.391   1.982  0.5886 -0.8227  0.5212
 7994SOL    HW224882   6.395   2.451   1.857  0.0461 -0.4120  1.0825
 7995SOL     OW24883   4.636   6.872   3.694 -0.0187  0.0045 -0.2862
 7995SOL    HW124884   4.683   6.889   3.607 -0.8131  3.1188 -0.2283
 7995SOL    HW224885   4.702   6.877   3.769 -0.1263  3.9692 -0.2380
 7996SOL     OW24886   0.309   5.343   4.053 -0.5866  0.3465 -0.0858
 7996SOL    HW124887   0.222   5.311   4.091 -2.1573  1.3203 -2.6229
 7996SOL    HW224888   0.332   5.431   4.095 -2.3358  1.4482 -1.2576
 7997SOL     OW24889   5.151   4.117   2.750 -0.7496  0.4424 -0.1083
 7997SOL    HW124890   5.243   4.156   2.759 -1.3053  1.4023  2.0522
 7997SOL    HW224891   5.083   4.186   2.775 -2.1517 -0.0080 -2.4025
 7998SOL     OW24892   2.537   6.773   4.636  0.6198 -0.3026  0.1650
 7998SOL    HW124893   2.593   6.767   4.718 -1.1620 -1.4722  1.3796
 7998SOL    HW224894   2.460   6.710   4.644 -0.1803  0.3166 -1.9729
 7999SOL     OW24895   4.882   6.111   4.173 -0.0026  0.1332  0.2753
 7999SOL    HW124896   4.935   6.040   4.127  0.9890  1.7513 -1.1861
 7999SOL    HW224897   4.808   6.141   4.112 -0.1139  0.6818  0.6789
 8000SOL     OW24898   4.864   2.242   4.523  0.3362 -0.1718 -0.0677
 8000SOL    HW124899   4.953   2.212   4.555  0.4197  0.0950 -0.0529
 8000SOL    HW224900   4.854   2.340   4.537  0.3070 -0.0810 -0.6857
 8001SOL     OW24901   3.437   1.412   3.842  0.5416  0.3378 -0.0014
 8001SOL    HW124902   3.411   1.358   3.922  1.5318  1.6029  1.2312
 8001SOL    HW224903   3.363   1.410   3.775 -0.4703 -0.4536  1.0917
 8002SOL     OW24904   5.452   0.420   0.605  0.0174 -0.5050 -0.2834
 8002SOL    HW124905   5.513   0.415   0.685 -0.1952 -1.5458 -0.1681
 8002SOL    HW224906   5.489   0.363   0.532 -1.3399 -2.0303  0.1689
 8003SOL     OW24907   2.921   1.815   5.775  0.5196 -0.1208  0.3958
 8003SOL    HW124908   2.988   1.831   5.848  1.8956  0.5352 -0.9529
 8003SOL    HW224909   2.881   1.724   5.786  1.2701 -0.3372  1.5251
 8004SOL     OW24910   3.016   3.382   4.627  0.5500  0.3780 -0.0493
 8004SOL    HW124911   3.012   3.446   4.550  0.9947 -1.2271 -1.4676
 8004SOL    HW224912   3.057   3.427   4.706 -0.7979  2.3660 -0.4116
 8005SOL     OW24913   6.461   3.819   0.258  0.0643 -0.1115  0.1794
 8005SOL    HW124914   6.467   3.747   0.327  1.9824  0.3483  0.5740
 8005SOL    HW224915   6.524   3.893   0.284 -0.6803  0.9743 -1.0403
 8006SOL     OW24916   3.842   4.873   5.899 -0.5546  0.4361  0.4263
 8006SOL    HW124917   3.860   4.840   5.806 -0.3036 -0.0881  0.6558
 8006SOL    HW224918   3.903   4.949   5.920  0.0447 -0.0570  0.4953
 8007SOL     OW24919   5.828   6.599   4.188  0.0055 -0.7483  0.3856
 8007SOL    HW124920   5.852   6.679   4.134  1.5479  0.4982  2.7337
 8007SOL    HW224921   5.762   6.625   4.258  0.8579 -1.3875  1.4562
 8008SOL     OW24922   3.666   6.283   2.931 -0.1289 -0.3501  0.1158
 8008SOL    HW124923   3.572   6.287   2.897  0.0070 -0.5702 -0.2970
 8008SOL    HW224924   3.687   6.366   2.982 -0.2949  0.0430 -0.4531
 8009SOL     OW24925   3.600   4.548   6.374  0.6030  0.2946  0.4425
 8009SOL    HW124926   3.669   4.521   6.441  1.1056  2.3416  0.8249
 8009SOL    HW224927   3.541   4.470   6.353  3.6738 -1.9258 -0.7740
 8010SOL     OW24928   2.928   2.631   1.513  0.4386 -0.1088  0.4612
 8010SOL    HW124929   2.914   2.544   1.561  0.5064 -2.0483 -2.7104
 8010SOL    HW224930   2.841   2.678   1.502  0.2854 -0.1170  1.5791
 8011SOL     OW24931   6.874   4.961   4.450 -0.1110  0.4999  0.1057
 8011SOL    HW124932   6.845   5.015   4.529 -0.7808  1.1325 -0.5594
 8011SOL    HW224933   6.836   5.001   4.367  2.3535  1.1530 -0.7926
 8012SOL     OW24934   0.715   3.493   5.838 -0.2368  0.6354  0.3781
 8012SOL    HW124935   0.753   3.429   5.771 -3.0776  3.0539 -4.0300
 8012SOL    HW224936   0.641   3.449   5.888 -1.3651  0.0078 -1.7268
 8013SOL     OW24937   5.470   6.002   6.234  0.0241  0.0867 -0.4348
 8013SOL    HW124938   5.406   5.972   6.163 -0.4026 -2.2057  0.8242
 8013SOL    HW224939   5.556   5.952   6.224  0.6150  1.0776 -0.4039
 8014SOL     OW24940   5.207   3.498   0.721  0.2462 -0.5075 -0.3126
 8014SOL    HW124941   5.142   3.556   0.674 -1.4980 -3.0910 -1.2840
 8014SOL    HW224942   5.175   3.480   0.814 -0.7300 -2.0902 -0.9136
 8015SOL     OW24943   3.594   2.676   5.838 -0.6886 -0.1508  0.1268
 8015SOL    HW124944   3.573   2.701   5.743 -1.4321  0.3315  0.4119
 8015SOL    HW224945   3.643   2.751   5.882 -0.2511 -0.4169  0.0970
 8016SOL     OW24946   3.625   2.477   5.548  0.5200 -0.5053 -0.1765
 8016SOL    HW124947   3.694   2.507   5.613  0.9617 -3.0954  0.6446
 8016SOL    HW224948   3.670   2.437   5.468  0.0088 -2.3259  0.4207
 8017SOL     OW24949   5.950   3.785   0.115 -0.5051  0.4302  0.0716
 8017SOL    HW124950   5.987   3.757   0.204  0.1513  1.3917  0.1217
 8017SOL    HW224951   5.893   3.712   0.078  1.0809 -0.9122  0.2035
 8018SOL     OW24952   5.758   6.277   4.332 -0.1824 -0.8904 -0.1292
 8018SOL    HW124953   5.796   6.321   4.251  2.3267 -2.2437  0.2266
 8018SOL    HW224954   5.802   6.188   4.345  0.3139 -0.2707  3.3243
 8019SOL     OW24955   6.046   6.089   1.611 -0.0712  0.0339  0.2860
 8019SOL    HW124956   6.086   6.095   1.519  0.8807 -1.9609  0.5204
 8019SOL    HW224957   5.949   6.113   1.606  1.1144  6.1734 -0.1043
 8020SOL     OW24958   1.798   1.116   0.715  0.5120 -0.7456 -0.2554
 8020SOL    HW124959   1.841   1.181   0.777  0.9368 -0.2358 -1.0749
 8020SOL    HW224960   1.861   1.040   0.698  1.2018  0.0915 -1.6005
 8021SOL     OW24961   3.181   3.169   6.394  0.6272 -0.5860  0.1056
 8021SOL    HW124962   3.132   3.097   6.345  0.2287 -0.3862  0.2053
 8021SOL    HW224963   3.233   3.129   6.470 -0.5755 -0.6440  0.9329
 8022SOL     OW24964   5.957   3.649   2.667  0.4832  0.0900 -0.2669
 8022SOL    HW124965   5.966   3.662   2.569  0.7530  0.5078 -0.1868
 8022SOL    HW224966   5.916   3.560   2.685 -0.1321  0.2650 -0.7763
 8023SOL     OW24967   6.985   1.970   2.078  0.0069 -0.0856  0.2739
 8023SOL    HW124968   7.012   1.913   2.156  0.0570  1.9697  1.8554
 8023SOL    HW224969   7.056   2.037   2.060 -0.0468 -0.4658 -1.5457
 8024SOL     OW24970   1.452   2.372   6.803 -0.3215 -1.0010  0.1736
 8024SOL    HW124971   1.533   2.315   6.786 -0.6840 -1.8723  1.2521
 8024SOL    HW224972   1.460   2.416   6.893 -1.1368 -1.2868  0.3999
 8025SOL     OW24973   1.898   6.722   5.108 -0.7548 -0.7987 -0.5087
 8025SOL    HW124974   1.871   6.745   5.201 -0.9372 -0.3062 -0.6830
 8025SOL    HW224975   1.891   6.803   5.050  0.5507 -0.7927 -0.6852
 8026SOL     OW24976   1.983   6.755   1.672  0.2180 -0.0145 -0.1735
 8026SOL    HW124977   1.969   6.668   1.718 -1.7961 -0.4755 -1.5702
 8026SOL    HW224978   1.973   6.744   1.574  4.6323  0.9027 -0.9487
 8027SOL     OW24979   5.496   6.231   5.044  0.1919  0.0978 -0.3277
 8027SOL    HW124980   5.523   6.276   4.959 -0.2899  1.5642  0.2471
 8027SOL    HW224981   5.456   6.299   5.106 -1.2647 -1.2731  0.3193
 8028SOL     OW24982   0.173   0.589   0.278 -0.2443  0.1654  0.7420
 8028SOL    HW124983   0.095   0.651   0.262 -1.8934 -1.4425  2.1417
 8028SOL    HW224984   0.210   0.559   0.190  0.4448  2.8185  0.0040
 8029SOL     OW24985   3.786   3.405   3.636 -0.3221 -0.4212  0.0198
 8029SOL    HW124986   3.762   3.308   3.622  0.0903 -0.5942  0.4721
 8029SOL    HW224987   3.802   3.421   3.734  3.4661 -0.8186 -0.4057
 8030SOL     OW24988   0.881   2.861   4.942  0.1344  0.3182 -0.0666
 8030SOL    HW124989   0.968   2.843   4.896  0.3841  1.3767 -0.0382
 8030SOL    HW224990   0.815   2.897   4.875  0.0161  0.4088  0.0978
 8031SOL     OW24991   3.335   5.027   5.443 -0.3905 -0.0372  1.2445
 8031SOL    HW124992   3.260   5.032   5.376  1.2442 -0.8406 -0.7363
 8031SOL    HW224993   3.394   5.108   5.433  0.7588 -0.9322  0.5586
 8032SOL     OW24994   5.989   1.246   6.261  0.4536  0.8424 -0.2107
 8032SOL    HW124995   5.897   1.217   6.287  1.3603  0.2386  2.6234
 8032SOL    HW224996   6.020   1.192   6.183 -0.5667 -0.8969  0.5283
 8033SOL     OW24997   6.405   4.492   6.863  0.0255 -0.1007 -0.1644
 8033SOL    HW124998   6.362   4.580   6.884  0.4025 -0.0644  0.4888
 8033SOL    HW224999   6.334   4.423   6.848 -0.2720  0.3070 -0.6398
 8034SOL     OW25000   5.588   6.068   1.390 -0.0947 -0.5235  0.9842
 8034SOL    HW125001   5.626   5.977   1.406  0.7513  0.1524  3.0444
 8034SOL    HW225002   5.500   6.077   1.437  0.0223 -0.1307  1.1315
 8035SOL     OW25003   4.722   6.185   5.716 -0.5848 -0.2831  0.5322
 8035SOL    HW125004   4.655   6.114   5.697 -2.1395  0.7281  1.9560
 8035SOL    HW225005   4.736   6.192   5.815  0.1415  0.8464  0.3690
 8036SOL     OW25006   2.250   6.158   2.942 -0.8427 -0.2328 -0.1804
 8036SOL    HW125007   2.332   6.214   2.929 -1.4211  0.8636  0.7246
 8036SOL    HW225008   2.222   6.161   3.038 -1.9698 -0.5521 -0.4866
 8037SOL     OW25009   2.768   6.574   3.667 -0.2975 -0.3023 -0.3393
 8037SOL    HW125010   2.819   6.488   3.669 -0.6760 -0.5249  0.7261
 8037SOL    HW225011   2.829   6.650   3.645  0.9242 -0.3095  2.5823
 8038SOL     OW25012   1.803   2.604   1.855 -0.1452 -0.9618  0.1685
 8038SOL    HW125013   1.865   2.594   1.934  0.3762  0.9084  0.0252
 8038SOL    HW225014   1.820   2.691   1.809 -2.9844 -0.2807  0.1962
 8039SOL     OW25015   3.175   2.310   6.906 -0.3644  0.4587 -0.3304
 8039SOL    HW125016   3.240   2.282   6.977 -2.6111  1.6393  2.3771
 8039SOL    HW225017   3.218   2.379   6.848  1.3388 -0.0425  0.2523
 8040SOL     OW25018   5.843   4.501   1.271  0.2579  0.1667 -0.6800
 8040SOL    HW125019   5.801   4.419   1.232  0.6985 -0.3283 -0.1360
 8040SOL    HW225020   5.934   4.513   1.232 -0.1851  0.9644 -1.4966
 8041SOL     OW25021   5.199   0.397   5.392 -0.1997 -0.5352 -0.2925
 8041SOL    HW125022   5.272   0.336   5.362  0.6989 -0.0836  0.9185
 8041SOL    HW225023   5.159   0.362   5.476 -2.0439 -1.2733 -1.4210
 8042SOL     OW25024   6.926   6.999   2.346 -0.7217  0.0735 -0.0130
 8042SOL    HW125025   7.024   7.010   2.330 -0.5292  1.2001  1.6653
 8042SOL    HW225026   6.898   6.907   2.321  0.9380 -0.5447  0.2823
 8043SOL     OW25027   5.755   1.184   4.153  0.4168  0.1310  0.5141
 8043SOL    HW125028   5.839   1.208   4.202  0.3588  0.2800  0.5415
 8043SOL    HW225029   5.747   1.241   4.072  0.9025 -0.6377 -0.0904
 8044SOL     OW25030   2.553   5.170   3.948 -0.1840  0.1741  0.4723
 8044SOL    HW125031   2.592   5.194   4.037 -1.0815  0.2663  0.8525
 8044SOL    HW225032   2.562   5.247   3.886 -0.0227  0.2993  0.6506
 8045SOL     OW25033   0.755   3.161   6.477 -0.1610  0.1617 -0.3012
 8045SOL    HW125034   0.848   3.138   6.445 -0.1856 -0.8520  0.2889
 8045SOL    HW225035   0.759   3.239   6.539  0.5973 -1.0294  1.2367
 8046SOL     OW25036   4.786   6.637   2.588 -1.0691 -0.2652 -0.4180
 8046SOL    HW125037   4.799   6.569   2.660 -1.1496 -0.4688 -0.5966
 8046SOL    HW225038   4.829   6.606   2.503  1.4853  1.1891  0.2371
 8047SOL     OW25039   3.704   3.357   6.373 -0.5379 -0.4266  0.4004
 8047SOL    HW125040   3.795   3.399   6.370 -0.6929 -0.1341 -0.2064
 8047SOL    HW225041   3.656   3.388   6.455 -0.3905  0.0417  0.3094
 8048SOL     OW25042   1.029   0.348   6.614  0.1415  0.1419  0.1233
 8048SOL    HW125043   1.054   0.259   6.578 -2.9232 -0.8916  0.2080
 8048SOL    HW225044   0.993   0.338   6.707  0.9516  1.6780  0.6400
 8049SOL     OW25045   2.690   4.794   5.771  0.2567 -0.1117 -0.2419
 8049SOL    HW125046   2.670   4.892   5.767  1.1973  0.0564 -1.3042
 8049SOL    HW225047   2.788   4.781   5.790 -0.2199 -0.8795  1.9859
 8050SOL     OW25048   6.377   6.087   6.942  0.4097  0.4019 -0.0470
 8050SOL    HW125049   6.362   6.009   7.002 -0.4395 -0.0704 -0.8438
 8050SOL    HW225050   6.473   6.114   6.944  0.4253  0.2738  1.3590
 8051SOL     OW25051   5.454   0.160   1.099  0.3302 -0.5007 -0.1066
 8051SOL    HW125052   5.434   0.084   1.038  1.3984 -2.0166  1.3313
 8051SOL    HW225053   5.402   0.149   1.184  0.9965 -0.0301  0.3787
 8052SOL     OW25054   4.963   6.129   4.460  0.4781 -0.6349 -0.0165
 8052SOL    HW125055   4.907   6.162   4.384  0.6430 -0.5428 -0.0994
 8052SOL    HW225056   4.928   6.042   4.493 -1.5072  0.7547  1.8524
 8053SOL     OW25057   0.027   0.107   0.781 -0.0180 -0.3090  0.2110
 8053SOL    HW125058   0.050   0.037   0.849 -0.0830 -0.6860 -0.1524
 8053SOL    HW225059  -0.062   0.146   0.802  0.8601  1.1087  1.5914
 8054SOL     OW25060   4.101   4.686   5.271 -0.2488 -0.2809 -0.0366
 8054SOL    HW125061   4.141   4.595   5.256  1.0166  0.0499  1.1098
 8054SOL    HW225062   4.009   4.676   5.310 -0.0677 -1.0682  0.2087
 8055SOL     OW25063   6.943   4.081   4.664 -0.3761  0.5196 -0.3602
 8055SOL    HW125064   6.973   4.031   4.746 -0.8756  0.9470  0.0893
 8055SOL    HW225065   6.858   4.129   4.684 -0.1535  1.1632 -0.9346
 8056SOL     OW25066   3.425   1.993   5.713  0.2595  0.1520  0.6201
 8056SOL    HW125067   3.481   2.059   5.664  0.1705 -0.2769 -0.0792
 8056SOL    HW225068   3.442   2.001   5.811  1.7543 -0.1555  0.4079
 8057SOL     OW25069   0.032   6.384   4.609  0.3281 -0.2211 -0.1549
 8057SOL    HW125070   0.110   6.382   4.547  0.2484 -0.7569 -0.2454
 8057SOL    HW225071  -0.024   6.464   4.590 -0.2660 -0.9203 -1.4969
 8058SOL     OW25072   4.364   1.941   3.251  0.7386  0.7675 -0.1292
 8058SOL    HW125073   4.329   1.858   3.297  2.2603  0.2034  0.0762
 8058SOL    HW225074   4.287   1.994   3.216 -0.2994 -0.6505 -0.1255
 8059SOL     OW25075   6.549   0.979   3.873  0.4990 -0.5386  0.2923
 8059SOL    HW125076   6.532   0.885   3.900 -0.2903 -0.8410 -1.1772
 8059SOL    HW225077   6.605   0.981   3.791 -1.4639  0.1613 -1.1076
 8060SOL     OW25078   5.792   2.916   5.938  0.3775  0.6037  0.0968
 8060SOL    HW125079   5.775   2.822   5.968  0.3799 -0.1231 -1.9870
 8060SOL    HW225080   5.889   2.927   5.917  0.4595  1.2300  0.7680
 8061SOL     OW25081   6.589   0.056   0.951 -0.2472 -0.2973 -0.5451
 8061SOL    HW125082   6.642   0.038   1.035 -1.0032  1.2893  0.3272
 8061SOL    HW225083   6.522  -0.017   0.938  2.4756 -2.7670 -2.0742
 8062SOL     OW25084   3.926   5.956   4.964  0.0208  0.9699 -0.2517
 8062SOL    HW125085   3.923   6.036   4.904  0.2787  2.0781  1.1702
 8062SOL    HW225086   3.875   5.975   5.047  2.2734  0.6833  1.2892
 8063SOL     OW25087   4.612   1.401   4.975  0.7344 -0.7721 -0.2010
 8063SOL    HW125088   4.593   1.474   5.041  0.4167 -0.4140 -0.6743
 8063SOL    HW225089   4.700   1.419   4.930  1.1311 -1.2189  0.3892
 8064SOL     OW25090   0.966   1.770   0.042  0.0831  0.4503 -0.6535
 8064SOL    HW125091   1.035   1.698   0.050 -1.2560 -0.8080  0.2217
 8064SOL    HW225092   1.008   1.859   0.060  1.3910 -0.3176  0.2976
 8065SOL     OW25093   0.450   6.467   4.375  0.1932  0.4130 -0.3054
 8065SOL    HW125094   0.406   6.547   4.417  0.2767  0.2830  0.0308
 8065SOL    HW225095   0.431   6.467   4.277 -0.0662  0.6793 -0.2585
 8066SOL     OW25096   2.016   1.917   3.363  1.4502 -0.2362  0.2616
 8066SOL    HW125097   2.029   1.858   3.284 -1.2024 -0.2187 -0.2858
 8066SOL    HW225098   1.993   1.861   3.443 -1.0280 -0.0688 -0.2487
 8067SOL     OW25099   5.767   5.927   6.460  0.3209 -0.3543  0.2112
 8067SOL    HW125100   5.746   5.868   6.383  0.3201 -1.2655  0.8865
 8067SOL    HW225101   5.862   5.956   6.455  0.3277 -0.4341 -0.1206
 8068SOL     OW25102   2.516   0.671   0.265 -0.0006  0.1233 -0.5715
 8068SOL    HW125103   2.465   0.721   0.335  1.0294 -0.4886  0.6739
 8068SOL    HW225104   2.454   0.613   0.212 -0.9443  1.3653 -0.8733
 8069SOL     OW25105   1.994   6.128   4.134  0.2792  0.0061  0.0081
 8069SOL    HW125106   2.017   6.198   4.203 -2.0543 -0.7792  1.7180
 8069SOL    HW225107   1.896   6.130   4.117  0.2510 -2.4428 -0.3895
 8070SOL     OW25108   5.203   4.912   6.775 -0.0797  0.0340 -0.0410
 8070SOL    HW125109   5.254   4.926   6.860 -0.7619  0.8965  0.2478
 8070SOL    HW225110   5.146   4.830   6.783 -0.4637  0.3490  0.5050
 8071SOL     OW25111   1.156   0.693   0.486  0.2050 -0.6283 -0.1740
 8071SOL    HW125112   1.110   0.610   0.518 -1.0476  0.3990  0.7852
 8071SOL    HW225113   1.211   0.732   0.560 -1.8659  1.1778  0.5435
 8072SOL     OW25114   4.814   4.872   2.309  0.1688  0.4530 -0.3767
 8072SOL    HW125115   4.910   4.881   2.335  0.1862 -0.0576 -0.2679
 8072SOL    HW225116   4.790   4.776   2.299 -0.4776  0.5456  0.1721
 8073SOL     OW25117   6.097   1.489   5.011 -0.2790  0.3933  0.0013
 8073SOL    HW125118   6.077   1.428   5.088 -1.7986 -0.2987 -0.9108
 8073SOL    HW225119   6.106   1.435   4.927  2.5553  0.9943 -0.1896
 8074SOL     OW25120   3.349   1.113   5.008  0.4068 -0.5144 -0.3736
 8074SOL    HW125121   3.320   1.135   5.101 -0.3450 -1.3291 -0.3994
 8074SOL    HW225122   3.300   1.031   4.977  0.0313  0.2163 -1.7786
 8075SOL     OW25123   4.966   0.612   2.747  0.1438 -0.4332 -0.4104
 8075SOL    HW125124   4.915   0.530   2.773 -1.0927  0.0672 -1.1623
 8075SOL    HW225125   5.005   0.655   2.828 -0.2559 -1.0824  0.1319
 8076SOL     OW25126   3.314   0.481   2.370  0.2200 -0.5871  0.1469
 8076SOL    HW125127   3.278   0.506   2.280 -1.1716 -0.8507  0.6066
 8076SOL    HW225128   3.274   0.394   2.399  1.4399 -1.0139  0.5868
 8077SOL     OW25129   4.193   2.798   0.705 -0.7192 -0.1279 -0.1658
 8077SOL    HW125130   4.165   2.715   0.656 -0.7535  0.2478 -0.7856
 8077SOL    HW225131   4.235   2.862   0.641 -0.2473  0.1347  0.4015
 8078SOL     OW25132   0.797   5.531   5.124 -0.0724  0.4566 -0.1619
 8078SOL    HW125133   0.701   5.557   5.121  0.1930  1.5109 -0.1268
 8078SOL    HW225134   0.825   5.494   5.036 -0.7785 -0.9023  0.1690
 8079SOL     OW25135   4.762   1.960   1.039 -0.2519  0.4488 -0.2110
 8079SOL    HW125136   4.729   1.949   1.133  0.4090 -0.1899 -0.0449
 8079SOL    HW225137   4.699   2.019   0.988  0.0773  1.9373  1.0165
 8080SOL     OW25138   5.020   4.758   6.464 -0.2987  0.2665 -0.4039
 8080SOL    HW125139   5.038   4.728   6.558  0.3343  1.4683 -0.1172
 8080SOL    HW225140   5.107   4.781   6.419 -0.7084  1.1487 -0.7686
 8081SOL     OW25141   1.209   6.121   6.163 -0.2755 -0.4636 -0.0090
 8081SOL    HW125142   1.175   6.044   6.108 -0.5619 -0.2775 -0.0932
 8081SOL    HW225143   1.302   6.101   6.194 -0.1459 -0.6143 -0.4814
 8082SOL     OW25144   3.488   5.624   5.460 -0.4232 -0.0731  0.7101
 8082SOL    HW125145   3.405   5.591   5.504 -0.9608  1.1460  0.6688
 8082SOL    HW225146   3.464   5.687   5.385  0.5237  0.0141  0.4574
 8083SOL     OW25147   0.196   6.257   6.255  0.7324 -0.4333  0.5925
 8083SOL    HW125148   0.204   6.308   6.340  2.8625 -1.6738  1.2140
 8083SOL    HW225149   0.267   6.287   6.191 -1.1387  0.8379 -1.0198
 8084SOL     OW25150   3.188   6.925   6.997  0.5745  0.3261 -0.0583
 8084SOL    HW125151   3.145   6.851   7.047  0.9193 -0.9361 -1.5322
 8084SOL    HW225152   3.136   7.009   7.009 -0.3960 -0.3877  0.8493
 8085SOL     OW25153   3.098   0.294   3.975 -0.0042  0.0046  0.3519
 8085SOL    HW125154   3.028   0.302   3.904  0.4449  1.7462  0.0579
 8085SOL    HW225155   3.067   0.229   4.045 -0.6547 -1.3952 -1.1805
 8086SOL     OW25156   6.961   4.831   3.144 -0.6542  0.2645 -0.8665
 8086SOL    HW125157   6.969   4.902   3.215 -4.6323  0.4032 -0.3071
 8086SOL    HW225158   6.985   4.742   3.183 -1.8520  0.4799  0.4635
 8087SOL     OW25159   2.396   6.505   1.895  0.1604 -0.4899  0.8987
 8087SOL    HW125160   2.324   6.444   1.861  1.1163 -2.1103  1.6732
 8087SOL    HW225161   2.483   6.457   1.895  0.9161  0.8286  1.7114
 8088SOL     OW25162   5.865   3.273   2.114 -0.0278 -0.3281  0.0223
 8088SOL    HW125163   5.798   3.343   2.138 -0.4931 -0.7369 -0.0635
 8088SOL    HW225164   5.941   3.275   2.180 -0.0233  0.2712 -0.0002
 8089SOL     OW25165   4.441   1.491   5.748 -0.2607 -0.0296 -0.1557
 8089SOL    HW125166   4.361   1.537   5.709  0.2510  0.5018 -0.5869
 8089SOL    HW225167   4.458   1.405   5.699 -0.9090 -0.4378  0.3163
 8090SOL     OW25168   3.017   1.487   2.411 -0.1231  0.2133  0.5759
 8090SOL    HW125169   3.034   1.525   2.320  0.5264 -0.6128  0.3422
 8090SOL    HW225170   2.994   1.562   2.474  1.1108  1.0101  0.1269
 8091SOL     OW25171   2.604   0.341   1.141  0.1989  0.2701 -0.2324
 8091SOL    HW125172   2.695   0.374   1.117  0.6971  0.3040  1.6068
 8091SOL    HW225173   2.598   0.243   1.121 -0.1610  0.6900 -2.4858
 8092SOL     OW25174   5.933   0.765   4.373 -0.2988  0.0594  0.2537
 8092SOL    HW125175   6.026   0.783   4.340 -0.2217 -0.6229  0.0822
 8092SOL    HW225176   5.935   0.686   4.434 -0.7057  0.2966  0.5769
 8093SOL     OW25177   2.196   2.107   6.021  0.2573 -0.0550  0.1075
 8093SOL    HW125178   2.213   2.076   5.928  0.6343 -0.9873  0.4735
 8093SOL    HW225179   2.185   2.206   6.022  0.9815  0.0427 -0.8211
 8094SOL     OW25180   4.386   2.646   5.261 -0.1366  0.4400  0.3367
 8094SOL    HW125181   4.354   2.635   5.355 -0.5878  1.4319  0.3034
 8094SOL    HW225182   4.333   2.587   5.200 -0.1900  0.1898  0.6200
 8095SOL     OW25183   2.044   3.782   4.714  0.1558 -0.3986  0.5617
 8095SOL    HW125184   2.099   3.858   4.747  0.5361 -0.1521 -0.6177
 8095SOL    HW225185   2.024   3.720   4.790  1.1745  0.0489  1.2066
 8096SOL     OW25186   1.494   6.584   6.870  0.0495 -0.0341  0.2812
 8096SOL    HW125187   1.518   6.680   6.884  1.0307 -0.1609 -0.4572
 8096SOL    HW225188   1.501   6.561   6.773  0.1592 -0.9443  0.4962
 8097SOL     OW25189   0.109   0.838   1.078  0.1294  0.9516 -0.1832
 8097SOL    HW125190   0.030   0.778   1.087 -3.3345  5.0364 -0.1238
 8097SOL    HW225191   0.131   0.850   0.981  0.1666  0.4118 -0.2439
 8098SOL     OW25192   1.198   4.330   6.974 -0.4293  0.4757 -0.8118
 8098SOL    HW125193   1.130   4.367   7.038 -0.1360 -0.4101  0.0355
 8098SOL    HW225194   1.225   4.239   7.004  0.1477  0.2785 -1.8949
 8099SOL     OW25195   3.737   1.255   4.695  0.1468 -0.0943  0.2108
 8099SOL    HW125196   3.800   1.248   4.618  1.9135  1.0064  1.4835
 8099SOL    HW225197   3.710   1.351   4.708  0.9100 -0.0515  1.7242
 8100SOL     OW25198   5.243   3.434   5.428  0.1968 -0.2514 -0.1283
 8100SOL    HW125199   5.339   3.441   5.401  0.4828 -0.2338  0.8534
 8100SOL    HW225200   5.226   3.345   5.470  0.5711  0.8382  2.5528
 8101SOL     OW25201   2.550   6.841   3.052  0.2063  0.0796  0.2926
 8101SOL    HW125202   2.594   6.865   2.965  0.5124 -1.6688 -0.0669
 8101SOL    HW225203   2.582   6.751   3.082 -1.9934 -0.5828  0.7913
 8102SOL     OW25204   1.992   3.628   1.536  0.1732  0.2591 -0.2059
 8102SOL    HW125205   2.048   3.711   1.531 -1.2376  1.4148  1.8966
 8102SOL    HW225206   2.007   3.583   1.624 -1.0148 -0.2889 -0.2691
 8103SOL     OW25207   5.583   2.894   4.949 -0.1509 -0.3904 -0.5290
 8103SOL    HW125208   5.484   2.898   4.934 -0.1752  0.3513 -0.2247
 8103SOL    HW225209   5.626   2.976   4.911  0.5130 -1.2437 -1.7243
 8104SOL     OW25210   0.454   6.257   5.861  0.6422  0.3550 -0.3805
 8104SOL    HW125211   0.455   6.348   5.819 -3.0680  0.8790  0.3274
 8104SOL    HW225212   0.389   6.256   5.937  1.3915 -2.6198  0.3447
 8105SOL     OW25213   4.098   5.889   5.736 -0.7153 -0.7491 -0.9231
 8105SOL    HW125214   4.141   5.869   5.648 -1.2902 -0.6140 -1.2393
 8105SOL    HW225215   4.054   5.807   5.772 -0.1426 -0.9047 -0.5658
 8106SOL     OW25216   1.905   1.335   0.488 -0.3105  0.0100  0.6626
 8106SOL    HW125217   1.998   1.341   0.525 -0.1775  1.2302  0.1751
 8106SOL    HW225218   1.858   1.421   0.505 -0.2572  0.6133 -1.9629
 8107SOL     OW25219   0.266   1.284   4.565  0.1893 -0.0852 -0.4064
 8107SOL    HW125220   0.295   1.289   4.660  1.4054 -1.4888 -0.6741
 8107SOL    HW225221   0.172   1.318   4.557 -0.0475 -0.2376  1.3348
 8108SOL     OW25222   0.572   3.880   3.961  0.1553  0.1880 -0.3371
 8108SOL    HW125223   0.539   3.797   3.915  0.7111  0.5597 -1.4304
 8108SOL    HW225224   0.564   3.958   3.899  1.1505  0.6644  0.1148
 8109SOL     OW25225   0.580   5.230   2.667 -0.3868 -0.3197  0.0686
 8109SOL    HW125226   0.642   5.297   2.627 -0.1578 -0.5809 -0.0156
 8109SOL    HW225227   0.495   5.276   2.693  0.5794  0.4552  2.0353
 8110SOL     OW25228   5.120   6.548   2.695  0.0761 -0.3563 -0.2449
 8110SOL    HW125229   5.160   6.456   2.688  0.1162 -0.4132  0.7167
 8110SOL    HW225230   5.045   6.548   2.761  0.2835  0.3819 -0.0015
 8111SOL     OW25231   3.280   5.987   2.839  0.0513  0.7174  0.1831
 8111SOL    HW125232   3.284   5.909   2.900  1.4449 -0.1163 -0.9095
 8111SOL    HW225233   3.238   6.065   2.886 -0.5211 -0.4018  1.5839
 8112SOL     OW25234   2.272   4.959   5.160 -0.3871  0.1008 -0.0854
 8112SOL    HW125235   2.261   4.881   5.223 -0.4484  0.7844  0.7647
 8112SOL    HW225236   2.214   5.034   5.190  2.0470  1.6538  0.9916
 8113SOL     OW25237   4.579   5.526   1.912  0.1409 -1.0339  0.2216
 8113SOL    HW125238   4.500   5.467   1.930  0.4139 -1.9586 -1.4814
 8113SOL    HW225239   4.629   5.540   1.997  0.0545 -3.2396  0.6983
 8114SOL     OW25240   1.352   5.369   0.613 -0.0591 -0.0139  0.4280
 8114SOL    HW125241   1.258   5.386   0.586  0.1551  0.9789  0.2984
 8114SOL    HW225242   1.415   5.407   0.546  0.4487 -0.7732  0.4485
 8115SOL     OW25243   6.721   3.251   1.204 -0.0646 -0.0212  0.1313
 8115SOL    HW125244   6.637   3.293   1.166 -0.6304 -2.2109 -1.2029
 8115SOL    HW225245   6.715   3.251   1.304  0.4754  3.9394  0.3557
 8116SOL     OW25246   5.802   6.261   6.585  0.1262 -0.3901  0.1432
 8116SOL    HW125247   5.857   6.201   6.527  1.1016 -0.6640  1.3201
 8116SOL    HW225248   5.861   6.327   6.630 -0.9197  1.4210 -1.0336
 8117SOL     OW25249   2.746   1.018   2.327  0.1910 -0.5470 -0.2173
 8117SOL    HW125250   2.700   0.930   2.338 -0.7914 -0.1397 -0.8878
 8117SOL    HW225251   2.719   1.059   2.240  3.1920 -1.0722 -1.5247
 8118SOL     OW25252   0.807   6.562   4.179 -0.0005 -0.2396 -0.9372
 8118SOL    HW125253   0.896   6.541   4.219 -0.8449 -1.1995  0.5812
 8118SOL    HW225254   0.775   6.483   4.126 -1.0669 -1.0164  0.7538
 8119SOL     OW25255   6.057   0.334   1.224  0.3687 -0.0008  0.0891
 8119SOL    HW125256   6.142   0.364   1.180 -1.0794  1.2609 -2.0624
 8119SOL    HW225257   6.001   0.414   1.243  0.0804 -0.7241  2.5122
 8120SOL     OW25258   0.808   2.734   1.571  0.7907 -0.2195  0.0577
 8120SOL    HW125259   0.750   2.653   1.570  0.2884  0.1211  0.7166
 8120SOL    HW225260   0.896   2.712   1.613  0.4428 -0.2872  0.7609
 8121SOL     OW25261   3.713   6.517   3.442 -0.6399  0.3761 -0.2557
 8121SOL    HW125262   3.783   6.575   3.401  1.8620  0.3138  3.4481
 8121SOL    HW225263   3.739   6.421   3.431  0.3662  0.3732  1.7520
 8122SOL     OW25264   1.098   5.879   6.111 -0.7523  0.0977 -0.4338
 8122SOL    HW125265   0.998   5.882   6.108 -0.7814 -0.8216 -1.0989
 8122SOL    HW225266   1.127   5.785   6.130 -0.0123  0.1084 -1.4293
 8123SOL     OW25267   5.191   4.356   0.342  0.0786 -0.3594 -0.0110
 8123SOL    HW125268   5.264   4.295   0.372  0.5259 -0.2205 -0.7837
 8123SOL    HW225269   5.168   4.337   0.246 -0.2586  0.2171 -0.0505
 8124SOL     OW25270   6.022   6.023   6.418  0.0659 -0.0271  0.2307
 8124SOL    HW125271   6.061   6.089   6.353  0.9957  0.2224  1.0272
 8124SOL    HW225272   6.008   5.935   6.372  0.7116  0.1491 -0.3101
 8125SOL     OW25273   3.647   4.128   3.863  0.2427 -0.0000  0.2460
 8125SOL    HW125274   3.727   4.070   3.880  0.8915  0.5806 -0.7307
 8125SOL    HW225275   3.677   4.221   3.843 -0.5089 -0.2778 -2.5148
 8126SOL     OW25276   0.581   3.108   5.911  0.5243 -0.1602 -0.3989
 8126SOL    HW125277   0.570   3.178   5.982  0.2464  0.8916 -1.4419
 8126SOL    HW225278   0.522   3.131   5.833  2.0919 -0.3438 -1.6841
 8127SOL     OW25279   4.535   1.650   5.936 -0.2976  0.2421  0.4768
 8127SOL    HW125280   4.458   1.676   5.995  0.2688 -1.8400  2.2391
 8127SOL    HW225281   4.506   1.578   5.873  0.1840 -0.6319  1.2240
 8128SOL     OW25282   3.321   3.242   6.824 -0.0531  0.2562  0.8557
 8128SOL    HW125283   3.328   3.162   6.884  0.2379  0.8159  1.5895
 8128SOL    HW225284   3.293   3.213   6.733  2.5074 -1.0065  0.3804
 8129SOL     OW25285   5.519   6.304   4.516  0.2756  0.1504  0.6876
 8129SOL    HW125286   5.583   6.297   4.439 -0.1634  1.9561  0.1090
 8129SOL    HW225287   5.433   6.258   4.492 -0.6351  2.4242 -0.8461
 8130SOL     OW25288   2.549   2.269   5.795  0.4534 -0.1076 -0.2841
 8130SOL    HW125289   2.628   2.227   5.841  0.9045 -1.9107 -2.5117
 8130SOL    HW225290   2.542   2.234   5.702 -2.5155  0.6529 -0.4597
 8131SOL     OW25291   5.036   4.663   6.736 -0.0330 -0.1980 -0.0611
 8131SOL    HW125292   5.052   4.568   6.766  0.1965 -0.2655 -0.3868
 8131SOL    HW225293   4.956   4.700   6.783 -0.7690 -0.9158 -0.7208
 8132SOL     OW25294   4.103   6.697   3.837 -0.4415 -0.7480  0.7211
 8132SOL    HW125295   4.008   6.723   3.821 -0.6694 -0.1883  2.7289
 8132SOL    HW225296   4.163   6.762   3.790 -1.0578  0.1595  1.1474
 8133SOL     OW25297   6.781   4.920   2.961 -0.4760  0.0312 -0.0316
 8133SOL    HW125298   6.836   4.895   3.040 -0.9905 -1.3735 -0.0895
 8133SOL    HW225299   6.830   4.896   2.877 -0.9081 -0.6652 -0.0909
 8134SOL     OW25300   4.697   2.202   3.651 -0.5691 -0.1485 -0.3302
 8134SOL    HW125301   4.747   2.121   3.680  0.4545  0.8571  0.8150
 8134SOL    HW225302   4.617   2.174   3.598  0.5324 -1.8406 -1.1985
 8135SOL     OW25303   5.825   0.413   5.419  0.1090  0.7113  0.2446
 8135SOL    HW125304   5.827   0.509   5.447  0.8930  1.5075 -2.2354
 8135SOL    HW225305   5.918   0.375   5.421 -0.0845  0.2339  0.4516
 8136SOL     OW25306   2.548   0.180   1.711  0.0023 -0.6241  0.5052
 8136SOL    HW125307   2.544   0.157   1.808 -1.1571  0.9454  0.8749
 8136SOL    HW225308   2.637   0.223   1.691  0.4939 -1.5205  0.7103
 8137SOL     OW25309   6.727   4.970   6.554 -0.3433  0.5600  0.1931
 8137SOL    HW125310   6.812   4.976   6.606 -0.7753  2.8703  0.7529
 8137SOL    HW225311   6.747   4.947   6.459  0.8769  0.7751  0.3836
 8138SOL     OW25312   4.579   4.110   6.411 -0.2275 -0.0754 -0.2533
 8138SOL    HW125313   4.625   4.199   6.417  0.7600 -0.5934  0.2136
 8138SOL    HW225314   4.609   4.053   6.487 -0.1681 -1.1125 -1.0365
 8139SOL     OW25315   5.019   5.237   3.441 -0.0056 -0.4404  0.1704
 8139SOL    HW125316   5.032   5.240   3.342  0.3972 -1.8987  0.1590
 8139SOL    HW225317   4.925   5.207   3.461 -0.1734  0.1182  0.2421
 8140SOL     OW25318   3.001   2.729   5.329  0.1831 -0.5097 -0.0646
 8140SOL    HW125319   3.032   2.803   5.389 -1.3947 -0.5449  0.8476
 8140SOL    HW225320   2.920   2.759   5.277  0.0807 -1.2837 -0.3724
 8141SOL     OW25321   6.047   5.015   0.712  0.4853 -0.0075 -0.0401
 8141SOL    HW125322   6.102   5.031   0.793 -1.0742  0.5273  0.9712
 8141SOL    HW225323   6.105   5.013   0.631  2.0574 -0.4193  1.0733
 8142SOL     OW25324   0.901   3.915   5.139  0.4820 -0.6088 -0.2616
 8142SOL    HW125325   0.841   3.995   5.134 -0.0830 -0.9883  0.2111
 8142SOL    HW225326   0.964   3.916   5.062  1.5999  1.1701  0.6054
 8143SOL     OW25327   5.493   3.504   5.603  0.6302  0.7427  0.0943
 8143SOL    HW125328   5.587   3.488   5.635  0.7081 -0.4256 -0.6759
 8143SOL    HW225329   5.432   3.438   5.645  0.2402  1.1188  0.1239
 8144SOL     OW25330   2.850   5.622   4.928 -0.2370 -0.5953  0.1425
 8144SOL    HW125331   2.816   5.613   5.022  0.5269  1.1602  0.6328
 8144SOL    HW225332   2.777   5.659   4.870  0.2784  1.7322  0.8666
 8145SOL     OW25333   1.067   0.007   0.319 -0.1282 -0.0391  0.0109
 8145SOL    HW125334   1.060  -0.020   0.415 -0.7377 -1.8086 -0.5017
 8145SOL    HW225335   1.094  -0.072   0.263  0.1861  0.9491 -1.2901
 8146SOL     OW25336   5.889   0.353   0.487  0.5969  0.6336 -0.0134
 8146SOL    HW125337   5.832   0.290   0.434  1.1884  0.1165 -0.0532
 8146SOL    HW225338   5.832   0.410   0.545  0.0678 -0.1197  0.2131
 8147SOL     OW25339   0.986   5.578   3.082 -0.0611 -0.8787  0.3540
 8147SOL    HW125340   0.887   5.571   3.067 -0.1120  0.6588 -0.2523
 8147SOL    HW225341   1.033   5.577   2.994  0.3891 -0.7397  0.5897
 8148SOL     OW25342   5.304   2.078   5.910  0.2242  0.1245  0.0504
 8148SOL    HW125343   5.288   2.009   5.980  2.7125  0.5167  1.1196
 8148SOL    HW225344   5.292   2.169   5.949  0.2197  0.3402 -0.4391
 8149SOL     OW25345   0.956   6.646   4.551 -0.6917 -0.2568 -0.0482
 8149SOL    HW125346   0.859   6.621   4.560 -0.9409  0.5790 -0.2705
 8149SOL    HW225347   1.002   6.633   4.638 -1.3197  0.5946  0.4323
 8150SOL     OW25348   0.408   4.512   5.205  0.5388 -0.0535  0.4442
 8150SOL    HW125349   0.369   4.603   5.221  0.1908 -0.1549  0.1740
 8150SOL    HW225350   0.413   4.495   5.106  0.9396 -0.1850  0.4840
 8151SOL     OW25351   4.945   6.121   2.610 -0.2328  0.2678  0.0833
 8151SOL    HW125352   4.986   6.135   2.519  0.1369 -0.3375  0.1544
 8151SOL    HW225353   4.852   6.158   2.610  0.3411  1.8064 -0.0414
 8152SOL     OW25354   0.399   3.635   3.831 -0.3531 -0.1600 -0.1860
 8152SOL    HW125355   0.395   3.548   3.782 -1.8967 -0.3139  0.1743
 8152SOL    HW225356   0.307   3.675   3.835  0.5720  2.3406 -1.8548
 8153SOL     OW25357   0.662   4.395   4.713  0.5024  0.6237 -0.7910
 8153SOL    HW125358   0.693   4.465   4.777  0.9179  1.0345 -1.4380
 8153SOL    HW225359   0.685   4.422   4.620 -0.6119  0.3097 -1.1769
 8154SOL     OW25360   3.863   1.840   1.295 -0.8080  0.0481 -0.1775
 8154SOL    HW125361   3.785   1.799   1.344  0.2446  0.8958  2.3738
 8154SOL    HW225362   3.940   1.776   1.297 -1.5059 -1.0731 -3.2821
 8155SOL     OW25363   6.052   3.231   0.647 -0.8153 -0.2148  0.1856
 8155SOL    HW125364   6.062   3.294   0.571  0.0488 -0.4270  0.1163
 8155SOL    HW225365   6.009   3.147   0.614  1.0841 -0.9925 -0.4826
 8156SOL     OW25366   4.248   5.024   2.524 -0.0678 -0.0572 -0.2004
 8156SOL    HW125367   4.294   4.984   2.604 -1.0313  0.2209  0.5047
 8156SOL    HW225368   4.244   4.955   2.451 -0.4629 -0.8079  0.5048
 8157SOL     OW25369   0.875   4.275   6.043  0.3621  0.0594 -0.2853
 8157SOL    HW125370   0.944   4.212   6.079  0.0138 -0.4236 -0.4525
 8157SOL    HW225371   0.822   4.313   6.118  0.2433 -0.2327 -0.2222
 8158SOL     OW25372   3.382   3.103   2.089  0.3124  0.2396  0.0609
 8158SOL    HW125373   3.409   3.065   2.000  2.1751  0.5018  0.4857
 8158SOL    HW225374   3.383   3.202   2.085 -1.7862  0.2989 -0.2201
 8159SOL     OW25375   0.037   3.288   4.086  0.1767 -0.3288  0.2178
 8159SOL    HW125376   0.135   3.299   4.099  0.7324 -2.0258 -1.9409
 8159SOL    HW225377   0.006   3.348   4.013 -0.4462  0.2864  0.9682
 8160SOL     OW25378   0.768   5.677   4.287  0.2372  0.1939  0.2536
 8160SOL    HW125379   0.714   5.596   4.312 -0.4433  0.3425 -0.6955
 8160SOL    HW225380   0.782   5.678   4.188  0.6135  1.0204  0.3115
 8161SOL     OW25381   3.462   0.694   4.617 -0.0245 -0.5292 -0.4201
 8161SOL    HW125382   3.489   0.597   4.622 -3.8046 -1.7187  0.3659
 8161SOL    HW225383   3.424   0.713   4.526  0.8582  0.3018 -0.6278
 8162SOL     OW25384   0.123   2.424   4.430  0.1047 -0.0827  0.0051
 8162SOL    HW125385   0.140   2.367   4.510 -0.5629  0.3110  0.4388
 8162SOL    HW225386   0.043   2.390   4.381 -0.4907  0.6537  0.4449
 8163SOL     OW25387   1.750   0.244   3.296 -0.1804 -0.1186  0.2496
 8163SOL    HW125388   1.816   0.200   3.356  0.3158  1.0463  0.5825
 8163SOL    HW225389   1.732   0.337   3.327 -1.7119 -0.2793 -0.0480
 8164SOL     OW25390   5.814   1.701   2.443  0.3247  0.3350 -0.2354
 8164SOL    HW125391   5.756   1.703   2.524  1.1846 -2.7228  0.5701
 8164SOL    HW225392   5.765   1.661   2.367  0.3283  0.9041 -0.5471
 8165SOL     OW25393   3.737   2.303   5.347 -0.7136 -0.4127 -0.4346
 8165SOL    HW125394   3.774   2.383   5.299 -2.5018  0.8778  0.1926
 8165SOL    HW225395   3.659   2.267   5.295 -0.4583 -1.2160 -0.2681
 8166SOL     OW25396   1.848   2.528   1.184 -0.5067  0.5807 -0.3306
 8166SOL    HW125397   1.883   2.440   1.216 -0.9693 -0.1141 -1.6692
 8166SOL    HW225398   1.799   2.574   1.258  1.2355  0.5470  0.9185
 8167SOL     OW25399   0.811   6.648   6.764  0.0851  0.6126 -0.5419
 8167SOL    HW125400   0.790   6.744   6.783  0.1147  0.8803 -1.7346
 8167SOL    HW225401   0.812   6.634   6.665  2.5801 -0.0612 -0.4865
 8168SOL     OW25402   1.418   1.131   5.196  0.4881 -0.8399 -0.5877
 8168SOL    HW125403   1.419   1.230   5.182  1.5124 -0.9624 -1.4780
 8168SOL    HW225404   1.345   1.090   5.141 -1.8349 -0.3467  1.8797
 8169SOL     OW25405   6.138   6.334   6.528  0.1473 -0.8835  0.4295
 8169SOL    HW125406   6.196   6.330   6.609  2.1832 -0.7300 -0.9629
 8169SOL    HW225407   6.172   6.270   6.458 -0.5569  0.1504 -0.9157
 8170SOL     OW25408   2.966   4.994   6.092  0.7872  0.0439  0.0811
 8170SOL    HW125409   2.921   5.027   6.009  1.7666  0.5301 -0.2715
 8170SOL    HW225410   2.897   4.978   6.163  0.0458  0.6429 -0.4873
 8171SOL     OW25411   5.903   5.638   4.398 -0.2275  0.3872 -0.6084
 8171SOL    HW125412   5.973   5.568   4.412  0.5603  1.3940  0.7875
 8171SOL    HW225413   5.860   5.625   4.309 -1.1861 -2.7614  0.1985
 8172SOL     OW25414   5.929   5.447   0.202  0.4636  0.1852  0.1488
 8172SOL    HW125415   5.963   5.505   0.276 -0.0882 -0.4326  0.9070
 8172SOL    HW225416   5.932   5.498   0.116  0.4714  1.1548  0.7040
 8173SOL     OW25417   6.192   0.587   5.406 -0.4966  0.4542  0.3851
 8173SOL    HW125418   6.195   0.538   5.319 -2.0894  0.2768  0.4043
 8173SOL    HW225419   6.283   0.622   5.428  0.1377 -0.3716 -0.8431
 8174SOL     OW25420   4.818   3.387   1.310 -0.4896  0.6213  0.0377
 8174SOL    HW125421   4.742   3.330   1.277  0.5011 -0.7768  0.0521
 8174SOL    HW225422   4.903   3.356   1.268  0.0210  2.4768 -0.3405
 8175SOL     OW25423   6.908   3.277   3.110 -0.0438 -0.6621  0.0037
 8175SOL    HW125424   6.999   3.295   3.147 -1.3214 -0.6806  3.4827
 8175SOL    HW225425   6.899   3.180   3.090  0.4713 -0.7786  0.3116
 8176SOL     OW25426   3.574   3.377   4.030  0.2420  0.5183  0.4371
 8176SOL    HW125427   3.496   3.387   4.092  0.1184 -1.4905  0.6841
 8176SOL    HW225428   3.548   3.321   3.951  1.2206  0.4469  0.1471
 8177SOL     OW25429   5.066   5.664   2.693  0.3966  0.4661  0.5003
 8177SOL    HW125430   5.148   5.628   2.648  0.4628 -0.8078  1.5854
 8177SOL    HW225431   4.987   5.608   2.667  0.5458 -0.7220  2.4267
 8178SOL     OW25432   1.415   3.869   1.993  0.2891  0.2955  0.6318
 8178SOL    HW125433   1.382   3.905   1.906 -1.7541 -0.8155  0.8776
 8178SOL    HW225434   1.450   3.943   2.049 -1.8145  1.6325  0.2941
 8179SOL     OW25435   3.430   6.291   5.719  0.1875  0.0029  0.5113
 8179SOL    HW125436   3.514   6.335   5.752  0.0067  0.0860  0.8667
 8179SOL    HW225437   3.439   6.192   5.728  0.2418  0.0122  0.5610
 8180SOL     OW25438   0.772   4.231   3.933  0.1900 -0.6429  0.4825
 8180SOL    HW125439   0.736   4.325   3.938  0.7940 -0.0705 -2.8922
 8180SOL    HW225440   0.857   4.225   3.985 -0.3846  0.4004  1.5740
 8181SOL     OW25441   1.360   1.442   1.914 -0.1602 -0.7658  0.1178
 8181SOL    HW125442   1.437   1.390   1.879  1.9383  1.5570  0.9999
 8181SOL    HW225443   1.350   1.526   1.861 -1.7778 -0.7610  0.3806
 8182SOL     OW25444   2.312   0.942   4.482 -0.2169  0.3685  0.1720
 8182SOL    HW125445   2.371   0.987   4.550 -0.2734  1.5456 -0.5354
 8182SOL    HW225446   2.217   0.947   4.513  0.1028 -3.6121  2.5133
 8183SOL     OW25447   2.574   4.523   6.737  0.9687 -0.2114 -0.1951
 8183SOL    HW125448   2.490   4.546   6.787  2.4328 -0.3753  2.5197
 8183SOL    HW225449   2.585   4.587   6.660 -0.5750  1.1358  0.6327
 8184SOL     OW25450   5.632   0.601   5.750  0.4756  0.1472 -0.5933
 8184SOL    HW125451   5.563   0.537   5.718  0.6837 -0.0906 -0.5696
 8184SOL    HW225452   5.602   0.695   5.732 -0.2930  0.0910  0.2875
 8185SOL     OW25453   2.283   4.967   6.430  0.0920 -0.0263 -0.3877
 8185SOL    HW125454   2.288   4.922   6.519 -2.5446  0.3874  0.0714
 8185SOL    HW225455   2.287   4.897   6.358 -0.1460 -0.6345  0.1691
 8186SOL     OW25456   1.470   3.049   5.038  0.2649 -0.0281  0.2361
 8186SOL    HW125457   1.546   3.051   4.974  0.6812  1.3477  0.7409
 8186SOL    HW225458   1.409   3.127   5.020 -1.9230 -1.9219 -1.1767
 8187SOL     OW25459   3.232   1.905   4.228  0.7337  0.2176  0.9800
 8187SOL    HW125460   3.316   1.850   4.235 -0.0276 -0.9060  1.8426
 8187SOL    HW225461   3.244   1.990   4.279  1.2274 -0.0973  1.4051
 8188SOL     OW25462   4.518   1.266   1.366 -0.1388  0.3648 -0.3927
 8188SOL    HW125463   4.502   1.353   1.319  1.6342  0.4556 -0.8990
 8188SOL    HW225464   4.579   1.210   1.311 -0.0181 -0.5688  0.6648
 8189SOL     OW25465   4.143   1.486   2.534  0.3708 -0.5157 -0.7348
 8189SOL    HW125466   4.073   1.474   2.463  0.9893  0.0608 -1.4541
 8189SOL    HW225467   4.232   1.498   2.491  1.1237 -2.3634  0.1895
 8190SOL     OW25468   5.584   4.743   5.090 -0.5560 -0.1140 -0.0572
 8190SOL    HW125469   5.654   4.723   5.021 -0.4178  0.2736 -0.0313
 8190SOL    HW225470   5.598   4.684   5.169 -0.0432  0.2000  0.0928
 8191SOL     OW25471   3.956   0.201   2.102 -0.3849 -0.2481 -0.0302
 8191SOL    HW125472   3.925   0.226   2.194  0.0291 -0.4593  0.1678
 8191SOL    HW225473   3.878   0.169   2.049 -0.6805  0.1529  0.1518
 8192SOL     OW25474   5.836   2.554   4.299  0.0280  0.0562  0.0779
 8192SOL    HW125475   5.856   2.504   4.215  0.2424  1.1712 -0.5511
 8192SOL    HW225476   5.744   2.529   4.331 -0.1243 -0.2508 -0.5735
 8193SOL     OW25477   3.887   1.125   3.201  0.5681  0.4549 -0.3453
 8193SOL    HW125478   3.853   1.131   3.294 -1.2795 -1.5843 -0.7916
 8193SOL    HW225479   3.953   1.050   3.194 -0.7857 -0.7607 -0.9663
 8194SOL     OW25480   1.185   1.566   3.848  0.2600 -0.6454 -0.1493
 8194SOL    HW125481   1.264   1.532   3.796  0.1899 -1.0233 -0.0100
 8194SOL    HW225482   1.123   1.613   3.785  0.7354 -0.0804 -0.2106
 8195SOL     OW25483   0.495   6.535   2.311 -0.3549  0.5823  0.1127
 8195SOL    HW125484   0.570   6.469   2.298 -1.6062 -1.2100  1.4108
 8195SOL    HW225485   0.531   6.621   2.346  1.1872  0.0723 -0.1703
 8196SOL     OW25486   4.851   5.178   3.773  0.2275 -0.4119 -0.5435
 8196SOL    HW125487   4.771   5.155   3.830 -1.8924  1.4868 -2.5263
 8196SOL    HW225488   4.855   5.117   3.695  1.3522 -1.1088  0.0347
 8197SOL     OW25489   2.883   0.497   6.026  0.5098 -0.1103 -0.0381
 8197SOL    HW125490   2.865   0.592   6.051  0.5034 -0.3515  0.8925
 8197SOL    HW225491   2.981   0.479   6.032  0.6218  0.0794 -1.1107
 8198SOL     OW25492   2.024   0.009   0.380  0.2081 -0.4342 -0.0764
 8198SOL    HW125493   1.934   0.050   0.399  1.2652  1.3959  1.3200
 8198SOL    HW225494   2.044   0.017   0.283 -1.1962 -1.0368 -0.4472
 8199SOL     OW25495   3.938   1.529   1.674  0.0641 -0.0091 -0.2610
 8199SOL    HW125496   4.022   1.578   1.696 -0.2413  0.5882 -0.3975
 8199SOL    HW225497   3.859   1.585   1.698 -0.3149 -0.8533  0.5312
 8200SOL     OW25498   4.608   6.904   3.066  0.0410  0.4625  0.4680
 8200SOL    HW125499   4.690   6.943   3.107 -0.3511  1.8348 -0.0010
 8200SOL    HW225500   4.569   6.969   3.000 -1.4229 -0.1615  0.6753
 8201SOL     OW25501   6.053   5.568   0.495  0.2708  0.2296  0.2850
 8201SOL    HW125502   6.000   5.492   0.532 -0.7551  1.3867  1.3286
 8201SOL    HW225503   6.074   5.632   0.569  1.3426  0.8285 -0.5106
 8202SOL     OW25504   2.433   6.319   6.583 -0.8374 -1.1592  0.4674
 8202SOL    HW125505   2.515   6.363   6.545 -0.2637 -0.7099  2.1318
 8202SOL    HW225506   2.459   6.233   6.626 -1.4047 -1.4634  0.2053
 8203SOL     OW25507   0.093   6.296   3.884 -0.3297  0.3550 -0.2519
 8203SOL    HW125508   0.165   6.269   3.819 -0.5354  0.1519 -0.3969
 8203SOL    HW225509   0.052   6.383   3.855 -1.0933 -0.2246 -0.9438
 8204SOL     OW25510   4.050   4.800   3.941  0.4712 -0.2409  0.7788
 8204SOL    HW125511   4.042   4.798   4.041  1.1183  1.7286  0.9070
 8204SOL    HW225512   4.135   4.754   3.914  0.2442 -0.8731  1.1073
 8205SOL     OW25513   5.384   4.606   2.846 -0.4989 -0.0979  0.2575
 8205SOL    HW125514   5.365   4.528   2.907 -1.5131  0.1436  0.2636
 8205SOL    HW225515   5.347   4.586   2.755 -1.6570  0.7736  0.5186
 8206SOL     OW25516   3.063   6.958   5.632 -0.7089  0.5398  0.0980
 8206SOL    HW125517   2.988   6.913   5.583  0.8245 -1.4216 -0.5803
 8206SOL    HW225518   3.112   7.019   5.569  0.1631 -0.6035 -0.3565
 8207SOL     OW25519   4.608   2.164   0.979  0.1971 -0.4947  0.5892
 8207SOL    HW125520   4.509   2.154   0.980  0.1781 -0.3411  0.2852
 8207SOL    HW225521   4.633   2.254   1.015  0.1428  0.0989 -0.8250
 8208SOL     OW25522   4.401   0.109   6.575  0.6147 -0.0110 -0.4997
 8208SOL    HW125523   4.486   0.066   6.543  0.6786  0.3180 -0.7714
 8208SOL    HW225524   4.374   0.068   6.663  2.5634  1.7768  1.0413
 8209SOL     OW25525   6.602   4.953   1.336  0.1360  0.1671  0.4053
 8209SOL    HW125526   6.536   4.878   1.330  0.3340 -0.2513  2.6614
 8209SOL    HW225527   6.627   4.969   1.432  3.5862  0.0805 -0.3540
 8210SOL     OW25528   0.985   5.593   4.679 -0.1345 -0.4461 -0.3688
 8210SOL    HW125529   1.081   5.608   4.703 -0.1405 -1.0589  0.0598
 8210SOL    HW225530   0.936   5.679   4.687  0.4974  0.0114 -1.2004
 8211SOL     OW25531   5.614   4.580   1.429  0.0857 -0.2452  0.1804
 8211SOL    HW125532   5.683   4.552   1.362  0.0315 -0.4942  0.2262
 8211SOL    HW225533   5.527   4.596   1.382  0.3360  0.7271  0.0241
 8212SOL     OW25534   3.834   1.476   3.942 -0.0947  0.5952 -0.3358
 8212SOL    HW125535   3.868   1.570   3.940  0.6457  0.3376 -0.3880
 8212SOL    HW225536   3.855   1.430   3.856 -0.4310  0.3746 -0.3039
 8213SOL     OW25537   3.857   1.984   0.761 -0.3724  0.7807 -0.2252
 8213SOL    HW125538   3.904   1.940   0.684 -0.9577  0.3505 -0.3419
 8213SOL    HW225539   3.919   1.989   0.839 -0.7567 -1.7479  0.3236
 8214SOL     OW25540   4.564   2.562   3.080 -0.2367  0.5650 -0.3349
 8214SOL    HW125541   4.651   2.517   3.063 -0.7406 -0.8371  0.5446
 8214SOL    HW225542   4.580   2.652   3.119  0.8489 -0.2757  1.2821
 8215SOL     OW25543   1.376   0.671   4.074  0.4139  0.7026  0.5091
 8215SOL    HW125544   1.396   0.741   4.143  1.2536  0.1611  0.8350
 8215SOL    HW225545   1.415   0.584   4.103  2.7693  0.9219 -1.6617
 8216SOL     OW25546   5.057   5.755   4.669  0.0946 -0.2973  0.0304
 8216SOL    HW125547   5.069   5.797   4.578  2.2181  1.2688  0.9270
 8216SOL    HW225548   5.130   5.689   4.685  0.6177  0.4947  1.0949
 8217SOL     OW25549   4.945   5.376   6.314  0.3798  0.0520 -0.1009
 8217SOL    HW125550   4.941   5.297   6.252 -0.5976  2.1224 -2.9134
 8217SOL    HW225551   4.854   5.392   6.352  0.2074  0.6515 -0.7377
 8218SOL     OW25552   2.567   0.184   0.140 -0.1552  0.6010  0.3978
 8218SOL    HW125553   2.550   0.201   0.237  0.0306  1.2674  0.3172
 8218SOL    HW225554   2.651   0.231   0.112  0.0299  0.0569  0.0133
 8219SOL     OW25555   4.389   1.639   5.503  0.2906 -0.4700 -0.2022
 8219SOL    HW125556   4.313   1.636   5.568 -0.4884 -1.8135 -1.1241
 8219SOL    HW225557   4.373   1.713   5.437  1.4857  1.4389  1.5220
 8220SOL     OW25558   2.399   5.104   1.005  0.5606  0.1576  0.2180
 8220SOL    HW125559   2.351   5.018   1.025  0.1249  0.1548 -0.7889
 8220SOL    HW225560   2.353   5.179   1.053  0.4154 -0.0502  0.4081
 8221SOL     OW25561   4.863   5.024   5.324 -0.5894  0.0113  0.0691
 8221SOL    HW125562   4.941   5.048   5.267  0.3921 -2.2925  0.3303
 8221SOL    HW225563   4.798   5.101   5.326  1.5387  1.9275 -0.2935
 8222SOL     OW25564   4.356   6.001   5.457  0.0038  0.1279  0.0610
 8222SOL    HW125565   4.362   6.079   5.395 -1.3263  0.2963  0.1295
 8222SOL    HW225566   4.430   5.937   5.437  0.6734  1.0476 -0.4774
 8223SOL     OW25567   6.888   4.285   2.666 -0.8000  0.3192  0.1154
 8223SOL    HW125568   6.817   4.355   2.663 -1.7731 -0.6846 -0.9179
 8223SOL    HW225569   6.968   4.316   2.614 -1.1892  0.7189 -0.2512
 8224SOL     OW25570   6.311   4.145   5.773 -0.9447 -0.1010 -0.0883
 8224SOL    HW125571   6.390   4.178   5.826 -1.1094  0.8191 -0.4013
 8224SOL    HW225572   6.329   4.051   5.742  0.0554  0.1121 -0.2046
 8225SOL     OW25573   6.573   2.603   0.393 -0.3964 -0.2736  0.0970
 8225SOL    HW125574   6.513   2.639   0.465  0.6483 -2.2835  2.1168
 8225SOL    HW225575   6.647   2.668   0.376  0.6143 -0.6489  2.5745
 8226SOL     OW25576   6.839   2.134   7.001 -0.7558  0.2962 -0.4957
 8226SOL    HW125577   6.831   2.232   6.985 -1.2146  0.6000  1.3303
 8226SOL    HW225578   6.936   2.109   7.008 -0.6456  1.0208  1.0231
 8227SOL     OW25579   6.455   2.043   4.757 -0.0256 -0.2585  0.1295
 8227SOL    HW125580   6.466   2.142   4.758  1.0859 -0.3337 -1.3793
 8227SOL    HW225581   6.372   2.018   4.807  0.7182  1.2507  2.2783
 8228SOL     OW25582   3.363   5.037   2.797  0.5789  0.3185 -0.0295
 8228SOL    HW125583   3.336   5.120   2.846  0.8395  0.6788 -0.4857
 8228SOL    HW225584   3.287   5.004   2.742 -0.3005 -1.0617  1.8765
 8229SOL     OW25585   2.608   6.171   4.161 -0.0374 -0.7424  0.3640
 8229SOL    HW125586   2.555   6.132   4.086 -1.4282  1.2531  0.2150
 8229SOL    HW225587   2.599   6.114   4.242 -0.9072 -1.4035 -0.1796
 8230SOL     OW25588   0.612   2.520   1.248 -0.0411  0.0752 -0.1992
 8230SOL    HW125589   0.703   2.503   1.284 -0.3106 -0.6715  0.1488
 8230SOL    HW225590   0.565   2.433   1.233 -0.4431  0.4239 -1.0432
 8231SOL     OW25591   4.243   4.108   5.357  0.1452  0.3923 -0.0568
 8231SOL    HW125592   4.199   4.120   5.446  1.7564  0.7898  0.7308
 8231SOL    HW225593   4.228   4.015   5.325 -0.5179  0.2669  0.5919
 8232SOL     OW25594   6.835   1.461   0.338  0.0112  0.7559  0.1051
 8232SOL    HW125595   6.741   1.484   0.316  0.1121  0.0634 -1.1439
 8232SOL    HW225596   6.884   1.436   0.254  0.7711 -0.8225  0.9742
 8233SOL     OW25597   2.096   0.885   6.786  0.5275 -0.4093  0.2259
 8233SOL    HW125598   2.104   0.933   6.698  2.2344  0.8412  0.9999
 8233SOL    HW225599   2.152   0.802   6.784 -0.2210 -0.9139 -0.1803
 8234SOL     OW25600   1.401   4.189   4.098  0.4065  0.2283  0.5762
 8234SOL    HW125601   1.305   4.168   4.083  0.2609  2.5170 -2.6083
 8234SOL    HW225602   1.412   4.235   4.186 -1.5805  0.8521  0.5388
 8235SOL     OW25603   5.072   4.474   6.440  0.4371 -0.1741  0.3608
 8235SOL    HW125604   5.171   4.476   6.456  0.3427  1.3345  0.8671
 8235SOL    HW225605   5.051   4.515   6.352  0.1629  0.7631  0.8570
 8236SOL     OW25606   1.940   6.869   1.933  0.4397  0.3258 -0.5164
 8236SOL    HW125607   2.006   6.825   1.994 -0.8399 -0.0582  0.6308
 8236SOL    HW225608   1.961   6.844   1.838  2.5020  1.0039 -0.2852
 8237SOL     OW25609   0.345   4.722   3.098  0.0508  0.5069 -0.2693
 8237SOL    HW125610   0.404   4.642   3.111  0.2798  0.9204  1.4306
 8237SOL    HW225611   0.266   4.715   3.159  0.0817  1.5842 -0.0940
 8238SOL     OW25612   4.898   6.392   0.244  0.2479 -0.0530 -0.1375
 8238SOL    HW125613   4.837   6.314   0.251  1.0117 -0.6844 -0.4016
 8238SOL    HW225614   4.938   6.411   0.334  0.7732 -0.5643 -0.2529
 8239SOL     OW25615   5.719   5.364   6.282  0.1864  0.4800 -0.3469
 8239SOL    HW125616   5.629   5.361   6.327  1.3881  0.5332  2.2288
 8239SOL    HW225617   5.738   5.276   6.240 -0.5535  0.0367  0.2164
 8240SOL     OW25618   3.498   4.262   1.145  0.2784 -0.0730  0.2621
 8240SOL    HW125619   3.533   4.249   1.238  0.5838 -1.6117 -0.0281
 8240SOL    HW225620   3.417   4.321   1.147  0.5796  0.3268  1.4317
 8241SOL     OW25621   1.455   6.166   3.948 -0.1887  0.4592  0.7207
 8241SOL    HW125622   1.415   6.248   3.908 -0.5354  1.3533  2.7498
 8241SOL    HW225623   1.410   6.085   3.909  0.8362  1.1088 -2.0326
 8242SOL     OW25624   2.869   3.464   4.106  0.4844 -0.1803  0.0129
 8242SOL    HW125625   2.770   3.456   4.095  0.3362 -0.6976  1.4969
 8242SOL    HW225626   2.891   3.543   4.162  0.9480  0.1118 -0.5612
 8243SOL     OW25627   1.373   2.255   2.768 -0.1523 -0.1436  0.1645
 8243SOL    HW125628   1.430   2.221   2.843  0.4716 -0.1048 -0.2892
 8243SOL    HW225629   1.380   2.354   2.763  0.4044 -0.2096 -0.4229
 8244SOL     OW25630   4.809   4.601   0.548 -0.0755 -0.4915 -0.3456
 8244SOL    HW125631   4.731   4.555   0.592  1.4118 -2.9919 -0.1546
 8244SOL    HW225632   4.816   4.571   0.453 -0.1024  0.7914 -0.7778
 8245SOL     OW25633   0.878   1.995   5.953 -0.3007 -0.4022  0.0442
 8245SOL    HW125634   0.956   1.984   5.891  0.5054  0.1309  0.9340
 8245SOL    HW225635   0.805   2.043   5.905 -0.2289 -1.1741 -0.9020
 8246SOL     OW25636   6.470   6.620   2.177  0.2525 -0.2007  0.3059
 8246SOL    HW125637   6.476   6.526   2.144  1.1046  0.4521 -1.5128
 8246SOL    HW225638   6.466   6.620   2.277 -3.0768 -2.3158  0.3157
 8247SOL     OW25639   3.714   4.255   0.955  0.0180 -0.1067 -0.4113
 8247SOL    HW125640   3.782   4.200   1.003  1.5199  1.0109 -1.1616
 8247SOL    HW225641   3.648   4.292   1.020  1.6757  0.9266  0.7441
 8248SOL     OW25642   6.554   1.685   0.466 -0.2951  0.0542  0.2942
 8248SOL    HW125643   6.618   1.762   0.464  0.5910 -0.6591 -1.8768
 8248SOL    HW225644   6.548   1.649   0.559  2.8702 -0.1371  0.5225
 8249SOL     OW25645   0.391   7.004   1.364  0.2500 -0.5093  0.3616
 8249SOL    HW125646   0.400   7.061   1.446  1.1852 -0.9119  0.5534
 8249SOL    HW225647   0.437   6.917   1.379 -0.7978 -1.1679 -0.0844
 8250SOL     OW25648   3.647   3.274   1.648 -0.3679 -0.0714  0.2398
 8250SOL    HW125649   3.661   3.175   1.644 -0.8260 -0.1639  0.7110
 8250SOL    HW225650   3.549   3.293   1.658 -0.1661  0.3599  1.6418
 8251SOL     OW25651   3.594   5.822   6.302  0.0044  0.3616  0.0072
 8251SOL    HW125652   3.546   5.888   6.360  1.4386  0.5236  1.0508
 8251SOL    HW225653   3.666   5.777   6.354 -0.0357 -1.0486 -1.0746
 8252SOL     OW25654   0.629   4.984   1.167 -0.2570  0.2315  0.0883
 8252SOL    HW125655   0.588   5.062   1.214  0.4039  0.7985 -0.2589
 8252SOL    HW225656   0.620   4.996   1.068 -0.0350 -0.0693  0.0283
 8253SOL     OW25657   1.101   6.930   2.539 -0.2910  0.4392 -0.1583
 8253SOL    HW125658   1.155   6.988   2.600  0.5340  2.1503 -2.3789
 8253SOL    HW225659   1.125   6.949   2.445 -2.5951 -1.0124 -1.1391
 8254SOL     OW25660   1.522   5.749   3.520 -0.3802 -0.1278  0.0680
 8254SOL    HW125661   1.533   5.839   3.562 -0.8177 -0.2292  0.4129
 8254SOL    HW225662   1.446   5.701   3.564 -0.1342 -0.6761 -0.0912
 8255SOL     OW25663   4.893   6.500   4.188 -0.5474  0.0368  0.4488
 8255SOL    HW125664   4.965   6.439   4.222 -1.1453 -1.3064 -0.5523
 8255SOL    HW225665   4.815   6.445   4.158 -0.2976  1.1054 -2.4869
 8256SOL     OW25666   3.080   0.112   4.922 -0.2353  0.6611  0.0794
 8256SOL    HW125667   3.048   0.191   4.870 -1.6853 -1.3544 -2.2570
 8256SOL    HW225668   3.092   0.034   4.861 -1.6954 -1.7770  2.6801
 8257SOL     OW25669   5.398   4.577   0.748  0.4620 -0.0214 -0.3555
 8257SOL    HW125670   5.373   4.504   0.685  3.4053 -1.3413 -0.1614
 8257SOL    HW225671   5.322   4.594   0.811 -0.6782 -2.2207 -1.0215
 8258SOL     OW25672   6.433   6.272   1.665 -0.4250 -0.1075  0.1646
 8258SOL    HW125673   6.420   6.185   1.713 -0.7972 -1.1893 -1.7611
 8258SOL    HW225674   6.370   6.277   1.588  0.9343  0.9912 -0.9354
 8259SOL     OW25675   3.853   0.255   1.731 -0.5461  0.0384 -0.3988
 8259SOL    HW125676   3.848   0.323   1.804 -1.2591  1.5932 -1.8374
 8259SOL    HW225677   3.943   0.210   1.735 -0.0340  1.0774  0.5737
 8260SOL     OW25678   3.565   2.836   2.460  0.1747  0.2462 -0.2038
 8260SOL    HW125679   3.571   2.819   2.558  0.4526 -1.0790 -0.4374
 8260SOL    HW225680   3.542   2.751   2.412 -2.1062  1.2904 -1.1003
 8261SOL     OW25681   5.704   6.876   2.863  0.1010  0.5396  0.2291
 8261SOL    HW125682   5.800   6.904   2.853 -0.3437  2.1020  0.1557
 8261SOL    HW225683   5.689   6.839   2.954  0.7297  0.4625  0.3030
 8262SOL     OW25684   6.767   0.081   4.752  0.4592  0.5024  0.2407
 8262SOL    HW125685   6.838   0.097   4.821  3.4023 -2.3844 -1.8533
 8262SOL    HW225686   6.784   0.138   4.672  0.3890 -0.2212 -0.2911
 8263SOL     OW25687   2.574   2.519   3.986  0.4107  0.5072  0.2788
 8263SOL    HW125688   2.515   2.597   3.965  0.5512  0.1953 -1.3783
 8263SOL    HW225689   2.637   2.503   3.911  0.2589 -1.3343  0.4955
 8264SOL     OW25690   0.388   5.043   3.952  0.4246  0.6943 -0.1020
 8264SOL    HW125691   0.414   5.117   4.014  0.5703  0.7746 -0.2603
 8264SOL    HW225692   0.462   4.975   3.949  0.0798  0.2827  0.4452
 8265SOL     OW25693   5.311   4.522   5.577  0.2643  0.6058  0.7033
 8265SOL    HW125694   5.223   4.536   5.533 -0.4231  1.7710  2.3349
 8265SOL    HW225695   5.384   4.524   5.509 -1.0061 -1.2171 -0.7867
 8266SOL     OW25696   3.654   6.823   2.914 -0.0052  0.1971  0.4084
 8266SOL    HW125697   3.722   6.879   2.962  0.3409 -0.2586  0.4561
 8266SOL    HW225698   3.691   6.732   2.898  0.0182  0.4320 -1.0203
 8267SOL     OW25699   6.829   3.561   1.892 -0.0415 -0.4612  0.6638
 8267SOL    HW125700   6.733   3.571   1.918 -0.1783  1.9403 -0.5367
 8267SOL    HW225701   6.847   3.616   1.810  2.4977 -0.4261  1.1836
 8268SOL     OW25702   4.697   0.657   0.871 -0.3576 -0.6818 -0.4986
 8268SOL    HW125703   4.602   0.675   0.897 -0.8118 -0.2814 -2.3520
 8268SOL    HW225704   4.726   0.722   0.800  1.0233 -1.3690 -0.6063
 8269SOL     OW25705   4.939   1.209   6.722 -0.2866 -0.4984 -0.1332
 8269SOL    HW125706   4.914   1.113   6.710  0.3438 -0.4759 -2.0450
 8269SOL    HW225707   5.033   1.216   6.755 -0.3064 -0.5481 -0.0674
 8270SOL     OW25708   2.198   1.189   2.603  0.2891 -0.0833 -0.2809
 8270SOL    HW125709   2.241   1.228   2.522  0.9502  3.1812  1.4485
 8270SOL    HW225710   2.268   1.163   2.669 -0.2753 -1.5353 -0.2214
 8271SOL     OW25711   1.787   0.510   3.443  0.1878  0.2576 -0.2868
 8271SOL    HW125712   1.864   0.573   3.449 -0.3089  0.9834 -1.2372
 8271SOL    HW225713   1.737   0.509   3.529  0.7897  0.3913  0.0683
 8272SOL     OW25714   2.437   0.726   4.897 -0.1101 -0.3227  0.2848
 8272SOL    HW125715   2.527   0.705   4.935 -0.2245  1.4753  1.6981
 8272SOL    HW225716   2.439   0.715   4.798  1.4458 -1.0185  0.3659
 8273SOL     OW25717   3.303   3.734   2.901 -0.0470 -0.2105  0.4799
 8273SOL    HW125718   3.273   3.829   2.914  0.0649 -0.0918 -0.0871
 8273SOL    HW225719   3.399   3.733   2.876 -0.7700 -0.2020 -2.7388
 8274SOL     OW25720   6.716   0.829   5.663 -0.3291 -0.0259 -0.2875
 8274SOL    HW125721   6.814   0.825   5.684 -0.5519  1.1989  1.2400
 8274SOL    HW225722   6.678   0.737   5.662  0.6989 -0.4661 -0.1472
 8275SOL     OW25723   2.065   6.121   4.637 -0.3522 -0.3186  0.0682
 8275SOL    HW125724   1.985   6.118   4.577 -0.3109  2.4529 -0.2298
 8275SOL    HW225725   2.132   6.054   4.606 -0.8553  0.1710 -2.2523
 8276SOL     OW25726   2.136   6.661   6.564 -0.0908  0.1973 -0.0948
 8276SOL    HW125727   2.130   6.648   6.465 -1.4207  1.6061 -0.2374
 8276SOL    HW225728   2.152   6.572   6.608  0.1954 -0.5000 -1.5364
 8277SOL     OW25729   0.355   3.085   0.260 -0.1833  0.2839 -0.3985
 8277SOL    HW125730   0.286   3.136   0.311  1.1282  0.3875  1.3909
 8277SOL    HW225731   0.344   2.987   0.276 -0.2765  0.2636 -0.5881
 8278SOL     OW25732   4.905   2.954   1.792  0.0227 -0.3310  0.5190
 8278SOL    HW125733   4.889   2.858   1.770  1.4511 -1.0088  2.2058
 8278SOL    HW225734   4.830   2.988   1.848 -0.7598 -0.2703 -0.5318
 8279SOL     OW25735   0.151   3.776   3.828  0.3131  0.4703 -1.1037
 8279SOL    HW125736   0.133   3.852   3.891 -0.2514 -1.8349  1.7064
 8279SOL    HW225737   0.074   3.767   3.764 -2.5783 -1.0936  2.2465
 8280SOL     OW25738   5.000   1.988   6.034  0.8246 -0.2157 -0.5065
 8280SOL    HW125739   4.964   1.988   5.940 -0.6425 -0.7697  0.0204
 8280SOL    HW225740   4.961   2.066   6.083  0.1507 -0.9502  0.1427
 8281SOL     OW25741   5.513   5.983   2.938  0.3676 -0.1514 -0.0169
 8281SOL    HW125742   5.436   5.926   2.910  0.4800  0.4705 -1.7276
 8281SOL    HW225743   5.484   6.045   3.011 -0.8055  0.1729 -0.7348
 8282SOL     OW25744   6.615   1.189   4.860 -0.4111 -0.0140  0.5609
 8282SOL    HW125745   6.707   1.168   4.891 -0.7872 -1.4825  0.7433
 8282SOL    HW225746   6.617   1.218   4.764  0.3427  1.0420  0.8793
 8283SOL     OW25747   4.643   1.717   0.589 -0.1143 -0.4305  0.3773
 8283SOL    HW125748   4.679   1.748   0.501  1.0930 -1.4865  0.4587
 8283SOL    HW225749   4.661   1.619   0.599 -1.6741 -0.6730  1.1229
 8284SOL     OW25750   0.720   6.448   5.392 -0.7831 -0.1851  0.4643
 8284SOL    HW125751   0.748   6.517   5.325 -2.0651 -1.1667 -1.1647
 8284SOL    HW225752   0.753   6.358   5.363 -1.1528 -0.5920  1.2811
 8285SOL     OW25753   3.405   3.374   2.151 -0.0930 -0.2368  0.1818
 8285SOL    HW125754   3.353   3.413   2.227 -0.3808  0.5005 -0.3837
 8285SOL    HW225755   3.499   3.408   2.155  0.4875 -1.8892  1.4411
 8286SOL     OW25756   0.974   6.756   5.991  0.4066 -0.1032 -0.5897
 8286SOL    HW125757   1.046   6.733   6.056 -0.9126  1.2176  1.4596
 8286SOL    HW225758   0.968   6.855   5.981 -0.6663 -0.2129 -1.2374
 8287SOL     OW25759   5.971   6.803   2.756 -0.0748 -0.0830  0.0168
 8287SOL    HW125760   6.028   6.853   2.691 -1.0724  2.1610  0.7741
 8287SOL    HW225761   6.017   6.801   2.845  0.0984 -0.8346 -0.0818
 8288SOL     OW25762   4.103   1.196   3.540 -0.1111 -0.2740 -0.8473
 8288SOL    HW125763   4.059   1.132   3.603 -0.6256  1.3127  0.5032
 8288SOL    HW225764   4.146   1.270   3.593 -1.2747  1.5875 -2.3740
 8289SOL     OW25765   4.854   1.586   1.599 -0.3836  0.7145  0.0946
 8289SOL    HW125766   4.917   1.551   1.669 -0.5055  1.5195  0.6298
 8289SOL    HW225767   4.864   1.533   1.515  1.2515  1.0086  0.0614
 8290SOL     OW25768   2.225   6.494   4.576 -0.2841  0.0110  0.0324
 8290SOL    HW125769   2.294   6.550   4.531 -1.2707  1.0301 -0.2623
 8290SOL    HW225770   2.269   6.420   4.627  1.0103  0.6603 -0.1229
 8291SOL     OW25771   1.786   1.285   5.759  0.1432  0.4540  0.4459
 8291SOL    HW125772   1.724   1.299   5.682 -1.2534 -0.4925  1.3653
 8291SOL    HW225773   1.792   1.369   5.813 -1.9679  0.0121  1.4739
 8292SOL     OW25774   0.087   3.947   6.595 -0.0690 -0.6493 -0.2677
 8292SOL    HW125775   0.163   4.011   6.585 -1.6271  1.5042  0.8073
 8292SOL    HW225776   0.010   3.978   6.539 -1.3194 -0.8171  1.2968
 8293SOL     OW25777   5.884   5.815   5.756 -0.2420 -0.3756 -0.1690
 8293SOL    HW125778   5.895   5.808   5.657 -1.4821 -0.8263 -0.2897
 8293SOL    HW225779   5.791   5.845   5.777 -0.0030 -0.3307  0.8579
 8294SOL     OW25780   0.055   6.594   5.252  0.2133 -0.2342  0.1824
 8294SOL    HW125781   0.074   6.608   5.349 -0.4992 -0.1458  0.3194
 8294SOL    HW225782   0.044   6.497   5.233  1.7978 -0.3877 -0.1076
 8295SOL     OW25783   3.768   2.975   0.026 -0.6019  0.3759  0.4363
 8295SOL    HW125784   3.777   2.940  -0.067 -0.6016 -0.4608  0.7421
 8295SOL    HW225785   3.796   3.071   0.029  0.8795 -0.0203 -0.1221
 8296SOL     OW25786   0.760   2.386   1.513  0.1697 -0.3966 -0.5362
 8296SOL    HW125787   0.708   2.310   1.551  0.3552 -1.0597 -1.5538
 8296SOL    HW225788   0.712   2.472   1.531 -0.0762 -0.7553  0.5715
 8297SOL     OW25789   5.638   4.256   2.884 -0.2071  0.2131  0.5340
 8297SOL    HW125790   5.649   4.329   2.816  1.1059 -0.3491  0.1115
 8297SOL    HW225791   5.708   4.265   2.954  0.1637 -0.8054  0.3140
 8298SOL     OW25792   1.135   5.058   5.696 -0.1225 -0.0422 -0.1771
 8298SOL    HW125793   1.048   5.048   5.745 -1.8580 -0.3687 -3.0972
 8298SOL    HW225794   1.141   5.150   5.656  2.1703  0.9217  2.1039
 8299SOL     OW25795   1.370   6.370   5.629 -0.0802  0.1770  0.0733
 8299SOL    HW125796   1.291   6.376   5.567  0.9931 -1.3081 -1.5180
 8299SOL    HW225797   1.355   6.297   5.695 -0.3621  0.4298  0.2951
 8300SOL     OW25798   6.622   4.764   3.609  0.2188 -0.2447 -0.0456
 8300SOL    HW125799   6.579   4.833   3.668 -0.1370 -0.5848  0.0922
 8300SOL    HW225800   6.613   4.792   3.513 -0.8988 -0.6333 -0.0654
 8301SOL     OW25801   5.647   3.191   3.764  0.4174  0.6526  0.2161
 8301SOL    HW125802   5.617   3.100   3.735  0.5575  0.1511  1.6019
 8301SOL    HW225803   5.727   3.183   3.822  0.7609  1.7132 -0.0951
 8302SOL     OW25804   0.592   5.360   1.524  0.5680 -0.6207  0.3627
 8302SOL    HW125805   0.583   5.346   1.623  0.5525  0.0821  0.4654
 8302SOL    HW225806   0.670   5.419   1.506 -0.4762  0.7069  0.0790
 8303SOL     OW25807   5.841   6.245   5.092  0.0075  0.3339 -0.1643
 8303SOL    HW125808   5.874   6.169   5.148 -0.5375  0.3708  0.2180
 8303SOL    HW225809   5.857   6.225   4.996  1.6334  0.5840  0.0159
 8304SOL     OW25810   2.566   6.772   0.146  0.1726 -0.5135 -0.2708
 8304SOL    HW125811   2.533   6.692   0.096  0.7511 -2.2301  1.9288
 8304SOL    HW225812   2.576   6.849   0.083 -2.8500 -1.3867 -2.0220
 8305SOL     OW25813   3.551   0.582   6.248  0.1534 -0.5335  0.0036
 8305SOL    HW125814   3.590   0.673   6.257 -0.7301 -0.1705  0.2985
 8305SOL    HW225815   3.521   0.568   6.154  1.4873 -1.0339 -0.3688
 8306SOL     OW25816   4.224   5.167   5.043 -0.3123 -0.6977 -0.2682
 8306SOL    HW125817   4.243   5.208   5.132 -1.0960  0.8140 -0.7572
 8306SOL    HW225818   4.127   5.175   5.022 -0.2145 -1.4391 -1.0658
 8307SOL     OW25819   1.972   2.178   0.776 -0.3143 -0.2387  0.5503
 8307SOL    HW125820   2.035   2.166   0.699 -0.4697  1.1949  0.1679
 8307SOL    HW225821   1.960   2.091   0.823 -1.2629 -1.4853 -1.8442
 8308SOL     OW25822   3.398   6.856   3.373  0.2350 -0.4628 -0.2144
 8308SOL    HW125823   3.477   6.822   3.322 -0.2104  0.7153 -1.7588
 8308SOL    HW225824   3.418   6.949   3.405 -0.8880  0.2853 -1.5727
 8309SOL     OW25825   3.118   0.631   1.856 -0.3095 -0.3352  0.0003
 8309SOL    HW125826   3.178   0.659   1.782 -0.2266  1.1530  0.5911
 8309SOL    HW225827   3.060   0.708   1.883 -1.4366 -1.3028  0.4423
 8310SOL     OW25828   5.186   1.449   0.852  0.0596 -0.0963  0.2301
 8310SOL    HW125829   5.149   1.469   0.761  0.7550  2.6422  0.4583
 8310SOL    HW225830   5.269   1.395   0.843  2.4166  3.3890 -1.2190
 8311SOL     OW25831   2.169   1.962   5.784 -0.0981 -0.2898  0.4169
 8311SOL    HW125832   2.147   1.871   5.820 -0.4098  0.3543  1.9507
 8311SOL    HW225833   2.167   1.960   5.684  1.9439 -2.4552  0.3450
 8312SOL     OW25834   1.242   6.182   6.536 -0.0443  0.2512 -0.6123
 8312SOL    HW125835   1.191   6.161   6.453  1.8564 -0.8851 -1.5561
 8312SOL    HW225836   1.298   6.263   6.521  2.8072 -1.7811 -1.6867
 8313SOL     OW25837   2.658   6.858   2.743 -0.0700  0.2434 -0.7186
 8313SOL    HW125838   2.623   6.767   2.768  0.9016 -0.0309 -0.3175
 8313SOL    HW225839   2.618   6.886   2.656 -2.0375  0.3707  0.1658
 8314SOL     OW25840   2.145   3.892   5.202  0.0634 -0.4593  0.6646
 8314SOL    HW125841   2.231   3.926   5.162 -0.2762 -2.3473 -1.9807
 8314SOL    HW225842   2.134   3.929   5.294  3.5757  0.0806  1.0205
 8315SOL     OW25843   6.801   1.994   5.166 -0.3502 -0.0009  0.5787
 8315SOL    HW125844   6.892   1.955   5.163 -0.4656 -0.2751  0.6682
 8315SOL    HW225845   6.803   2.080   5.219 -0.2818 -0.3714  1.1875
 8316SOL     OW25846   3.558   0.343   2.500  0.2013  0.2705 -0.3409
 8316SOL    HW125847   3.524   0.425   2.454 -0.3350 -0.0024 -0.4300
 8316SOL    HW225848   3.500   0.265   2.478 -0.8341  0.3748  1.7929
 8317SOL     OW25849   3.964   5.910   4.341  0.4127  0.3997  0.2051
 8317SOL    HW125850   3.901   5.835   4.322  3.5485 -2.7848  1.2638
 8317SOL    HW225851   3.973   5.923   4.440 -0.6964  2.8671  0.0451
 8318SOL     OW25852   3.673   6.523   6.608  0.0756 -0.2301 -0.2459
 8318SOL    HW125853   3.597   6.575   6.569 -0.6037 -2.5933 -2.3991
 8318SOL    HW225854   3.723   6.478   6.534  2.6716  0.0123  1.2527
 8319SOL     OW25855   4.092   3.622   5.805  0.7199  0.1045 -0.7009
 8319SOL    HW125856   4.166   3.660   5.860  0.7608  0.3857 -0.9484
 8319SOL    HW225857   4.019   3.588   5.865  0.6124  0.7135 -0.4840
 8320SOL     OW25858   4.950   1.286   4.084 -0.3548 -0.2873  0.4306
 8320SOL    HW125859   4.996   1.239   4.160  0.5370 -0.3802 -0.1538
 8320SOL    HW225860   4.853   1.297   4.106 -0.8676 -3.4288  0.0846
 8321SOL     OW25861   2.578   3.643   6.507 -0.8084 -0.1747  0.1195
 8321SOL    HW125862   2.555   3.690   6.592 -0.7033 -0.6128  0.3926
 8321SOL    HW225863   2.512   3.668   6.436 -0.6259  0.5435  0.2034
 8322SOL     OW25864   0.431   4.121   3.393 -0.2501  0.3607  0.3374
 8322SOL    HW125865   0.416   4.036   3.444 -1.3621  0.4388  0.1712
 8322SOL    HW225866   0.353   4.182   3.407 -0.3461  0.5854 -1.0618
 8323SOL     OW25867   3.974   2.512   6.088 -0.7547 -0.2424 -0.3788
 8323SOL    HW125868   3.893   2.472   6.132 -0.4915 -2.0637 -1.4330
 8323SOL    HW225869   4.001   2.456   6.010  0.9515  0.8701 -0.6538
 8324SOL     OW25870   2.524   2.112   4.117  0.3328 -0.1091 -0.6126
 8324SOL    HW125871   2.542   2.044   4.046 -1.8323 -1.0221 -0.3560
 8324SOL    HW225872   2.577   2.089   4.199 -2.0492 -2.9734  0.2973
 8325SOL     OW25873   2.936   6.885   3.394  0.1803  0.0200 -0.1291
 8325SOL    HW125874   2.873   6.934   3.454  1.9369  1.2061  0.8444
 8325SOL    HW225875   2.946   6.935   3.308  0.2066  0.1324 -0.0612
 8326SOL     OW25876   5.104   2.964   0.273 -0.2657  1.0109  0.5409
 8326SOL    HW125877   5.201   2.952   0.251 -0.5854 -0.2740 -0.2814
 8326SOL    HW225878   5.050   2.959   0.189 -1.1620  0.2918  1.1433
 8327SOL     OW25879   5.032   2.250   2.387  0.4264  0.1770 -0.1616
 8327SOL    HW125880   4.951   2.298   2.353  1.1458  0.7673 -1.0894
 8327SOL    HW225881   5.071   2.299   2.464  0.1685  0.1401 -0.0075
 8328SOL     OW25882   5.644   0.871   6.286  0.0142  0.2731 -0.2705
 8328SOL    HW125883   5.589   0.923   6.351  1.1430  0.1287  0.8587
 8328SOL    HW225884   5.584   0.819   6.225 -1.0834  0.3340  0.7217
 8329SOL     OW25885   2.817   2.523   0.495  0.2558 -0.6097 -0.5215
 8329SOL    HW125886   2.826   2.424   0.512 -0.0847 -0.3750  1.2313
 8329SOL    HW225887   2.836   2.542   0.399 -1.3314 -2.6017 -1.3187
 8330SOL     OW25888   3.241   3.723   2.534  0.5529  0.2522 -0.1021
 8330SOL    HW125889   3.262   3.771   2.619  1.1200  0.4670 -0.3530
 8330SOL    HW225890   3.148   3.744   2.505  0.4627  0.4163  0.3061
 8331SOL     OW25891   6.605   5.792   6.039 -0.1038  0.6198  0.5986
 8331SOL    HW125892   6.612   5.890   6.056  0.7734  0.5500  0.6905
 8331SOL    HW225893   6.563   5.777   5.949  0.1016  1.0805  0.4223
 8332SOL     OW25894   1.603   5.815   6.865 -0.5332  0.1423  0.4778
 8332SOL    HW125895   1.621   5.901   6.912  0.8746 -0.4294  1.0335
 8332SOL    HW225896   1.504   5.796   6.867 -0.5778  0.2888  2.9994
 8333SOL     OW25897   1.068   2.992   5.484  0.3502 -0.0489 -0.3852
 8333SOL    HW125898   1.027   2.930   5.551 -1.4085  2.3082  0.8201
 8333SOL    HW225899   1.083   3.081   5.525  2.9807  0.3782 -2.0264
 8334SOL     OW25900   0.205   0.056   2.339 -0.1665 -0.5198  0.0239
 8334SOL    HW125901   0.236   0.138   2.290 -0.0358 -0.7574 -0.2938
 8334SOL    HW225902   0.201   0.075   2.437 -0.5650  0.0061 -0.0926
 8335SOL     OW25903   2.513   5.779   1.823 -0.0296  0.6657  0.8504
 8335SOL    HW125904   2.599   5.789   1.771 -0.7148  1.3982 -0.2021
 8335SOL    HW225905   2.475   5.688   1.807  0.4388  0.4123  1.1516
 8336SOL     OW25906   4.825   0.790   2.589  0.1879 -0.0432 -0.1369
 8336SOL    HW125907   4.876   0.724   2.644 -0.9531 -0.4271  0.4853
 8336SOL    HW225908   4.887   0.833   2.523  1.0185 -1.4987 -0.3487
 8337SOL     OW25909   0.457   3.016   2.813 -0.2414 -0.0608 -0.1367
 8337SOL    HW125910   0.494   3.011   2.721 -1.5276 -1.4662 -0.6241
 8337SOL    HW225911   0.500   2.946   2.870 -0.7907 -0.4556 -0.1984
 8338SOL     OW25912   1.840   6.151   4.479  0.1838 -0.6007 -0.1917
 8338SOL    HW125913   1.820   6.191   4.389  0.4262 -1.5425 -0.6847
 8338SOL    HW225914   1.849   6.052   4.469  0.1392 -0.7221  0.8959
 8339SOL     OW25915   6.660   4.482   6.754  0.1695 -0.0185  0.8944
 8339SOL    HW125916   6.565   4.487   6.786 -0.5207  2.8275 -1.1992
 8339SOL    HW225917   6.697   4.392   6.774 -4.3541 -2.8846 -1.8528
 8340SOL     OW25918   0.294   3.883   2.063 -0.3818 -0.3642 -0.2597
 8340SOL    HW125919   0.206   3.835   2.063 -1.1901  1.0552  0.3008
 8340SOL    HW225920   0.368   3.816   2.061 -1.4454 -1.6255  0.6850
 8341SOL     OW25921   6.396   1.680   3.527 -0.5485 -0.4767  0.0026
 8341SOL    HW125922   6.472   1.621   3.499 -1.1039 -1.3359  0.2378
 8341SOL    HW225923   6.389   1.758   3.465 -0.3299 -1.1188 -0.8521
 8342SOL     OW25924   0.305   3.527   3.451  0.7225  0.0972 -0.5224
 8342SOL    HW125925   0.366   3.484   3.384  2.6027  3.2442 -1.0323
 8342SOL    HW225926   0.341   3.511   3.543 -0.0039 -1.4352 -0.4804
 8343SOL     OW25927   4.528   4.819   3.804  0.0858 -0.2983  0.3702
 8343SOL    HW125928   4.485   4.746   3.750  0.3939 -0.6929  0.6492
 8343SOL    HW225929   4.627   4.818   3.788  0.0403  0.3379  0.0443
 8344SOL     OW25930   5.525   5.077   1.947 -0.4221  0.0511  0.1420
 8344SOL    HW125931   5.538   4.979   1.958  0.4417  0.2283  0.7758
 8344SOL    HW225932   5.440   5.105   1.992 -1.8847 -0.7469 -2.0000
 8345SOL     OW25933   0.626   6.838   3.191 -0.0893  0.1087  0.3714
 8345SOL    HW125934   0.611   6.930   3.155  1.8117 -0.4731 -2.1773
 8345SOL    HW225935   0.539   6.801   3.226 -1.4784  1.8210 -1.0826
 8346SOL     OW25936   2.255   0.708   4.333  0.5134  0.0894  0.2294
 8346SOL    HW125937   2.288   0.631   4.388 -0.5213 -0.4739  0.0788
 8346SOL    HW225938   2.268   0.793   4.384 -2.1353 -0.5791  2.2360
 8347SOL     OW25939   0.471   6.742   3.688  0.4338 -0.3558 -0.0651
 8347SOL    HW125940   0.395   6.698   3.736  1.0024 -1.0132  0.2400
 8347SOL    HW225941   0.479   6.703   3.596  0.5036 -0.3965 -0.0415
 8348SOL     OW25942   2.645   5.594   0.781 -0.0770 -0.5391  0.3313
 8348SOL    HW125943   2.610   5.502   0.765  2.3632 -1.3465 -0.7383
 8348SOL    HW225944   2.745   5.593   0.779  0.0192  2.2152 -0.2576
 8349SOL     OW25945   1.611   5.923   2.634 -0.0387 -0.3532 -0.2795
 8349SOL    HW125946   1.630   5.955   2.541  0.9899 -1.5741 -0.5141
 8349SOL    HW225947   1.616   5.823   2.636  1.9074 -0.2740  1.4916
 8350SOL     OW25948   6.904   4.546   3.214  0.0232  0.3058  0.3352
 8350SOL    HW125949   6.887   4.583   3.305  2.4320  1.2242  0.4969
 8350SOL    HW225950   6.969   4.470   3.220 -0.6475 -0.3491 -0.5183
 8351SOL     OW25951   5.413   2.721   5.854 -0.2044  0.1878 -0.3016
 8351SOL    HW125952   5.348   2.650   5.878  0.4421 -0.7900 -1.3421
 8351SOL    HW225953   5.401   2.747   5.758  2.0191 -1.2670 -1.0442
 8352SOL     OW25954   4.344   4.593   3.390  0.3472  0.4009 -0.6108
 8352SOL    HW125955   4.291   4.559   3.312  0.0900  1.4672 -0.9230
 8352SOL    HW225956   4.429   4.635   3.357  0.2060  0.9137 -0.3395
 8353SOL     OW25957   6.494   2.702   6.275  0.2860  0.2136  0.3707
 8353SOL    HW125958   6.556   2.624   6.287  0.5420  0.0591 -1.5950
 8353SOL    HW225959   6.531   2.762   6.204 -1.6192  0.3325 -0.5733
 8354SOL     OW25960   3.815   1.743   5.341 -0.1161 -0.6651 -0.1162
 8354SOL    HW125961   3.773   1.690   5.414  0.5742  0.7250  1.3593
 8354SOL    HW225962   3.769   1.831   5.332 -1.0775 -1.3310 -2.3441
 8355SOL     OW25963   4.869   5.055   0.345 -0.0771 -0.6724  0.1322
 8355SOL    HW125964   4.904   5.029   0.435  0.1523 -1.3600 -0.1430
 8355SOL    HW225965   4.830   4.974   0.301 -2.2633  0.1062  0.5305
 8356SOL     OW25966   0.311   0.720   2.934  0.0477 -0.1440 -0.4753
 8356SOL    HW125967   0.327   0.673   2.847  0.8443  0.7464 -0.8229
 8356SOL    HW225968   0.218   0.756   2.935 -0.3360 -1.1128 -0.4927
 8357SOL     OW25969   3.845   1.810   2.930 -0.2484 -0.0744 -0.5118
 8357SOL    HW125970   3.811   1.744   2.997 -1.5291  1.3715  0.3431
 8357SOL    HW225971   3.944   1.822   2.942 -0.4332  0.0914  1.1002
 8358SOL     OW25972   3.950   3.481   6.670 -0.2580  0.3573 -0.1592
 8358SOL    HW125973   3.950   3.506   6.766 -0.3838 -0.8229  0.1544
 8358SOL    HW225974   4.029   3.422   6.650 -0.1465  0.7088 -0.8176
 8359SOL     OW25975   5.061   0.665   1.919  0.1871 -0.1048  0.1895
 8359SOL    HW125976   4.991   0.653   1.848  0.4219  1.7230 -0.4078
 8359SOL    HW225977   5.016   0.690   2.006 -0.0180 -1.0836  0.3761
 8360SOL     OW25978   3.514   0.337   0.975  0.0721 -0.0728 -0.4190
 8360SOL    HW125979   3.448   0.328   0.900  0.7249 -0.9893 -0.9201
 8360SOL    HW225980   3.493   0.271   1.046  1.2087 -1.3667 -1.2140
 8361SOL     OW25981   6.028   3.405   5.050 -0.2920 -0.1602 -0.0132
 8361SOL    HW125982   6.081   3.491   5.054 -0.0238 -0.3445  2.9042
 8361SOL    HW225983   6.053   3.355   4.967  2.2047  0.9729 -0.0626
 8362SOL     OW25984   6.033   5.469   1.836  0.0518  0.2905 -0.1851
 8362SOL    HW125985   6.078   5.534   1.897 -2.9510  0.1624  2.3964
 8362SOL    HW225986   6.034   5.378   1.877 -0.7856 -0.1318 -1.0537
 8363SOL     OW25987   6.768   6.547   6.690 -0.0958 -0.2233 -0.5653
 8363SOL    HW125988   6.733   6.516   6.602 -0.2660  0.3995 -0.7179
 8363SOL    HW225989   6.749   6.477   6.759  0.9264 -1.1610 -1.2049
 8364SOL     OW25990   2.284   5.735   0.195  0.1632  0.2586  0.2233
 8364SOL    HW125991   2.257   5.807   0.131  0.4575  1.0327  0.9470
 8364SOL    HW225992   2.236   5.650   0.172  1.4531  0.0484 -2.0206
 8365SOL     OW25993   0.170   1.545   3.020  0.5855 -0.1224  0.6368
 8365SOL    HW125994   0.263   1.509   3.020  1.4455  1.9330  1.8220
 8365SOL    HW225995   0.168   1.634   2.973 -0.7093  0.0169  0.9100
 8366SOL     OW25996   6.874   0.212   4.549  0.1685 -0.1191  0.4425
 8366SOL    HW125997   6.815   0.293   4.558  1.0494  0.6659 -0.5276
 8366SOL    HW225998   6.917   0.212   4.458 -0.5676 -2.2259  0.0384
 8367SOL     OW25999   5.303   4.580   3.777 -0.5534  0.3279 -0.1699
 8367SOL    HW126000   5.292   4.638   3.858  1.0872  0.2458  0.1437
 8367SOL    HW226001   5.255   4.494   3.791 -0.8661  0.5902  0.4231
 8368SOL     OW26002   4.242   6.301   0.929 -0.4474  0.5194  0.3024
 8368SOL    HW126003   4.143   6.307   0.912 -0.4581 -0.1163  0.1134
 8368SOL    HW226004   4.271   6.381   0.981 -0.7453  1.6077 -1.1149
 8369SOL     OW26005   2.933   1.608   3.411 -0.0921  0.3097  0.4253
 8369SOL    HW126006   2.935   1.699   3.369  0.7064 -0.6812 -1.8792
 8369SOL    HW226007   3.026   1.581   3.437  0.0402 -0.6853 -0.9639
 8370SOL     OW26008   3.022   6.848   5.225 -0.6756  0.3570  0.4918
 8370SOL    HW126009   3.077   6.831   5.143  0.2219 -1.0851  1.3473
 8370SOL    HW226010   3.010   6.762   5.275 -0.1754  1.3915  2.4875
 8371SOL     OW26011   2.452   0.137   5.210 -0.1382  0.3242  0.7100
 8371SOL    HW126012   2.530   0.186   5.172 -0.9757  1.4502  0.3892
 8371SOL    HW226013   2.441   0.162   5.306  1.0110 -1.2950  1.3087
 8372SOL     OW26014   6.276   6.475   1.874  0.2593  0.5770 -0.2312
 8372SOL    HW126015   6.295   6.399   1.812 -2.8212 -2.1232  1.7864
 8372SOL    HW226016   6.178   6.485   1.886  0.6404  3.3566  1.4726
 8373SOL     OW26017   6.859   1.313   5.463 -0.4519 -0.0662  0.0917
 8373SOL    HW126018   6.761   1.298   5.445 -0.5627  1.5240 -0.7681
 8373SOL    HW226019   6.870   1.399   5.514  0.5863  0.4646 -1.0042
 8374SOL     OW26020   1.331   6.146   3.118 -0.2225  0.4389  0.3590
 8374SOL    HW126021   1.424   6.119   3.140  0.3518  0.4394 -1.7823
 8374SOL    HW226022   1.267   6.080   3.156  0.7829 -0.6104  0.2947
 8375SOL     OW26023   0.970   4.679   2.726  0.3597  0.1699  0.2119
 8375SOL    HW126024   0.880   4.697   2.766  0.6345  0.1550  0.8527
 8375SOL    HW226025   1.040   4.726   2.780  0.9139 -1.2827  0.8172
 8376SOL     OW26026   6.014   2.528   0.294  0.1324 -0.2676  0.4838
 8376SOL    HW126027   5.924   2.562   0.266  0.6828  0.8167 -0.0187
 8376SOL    HW226028   6.083   2.598   0.277  1.3418 -1.6849 -0.6741
 8377SOL     OW26029   3.289   3.940   6.726 -0.1325  0.8505 -0.3174
 8377SOL    HW126030   3.295   3.998   6.644  0.2991  0.2544 -0.7132
 8377SOL    HW226031   3.247   3.853   6.702 -1.1217  1.1323  0.3547
 8378SOL     OW26032   1.412   0.023   0.899  0.2321  0.0633 -0.1145
 8378SOL    HW126033   1.488   0.036   0.963 -1.0226 -0.2439  1.5174
 8378SOL    HW226034   1.373  -0.068   0.913 -1.5780  0.8748  0.3861
 8379SOL     OW26035   6.763   1.161   5.901 -0.2555 -0.3808 -0.5747
 8379SOL    HW126036   6.762   1.251   5.946  0.9606 -1.5629  1.9647
 8379SOL    HW226037   6.848   1.150   5.849  1.3771 -1.3570  2.1156
 8380SOL     OW26038   1.140   0.586   6.650  0.7665  0.2445 -0.3358
 8380SOL    HW126039   1.113   0.489   6.648 -0.9357  0.5720  2.3143
 8380SOL    HW226040   1.107   0.631   6.567  0.5749 -1.1730 -1.0785
 8381SOL     OW26041   3.453   6.771   2.153  0.3558 -0.1204 -0.0505
 8381SOL    HW126042   3.421   6.746   2.061 -0.1195 -0.3630  0.1789
 8381SOL    HW226043   3.539   6.821   2.145 -0.1018  0.5918 -0.6793
 8382SOL     OW26044   0.339   6.518   5.860  0.1891 -0.7062  0.0123
 8382SOL    HW126045   0.265   6.512   5.927 -0.0329 -1.5675 -0.3084
 8382SOL    HW226046   0.302   6.547   5.772  0.1508 -1.6129 -0.2750
 8383SOL     OW26047   0.498   4.033   4.658 -1.1588 -0.3435 -0.2741
 8383SOL    HW126048   0.468   4.024   4.753 -3.1458  1.0701 -0.7029
 8383SOL    HW226049   0.586   4.081   4.656  0.2267 -2.6196  0.9126
 8384SOL     OW26050   1.852   2.374   2.149 -0.6197 -0.0736 -0.0360
 8384SOL    HW126051   1.889   2.412   2.234 -1.8057  4.2353 -1.2253
 8384SOL    HW226052   1.925   2.371   2.080 -0.5332  0.1923  0.0411
 8385SOL     OW26053   0.240   0.660   5.105 -0.1147  0.1301 -0.2187
 8385SOL    HW126054   0.252   0.624   5.013  0.4270 -0.3445  0.0265
 8385SOL    HW226055   0.317   0.721   5.127  0.4990 -0.8278  0.3977
 8386SOL     OW26056   3.395   0.935   0.830  0.5116  0.4364 -0.1051
 8386SOL    HW126057   3.435   0.847   0.805 -0.5218 -0.0651 -0.0337
 8386SOL    HW226058   3.381   0.991   0.748 -0.2664 -0.0924 -0.3446
 8387SOL     OW26059   3.987   5.357   3.955 -0.4091  0.2061 -0.2287
 8387SOL    HW126060   3.952   5.302   4.031  0.0527  1.3226  0.8330
 8387SOL    HW226061   3.961   5.315   3.868 -2.6462 -0.0989  0.5124
 8388SOL     OW26062   5.616   4.504   0.012  0.2351 -0.3139  0.1063
 8388SOL    HW126063   5.589   4.511   0.108 -0.1764  1.4298 -0.1022
 8388SOL    HW226064   5.661   4.416  -0.004 -2.8543 -2.1988  1.0793
 8389SOL     OW26065   2.472   2.321   5.213 -0.2562  0.8354 -0.2357
 8389SOL    HW126066   2.433   2.389   5.152 -1.6788  0.6202  0.3911
 8389SOL    HW226067   2.457   2.230   5.176 -0.8492  0.7205  0.2744
 8390SOL     OW26068   6.767   3.073   5.825  0.0836  0.4139 -0.4902
 8390SOL    HW126069   6.683   3.094   5.873 -0.3614  0.0086 -1.0761
 8390SOL    HW226070   6.766   3.115   5.734  1.8139  2.9798  0.5477
 8391SOL     OW26071   3.233   4.360   6.914 -0.1242  0.0485 -0.0631
 8391SOL    HW126072   3.200   4.355   6.820 -0.1307  3.7788 -0.3953
 8391SOL    HW226073   3.316   4.304   6.922 -1.4517 -2.3078 -1.5464
 8392SOL     OW26074   3.331   2.100   1.983  0.7307  0.2981 -0.2306
 8392SOL    HW126075   3.392   2.129   1.909  2.7696  0.1295  1.3018
 8392SOL    HW226076   3.380   2.106   2.070 -0.9795 -1.3424  0.9046
 8393SOL     OW26077   0.396   6.531   3.461  0.1984 -0.4707 -0.2286
 8393SOL    HW126078   0.383   6.432   3.456  0.8560 -0.5359 -0.7832
 8393SOL    HW226079   0.326   6.571   3.520  0.4621 -1.3711  0.7274
 8394SOL     OW26080   0.926   1.733   5.719 -0.0273  0.0973 -0.4603
 8394SOL    HW126081   0.944   1.704   5.813 -0.2455  1.4300  0.0165
 8394SOL    HW226082   0.894   1.655   5.665  4.5330 -1.9483 -0.7169
 8395SOL     OW26083   4.556   6.854   5.606  0.3364 -0.3625 -0.6350
 8395SOL    HW126084   4.538   6.757   5.587  1.3387 -0.8226  0.6826
 8395SOL    HW226085   4.650   6.865   5.635  0.2341  1.0364 -0.7838
 8396SOL     OW26086   5.742   2.102   2.865  0.4234  0.4184  0.2972
 8396SOL    HW126087   5.670   2.038   2.891 -0.0697  0.5708 -0.6434
 8396SOL    HW226088   5.705   2.195   2.867  0.3150  0.4139 -1.1065
 8397SOL     OW26089   2.581   6.981   6.993 -0.1629 -0.1505  0.4898
 8397SOL    HW126090   2.547   7.026   6.911 -2.1827  0.1420  1.4230
 8397SOL    HW226091   2.583   7.046   7.069 -0.3391 -0.9207  1.1767
 8398SOL     OW26092   3.575   6.529   4.451 -0.0353 -0.1414 -0.1638
 8398SOL    HW126093   3.577   6.541   4.351  1.1086  1.3704  0.0222
 8398SOL    HW226094   3.511   6.594   4.491  1.4982  1.1186  0.3031
 8399SOL     OW26095   5.787   5.242   6.876 -0.1504 -0.3141 -0.5316
 8399SOL    HW126096   5.774   5.337   6.904  2.3861 -0.2628  0.8127
 8399SOL    HW226097   5.771   5.233   6.778 -0.1573  1.5788 -0.7366
 8400SOL     OW26098   5.193   5.043   6.132  0.3047 -0.0681  0.0384
 8400SOL    HW126099   5.233   4.959   6.167 -1.5380 -0.7893  0.5139
 8400SOL    HW226100   5.135   5.022   6.053 -2.3780  0.2866  1.8000
 8401SOL     OW26101   2.908   5.138   2.280 -0.2783  0.5353  0.2483
 8401SOL    HW126102   2.898   5.038   2.283 -0.4143  0.5418  0.0617
 8401SOL    HW226103   2.985   5.166   2.337 -0.0378  0.2918  0.0478
 8402SOL     OW26104   6.010   5.769   6.354 -0.2396 -0.3341  0.0934
 8402SOL    HW126105   5.942   5.739   6.420 -0.5009  0.2406  0.0922
 8402SOL    HW226106   6.052   5.689   6.311  1.0851 -0.7732  2.0957
 8403SOL     OW26107   5.710   2.342   5.105 -0.5045  0.2580  0.2106
 8403SOL    HW126108   5.731   2.437   5.081  1.0664  0.2043  1.2556
 8403SOL    HW226109   5.754   2.281   5.040 -0.2270  0.2079  0.4480
 8404SOL     OW26110   2.641   6.308   0.174 -0.1739 -0.2388 -0.5888
 8404SOL    HW126111   2.691   6.237   0.125 -1.4382 -1.1051 -0.6701
 8404SOL    HW226112   2.659   6.397   0.132  0.1407 -0.7283 -1.5182
 8405SOL     OW26113   3.154   6.000   4.975  0.0860  0.3542  0.5479
 8405SOL    HW126114   3.251   6.020   4.987 -0.3736  2.2952  1.5249
 8405SOL    HW226115   3.118   6.054   4.899 -0.1326 -0.7390 -0.1322
 8406SOL     OW26116   1.589   3.043   3.754 -0.1633  0.2940 -0.2618
 8406SOL    HW126117   1.543   2.977   3.813 -0.7335  0.6492 -0.3042
 8406SOL    HW226118   1.629   2.996   3.676 -0.2729 -0.0431 -0.1137
 8407SOL     OW26119   6.069   0.473   4.820 -0.4159 -0.4371  1.2095
 8407SOL    HW126120   6.131   0.550   4.806 -0.8119 -0.1593  0.9262
 8407SOL    HW226121   6.056   0.425   4.733 -0.3989 -0.6514  1.3235
 8408SOL     OW26122   6.685   2.319   1.789 -0.4457  0.0248  0.1650
 8408SOL    HW126123   6.586   2.333   1.801 -0.1854  1.4172  1.0154
 8408SOL    HW226124   6.723   2.280   1.873  0.0934  1.8896  0.8355
 8409SOL     OW26125   4.922   0.063   5.944 -0.4447  0.5197 -0.0024
 8409SOL    HW126126   4.933  -0.016   6.005 -0.2679  0.0116 -0.6771
 8409SOL    HW226127   4.866   0.132   5.988 -1.2961 -0.3314  0.2782
 8410SOL     OW26128   5.757   0.154   3.902  0.6316  0.6518 -0.8209
 8410SOL    HW126129   5.725   0.084   3.837 -0.2886  0.9527 -0.7154
 8410SOL    HW226130   5.853   0.174   3.885  0.8875 -0.5646 -0.9244
 8411SOL     OW26131   6.426   1.276   3.638  0.2099 -0.1195  0.6140
 8411SOL    HW126132   6.379   1.207   3.693 -0.0342  0.5752  1.3124
 8411SOL    HW226133   6.411   1.366   3.679  1.4723  0.2184  0.3677
 8412SOL     OW26134   0.759   6.642   5.191 -0.1995  0.1570  0.2157
 8412SOL    HW126135   0.688   6.710   5.175  1.8284  2.1347 -1.0196
 8412SOL    HW226136   0.800   6.615   5.104  0.1683 -1.4243  0.8395
 8413SOL     OW26137   6.732   5.609   3.062 -0.2985 -0.1002  0.2765
 8413SOL    HW126138   6.677   5.533   3.027  0.5098 -0.4219 -0.3125
 8413SOL    HW226139   6.677   5.692   3.063 -0.8126 -0.4259 -0.2783
 8414SOL     OW26140   0.502   0.582   6.330  0.1181 -0.1015  0.1499
 8414SOL    HW126141   0.452   0.504   6.293 -2.1689  0.5150  1.7143
 8414SOL    HW226142   0.570   0.550   6.397 -0.9392 -0.7905  0.9318
 8415SOL     OW26143   5.268   5.507   5.170  0.1270  0.2330  0.1287
 8415SOL    HW126144   5.357   5.550   5.157  0.1271  0.1346 -0.2078
 8415SOL    HW226145   5.196   5.565   5.131  0.2101 -0.4513 -1.1128
 8416SOL     OW26146   1.190   6.285   5.431 -0.4124 -0.1910 -0.1494
 8416SOL    HW126147   1.274   6.273   5.377  1.1266  0.4901  1.9490
 8416SOL    HW226148   1.140   6.198   5.434  1.0468 -1.0714 -0.1993
 8417SOL     OW26149   0.331   5.545   2.376  0.0110 -0.5568  0.2845
 8417SOL    HW126150   0.414   5.598   2.356  1.1949 -1.2063  2.9852
 8417SOL    HW226151   0.292   5.576   2.462 -1.9294 -1.0633 -0.3683
 8418SOL     OW26152   0.428   6.031   5.661  0.0845 -0.0085 -0.1248
 8418SOL    HW126153   0.424   6.103   5.730  0.6874 -1.7979  1.8666
 8418SOL    HW226154   0.344   5.977   5.665 -0.3532  0.5030 -1.5963
 8419SOL     OW26155   6.583   6.665   0.541  0.2379  0.0449  0.2769
 8419SOL    HW126156   6.552   6.602   0.469  0.6759 -0.8767  0.8653
 8419SOL    HW226157   6.554   6.758   0.520  2.0338  0.1498 -2.1169
 8420SOL     OW26158   3.318   0.928   5.390  0.6165 -0.3615  0.2916
 8420SOL    HW126159   3.253   0.915   5.464  1.1315  0.1423  0.8391
 8420SOL    HW226160   3.315   0.849   5.329 -1.0256 -0.0227 -0.1015
 8421SOL     OW26161   3.139   1.860   3.352 -0.1231 -0.2886 -0.1930
 8421SOL    HW126162   3.050   1.904   3.345 -0.1751 -0.5386 -1.3457
 8421SOL    HW226163   3.207   1.928   3.381 -0.9157 -0.4424  2.2873
 8422SOL     OW26164   0.256   2.681   0.040 -0.1308  0.4720  0.2467
 8422SOL    HW126165   0.322   2.742  -0.003  2.3827 -1.9442  0.4015
 8422SOL    HW226166   0.244   2.599  -0.016 -2.2805  0.3982  0.7360
 8423SOL     OW26167   6.519   6.531   3.049  0.4314  0.0333 -0.3997
 8423SOL    HW126168   6.593   6.495   3.106 -0.2908 -4.0887 -1.7113
 8423SOL    HW226169   6.550   6.535   2.954  0.0016  1.7003 -0.4866
 8424SOL     OW26170   1.173   1.787   0.310 -0.2227  0.5444 -0.2421
 8424SOL    HW126171   1.185   1.706   0.252  0.7235  0.2891  0.2980
 8424SOL    HW226172   1.091   1.776   0.366  0.2289 -0.3297  0.2715
 8425SOL     OW26173   2.508   2.701   0.383  0.3033 -0.3548  0.8742
 8425SOL    HW126174   2.584   2.737   0.330 -1.1239 -0.2406 -1.2524
 8425SOL    HW226175   2.483   2.765   0.455  2.0959 -0.3495  1.5251
 8426SOL     OW26176   0.849   4.773   6.548  0.0008  0.1300 -0.0801
 8426SOL    HW126177   0.819   4.868   6.562 -0.6834 -0.1757  0.6689
 8426SOL    HW226178   0.934   4.772   6.495  0.3710  1.1964  0.4538
 8427SOL     OW26179   1.402   2.556   3.077 -0.0301  0.2002 -0.1243
 8427SOL    HW126180   1.304   2.538   3.071 -0.0642  0.2489  0.2590
 8427SOL    HW226181   1.418   2.640   3.129  0.2982 -1.3571  2.4832
 8428SOL     OW26182   3.679   3.751   4.884  0.1759  0.1531 -0.6216
 8428SOL    HW126183   3.723   3.676   4.935  0.6480  1.9089  1.7231
 8428SOL    HW226184   3.736   3.776   4.807  0.3049 -1.4630 -1.1018
 8429SOL     OW26185   4.523   2.710   5.675 -0.0403 -0.1173 -0.3791
 8429SOL    HW126186   4.549   2.804   5.694  1.9441 -0.8976  1.1795
 8429SOL    HW226187   4.502   2.663   5.761 -1.2158 -1.0553 -1.1401
 8430SOL     OW26188   0.329   6.101   0.174  0.1820  0.4182 -0.4811
 8430SOL    HW126189   0.294   6.010   0.195  1.2694  0.5971  2.6128
 8430SOL    HW226190   0.413   6.093   0.120  0.6226 -0.4683  0.3205
 8431SOL     OW26191   0.668   3.363   3.419 -0.2724  0.4063  0.1256
 8431SOL    HW126192   0.594   3.414   3.374  0.8718 -0.8566 -3.5905
 8431SOL    HW226193   0.756   3.400   3.391  0.5326 -1.5284 -0.0647
 8432SOL     OW26194   0.922   3.278   0.504 -0.5564 -0.6872 -0.4077
 8432SOL    HW126195   0.855   3.279   0.430 -1.3632  0.0650  0.3055
 8432SOL    HW226196   0.996   3.216   0.481 -0.4106  0.0705 -2.1791
 8433SOL     OW26197   2.587   5.031   5.962 -0.6260 -1.0199 -0.6422
 8433SOL    HW126198   2.668   5.085   5.984 -0.7893 -0.1381 -2.0687
 8433SOL    HW226199   2.548   4.994   6.046  0.9026 -0.9720  0.1271
 8434SOL     OW26200   5.725   5.475   0.518  0.3977 -0.0125 -0.5618
 8434SOL    HW126201   5.656   5.430   0.574 -1.3377  3.1402  0.0937
 8434SOL    HW226202   5.804   5.415   0.507 -1.7837 -3.2163 -0.0989
 8435SOL     OW26203   6.279   5.584   6.861 -0.1433  0.0065 -0.3997
 8435SOL    HW126204   6.271   5.485   6.849  2.1218 -0.2008 -0.7058
 8435SOL    HW226205   6.356   5.618   6.807  0.2507  1.6441  1.0836
 8436SOL     OW26206   4.519   1.062   4.806 -0.3278 -0.1285  0.3273
 8436SOL    HW126207   4.446   1.085   4.871 -1.2640 -0.8038 -0.4577
 8436SOL    HW226208   4.588   1.134   4.808 -1.7734  1.3248 -0.0068
 8437SOL     OW26209   1.236   2.999   6.287  0.7113  0.0884 -0.4459
 8437SOL    HW126210   1.200   2.908   6.266  0.2646  0.4884 -1.5038
 8437SOL    HW226211   1.318   2.990   6.343  0.0806 -0.9183  0.3472
 8438SOL     OW26212   2.786   2.136   5.866  0.7426 -0.5641 -0.1556
 8438SOL    HW126213   2.828   2.144   5.776  2.4220 -0.9902  0.5482
 8438SOL    HW226214   2.858   2.126   5.935 -0.4271  1.2932  1.4219
 8439SOL     OW26215   3.324   0.675   1.438  0.5907  0.5145 -0.3826
 8439SOL    HW126216   3.317   0.656   1.536 -1.4378  0.0652 -0.5571
 8439SOL    HW226217   3.355   0.769   1.425  1.9478  0.2507  0.6457
 8440SOL     OW26218   3.874   0.293   2.363 -0.5103  0.4167 -0.5393
 8440SOL    HW126219   3.808   0.221   2.385 -0.0507  0.4825  1.1897
 8440SOL    HW226220   3.826   0.377   2.341 -1.0273 -0.0942 -1.4255
 8441SOL     OW26221   5.028   4.763   1.479  0.0882  0.4725 -0.2220
 8441SOL    HW126222   5.017   4.753   1.578  1.5596  0.2954 -0.0532
 8441SOL    HW226223   5.077   4.848   1.459 -0.2348  0.5278 -0.8075
 8442SOL     OW26224   2.039   4.185   5.174  0.2052  0.7041  0.0222
 8442SOL    HW126225   2.004   4.236   5.095 -1.5225 -1.0183 -0.4063
 8442SOL    HW226226   2.118   4.131   5.146 -0.0493  0.5440 -0.4064
 8443SOL     OW26227   6.208   3.505   2.460  0.1573 -0.2706 -0.1280
 8443SOL    HW126228   6.250   3.485   2.549  0.6229  0.8463 -0.0841
 8443SOL    HW226229   6.278   3.500   2.389 -0.3527 -1.8849 -0.5606
 8444SOL     OW26230   5.733   3.157   2.471 -0.1348  0.2621  0.2282
 8444SOL    HW126231   5.634   3.163   2.461  0.0580  1.3752 -1.5249
 8444SOL    HW226232   5.759   3.063   2.490 -1.5399 -0.0019  0.9491
 8445SOL     OW26233   2.537   5.275   3.285  0.5068 -0.7775 -0.0383
 8445SOL    HW126234   2.438   5.267   3.300  0.7889 -0.9424  1.9509
 8445SOL    HW226235   2.554   5.293   3.188 -1.4517 -1.0026 -0.4693
 8446SOL     OW26236   0.368   5.896   3.339 -1.0043  0.4590  0.4722
 8446SOL    HW126237   0.324   5.955   3.271  0.6941  0.7090 -0.4797
 8446SOL    HW226238   0.467   5.910   3.336 -0.7549 -0.7258  1.8924
 8447SOL     OW26239   6.229   0.687   3.465 -0.1094 -0.6634  0.1243
 8447SOL    HW126240   6.287   0.625   3.518 -0.5281 -0.1478  1.1969
 8447SOL    HW226241   6.172   0.741   3.526  0.5965  1.1515 -0.7338
 8448SOL     OW26242   4.747   2.341   4.995  0.0095 -0.3413 -0.2031
 8448SOL    HW126243   4.691   2.363   4.915 -0.3260  1.1222  0.3999
 8448SOL    HW226244   4.690   2.300   5.066 -0.0829  0.1333 -0.0009
 8449SOL     OW26245   2.198   1.587   0.307 -0.7597  0.5511  0.1930
 8449SOL    HW126246   2.207   1.543   0.396 -1.4530 -3.0940 -1.3560
 8449SOL    HW226247   2.103   1.578   0.275 -0.0365 -0.4191 -1.8545
 8450SOL     OW26248   2.886   0.086   5.870  0.0893  0.2089 -0.1375
 8450SOL    HW126249   2.972   0.104   5.919  1.3937 -1.6303 -1.6084
 8450SOL    HW226250   2.899   0.105   5.772 -0.6961 -1.5537 -0.6141
 8451SOL     OW26251   5.873   1.001   0.920 -0.0030 -0.2944  0.7629
 8451SOL    HW126252   5.933   0.927   0.952  1.0960  0.2988  0.1139
 8451SOL    HW226253   5.928   1.076   0.885 -1.0804  1.0594  1.8392
 8452SOL     OW26254   5.679   5.524   4.946 -0.4366  0.2058 -0.1155
 8452SOL    HW126255   5.743   5.570   4.884 -0.5462 -2.0023 -1.9616
 8452SOL    HW226256   5.698   5.427   4.949 -3.6790 -0.5859 -0.7730
 8453SOL     OW26257   2.309   2.978   6.167 -0.4988 -0.4721  0.0029
 8453SOL    HW126258   2.374   3.050   6.141  1.4930 -1.7902  1.0139
 8453SOL    HW226259   2.274   2.933   6.085  1.4373 -0.9897 -0.5936
 8454SOL     OW26260   0.617   0.351   3.477  0.4010 -0.1935  0.1546
 8454SOL    HW126261   0.596   0.438   3.522 -0.9749 -0.4259  0.0123
 8454SOL    HW226262   0.609   0.362   3.378  2.5967  0.1005 -0.0384
 8455SOL     OW26263   4.407   1.760   2.618 -0.4678 -0.8220 -0.1696
 8455SOL    HW126264   4.438   1.685   2.560 -1.3260 -1.2207 -0.1325
 8455SOL    HW226265   4.310   1.747   2.640 -0.3775 -0.2110  0.6336
 8456SOL     OW26266   4.920   6.703   3.403  0.0592  0.1892  0.6962
 8456SOL    HW126267   4.939   6.700   3.305 -0.6492 -1.9912  0.5733
 8456SOL    HW226268   4.837   6.756   3.419  0.4128  0.9211  0.1924
 8457SOL     OW26269   2.282   4.508   1.231  0.7004 -0.3131 -0.2761
 8457SOL    HW126270   2.307   4.602   1.256 -0.8053  0.1329 -0.3557
 8457SOL    HW226271   2.241   4.507   1.140 -2.2110 -0.5012  0.9191
 8458SOL     OW26272   1.505   2.931   2.972  0.5624 -0.0490  0.3114
 8458SOL    HW126273   1.568   2.892   3.039  0.7960 -1.3071 -0.5962
 8458SOL    HW226274   1.545   2.922   2.880 -1.0153 -1.0901 -0.3148
 8459SOL     OW26275   5.798   5.909   2.976 -0.3220  0.1612 -0.0509
 8459SOL    HW126276   5.733   5.985   2.986  1.1417  1.2189  2.3144
 8459SOL    HW226277   5.750   5.828   2.943 -2.3176  1.5595 -0.7948
 8460SOL     OW26278   5.630   6.130   6.746  0.6925 -0.6062  0.7083
 8460SOL    HW126279   5.573   6.192   6.800  0.5740 -2.0090  2.2445
 8460SOL    HW226280   5.686   6.184   6.683 -0.3191  0.9715  1.1050
 8461SOL     OW26281   1.844   2.078   3.172 -0.0244  0.5581  0.1650
 8461SOL    HW126282   1.896   2.025   3.238  0.4600 -1.9270 -2.0698
 8461SOL    HW226283   1.897   2.158   3.144  0.9737  0.0665  0.6170
 8462SOL     OW26284   4.858   6.609   4.647  0.2334 -0.1591 -0.2082
 8462SOL    HW126285   4.874   6.512   4.628  1.5663  0.0674 -0.3548
 8462SOL    HW226286   4.913   6.637   4.726 -0.0289  0.5034 -0.2560
 8463SOL     OW26287   4.237   0.813   1.922  0.1299  0.4111 -0.6121
 8463SOL    HW126288   4.308   0.862   1.871  1.4608  2.1480  2.6159
 8463SOL    HW226289   4.273   0.724   1.950  0.8535  1.0082  0.4305
 8464SOL     OW26290   1.924   3.319   5.414  0.2514 -0.5285  0.3634
 8464SOL    HW126291   1.844   3.359   5.458  1.1213  1.4933  0.2517
 8464SOL    HW226292   1.899   3.284   5.324 -0.1849  2.0271 -0.6122
 8465SOL     OW26293   0.900   3.594   6.918  0.7938  0.3363  0.1421
 8465SOL    HW126294   0.841   3.552   6.849 -0.3678  0.2345  1.1524
 8465SOL    HW226295   0.893   3.541   7.003  1.2083  1.1724  0.7072
 8466SOL     OW26296   2.118   0.971   4.676 -0.1260 -0.1185  0.1460
 8466SOL    HW126297   2.126   1.071   4.673  0.1714 -0.0658  1.7612
 8466SOL    HW226298   2.124   0.940   4.771 -1.0137 -1.6216 -0.2573
 8467SOL     OW26299   2.302   4.780   4.088  0.1912  0.4614 -0.4041
 8467SOL    HW126300   2.301   4.747   3.994 -0.4439 -1.8752  0.3625
 8467SOL    HW226301   2.254   4.715   4.147  1.9207  1.0571  1.7950
 8468SOL     OW26302   1.528   1.137   4.164 -0.1435  0.2714 -0.5183
 8468SOL    HW126303   1.473   1.169   4.087  1.0662  2.3844 -0.5915
 8468SOL    HW226304   1.621   1.118   4.132  0.0969  0.1380  0.2404
 8469SOL     OW26305   6.520   0.107   2.764 -0.4909  0.2600  0.1111
 8469SOL    HW126306   6.568   0.193   2.747  1.9124 -0.7044  1.4028
 8469SOL    HW226307   6.506   0.095   2.862  0.4753 -1.3852  0.0850
 8470SOL     OW26308   6.851   6.904   1.511  0.8526  0.2918 -0.2265
 8470SOL    HW126309   6.872   6.833   1.578 -1.3236  1.1064  1.4369
 8470SOL    HW226310   6.789   6.866   1.441  0.3779  0.3213  0.1741
 8471SOL     OW26311   6.474   2.800   0.022  0.3264 -0.2897 -0.3304
 8471SOL    HW126312   6.497   2.871  -0.045  0.1317  0.1351  0.0526
 8471SOL    HW226313   6.539   2.724   0.014 -0.0162 -0.4899 -1.3799
 8472SOL     OW26314   4.807   4.234   2.957 -0.0700  0.2274  0.6024
 8472SOL    HW126315   4.736   4.283   3.007 -0.4517 -0.8905  1.2065
 8472SOL    HW226316   4.789   4.135   2.963 -0.2512  0.0588 -1.9317
 8473SOL     OW26317   6.998   6.679   0.898 -0.6317 -0.1980  0.3482
 8473SOL    HW126318   6.906   6.642   0.912 -0.6457 -0.2313  0.1644
 8473SOL    HW226319   7.043   6.630   0.824 -0.1183 -0.8061  1.0524
 8474SOL     OW26320   5.554   4.051   3.390  0.9020 -0.2974  0.4447
 8474SOL    HW126321   5.573   3.995   3.309  1.2937  0.6934 -0.1713
 8474SOL    HW226322   5.560   3.994   3.472 -1.6008 -1.8242 -0.3320
 8475SOL     OW26323   1.312   4.435   2.402 -0.2818 -0.8239 -0.1636
 8475SOL    HW126324   1.349   4.502   2.337 -1.6929  1.3154  1.0999
 8475SOL    HW226325   1.347   4.457   2.493 -1.4845 -1.2582  0.4069
 8476SOL     OW26326   2.799   6.804   0.619 -0.4106 -0.0556  0.0458
 8476SOL    HW126327   2.716   6.767   0.660 -0.3723  1.6310  1.7856
 8476SOL    HW226328   2.797   6.789   0.521 -2.4151 -0.7232  0.1442
 8477SOL     OW26329   0.777   1.575   3.761  0.3287 -0.6651  0.1265
 8477SOL    HW126330   0.707   1.505   3.773  1.3907 -1.7784  0.0249
 8477SOL    HW226331   0.827   1.587   3.846  1.4430 -1.4825 -0.3877
 8478SOL     OW26332   5.231   0.150   4.408  0.0033 -0.3196 -1.3288
 8478SOL    HW126333   5.290   0.229   4.425 -0.6210 -0.1458  0.2846
 8478SOL    HW226334   5.254   0.109   4.320  1.7340  0.4254 -1.2704
 8479SOL     OW26335   1.129   6.579   5.450 -0.4289 -0.1669  0.5320
 8479SOL    HW126336   1.057   6.613   5.510 -1.8799 -1.9119 -0.1366
 8479SOL    HW226337   1.143   6.482   5.466 -1.5740 -0.9547 -2.5732
 8480SOL     OW26338   1.906   4.188   0.134 -0.0199 -0.0167 -0.1717
 8480SOL    HW126339   1.973   4.114   0.144 -0.9943 -1.0003 -0.7271
 8480SOL    HW226340   1.867   4.209   0.223  1.0181  0.5828  0.1647
 8481SOL     OW26341   0.431   6.547   6.634  0.1203  0.2668  0.4579
 8481SOL    HW126342   0.392   6.457   6.650  1.6108 -0.3176  0.9500
 8481SOL    HW226343   0.494   6.570   6.708  1.3586  0.7901 -0.7204
 8482SOL     OW26344   4.342   0.069   5.986 -0.4556  0.4641  0.0607
 8482SOL    HW126345   4.382   0.080   5.895 -0.6661  0.7624  0.0028
 8482SOL    HW226346   4.390   0.128   6.051 -0.5621  0.5461  0.0647
 8483SOL     OW26347   5.994   5.247   3.012  0.4103  0.0417 -0.3939
 8483SOL    HW126348   5.973   5.238   3.109 -0.3962  0.5348 -0.5156
 8483SOL    HW226349   6.025   5.159   2.976 -0.3875 -0.4361  0.0579
 8484SOL     OW26350   6.543   0.861   1.798 -0.4805 -0.0563 -0.0446
 8484SOL    HW126351   6.509   0.777   1.842  0.5059 -0.5696 -0.2394
 8484SOL    HW226352   6.591   0.837   1.714 -0.1919  0.7126 -0.1019
 8485SOL     OW26353   3.790   5.854   5.792 -0.6563 -0.5624 -0.2243
 8485SOL    HW126354   3.811   5.949   5.813 -0.0713 -0.4439 -1.2810
 8485SOL    HW226355   3.757   5.808   5.874 -0.7479  0.4957  0.3422
 8486SOL     OW26356   2.016   0.775   0.498  0.3477  0.3621  0.5637
 8486SOL    HW126357   2.089   0.803   0.436  0.3767  1.7516  1.1697
 8486SOL    HW226358   1.932   0.826   0.476 -0.7510 -1.8216 -0.6782
 8487SOL     OW26359   0.273   6.583   0.653 -0.4623 -0.4287  0.5342
 8487SOL    HW126360   0.291   6.603   0.749 -0.8107 -0.9756  0.7163
 8487SOL    HW226361   0.175   6.575   0.637 -0.4899  0.8957 -0.1273
 8488SOL     OW26362   4.759   6.544   0.524 -0.1768 -0.5540 -0.1798
 8488SOL    HW126363   4.701   6.466   0.545 -0.7575  0.2111  1.2106
 8488SOL    HW226364   4.703   6.620   0.492  0.5356 -1.1582 -3.1277
 8489SOL     OW26365   2.238   1.077   4.250 -0.4583  0.3615 -0.4033
 8489SOL    HW126366   2.217   1.027   4.166 -0.5585 -0.7884  0.2701
 8489SOL    HW226367   2.313   1.031   4.298 -1.0174  0.4537  0.5825
 8490SOL     OW26368   0.903   2.418   1.255  0.2003  0.1548 -0.1560
 8490SOL    HW126369   0.976   2.358   1.220 -1.0840 -0.6700 -1.5140
 8490SOL    HW226370   0.881   2.391   1.349  1.4106  0.2264  0.1774
 8491SOL     OW26371   5.637   1.379   4.281  0.0824 -0.2877  0.0235
 8491SOL    HW126372   5.721   1.400   4.331  1.6312 -0.0103 -2.5223
 8491SOL    HW226373   5.649   1.293   4.230 -0.9150  0.1139 -0.9280
 8492SOL     OW26374   6.701   4.216   1.570 -0.0778 -0.1008 -0.6070
 8492SOL    HW126375   6.789   4.254   1.597  0.8498 -0.6135 -2.6789
 8492SOL    HW226376   6.685   4.130   1.618  1.2266 -0.7049 -1.2083
 8493SOL     OW26377   6.889   2.053   2.875 -0.2167 -0.7979 -0.1573
 8493SOL    HW126378   6.919   2.120   2.807 -2.9208  0.4738 -0.2427
 8493SOL    HW226379   6.832   1.984   2.832 -1.3563 -0.3983  0.6585
 8494SOL     OW26380   1.768   1.285   3.168 -0.0943  0.0961 -0.0962
 8494SOL    HW126381   1.784   1.350   3.094 -0.0024  1.0954  0.7844
 8494SOL    HW226382   1.681   1.306   3.213  0.7881  0.7598  1.3508
 8495SOL     OW26383   5.265   2.374   2.890  0.2505  0.3165  0.0909
 8495SOL    HW126384   5.326   2.442   2.931 -0.6743  0.9986  0.3660
 8495SOL    HW226385   5.320   2.305   2.843  1.2569  0.4979  0.9592
 8496SOL     OW26386   3.074   5.257   2.471  0.0547  0.2646  0.0005
 8496SOL    HW126387   3.036   5.278   2.561 -1.0678  1.6040 -0.7426
 8496SOL    HW226388   3.107   5.341   2.428 -0.6398 -0.1271 -1.3600
 8497SOL     OW26389   4.390   6.201   5.288 -0.0747 -0.2089 -0.7782
 8497SOL    HW126390   4.349   6.190   5.198  1.3551 -2.9273 -1.1904
 8497SOL    HW226391   4.490   6.204   5.279  0.0973 -0.6246  0.7039
 8498SOL     OW26392   0.815   2.779   6.139  0.0919  0.1822 -0.4645
 8498SOL    HW126393   0.811   2.861   6.081  1.0349  0.1258 -0.6197
 8498SOL    HW226394   0.727   2.767   6.185  0.3511  2.0647  0.6449
 8499SOL     OW26395   2.417   5.433   2.232  0.0723  0.0077 -0.9446
 8499SOL    HW126396   2.455   5.342   2.219  0.5810 -0.2858  1.9552
 8499SOL    HW226397   2.462   5.497   2.170 -1.4840 -1.8480 -4.3265
 8500SOL     OW26398   6.188   5.754   0.074  0.4727  0.0661  0.4200
 8500SOL    HW126399   6.221   5.687   0.007 -2.2000 -1.1823  0.2036
 8500SOL    HW226400   6.172   5.841   0.029  0.6387 -0.1757 -0.1171
 8501SOL     OW26401   3.221   5.116   3.575 -0.3982  0.1553  0.1780
 8501SOL    HW126402   3.198   5.207   3.609 -0.9989  0.2451 -0.4349
 8501SOL    HW226403   3.139   5.074   3.534 -0.3739 -1.0403  1.2760
 8502SOL     OW26404   5.058   6.067   6.016  0.2887  0.0827 -0.1708
 8502SOL    HW126405   5.113   6.147   6.039  2.6747 -1.6915  0.6903
 8502SOL    HW226406   5.019   6.079   5.925  2.4379  1.3162 -1.0040
 8503SOL     OW26407   0.112   4.447   4.144  0.3048  0.0084 -0.1114
 8503SOL    HW126408   0.075   4.443   4.236 -0.2192 -2.4005 -0.3672
 8503SOL    HW226409   0.117   4.355   4.105 -1.5780  1.0736 -3.3223
 8504SOL     OW26410   6.119   3.391   1.286 -0.1576 -0.2876 -0.2608
 8504SOL    HW126411   6.217   3.382   1.303 -0.0610 -0.5895 -0.9377
 8504SOL    HW226412   6.070   3.395   1.373  0.4208 -0.4803  0.0784
 8505SOL     OW26413   7.004   4.700   6.386 -0.3283  0.2645  0.1641
 8505SOL    HW126414   7.083   4.652   6.349  0.0704  0.6009  0.5691
 8505SOL    HW226415   6.936   4.634   6.418  0.7389 -0.0714  1.8662
 8506SOL     OW26416   0.557   4.943   0.909 -0.1299  0.3990 -0.1210
 8506SOL    HW126417   0.465   4.983   0.903 -0.8717 -1.0741  0.7830
 8506SOL    HW226418   0.564   4.865   0.846  0.3153  0.1723  0.2013
 8507SOL     OW26419   5.981   4.570   6.344  0.0374 -0.4963  0.0073
 8507SOL    HW126420   5.938   4.580   6.255 -0.1437 -2.6951 -0.2066
 8507SOL    HW226421   5.922   4.610   6.414 -1.1340 -1.1652 -0.5704
 8508SOL     OW26422   6.437   6.681   2.454  0.2680  0.2301  0.7087
 8508SOL    HW126423   6.463   6.613   2.523 -3.2000  0.2037  2.2220
 8508SOL    HW226424   6.447   6.773   2.493 -1.8968  0.2072  1.4481
 8509SOL     OW26425   2.174   2.386   5.934  0.6473 -0.6041 -0.2151
 8509SOL    HW126426   2.255   2.442   5.956 -0.1853  0.1897  0.9618
 8509SOL    HW226427   2.124   2.429   5.859  0.7258 -0.5010 -0.2087
 8510SOL     OW26428   6.436   1.275   5.033 -0.3070 -0.1775 -0.1529
 8510SOL    HW126429   6.503   1.239   4.968 -0.9661 -1.1560 -0.2999
 8510SOL    HW226430   6.454   1.373   5.047  0.1567 -0.0563 -1.4115
 8511SOL     OW26431   5.687   5.521   6.828 -0.0544 -0.1663  0.1634
 8511SOL    HW126432   5.603   5.491   6.783  1.2573 -0.7805 -2.0296
 8511SOL    HW226433   5.719   5.607   6.788  2.0736 -1.6082 -1.4799
 8512SOL     OW26434   2.306   1.636   2.311 -0.6426 -0.7531 -0.6376
 8512SOL    HW126435   2.398   1.652   2.346 -0.8622 -0.2150 -0.3011
 8512SOL    HW226436   2.311   1.573   2.233  0.2021  0.5818 -1.7218
 8513SOL     OW26437   0.574   3.299   3.955  0.1650  0.5101 -1.4202
 8513SOL    HW126438   0.546   3.213   3.998 -0.7070  0.9307 -1.1286
 8513SOL    HW226439   0.637   3.279   3.879  2.6605 -0.1908  0.6730
 8514SOL     OW26440   3.292   3.193   5.546  0.3688 -0.4523 -0.9923
 8514SOL    HW126441   3.202   3.231   5.566 -0.4640 -1.8560 -1.9467
 8514SOL    HW226442   3.302   3.182   5.447  2.3850  1.5182 -1.0919
 8515SOL     OW26443   4.744   1.761   4.029 -0.0416 -0.1807 -0.5569
 8515SOL    HW126444   4.735   1.858   4.052 -1.7307 -0.3106 -0.5040
 8515SOL    HW226445   4.749   1.707   4.113  0.0868 -0.1977 -0.5756
 8516SOL     OW26446   3.427   5.720   6.107  0.5675  0.6522  0.1986
 8516SOL    HW126447   3.340   5.735   6.153  0.1583  3.5111 -1.2825
 8516SOL    HW226448   3.502   5.746   6.168  0.4673 -1.6050  1.3955
 8517SOL     OW26449   6.073   4.452   5.347 -0.7566 -0.3300 -0.0885
 8517SOL    HW126450   6.105   4.375   5.402  1.1699 -0.7359 -1.6642
 8517SOL    HW226451   6.151   4.499   5.306 -2.0335  1.0171 -1.1009
 8518SOL     OW26452   4.013   0.507   0.763 -0.0049 -0.1828 -0.1316
 8518SOL    HW126453   4.035   0.439   0.833  1.4404 -1.2572 -1.5429
 8518SOL    HW226454   4.025   0.466   0.672  1.4214  2.0684 -1.0493
 8519SOL     OW26455   1.522   2.588   4.774 -0.2226 -0.3296 -1.1270
 8519SOL    HW126456   1.553   2.585   4.679 -0.1416  0.4562 -1.1279
 8519SOL    HW226457   1.551   2.674   4.816 -0.6547 -0.4741 -0.5251
 8520SOL     OW26458   5.810   1.084   6.665 -0.2702  0.4790  0.9869
 8520SOL    HW126459   5.742   1.023   6.706  0.1682 -1.7377 -1.3323
 8520SOL    HW226460   5.885   1.029   6.627  1.1831  2.6461  0.5689
 8521SOL     OW26461   0.641   5.903   4.038  0.4195  0.7619  0.4173
 8521SOL    HW126462   0.671   5.971   4.105  0.1913  1.0132  0.2633
 8521SOL    HW226463   0.613   5.948   3.954 -0.0208  0.5020  0.4200
 8522SOL     OW26464   3.067   0.127   6.077  0.3860  0.0813 -0.4206
 8522SOL    HW126465   3.163   0.148   6.054  0.7299 -0.1360  0.7358
 8522SOL    HW226466   3.036   0.190   6.149 -0.7956  1.0311 -1.7135
 8523SOL     OW26467   0.865   4.221   0.893 -1.0743 -0.5886  0.5075
 8523SOL    HW126468   0.777   4.219   0.846 -1.6519 -1.7847  1.5697
 8523SOL    HW226469   0.883   4.131   0.933  0.4437 -0.2376  0.6561
 8524SOL     OW26470   1.466   1.983   6.106 -0.5178 -0.0645  0.5216
 8524SOL    HW126471   1.417   2.070   6.104  0.7965  0.7318 -1.9794
 8524SOL    HW226472   1.468   1.945   6.013  0.1276 -2.0964  1.3208
 8525SOL     OW26473   5.408   6.397   1.427 -0.0667  0.6050  0.3975
 8525SOL    HW126474   5.426   6.435   1.336  0.5767 -0.6218 -0.0165
 8525SOL    HW226475   5.321   6.432   1.461 -1.2754 -0.3420 -1.5246
 8526SOL     OW26476   4.817   5.742   4.818  0.8388  0.1635  0.6905
 8526SOL    HW126477   4.901   5.711   4.773  0.3697  0.0048 -0.0808
 8526SOL    HW226478   4.837   5.823   4.873  1.1661  1.1127 -0.7809
 8527SOL     OW26479   4.486   6.167   1.897 -0.2823  0.4418  0.1559
 8527SOL    HW126480   4.386   6.164   1.899 -0.3365  1.7668  0.4311
 8527SOL    HW226481   4.522   6.178   1.989 -0.0004  2.0749 -0.1212
 8528SOL     OW26482   1.490   1.232   0.680  0.1327  0.3061 -0.2866
 8528SOL    HW126483   1.437   1.174   0.619  0.6796 -1.8712  1.1920
 8528SOL    HW226484   1.579   1.252   0.638 -0.0732  0.0960 -0.8308
 8529SOL     OW26485   5.069   2.800   2.345  1.0228  0.2157 -0.3120
 8529SOL    HW126486   5.003   2.811   2.271  2.1206 -2.3048 -1.7832
 8529SOL    HW226487   5.135   2.876   2.342  0.8221  0.3590 -1.6782
 8530SOL     OW26488   6.266   3.465   3.226 -0.4557 -0.1317 -0.2662
 8530SOL    HW126489   6.167   3.453   3.218 -0.2296 -2.3189 -0.1770
 8530SOL    HW226490   6.288   3.508   3.314 -1.3436  1.2532 -0.6836
 8531SOL     OW26491   0.167   0.486   3.888  0.0791 -0.1558 -0.7460
 8531SOL    HW126492   0.148   0.388   3.892  0.4969 -0.2504 -1.0430
 8531SOL    HW226493   0.090   0.536   3.926  0.4617 -0.6532  0.7524
 8532SOL     OW26494   3.014   2.196   3.173 -0.1402  0.1837 -0.3405
 8532SOL    HW126495   2.940   2.258   3.145 -0.1096  0.0126 -0.8148
 8532SOL    HW226496   3.032   2.208   3.270 -1.6174 -0.6351  0.0573
 8533SOL     OW26497   3.005   1.854   2.449  0.1236 -0.3863 -0.2315
 8533SOL    HW126498   3.078   1.827   2.385  0.0180  0.2443 -0.6220
 8533SOL    HW226499   3.032   1.936   2.498 -0.5482  0.1864 -0.7901
 8534SOL     OW26500   2.671   1.611   6.186 -0.2206 -0.7899 -0.4491
 8534SOL    HW126501   2.731   1.689   6.202 -0.9089 -0.2669 -0.4013
 8534SOL    HW226502   2.672   1.551   6.266 -0.4808 -0.3031 -0.0772
 8535SOL     OW26503   0.043   4.003   0.494 -0.1959  0.4300  0.3373
 8535SOL    HW126504   0.100   4.014   0.576  0.1785  1.1031 -0.0089
 8535SOL    HW226505   0.076   4.063   0.422 -0.9707  0.3764 -0.0746
 8536SOL     OW26506   5.194   4.087   1.893  0.6733 -0.4024 -0.5019
 8536SOL    HW126507   5.145   4.098   1.980  1.0140  0.3704 -0.3959
 8536SOL    HW226508   5.249   4.004   1.897  1.0136 -0.1547  0.1948
 8537SOL     OW26509   0.470   4.756   7.009  0.0517  0.3047  0.0730
 8537SOL    HW126510   0.401   4.775   6.940 -0.8628  0.0328  0.9021
 8537SOL    HW226511   0.431   4.767   7.100  1.0390 -0.0646  0.5585
 8538SOL     OW26512   0.973   6.318   5.066  0.2291  0.0050 -0.3221
 8538SOL    HW126513   0.908   6.257   5.112 -3.4608  4.0743  0.5254
 8538SOL    HW226514   1.042   6.348   5.131  1.0739 -1.8204 -0.3122
 8539SOL     OW26515   1.342   0.453   1.379  0.4121  0.5202  0.2230
 8539SOL    HW126516   1.244   0.451   1.397  0.4529 -0.2121  0.3868
 8539SOL    HW226517   1.388   0.381   1.432  0.6230 -1.3318 -2.2627
 8540SOL     OW26518   2.444   4.554   1.723 -0.6129 -0.7780  0.3863
 8540SOL    HW126519   2.395   4.611   1.657 -0.7595 -1.0972  0.2189
 8540SOL    HW226520   2.429   4.458   1.701  0.0452 -0.8766  0.3720
 8541SOL     OW26521   1.959   6.263   3.629  0.6538 -0.4016 -0.2386
 8541SOL    HW126522   1.952   6.172   3.670  0.8518 -0.0486  0.5866
 8541SOL    HW226523   1.869   6.307   3.631  0.8198 -0.0878  0.5193
 8542SOL     OW26524   3.248   0.136   1.005  0.3249 -0.0460  0.5253
 8542SOL    HW126525   3.307   0.177   1.075 -0.9866  0.9179  1.1119
 8542SOL    HW226526   3.247   0.194   0.924 -0.0312  0.1059  0.6337
 8543SOL     OW26527   2.825   5.467   5.588 -0.3176  0.0398 -0.1930
 8543SOL    HW126528   2.819   5.566   5.579 -1.1430 -0.1244 -1.7280
 8543SOL    HW226529   2.874   5.429   5.510 -2.1444 -0.9376 -0.9373
 8544SOL     OW26530   1.688   4.235   0.337 -0.0753 -0.1479 -0.1239
 8544SOL    HW126531   1.692   4.143   0.296 -0.8470 -0.0030 -0.5493
 8544SOL    HW226532   1.592   4.261   0.348  0.0991 -0.3014  2.0628
 8545SOL     OW26533   4.473   3.474   5.829  0.1116  0.4416  0.0133
 8545SOL    HW126534   4.447   3.509   5.739  2.1218 -0.6900 -1.0813
 8545SOL    HW226535   4.465   3.375   5.830  1.9514  0.2545  0.3660
 8546SOL     OW26536   1.613   4.469   3.440 -0.4784 -0.2775  0.2191
 8546SOL    HW126537   1.706   4.449   3.411 -1.1029 -1.7613 -0.9289
 8546SOL    HW226538   1.594   4.421   3.526 -0.6371 -1.2512 -0.3416
 8547SOL     OW26539   0.776   2.183   3.755 -1.0118  0.0283 -0.3055
 8547SOL    HW126540   0.818   2.098   3.723 -1.6397  0.2222 -1.7564
 8547SOL    HW226541   0.815   2.260   3.704  0.3565  0.7788  1.7680
 8548SOL     OW26542   4.872   3.943   6.931  0.1259  0.4932  0.7233
 8548SOL    HW126543   4.811   3.970   7.006 -0.1452 -0.0664  0.7125
 8548SOL    HW226544   4.908   3.851   6.949 -0.2248  0.2036 -0.0031
 8549SOL     OW26545   3.670   5.015   3.425 -0.0862  0.0491  0.9681
 8549SOL    HW126546   3.743   4.959   3.385  0.2073  0.9892  0.1264
 8549SOL    HW226547   3.673   5.107   3.384 -1.6136  0.1662  1.0712
 8550SOL     OW26548   3.629   1.628   0.711 -0.1087 -0.7650  0.3757
 8550SOL    HW126549   3.563   1.595   0.644 -0.8966  0.4021  0.5505
 8550SOL    HW226550   3.581   1.647   0.797  0.6554 -0.9323  0.8446
 8551SOL     OW26551   0.551   0.577   5.867 -0.8239 -0.0750  0.0302
 8551SOL    HW126552   0.583   0.553   5.775 -1.1012  0.9034 -0.3324
 8551SOL    HW226553   0.590   0.513   5.933  0.9672  0.3849 -0.5234
 8552SOL     OW26554   4.443   0.942   6.769  0.0059 -0.1335 -0.4712
 8552SOL    HW126555   4.443   1.042   6.772 -2.0729 -0.0573 -1.4509
 8552SOL    HW226556   4.531   0.908   6.803  0.5296  1.9845  0.4768
 8553SOL     OW26557   6.716   3.623   5.202  0.0668  0.4156  0.0628
 8553SOL    HW126558   6.628   3.594   5.237  0.0948  0.7829  0.4504
 8553SOL    HW226559   6.742   3.709   5.245  0.9951 -0.1038  0.5787
 8554SOL     OW26560   2.999   6.220   6.954  0.0618  0.3170  0.4411
 8554SOL    HW126561   3.004   6.132   6.907  0.2723  0.5201  0.0725
 8554SOL    HW226562   2.926   6.218   7.021  0.5106 -0.3649  0.9215
 8555SOL     OW26563   4.661   0.953   6.003  0.3331  0.4411  0.3719
 8555SOL    HW126564   4.759   0.937   5.991  0.3726  0.6659  0.3930
 8555SOL    HW226565   4.636   0.933   6.098  0.1541 -0.6459  0.1160
 8556SOL     OW26566   4.917   6.911   2.429 -0.2584 -0.0426 -0.1504
 8556SOL    HW126567   4.985   6.840   2.450  1.7140  1.9556  0.5982
 8556SOL    HW226568   4.838   6.901   2.490  0.3607 -1.0697  0.5155
 8557SOL     OW26569   5.663   0.283   2.153  0.3815 -0.7860  0.0426
 8557SOL    HW126570   5.583   0.342   2.163 -0.3705 -1.6508 -0.7351
 8557SOL    HW226571   5.691   0.281   2.057  0.4803 -1.5864  0.0825
 8558SOL     OW26572   4.559   2.851   6.763 -0.5191  0.2225 -0.3891
 8558SOL    HW126573   4.469   2.869   6.723 -0.6561 -1.4323 -0.8846
 8558SOL    HW226574   4.603   2.776   6.715 -0.2535 -1.1944  1.9139
 8559SOL     OW26575   6.805   5.580   6.498  0.1133  0.2237  0.4450
 8559SOL    HW126576   6.899   5.612   6.502 -0.6493  2.5572  2.6175
 8559SOL    HW226577   6.759   5.620   6.420  0.2402  1.2650  0.8927
 8560SOL     OW26578   1.989   6.614   0.932 -0.6986 -0.1485 -1.0010
 8560SOL    HW126579   2.088   6.602   0.936 -0.7448 -0.4727 -0.7988
 8560SOL    HW226580   1.955   6.585   0.843 -0.3580  1.9079 -1.8565
 8561SOL     OW26581   6.379   3.083   0.731 -0.0386 -0.2832 -0.0061
 8561SOL    HW126582   6.393   3.182   0.732 -1.9398  0.0149 -0.0971
 8561SOL    HW226583   6.423   3.044   0.649  1.1449  0.3941  0.2860
 8562SOL     OW26584   3.272   4.065   6.500 -0.1293  0.4384 -0.0310
 8562SOL    HW126585   3.205   4.067   6.426 -1.6530  0.0503  1.2966
 8562SOL    HW226586   3.363   4.082   6.462 -0.8330  0.0904 -2.0075
 8563SOL     OW26587   5.022   1.201   1.578 -0.2095 -0.0260  0.0337
 8563SOL    HW126588   5.063   1.285   1.543 -1.7019  0.8536  0.3132
 8563SOL    HW226589   5.078   1.165   1.652  1.7840 -0.6855 -1.7055
 8564SOL     OW26590   4.259   0.711   2.234  0.1176  0.4091  0.0522
 8564SOL    HW126591   4.244   0.648   2.158 -1.3080 -2.0539  2.2199
 8564SOL    HW226592   4.189   0.782   2.231 -0.0940  0.1843 -0.7698
 8565SOL     OW26593   6.613   4.474   3.324  0.4314 -0.1529 -0.2792
 8565SOL    HW126594   6.596   4.458   3.227 -0.9931 -0.1828 -0.0412
 8565SOL    HW226595   6.528   4.465   3.375  1.3376 -1.1564  1.1263
 8566SOL     OW26596   2.104   2.580   2.981  0.4698  0.1315 -0.4526
 8566SOL    HW126597   2.190   2.616   2.944  0.5491  0.8607  0.4207
 8566SOL    HW226598   2.119   2.548   3.075 -0.4594  1.3113  0.1172
 8567SOL     OW26599   5.532   5.889   3.232 -0.1545  0.4349 -0.0352
 8567SOL    HW126600   5.459   5.821   3.227  0.9353 -0.7692 -0.0010
 8567SOL    HW226601   5.518   5.958   3.161 -1.3810  0.2943  0.0529
 8568SOL     OW26602   3.020   3.610   4.451  0.3073 -0.0209 -0.2780
 8568SOL    HW126603   2.981   3.638   4.363 -0.5769 -0.9458 -0.1966
 8568SOL    HW226604   2.984   3.669   4.523  0.3757  0.2036 -0.4266
 8569SOL     OW26605   4.640   0.257   3.666  0.5811 -0.2726 -0.0752
 8569SOL    HW126606   4.723   0.249   3.611  1.7377  0.1458  1.5186
 8569SOL    HW226607   4.665   0.278   3.761 -1.2338 -2.1534  0.9244
 8570SOL     OW26608   3.579   1.996   0.589  0.1694  0.0471 -0.7946
 8570SOL    HW126609   3.591   2.020   0.686 -1.0004 -1.8661 -0.1199
 8570SOL    HW226610   3.485   1.965   0.574 -0.3218  2.2921 -3.0419
 8571SOL     OW26611   2.315   0.782   3.685 -0.0017 -0.0085  0.4745
 8571SOL    HW126612   2.370   0.698   3.684  2.8905  1.7153  1.5917
 8571SOL    HW226613   2.308   0.818   3.592  1.7296  0.2730  0.4253
 8572SOL     OW26614   2.430   3.735   0.795 -0.3515 -0.4560  0.1031
 8572SOL    HW126615   2.441   3.799   0.870  2.5418 -1.7710  0.9467
 8572SOL    HW226616   2.484   3.765   0.716 -0.4580 -0.9309 -0.1608
 8573SOL     OW26617   5.799   4.692   4.936 -0.1103  0.0805 -0.1140
 8573SOL    HW126618   5.843   4.648   4.858 -2.8483 -0.2822 -1.5564
 8573SOL    HW226619   5.811   4.636   5.018  0.0596 -1.1968 -1.0016
 8574SOL     OW26620   6.770   3.875   3.315  0.5897 -0.5405  0.3706
 8574SOL    HW126621   6.704   3.933   3.363  0.1769 -1.3602  0.8348
 8574SOL    HW226622   6.752   3.779   3.338  2.1632 -0.7686  0.7810
 8575SOL     OW26623   3.807   0.728   0.528  0.2117  0.0891 -0.2043
 8575SOL    HW126624   3.891   0.761   0.485  0.1541 -1.3448 -1.4944
 8575SOL    HW226625   3.778   0.643   0.485 -1.4200  0.0660  0.8294
 8576SOL     OW26626   5.445   2.594   2.924  0.4907 -0.7600  0.3291
 8576SOL    HW126627   5.375   2.640   2.979 -0.7020 -1.6879 -0.3887
 8576SOL    HW226628   5.440   2.626   2.830  0.7657 -1.1276  0.1882
 8577SOL     OW26629   5.033   5.068   5.101  0.3076 -0.5965 -0.2387
 8577SOL    HW126630   4.975   5.021   5.035 -0.5035  0.4550 -0.3063
 8577SOL    HW226631   5.127   5.072   5.067  0.2735 -1.6702 -0.4726
 8578SOL     OW26632   1.044   3.023   6.605  0.3188  0.2824  0.2338
 8578SOL    HW126633   1.052   2.932   6.565  0.9254  0.3765  0.1454
 8578SOL    HW226634   1.016   3.088   6.535  0.8451  0.3458  0.0824
 8579SOL     OW26635   5.404   2.299   5.056 -0.1990  0.4444  0.4348
 8579SOL    HW126636   5.467   2.366   5.096  1.0386 -0.3096 -0.1635
 8579SOL    HW226637   5.367   2.241   5.129  0.8703  0.0349  0.6705
 8580SOL     OW26638   4.175   4.009   6.038  0.3209 -0.0479 -0.1490
 8580SOL    HW126639   4.209   4.064   6.114 -0.3096  1.9807 -1.2428
 8580SOL    HW226640   4.251   3.967   5.989  0.8512  0.0972  0.5538
 8581SOL     OW26641   1.800   5.307   1.827  0.5408  0.7440 -0.1420
 8581SOL    HW126642   1.789   5.234   1.760  0.0306  0.2352  0.4877
 8581SOL    HW226643   1.881   5.289   1.883 -0.0771  0.1824  0.5925
 8582SOL     OW26644   0.798   1.195   6.752  0.2173 -0.6645 -0.4984
 8582SOL    HW126645   0.737   1.145   6.690  1.0755 -2.5757  0.1234
 8582SOL    HW226646   0.872   1.236   6.699 -2.4884  3.4272 -1.5734
 8583SOL     OW26647   3.820   5.281   5.679  0.1175  0.5668  0.7299
 8583SOL    HW126648   3.869   5.315   5.759 -0.0834  0.7263  0.7860
 8583SOL    HW226649   3.724   5.309   5.684 -0.4073 -1.2055  1.5109
 8584SOL     OW26650   4.214   1.377   3.702 -0.0624  1.0460 -0.1951
 8584SOL    HW126651   4.213   1.468   3.742  0.0239  0.9639 -0.0038
 8584SOL    HW226652   4.308   1.347   3.688 -0.0825  0.8182  0.1327
 8585SOL     OW26653   1.416   4.004   6.338 -0.5989  0.3128 -0.0111
 8585SOL    HW126654   1.377   4.084   6.294  1.1847  2.2783  1.7009
 8585SOL    HW226655   1.393   4.005   6.436  0.6206 -0.4551  0.3164
 8586SOL     OW26656   4.927   2.417   1.396  0.0556  0.6793 -0.2005
 8586SOL    HW126657   4.966   2.361   1.469 -0.0064  0.4859 -0.3165
 8586SOL    HW226658   4.831   2.393   1.382  0.3778 -0.1354 -1.1566
 8587SOL     OW26659   2.471   1.243   6.170 -0.6367  0.0403  0.3401
 8587SOL    HW126660   2.454   1.229   6.072 -1.9779 -0.0983  0.5717
 8587SOL    HW226661   2.434   1.332   6.197  1.0898  0.7570  0.4212
 8588SOL     OW26662   5.892   6.779   3.963 -0.2553  0.5484 -0.1180
 8588SOL    HW126663   5.932   6.697   3.922  1.3263 -0.4374  3.0221
 8588SOL    HW226664   5.815   6.811   3.908  1.0084 -1.2028 -3.0916
 8589SOL     OW26665   1.029   2.364   6.652  0.4764 -0.2993 -0.4079
 8589SOL    HW126666   0.973   2.282   6.640 -1.3772  0.9200 -0.5552
 8589SOL    HW226667   1.101   2.366   6.584 -0.6634 -0.8587 -1.6752
 8590SOL     OW26668   6.993   0.865   5.672 -0.1836 -0.5201  0.6212
 8590SOL    HW126669   6.947   0.954   5.668 -1.9806 -1.4592 -0.9929
 8590SOL    HW226670   7.012   0.833   5.580 -0.7661 -2.4051  1.1173
 8591SOL     OW26671   2.232   4.823   6.174 -0.0447 -0.2728  0.0675
 8591SOL    HW126672   2.145   4.842   6.129 -0.3845 -0.1762  0.7681
 8591SOL    HW226673   2.288   4.765   6.113 -0.4341 -0.0216 -0.5420
 8592SOL     OW26674   2.208   1.176   6.349 -0.3006 -0.2679 -0.2057
 8592SOL    HW126675   2.122   1.222   6.326 -0.6858 -0.5374  0.6488
 8592SOL    HW226676   2.244   1.130   6.268 -0.9614 -0.1565 -0.5685
 8593SOL     OW26677   1.928   4.521   3.428  0.3700  0.0705 -0.2782
 8593SOL    HW126678   1.990   4.517   3.506 -2.4789 -2.7586  2.1177
 8593SOL    HW226679   1.958   4.454   3.359  0.9086 -0.0104  0.0273
 8594SOL     OW26680   4.992   4.488   0.730 -0.5095 -0.3059 -0.3505
 8594SOL    HW126681   4.960   4.554   0.661 -0.0118  1.3866  0.9712
 8594SOL    HW226682   4.914   4.459   0.786 -0.9201 -1.7035 -1.5781
 8595SOL     OW26683   5.737   6.672   4.760 -0.3033  0.3691 -0.3482
 8595SOL    HW126684   5.807   6.649   4.692  0.8857  0.7013  0.7333
 8595SOL    HW226685   5.738   6.604   4.833 -0.5705  0.8212  0.0759
 8596SOL     OW26686   5.586   3.371   0.424 -0.5068 -0.5403  0.1940
 8596SOL    HW126687   5.496   3.333   0.404 -0.3562 -0.2215 -1.2201
 8596SOL    HW226688   5.656   3.300   0.414 -0.5183 -0.6038  0.5421
 8597SOL     OW26689   1.341   1.739   0.868  0.1904  0.2446 -0.6656
 8597SOL    HW126690   1.289   1.818   0.900  0.3525  0.5952 -1.2570
 8597SOL    HW226691   1.425   1.731   0.921  0.0641  0.3338 -0.4504
 8598SOL     OW26692   3.293   5.922   0.473 -0.4679 -0.4757  0.0091
 8598SOL    HW126693   3.375   5.944   0.420 -1.0315  0.1272 -0.6345
 8598SOL    HW226694   3.212   5.945   0.420 -1.0701 -1.5210  0.4443
 8599SOL     OW26695   6.902   5.663   3.258  0.2256 -0.3809  0.3282
 8599SOL    HW126696   6.978   5.605   3.288  1.8396  0.3963 -1.9195
 8599SOL    HW226697   6.844   5.612   3.195  0.4134 -0.1944  0.0023
 8600SOL     OW26698   6.637   0.003   3.251 -0.4647 -0.4566  0.0046
 8600SOL    HW126699   6.688   0.057   3.318  1.6874 -1.5528 -0.6487
 8600SOL    HW226700   6.602   0.062   3.179  0.0602  0.3221  0.3774
 8601SOL     OW26701   4.437   0.511   2.987  0.0568 -0.3622 -0.1702
 8601SOL    HW126702   4.464   0.465   2.902  0.4579 -0.1894 -0.1374
 8601SOL    HW226703   4.515   0.559   3.025  0.5538 -2.4386  1.5906
 8602SOL     OW26704   6.767   5.277   6.981  0.3733 -0.8315 -0.1206
 8602SOL    HW126705   6.833   5.320   7.044 -0.8715  0.4773  0.3351
 8602SOL    HW226706   6.776   5.319   6.891 -0.0909 -0.3872  0.0392
 8603SOL     OW26707   2.355   0.186   6.961  0.0839  0.3151 -0.2558
 8603SOL    HW126708   2.438   0.178   7.016  0.8005  1.5844 -1.1152
 8603SOL    HW226709   2.330   0.096   6.925 -0.0946 -0.4487  1.6521
 8604SOL     OW26710   0.200   2.204   6.945  0.9177  0.4700  0.0220
 8604SOL    HW126711   0.169   2.165   6.858  1.9943 -0.8551  0.1952
 8604SOL    HW226712   0.177   2.141   7.020 -0.6053  1.9043  0.8150
 8605SOL     OW26713   0.426   5.121   4.433 -0.2049 -0.5104  0.1844
 8605SOL    HW126714   0.327   5.126   4.425 -0.3011  0.5140  1.6578
 8605SOL    HW226715   0.465   5.094   4.345 -1.6736  0.5945 -0.8586
 8606SOL     OW26716   0.906   0.151   3.746  0.0139  0.2584 -0.0620
 8606SOL    HW126717   0.937   0.135   3.840 -0.2918 -0.6729 -0.1134
 8606SOL    HW226718   0.811   0.181   3.747 -0.7028 -1.8044 -0.1450
 8607SOL     OW26719   2.184   0.115   5.299 -0.4429  0.2941  0.3202
 8607SOL    HW126720   2.220   0.035   5.348  1.3282  1.4467  1.0257
 8607SOL    HW226721   2.239   0.131   5.217 -1.0553  0.5494 -0.0457
 8608SOL     OW26722   0.056   4.315   1.169 -0.1451 -0.4199  0.0097
 8608SOL    HW126723  -0.024   4.286   1.117 -0.6849  1.9117 -0.5513
 8608SOL    HW226724   0.105   4.234   1.203 -0.9767 -1.9560 -2.2667
 8609SOL     OW26725   0.041   3.683   1.003 -0.0996 -0.3199  0.4023
 8609SOL    HW126726  -0.014   3.602   1.023 -2.9863  1.0817 -1.2520
 8609SOL    HW226727   0.002   3.731   0.925  3.1251  1.2555 -0.3803
 8610SOL     OW26728   2.282   5.198   4.362 -0.2458  0.5437 -0.3640
 8610SOL    HW126729   2.212   5.180   4.431 -0.7769  2.4595 -0.3307
 8610SOL    HW226730   2.238   5.214   4.274  0.4457 -2.2043 -1.2848
 8611SOL     OW26731   2.840   2.083   6.720 -0.1448  0.4532  0.5241
 8611SOL    HW126732   2.815   1.997   6.765 -0.0963  0.9942  1.6234
 8611SOL    HW226733   2.863   2.151   6.789  1.6608  0.8160 -0.3642
 8612SOL     OW26734   6.553   0.237   2.477 -0.4854  0.8107  0.4577
 8612SOL    HW126735   6.542   0.302   2.551 -0.9766  1.8081 -0.4665
 8612SOL    HW226736   6.463   0.206   2.445 -0.2701  0.0382  0.5739
 8613SOL     OW26737   5.745   0.014   6.815  0.2976 -0.4625 -0.6227
 8613SOL    HW126738   5.772   0.052   6.726 -1.9319 -2.1126 -2.1195
 8613SOL    HW226739   5.787  -0.076   6.827  1.4480  0.1975  0.5403
 8614SOL     OW26740   5.173   6.830   5.023  0.3050  0.2441  0.0615
 8614SOL    HW126741   5.135   6.866   4.938 -2.0455  2.1839  1.7800
 8614SOL    HW226742   5.262   6.873   5.040  0.9002 -0.3252 -1.4805
 8615SOL     OW26743   5.301   5.690   4.550  0.1562 -0.4104  0.1480
 8615SOL    HW126744   5.287   5.598   4.513  0.5562 -0.4251  0.0305
 8615SOL    HW226745   5.252   5.756   4.494  3.1432 -0.0645 -2.2924
 8616SOL     OW26746   3.865   6.587   1.676  0.3734 -0.0412 -0.1330
 8616SOL    HW126747   3.765   6.590   1.678  0.3989  1.1829  0.0642
 8616SOL    HW226748   3.898   6.540   1.758 -0.0331  0.3329  0.2552
 8617SOL     OW26749   3.233   6.170   3.077 -0.5139  0.1524 -0.9041
 8617SOL    HW126750   3.286   6.253   3.060 -3.2057  2.4699  0.9878
 8617SOL    HW226751   3.290   6.103   3.125  0.9592  2.1673  0.3323
 8618SOL     OW26752   6.603   4.015   6.332  0.0649  0.0854 -0.2624
 8618SOL    HW126753   6.640   4.017   6.239  1.5290  2.9527  0.2905
 8618SOL    HW226754   6.533   4.085   6.342  0.6528  0.5159  1.0685
 8619SOL     OW26755   6.919   6.627   4.552 -0.0388  0.4338 -0.3153
 8619SOL    HW126756   6.876   6.647   4.464 -2.5872 -0.0106  0.7682
 8619SOL    HW226757   6.998   6.688   4.565  0.4032  0.4989 -2.8679
 8620SOL     OW26758   2.721   4.339   5.899  0.8446 -0.5011  0.0629
 8620SOL    HW126759   2.739   4.413   5.834 -1.0942 -0.2446 -0.2303
 8620SOL    HW226760   2.675   4.264   5.853  0.5290 -0.8245  0.8823
 8621SOL     OW26761   6.259   5.442   3.472 -0.6256  0.4354 -0.0781
 8621SOL    HW126762   6.330   5.376   3.446 -0.7165 -0.3767  1.6180
 8621SOL    HW226763   6.174   5.420   3.425 -0.9038 -1.2589  1.1277
 8622SOL     OW26764   0.730   1.931   5.710 -0.0660  0.3476 -0.5575
 8622SOL    HW126765   0.693   1.924   5.617  0.8444  1.0043 -0.9780
 8622SOL    HW226766   0.806   1.867   5.720  0.3064  0.7977 -0.4987
 8623SOL     OW26767   5.489   5.343   0.641 -0.0380 -0.4355 -0.0226
 8623SOL    HW126768   5.517   5.389   0.725  2.5597 -1.6428 -0.1170
 8623SOL    HW226769   5.404   5.382   0.608  0.4404  2.1324  1.5307
 8624SOL     OW26770   0.360   2.954   6.035  0.3043  0.4063  0.6816
 8624SOL    HW126771   0.326   3.022   5.969  1.0438 -0.1214 -0.2775
 8624SOL    HW226772   0.437   2.993   6.085  0.5004  0.4034  0.3853
 8625SOL     OW26773   0.252   5.141   3.242  0.8199  0.0981  0.6723
 8625SOL    HW126774   0.241   5.066   3.307 -0.0896  1.6079  2.3576
 8625SOL    HW226775   0.243   5.228   3.290 -0.9394  1.3038 -1.6293
 8626SOL     OW26776   5.044   0.644   0.583 -0.3194 -0.0873 -0.1446
 8626SOL    HW126777   5.114   0.606   0.524 -2.5602  0.1018 -3.1463
 8626SOL    HW226778   5.017   0.576   0.651  0.8559 -1.1062 -0.6643
 8627SOL     OW26779   2.855   3.619   6.529  0.2299  0.4891 -0.1216
 8627SOL    HW126780   2.762   3.613   6.493  0.9674  1.5872 -2.4410
 8627SOL    HW226781   2.904   3.534   6.508  0.7135  1.1890 -2.1081
 8628SOL     OW26782   0.147   2.602   1.254 -0.2261  0.1475 -0.1444
 8628SOL    HW126783   0.075   2.671   1.265  1.2817  2.2717 -2.6749
 8628SOL    HW226784   0.236   2.643   1.274  0.5452 -1.7693  0.5828
 8629SOL     OW26785   4.736   0.474   2.461  0.8218 -0.2097 -0.6186
 8629SOL    HW126786   4.727   0.540   2.535 -0.8576  1.6161 -2.3583
 8629SOL    HW226787   4.774   0.519   2.381 -0.1123 -1.4213 -1.7788
 8630SOL     OW26788   1.607   2.930   2.728  0.4742 -0.5929  0.0223
 8630SOL    HW126789   1.681   2.984   2.767  0.6603 -0.0467 -1.0378
 8630SOL    HW226790   1.585   2.965   2.637 -0.1971 -1.5855 -0.2152
 8631SOL     OW26791   6.874   6.675   0.545 -0.3872  0.5746  0.3473
 8631SOL    HW126792   6.886   6.774   0.553  0.5923  0.4844  0.1283
 8631SOL    HW226793   6.779   6.651   0.561 -0.7730  1.6349 -0.3033
 8632SOL     OW26794   0.290   2.597   4.833  0.2984 -0.0652  0.5547
 8632SOL    HW126795   0.206   2.646   4.811  0.7650  0.1797 -0.7545
 8632SOL    HW226796   0.294   2.580   4.932 -1.2258 -0.0001  0.6439
 8633SOL     OW26797   4.752   4.308   2.396  0.3793  0.1718  0.3075
 8633SOL    HW126798   4.750   4.286   2.494  0.3012 -1.0545  0.0487
 8633SOL    HW226799   4.773   4.225   2.344 -1.1375  0.4502 -0.8192
 8634SOL     OW26800   6.255   2.534   3.793  0.0395  0.5454  0.2926
 8634SOL    HW126801   6.193   2.493   3.727  0.8675  1.4041 -1.0533
 8634SOL    HW226802   6.346   2.493   3.784 -0.1927 -0.4298  1.9818
 8635SOL     OW26803   1.101   1.960   6.316 -0.4652 -0.7806  0.6915
 8635SOL    HW126804   1.132   1.869   6.343 -1.8682 -1.0917  1.3019
 8635SOL    HW226805   1.145   2.029   6.374 -1.2707 -1.2516  1.8954
 8636SOL     OW26806   4.679   2.734   1.949 -0.3841 -0.5278 -0.1021
 8636SOL    HW126807   4.740   2.698   1.878  0.1887 -0.8326  0.5246
 8636SOL    HW226808   4.665   2.832   1.934  0.3798 -0.4212 -0.1876
 8637SOL     OW26809   2.279   2.380   3.981 -0.1671 -0.1879 -0.6318
 8637SOL    HW126810   2.307   2.359   4.074 -2.5618 -1.3226 -0.0867
 8637SOL    HW226811   2.333   2.456   3.946  1.2301 -0.1639  1.4162
 8638SOL     OW26812   5.483   6.645   3.757  0.5048  0.5053  0.0374
 8638SOL    HW126813   5.432   6.629   3.842 -0.0639  1.3706 -0.1313
 8638SOL    HW226814   5.420   6.641   3.679  1.0200 -0.2473 -0.3494
 8639SOL     OW26815   1.381   1.481   5.753  0.1393  0.6072 -0.5269
 8639SOL    HW126816   1.416   1.391   5.730  0.7858  1.0214 -1.1850
 8639SOL    HW226817   1.351   1.528   5.670  0.3958  1.2407 -0.2715
 8640SOL     OW26818   4.933   2.166   5.766 -0.8605 -0.4264 -0.7132
 8640SOL    HW126819   4.872   2.187   5.689  0.1777  0.1367 -1.4079
 8640SOL    HW226820   5.015   2.121   5.732  0.8739  2.2454 -0.3457
 8641SOL     OW26821   6.014   5.391   5.357  0.4424  0.7730 -0.7124
 8641SOL    HW126822   5.915   5.382   5.348  0.6457 -0.9317 -1.6015
 8641SOL    HW226823   6.046   5.334   5.433  0.7818  1.0975 -0.6061
 8642SOL     OW26824   4.199   4.726   6.405 -0.1927  0.6073  0.5320
 8642SOL    HW126825   4.120   4.674   6.372  0.2156 -0.6914  1.4903
 8642SOL    HW226826   4.186   4.749   6.501  0.0731  1.4658  0.3730
 8643SOL     OW26827   0.673   5.736   2.371  0.0296  0.3804  0.3412
 8643SOL    HW126828   0.636   5.690   2.452  1.7983  0.4501  1.2312
 8643SOL    HW226829   0.710   5.668   2.308 -0.5965  0.3795 -0.0323
 8644SOL     OW26830   3.492   0.049   1.574 -0.2303  0.3014 -0.0876
 8644SOL    HW126831   3.441   0.126   1.536 -0.2153  0.2685 -0.1755
 8644SOL    HW226832   3.589   0.057   1.549 -0.1194  0.5845  0.4324
 8645SOL     OW26833   4.502   5.174   0.413  0.0291  0.0314 -0.2179
 8645SOL    HW126834   4.591   5.132   0.397  0.5864  0.4950  1.4401
 8645SOL    HW226835   4.443   5.110   0.463 -0.2634  0.0674 -0.5071
 8646SOL     OW26836   6.779   4.815   4.718 -0.3313 -0.0280 -0.0106
 8646SOL    HW126837   6.795   4.912   4.702 -0.9231  0.2678  1.0972
 8646SOL    HW226838   6.738   4.774   4.636  0.7173  0.4554 -0.7867
 8647SOL     OW26839   0.790   1.612   4.672 -0.1293 -0.0059  0.4300
 8647SOL    HW126840   0.736   1.688   4.709  0.4784  2.0424 -2.5375
 8647SOL    HW226841   0.887   1.631   4.686  0.1450  1.0058 -2.2097
 8648SOL     OW26842   2.029   0.159   5.962  0.1943 -0.4025  0.0377
 8648SOL    HW126843   1.959   0.212   6.010 -0.6310 -1.8061  0.4415
 8648SOL    HW226844   2.086   0.111   6.029  1.0698  0.1071 -0.3162
 8649SOL     OW26845   5.225   6.402   4.965  0.2401  0.5864  0.0214
 8649SOL    HW126846   5.304   6.461   4.945 -0.6277  1.7911  0.0609
 8649SOL    HW226847   5.197   6.415   5.060  1.3947 -1.5733  0.7124
 8650SOL     OW26848   4.006   3.538   6.987 -0.2398  0.2296 -0.6817
 8650SOL    HW126849   4.098   3.534   7.026 -0.4846  0.5576 -0.0400
 8650SOL    HW226850   3.971   3.446   6.973 -0.4098  0.0766  0.5735
 8651SOL     OW26851   5.688   2.041   1.518 -0.5820 -0.2357 -0.2094
 8651SOL    HW126852   5.717   2.096   1.439  1.1280 -0.1309  0.4522
 8651SOL    HW226853   5.704   2.092   1.602  0.9645 -1.6847  0.4181
 8652SOL     OW26854   6.237   4.468   6.344 -0.4727 -0.1765 -0.0038
 8652SOL    HW126855   6.165   4.515   6.294 -0.6768  0.2546  0.6892
 8652SOL    HW226856   6.321   4.522   6.340 -1.0357  0.9533  1.8730
 8653SOL     OW26857   6.596   2.048   3.028 -0.4362 -0.1506  0.4663
 8653SOL    HW126858   6.688   2.085   3.013 -0.4171 -0.0476  0.8273
 8653SOL    HW226859   6.545   2.050   2.942  0.0409 -0.6081  0.1593
 8654SOL     OW26860   4.619   4.521   1.521 -0.1259  0.4389  0.3195
 8654SOL    HW126861   4.605   4.572   1.606  1.2448  0.7236  0.4104
 8654SOL    HW226862   4.572   4.433   1.526 -1.2551  1.0464  0.7850
 8655SOL     OW26863   1.570   2.073   0.694 -0.4006  0.0178  0.6385
 8655SOL    HW126864   1.575   2.168   0.725 -1.2024  0.0491  0.6945
 8655SOL    HW226865   1.661   2.031   0.700  0.4181  1.3517 -1.1921
 8656SOL     OW26866   4.776   4.444   6.824 -0.2413 -0.5049  0.3524
 8656SOL    HW126867   4.862   4.428   6.776 -0.2608 -0.2214  0.2170
 8656SOL    HW226868   4.777   4.536   6.865 -0.1765 -0.7875  0.9986
 8657SOL     OW26869   3.438   2.920   1.886  0.1421 -0.3087  0.1051
 8657SOL    HW126870   3.441   2.979   1.805  1.2868 -0.9249 -0.3201
 8657SOL    HW226871   3.366   2.851   1.874 -0.6710  0.4856  0.2649
 8658SOL     OW26872   0.402   1.251   3.219 -0.0430 -0.2656 -0.2660
 8658SOL    HW126873   0.332   1.185   3.189 -1.4520  0.9431  0.2175
 8658SOL    HW226874   0.401   1.256   3.319  0.6063 -0.0695 -0.2650
 8659SOL     OW26875   2.803   5.277   3.716  0.4482 -0.3792  0.4736
 8659SOL    HW126876   2.862   5.313   3.643  0.4590 -1.4899 -0.0955
 8659SOL    HW226877   2.725   5.338   3.729  1.1659  0.5639  0.5148
 8660SOL     OW26878   0.159   0.186   3.904  0.0013  0.1255  0.4675
 8660SOL    HW126879   0.247   0.144   3.880 -0.8740 -2.4472  1.4362
 8660SOL    HW226880   0.088   0.152   3.843 -0.7810  0.0974  1.3763
 8661SOL     OW26881   6.323   4.029   1.568  0.4631  0.0219 -0.1490
 8661SOL    HW126882   6.306   4.070   1.657  1.0705  1.4823 -0.6600
 8661SOL    HW226883   6.342   4.102   1.501  0.8949 -1.0789 -1.2707
 8662SOL     OW26884   5.609   0.882   5.536 -0.5210 -0.0817 -0.2543
 8662SOL    HW126885   5.551   0.818   5.485 -0.4822  2.7972 -4.3418
 8662SOL    HW226886   5.705   0.866   5.512 -0.3905  0.5986 -0.1937
 8663SOL     OW26887   5.202   5.759   6.700 -0.5214 -0.2307 -0.6107
 8663SOL    HW126888   5.191   5.805   6.612  0.9669 -1.2374 -1.3490
 8663SOL    HW226889   5.187   5.661   6.688 -2.8532 -0.1226  0.7908
 8664SOL     OW26890   6.865   2.423   0.059 -0.2099 -0.6278 -0.2788
 8664SOL    HW126891   6.918   2.433   0.143  2.8761 -0.3360 -2.1145
 8664SOL    HW226892   6.817   2.509   0.040 -0.2691 -0.4270  0.7155
 8665SOL     OW26893   2.407   1.521   1.222  0.0044 -0.2658  0.3929
 8665SOL    HW126894   2.448   1.611   1.238  0.0942 -0.1167 -0.6040
 8665SOL    HW226895   2.388   1.477   1.310 -0.3406  0.8525  0.8947
 8666SOL     OW26896   5.622   1.007   2.028  0.2186 -0.3465 -0.1493
 8666SOL    HW126897   5.567   1.088   2.045 -1.7312 -1.7207  0.4740
 8666SOL    HW226898   5.682   0.990   2.106 -0.4579 -0.3212  0.3835
 8667SOL     OW26899   5.814   0.158   2.598 -0.0767 -0.1994  0.3216
 8667SOL    HW126900   5.855   0.067   2.597 -1.2125 -0.7200 -0.8191
 8667SOL    HW226901   5.725   0.154   2.644 -0.6521  0.0862 -0.7552
 8668SOL     OW26902   3.852   3.117   6.498 -0.2176 -0.2375 -0.1139
 8668SOL    HW126903   3.884   3.208   6.475  1.1675 -0.4058  1.0327
 8668SOL    HW226904   3.775   3.093   6.438  0.7852  0.7988 -1.9084
 8669SOL     OW26905   6.869   1.775   0.739  0.1772 -0.1550 -0.3391
 8669SOL    HW126906   6.875   1.790   0.640 -0.0853 -1.5899 -0.5908
 8669SOL    HW226907   6.885   1.862   0.787 -2.2336  1.1399 -1.6919
 8670SOL     OW26908   6.511   1.166   3.136 -0.2189  0.4909  0.0714
 8670SOL    HW126909   6.421   1.127   3.157 -1.0724  2.8421  1.1078
 8670SOL    HW226910   6.529   1.158   3.038 -0.5375 -1.9657  0.1469
 8671SOL     OW26911   7.004   2.755   0.322 -0.1094  0.5242  0.1932
 8671SOL    HW126912   7.084   2.808   0.291  0.5141 -0.9475 -0.8445
 8671SOL    HW226913   7.001   2.668   0.273 -1.8964  0.1779  0.8385
 8672SOL     OW26914   1.181   1.119   1.014 -0.1571  0.2892 -0.1707
 8672SOL    HW126915   1.278   1.120   0.992  0.0466  1.9279  0.5818
 8672SOL    HW226916   1.129   1.081   0.938  1.0127 -0.0028 -0.8414
 8673SOL     OW26917   0.457   4.499   3.385  0.3029 -0.1630  0.7727
 8673SOL    HW126918   0.444   4.506   3.287 -0.4011  1.7111  0.9525
 8673SOL    HW226919   0.384   4.443   3.424  0.0077 -0.0894  0.3330
 8674SOL     OW26920   5.391   1.589   6.817  0.3421  0.0050  0.3816
 8674SOL    HW126921   5.462   1.526   6.847  0.3014 -0.1456  0.1638
 8674SOL    HW226922   5.378   1.581   6.718 -0.8466 -0.8847  0.5846
 8675SOL     OW26923   3.290   4.924   5.048 -0.1586 -0.2514  0.1111
 8675SOL    HW126924   3.383   4.934   5.084  0.0374  2.9276 -0.9880
 8675SOL    HW226925   3.242   5.011   5.055 -2.9010 -1.6496  0.0717
 8676SOL     OW26926   5.190   6.292   6.087 -0.3248 -0.3660 -0.2303
 8676SOL    HW126927   5.228   6.380   6.061  0.3587 -0.1648  1.3097
 8676SOL    HW226928   5.164   6.294   6.184  0.4472 -2.0908  0.0608
 8677SOL     OW26929   5.184   5.693   3.929  0.5283  1.0227 -0.1928
 8677SOL    HW126930   5.143   5.727   3.844 -1.2562 -2.1045 -0.7584
 8677SOL    HW226931   5.276   5.659   3.911  0.5329  1.2698 -0.6427
 8678SOL     OW26932   2.446   1.682   1.855  0.1151  0.1175  0.3625
 8678SOL    HW126933   2.460   1.729   1.768  0.1307  0.0111  0.3065
 8678SOL    HW226934   2.374   1.614   1.845 -0.8439  1.0394  0.7975
 8679SOL     OW26935   1.197   5.360   5.641  0.3867  0.1244 -0.4881
 8679SOL    HW126936   1.198   5.401   5.732  1.3611 -1.9578  0.5135
 8679SOL    HW226937   1.288   5.367   5.600 -0.0560  1.0890 -1.3550
 8680SOL     OW26938   3.350   2.069   3.395  0.1024  0.1373 -0.4111
 8680SOL    HW126939   3.384   2.066   3.489  0.4278 -1.0979 -0.5563
 8680SOL    HW226940   3.428   2.072   3.333 -0.0531 -1.3725 -0.7070
 8681SOL     OW26941   5.734   2.576   6.769  0.0607  0.9974 -0.0417
 8681SOL    HW126942   5.811   2.637   6.788  1.2097  0.0762 -1.4661
 8681SOL    HW226943   5.745   2.491   6.819  0.7175  0.3386 -1.2521
 8682SOL     OW26944   6.036   2.327   3.309 -0.0129  0.0357 -0.3237
 8682SOL    HW126945   6.108   2.285   3.254 -0.4863 -0.4397 -0.5968
 8682SOL    HW226946   5.987   2.394   3.254  0.7255  0.9474  0.1049
 8683SOL     OW26947   0.482   0.386   0.829 -0.3872 -0.6514 -0.1403
 8683SOL    HW126948   0.508   0.318   0.761 -1.1080 -1.7837  0.6803
 8683SOL    HW226949   0.528   0.473   0.809 -0.2043 -1.0918 -1.7611
 8684SOL     OW26950   1.264   6.546   4.154 -0.6110 -0.2481 -0.2815
 8684SOL    HW126951   1.338   6.487   4.188 -1.8427 -0.9956  1.1896
 8684SOL    HW226952   1.292   6.586   4.066  0.7568 -2.0651 -0.7447
 8685SOL     OW26953   1.812   3.616   0.772 -0.0973  0.0113  0.2730
 8685SOL    HW126954   1.795   3.693   0.833 -0.2892 -0.5040  0.8869
 8685SOL    HW226955   1.885   3.559   0.809 -0.9694 -0.9106  0.6085
 8686SOL     OW26956   0.445   2.765   3.359  0.4492 -0.1273 -0.2219
 8686SOL    HW126957   0.459   2.862   3.378  2.9411 -0.0100 -2.1080
 8686SOL    HW226958   0.534   2.719   3.353 -0.6723 -2.7740  1.5297
 8687SOL     OW26959   0.267   6.673   1.891  0.3513 -0.0362  0.2775
 8687SOL    HW126960   0.318   6.652   1.975 -0.6152 -0.9041  0.6534
 8687SOL    HW226961   0.260   6.773   1.882 -0.1457  0.0706  1.6091
 8688SOL     OW26962   0.682   2.134   0.176 -0.1871  0.6025 -0.3194
 8688SOL    HW126963   0.583   2.131   0.191  0.0664  1.5471  1.7846
 8688SOL    HW226964   0.727   2.068   0.237  0.5584  0.8618 -0.5760
 8689SOL     OW26965   0.812   6.461   0.589  0.3583  0.4511 -0.1942
 8689SOL    HW126966   0.806   6.407   0.505 -1.1839 -1.7397  1.2074
 8689SOL    HW226967   0.742   6.532   0.588  0.5222  0.6095 -0.8504
 8690SOL     OW26968   2.487   1.614   2.704  0.0033 -0.0610 -0.0677
 8690SOL    HW126969   2.534   1.537   2.748  1.8353  2.1905  2.2381
 8690SOL    HW226970   2.508   1.615   2.607  0.2482 -2.2181 -0.0726
 8691SOL     OW26971   2.117   2.335   2.808  0.0712  0.1790 -0.0274
 8691SOL    HW126972   2.155   2.254   2.854 -1.0894 -0.7253 -0.6039
 8691SOL    HW226973   2.150   2.418   2.854 -0.7718 -0.6690  2.2747
 8692SOL     OW26974   1.590   1.388   3.357 -0.5418  0.0939  0.6658
 8692SOL    HW126975   1.544   1.421   3.439 -2.1836 -0.2524 -0.0665
 8692SOL    HW226976   1.521   1.365   3.288  0.7878  0.2206 -0.7500
 8693SOL     OW26977   5.479   5.330   1.350  0.2445 -0.0617 -0.0607
 8693SOL    HW126978   5.422   5.341   1.269  0.1606  1.4882  0.1736
 8693SOL    HW226979   5.429   5.276   1.418  0.4039 -1.5698 -1.0808
 8694SOL     OW26980   6.486   4.157   0.825  0.1263 -0.6814 -0.0803
 8694SOL    HW126981   6.467   4.246   0.785 -3.2165  0.6772  3.8292
 8694SOL    HW226982   6.584   4.138   0.820  0.7987  2.5579 -2.1908
 8695SOL     OW26983   6.096   4.255   1.759 -0.5809 -0.5097  0.1152
 8695SOL    HW126984   6.071   4.283   1.667  0.8484 -2.5710 -0.9513
 8695SOL    HW226985   6.091   4.156   1.767  1.1812 -0.5238  1.6714
 8696SOL     OW26986   2.117   2.669   1.719 -0.2715 -0.2004 -0.1379
 8696SOL    HW126987   2.174   2.588   1.734 -0.1982 -0.5475 -2.0129
 8696SOL    HW226988   2.169   2.751   1.742  1.3124 -0.4684 -2.4398
 8697SOL     OW26989   3.580   4.643   6.710 -0.3254  0.0152  0.2542
 8697SOL    HW126990   3.482   4.638   6.691  0.1428 -0.4346 -2.4889
 8697SOL    HW226991   3.611   4.555   6.747 -0.6754 -0.4450 -0.5167
 8698SOL     OW26992   3.176   5.164   5.104 -0.4078  0.3827 -0.0867
 8698SOL    HW126993   3.129   5.220   5.035  0.8806  3.0403  1.0589
 8698SOL    HW226994   3.110   5.135   5.173 -0.9215  1.4406 -0.1172
 8699SOL     OW26995   1.843   0.757   2.731 -0.2682  0.3882 -0.0316
 8699SOL    HW126996   1.824   0.845   2.773 -2.6321 -0.3159  0.5199
 8699SOL    HW226997   1.872   0.692   2.801 -0.4277  0.2120 -0.1300
 8700SOL     OW26998   2.830   0.016   5.190 -0.0968 -0.8838  0.0887
 8700SOL    HW126999   2.907  -0.040   5.218  1.5183  1.2122  0.1087
 8700SOL    HW227000   2.862   0.109   5.171 -2.7542  0.2969  0.9195
 8701SOL     OW27001   2.803   3.476   1.531  0.4013  0.1142  0.1550
 8701SOL    HW127002   2.856   3.393   1.547 -0.2936  0.0680  2.7897
 8701SOL    HW227003   2.757   3.503   1.616  0.7467  3.3032 -0.5129
 8702SOL     OW27004   4.964   0.310   5.239  0.0449 -0.3796  0.5281
 8702SOL    HW127005   4.876   0.321   5.286  0.2539 -2.2269  1.4158
 8702SOL    HW227006   5.033   0.365   5.287 -0.6171  1.2749 -0.3141
 8703SOL     OW27007   0.581   6.564   6.876  0.1507  0.0890 -0.2196
 8703SOL    HW127008   0.677   6.590   6.864 -0.0219  1.6083  1.3481
 8703SOL    HW227009   0.568   6.526   6.968 -0.9888  1.2095  0.1054
 8704SOL     OW27010   5.283   4.190   3.196 -0.4761 -0.5429 -0.2191
 8704SOL    HW127011   5.354   4.217   3.261 -1.1782  1.3584 -0.1870
 8704SOL    HW227012   5.214   4.134   3.242  0.8711 -2.2829 -0.2169
 8705SOL     OW27013   2.057   6.620   4.887 -0.9228 -0.7233  0.2216
 8705SOL    HW127014   2.136   6.564   4.912 -0.9715 -1.2040 -0.6320
 8705SOL    HW227015   2.007   6.646   4.969  0.6223  0.3539  0.8592
 8706SOL     OW27016   3.430   3.747   4.314  0.3409  0.2892 -0.5940
 8706SOL    HW127017   3.435   3.655   4.353 -0.7309  0.3108 -0.3556
 8706SOL    HW227018   3.351   3.795   4.353  0.3878  1.0094 -1.3508
 8707SOL     OW27019   5.661   3.096   1.007 -0.2155 -0.1911  0.5457
 8707SOL    HW127020   5.680   3.011   0.957 -1.8646 -0.5770  0.4966
 8707SOL    HW227021   5.715   3.170   0.969 -2.1049 -0.2249 -2.5960
 8708SOL     OW27022   1.462   4.437   2.917 -0.2802  0.6436  0.2748
 8708SOL    HW127023   1.414   4.375   2.980 -0.1613  0.5237  0.2475
 8708SOL    HW227024   1.560   4.431   2.932 -0.1505 -0.4159 -0.8419
 8709SOL     OW27025   3.547   1.204   1.858  0.2528  0.6338  0.1564
 8709SOL    HW127026   3.637   1.167   1.881  0.6811  1.7293  0.2825
 8709SOL    HW227027   3.476   1.145   1.897  0.9050 -0.2900 -0.0289
 8710SOL     OW27028   5.543   6.694   5.051 -0.4142 -0.2214 -0.4014
 8710SOL    HW127029   5.479   6.771   5.060 -0.0018  0.0881 -0.0650
 8710SOL    HW227030   5.637   6.729   5.049 -0.0682 -0.8466  2.1317
 8711SOL     OW27031   4.296   3.344   1.366 -0.1613 -0.1876 -0.3376
 8711SOL    HW127032   4.257   3.285   1.437 -2.2284  1.2454 -0.1965
 8711SOL    HW227033   4.300   3.438   1.399 -2.4496  0.7735 -2.5099
 8712SOL     OW27034   4.718   4.485   5.769 -0.1988 -0.1668 -0.3530
 8712SOL    HW127035   4.737   4.466   5.673 -1.5263  0.7039 -0.8144
 8712SOL    HW227036   4.660   4.566   5.776  0.6207  0.3244  1.2365
 8713SOL     OW27037   2.454   5.810   1.367 -0.0448 -0.0132  0.0305
 8713SOL    HW127038   2.520   5.850   1.431  0.3807 -1.0987  0.2978
 8713SOL    HW227039   2.399   5.742   1.414  0.5607 -1.1319 -0.8330
 8714SOL     OW27040   6.188   6.449   0.954  0.0999  0.6289  0.5447
 8714SOL    HW127041   6.245   6.368   0.963  0.7867  0.6976 -2.2764
 8714SOL    HW227042   6.093   6.426   0.978  0.0955 -1.3063 -1.1494
 8715SOL     OW27043   4.837   6.759   1.330  0.3593  0.7775 -0.4863
 8715SOL    HW127044   4.849   6.838   1.390 -0.4347 -0.1256  0.9453
 8715SOL    HW227045   4.740   6.731   1.331  1.0558 -2.0293  1.5714
 8716SOL     OW27046   6.473   6.418   6.881  0.1031  0.1420  0.0594
 8716SOL    HW127047   6.449   6.506   6.840  1.9464 -0.4191 -2.5145
 8716SOL    HW227048   6.423   6.406   6.967 -0.5050  3.4742  0.3062
 8717SOL     OW27049   5.938   0.779   0.510  0.3762 -0.6619 -0.4159
 8717SOL    HW127050   5.861   0.732   0.552 -0.5458 -0.0448 -1.3668
 8717SOL    HW227051   5.907   0.865   0.470  1.7927  0.1770  0.2218
 8718SOL     OW27052   5.464   1.655   5.180 -0.0521  0.2368  0.1065
 8718SOL    HW127053   5.505   1.735   5.135  0.4524  0.1732  0.4443
 8718SOL    HW227054   5.389   1.620   5.124  0.9756 -0.2320 -1.0071
 8719SOL     OW27055   4.678   4.910   5.901 -0.3080  0.4773  0.1271
 8719SOL    HW127056   4.701   5.002   5.868 -1.3476  0.4215 -0.7868
 8719SOL    HW227057   4.595   4.915   5.956  1.2078  0.5134  2.5457
 8720SOL     OW27058   2.325   0.231   6.549 -0.4515 -0.1089  0.6020
 8720SOL    HW127059   2.228   0.221   6.530 -0.1100 -1.4531 -0.6503
 8720SOL    HW227060   2.360   0.145   6.588  0.7337 -0.6535 -1.4865
 8721SOL     OW27061   3.618   2.006   4.807  0.1847  0.1006  0.0393
 8721SOL    HW127062   3.666   1.920   4.790 -1.7338 -0.5837 -2.4715
 8721SOL    HW227063   3.670   2.082   4.768  0.4003 -0.3208 -0.5017
 8722SOL     OW27064   6.833   2.395   6.624  0.2052 -0.2638  0.1799
 8722SOL    HW127065   6.881   2.423   6.541  1.4543 -1.6518  0.3892
 8722SOL    HW227066   6.892   2.411   6.703  1.1767 -3.6280  0.2888
 8723SOL     OW27067   0.114   6.164   6.860  0.3238 -0.1188 -0.2385
 8723SOL    HW127068   0.170   6.188   6.939 -1.0285 -0.9570  1.0327
 8723SOL    HW227069   0.063   6.244   6.828  0.0941 -0.0076  0.4080
 8724SOL     OW27070   1.273   6.486   2.721 -0.5220 -0.3412 -0.4697
 8724SOL    HW127071   1.252   6.404   2.774 -2.6260  0.4466  0.0123
 8724SOL    HW227072   1.370   6.509   2.733 -0.7432 -0.5522  2.5660
 8725SOL     OW27073   1.159   5.710   3.872 -0.2878 -0.1117 -0.3200
 8725SOL    HW127074   1.225   5.636   3.881 -0.1316  0.1157  0.5457
 8725SOL    HW227075   1.143   5.729   3.775  0.8658 -0.2180 -0.5513
 8726SOL     OW27076   6.960   6.844   3.956  0.0406  0.1839 -0.2076
 8726SOL    HW127077   7.040   6.866   4.011 -0.1367  1.8465 -0.5676
 8726SOL    HW227078   6.881   6.895   3.991 -0.7752 -1.1144 -0.1113
 8727SOL     OW27079   5.402   0.812   2.907 -0.4049 -0.1693  0.6738
 8727SOL    HW127080   5.326   0.775   2.853 -0.6898  1.1061  0.1517
 8727SOL    HW227081   5.441   0.890   2.858 -0.6489  1.0031  2.2845
 8728SOL     OW27082   4.830   5.230   2.457 -0.7069  0.7764 -0.3432
 8728SOL    HW127083   4.734   5.242   2.432 -0.7729  0.5232 -0.2224
 8728SOL    HW227084   4.841   5.141   2.503 -0.1030 -0.0194 -1.9648
 8729SOL     OW27085   5.890   2.238   4.908  0.3004 -0.0048  0.0083
 8729SOL    HW127086   5.973   2.257   4.960  0.1655 -1.1543  0.6769
 8729SOL    HW227087   5.913   2.226   4.812  0.7680  0.6357  0.0339
 8730SOL     OW27088   1.989   0.003   2.188  0.0993  1.0479  0.0770
 8730SOL    HW127089   2.075   0.054   2.180 -0.3284  1.6313 -0.9704
 8730SOL    HW227090   1.940   0.007   2.101 -0.0648 -0.9754  0.0287
 8731SOL     OW27091   0.173   1.809   2.566  0.1563  0.3390  0.1091
 8731SOL    HW127092   0.169   1.709   2.566  0.8395  0.3057  0.1203
 8731SOL    HW227093   0.084   1.846   2.540  0.4048 -0.3044 -1.8256
 8732SOL     OW27094   3.636   1.595   4.343  0.3537 -0.1634  0.4758
 8732SOL    HW127095   3.539   1.617   4.359  0.0653 -0.9367 -0.1285
 8732SOL    HW227096   3.642   1.519   4.278  1.2754 -2.0511  2.6572
 8733SOL     OW27097   5.929   3.982   5.290  0.1166 -0.0375  0.1522
 8733SOL    HW127098   5.853   4.046   5.301  0.3193  0.3876 -0.8469
 8733SOL    HW227099   5.938   3.956   5.194 -0.1877 -1.8677  0.5921
 8734SOL     OW27100   1.827   0.202   1.724  0.5768  0.1691  0.1548
 8734SOL    HW127101   1.861   0.228   1.814 -0.5369  0.8381  0.3975
 8734SOL    HW227102   1.794   0.108   1.727  1.3751 -0.1169  0.1979
 8735SOL     OW27103   3.808   1.528   6.059 -0.3474 -0.0434 -0.1341
 8735SOL    HW127104   3.755   1.549   6.141  1.2501  0.7765  0.7462
 8735SOL    HW227105   3.758   1.560   5.978 -0.5017  2.2485  0.7834
 8736SOL     OW27106   0.887   2.909   3.969  0.1431  0.3355 -0.2826
 8736SOL    HW127107   0.825   2.896   4.047  1.1877 -0.9758  0.3604
 8736SOL    HW227108   0.877   3.002   3.934 -1.2464  0.5576  0.6213
 8737SOL     OW27109   1.990   5.148   2.868  0.3482  0.3204  0.0430
 8737SOL    HW127110   2.013   5.216   2.799  0.9017  0.4017  0.3049
 8737SOL    HW227111   1.895   5.160   2.896 -0.7872 -1.3767 -2.6256
 8738SOL     OW27112   1.829   3.023   0.492 -0.0202  0.3730  0.1975
 8738SOL    HW127113   1.794   3.082   0.565 -1.5718 -0.7798  0.4221
 8738SOL    HW227114   1.779   3.043   0.407 -1.0110 -1.0241  0.4268
 8739SOL     OW27115   3.623   4.972   2.188 -0.2721 -0.0818 -0.4984
 8739SOL    HW127116   3.616   4.904   2.116 -2.0816  0.5188 -0.9445
 8739SOL    HW227117   3.646   5.061   2.148  0.0249 -0.0021 -0.1610
 8740SOL     OW27118   6.712   6.635   0.974 -0.0399 -0.0933  0.2890
 8740SOL    HW127119   6.657   6.603   1.051  1.0636  0.4918  1.3308
 8740SOL    HW227120   6.695   6.575   0.895  0.0706 -1.7296  1.4507
 8741SOL     OW27121   1.371   0.524   6.781 -0.0568  0.2542 -0.1270
 8741SOL    HW127122   1.288   0.561   6.739  0.6051  1.1200 -0.7112
 8741SOL    HW227123   1.420   0.469   6.713 -0.4966 -0.8580  0.4280
 8742SOL     OW27124   2.677   6.705   6.344 -0.5766  0.4267 -0.6418
 8742SOL    HW127125   2.734   6.751   6.277  1.1970  0.6397  0.9252
 8742SOL    HW227126   2.671   6.607   6.323 -0.1147  0.5109 -1.1627
 8743SOL     OW27127   3.307   6.628   3.494 -0.3154  0.2122  0.5096
 8743SOL    HW127128   3.328   6.713   3.445  1.6629 -0.8422 -0.6304
 8743SOL    HW227129   3.385   6.604   3.552 -0.4032 -1.2948  0.0491
 8744SOL     OW27130   2.348   6.848   4.287 -0.2429 -0.1564  0.3629
 8744SOL    HW127131   2.315   6.880   4.198  0.9293 -1.8309 -0.7379
 8744SOL    HW227132   2.316   6.910   4.359  0.6469  2.5432 -1.4188
 8745SOL     OW27133   1.081   0.266   2.540 -0.2127  0.2738  0.4641
 8745SOL    HW127134   1.165   0.226   2.574 -0.3103  0.9604  1.5549
 8745SOL    HW227135   1.003   0.212   2.571 -0.1630 -1.1377 -1.6357
 8746SOL     OW27136   3.454   3.636   4.973  0.4390 -0.1772  0.1115
 8746SOL    HW127137   3.536   3.682   4.937  0.2344  2.5953  2.8093
 8746SOL    HW227138   3.444   3.547   4.928  4.0006  0.0415 -1.4742
 8747SOL     OW27139   4.194   6.954   6.449  0.2459 -0.3527 -0.3355
 8747SOL    HW127140   4.264   7.010   6.492  0.0193 -0.0134 -0.4080
 8747SOL    HW227141   4.181   6.984   6.354 -0.4337 -0.0025 -0.1416
 8748SOL     OW27142   6.225   1.386   0.937  0.2642 -0.4419 -0.5345
 8748SOL    HW127143   6.242   1.434   1.024  1.0248 -1.5144 -0.0646
 8748SOL    HW227144   6.282   1.425   0.866 -0.0469  0.1683 -0.4513
 8749SOL     OW27145   0.155   0.489   5.409 -0.0275 -0.2160  0.2238
 8749SOL    HW127146   0.101   0.482   5.493  0.5333  0.5650  0.6677
 8749SOL    HW227147   0.199   0.579   5.405  1.9564 -1.1221  0.3551
 8750SOL     OW27148   1.927   3.307   5.123 -0.5244 -0.3642 -0.3078
 8750SOL    HW127149   2.017   3.345   5.144 -0.3783 -0.8536 -0.0173
 8750SOL    HW227150   1.894   3.345   5.037  1.7572 -3.0930 -2.6362
 8751SOL     OW27151   3.313   5.767   2.146 -0.7328 -0.2138 -0.2658
 8751SOL    HW127152   3.322   5.861   2.180 -1.1551  0.1230 -1.0551
 8751SOL    HW227153   3.395   5.715   2.170  0.8384  1.1731 -2.3322
 8752SOL     OW27154   6.263   3.281   3.540  0.1848  0.4250  0.2144
 8752SOL    HW127155   6.189   3.346   3.556 -0.2288 -0.5691  2.7717
 8752SOL    HW227156   6.229   3.204   3.486  0.4806  1.8531 -2.1484
 8753SOL     OW27157   2.881   1.304   3.396 -0.4770  0.3652  0.0662
 8753SOL    HW127158   2.889   1.403   3.402 -1.5230  0.4973 -0.5461
 8753SOL    HW227159   2.965   1.266   3.358 -0.3232  1.0826 -0.3345
 8754SOL     OW27160   0.970   1.331   2.962 -0.1685  0.6905 -0.1258
 8754SOL    HW127161   0.910   1.252   2.948  1.0587 -0.2755 -0.1052
 8754SOL    HW227162   0.921   1.401   3.013 -1.4223  0.1192 -0.5140
 8755SOL     OW27163   5.374   4.916   3.602  0.5888  0.1224  0.2228
 8755SOL    HW127164   5.298   4.916   3.537 -0.7008 -1.3642  1.6669
 8755SOL    HW227165   5.435   4.840   3.583  1.6686  1.2047 -0.8168
 8756SOL     OW27166   2.097   6.286   0.693  0.1833  0.0408  0.1962
 8756SOL    HW127167   2.057   6.377   0.687  0.1415  0.0175  0.1176
 8756SOL    HW227168   2.196   6.294   0.705  0.1296  0.0992  0.5917
 8757SOL     OW27169   2.447   6.127   2.701  0.0334 -0.1821 -0.0995
 8757SOL    HW127170   2.394   6.168   2.627  0.1937  0.1992 -0.0069
 8757SOL    HW227171   2.465   6.197   2.771  1.3794 -0.0723 -0.5252
 8758SOL     OW27172   1.051   5.133   3.575  0.3034  0.0835 -0.3328
 8758SOL    HW127173   1.065   5.127   3.673  2.5763 -0.1651 -0.6313
 8758SOL    HW227174   1.123   5.083   3.527 -1.8420 -1.5683 -2.1344
 8759SOL     OW27175   5.542   4.359   3.191  0.0756  0.0375 -0.2674
 8759SOL    HW127176   5.604   4.384   3.117 -1.4958 -0.4181 -1.8061
 8759SOL    HW227177   5.470   4.427   3.199  0.5239  0.3803  1.2681
 8760SOL     OW27178   3.434   6.802   3.998  0.1798 -0.1280 -0.1529
 8760SOL    HW127179   3.496   6.859   3.944 -3.1735  2.3222 -1.7783
 8760SOL    HW227180   3.422   6.714   3.952  0.1402  0.5476 -1.4992
 8761SOL     OW27181   1.514   5.884   3.284  0.0697 -0.2484  0.6511
 8761SOL    HW127182   1.529   5.838   3.372  0.7581 -0.7671  0.2733
 8761SOL    HW227183   1.587   5.859   3.221  1.6004  2.8820  1.0141
 8762SOL     OW27184   3.271   0.113   4.362 -0.0543  0.6644 -0.3410
 8762SOL    HW127185   3.317   0.195   4.328  0.6861  0.9626  1.3142
 8762SOL    HW227186   3.209   0.138   4.436  0.9845 -0.3710  0.9300
 8763SOL     OW27187   5.274   0.692   4.137 -0.2887  0.8154 -0.5280
 8763SOL    HW127188   5.280   0.594   4.152 -0.5211  0.8121 -0.4591
 8763SOL    HW227189   5.205   0.711   4.068  1.1442  0.7827 -2.0470
 8764SOL     OW27190   0.935   0.069   6.732  0.1054 -0.2098  0.2256
 8764SOL    HW127191   0.860   0.114   6.780 -2.0906 -2.4363 -0.8750
 8764SOL    HW227192   0.924   0.084   6.633  0.2420 -1.7268 -0.0437
 8765SOL     OW27193   1.744   2.304   0.764 -0.4198 -0.9195 -0.1443
 8765SOL    HW127194   1.833   2.265   0.787  1.3868  3.9468  2.3032
 8765SOL    HW227195   1.753   2.366   0.687 -0.8378  1.8657  1.8956
 8766SOL     OW27196   4.354   1.353   0.700 -0.6509 -0.5713 -0.1316
 8766SOL    HW127197   4.403   1.311   0.623 -0.0430  0.3360 -0.2596
 8766SOL    HW227198   4.355   1.291   0.778  4.0716  0.7501  1.1841
 8767SOL     OW27199   1.112   5.348   4.601  0.0047 -0.2572  0.2758
 8767SOL    HW127200   1.209   5.359   4.622  0.4102  0.8317 -1.9569
 8767SOL    HW227201   1.065   5.436   4.610  0.3364  0.4684 -3.5906
 8768SOL     OW27202   3.425   2.307   0.446  0.5991 -0.3248  0.9178
 8768SOL    HW127203   3.335   2.267   0.466 -0.3182  2.1228  2.0428
 8768SOL    HW227204   3.473   2.249   0.380 -1.8071 -1.6810  0.2395
 8769SOL     OW27205   6.696   4.439   6.291 -0.2592  0.5155 -0.0759
 8769SOL    HW127206   6.678   4.483   6.203  0.0083 -1.5134 -1.2128
 8769SOL    HW227207   6.620   4.379   6.315  1.0009 -1.3521 -0.5407
 8770SOL     OW27208   4.114   1.433   6.536  0.6945 -0.5828 -0.1280
 8770SOL    HW127209   4.070   1.376   6.466 -0.7971  0.1287  0.1748
 8770SOL    HW227210   4.078   1.527   6.529  1.3724 -0.2366  0.8602
 8771SOL     OW27211   6.620   5.383   2.962 -0.1533 -0.2861 -0.3729
 8771SOL    HW127212   6.690   5.314   2.950 -0.3884 -0.5514 -0.2362
 8771SOL    HW227213   6.565   5.362   3.043 -1.1752 -0.7759 -1.1684
 8772SOL     OW27214   5.525   0.832   1.833  0.2798  0.1859 -0.0756
 8772SOL    HW127215   5.582   0.881   1.899 -0.1217 -1.4119  1.5143
 8772SOL    HW227216   5.429   0.854   1.848  0.0901 -1.1142  0.7070
 8773SOL     OW27217   3.867   3.559   5.969  0.1500 -0.1286 -0.0507
 8773SOL    HW127218   3.781   3.598   6.002 -0.2397 -1.9527  1.2531
 8773SOL    HW227219   3.924   3.535   6.048  2.0415  1.3785 -0.9060
 8774SOL     OW27220   4.924   4.371   4.855  0.2083  0.0336  0.2140
 8774SOL    HW127221   4.901   4.410   4.944  2.1952 -0.2827  0.9356
 8774SOL    HW227222   4.870   4.288   4.840 -0.1837  0.1152  1.1106
 8775SOL     OW27223   0.590   5.453   4.305 -0.4543 -0.0498  0.0246
 8775SOL    HW127224   0.561   5.456   4.209  0.6701  2.0842 -0.3131
 8775SOL    HW227225   0.533   5.517   4.358 -1.3862 -1.5651  0.9158
 8776SOL     OW27226   0.422   3.963   1.425  0.6034 -0.4333 -0.0536
 8776SOL    HW127227   0.426   4.041   1.487  0.2157 -0.3294 -0.1556
 8776SOL    HW227228   0.399   3.880   1.477 -3.8732  0.2708 -0.4902
 8777SOL     OW27229   7.004   5.742   2.599 -0.1762  0.6761 -0.2683
 8777SOL    HW127230   6.953   5.815   2.645 -0.0000  0.4451  0.3042
 8777SOL    HW227231   6.943   5.664   2.583  0.1166  0.1701  0.9453
 8778SOL     OW27232   4.998   5.790   1.241 -0.0175  0.6247 -0.1627
 8778SOL    HW127233   4.954   5.879   1.254 -0.1259  0.6983 -1.0027
 8778SOL    HW227234   5.087   5.803   1.197 -0.0212  0.3151 -0.2647
 8779SOL     OW27235   2.831   2.919   6.456  0.2852  0.4943 -0.0640
 8779SOL    HW127236   2.804   3.009   6.492  0.4826  0.8607 -0.8148
 8779SOL    HW227237   2.774   2.848   6.498 -0.4693  1.0577 -0.1114
 8780SOL     OW27238   1.368   1.938   4.279  0.3197  0.5502 -0.3039
 8780SOL    HW127239   1.434   1.891   4.219  0.1340 -0.2296  0.0931
 8780SOL    HW227240   1.353   2.031   4.245 -0.4313 -0.1490 -1.9725
 8781SOL     OW27241   5.963   6.942   5.008 -0.4527  0.0336  0.2774
 8781SOL    HW127242   5.890   6.923   4.942 -1.0264 -0.4205  1.0298
 8781SOL    HW227243   5.987   6.857   5.055 -1.1617  0.6355  1.7712
 8782SOL     OW27244   2.227   5.510   2.725  0.0092 -0.1013  0.4938
 8782SOL    HW127245   2.231   5.511   2.625 -1.5271  2.1329  0.3805
 8782SOL    HW227246   2.315   5.539   2.762  0.3308 -0.1444 -0.2153
 8783SOL     OW27247   2.504   1.061   4.657 -0.3496 -0.0072 -0.1411
 8783SOL    HW127248   2.589   1.110   4.640 -0.2472  0.2953  1.1386
 8783SOL    HW227249   2.482   1.066   4.755 -0.2275 -2.6817  0.0807
 8784SOL     OW27250   4.450   6.909   2.207 -0.4452  0.3908 -0.5684
 8784SOL    HW127251   4.492   6.891   2.296 -2.6053 -0.7987  0.2885
 8784SOL    HW227252   4.470   7.003   2.179  1.7295  0.2342  0.3062
 8785SOL     OW27253   4.592   6.483   4.775  0.3822  0.6307  0.4481
 8785SOL    HW127254   4.507   6.446   4.740 -0.8343  1.8079  1.9955
 8785SOL    HW227255   4.598   6.580   4.752 -0.0328  1.2165  2.5980
 8786SOL     OW27256   2.207   3.354   1.469  1.0096  0.7796  0.1515
 8786SOL    HW127257   2.205   3.390   1.562  1.8041  1.4924 -0.0949
 8786SOL    HW227258   2.114   3.346   1.434  0.7781  1.9194  0.4745
 8787SOL     OW27259   6.270   6.380   4.554 -0.0819  0.0466  0.0379
 8787SOL    HW127260   6.227   6.340   4.473 -2.9217  2.4165  0.2350
 8787SOL    HW227261   6.242   6.329   4.635  0.4126 -0.5660 -0.1679
 8788SOL     OW27262   5.234   2.779   1.553  0.1963 -0.5235 -0.1214
 8788SOL    HW127263   5.296   2.733   1.490  2.2285  4.4082 -2.1983
 8788SOL    HW227264   5.140   2.771   1.520  0.7329 -1.3983 -1.4856
 8789SOL     OW27265   1.693   4.458   4.921 -0.1685  0.2285  0.2104
 8789SOL    HW127266   1.603   4.471   4.963 -0.0151 -0.2447  0.6918
 8789SOL    HW227267   1.753   4.534   4.945  0.3411 -0.6872  1.9947
 8790SOL     OW27268   5.985   2.204   6.641  0.7740 -0.5651  0.4351
 8790SOL    HW127269   5.967   2.136   6.571  0.5392 -0.5410  0.4709
 8790SOL    HW227270   6.032   2.161   6.718  0.9929 -0.6007  0.2804
 8791SOL     OW27271   5.023   3.464   6.899  0.4280  0.0397 -0.3458
 8791SOL    HW127272   5.043   3.378   6.947  0.3239  1.8658  3.3854
 8791SOL    HW227273   4.957   3.448   6.827  1.4987 -3.1904 -0.7416
 8792SOL     OW27274   1.087   2.729   2.541 -0.6528 -0.4443 -0.6273
 8792SOL    HW127275   1.099   2.792   2.464  2.0208 -0.2648 -0.1535
 8792SOL    HW227276   0.996   2.687   2.536 -2.8260  3.6981 -0.7584
 8793SOL     OW27277   1.728   2.522   0.265  0.0144  0.4056 -0.3411
 8793SOL    HW127278   1.717   2.422   0.270 -0.1723  0.4085 -0.6348
 8793SOL    HW227279   1.808   2.543   0.209  2.6323  0.3529  3.0526
 8794SOL     OW27280   5.625   0.628   2.898  0.3646  0.2754  0.4481
 8794SOL    HW127281   5.636   0.602   2.802 -0.9026 -1.4355  0.7261
 8794SOL    HW227282   5.540   0.680   2.908 -0.2924 -0.8365  0.8385
 8795SOL     OW27283   6.862   5.982   2.972  0.5184  0.1969 -0.1695
 8795SOL    HW127284   6.875   5.888   2.942 -2.2084 -0.0181 -0.9275
 8795SOL    HW227285   6.949   6.030   2.972  1.7321 -1.9100 -1.1873
 8796SOL     OW27286   3.818   4.930   1.509 -0.3976  0.1887  0.9538
 8796SOL    HW127287   3.736   4.979   1.539 -0.6030 -0.4214  1.4348
 8796SOL    HW227288   3.840   4.859   1.576 -0.4784 -0.7868 -0.0155
 8797SOL     OW27289   0.262   0.263   0.915  0.1635 -0.2418  0.0144
 8797SOL    HW127290   0.349   0.300   0.880 -0.5370  0.9052 -0.5934
 8797SOL    HW227291   0.205   0.237   0.837 -0.6638  0.5235  0.3601
 8798SOL     OW27292   0.827   5.387   0.287 -0.3724  0.3460  0.2448
 8798SOL    HW127293   0.830   5.480   0.322 -0.1218  0.2250  0.5530
 8798SOL    HW227294   0.906   5.336   0.322 -1.3500 -0.4340  1.3475
 8799SOL     OW27295   2.911   3.785   0.674  0.0207 -0.1600 -0.0105
 8799SOL    HW127296   2.941   3.773   0.768  1.6561 -1.6531 -0.6808
 8799SOL    HW227297   2.958   3.864   0.634  0.4686 -0.4235 -0.0126
 8800SOL     OW27298   1.940   2.172   3.818 -0.3111 -0.2787 -0.4239
 8800SOL    HW127299   1.890   2.090   3.793 -0.9263  0.2677 -0.9918
 8800SOL    HW227300   1.982   2.212   3.737  0.0890 -0.0946 -0.1305
 8801SOL     OW27301   4.393   0.062   5.721 -0.2055 -0.3575 -0.2354
 8801SOL    HW127302   4.341   0.098   5.644  0.7371 -2.0350 -1.7155
 8801SOL    HW227303   4.442  -0.020   5.693 -1.0922 -1.9767  2.5667
 8802SOL     OW27304   0.139   6.276   0.267 -0.3740  0.1429 -0.3628
 8802SOL    HW127305   0.099   6.278   0.359 -2.4075 -0.4160 -1.1870
 8802SOL    HW227306   0.205   6.201   0.261 -0.7422 -0.2540  0.4225
 8803SOL     OW27307   1.021   6.656   3.167 -0.4163  0.8269 -0.4402
 8803SOL    HW127308   1.029   6.561   3.135 -0.4941  0.8185 -0.4341
 8803SOL    HW227309   1.103   6.706   3.141  0.2102  0.4209  0.6698
 8804SOL     OW27310   5.223   0.154   1.416  0.0078 -0.4560  0.0367
 8804SOL    HW127311   5.205   0.086   1.487  1.0114 -2.3662 -1.4418
 8804SOL    HW227312   5.136   0.189   1.380 -0.5136 -0.3765  1.3086
 8805SOL     OW27313   1.810   0.149   0.107 -0.6638 -0.0225  0.1735
 8805SOL    HW127314   1.788   0.062   0.151  0.4251  0.5006  1.8391
 8805SOL    HW227315   1.822   0.219   0.176  0.2519  1.0593 -1.0335
 8806SOL     OW27316   1.928   4.670   0.372  0.0561  0.2600  0.5142
 8806SOL    HW127317   1.991   4.636   0.443  0.2615 -1.1926 -0.3368
 8806SOL    HW227318   1.960   4.640   0.282 -0.6513  1.4010 -0.1306
 8807SOL     OW27319   4.517   2.110   3.431  0.6240 -0.4635  0.0934
 8807SOL    HW127320   4.490   2.054   3.509 -3.9213  0.7229 -0.3598
 8807SOL    HW227321   4.481   2.068   3.347  0.0215  1.3817 -0.6061
 8808SOL     OW27322   0.325   2.505   5.963  0.5949 -0.5048  0.0774
 8808SOL    HW127323   0.285   2.496   6.054  0.5527 -0.8830  0.0221
 8808SOL    HW227324   0.283   2.582   5.915 -0.3597 -1.1500 -0.1336
 8809SOL     OW27325   1.760   6.840   0.245 -0.3667 -0.0844  0.4067
 8809SOL    HW127326   1.844   6.830   0.299  0.2095 -0.7773 -0.5752
 8809SOL    HW227327   1.680   6.830   0.304  0.2444 -0.2977  1.2078
 8810SOL     OW27328   2.037   4.045   2.580 -0.2511  0.2290  0.5154
 8810SOL    HW127329   2.109   4.114   2.584  0.0428 -0.0552  0.2148
 8810SOL    HW227330   2.044   3.994   2.494 -0.1478 -0.5156  0.9538
 8811SOL     OW27331   0.325   1.005   0.181  0.0542  0.0729  0.3093
 8811SOL    HW127332   0.365   0.950   0.254 -0.0158 -0.8098 -0.3013
 8811SOL    HW227333   0.381   0.997   0.098  0.0561  0.9474  0.2143
 8812SOL     OW27334   0.289   3.164   0.669 -0.0587 -0.1498 -0.3405
 8812SOL    HW127335   0.380   3.193   0.637  0.5643  0.1460  1.5924
 8812SOL    HW227336   0.299   3.103   0.747 -1.5041 -2.1901 -1.6510
 8813SOL     OW27337   1.640   1.996   0.336 -0.0501 -0.0008  0.3324
 8813SOL    HW127338   1.608   1.902   0.349 -0.8861  0.2287  0.0343
 8813SOL    HW227339   1.738   2.002   0.356 -0.2261 -0.7018  1.4380
 8814SOL     OW27340   2.273   4.439   0.686 -0.5024 -0.0307 -0.0614
 8814SOL    HW127341   2.370   4.455   0.703 -0.3054 -0.0959 -1.0531
 8814SOL    HW227342   2.238   4.508   0.622 -1.3392  0.5325  0.9726
 8815SOL     OW27343   2.141   5.550   1.275 -0.5790 -0.4045 -0.4588
 8815SOL    HW127344   2.209   5.564   1.347 -0.1008 -0.0024 -0.9819
 8815SOL    HW227345   2.175   5.587   1.188 -2.1540  1.4004 -0.3782
 8816SOL     OW27346   6.248   3.080   0.243 -0.4004  0.0009 -0.1255
 8816SOL    HW127347   6.263   3.000   0.301  0.9543  0.4849  0.2260
 8816SOL    HW227348   6.330   3.137   0.243 -0.6247  0.3815 -1.9616
 8817SOL     OW27349   0.519   2.703   5.687  0.1909  0.3743  0.4009
 8817SOL    HW127350   0.595   2.664   5.635 -0.1100  0.7280 -0.3122
 8817SOL    HW227351   0.555   2.761   5.761  0.6143  0.0772  0.4290
 8818SOL     OW27352   1.504   4.094   1.505 -0.5970 -0.2148  0.4299
 8818SOL    HW127353   1.445   4.165   1.468 -0.5453 -0.1229  0.5226
 8818SOL    HW227354   1.511   4.019   1.440 -0.3132  0.0525  0.1491
 8819SOL     OW27355   5.897   6.892   6.201 -0.0473  0.8265  0.2853
 8819SOL    HW127356   5.867   6.820   6.138 -0.6496  1.6472 -0.3892
 8819SOL    HW227357   5.969   6.857   6.260 -0.2974 -0.3155 -0.0671
 8820SOL     OW27358   4.571   0.302   1.930 -0.0933 -0.7728 -0.2810
 8820SOL    HW127359   4.667   0.327   1.917 -0.0409  0.2468  1.6644
 8820SOL    HW227360   4.542   0.242   1.856  1.4404  0.5330 -2.0582
 8821SOL     OW27361   1.420   1.048   3.571  0.1702  0.0149  0.5225
 8821SOL    HW127362   1.511   1.036   3.611  1.5352 -0.2301 -2.3623
 8821SOL    HW227363   1.411   0.987   3.492 -2.6571 -0.1548  0.8857
 8822SOL     OW27364   4.874   1.436   6.294  0.2921  0.3340  0.3034
 8822SOL    HW127365   4.840   1.377   6.221 -1.3050  3.6146 -1.8361
 8822SOL    HW227366   4.816   1.426   6.375  0.5391 -1.4880  0.3061
 8823SOL     OW27367   5.695   4.045   6.208 -0.2427  0.2532 -0.5619
 8823SOL    HW127368   5.730   4.065   6.299 -0.1554 -3.1740  0.2912
 8823SOL    HW227369   5.596   4.063   6.206 -0.1312  0.9874 -0.0413
 8824SOL     OW27370   0.639   0.010   2.344  0.0128  0.5859  0.1495
 8824SOL    HW127371   0.554  -0.029   2.380  0.1552  0.4835  0.3712
 8824SOL    HW227372   0.660   0.094   2.394  0.3455  0.3094  0.4795
 8825SOL     OW27373   5.252   2.766   5.378  0.7045 -0.6857  0.7291
 8825SOL    HW127374   5.325   2.707   5.346  0.9704  0.9295 -1.9157
 8825SOL    HW227375   5.163   2.732   5.346  0.9765  0.9765 -2.1512
 8826SOL     OW27376   3.632   6.561   2.087  0.4450 -0.3142 -0.0062
 8826SOL    HW127377   3.581   6.475   2.093  0.9896 -0.7448 -1.3329
 8826SOL    HW227378   3.592   6.628   2.150 -0.0412 -1.4964  0.9790
 8827SOL     OW27379   4.858   3.788   2.861 -0.0477  0.4513 -0.0128
 8827SOL    HW127380   4.858   3.701   2.812 -0.7529  0.2921  0.2675
 8827SOL    HW227381   4.866   3.863   2.796  0.0571  0.1984 -0.2925
 8828SOL     OW27382   0.418   1.210   4.344 -0.3195 -0.7079 -0.2095
 8828SOL    HW127383   0.441   1.113   4.354  1.1560 -0.3163  0.5485
 8828SOL    HW227384   0.359   1.238   4.419  0.3645 -0.7233  0.3463
 8829SOL     OW27385   1.309   1.493   1.292 -0.1342 -0.2507  0.6290
 8829SOL    HW127386   1.259   1.573   1.324  1.0139  0.5449  0.4788
 8829SOL    HW227387   1.250   1.439   1.232 -1.1573  0.0858  1.3008
 8830SOL     OW27388   5.455   0.178   6.736  0.0978 -0.1022 -0.3297
 8830SOL    HW127389   5.470   0.083   6.707  0.0711 -0.8584  1.8979
 8830SOL    HW227390   5.542   0.225   6.744  0.0290  0.5513 -2.7930
 8831SOL     OW27391   0.830   6.780   1.096 -0.5706  0.1381 -0.0398
 8831SOL    HW127392   0.862   6.785   1.191 -0.3648  0.7367 -0.1378
 8831SOL    HW227393   0.808   6.685   1.074  1.3656 -0.3678 -0.0223
 8832SOL     OW27394   1.407   3.141   0.302 -0.0322  0.2931 -0.2122
 8832SOL    HW127395   1.375   3.134   0.396 -1.9812  1.1131 -0.7531
 8832SOL    HW227396   1.337   3.104   0.240  0.8208  0.5662 -1.3911
 8833SOL     OW27397   0.923   5.383   5.747  0.7594 -0.1707  0.0193
 8833SOL    HW127398   0.905   5.379   5.648  0.5283  1.1108 -0.0117
 8833SOL    HW227399   1.019   5.363   5.764  0.2540 -3.3077 -0.1621
 8834SOL     OW27400   6.908   5.755   0.141 -0.0382  0.3352 -0.4675
 8834SOL    HW127401   6.861   5.720   0.060  0.6768  0.2406 -0.8484
 8834SOL    HW227402   6.918   5.681   0.208  0.4576  0.0872 -0.8035
 8835SOL     OW27403   6.862   0.127   3.752 -0.1925 -0.8339 -0.2429
 8835SOL    HW127404   6.941   0.123   3.691 -0.1703  0.8547 -0.3706
 8835SOL    HW227405   6.801   0.200   3.723 -1.5107 -1.7069  0.2247
 8836SOL     OW27406   6.795   2.782   6.583 -0.0442 -0.4028 -0.4557
 8836SOL    HW127407   6.816   2.751   6.490 -1.0345  0.4510 -0.9886
 8836SOL    HW227408   6.868   2.841   6.616  0.2902 -0.6711 -0.7101
 8837SOL     OW27409   5.191   5.481   0.845 -0.3845  0.3953 -0.2074
 8837SOL    HW127410   5.283   5.497   0.880 -0.4159  1.1270 -0.4491
 8837SOL    HW227411   5.126   5.485   0.921 -0.3397  0.9805 -0.1971
 8838SOL     OW27412   6.934   3.893   5.981  0.0784 -0.0171 -0.5078
 8838SOL    HW127413   6.964   3.811   5.932 -1.5465 -0.3791 -0.9243
 8838SOL    HW227414   6.991   3.905   6.063 -0.8650 -2.6523  0.6265
 8839SOL     OW27415   3.617   6.783   1.896 -0.4257 -0.4571 -0.7659
 8839SOL    HW127416   3.592   6.740   1.809 -0.1745 -1.7778 -0.2072
 8839SOL    HW227417   3.666   6.717   1.953  0.6629  0.8262 -0.1736
 8840SOL     OW27418   1.460   5.883   0.960 -0.0757  0.2889 -0.5788
 8840SOL    HW127419   1.368   5.855   0.931 -0.9965  2.0366  0.5199
 8840SOL    HW227420   1.478   5.976   0.928  1.4800 -0.1639 -1.0911
 8841SOL     OW27421   2.321   4.256   3.669  0.4729  0.5482 -0.5057
 8841SOL    HW127422   2.325   4.266   3.768  0.3624 -0.0576 -0.4365
 8841SOL    HW227423   2.358   4.338   3.625  1.5253  0.3726  0.0365
 8842SOL     OW27424   6.465   4.624   6.332  1.0251 -0.1686  1.2562
 8842SOL    HW127425   6.562   4.601   6.326  1.1996  0.6566  0.7526
 8842SOL    HW227426   6.449   4.712   6.288  0.0857 -0.1751  1.5635
 8843SOL     OW27427   1.082   4.738   5.867  0.5256  0.2699 -0.2991
 8843SOL    HW127428   0.997   4.689   5.849 -0.5021  1.4009  1.2463
 8843SOL    HW227429   1.095   4.750   5.965  2.7792 -0.3304 -0.4500
 8844SOL     OW27430   3.493   3.475   3.583 -0.1616  0.3386  0.5585
 8844SOL    HW127431   3.484   3.570   3.613  1.0424  0.3911  0.8000
 8844SOL    HW227432   3.590   3.449   3.583 -0.5531 -1.3290  1.8698
 8845SOL     OW27433   3.349   2.594   1.204  0.0938  0.2340  0.3686
 8845SOL    HW127434   3.327   2.689   1.181 -0.2342 -0.0379 -0.4686
 8845SOL    HW227435   3.274   2.556   1.259 -1.0653 -0.3279 -1.5000
 8846SOL     OW27436   0.582   0.280   1.800  0.5331 -0.1606 -0.1920
 8846SOL    HW127437   0.533   0.367   1.786 -0.7367 -0.7009  0.7650
 8846SOL    HW227438   0.623   0.252   1.713 -0.0094  0.8129 -0.7880
 8847SOL     OW27439   0.316   4.872   5.209  0.2482 -0.1421  0.7738
 8847SOL    HW127440   0.216   4.872   5.218  0.2775 -0.3913  1.1362
 8847SOL    HW227441   0.341   4.879   5.113 -0.1798 -3.0796  0.3562
 8848SOL     OW27442   0.609   1.991   0.712  0.8111 -0.2772  0.1240
 8848SOL    HW127443   0.522   2.031   0.740 -0.9845 -2.4668 -1.8539
 8848SOL    HW227444   0.647   1.937   0.788  1.0897  1.5794  1.3648
 8849SOL     OW27445   1.953   2.703   2.090  0.4293  0.2713  0.2822
 8849SOL    HW127446   1.972   2.800   2.078 -1.5893  0.7140  0.4411
 8849SOL    HW227447   1.957   2.679   2.187 -0.2159  0.4619  0.3598
 8850SOL     OW27448   2.149   2.112   0.592  0.3776  0.4537 -0.0528
 8850SOL    HW127449   2.158   2.013   0.579  0.2214  0.5436 -0.8885
 8850SOL    HW227450   2.208   2.159   0.526  1.4634  0.9158  1.1936
 8851SOL     OW27451   1.029   0.886   2.968  0.0501 -0.1278  0.5072
 8851SOL    HW127452   0.944   0.866   2.921 -0.7646 -1.9455  2.5832
 8851SOL    HW227453   1.083   0.951   2.914 -2.2796  0.4888 -1.2067
 8852SOL     OW27454   0.389   5.717   4.819 -0.1876 -0.2968  0.4229
 8852SOL    HW127455   0.307   5.692   4.768  0.0562  0.7953 -0.5420
 8852SOL    HW227456   0.421   5.807   4.789  1.4334 -0.7513  0.6719
 8853SOL     OW27457   2.206   3.977   2.086 -0.2116 -0.5355 -0.0945
 8853SOL    HW127458   2.109   3.959   2.100 -0.6408  2.0474  1.0320
 8853SOL    HW227459   2.225   3.985   1.988 -1.4732  0.3327 -0.2977
 8854SOL     OW27460   5.059   1.175   1.011 -0.4302  0.1783 -0.2114
 8854SOL    HW127461   5.153   1.195   0.986 -0.9801  0.6672 -2.0294
 8854SOL    HW227462   5.029   1.237   1.084 -0.1039  1.6688 -1.3239
 8855SOL     OW27463   1.970   3.366   6.641 -0.3293 -0.0353  0.3375
 8855SOL    HW127464   2.001   3.321   6.725  1.8308 -0.1409 -0.4371
 8855SOL    HW227465   1.875   3.395   6.651 -0.0182  0.3378  2.9811
 8856SOL     OW27466   4.838   2.818   2.200  0.0559 -0.4124  0.6609
 8856SOL    HW127467   4.788   2.738   2.167  0.2095 -1.1382  2.1444
 8856SOL    HW227468   4.815   2.897   2.142 -0.3061 -1.4378 -0.6548
 8857SOL     OW27469   4.681   6.344   6.890  0.0403 -0.0167  0.1518
 8857SOL    HW127470   4.771   6.305   6.870  0.1734 -0.0359  0.7589
 8857SOL    HW227471   4.613   6.271   6.891  0.5512 -0.6076  2.9993
 8858SOL     OW27472   3.420   0.707   2.098 -0.0544  0.0048  0.2216
 8858SOL    HW127473   3.329   0.668   2.113  0.2953 -0.8223  0.2455
 8858SOL    HW227474   3.447   0.761   2.177 -0.0053 -0.7945  0.7608
 8859SOL     OW27475   1.675   6.842   3.908 -0.0499  0.6534  0.2363
 8859SOL    HW127476   1.632   6.799   3.988 -1.9063  0.2609 -0.9294
 8859SOL    HW227477   1.643   6.936   3.900  0.2075  0.7224  0.0089
 8860SOL     OW27478   6.548   1.009   2.195  0.4018  0.2174 -0.2376
 8860SOL    HW127479   6.458   1.005   2.152 -0.4101 -1.9850  1.4400
 8860SOL    HW227480   6.617   0.975   2.130 -0.6363 -2.0608 -0.2713
 8861SOL     OW27481   1.555   4.098   1.228  0.1275 -0.0193  0.3216
 8861SOL    HW127482   1.458   4.124   1.227  0.0069 -0.4418 -0.9801
 8861SOL    HW227483   1.591   4.108   1.320 -1.4846 -1.0907  1.1111
 8862SOL     OW27484   0.086   4.124   3.494 -0.1013 -0.0519  0.2164
 8862SOL    HW127485  -0.009   4.148   3.515 -1.0564  3.2591 -5.4891
 8862SOL    HW227486   0.088   4.035   3.449 -0.5177 -0.1112  0.3094
 8863SOL     OW27487   1.771   4.388   1.018  0.0412  0.0865 -0.2111
 8863SOL    HW127488   1.781   4.304   0.964  0.7459  1.0439 -1.6612
 8863SOL    HW227489   1.739   4.366   1.110 -0.2260 -1.7156 -0.7014
 8864SOL     OW27490   6.950   5.906   6.553  0.1739  0.2424  0.2683
 8864SOL    HW127491   7.047   5.926   6.536 -0.0804  1.0452 -0.3415
 8864SOL    HW227492   6.896   5.940   6.476 -0.6592  0.4326  0.9216
 8865SOL     OW27493   0.588   5.465   5.660 -0.6752  0.0568  0.4754
 8865SOL    HW127494   0.525   5.413   5.719 -1.2995  0.9502  0.6179
 8865SOL    HW227495   0.619   5.547   5.708  0.0023  0.0189  0.1142
 8866SOL     OW27496   4.642   1.611   6.169 -1.0733 -0.6545  0.0851
 8866SOL    HW127497   4.569   1.620   6.238 -0.3727  0.4956  0.6952
 8866SOL    HW227498   4.604   1.629   6.078 -2.1062 -2.6039  0.0737
 8867SOL     OW27499   3.098   6.373   6.721 -0.1475 -0.7019  0.1291
 8867SOL    HW127500   3.080   6.371   6.623  1.8128 -2.2765 -0.2596
 8867SOL    HW227501   3.037   6.310   6.768 -1.6647  0.6678  0.0806
 8868SOL     OW27502   4.669   3.481   0.260 -0.3760  0.2188  0.1106
 8868SOL    HW127503   4.768   3.474   0.273 -0.1571  1.7500 -0.5769
 8868SOL    HW227504   4.631   3.390   0.243  1.0308 -0.2878 -0.4223
 8869SOL     OW27505   5.066   2.261   3.509 -0.4587 -0.7595  0.7235
 8869SOL    HW127506   5.013   2.180   3.482  1.2639 -1.2293 -1.5028
 8869SOL    HW227507   5.003   2.331   3.546 -2.6477 -1.3433 -1.6226
 8870SOL     OW27508   1.256   2.721   1.043  0.5000  0.6523 -0.5607
 8870SOL    HW127509   1.231   2.718   0.947 -0.1936  0.5654 -0.3787
 8870SOL    HW227510   1.174   2.713   1.100  1.0879 -2.0113  0.0588
 8871SOL     OW27511   5.397   4.251   5.317 -0.0753  0.1531 -0.4069
 8871SOL    HW127512   5.477   4.195   5.298  0.6731  1.4291 -1.1376
 8871SOL    HW227513   5.327   4.234   5.246  0.0150 -0.0806 -0.4420
 8872SOL     OW27514   4.050   5.883   2.901  0.8164 -0.4035 -0.4429
 8872SOL    HW127515   3.977   5.948   2.921 -0.2798 -2.4407  2.9329
 8872SOL    HW227516   4.050   5.863   2.803 -0.9154  2.1397 -1.0659
 8873SOL     OW27517   3.408   1.718   5.691  0.0415 -1.2756  0.0665
 8873SOL    HW127518   3.399   1.817   5.681 -2.5749 -1.3348  0.9379
 8873SOL    HW227519   3.337   1.673   5.637 -0.0051 -2.5664  1.1477
 8874SOL     OW27520   5.033   5.783   0.118 -0.1420 -0.4613  0.0715
 8874SOL    HW127521   5.131   5.766   0.109 -0.4472 -2.3102 -0.0759
 8874SOL    HW227522   4.986   5.759   0.033 -0.7722  0.1015  0.2466
 8875SOL     OW27523   1.150   0.191   4.363  0.2745  0.2293  0.1026
 8875SOL    HW127524   1.101   0.181   4.450  0.3473 -1.9710 -0.0484
 8875SOL    HW227525   1.228   0.129   4.362  0.6938  0.7510 -1.2545
 8876SOL     OW27526   1.935   6.941   4.319  0.1137 -0.3486 -0.4688
 8876SOL    HW127527   1.940   6.898   4.229 -1.0584 -0.2600 -0.5931
 8876SOL    HW227528   1.895   7.032   4.311 -0.6955 -0.6293  0.2213
 8877SOL     OW27529   4.194   5.471   6.157 -0.1867 -0.6726 -0.0361
 8877SOL    HW127530   4.234   5.412   6.087 -0.8290 -0.7887 -0.3142
 8877SOL    HW227531   4.194   5.566   6.124 -1.5365 -0.8802 -0.6893
 8878SOL     OW27532   2.432   5.586   3.226 -0.0099  0.1922  0.3543
 8878SOL    HW127533   2.340   5.558   3.202 -1.2031  1.8665  2.6024
 8878SOL    HW227534   2.484   5.607   3.143 -1.4033 -1.4157 -0.9715
 8879SOL     OW27535   5.781   6.270   6.124  0.2040  0.2224 -0.0089
 8879SOL    HW127536   5.693   6.252   6.168  1.1546  0.4404  2.1675
 8879SOL    HW227537   5.775   6.251   6.027 -1.4590 -2.5813  0.5389
 8880SOL     OW27538   3.131   3.017   4.868  0.2725  0.1021  0.1641
 8880SOL    HW127539   3.206   2.950   4.865 -0.7535 -1.1049  0.5101
 8880SOL    HW227540   3.091   3.018   4.959  0.3295  1.2730  0.1801
 8881SOL     OW27541   3.408   2.523   6.976  0.1950 -0.2419  0.8530
 8881SOL    HW127542   3.488   2.469   7.002  0.1241  0.1520  1.9090
 8881SOL    HW227543   3.434   2.619   6.966 -0.5142  0.2497  3.2101
 8882SOL     OW27544   6.915   1.873   2.651  0.4079 -0.5407 -0.5049
 8882SOL    HW127545   6.877   1.928   2.577 -0.5512  0.0592  0.4043
 8882SOL    HW227546   6.872   1.783   2.651 -2.0907  0.5331  1.2703
 8883SOL     OW27547   0.249   0.806   5.448  0.3773 -0.4204 -0.1980
 8883SOL    HW127548   0.285   0.773   5.535 -0.8141 -1.5236 -0.1008
 8883SOL    HW227549   0.151   0.787   5.443  0.2162  0.6096 -1.3320
 8884SOL     OW27550   3.783   5.185   1.838  0.3021  0.6368 -0.2610
 8884SOL    HW127551   3.772   5.170   1.937  0.7059  0.0821 -0.2965
 8884SOL    HW227552   3.783   5.283   1.819  0.3717  0.7519  0.3068
 8885SOL     OW27553   3.994   5.161   6.021  0.5842  0.4525 -0.1103
 8885SOL    HW127554   4.073   5.221   6.018  0.0626  1.1945  0.5190
 8885SOL    HW227555   3.911   5.214   6.003  0.1818 -0.2101 -0.2364
 8886SOL     OW27556   3.958   4.897   2.585 -0.1522 -0.1620  0.3110
 8886SOL    HW127557   4.019   4.967   2.549 -0.4922 -0.0564 -0.0648
 8886SOL    HW227558   3.891   4.872   2.516  0.9987 -2.0922 -0.1841
 8887SOL     OW27559   0.737   1.844   5.169  0.2678 -0.6619 -0.0259
 8887SOL    HW127560   0.761   1.919   5.108 -1.0343  0.2296  0.5404
 8887SOL    HW227561   0.797   1.846   5.249  0.9444 -0.8928 -0.5172
 8888SOL     OW27562   2.496   5.218   2.841 -0.7161  0.3660 -0.3732
 8888SOL    HW127563   2.501   5.172   2.752  1.2556 -0.5377  0.1465
 8888SOL    HW227564   2.402   5.251   2.857 -1.5519 -1.1021 -1.9582
 8889SOL     OW27565   2.490   0.317   5.445  0.4114 -0.1497 -0.4357
 8889SOL    HW127566   2.546   0.276   5.517  0.5537  0.6245 -0.0904
 8889SOL    HW227567   2.396   0.329   5.479  0.7367  1.2314  0.0347
 8890SOL     OW27568   4.783   4.504   5.509 -0.1914  0.6228 -0.3279
 8890SOL    HW127569   4.737   4.420   5.480  0.2796 -0.5280  2.0428
 8890SOL    HW227570   4.720   4.581   5.497 -0.8251 -0.1002 -2.0459
 8891SOL     OW27571   6.095   4.900   4.325 -0.4240  0.0616  0.1164
 8891SOL    HW127572   6.057   4.809   4.342  1.0346 -0.8065 -0.9915
 8891SOL    HW227573   6.169   4.918   4.389  0.3744 -0.2473 -0.6919
 8892SOL     OW27574   5.975   6.087   5.743  0.3099 -0.0819 -0.0225
 8892SOL    HW127575   5.953   5.991   5.761  4.0271 -0.8997  1.1342
 8892SOL    HW227576   6.049   6.092   5.676  0.6008  1.9422  0.3833
 8893SOL     OW27577   4.568   1.507   1.622  0.3529 -0.6931  0.5296
 8893SOL    HW127578   4.651   1.559   1.645  0.2849  0.0144 -0.7176
 8893SOL    HW227579   4.576   1.473   1.529 -1.6832  1.3381 -0.4763
 8894SOL     OW27580   0.271   0.353   3.321 -0.4851 -0.6054 -0.0033
 8894SOL    HW127581   0.292   0.270   3.372  1.6743 -1.2457 -1.7545
 8894SOL    HW227582   0.329   0.427   3.352 -0.2382 -0.5893 -0.4940
 8895SOL     OW27583   5.459   6.894   4.024 -0.7292 -0.7883 -0.5190
 8895SOL    HW127584   5.428   6.964   4.088 -0.7735 -0.3708 -0.9909
 8895SOL    HW227585   5.441   6.924   3.930  1.0863 -0.5328 -0.8137
 8896SOL     OW27586   6.516   1.165   1.533  0.0864 -0.6183 -0.5019
 8896SOL    HW127587   6.522   1.171   1.433  0.1170 -0.5413 -0.4964
 8896SOL    HW227588   6.572   1.089   1.565 -1.5052 -1.9303 -0.6917
 8897SOL     OW27589   7.001   0.734   5.392 -0.1323 -0.5812 -0.6434
 8897SOL    HW127590   6.985   0.716   5.295 -1.0644  0.1578 -0.6453
 8897SOL    HW227591   6.965   0.659   5.447 -0.3244 -0.6309 -0.8365
 8898SOL     OW27592   4.043   3.403   5.639  0.2055  0.6257 -0.0415
 8898SOL    HW127593   3.964   3.396   5.578  1.1761 -0.1472 -1.2532
 8898SOL    HW227594   4.037   3.488   5.691 -0.7587  1.2110 -1.0603
 8899SOL     OW27595   0.995   3.678   6.299 -0.5084  0.2106 -0.0267
 8899SOL    HW127596   0.905   3.637   6.310 -0.1392 -0.7458 -0.4340
 8899SOL    HW227597   1.066   3.610   6.316  0.1604  1.0880  0.8366
 8900SOL     OW27598   3.923   6.368   5.641 -0.9476  0.7231  0.1439
 8900SOL    HW127599   3.998   6.303   5.655 -1.0738  0.6624  0.5433
 8900SOL    HW227600   3.866   6.372   5.723  1.4806  4.5224  1.9615
 8901SOL     OW27601   4.874   0.946   6.674 -0.0963  0.0439  0.5173
 8901SOL    HW127602   4.803   0.895   6.723 -0.1292 -0.9569 -0.5185
 8901SOL    HW227603   4.836   0.986   6.591  0.8346 -1.8758 -0.9189
 8902SOL     OW27604   0.378   5.878   4.098  0.2653 -0.4929 -0.0095
 8902SOL    HW127605   0.471   5.897   4.066  0.6585  0.8096  1.7323
 8902SOL    HW227606   0.368   5.780   4.113  2.0009 -0.4989  1.4749
 8903SOL     OW27607   1.937   1.925   6.439  0.3739 -0.4001 -0.5569
 8903SOL    HW127608   1.868   1.956   6.505 -1.6417 -2.2464 -1.6352
 8903SOL    HW227609   1.960   2.000   6.377  1.0510  0.8851  1.1762
 8904SOL     OW27610   6.007   5.810   4.555  0.4161  0.1177  0.0963
 8904SOL    HW127611   5.955   5.740   4.508  0.5693 -0.0179  0.1292
 8904SOL    HW227612   6.040   5.878   4.490 -0.2696  0.5044  0.1430
 8905SOL     OW27613   6.386   0.988   4.517 -0.3308 -0.5563 -0.1469
 8905SOL    HW127614   6.362   1.080   4.546  0.4193 -0.1224 -0.8749
 8905SOL    HW227615   6.407   0.932   4.597  0.1546  0.1781  0.2463
 8906SOL     OW27616   1.961   2.410   6.219  0.2951  0.7869  0.1355
 8906SOL    HW127617   2.034   2.414   6.287 -0.2474  0.8329  0.7287
 8906SOL    HW227618   1.997   2.435   6.129  0.8628  1.4423  0.5337
 8907SOL     OW27619   1.617   0.483   1.976 -0.5870  0.4992 -0.5990
 8907SOL    HW127620   1.674   0.516   1.901 -1.2964 -0.2564 -1.4853
 8907SOL    HW227621   1.526   0.461   1.942 -0.9774  0.3057  0.5228
 8908SOL     OW27622   5.418   6.764   0.559 -0.6592  0.0947  0.2766
 8908SOL    HW127623   5.372   6.837   0.609 -1.1185  1.0433 -1.4745
 8908SOL    HW227624   5.406   6.777   0.461  0.7060 -1.3965 -0.1349
 8909SOL     OW27625   6.229   0.093   6.104  0.2738  0.3648  0.3624
 8909SOL    HW127626   6.140   0.072   6.064  0.4525  1.1117 -0.4622
 8909SOL    HW227627   6.299   0.035   6.062  0.5469  1.5330 -0.8595
 8910SOL     OW27628   4.779   4.790   6.635  1.0912  0.7459  0.5618
 8910SOL    HW127629   4.707   4.721   6.624  0.6386  1.4609 -1.2565
 8910SOL    HW227630   4.840   4.788   6.556  0.8473  2.6742  0.2748
 8911SOL     OW27631   6.101   6.808   4.702 -0.2132  0.1942  0.9390
 8911SOL    HW127632   6.172   6.740   4.683 -2.1653 -1.5882 -0.2810
 8911SOL    HW227633   6.062   6.790   4.792 -1.1305 -0.7149  0.3761
 8912SOL     OW27634   0.745   3.353   2.783 -0.3260 -0.0420 -0.1842
 8912SOL    HW127635   0.677   3.409   2.735 -0.3958  0.7506  0.8218
 8912SOL    HW227636   0.820   3.411   2.813  0.2565 -0.7283 -0.2900
 8913SOL     OW27637   1.221   5.909   3.169  0.3382 -0.5511  0.1754
 8913SOL    HW127638   1.315   5.889   3.194  0.7020 -1.7990 -1.9567
 8913SOL    HW227639   1.206   5.887   3.073 -1.7695  0.9805  0.0755
 8914SOL     OW27640   3.808   1.651   3.466 -0.2217  0.2795 -0.0804
 8914SOL    HW127641   3.907   1.643   3.466 -0.2278  0.2044 -0.1100
 8914SOL    HW227642   3.768   1.575   3.415 -0.1683  1.9029 -2.6776
 8915SOL     OW27643   6.247   2.475   2.106 -0.5052 -0.0282 -0.0061
 8915SOL    HW127644   6.345   2.464   2.087 -0.5583  1.4745 -1.3730
 8915SOL    HW227645   6.211   2.549   2.049 -2.8112 -1.6168 -0.7228
 8916SOL     OW27646   6.118   0.502   2.008  0.0360 -0.3114 -0.4204
 8916SOL    HW127647   6.035   0.554   2.030 -0.0424 -0.2708 -0.8033
 8916SOL    HW227648   6.176   0.557   1.947  1.3832  0.5742  1.5428
 8917SOL     OW27649   2.209   2.884   2.708  0.0481 -0.4834 -0.1181
 8917SOL    HW127650   2.114   2.856   2.695 -0.2639  0.4317  0.0998
 8917SOL    HW227651   2.262   2.806   2.742 -0.3738 -1.3009 -1.2696
 8918SOL     OW27652   1.324   0.956   2.582 -0.3147 -0.3891 -0.5928
 8918SOL    HW127653   1.419   0.938   2.608 -0.8804 -0.2946  1.7787
 8918SOL    HW227654   1.276   0.869   2.570 -0.2378 -0.4339 -0.5766
 8919SOL     OW27655   6.365   1.742   6.959 -0.3298  0.4736 -0.0919
 8919SOL    HW127656   6.339   1.838   6.970 -0.1362  0.5903 -0.6237
 8919SOL    HW227657   6.370   1.699   7.049 -1.6842  0.6143  0.0721
 8920SOL     OW27658   3.460   5.530   0.988 -0.3679  0.1892 -0.3972
 8920SOL    HW127659   3.427   5.600   0.924 -1.0661 -0.4669 -0.7677
 8920SOL    HW227660   3.450   5.440   0.946  1.4291 -0.0871 -0.3250
 8921SOL     OW27661   3.763   4.183   5.165  0.2145  0.3971  0.1635
 8921SOL    HW127662   3.814   4.123   5.227 -0.6801 -0.5495  0.0165
 8921SOL    HW227663   3.789   4.164   5.071 -0.3416 -0.0442  0.0922
 8922SOL     OW27664   1.583   3.820   3.494 -0.1943 -0.0479  0.1325
 8922SOL    HW127665   1.514   3.767   3.445  1.1530 -0.4543 -1.3997
 8922SOL    HW227666   1.661   3.762   3.516 -0.2520  0.4285  1.7735
 8923SOL     OW27667   0.013   0.366   2.895  0.2962 -0.1670 -0.3732
 8923SOL    HW127668   0.060   0.277   2.901 -0.8928 -0.9290 -1.7455
 8923SOL    HW227669   0.052   0.420   2.821  1.6647  0.9155  1.0639
 8924SOL     OW27670   1.499   4.603   3.918  0.2896  0.1187 -0.2186
 8924SOL    HW127671   1.442   4.562   3.847 -0.0297 -1.1743  0.7490
 8924SOL    HW227672   1.592   4.615   3.883  0.2521 -0.9251 -0.7178
 8925SOL     OW27673   7.000   4.275   1.953  0.9083  0.2108  0.5448
 8925SOL    HW127674   7.086   4.299   1.908  1.5762 -1.9733  0.5087
 8925SOL    HW227675   6.932   4.252   1.883  1.1793 -0.7422  0.5721
 8926SOL     OW27676   0.815   0.676   6.380  0.4406  0.3556 -0.2301
 8926SOL    HW127677   0.908   0.682   6.415  0.1577 -1.9307  1.1636
 8926SOL    HW227678   0.775   0.589   6.408 -1.9694  1.0710 -1.1866
 8927SOL     OW27679   6.078   1.651   0.822 -0.0578  0.0821  0.0967
 8927SOL    HW127680   6.124   1.740   0.813 -1.7048  0.9403 -0.4383
 8927SOL    HW227681   6.135   1.580   0.783  1.3410  0.8756  0.5927
 8928SOL     OW27682   3.385   6.163   2.565 -0.2869 -0.3186 -0.7842
 8928SOL    HW127683   3.392   6.177   2.664 -3.3578  0.0291 -0.5391
 8928SOL    HW227684   3.311   6.099   2.545  1.0333 -1.3305 -2.8738
 8929SOL     OW27685   5.909   1.093   1.769 -0.1571  0.4038  0.5075
 8929SOL    HW127686   6.004   1.075   1.744 -0.3155  1.0116 -0.6249
 8929SOL    HW227687   5.851   1.022   1.731 -0.2310  0.4438  0.5457
 8930SOL     OW27688   1.602   1.985   3.156  0.2611  0.3862 -0.1514
 8930SOL    HW127689   1.612   1.888   3.137 -1.8099  0.2086 -0.6200
 8930SOL    HW227690   1.692   2.027   3.167  1.2037 -2.0309  2.5991
 8931SOL     OW27691   4.205   1.806   5.898 -0.0029  0.0972  0.3786
 8931SOL    HW127692   4.147   1.725   5.895  1.9535 -1.4226  0.8752
 8931SOL    HW227693   4.257   1.806   5.984 -1.2792  2.9041  1.2482
 8932SOL     OW27694   5.506   4.987   3.120 -0.7426  0.3007  0.4351
 8932SOL    HW127695   5.419   4.950   3.089  0.1156 -1.2939 -0.1528
 8932SOL    HW227696   5.512   5.084   3.095 -1.4774 -0.0891 -1.4282
 8933SOL     OW27697   3.050   4.885   5.649 -0.3774  0.4982 -0.6549
 8933SOL    HW127698   3.123   4.947   5.621 -0.2552  1.5032  1.6733
 8933SOL    HW227699   3.088   4.796   5.670  0.7187  1.6293  2.7893
 8934SOL     OW27700   2.477   3.795   6.703 -0.2763  0.1504  0.6720
 8934SOL    HW127701   2.418   3.726   6.743 -1.1149 -0.5514 -1.6328
 8934SOL    HW227702   2.424   3.877   6.681 -0.0607  0.1287  0.0505
 8935SOL     OW27703   1.466   1.809   0.409 -0.5250  0.8311  0.0252
 8935SOL    HW127704   1.490   1.723   0.364  0.8705  2.0407 -1.6876
 8935SOL    HW227705   1.393   1.853   0.357 -0.4426  1.2147  0.2350
 8936SOL     OW27706   1.534   1.204   4.829  0.3117  0.4190  0.0644
 8936SOL    HW127707   1.514   1.260   4.749 -1.2617  0.6182  0.5722
 8936SOL    HW227708   1.601   1.251   4.887 -1.7963  2.3784  1.0548
 8937SOL     OW27709   1.746   2.034   1.928  0.9335  0.1874  0.6591
 8937SOL    HW127710   1.767   1.978   2.008 -1.0217 -0.8076  0.5293
 8937SOL    HW227711   1.693   2.114   1.956  2.1214  1.0441  0.5905
 8938SOL     OW27712   4.725   0.081   2.626  0.0402  0.3848  1.4608
 8938SOL    HW127713   4.652   0.147   2.643  0.2419  1.3217 -0.9723
 8938SOL    HW227714   4.812   0.129   2.618  0.9113 -0.6550  3.6882
 8939SOL     OW27715   6.330   3.734   6.239  0.0301 -0.4308  0.6133
 8939SOL    HW127716   6.306   3.702   6.147  1.1271  1.9014 -0.5798
 8939SOL    HW227717   6.262   3.802   6.268  0.9332  0.5669  0.4709
 8940SOL     OW27718   3.731   3.621   0.495  0.2711  0.0161 -0.3458
 8940SOL    HW127719   3.641   3.638   0.535 -0.0417 -0.3650 -0.8578
 8940SOL    HW227720   3.785   3.564   0.557 -0.1172 -0.3692 -0.3586
 8941SOL     OW27721   2.464   1.592   0.698  0.3007 -0.3000  0.0644
 8941SOL    HW127722   2.401   1.523   0.663  1.4239 -0.7733 -1.1035
 8941SOL    HW227723   2.550   1.548   0.727  0.8771  0.5444 -0.3085
 8942SOL     OW27724   0.209   2.676   3.481 -0.4214  0.4171 -0.2487
 8942SOL    HW127725   0.285   2.710   3.425  0.5682 -1.2731 -0.0399
 8942SOL    HW227726   0.230   2.690   3.577  0.3679 -1.3409 -0.1198
 8943SOL     OW27727   3.528   3.354   5.526  0.2179 -0.0182 -0.4682
 8943SOL    HW127728   3.436   3.316   5.538  0.6177 -0.8922 -0.0690
 8943SOL    HW227729   3.532   3.445   5.565 -0.7726  0.4727 -1.4583
 8944SOL     OW27730   5.916   3.390   6.045  0.2505 -0.6185  0.6628
 8944SOL    HW127731   5.962   3.399   6.133 -0.0403  1.3777  0.6430
 8944SOL    HW227732   5.826   3.433   6.049 -0.0304 -1.0554 -0.4324
 8945SOL     OW27733   2.993   1.818   1.043 -0.0216  0.1787  0.3280
 8945SOL    HW127734   2.950   1.906   1.064  0.3982  0.4835 -0.0986
 8945SOL    HW227735   2.929   1.744   1.065 -0.0757  0.5490  1.4574
 8946SOL     OW27736   2.778   6.085   0.061  0.3382 -0.5746 -0.4109
 8946SOL    HW127737   2.822   6.028   0.130  2.2365  0.7786 -0.4055
 8946SOL    HW227738   2.738   6.028  -0.010  0.0303 -1.9387  0.8259
 8947SOL     OW27739   3.394   5.634   6.668 -0.1213 -0.3068  0.0211
 8947SOL    HW127740   3.344   5.699   6.725 -1.0638  0.3765 -1.5274
 8947SOL    HW227741   3.449   5.683   6.601  0.4361 -1.0913 -0.1150
 8948SOL     OW27742   2.918   0.240   1.025 -0.5203 -0.6702  0.1447
 8948SOL    HW127743   2.871   0.187   0.955  0.9784 -2.9302  0.7355
 8948SOL    HW227744   2.957   0.178   1.093  0.3185  1.3008  1.5602
 8949SOL     OW27745   2.272   1.081   1.112 -0.0809 -0.1418 -0.2455
 8949SOL    HW127746   2.280   1.104   1.209 -0.7474  1.4098 -0.5263
 8949SOL    HW227747   2.303   1.159   1.057  0.0989 -0.9309 -1.2826
 8950SOL     OW27748   3.229   1.041   6.617 -0.0293 -0.3313  0.3313
 8950SOL    HW127749   3.142   0.999   6.642  0.2516 -1.3664 -0.3573
 8950SOL    HW227750   3.236   1.046   6.517  0.2043  0.8370  0.3939
 8951SOL     OW27751   2.402   6.234   3.379 -0.1328  0.1403 -0.7159
 8951SOL    HW127752   2.429   6.316   3.429  2.4693 -0.6417 -0.7135
 8951SOL    HW227753   2.363   6.168   3.443  1.7621 -0.2628  0.0846
 8952SOL     OW27754   6.097   6.777   5.253 -0.0703 -0.0863  0.4006
 8952SOL    HW127755   6.156   6.745   5.179 -1.7252 -0.0469 -0.9975
 8952SOL    HW227756   6.149   6.838   5.313  1.1027  0.5868 -1.2193
 8953SOL     OW27757   6.122   5.264   0.088  0.4143 -0.2972 -0.3156
 8953SOL    HW127758   6.198   5.298   0.144  1.7170 -1.4320 -1.3120
 8953SOL    HW227759   6.041   5.321   0.103  1.7367  1.5940  0.0465
 8954SOL     OW27760   5.217   5.698   3.552 -0.1497  0.6298  0.6808
 8954SOL    HW127761   5.306   5.723   3.514  0.0833 -0.1645  0.6827
 8954SOL    HW227762   5.227   5.614   3.605 -1.1737 -0.2104 -0.4361
 8955SOL     OW27763   0.156   3.053   4.503 -0.0017  0.2173 -0.1918
 8955SOL    HW127764   0.076   3.112   4.512 -0.6417 -0.3760 -1.7481
 8955SOL    HW227765   0.185   3.050   4.408 -0.2204 -2.2618 -0.2382
 8956SOL     OW27766   4.380   5.393   3.245 -0.3844 -0.1019  0.7466
 8956SOL    HW127767   4.324   5.317   3.278 -0.2821 -0.1299  0.8555
 8956SOL    HW227768   4.320   5.462   3.203 -0.5098 -0.0994  0.9274
 8957SOL     OW27769   1.248   1.982   1.953 -0.2921 -0.0420  1.0872
 8957SOL    HW127770   1.171   1.975   2.016 -2.0778  1.9479 -0.6657
 8957SOL    HW227771   1.231   2.057   1.889  0.4837 -2.8865 -2.8743
 8958SOL     OW27772   4.166   4.807   3.428  0.0492  0.2012 -0.3047
 8958SOL    HW127773   4.212   4.891   3.400 -0.9973  0.4445 -1.3907
 8958SOL    HW227774   4.233   4.733   3.435  1.0803  1.2191  1.2336
 8959SOL     OW27775   3.393   0.253   6.622  0.6624  0.2525  0.3052
 8959SOL    HW127776   3.408   0.344   6.660 -1.9321  0.1344  1.9012
 8959SOL    HW227777   3.390   0.258   6.522 -2.0962  2.5139  0.3766
 8960SOL     OW27778   0.325   5.648   1.105  0.1183 -0.0708 -0.0721
 8960SOL    HW127779   0.301   5.591   1.026 -0.1388  0.1956 -0.1880
 8960SOL    HW227780   0.315   5.744   1.081 -3.2189  0.0314  1.2540
 8961SOL     OW27781   3.572   4.153   4.140 -0.3059 -0.0296 -0.0360
 8961SOL    HW127782   3.596   4.127   4.047 -0.0672  1.1728 -0.3269
 8961SOL    HW227783   3.617   4.239   4.164 -1.2374  0.2516  0.7982
 8962SOL     OW27784   6.715   4.485   5.168 -0.0173  0.2729 -0.0765
 8962SOL    HW127785   6.735   4.390   5.192 -2.1161  0.1683  1.6071
 8962SOL    HW227786   6.781   4.545   5.213  0.1200 -0.3026  0.5124
 8963SOL     OW27787   1.774   4.692   3.104  0.1974 -0.0309 -0.1729
 8963SOL    HW127788   1.679   4.719   3.088 -1.2685 -5.1347 -1.9271
 8963SOL    HW227789   1.791   4.688   3.203 -0.8324  2.3854  0.1623
 8964SOL     OW27790   2.513   5.530   0.290 -0.1652 -0.5963  0.4914
 8964SOL    HW127791   2.573   5.517   0.211  1.2261 -0.5888  1.5008
 8964SOL    HW227792   2.418   5.537   0.259  0.4051  0.1328 -1.2332
 8965SOL     OW27793   2.106   6.080   0.887  0.0119  0.9232 -0.5977
 8965SOL    HW127794   2.018   6.074   0.933  1.7534  2.1889  3.2941
 8965SOL    HW227795   2.107   6.161   0.827 -1.9654 -0.1656 -2.2293
 8966SOL     OW27796   6.350   0.226   5.394  0.1912 -0.0995  0.2849
 8966SOL    HW127797   6.345   0.214   5.493 -0.0064  0.8039  0.3900
 8966SOL    HW227798   6.445   0.215   5.364  0.2540 -0.3560  0.5681
 8967SOL     OW27799   1.853   0.089   0.913  0.6424 -0.2644 -0.0669
 8967SOL    HW127800   1.896   0.005   0.946 -1.7388 -1.9068 -0.9517
 8967SOL    HW227801   1.874   0.101   0.816  0.0715 -0.4265 -0.2085
 8968SOL     OW27802   0.597   6.666   0.584  0.5951 -0.0053  0.0450
 8968SOL    HW127803   0.514   6.678   0.638  1.2719 -0.5785  1.2667
 8968SOL    HW227804   0.593   6.724   0.503 -0.8213  0.2553  0.2785
 8969SOL     OW27805   0.496   1.462   2.294  0.2359 -0.1272  0.2179
 8969SOL    HW127806   0.539   1.506   2.372  0.9442 -0.3188 -0.0603
 8969SOL    HW227807   0.554   1.472   2.213  1.0184 -2.5468  0.3901
 8970SOL     OW27808   1.403   4.272   0.380  0.0373  0.6319  0.4433
 8970SOL    HW127809   1.385   4.361   0.420 -2.4676  0.6445 -0.5597
 8970SOL    HW227810   1.356   4.201   0.434 -0.7106  0.3065 -0.6154
 8971SOL     OW27811   5.722   4.163   4.143 -0.3880 -0.1681  0.1343
 8971SOL    HW127812   5.803   4.114   4.176 -1.7771 -1.9309  1.1287
 8971SOL    HW227813   5.663   4.185   4.221 -1.0062  0.8325 -0.6032
 8972SOL     OW27814   1.232   5.816   0.823 -0.9231  0.5328  1.0745
 8972SOL    HW127815   1.240   5.729   0.774  0.6885  1.9107 -1.3403
 8972SOL    HW227816   1.141   5.825   0.863 -2.5421 -0.5609 -2.1112
 8973SOL     OW27817   3.607   1.404   3.626  0.2666  0.2936  0.7346
 8973SOL    HW127818   3.698   1.439   3.648  0.1638  1.9037 -1.1965
 8973SOL    HW227819   3.545   1.421   3.702  1.4862 -0.6668  2.0065
 8974SOL     OW27820   5.535   1.724   4.478  0.1130 -0.0711 -0.8178
 8974SOL    HW127821   5.617   1.669   4.469  0.7888  0.6942  0.4182
 8974SOL    HW227822   5.466   1.673   4.530  0.1277 -0.3745 -1.0951
 8975SOL     OW27823   6.833   2.965   4.614 -0.2921  0.0982  0.1578
 8975SOL    HW127824   6.790   2.903   4.681  1.4680 -1.0882  0.2628
 8975SOL    HW227825   6.922   2.994   4.648 -0.3142  1.2692 -0.7253
 8976SOL     OW27826   6.531   3.453   1.679  0.2225  0.0960  0.0858
 8976SOL    HW127827   6.549   3.504   1.763 -2.2646 -0.0062  0.7386
 8976SOL    HW227828   6.472   3.375   1.699 -2.2000  1.2361 -2.0052
 8977SOL     OW27829   0.058   0.484   1.818  0.3616 -0.5803 -0.5156
 8977SOL    HW127830   0.112   0.450   1.741  1.2294  0.3449 -0.3354
 8977SOL    HW227831  -0.028   0.522   1.785  0.9695  0.3119 -1.1065
 8978SOL     OW27832   4.955   0.500   3.657 -0.4321  0.5478 -0.3199
 8978SOL    HW127833   4.965   0.572   3.589 -1.5051  2.0427  1.0312
 8978SOL    HW227834   4.912   0.420   3.614  1.3646  0.4169 -1.9873
 8979SOL     OW27835   2.011   2.297   5.520  0.0916 -0.7563 -0.1149
 8979SOL    HW127836   2.031   2.313   5.423  0.6888 -1.2135 -0.0678
 8979SOL    HW227837   2.094   2.269   5.567  0.0197  0.4030  0.7398
 8980SOL     OW27838   1.722   3.389   5.993  0.1330 -0.5777 -0.1306
 8980SOL    HW127839   1.780   3.367   5.915  0.2641 -0.2177 -0.1396
 8980SOL    HW227840   1.633   3.345   5.983 -0.2653  0.3863 -1.0598
 8981SOL     OW27841   4.010   3.036   2.613  0.1666 -0.0138  0.5734
 8981SOL    HW127842   3.918   3.077   2.615 -0.0780 -0.5041 -0.2409
 8981SOL    HW227843   4.020   2.973   2.689 -0.2736 -0.1614  0.5128
 8982SOL     OW27844   1.507   6.859   3.349 -0.5635  0.1658  0.4086
 8982SOL    HW127845   1.495   6.951   3.313 -0.6786 -0.0715 -0.1680
 8982SOL    HW227846   1.418   6.815   3.361 -0.4674 -0.2705 -0.3911
 8983SOL     OW27847   5.595   1.113   0.856  0.2064 -0.0760  0.0767
 8983SOL    HW127848   5.519   1.057   0.888 -0.2819  0.2827 -0.4409
 8983SOL    HW227849   5.681   1.064   0.872 -0.1354 -0.5348  0.5545
 8984SOL     OW27850   6.373   3.890   6.574 -0.0148 -0.5003 -0.5152
 8984SOL    HW127851   6.308   3.932   6.637  0.9808  2.5637 -1.3468
 8984SOL    HW227852   6.449   3.849   6.626 -0.6313 -0.5869  0.3267
 8985SOL     OW27853   1.347   6.483   4.687  0.0668 -0.6906 -0.2085
 8985SOL    HW127854   1.281   6.548   4.725 -2.1074 -2.0122 -1.5000
 8985SOL    HW227855   1.345   6.398   4.740  1.5131 -0.4297  0.3242
 8986SOL     OW27856   6.373   3.984   3.179  0.0461  0.1879 -0.1386
 8986SOL    HW127857   6.436   4.015   3.108  0.6235 -1.2997 -0.2971
 8986SOL    HW227858   6.308   3.920   3.141 -0.7563  0.7158  0.3138
 8987SOL     OW27859   0.093   0.493   2.347  0.0603  0.0981  0.2928
 8987SOL    HW127860   0.048   0.551   2.415 -1.0136 -1.8913  1.3280
 8987SOL    HW227861   0.032   0.478   2.270 -0.4546 -1.2590  0.9445
 8988SOL     OW27862   4.558   5.296   3.722  0.1933 -0.8647  0.2994
 8988SOL    HW127863   4.504   5.219   3.756 -1.6350 -0.1900 -0.9069
 8988SOL    HW227864   4.556   5.370   3.789  1.5054 -1.6291  1.2230
 8989SOL     OW27865   1.060   1.506   1.729  0.3607 -0.6919  0.1890
 8989SOL    HW127866   1.021   1.439   1.667 -2.0938  1.1394 -0.4208
 8989SOL    HW227867   1.041   1.479   1.824 -1.8433 -0.2967 -0.0725
 8990SOL     OW27868   2.406   6.246   4.606  0.2072 -0.5130 -0.1604
 8990SOL    HW127869   2.476   6.312   4.579 -1.1960  0.6107 -1.2444
 8990SOL    HW227870   2.374   6.197   4.525 -0.1412 -1.1373  0.3508
 8991SOL     OW27871   3.140   5.473   2.347  0.0908 -0.2855 -0.0798
 8991SOL    HW127872   3.152   5.546   2.415 -0.3253  0.5109 -0.8370
 8991SOL    HW227873   3.132   5.514   2.256  2.9830 -1.4022 -0.9713
 8992SOL     OW27874   4.312   6.210   0.566  0.0430  0.5717  0.1023
 8992SOL    HW127875   4.332   6.182   0.472 -2.7862  0.0705 -0.4456
 8992SOL    HW227876   4.241   6.150   0.603 -0.4052  2.0921  1.8145
 8993SOL     OW27877   3.865   2.543   5.313 -0.7070 -0.3126  0.0918
 8993SOL    HW127878   3.948   2.540   5.257  0.3851 -1.5224  1.6878
 8993SOL    HW227879   3.866   2.624   5.371 -0.2355 -0.7079  0.6522
 8994SOL     OW27880   6.175   1.635   6.755  0.5392 -0.0713  0.4403
 8994SOL    HW127881   6.162   1.704   6.684  2.3038 -1.2232 -1.1253
 8994SOL    HW227882   6.210   1.678   6.838 -1.5281  1.3064  0.6641
 8995SOL     OW27883   0.169   6.858   3.391  0.4235 -0.0944 -0.1483
 8995SOL    HW127884   0.077   6.819   3.397  0.2044  0.2277 -1.1481
 8995SOL    HW227885   0.188   6.912   3.473 -0.9636  1.2665 -0.6702
 8996SOL     OW27886   3.678   5.494   6.169  0.1050  0.3229 -0.4466
 8996SOL    HW127887   3.634   5.579   6.199  0.8932  0.9762 -1.0760
 8996SOL    HW227888   3.712   5.444   6.249 -0.3259  0.6153 -0.0734
 8997SOL     OW27889   0.762   4.415   5.602  0.1305  0.0911  0.2062
 8997SOL    HW127890   0.708   4.397   5.520  1.1910 -0.1123 -0.4738
 8997SOL    HW227891   0.756   4.336   5.663 -1.9278  0.8730  1.0802
 8998SOL     OW27892   0.413   6.804   2.941  0.1930 -0.4027  0.5950
 8998SOL    HW127893   0.416   6.744   3.021 -0.7708 -0.2289  0.7778
 8998SOL    HW227894   0.318   6.818   2.914  0.4866 -0.1207 -0.3350
 8999SOL     OW27895   1.983   3.333   1.164 -0.2110  0.5960  0.0118
 8999SOL    HW127896   1.972   3.356   1.261 -2.0874  1.0142 -0.2487
 8999SOL    HW227897   2.068   3.373   1.129  0.1785  0.9543  1.3298
 9000SOL     OW27898   2.971   2.749   5.783  0.0876 -0.1752  0.4964
 9000SOL    HW127899   2.910   2.804   5.726 -1.1973 -0.5192  1.4829
 9000SOL    HW227900   3.055   2.729   5.732 -0.6086  0.3177 -0.9141
 9001SOL     OW27901   6.800   5.521   3.467 -0.5255 -0.4109  0.5314
 9001SOL    HW127902   6.739   5.553   3.538 -1.9197  1.0890 -1.2499
 9001SOL    HW227903   6.852   5.598   3.430 -0.5089 -0.9839 -0.6891
 9002SOL     OW27904   4.549   2.203   2.868 -0.6812  0.1621 -0.6370
 9002SOL    HW127905   4.519   2.296   2.849 -2.9662 -0.6355 -1.2306
 9002SOL    HW227906   4.521   2.142   2.794  0.6395 -1.0465 -0.1972
 9003SOL     OW27907   2.875   2.266   0.554  0.3914  0.3749 -0.4661
 9003SOL    HW127908   2.883   2.307   0.645 -0.5893  0.5496 -0.4566
 9003SOL    HW227909   2.820   2.183   0.559  0.6553  0.1746 -0.8372
 9004SOL     OW27910   1.462   1.302   2.839 -0.2386  0.1765 -0.2308
 9004SOL    HW127911   1.373   1.347   2.841  0.2601  1.3289 -1.7368
 9004SOL    HW227912   1.483   1.276   2.745 -0.5739 -3.4893  0.5492
 9005SOL     OW27913   4.715   2.789   1.055  0.0890  0.8855 -0.4448
 9005SOL    HW127914   4.673   2.778   0.964  0.3633  0.5823 -0.5385
 9005SOL    HW227915   4.654   2.842   1.114 -1.2073 -0.9313 -0.0653
 9006SOL     OW27916   6.013   1.497   2.526 -0.3701  0.5554 -0.1289
 9006SOL    HW127917   6.077   1.528   2.596 -1.3858  0.0371  1.0744
 9006SOL    HW227918   5.957   1.574   2.495  0.4309  0.8884 -0.7565
 9007SOL     OW27919   3.991   3.705   4.561 -0.3041 -0.2835  0.7006
 9007SOL    HW127920   3.986   3.783   4.499  2.0080  0.6333  1.5671
 9007SOL    HW227921   4.012   3.622   4.509 -0.8361  0.0084  0.0023
 9008SOL     OW27922   4.358   6.470   2.279  0.3096  0.1416  0.5594
 9008SOL    HW127923   4.367   6.552   2.223  2.0413 -0.1632  0.3281
 9008SOL    HW227924   4.446   6.448   2.321  0.1188 -2.0186 -0.0143
 9009SOL     OW27925   3.358   2.895   5.817 -0.1639 -0.1759  0.4544
 9009SOL    HW127926   3.432   2.902   5.750  0.1939 -0.3420  0.8264
 9009SOL    HW227927   3.341   2.984   5.859 -0.0464 -0.1758  0.5019
 9010SOL     OW27928   6.271   6.693   6.087  0.2535  0.3996 -0.6846
 9010SOL    HW127929   6.252   6.596   6.073 -1.1535  0.7170 -1.1516
 9010SOL    HW227930   6.234   6.721   6.176 -0.6846  0.8164 -1.1883
 9011SOL     OW27931   6.691   1.518   4.589 -0.1511 -0.2692 -0.5810
 9011SOL    HW127932   6.778   1.528   4.636 -0.0108 -1.2673 -0.6174
 9011SOL    HW227933   6.686   1.584   4.514  1.9133 -2.1693 -2.5380
 9012SOL     OW27934   4.702   1.928   5.301 -0.0829 -0.5437  0.7280
 9012SOL    HW127935   4.677   1.912   5.397  0.1946 -2.5428  0.5085
 9012SOL    HW227936   4.766   1.857   5.271 -0.1404  0.0735 -0.9455
 9013SOL     OW27937   3.357   4.074   7.002 -0.2056 -0.0233  0.4509
 9013SOL    HW127938   3.323   4.035   6.916 -0.7061 -0.7384  0.9606
 9013SOL    HW227939   3.442   4.030   7.028  1.2274  1.8135 -0.8585
 9014SOL     OW27940   6.363   5.323   0.492  0.0975 -0.5688 -0.4557
 9014SOL    HW127941   6.455   5.360   0.484 -0.6743  1.5068 -0.3619
 9014SOL    HW227942   6.323   5.352   0.579 -0.4934 -1.8192 -0.2896
 9015SOL     OW27943   4.093   0.554   3.958 -0.0521  0.1911 -0.4066
 9015SOL    HW127944   4.071   0.580   4.053 -0.4346 -1.0241 -0.1398
 9015SOL    HW227945   4.189   0.527   3.953  0.1718  0.9810 -0.5427
 9016SOL     OW27946   5.878   2.836   0.686  0.3265  0.1157  0.8341
 9016SOL    HW127947   5.975   2.856   0.676  0.4237  0.4217  2.1257
 9016SOL    HW227948   5.856   2.830   0.784 -0.8221 -0.6037  0.5472
 9017SOL     OW27949   5.949   0.676   2.345  0.1597  0.0715  0.1602
 9017SOL    HW127950   5.981   0.673   2.440  1.9021  1.0169 -0.3561
 9017SOL    HW227951   5.932   0.583   2.313  1.5949 -0.4301  0.7667
 9018SOL     OW27952   4.482   6.507   1.849  0.1131 -0.6389 -0.2272
 9018SOL    HW127953   4.555   6.439   1.851 -0.5409 -1.5089 -2.2677
 9018SOL    HW227954   4.470   6.547   1.939  3.7051  0.2360 -0.0234
 9019SOL     OW27955   5.568   2.100   6.856 -0.3898  0.8833  0.1386
 9019SOL    HW127956   5.550   2.003   6.840  1.0842  0.6286 -0.0895
 9019SOL    HW227957   5.586   2.145   6.769  3.1572  0.4322  0.5045
 9020SOL     OW27958   4.055   6.073   3.255  0.2174  0.3997  1.0057
 9020SOL    HW127959   4.004   6.051   3.339 -0.5797  1.5838  0.8631
 9020SOL    HW227960   3.994   6.119   3.191  1.2124  0.8872  0.3857
 9021SOL     OW27961   2.753   4.360   6.914  0.6971 -0.1385 -0.1023
 9021SOL    HW127962   2.712   4.409   6.837  0.1352  0.3726  0.5198
 9021SOL    HW227963   2.825   4.299   6.879  0.4307  0.0608 -1.0332
 9022SOL     OW27964   3.954   6.596   2.630  0.0439  0.5866 -0.4099
 9022SOL    HW127965   4.030   6.635   2.578  0.7972 -0.8587 -0.4432
 9022SOL    HW227966   3.927   6.509   2.588 -1.7235  1.1272 -0.4730
 9023SOL     OW27967   1.887   0.217   2.657 -0.3813  0.7504 -0.3215
 9023SOL    HW127968   1.932   0.164   2.729 -0.1389  1.3383 -0.0370
 9023SOL    HW227969   1.894   0.167   2.570  0.4533  0.6310 -0.1954
 9024SOL     OW27970   0.617   0.414   3.960 -0.2180 -0.0066  0.4270
 9024SOL    HW127971   0.651   0.350   3.892 -0.6142 -1.7260  1.7809
 9024SOL    HW227972   0.559   0.483   3.915  3.2937  1.8785 -1.6583
 9025SOL     OW27973   2.664   1.446   5.545  0.0560  0.0257 -0.1120
 9025SOL    HW127974   2.707   1.369   5.498  0.3687 -0.6576  1.2514
 9025SOL    HW227975   2.565   1.433   5.548  0.1892 -0.9210  1.0800
 9026SOL     OW27976   1.673   5.334   0.733 -0.0441  1.0253 -0.1959
 9026SOL    HW127977   1.706   5.394   0.661 -0.6614  0.3532 -1.0554
 9026SOL    HW227978   1.630   5.253   0.693  0.6300  0.0667  0.9284
 9027SOL     OW27979   4.361   1.664   4.756 -0.5111  0.0401  0.5606
 9027SOL    HW127980   4.313   1.681   4.842  0.0266 -0.1243  0.8948
 9027SOL    HW227981   4.396   1.750   4.719  0.2469 -0.0323  1.0941
 9028SOL     OW27982   5.057   6.250   2.388  0.4579  0.1233 -0.0302
 9028SOL    HW127983   5.042   6.220   2.294  0.7398 -1.8924  0.5366
 9028SOL    HW227984   5.153   6.274   2.401  0.1545  1.7587 -0.5899
 9029SOL     OW27985   3.048   0.522   4.519 -0.2486  0.5308  0.0412
 9029SOL    HW127986   2.971   0.508   4.457  1.0124 -0.1389 -1.4568
 9029SOL    HW227987   3.093   0.609   4.497 -0.0815  0.5217  0.3371
 9030SOL     OW27988   2.335   6.084   5.108 -0.2150 -0.8996  0.3052
 9030SOL    HW127989   2.382   5.996   5.106  1.7481  0.0925  0.5772
 9030SOL    HW227990   2.365   6.139   5.029 -2.4223 -0.9262 -0.6233
 9031SOL     OW27991   5.984   1.698   5.566  0.0144  0.1516  0.2768
 9031SOL    HW127992   6.054   1.692   5.495  0.2368  1.9745  0.2958
 9031SOL    HW227993   5.963   1.606   5.600  0.7121 -0.6501 -1.3408
 9032SOL     OW27994   2.705   4.037   1.351  0.1343  0.4941  0.9148
 9032SOL    HW127995   2.616   4.082   1.347  0.6339  1.5832  1.5321
 9032SOL    HW227996   2.760   4.079   1.423  1.0668 -0.3264  0.7021
 9033SOL     OW27997   3.364   0.885   5.815 -0.0898  0.1514 -0.6348
 9033SOL    HW127998   3.394   0.941   5.738 -0.0821  0.1827 -0.6087
 9033SOL    HW227999   3.333   0.944   5.889 -2.7732  0.1324 -1.6334
 9034SOL     OW28000   0.719   5.082   3.422  0.2114  0.2721  0.2546
 9034SOL    HW128001   0.766   4.997   3.447 -0.5957 -0.5639 -0.9764
 9034SOL    HW228002   0.787   5.155   3.410  1.5824 -1.3774 -3.5942
 9035SOL     OW28003   1.834   5.103   5.590 -0.3918  0.1819  0.3318
 9035SOL    HW128004   1.846   5.059   5.679 -1.1677  1.7662  1.2763
 9035SOL    HW228005   1.810   5.199   5.604  0.6835  0.7879 -1.6207
 9036SOL     OW28006   5.915   3.707   3.174 -0.2228  0.2566  0.1983
 9036SOL    HW128007   5.825   3.714   3.216  0.0451  0.2492  0.7913
 9036SOL    HW228008   5.971   3.641   3.224  0.2855  0.6529  0.1705
 9037SOL     OW28009   0.232   4.961   4.709  0.4660 -0.2322 -0.1952
 9037SOL    HW128010   0.162   4.908   4.756  1.6022 -2.4978 -0.8996
 9037SOL    HW228011   0.289   5.008   4.775 -3.0905  3.8335  0.4048
 9038SOL     OW28012   3.916   3.949   2.680  0.5520  0.4169  0.4538
 9038SOL    HW128013   3.986   3.893   2.723  1.1396  1.0243  0.3088
 9038SOL    HW228014   3.922   3.939   2.581 -1.4760 -1.8074  0.4450
 9039SOL     OW28015   2.930   4.795   4.540  0.0256  0.1192 -0.5981
 9039SOL    HW128016   3.008   4.852   4.517  1.1539 -0.4800  1.5186
 9039SOL    HW228017   2.870   4.787   4.460  2.6164 -0.2502 -2.6280
 9040SOL     OW28018   5.295   2.257   3.651  0.4120  0.0433  0.4323
 9040SOL    HW128019   5.233   2.252   3.573 -0.9514  0.9268  1.4014
 9040SOL    HW228020   5.389   2.246   3.620 -0.2140 -1.4856 -1.0805
 9041SOL     OW28021   0.104   3.043   3.800 -0.3197 -0.4226  0.8266
 9041SOL    HW128022   0.073   2.953   3.770  1.7922 -0.9633  0.1521
 9041SOL    HW228023   0.159   3.034   3.883 -1.7796  0.5096  1.9522
 9042SOL     OW28024   6.776   6.227   0.328  0.0031 -0.2776 -0.0132
 9042SOL    HW128025   6.775   6.154   0.259 -0.5557 -0.5177  0.2430
 9042SOL    HW228026   6.822   6.193   0.410 -0.8031 -0.5568  0.3304
 9043SOL     OW28027   4.017   2.363   0.134 -0.3392  0.5680 -0.1393
 9043SOL    HW128028   4.041   2.268   0.113 -0.7999  0.8066 -2.0056
 9043SOL    HW228029   3.955   2.365   0.212 -1.5165 -0.8465 -0.9657
 9044SOL     OW28030   1.379   1.917   1.286 -0.2874  0.3677 -0.6740
 9044SOL    HW128031   1.401   1.990   1.223 -0.5957  1.1331  0.0858
 9044SOL    HW228032   1.451   1.847   1.283 -0.3173  0.3820 -1.8663
 9045SOL     OW28033   2.392   1.428   3.237  0.8087  0.0656  0.0039
 9045SOL    HW128034   2.462   1.499   3.243 -1.0295  1.9220  0.7445
 9045SOL    HW228035   2.344   1.421   3.325 -0.4850 -0.5429 -0.7262
 9046SOL     OW28036   0.372   5.334   6.623  0.2795 -0.3933 -0.4472
 9046SOL    HW128037   0.320   5.412   6.588  0.4386  0.3091  0.8302
 9046SOL    HW228038   0.463   5.364   6.652 -0.4259 -0.5600  2.1656
 9047SOL     OW28039   5.827   2.216   6.945 -0.0551 -0.0665  0.1643
 9047SOL    HW128040   5.768   2.160   6.886  0.9759 -1.4782  0.4322
 9047SOL    HW228041   5.886   2.156   6.999  1.0088  1.2929  0.5478
 9048SOL     OW28042   2.226   4.976   2.603 -0.1362  0.1985  0.1938
 9048SOL    HW128043   2.272   4.888   2.597 -1.7976 -0.6957 -0.0696
 9048SOL    HW228044   2.141   4.972   2.551 -0.3689  1.8916  0.3899
 9049SOL     OW28045   2.960   6.177   2.783 -0.0271  0.6471  0.0748
 9049SOL    HW128046   2.965   6.249   2.714  0.4853  0.4010 -0.1471
 9049SOL    HW228047   2.910   6.099   2.746 -0.6862  0.9271  0.3562
 9050SOL     OW28048   2.948   6.651   6.469  0.1827 -0.2870 -0.2407
 9050SOL    HW128049   2.969   6.746   6.447  1.3998 -0.4630  0.0697
 9050SOL    HW228050   2.850   6.641   6.484 -0.2337  0.5420 -2.0671
 9051SOL     OW28051   3.376   2.900   4.595  1.0510  0.2232  0.0367
 9051SOL    HW128052   3.419   2.824   4.546 -1.6481 -1.1230 -0.4581
 9051SOL    HW228053   3.324   2.955   4.530  1.1440  1.1660  0.7466
 9052SOL     OW28054   5.822   5.893   0.625 -0.0363 -0.0171  0.2750
 9052SOL    HW128055   5.881   5.952   0.570 -0.6212  0.5709  0.2659
 9052SOL    HW228056   5.762   5.949   0.682  1.5388 -0.5728  2.6405
 9053SOL     OW28057   2.748   4.757   4.765 -0.0213 -0.5604  0.6851
 9053SOL    HW128058   2.825   4.759   4.702 -0.7765 -0.1926 -0.2466
 9053SOL    HW228059   2.767   4.692   4.839  0.2931 -2.1098 -0.6931
 9054SOL     OW28060   1.861   6.829   6.476 -0.0378  0.4099 -0.1800
 9054SOL    HW128061   1.901   6.792   6.560 -1.0547  1.5007  0.8151
 9054SOL    HW228062   1.932   6.877   6.425  0.8740 -1.2544 -0.5843
 9055SOL     OW28063   0.859   3.796   5.893  0.2229  0.4932  0.0787
 9055SOL    HW128064   0.791   3.793   5.966  1.8098  1.7079  1.6978
 9055SOL    HW228065   0.950   3.785   5.932  1.0060 -1.1926 -2.0383
 9056SOL     OW28066   5.380   2.359   1.315  0.0825 -0.1040 -0.2904
 9056SOL    HW128067   5.318   2.434   1.291  0.6574 -0.1049 -1.9247
 9056SOL    HW228068   5.338   2.272   1.292 -0.5013 -0.3144  1.4233
 9057SOL     OW28069   5.529   2.021   6.287 -0.3814 -0.1559 -0.2532
 9057SOL    HW128070   5.556   2.113   6.261 -1.0246  0.3139  0.6794
 9057SOL    HW228071   5.588   1.988   6.361 -0.9347  0.0192  0.2823
 9058SOL     OW28072   5.965   0.180   4.351 -0.1999  0.1586 -0.2697
 9058SOL    HW128073   5.925   0.105   4.297  1.2630  0.2166 -1.5172
 9058SOL    HW228074   5.896   0.250   4.368 -0.8082 -0.0496 -1.7595
 9059SOL     OW28075   4.646   6.359   2.417  0.2181 -0.1753 -0.3108
 9059SOL    HW128076   4.628   6.380   2.514  0.0383 -0.2464 -0.3275
 9059SOL    HW228077   4.719   6.418   2.383  0.0028  0.1311 -0.2432
 9060SOL     OW28078   2.285   2.423   1.049  0.3252 -0.5729  0.1501
 9060SOL    HW128079   2.243   2.406   1.138  1.7281 -1.8082  0.5968
 9060SOL    HW228080   2.310   2.336   1.006  2.6275  0.1115  0.0078
 9061SOL     OW28081   2.345   2.297   6.468  0.0143  0.8773 -0.0478
 9061SOL    HW128082   2.437   2.324   6.496  0.4392  0.2980 -0.8630
 9061SOL    HW228083   2.344   2.199   6.446 -0.4136  1.1886 -1.5248
 9062SOL     OW28084   5.687   6.703   0.926  0.1622 -0.0655  0.4017
 9062SOL    HW128085   5.676   6.659   0.837  1.9772 -0.1158  0.1685
 9062SOL    HW228086   5.666   6.637   0.999  1.5309 -0.9251  0.0404
 9063SOL     OW28087   6.555   4.101   6.750  0.5570  0.1334 -0.4481
 9063SOL    HW128088   6.575   4.005   6.731 -0.1403 -0.1345  0.1135
 9063SOL    HW228089   6.509   4.142   6.671 -1.6442 -0.7653  0.2948
 9064SOL     OW28090   0.240   0.259   3.058  0.4185  0.1834  0.5706
 9064SOL    HW128091   0.265   0.276   3.153  2.4764 -0.6030  0.2303
 9064SOL    HW228092   0.309   0.299   2.998 -0.8358  0.6520 -0.6202
 9065SOL     OW28093   3.242   1.389   2.051 -0.2428  0.5130  0.3222
 9065SOL    HW128094   3.176   1.459   2.080  0.7378  1.4368  0.3786
 9065SOL    HW228095   3.236   1.311   2.113 -0.7764  0.8994  0.7776
 9066SOL     OW28096   2.400   3.847   1.403 -0.1138  0.4214 -0.7340
 9066SOL    HW128097   2.408   3.937   1.446 -1.2296  0.7515 -1.1772
 9066SOL    HW228098   2.488   3.799   1.410  1.3236  2.5413 -2.7210
 9067SOL     OW28099   4.896   3.004   4.825 -0.0239 -0.2858 -0.6029
 9067SOL    HW128100   4.844   2.936   4.773 -0.3738 -0.2733 -0.2803
 9067SOL    HW228101   4.873   3.096   4.793 -0.2764 -0.2758 -0.3942
 9068SOL     OW28102   2.349   1.277   0.740  0.7711 -0.4257 -0.2263
 9068SOL    HW128103   2.321   1.216   0.814  0.3021  0.4850  0.3651
 9068SOL    HW228104   2.445   1.260   0.717  0.8131 -0.9655  0.3281
 9069SOL     OW28105   1.654   2.152   2.533  0.2027 -0.4029  0.2561
 9069SOL    HW128106   1.686   2.244   2.555 -0.9573  0.2096 -0.4685
 9069SOL    HW228107   1.566   2.159   2.485 -0.1519 -1.9153  0.6574
 9070SOL     OW28108   4.047   6.456   1.520  0.1742 -0.3438  0.2672
 9070SOL    HW128109   4.011   6.539   1.564 -0.6343  0.7540 -2.2527
 9070SOL    HW228110   3.972   6.391   1.506 -0.4173  0.7621 -2.4196
 9071SOL     OW28111   6.292   2.111   0.875 -0.9048  0.4758 -0.6916
 9071SOL    HW128112   6.350   2.072   0.803  0.4976  0.3441  0.4718
 9071SOL    HW228113   6.231   2.179   0.835 -1.5776 -1.0187 -2.3292
 9072SOL     OW28114   5.619   2.101   0.528 -0.9114  0.1192  0.0796
 9072SOL    HW128115   5.572   2.099   0.439  0.0289  0.8719 -0.4559
 9072SOL    HW228116   5.659   2.191   0.543 -0.2416 -0.2840  0.8277
 9073SOL     OW28117   3.620   5.490   2.915  0.5686  0.0379  0.7434
 9073SOL    HW128118   3.576   5.424   2.853  0.3966 -0.7996  1.7302
 9073SOL    HW228119   3.713   5.507   2.885 -0.5780  2.4370 -1.8510
 9074SOL     OW28120   2.732   0.014   3.519 -0.5040  0.3559  0.2419
 9074SOL    HW128121   2.759   0.109   3.510  0.4395  0.2717  1.6968
 9074SOL    HW228122   2.668   0.005   3.596 -1.3584 -0.0553 -0.5040
 9075SOL     OW28123   1.887   4.967   6.339  0.9111  0.0234  0.1102
 9075SOL    HW128124   1.824   5.038   6.305  0.0843 -1.0769 -0.7227
 9075SOL    HW228125   1.886   4.968   6.439 -1.6093 -0.9196  0.1604
 9076SOL     OW28126   6.955   2.316   3.205  0.5611  0.1912  0.5913
 9076SOL    HW128127   6.981   2.405   3.244 -1.4489  1.2959 -0.3933
 9076SOL    HW228128   7.025   2.287   3.141  1.0305  1.3298  0.5507
 9077SOL     OW28129   2.582   6.325   1.804  0.2385  0.6861 -0.3094
 9077SOL    HW128130   2.654   6.256   1.793 -0.3428  0.2566 -1.5399
 9077SOL    HW228131   2.529   6.332   1.720 -4.0077 -2.1716  1.7791
 9078SOL     OW28132   0.153   6.359   5.365 -0.0552 -0.5584 -0.0329
 9078SOL    HW128133   0.063   6.317   5.377  0.4895 -1.0618  2.9586
 9078SOL    HW228134   0.215   6.293   5.322 -0.1797 -1.5877  1.2984
 9079SOL     OW28135   1.250   5.643   4.735 -0.7999 -0.0453 -0.0175
 9079SOL    HW128136   1.286   5.626   4.827  0.1443  0.7047 -0.2327
 9079SOL    HW228137   1.269   5.738   4.709  1.5239 -0.9560 -2.0881
 9080SOL     OW28138   3.532   3.791   1.528 -0.3867  0.0423  0.8009
 9080SOL    HW128139   3.437   3.778   1.500 -0.1683  1.2253 -0.5784
 9080SOL    HW228140   3.564   3.708   1.574 -2.0222 -0.4335  1.1486
 9081SOL     OW28141   4.281   6.255   6.477  0.0377 -0.7611 -0.0420
 9081SOL    HW128142   4.331   6.214   6.554 -0.7639 -0.1447  0.8380
 9081SOL    HW228143   4.185   6.266   6.503 -0.3843 -1.1695 -1.3993
 9082SOL     OW28144   3.104   2.873   0.071  0.2506 -0.7533 -0.7608
 9082SOL    HW128145   3.078   2.899   0.164  2.0105  2.9991 -1.1605
 9082SOL    HW228146   3.133   2.777   0.070 -1.6631 -1.4937  2.0734
 9083SOL     OW28147   4.301   6.883   1.780  0.2697 -0.3187  0.0863
 9083SOL    HW128148   4.396   6.881   1.811 -0.0408 -1.6190  1.0318
 9083SOL    HW228149   4.246   6.820   1.836 -1.1904  0.5561 -0.3064
 9084SOL     OW28150   2.126   3.819   1.069 -0.3479 -0.2005 -0.3463
 9084SOL    HW128151   2.131   3.813   0.969  1.1518 -0.7433 -0.2644
 9084SOL    HW228152   2.217   3.809   1.108 -1.0000 -0.7240  1.1313
 9085SOL     OW28153   0.946   4.106   0.419 -0.4106  0.1157  0.0114
 9085SOL    HW128154   0.935   4.110   0.320 -1.0195 -0.3332  0.0553
 9085SOL    HW228155   0.904   4.186   0.461 -0.5350  0.0906 -0.0653
 9086SOL     OW28156   6.662   3.312   6.580 -0.4862  0.5621  0.5268
 9086SOL    HW128157   6.643   3.214   6.580 -1.0818  0.6702  0.2888
 9086SOL    HW228158   6.650   3.348   6.487  1.3062  0.5731  0.2659
 9087SOL     OW28159   4.775   4.125   2.055 -0.0053  0.2733 -0.3499
 9087SOL    HW128160   4.697   4.186   2.067  0.4812  0.9550 -0.6081
 9087SOL    HW228161   4.769   4.081   1.965 -0.0245  0.4199 -0.4195
 9088SOL     OW28162   5.751   6.438   2.391 -0.3037  0.3484  0.0963
 9088SOL    HW128163   5.773   6.476   2.301 -0.7955 -1.2422 -0.7314
 9088SOL    HW228164   5.816   6.365   2.413 -0.8506 -0.0199  0.5270
 9089SOL     OW28165   0.031   2.706   0.904 -0.1955  0.4294  0.6574
 9089SOL    HW128166   0.056   2.803   0.898  0.7222  0.1605 -0.4551
 9089SOL    HW228167  -0.040   2.694   0.972 -4.2101  2.6779 -2.6449
 9090SOL     OW28168   6.216   1.746   1.342  0.1290  0.1626 -0.5531
 9090SOL    HW128169   6.131   1.727   1.390 -0.6224 -2.1511 -2.5693
 9090SOL    HW228170   6.285   1.677   1.367  0.6707  0.6594 -0.6467
 9091SOL     OW28171   2.376   5.754   0.651 -0.1627  0.0842 -0.7069
 9091SOL    HW128172   2.365   5.848   0.618 -0.0245  0.1741 -0.4964
 9091SOL    HW228173   2.460   5.715   0.614 -0.3529 -0.0435 -1.0007
 9092SOL     OW28174   5.088   6.524   5.667 -0.0516 -0.4941 -0.7400
 9092SOL    HW128175   5.099   6.427   5.649  2.9873 -0.3884  0.0072
 9092SOL    HW228176   5.011   6.539   5.729 -1.3433 -2.2563 -1.8590
 9093SOL     OW28177   5.891   4.245   3.688  0.0727  0.3328  0.2563
 9093SOL    HW128178   5.863   4.340   3.705 -1.3296  0.1428 -0.8331
 9093SOL    HW228179   5.941   4.240   3.602 -0.0865  0.0309  0.1817
 9094SOL     OW28180   1.660   6.917   2.486  0.1108  0.0538  0.2878
 9094SOL    HW128181   1.757   6.939   2.498 -0.2245  0.2651  3.4716
 9094SOL    HW228182   1.636   6.925   2.389  3.1510  0.3292 -0.5656
 9095SOL     OW28183   5.449   2.527   0.814  0.1160  0.3316  0.1683
 9095SOL    HW128184   5.467   2.488   0.724 -1.2955  3.1028 -1.4152
 9095SOL    HW228185   5.522   2.591   0.838 -0.5196  1.1015  0.0709
 9096SOL     OW28186   1.745   3.237   7.000  0.2924  0.2086 -0.1771
 9096SOL    HW128187   1.826   3.191   7.037 -0.3095 -0.9934 -0.3212
 9096SOL    HW228188   1.717   3.194   6.914 -0.3049  0.8267 -0.3069
 9097SOL     OW28189   0.774   5.031   4.544  0.6710 -0.4175 -0.6123
 9097SOL    HW128190   0.710   4.956   4.562  1.4254 -0.7623  0.7111
 9097SOL    HW228191   0.738   5.087   4.470 -0.8780 -0.9387 -0.2982
 9098SOL     OW28192   3.160   6.526   2.962  0.4398 -0.1581 -0.0876
 9098SOL    HW128193   3.135   6.614   2.921  0.9541 -0.0616 -0.2057
 9098SOL    HW228194   3.090   6.498   3.027 -0.0288  0.0445 -0.5003
 9099SOL     OW28195   3.026   2.337   6.179  0.0601 -0.3800 -0.8876
 9099SOL    HW128196   2.929   2.349   6.197  0.3293  0.3156  0.1950
 9099SOL    HW228197   3.079   2.396   6.240  1.2174 -1.8878 -0.3521
 9100SOL     OW28198   2.404   3.251   5.869  0.1542  0.0013  0.1783
 9100SOL    HW128199   2.349   3.178   5.828 -0.5136  0.1090  0.8595
 9100SOL    HW228200   2.480   3.274   5.808 -0.7585  0.1011 -0.9651
 9101SOL     OW28201   0.363   0.309   6.147 -0.0563 -0.3751 -0.0707
 9101SOL    HW128202   0.336   0.327   6.241  0.0127 -0.9767  0.0729
 9101SOL    HW228203   0.331   0.218   6.120  0.1700 -0.3236 -0.5311
 9102SOL     OW28204   2.538   6.991   3.726 -0.4438 -0.4589 -0.1526
 9102SOL    HW128205   2.460   7.053   3.735 -0.9444 -1.2840  1.5673
 9102SOL    HW228206   2.509   6.897   3.747  1.2202 -0.6241  1.7538
 9103SOL     OW28207   6.829   0.252   1.254 -0.4198 -0.3837 -0.0446
 9103SOL    HW128208   6.914   0.269   1.205 -0.7705 -0.2235 -0.6153
 9103SOL    HW228209   6.785   0.170   1.217 -0.2989 -0.7276  0.5506
 9104SOL     OW28210   1.490   5.793   6.580 -0.3926  0.2628  0.1426
 9104SOL    HW128211   1.469   5.706   6.536 -1.9342  0.6054  0.1413
 9104SOL    HW228212   1.586   5.794   6.608 -0.2974 -1.3480 -0.0363
 9105SOL     OW28213   2.024   3.395   0.825  0.0735 -0.8257 -0.6772
 9105SOL    HW128214   2.039   3.394   0.726 -0.9495  0.4990 -0.8658
 9105SOL    HW228215   2.099   3.444   0.870  0.7825 -1.8316 -0.7280
 9106SOL     OW28216   0.169   1.355   5.347  0.7671  0.2841 -0.5975
 9106SOL    HW128217   0.197   1.288   5.278  0.3240 -0.5968  0.0692
 9106SOL    HW228218   0.129   1.435   5.301  1.6436  0.2754 -1.4122
 9107SOL     OW28219   3.130   5.902   0.883  0.3869 -0.5791 -0.2439
 9107SOL    HW128220   3.076   5.954   0.818 -0.0241 -0.9020 -0.1680
 9107SOL    HW228221   3.092   5.915   0.975  1.7272  0.8944  0.1346
 9108SOL     OW28222   3.054   2.767   6.488  0.5932 -0.2303  0.4982
 9108SOL    HW128223   3.059   2.734   6.583  1.3959 -0.0557  0.5242
 9108SOL    HW228224   2.972   2.822   6.477  1.1707  0.8811  1.4771
 9109SOL     OW28225   4.166   1.237   1.878  0.0118 -0.4651 -0.0161
 9109SOL    HW128226   4.252   1.273   1.843  1.1876 -3.5976 -0.7286
 9109SOL    HW228227   4.093   1.251   1.810  0.8851 -1.0909 -1.1218
 9110SOL     OW28228   1.291   4.428   3.301 -0.4228 -0.4466  0.9408
 9110SOL    HW128229   1.205   4.378   3.309 -1.4096  1.0479  0.1467
 9110SOL    HW228230   1.368   4.363   3.303 -1.4505 -1.7013  3.0664
 9111SOL     OW28231   0.942   1.019   4.274  0.5640 -0.0090 -0.1176
 9111SOL    HW128232   0.875   0.946   4.282 -0.1524  0.6683  0.2526
 9111SOL    HW228233   0.999   1.004   4.194  0.8088 -1.2680  0.2684
 9112SOL     OW28234   5.336   3.252   1.873  0.4646  0.5106  0.0571
 9112SOL    HW128235   5.241   3.284   1.865  1.3723  3.1242 -1.2605
 9112SOL    HW228236   5.347   3.168   1.821 -1.0296  0.3883 -0.1081
 9113SOL     OW28237   2.700   2.403   3.775 -0.2029  0.0279  0.0352
 9113SOL    HW128238   2.650   2.464   3.714 -3.4410 -0.0500  2.3694
 9113SOL    HW228239   2.749   2.334   3.721 -0.3027  1.7950 -2.4745
 9114SOL     OW28240   6.036   3.164   4.563 -0.3024 -0.2716  0.0151
 9114SOL    HW128241   6.008   3.094   4.498 -0.3410 -1.1349  0.9331
 9114SOL    HW228242   6.132   3.188   4.547 -0.3626 -0.3565 -0.4645
 9115SOL     OW28243   6.150   2.627   5.464 -0.0697  0.3625  0.3017
 9115SOL    HW128244   6.225   2.690   5.441  0.5644 -0.5506 -0.2278
 9115SOL    HW228245   6.173   2.578   5.548 -0.5584  0.8321  0.7099
 9116SOL     OW28246   6.263   0.090   3.949  0.0244 -0.4437  0.4503
 9116SOL    HW128247   6.240  -0.002   3.981 -0.9509  0.2904  1.9865
 9116SOL    HW228248   6.260   0.153   4.027 -1.0481  1.2115 -0.8833
 9117SOL     OW28249   6.665   5.704   2.665 -0.2878  0.6219  0.4993
 9117SOL    HW128250   6.635   5.611   2.686  1.4106  0.1987  1.2564
 9117SOL    HW228251   6.659   5.719   2.567 -0.3044 -0.4016  0.3266
 9118SOL     OW28252   5.865   0.916   4.043 -0.0399 -0.3357 -0.1838
 9118SOL    HW128253   5.831   0.876   4.128 -0.6216  0.8364  0.1422
 9118SOL    HW228254   5.866   1.015   4.050 -0.5589 -0.1932 -1.7282
 9119SOL     OW28255   2.673   2.655   6.831 -0.1702  0.1830  0.3293
 9119SOL    HW128256   2.583   2.694   6.811 -0.3746  0.1766  1.2011
 9119SOL    HW228257   2.736   2.728   6.859 -0.1886  0.0503  0.7131
 9120SOL     OW28258   1.710   3.976   1.035  0.1202  0.6526  0.5272
 9120SOL    HW128259   1.651   4.015   1.106 -0.9415  1.4765 -0.7617
 9120SOL    HW228260   1.790   3.935   1.078 -2.3993 -2.6605  2.6186
 9121SOL     OW28261   2.167   1.457   3.459  0.1010  0.2614  0.3272
 9121SOL    HW128262   2.192   1.543   3.502 -1.2949  1.4997 -1.1905
 9121SOL    HW228263   2.067   1.453   3.449  0.2584 -0.8136 -1.0472
 9122SOL     OW28264   1.723   4.542   6.263  0.6183  0.0406 -0.1675
 9122SOL    HW128265   1.747   4.618   6.203  2.6079 -1.1043 -0.9306
 9122SOL    HW228266   1.706   4.460   6.208  0.5685 -0.5711  0.7313
 9123SOL     OW28267   0.674   0.819   0.167  0.0580 -0.0496 -0.2210
 9123SOL    HW128268   0.761   0.839   0.121 -0.4879  0.2282 -1.1602
 9123SOL    HW228269   0.658   0.888   0.237  2.4692 -2.2531  2.7812
 9124SOL     OW28270   5.496   5.380   3.724 -0.3271  0.4900 -0.3456
 9124SOL    HW128271   5.532   5.288   3.742 -1.1956  0.3548  0.8382
 9124SOL    HW228272   5.453   5.381   3.634 -1.9550 -0.8358  0.3509
 9125SOL     OW28273   3.805   4.616   0.896 -0.4571 -0.0133 -0.4054
 9125SOL    HW128274   3.805   4.554   0.818 -0.0657  0.2622 -0.6300
 9125SOL    HW228275   3.721   4.669   0.897 -0.6648 -0.3436 -0.3777
 9126SOL     OW28276   0.088   4.384   6.174  0.0139 -0.5932 -0.2341
 9126SOL    HW128277   0.018   4.382   6.245  1.0784 -1.4428  0.8379
 9126SOL    HW228278   0.093   4.294   6.130  0.7415 -0.7042  0.0513
 9127SOL     OW28279   2.675   3.077   0.069 -0.4146  0.6162 -0.3103
 9127SOL    HW128280   2.605   3.116   0.131  0.4258 -1.7598  2.3315
 9127SOL    HW228281   2.757   3.134   0.073  1.0447 -1.3292  4.0269
 9128SOL     OW28282   0.781   2.617   5.079  0.1737 -0.9829 -0.2500
 9128SOL    HW128283   0.850   2.684   5.052  0.7895 -1.2309  0.6963
 9128SOL    HW228284   0.817   2.524   5.066  0.5501 -1.1128  1.5424
 9129SOL     OW28285   1.631   4.704   5.423 -0.4506  0.4808  0.5102
 9129SOL    HW128286   1.685   4.740   5.347  1.2972  0.6533  1.7562
 9129SOL    HW228287   1.620   4.605   5.412 -1.9131  0.7587 -0.9239
 9130SOL     OW28288   6.600   4.076   2.439  0.3610  0.1874 -0.2538
 9130SOL    HW128289   6.559   3.988   2.466 -1.5839  1.2203  0.3405
 9130SOL    HW228290   6.699   4.071   2.451  0.0333 -0.7907  3.3098
 9131SOL     OW28291   6.139   3.319   4.189 -0.1536  0.5161  0.0264
 9131SOL    HW128292   6.047   3.332   4.226 -1.0070 -1.6744 -1.1696
 9131SOL    HW228293   6.151   3.223   4.162  2.3483  0.8453 -0.2383
 9132SOL     OW28294   1.126   4.037   5.910 -0.1206 -0.1885  0.0878
 9132SOL    HW128295   1.172   3.952   5.940 -2.7281 -2.0266 -0.7904
 9132SOL    HW228296   1.089   4.084   5.990 -0.4860 -1.0384  0.4366
 9133SOL     OW28297   6.581   6.513   1.617  0.9219  0.1348 -0.0373
 9133SOL    HW128298   6.555   6.422   1.648  1.0094 -0.1542 -0.7892
 9133SOL    HW228299   6.669   6.538   1.659  0.2639  0.4271  1.1957
 9134SOL     OW28300   2.854   3.545   5.147  0.4195 -0.3787  0.1803
 9134SOL    HW128301   2.822   3.542   5.242  1.0185 -2.7739  0.3608
 9134SOL    HW228302   2.842   3.455   5.105  3.5923 -0.4085 -0.8630
 9135SOL     OW28303   2.868   3.809   5.059  0.1030 -0.0033  0.0185
 9135SOL    HW128304   2.845   3.715   5.082 -0.0586  0.4656  1.9474
 9135SOL    HW228305   2.810   3.871   5.112 -0.0653  1.1942 -1.5029
 9136SOL     OW28306   6.365   0.309   6.201 -0.4863 -0.3911  0.5751
 9136SOL    HW128307   6.334   0.397   6.164 -0.3069  0.1103  1.5935
 9136SOL    HW228308   6.331   0.235   6.142  1.0314  0.4306 -1.4337
 9137SOL     OW28309   5.538   6.019   4.213 -0.1898 -0.4224  0.4661
 9137SOL    HW128310   5.530   5.939   4.154 -1.2220  0.7998 -1.1458
 9137SOL    HW228311   5.452   6.070   4.213  0.3511  0.5663  1.6450
 9138SOL     OW28312   2.897   5.061   5.839  0.2011 -0.2051 -0.0273
 9138SOL    HW128313   2.952   4.980   5.818 -0.4323 -0.5959 -0.1999
 9138SOL    HW228314   2.817   5.063   5.779 -0.8673 -0.5557  1.3475
 9139SOL     OW28315   3.125   1.952   2.094  0.0371 -0.0958 -0.1234
 9139SOL    HW128316   3.154   1.865   2.135  0.3884  0.1454  0.1458
 9139SOL    HW228317   3.205   2.009   2.077 -0.0357 -0.4363 -1.7459
 9140SOL     OW28318   0.853   2.049   6.230 -0.4232 -0.1307 -0.7624
 9140SOL    HW128319   0.837   2.068   6.133 -0.2428 -1.2992 -1.0343
 9140SOL    HW228320   0.947   2.018   6.243  0.0753  1.5608  0.0442
 9141SOL     OW28321   2.941   3.870   6.580  0.3700 -0.2306  0.0183
 9141SOL    HW128322   2.959   3.897   6.486  1.3687  1.1599  0.5600
 9141SOL    HW228323   2.883   3.789   6.582  0.7327 -0.5663 -1.7836
 9142SOL     OW28324   4.182   0.944   1.053  0.1581  0.3872 -0.0843
 9142SOL    HW128325   4.268   0.973   1.011  0.5526 -0.0353  0.4089
 9142SOL    HW228326   4.182   0.969   1.150 -0.3044  0.4410 -0.0960
 9143SOL     OW28327   2.503   2.926   1.378 -0.1287 -1.0609 -0.3044
 9143SOL    HW128328   2.496   3.011   1.431  0.1289 -1.1449 -0.1395
 9143SOL    HW228329   2.417   2.912   1.328 -0.1237 -0.6312 -0.4428
 9144SOL     OW28330   1.833   6.473   2.096  0.2007 -0.4463  0.7637
 9144SOL    HW128331   1.872   6.496   2.007  2.0372 -0.0683  1.6124
 9144SOL    HW228332   1.833   6.555   2.154  0.0355 -0.9264  1.4587
 9145SOL     OW28333   4.393   5.332   6.299 -0.1161  0.1945 -0.0359
 9145SOL    HW128334   4.306   5.364   6.261 -0.1319  0.4925  0.2495
 9145SOL    HW228335   4.448   5.291   6.226 -0.8659 -0.8233 -0.0571
 9146SOL     OW28336   0.983   3.685   4.247  0.1414  0.6482 -0.2088
 9146SOL    HW128337   0.959   3.718   4.155 -1.6066 -1.3134 -0.5584
 9146SOL    HW228338   0.902   3.689   4.305  0.8738  0.5773  0.8306
 9147SOL     OW28339   6.776   6.814   6.319 -0.2577  0.0694 -0.1087
 9147SOL    HW128340   6.829   6.758   6.382  0.3730  0.6800 -0.0922
 9147SOL    HW228341   6.679   6.790   6.327 -0.1584 -0.0249  0.9122
 9148SOL     OW28342   3.019   1.368   5.752  0.8297  0.0561 -0.1420
 9148SOL    HW128343   2.953   1.443   5.760  0.3391 -0.1486 -1.8718
 9148SOL    HW228344   2.988   1.290   5.806  1.0482  0.8784  1.2112
 9149SOL     OW28345   2.445   5.014   1.425 -0.3755  0.1046 -0.2285
 9149SOL    HW128346   2.479   4.936   1.372  0.0356  1.1432 -1.5604
 9149SOL    HW228347   2.469   5.099   1.378 -0.0289  1.0872  1.6471
 9150SOL     OW28348   2.841   5.099   1.598 -0.1332  0.4125  0.3901
 9150SOL    HW128349   2.842   5.055   1.507 -0.4419  0.8715  0.1627
 9150SOL    HW228350   2.870   5.032   1.667 -0.2447 -0.0481  0.0004
 9151SOL     OW28351   4.519   3.191   1.512  0.1640 -0.1855  0.3845
 9151SOL    HW128352   4.545   3.218   1.420  3.3457 -2.5445  0.3888
 9151SOL    HW228353   4.572   3.243   1.579 -0.4811 -0.0389  0.7942
 9152SOL     OW28354   5.703   0.333   1.887  0.3950 -0.3355 -0.5653
 9152SOL    HW128355   5.783   0.279   1.860  1.5970  0.7263  0.6801
 9152SOL    HW228356   5.720   0.430   1.867 -0.8231 -0.1554 -0.7783
 9153SOL     OW28357   0.283   1.549   6.992  0.1233  0.0266 -0.5136
 9153SOL    HW128358   0.382   1.539   7.005  0.2085  1.4134  0.1783
 9153SOL    HW228359   0.257   1.645   7.008 -1.2793 -0.2349 -1.0736
 9154SOL     OW28360   6.513   2.870   4.501 -0.2110 -0.4728  0.0311
 9154SOL    HW128361   6.501   2.908   4.593 -2.5855  1.1600 -0.8470
 9154SOL    HW228362   6.591   2.914   4.457  0.1982 -0.3790  0.8379
 9155SOL     OW28363   6.184   2.896   3.870  0.0651  0.5286 -0.0497
 9155SOL    HW128364   6.213   2.877   3.776  1.7210 -2.1837  0.9133
 9155SOL    HW228365   6.230   2.979   3.903 -1.0022  1.8779 -1.7386
 9156SOL     OW28366   6.125   5.554   3.725  0.0960  0.3861  0.3001
 9156SOL    HW128367   6.162   5.553   3.633  0.8829 -0.6389  0.6052
 9156SOL    HW228368   6.122   5.648   3.760 -0.7382  0.8439 -0.9554
 9157SOL     OW28369   2.853   3.420   0.488  0.4424 -0.1644 -0.1111
 9157SOL    HW128370   2.920   3.414   0.414  2.0145 -0.1340  1.2497
 9157SOL    HW228371   2.873   3.351   0.557 -2.6358 -2.0559 -0.9061
 9158SOL     OW28372   2.091   2.807   0.966 -0.0697 -0.1763 -0.1486
 9158SOL    HW128373   2.159   2.848   1.027 -0.9628  1.2196 -0.0661
 9158SOL    HW228374   2.131   2.797   0.874  1.1806 -2.0160  0.5344
 9159SOL     OW28375   2.037   0.261   1.558  0.2924  0.0727 -0.2016
 9159SOL    HW128376   2.117   0.251   1.618 -0.3480 -2.4911  0.3618
 9159SOL    HW228377   1.954   0.249   1.612 -0.6133  3.4577 -0.6338
 9160SOL     OW28378   2.174   3.638   6.059 -1.0224 -0.5668 -0.2514
 9160SOL    HW128379   2.112   3.683   5.994 -1.1594 -1.0630 -0.4701
 9160SOL    HW228380   2.263   3.684   6.058 -0.3252 -1.7949 -2.3413
 9161SOL     OW28381   4.145   0.359   5.315 -0.5510 -0.2213 -0.4953
 9161SOL    HW128382   4.070   0.297   5.291 -3.4569  1.5385  2.9786
 9161SOL    HW228383   4.116   0.453   5.300  1.4813  0.4872 -0.1974
 9162SOL     OW28384   4.607   6.894   2.429 -0.5112 -0.1074 -0.7107
 9162SOL    HW128385   4.600   6.929   2.522  1.6565 -1.8248  0.1931
 9162SOL    HW228386   4.579   6.798   2.428 -1.7453  0.2444 -2.1215
 9163SOL     OW28387   0.655   0.956   0.585 -0.1281 -0.5306 -0.6393
 9163SOL    HW128388   0.754   0.957   0.573 -0.1041 -1.6164 -0.5675
 9163SOL    HW228389   0.629   1.027   0.651  0.4307  0.7677 -1.7526
 9164SOL     OW28390   6.403   4.427   0.974 -0.3384  0.1494 -0.4788
 9164SOL    HW128391   6.339   4.352   0.955  1.5791 -1.1729 -2.0491
 9164SOL    HW228392   6.373   4.509   0.925 -2.9403  0.8331  1.9269
 9165SOL     OW28393   4.375   3.828   0.914  0.2626 -0.1229  0.1577
 9165SOL    HW128394   4.456   3.794   0.961  1.2517 -0.4297 -1.6772
 9165SOL    HW228395   4.343   3.759   0.848 -3.0531 -1.1163  2.4979
 9166SOL     OW28396   2.589   1.931   3.916  1.5178  0.1982  0.4233
 9166SOL    HW128397   2.647   1.868   3.968  0.2972 -0.3169  1.2351
 9166SOL    HW228398   2.565   1.890   3.828  1.5896 -0.0178  0.5033
 9167SOL     OW28399   1.375   2.305   1.972 -0.0384 -0.1202 -0.1098
 9167SOL    HW128400   1.317   2.291   2.052 -1.2531 -3.1074 -1.3428
 9167SOL    HW228401   1.465   2.263   1.989 -0.0581 -0.1362 -0.0444
 9168SOL     OW28402   6.465   4.314   4.184 -0.0082  0.0955 -0.1663
 9168SOL    HW128403   6.500   4.379   4.115 -1.7903  1.1810 -0.0979
 9168SOL    HW228404   6.367   4.327   4.195  0.3242  0.6058  3.2619
 9169SOL     OW28405   5.473   3.734   2.409 -0.3720 -0.2791  0.4815
 9169SOL    HW128406   5.443   3.676   2.335  2.0266  0.5058 -1.2426
 9169SOL    HW228407   5.525   3.680   2.476 -0.5013 -0.5861  0.3308
 9170SOL     OW28408   0.655   2.192   5.817  0.3871  0.2470 -0.0318
 9170SOL    HW128409   0.659   2.118   5.749  1.7026 -1.1532  1.5014
 9170SOL    HW228410   0.673   2.279   5.772  0.5090 -0.5492 -1.5975
 9171SOL     OW28411   5.165   1.414   6.865 -0.2067 -0.6265  0.3194
 9171SOL    HW128412   5.245   1.471   6.845 -0.1861 -0.3609  1.1361
 9171SOL    HW228413   5.082   1.468   6.851 -0.1786 -0.2745  1.4122
 9172SOL     OW28414   0.314   2.835   0.330  0.1476  0.6622  0.7770
 9172SOL    HW128415   0.305   2.773   0.408 -1.9490  1.5976  1.3316
 9172SOL    HW228416   0.299   2.784   0.245 -0.0784  0.1294  1.1337
 9173SOL     OW28417   4.923   6.190   6.815 -0.2812 -0.6344 -0.0473
 9173SOL    HW128418   4.894   6.096   6.795  0.3434 -0.7473 -0.4532
 9173SOL    HW228419   5.022   6.193   6.820 -0.1994  0.3272 -1.7228
 9174SOL     OW28420   1.557   1.865   2.837  0.1827 -0.1513  0.3925
 9174SOL    HW128421   1.494   1.925   2.787  0.6083 -1.4737 -1.8603
 9174SOL    HW228422   1.508   1.822   2.913 -1.0413  0.4801  0.0015
 9175SOL     OW28423   6.318   2.635   6.589  0.2195 -0.2681 -0.5785
 9175SOL    HW128424   6.250   2.708   6.588  0.0437 -0.3657  1.0753
 9175SOL    HW228425   6.298   2.570   6.516 -1.8173 -0.5845  0.1895
 9176SOL     OW28426   5.452   5.598   0.868 -0.6549  0.0298 -0.7909
 9176SOL    HW128427   5.474   5.639   0.779 -0.1540  1.2485 -0.1295
 9176SOL    HW228428   5.522   5.622   0.935 -1.8295  0.4769  0.3277
 9177SOL     OW28429   4.244   0.673   5.564  0.2329  0.1636  0.3286
 9177SOL    HW128430   4.238   0.765   5.602 -0.5725 -0.0841  0.8169
 9177SOL    HW228431   4.274   0.610   5.636  0.5694  0.0073  0.0511
 9178SOL     OW28432   1.974   1.046   0.202  0.7036 -0.4034  0.3317
 9178SOL    HW128433   1.953   0.968   0.144  0.8957 -0.2656  0.0769
 9178SOL    HW228434   2.010   1.121   0.147 -0.7410  0.3613  0.3844
 9179SOL     OW28435   0.160   5.858   5.841 -1.0683  0.2819  0.0890
 9179SOL    HW128436   0.100   5.934   5.868 -0.7260  0.2315  1.0178
 9179SOL    HW228437   0.169   5.795   5.917 -3.7780 -2.3457 -1.5458
 9180SOL     OW28438   1.585   5.583   4.035  0.4336  0.2078 -0.1411
 9180SOL    HW128439   1.498   5.627   4.053  1.1739  1.2659  1.0894
 9180SOL    HW228440   1.595   5.564   3.938 -1.9219 -1.6251 -0.1039
 9181SOL     OW28441   3.543   0.702   0.751 -0.2087  0.3376  0.5521
 9181SOL    HW128442   3.615   0.638   0.778 -1.9345 -0.5552  3.4780
 9181SOL    HW228443   3.565   0.741   0.661  2.4117 -2.0491  0.0174
 9182SOL     OW28444   4.157   1.191   2.154  0.1986  0.3830 -0.1993
 9182SOL    HW128445   4.118   1.099   2.158 -0.7998  0.8393  1.2018
 9182SOL    HW228446   4.191   1.209   2.061  0.3183 -1.3375 -0.5217
 9183SOL     OW28447   6.824   5.553   2.191  0.0323  0.5276  0.5716
 9183SOL    HW128448   6.772   5.482   2.143  0.4674  0.8365 -0.3784
 9183SOL    HW228449   6.919   5.525   2.199  0.3842  1.3414 -0.5405
 9184SOL     OW28450   0.480   3.792   6.693 -0.1449  0.0230  0.5464
 9184SOL    HW128451   0.402   3.825   6.747 -0.9519 -0.5114 -0.2590
 9184SOL    HW228452   0.546   3.866   6.682 -2.4727  1.9148 -2.2924
 9185SOL     OW28453   0.720   0.450   6.488 -0.0735 -0.2473  0.6267
 9185SOL    HW128454   0.717   0.439   6.588  1.0773 -2.9455  0.4489
 9185SOL    HW228455   0.699   0.363   6.444  3.9022 -0.4657 -1.3317
 9186SOL     OW28456   5.316   3.845   4.837  0.2605 -0.1239  0.6822
 9186SOL    HW128457   5.410   3.822   4.861  0.7870 -0.2819 -1.3300
 9186SOL    HW228458   5.315   3.896   4.751 -1.3694  1.8223  1.7688
 9187SOL     OW28459   1.444   1.971   3.384  0.5670 -0.6936 -0.1476
 9187SOL    HW128460   1.417   2.067   3.392 -1.1904 -1.2395  1.0796
 9187SOL    HW228461   1.514   1.962   3.313 -0.9667  1.1604 -2.0305
 9188SOL     OW28462   3.897   0.728   6.192  0.0819  0.0274 -0.2159
 9188SOL    HW128463   3.963   0.733   6.267  1.9207 -4.0220 -1.2868
 9188SOL    HW228464   3.945   0.742   6.105 -0.2919 -3.1468 -1.0348
 9189SOL     OW28465   0.291   1.430   6.486 -0.3948  0.0508 -0.0474
 9189SOL    HW128466   0.330   1.503   6.542 -0.2572 -0.5607  0.6725
 9189SOL    HW228467   0.264   1.466   6.397  2.4830  0.3657 -0.8823
 9190SOL     OW28468   6.219   1.801   5.704 -0.1676  0.3115  0.0723
 9190SOL    HW128469   6.162   1.806   5.621 -1.1842 -0.6815  0.6733
 9190SOL    HW228470   6.173   1.848   5.779 -1.2704 -2.2136  1.1022
 9191SOL     OW28471   3.940   6.127   1.253 -0.4267 -0.2377 -0.1272
 9191SOL    HW128472   4.037   6.148   1.267 -0.3298 -1.4020  1.0999
 9191SOL    HW228473   3.927   6.088   1.162  0.2368  0.0520 -0.3514
 9192SOL     OW28474   3.523   2.834   5.597 -0.1029 -0.0205 -0.0466
 9192SOL    HW128475   3.590   2.907   5.608 -1.5701  1.4064 -0.0872
 9192SOL    HW228476   3.496   2.828   5.501  0.5926 -1.1946 -0.1855
 9193SOL     OW28477   3.204   2.306   5.485  0.1522 -0.1068 -0.2579
 9193SOL    HW128478   3.196   2.405   5.472  3.0600  0.0209 -1.8804
 9193SOL    HW228479   3.162   2.281   5.572  0.8733  2.8211  1.0790
 9194SOL     OW28480   4.377   3.320   1.117  0.3378 -0.3512  0.4881
 9194SOL    HW128481   4.338   3.334   1.208  0.4846  0.6799  0.3999
 9194SOL    HW228482   4.338   3.238   1.076 -1.9604  0.7868  0.2796
 9195SOL     OW28483   5.148   5.135   5.529  0.6202  0.3276  0.6536
 9195SOL    HW128484   5.112   5.185   5.450 -1.2715 -1.0207  0.5999
 9195SOL    HW228485   5.160   5.039   5.505  0.7162  0.0391  1.8003
 9196SOL     OW28486   2.459   1.916   5.223 -0.2113  0.1306  0.0337
 9196SOL    HW128487   2.408   1.834   5.197  1.6736 -1.1300  0.1084
 9196SOL    HW228488   2.526   1.937   5.152 -0.0862  1.1035  0.4282
 9197SOL     OW28489   0.136   2.101   2.592 -0.1619  0.5271  0.0131
 9197SOL    HW128490   0.098   2.010   2.609  2.7579 -0.3794  2.6752
 9197SOL    HW228491   0.219   2.092   2.537  0.8827  1.3670  1.3922
 9198SOL     OW28492   1.314   4.931   5.490  0.0118 -0.0077 -0.2674
 9198SOL    HW128493   1.298   4.854   5.551  1.1077  2.4056  3.4345
 9198SOL    HW228494   1.227   4.968   5.458 -0.6722 -0.7476  0.7066
 9199SOL     OW28495   5.093   3.754   6.772  0.0235  0.3487 -0.6039
 9199SOL    HW128496   5.141   3.823   6.826  2.3376 -0.3230 -1.6680
 9199SOL    HW228497   5.077   3.673   6.829  0.3678  0.4971 -0.2880
 9200SOL     OW28498   2.293   5.626   1.533  0.4560 -0.4587 -0.5161
 9200SOL    HW128499   2.261   5.705   1.586  3.2125 -0.2770  1.0305
 9200SOL    HW228500   2.280   5.542   1.587  0.0924 -0.7359 -1.0234
 9201SOL     OW28501   3.204   1.571   5.863  0.7346 -0.4063  0.0321
 9201SOL    HW128502   3.217   1.491   5.922  0.3215 -1.4704 -1.2639
 9201SOL    HW228503   3.160   1.542   5.778 -1.4007  1.5349  0.3865
 9202SOL     OW28504   1.439   1.971   5.608 -0.9032 -0.2992  0.3366
 9202SOL    HW128505   1.368   1.992   5.541 -0.6943 -0.2688  0.1242
 9202SOL    HW228506   1.503   2.047   5.614  0.0227 -0.9734 -0.6536
 9203SOL     OW28507   6.669   2.491   6.315  0.2111  0.0401  0.5228
 9203SOL    HW128508   6.683   2.395   6.337  1.1948  0.1493  0.4572
 9203SOL    HW228509   6.755   2.541   6.331  0.0513  0.6861 -0.5363
 9204SOL     OW28510   1.198   1.310   0.677 -0.2738  0.2942 -0.3533
 9204SOL    HW128511   1.254   1.232   0.704  1.2302  0.9409 -1.4875
 9204SOL    HW228512   1.206   1.382   0.746 -0.2577  0.1244 -0.1759
 9205SOL     OW28513   7.009   4.385   5.512 -0.0254 -0.3448 -0.4912
 9205SOL    HW128514   6.939   4.317   5.488 -0.6071  1.0091 -2.9458
 9205SOL    HW228515   7.087   4.375   5.449  0.7834 -0.0511  0.4520
 9206SOL     OW28516   4.138   5.771   5.496  0.4779 -0.4907 -0.2539
 9206SOL    HW128517   4.161   5.677   5.474  0.6302 -0.3770 -0.5995
 9206SOL    HW228518   4.208   5.832   5.459  0.9542 -0.3139  0.9297
 9207SOL     OW28519   5.831   5.897   3.619  0.3580 -0.0632  0.1002
 9207SOL    HW128520   5.864   5.849   3.537  0.6001  0.8941 -0.3802
 9207SOL    HW228521   5.846   5.995   3.608 -0.8759  0.2113  0.7035
 9208SOL     OW28522   6.406   4.900   2.685  0.3626 -0.5648  0.3827
 9208SOL    HW128523   6.452   4.945   2.761 -0.2652 -0.2112  0.5652
 9208SOL    HW228524   6.327   4.955   2.657  0.2505 -0.9826 -0.1452
 9209SOL     OW28525   0.557   6.901   2.065 -0.0171  0.1045 -0.1393
 9209SOL    HW128526   0.528   6.956   1.987  0.1398 -0.2413 -0.4397
 9209SOL    HW228527   0.553   6.958   2.148 -0.3915  0.4074 -0.3589
 9210SOL     OW28528   6.787   1.129   4.328 -0.2731 -0.5501  0.3425
 9210SOL    HW128529   6.725   1.050   4.324 -0.2109 -0.6483  1.2232
 9210SOL    HW228530   6.882   1.098   4.328 -0.2498 -0.4818  0.7721
 9211SOL     OW28531   4.883   5.092   4.802  0.1499  0.0779 -0.1409
 9211SOL    HW128532   4.893   5.184   4.841  0.7710 -0.1000  0.1366
 9211SOL    HW228533   4.837   5.033   4.868  1.8186 -0.4054  0.6431
 9212SOL     OW28534   3.649   0.369   4.471 -0.1580  0.5757 -0.6777
 9212SOL    HW128535   3.601   0.354   4.557  0.1989 -0.7173 -0.6916
 9212SOL    HW228536   3.648   0.467   4.449 -3.3791  0.5609 -1.0296
 9213SOL     OW28537   5.436   5.022   0.282 -0.6613  0.4513 -0.0911
 9213SOL    HW128538   5.440   5.115   0.244 -1.9139  0.6584  0.2522
 9213SOL    HW228539   5.351   5.010   0.334 -0.0069 -0.5409  0.7981
 9214SOL     OW28540   6.280   5.547   6.111 -0.2946  0.1412 -0.0518
 9214SOL    HW128541   6.244   5.475   6.171 -0.7483  0.2007 -0.2477
 9214SOL    HW228542   6.377   5.559   6.129 -0.1297 -0.7671 -0.2651
 9215SOL     OW28543   3.043   5.006   3.086  0.0555  0.2877  0.0659
 9215SOL    HW128544   3.124   4.972   3.133  0.8721  0.2487 -1.3148
 9215SOL    HW228545   2.961   4.962   3.123  0.9717 -2.5534 -1.0439
 9216SOL     OW28546   3.395   5.269   5.311  0.4668  0.1854 -0.4701
 9216SOL    HW128547   3.365   5.242   5.219  1.2371  0.1620 -0.7209
 9216SOL    HW228548   3.341   5.347   5.341  0.5909  0.5659 -1.1922
 9217SOL     OW28549   4.928   3.212   4.593 -0.0804 -0.3541  0.0531
 9217SOL    HW128550   5.025   3.199   4.575 -0.0724  0.2174 -0.3722
 9217SOL    HW228551   4.875   3.168   4.521 -0.0218  3.2184 -2.4408
 9218SOL     OW28552   4.456   5.293   0.764  0.1028  0.1519  0.3949
 9218SOL    HW128553   4.365   5.320   0.732  0.3274  1.9993  1.1846
 9218SOL    HW228554   4.473   5.197   0.740 -2.8465 -0.8963  2.0177
 9219SOL     OW28555   5.874   4.416   1.854  0.4681 -0.1664 -0.0758
 9219SOL    HW128556   5.921   4.336   1.892  1.5984  0.9118  0.9221
 9219SOL    HW228557   5.902   4.428   1.759  0.2262 -1.0004 -0.2578
 9220SOL     OW28558   4.985   2.272   3.912  0.1925 -0.0006  0.5025
 9220SOL    HW128559   4.917   2.314   3.852 -0.3309 -1.2188  0.2241
 9220SOL    HW228560   4.989   2.323   3.998  0.6475  1.5059 -0.3750
 9221SOL     OW28561   0.790   4.093   1.335 -0.1888  0.1124 -0.4994
 9221SOL    HW128562   0.821   4.158   1.265  1.0996  0.6667  0.5260
 9221SOL    HW228563   0.712   4.042   1.301 -0.2280  1.0725 -1.9547
 9222SOL     OW28564   0.668   4.989   5.293 -0.0964 -0.0127  0.3879
 9222SOL    HW128565   0.660   4.891   5.307  3.1704 -0.3897  0.2546
 9222SOL    HW228566   0.669   5.009   5.195 -0.2456  0.1200  0.4121
 9223SOL     OW28567   2.875   5.069   0.771  0.2051 -0.3080 -0.1867
 9223SOL    HW128568   2.799   5.007   0.751  0.5800 -0.9671  0.3313
 9223SOL    HW228569   2.869   5.150   0.714  0.5164 -1.4906 -1.9689
 9224SOL     OW28570   1.610   1.602   0.069  0.5529 -0.0199 -0.0032
 9224SOL    HW128571   1.602   1.602   0.169  0.2259  0.1138 -0.0259
 9224SOL    HW228572   1.706   1.613   0.043  0.8654 -1.7624  0.2921
 9225SOL     OW28573   1.817   3.410   4.888 -0.2710 -0.3325 -0.1824
 9225SOL    HW128574   1.745   3.478   4.905 -1.5625 -1.5489 -0.6360
 9225SOL    HW228575   1.788   3.348   4.815  0.4775 -1.9379  0.8250
 9226SOL     OW28576   4.775   6.008   0.718 -0.7116 -0.3323  0.0269
 9226SOL    HW128577   4.835   5.937   0.754 -0.1306  0.5205  0.7707
 9226SOL    HW228578   4.680   5.986   0.743 -0.3689  0.0078  1.7235
 9227SOL     OW28579   5.727   2.595   6.012 -0.1685  1.2674  0.0004
 9227SOL    HW128580   5.792   2.583   6.087 -0.6500  1.2858  0.4253
 9227SOL    HW228581   5.638   2.556   6.037 -0.1456  0.6409 -0.8371
 9228SOL     OW28582   2.660   6.637   3.915  0.0657 -0.7729 -0.0837
 9228SOL    HW128583   2.716   6.614   3.835 -0.8977 -3.0851 -0.1759
 9228SOL    HW228584   2.579   6.578   3.917 -0.3129 -0.2742  2.2203
 9229SOL     OW28585   6.809   2.186   2.020 -0.2703 -0.0076 -0.0410
 9229SOL    HW128586   6.855   2.261   2.070 -0.7275 -1.2842  2.4733
 9229SOL    HW228587   6.865   2.104   2.025 -0.0151 -0.0338 -2.3441
 9230SOL     OW28588   3.628   2.210   1.113  0.3900  0.7202  0.5066
 9230SOL    HW128589   3.690   2.208   1.192 -0.9735 -0.2716  1.6066
 9230SOL    HW228590   3.576   2.124   1.109 -1.4125  1.7733  0.0530
 9231SOL     OW28591   6.078   0.257   2.994  0.1984 -0.2090  0.0721
 9231SOL    HW128592   6.066   0.329   3.063  2.1026 -1.0764  1.3938
 9231SOL    HW228593   6.148   0.193   3.025 -0.1345 -1.6167 -1.9207
 9232SOL     OW28594   3.575   0.974   5.592 -0.1890 -0.7175  0.1964
 9232SOL    HW128595   3.617   1.064   5.606  2.1591 -1.6334 -0.4903
 9232SOL    HW228596   3.504   0.981   5.522 -1.8696  1.0399  1.9456
 9233SOL     OW28597   0.853   1.433   5.077 -0.5338  0.1320 -0.3596
 9233SOL    HW128598   0.916   1.382   5.019  0.8953 -0.1178  1.3507
 9233SOL    HW228599   0.762   1.434   5.034  0.3790 -0.2612 -2.4389
 9234SOL     OW28600   6.670   0.780   1.570  0.0022 -0.1774  0.1493
 9234SOL    HW128601   6.686   0.815   1.478  2.3884 -1.5150 -0.0154
 9234SOL    HW228602   6.652   0.682   1.565 -0.6240 -0.1263  1.0827
 9235SOL     OW28603   6.227   1.265   0.123  0.3442 -0.0770 -0.1774
 9235SOL    HW128604   6.272   1.259   0.034  0.6632  0.0883 -0.0245
 9235SOL    HW228605   6.283   1.220   0.192 -0.8227 -2.0230 -0.4076
 9236SOL     OW28606   3.036   0.641   0.882 -0.1173  0.3431  0.3061
 9236SOL    HW128607   3.023   0.720   0.942 -1.0277 -0.1723  0.8140
 9236SOL    HW228608   3.072   0.564   0.934 -3.3453 -0.9316  0.8799
 9237SOL     OW28609   2.968   6.335   3.275 -0.0441 -0.2982 -0.2336
 9237SOL    HW128610   2.964   6.265   3.204 -0.8268 -2.1071  1.4717
 9237SOL    HW228611   2.877   6.373   3.289  0.4233  1.2901 -1.3107
 9238SOL     OW28612   1.214   1.827   6.030 -0.1461 -0.1117 -0.6844
 9238SOL    HW128613   1.239   1.888   6.104  0.1264 -1.0585  0.0299
 9238SOL    HW228614   1.172   1.879   5.955  1.4678  1.1542 -0.7582
 9239SOL     OW28615   0.957   3.856   3.786  0.1192  0.0054  0.3231
 9239SOL    HW128616   0.899   3.872   3.865  0.4988 -1.2017  0.8635
 9239SOL    HW228617   1.025   3.786   3.807  0.6545  0.1356 -0.8571
 9240SOL     OW28618   4.194   1.712   3.296 -0.9156  0.4577 -0.3223
 9240SOL    HW128619   4.124   1.699   3.226 -0.5069  0.0541 -0.6554
 9240SOL    HW228620   4.242   1.626   3.312  0.4243  1.0468 -1.0637
 9241SOL     OW28621   3.201   1.850   1.463  0.0904  0.1871  0.4270
 9241SOL    HW128622   3.264   1.919   1.427  1.6213 -1.2938  0.1512
 9241SOL    HW228623   3.133   1.895   1.520  0.9712  1.9349  0.1966
 9242SOL     OW28624   0.781   5.582   2.175 -0.6199 -0.3205 -0.5561
 9242SOL    HW128625   0.771   5.568   2.077 -1.6738  0.8310 -0.6444
 9242SOL    HW228626   0.800   5.495   2.220 -3.1945 -1.4282 -1.4512
 9243SOL     OW28627   2.180   2.979   6.389  0.2899  0.0276  0.2556
 9243SOL    HW128628   2.242   2.970   6.312 -1.2828  1.3968 -1.2544
 9243SOL    HW228629   2.097   2.926   6.372 -1.3510  2.6237 -0.4871
 9244SOL     OW28630   2.210   6.949   5.506  0.1710  0.5840 -0.1750
 9244SOL    HW128631   2.141   6.987   5.568 -2.2687 -1.1080 -1.6668
 9244SOL    HW228632   2.206   6.849   5.510  1.5571  0.4502 -1.4018
 9245SOL     OW28633   5.675   3.031   0.092 -0.1695  0.1325  0.0154
 9245SOL    HW128634   5.682   3.031   0.192  1.4478  1.7105 -0.0442
 9245SOL    HW228635   5.765   3.020   0.052 -0.6653  0.5323 -1.2606
 9246SOL     OW28636   1.013   6.308   6.265 -0.0688  0.7290 -0.6467
 9246SOL    HW128637   1.078   6.253   6.212  0.4944  0.3490  0.3954
 9246SOL    HW228638   0.983   6.386   6.210 -0.9352 -0.6267 -2.1822
 9247SOL     OW28639   2.578   3.582   1.411 -0.2849  0.1154 -0.1853
 9247SOL    HW128640   2.505   3.588   1.479  0.1977 -1.0369  0.4749
 9247SOL    HW228641   2.664   3.560   1.458  1.3593  4.9256 -0.3933
 9248SOL     OW28642   0.062   0.284   0.095 -0.0122 -0.0968 -0.6510
 9248SOL    HW128643   0.073   0.298   0.193  0.5840  1.5172 -0.9350
 9248SOL    HW228644  -0.026   0.239   0.078 -0.5885  0.5419  0.5426
 9249SOL     OW28645   1.974   1.934   0.914  0.0383  0.5317  0.2349
 9249SOL    HW128646   2.003   1.971   1.002 -0.5176 -1.9011  1.5366
 9249SOL    HW228647   1.902   1.866   0.929 -1.4680  1.4425 -2.3061
 9250SOL     OW28648   3.225   3.568   6.476  0.3442  0.0145  0.2291
 9250SOL    HW128649   3.235   3.570   6.575 -0.9864 -0.6025  0.3977
 9250SOL    HW228650   3.147   3.511   6.451  2.3346 -2.2321 -1.3337
 9251SOL     OW28651   6.024   2.681   3.973 -0.4580 -0.0872 -0.4839
 9251SOL    HW128652   6.077   2.754   3.929 -1.0143 -0.5617 -2.0168
 9251SOL    HW228653   6.079   2.598   3.977  0.0753  0.3037  1.0078
 9252SOL     OW28654   0.920   6.589   1.974  0.1398  0.2938  0.3244
 9252SOL    HW128655   0.944   6.493   1.989 -0.4870  0.4264  2.4274
 9252SOL    HW228656   0.963   6.646   2.044 -0.3772  1.4344 -0.2459
 9253SOL     OW28657   3.968   0.606   1.141 -0.3891  0.4566  0.1761
 9253SOL    HW128658   3.974   0.682   1.076 -0.0645  0.6026  0.3740
 9253SOL    HW228659   3.886   0.552   1.121 -0.0745  0.2586 -0.6189
 9254SOL     OW28660   2.274   1.165   1.379  0.0879 -0.3102 -0.1297
 9254SOL    HW128661   2.192   1.220   1.368 -0.9690 -1.8723 -0.4760
 9254SOL    HW228662   2.264   1.107   1.460  0.1088 -1.6688 -1.0537
 9255SOL     OW28663   2.912   6.529   1.806  0.0389 -0.2722  0.3730
 9255SOL    HW128664   2.981   6.457   1.820 -0.1250 -0.3944  0.5499
 9255SOL    HW228665   2.954   6.605   1.757  0.3768 -0.2213  0.7346
 9256SOL     OW28666   5.759   1.381   3.516 -0.4381  0.1179  0.2073
 9256SOL    HW128667   5.692   1.308   3.503 -0.2838  0.0111  0.0253
 9256SOL    HW228668   5.714   1.459   3.560 -0.0475 -1.0596  2.9370
 9257SOL     OW28669   2.505   5.844   5.487 -0.3686  0.5836  0.4306
 9257SOL    HW128670   2.495   5.941   5.508  1.1934  0.7147  0.6707
 9257SOL    HW228671   2.417   5.798   5.499 -1.0964  1.9288  0.4487
 9258SOL     OW28672   4.531   6.661   3.206  0.5775 -1.1153 -0.3268
 9258SOL    HW128673   4.609   6.715   3.238 -0.2299 -0.3169  0.3258
 9258SOL    HW228674   4.536   6.569   3.243  1.1731 -1.0515 -0.2407
 9259SOL     OW28675   1.176   5.091   3.031 -0.2513  0.2654 -0.4079
 9259SOL    HW128676   1.098   5.100   2.969 -0.3576  0.4609 -0.2483
 9259SOL    HW228677   1.148   5.119   3.123  0.1520  0.8516 -0.4565
 9260SOL     OW28678   4.465   5.076   1.329  0.1041 -0.6386 -0.2319
 9260SOL    HW128679   4.422   5.154   1.374 -0.6400 -0.6743 -0.8591
 9260SOL    HW228680   4.562   5.075   1.350  0.1420  0.5154 -0.2933
 9261SOL     OW28681   5.787   2.610   5.749 -0.2965 -0.0684 -0.0673
 9261SOL    HW128682   5.775   2.707   5.729  0.3959 -0.1225 -0.7900
 9261SOL    HW228683   5.779   2.595   5.848 -1.0942  0.6106 -0.0191
 9262SOL     OW28684   5.614   5.540   5.565 -0.4593 -0.4540  0.3970
 9262SOL    HW128685   5.611   5.635   5.533 -0.8208 -1.0025 -1.2934
 9262SOL    HW228686   5.551   5.484   5.510  0.2034 -1.7868  0.9509
 9263SOL     OW28687   1.738   6.365   5.523  0.6355  0.4696 -0.1408
 9263SOL    HW128688   1.831   6.403   5.527  0.3884  1.0164  3.7584
 9263SOL    HW228689   1.672   6.437   5.542 -0.1367 -0.8626  2.7610
 9264SOL     OW28690   4.184   4.402   0.810 -0.1602 -0.7397  0.3580
 9264SOL    HW128691   4.164   4.325   0.750  2.0539 -0.4979 -0.8030
 9264SOL    HW228692   4.278   4.396   0.842  0.2777  1.7670 -0.2423
 9265SOL     OW28693   2.857   0.378   4.333 -0.1510  0.1225 -0.2992
 9265SOL    HW128694   2.894   0.449   4.274 -0.7303  0.2015 -0.5734
 9265SOL    HW228695   2.906   0.292   4.316 -0.2300  0.1735 -0.8140
 9266SOL     OW28696   6.536   6.464   2.627  0.4366 -0.1753 -0.3549
 9266SOL    HW128697   6.518   6.369   2.654  0.7719  0.1767  1.2549
 9266SOL    HW228698   6.529   6.522   2.708 -0.0041  1.2233 -1.3626
 9267SOL     OW28699   5.659   0.373   6.831  0.2585 -0.5994  0.0908
 9267SOL    HW128700   5.684   0.451   6.774 -0.7966 -0.5541 -0.3258
 9267SOL    HW228701   5.700   0.384   6.922  0.2014  0.3853  0.0081
 9268SOL     OW28702   0.098   4.807   1.168  0.7388 -0.1097 -0.3183
 9268SOL    HW128703   0.161   4.729   1.168 -0.4918 -1.1557 -0.9912
 9268SOL    HW228704   0.071   4.827   1.074 -0.6481 -0.3207  0.0126
 9269SOL     OW28705   4.657   0.662   1.570 -0.3317  0.2577  1.0646
 9269SOL    HW128706   4.574   0.662   1.626 -0.3488  0.9617  1.0530
 9269SOL    HW228707   4.666   0.575   1.523 -0.9348  0.0868  1.2612
 9270SOL     OW28708   0.485   6.679   2.698  0.0978 -0.2707  0.3312
 9270SOL    HW128709   0.422   6.714   2.767  0.1771 -0.3279  0.4337
 9270SOL    HW228710   0.579   6.685   2.732  0.1079 -0.6486  0.3817
 9271SOL     OW28711   6.821   5.960   5.541 -0.3887 -0.6016  0.9496
 9271SOL    HW128712   6.802   5.894   5.614  1.2075 -0.3028  1.6913
 9271SOL    HW228713   6.737   5.981   5.491 -1.3423 -1.4985  2.1322
 9272SOL     OW28714   0.079   4.758   6.081  0.2973  0.0882 -0.7826
 9272SOL    HW128715   0.128   4.702   6.147 -0.0009  0.0637 -0.5839
 9272SOL    HW228716   0.143   4.788   6.009  0.8543  0.9409  0.0438
 9273SOL     OW28717   5.623   3.683   6.660  0.3762 -0.0982 -0.1716
 9273SOL    HW128718   5.529   3.675   6.626  0.2533  2.8793 -0.7438
 9273SOL    HW228719   5.669   3.595   6.648 -1.9047 -1.2617 -1.1421
 9274SOL     OW28720   6.671   3.812   0.021 -0.4653 -0.4699 -0.0022
 9274SOL    HW128721   6.572   3.818   0.017 -0.4489 -0.4367 -3.7535
 9274SOL    HW228722   6.699   3.716   0.028 -0.7905 -0.6441 -0.9884
 9275SOL     OW28723   2.198   0.777   2.223  0.0742 -0.2477  0.1137
 9275SOL    HW128724   2.175   0.686   2.257  0.2918 -0.0180  0.9037
 9275SOL    HW228725   2.114   0.831   2.213 -0.3995 -1.3650 -2.9772
 9276SOL     OW28726   6.120   2.246   1.978  0.1492 -0.3282 -0.1452
 9276SOL    HW128727   6.165   2.323   2.024 -0.1843 -0.9850  1.3473
 9276SOL    HW228728   6.156   2.236   1.886  0.7624  1.1267 -0.0907
 9277SOL     OW28729   0.115   2.131   5.608  0.4148  0.3760  0.0785
 9277SOL    HW128730   0.146   2.171   5.694  1.4959  1.4820 -0.7745
 9277SOL    HW228731   0.016   2.140   5.600  0.4366  1.2953  0.7154
 9278SOL     OW28732   4.845   4.720   5.992 -0.3357  0.7866 -0.2341
 9278SOL    HW128733   4.790   4.790   5.947 -0.2858  1.0630  0.1368
 9278SOL    HW228734   4.844   4.734   6.091 -1.0624 -0.2569 -0.0703
 9279SOL     OW28735   4.947   3.062   3.730 -0.0172 -0.8416  0.3844
 9279SOL    HW128736   4.883   3.040   3.656 -0.3914 -0.6700  0.6541
 9279SOL    HW228737   5.025   3.000   3.726  0.2754 -0.4322 -0.5405
 9280SOL     OW28738   2.758   5.194   6.130 -0.3922  0.2388  0.0960
 9280SOL    HW128739   2.744   5.288   6.099  1.2688  0.8577  1.0867
 9280SOL    HW228740   2.693   5.173   6.203 -1.5145  0.1982 -0.8734
 9281SOL     OW28741   0.003   2.324   5.090  0.0864  0.1929 -0.1562
 9281SOL    HW128742  -0.008   2.230   5.057 -2.9852  0.1411  0.7795
 9281SOL    HW228743   0.045   2.323   5.181 -1.9069 -0.4703  0.7926
 9282SOL     OW28744   2.229   1.089   5.068 -0.0085  0.1888  0.3477
 9282SOL    HW128745   2.167   1.016   5.040  0.7721 -0.7217  0.9715
 9282SOL    HW228746   2.222   1.103   5.166  0.1629  0.6798  0.2952
 9283SOL     OW28747   1.117   6.287   4.385 -0.4618 -0.1381  0.1739
 9283SOL    HW128748   1.076   6.377   4.394 -0.8228 -0.3878  1.1509
 9283SOL    HW228749   1.202   6.294   4.332 -0.5555  0.7502  0.1315
 9284SOL     OW28750   2.357   0.103   6.207 -0.0651 -0.3665  0.3222
 9284SOL    HW128751   2.292   0.170   6.243 -0.7824  0.3318 -2.0844
 9284SOL    HW228752   2.391   0.133   6.118  0.3085 -2.7367 -0.4243
 9285SOL     OW28753   4.087   0.107   1.753  0.5121  0.5890  0.8196
 9285SOL    HW128754   4.107   0.017   1.714 -1.2707  0.4240  0.2178
 9285SOL    HW228755   4.122   0.111   1.846 -0.0400 -1.0068  1.1251
 9286SOL     OW28756   2.947   5.735   1.814 -0.0688  0.6692  0.6125
 9286SOL    HW128757   2.914   5.809   1.755 -0.6242 -1.4962 -1.9940
 9286SOL    HW228758   3.025   5.689   1.769 -2.8314 -3.4407 -0.5294
 9287SOL     OW28759   6.181   3.018   6.794  0.3361  0.8726  0.0572
 9287SOL    HW128760   6.132   3.103   6.777 -4.0885 -1.2712  0.7195
 9287SOL    HW228761   6.160   2.952   6.722 -0.2183 -1.1019  1.9348
 9288SOL     OW28762   6.158   2.884   6.548  0.2730  0.9857 -0.2545
 9288SOL    HW128763   6.199   2.843   6.466  1.0189  1.1412  0.0259
 9288SOL    HW228764   6.064   2.910   6.530  0.4937  1.2035 -1.1285
 9289SOL     OW28765   4.790   4.997   6.806 -0.2827 -0.3914 -0.0235
 9289SOL    HW128766   4.863   5.033   6.748 -0.1377 -0.5683  0.0464
 9289SOL    HW228767   4.767   4.904   6.776 -0.0386 -0.5752  0.3559
 9290SOL     OW28768   1.140   0.430   3.725  0.1824 -0.4290  0.3229
 9290SOL    HW128769   1.148   0.526   3.754 -0.6913 -0.7366  1.6381
 9290SOL    HW228770   1.047   0.398   3.741  0.4866 -1.5245 -0.0603
 9291SOL     OW28771   2.474   5.650   2.801 -0.1639 -0.3874  0.7626
 9291SOL    HW128772   2.420   5.699   2.732  0.1230 -2.4205 -1.0170
 9291SOL    HW228773   2.529   5.715   2.853 -1.5498  1.3681  0.1321
 9292SOL     OW28774   2.981   4.473   0.040  0.2724 -0.3488  0.4520
 9292SOL    HW128775   2.891   4.464  -0.001  0.5626 -0.5053 -0.1576
 9292SOL    HW228776   3.042   4.402   0.005  0.4032 -0.7645  1.4957
 9293SOL     OW28777   2.857   4.855   2.126  0.0290 -0.0836  0.6815
 9293SOL    HW128778   2.835   4.775   2.069  2.2601  0.7429 -1.5225
 9293SOL    HW228779   2.900   4.824   2.210 -1.5981 -1.2755  1.1254
 9294SOL     OW28780   6.820   5.384   5.893  0.0307 -0.1407  0.2171
 9294SOL    HW128781   6.731   5.354   5.926  0.5769 -0.8255  1.1113
 9294SOL    HW228782   6.808   5.455   5.824 -1.2321 -0.7812 -0.2533
 9295SOL     OW28783   4.704   1.481   6.984  0.6566 -0.1951 -0.3132
 9295SOL    HW128784   4.677   1.454   7.076  0.4911  0.0506 -0.2872
 9295SOL    HW228785   4.652   1.563   6.957  1.7157  0.5756 -0.0760
 9296SOL     OW28786   1.017   3.668   0.286 -0.0087  0.1159  0.1673
 9296SOL    HW128787   0.969   3.731   0.347 -2.4277 -1.8003  0.4002
 9296SOL    HW228788   1.053   3.590   0.339  0.6119 -0.0402 -0.4586
 9297SOL     OW28789   4.264   5.216   4.691  0.1393 -0.1726  0.2793
 9297SOL    HW128790   4.211   5.167   4.621 -0.5121 -0.0559  0.6836
 9297SOL    HW228791   4.267   5.162   4.775 -0.1326  0.2382  0.5582
 9298SOL     OW28792   6.965   6.756   5.822  0.3019 -0.1071  0.7503
 9298SOL    HW128793   6.954   6.838   5.877 -0.2286 -0.8272  1.7551
 9298SOL    HW228794   6.986   6.781   5.727  0.5809  1.1612  1.1378
 9299SOL     OW28795   1.648   3.234   4.585 -0.3541  0.4659 -0.0967
 9299SOL    HW128796   1.657   3.261   4.489  0.3517  1.4494  0.2287
 9299SOL    HW228797   1.739   3.213   4.622 -0.5261  0.8451  0.5571
 9300SOL     OW28798   2.696   0.636   4.266  0.4712 -0.2189 -0.0364
 9300SOL    HW128799   2.793   0.657   4.275  0.8980 -2.0388 -0.0739
 9300SOL    HW228800   2.678   0.600   4.174  0.0400 -1.2047  0.4209
 9301SOL     OW28801   4.161   2.307   3.844 -0.1135 -0.2514  0.2405
 9301SOL    HW128802   4.095   2.243   3.882 -1.8957  0.7501 -1.0016
 9301SOL    HW228803   4.216   2.347   3.918 -1.5125 -0.4428  1.4165
 9302SOL     OW28804   1.133   1.201   3.474 -0.0178 -0.1049  0.3029
 9302SOL    HW128805   1.131   1.102   3.460 -2.1607 -0.7292  3.7985
 9302SOL    HW228806   1.048   1.241   3.441 -0.2986  0.1008  1.2401
 9303SOL     OW28807   1.683   2.919   5.296 -0.1734  0.0272  0.5204
 9303SOL    HW128808   1.760   2.961   5.246 -1.0979  0.7960 -0.3010
 9303SOL    HW228809   1.621   2.990   5.328 -0.7955 -0.6145  0.7655
 9304SOL     OW28810   3.255   0.349   3.679 -0.2500  0.5710 -0.2322
 9304SOL    HW128811   3.227   0.437   3.716 -0.8270  0.6186 -0.7656
 9304SOL    HW228812   3.174   0.291   3.666  0.3471 -0.9822  2.4611
 9305SOL     OW28813   5.624   3.364   0.086  0.2637  0.5275  0.2394
 9305SOL    HW128814   5.566   3.301   0.034  0.7690  0.4910 -0.3021
 9305SOL    HW228815   5.572   3.405   0.160 -0.2397 -0.0685  0.2196
 9306SOL     OW28816   0.293   5.204   1.113 -0.5339  0.0412 -0.0451
 9306SOL    HW128817   0.295   5.146   1.194 -0.8994 -0.7989 -0.6253
 9306SOL    HW228818   0.241   5.287   1.133 -1.1289 -0.4278  0.4127
 9307SOL     OW28819   3.596   4.229   1.416  0.3363  0.1459  0.0533
 9307SOL    HW128820   3.511   4.199   1.458  0.8819  0.8329  1.7408
 9307SOL    HW228821   3.669   4.163   1.438  0.5657  0.3641 -0.0436
 9308SOL     OW28822   6.803   2.098   5.680 -0.1464 -0.6944  0.2318
 9308SOL    HW128823   6.705   2.105   5.661  0.2372 -0.0252 -1.7639
 9308SOL    HW228824   6.852   2.167   5.627  1.5063 -1.7632  0.2779
 9309SOL     OW28825   2.272   6.320   1.137  0.4114 -0.3079  0.3667
 9309SOL    HW128826   2.177   6.316   1.107  0.3254 -1.8071  0.8030
 9309SOL    HW228827   2.287   6.257   1.213  1.7162  0.0450  0.4341
 9310SOL     OW28828   3.187   5.036   6.740  0.3120  0.4567 -0.5497
 9310SOL    HW128829   3.139   5.059   6.825  1.5484 -0.0892  0.3447
 9310SOL    HW228830   3.153   5.093   6.666 -1.0172  0.7402  0.2405
 9311SOL     OW28831   3.796   2.103   6.898  0.1651  0.4783 -0.5589
 9311SOL    HW128832   3.723   2.127   6.833 -0.5017 -1.5666 -0.6686
 9311SOL    HW228833   3.874   2.163   6.885 -0.6098  1.2182 -2.0903
 9312SOL     OW28834   2.429   0.171   2.872  0.5902  0.3117  0.0051
 9312SOL    HW128835   2.525   0.146   2.871  0.4039 -0.5944  1.3080
 9312SOL    HW228836   2.412   0.236   2.947 -0.1849 -1.3623  1.3416
 9313SOL     OW28837   2.207   3.533   5.590 -0.2647 -0.5578 -0.1770
 9313SOL    HW128838   2.209   3.438   5.560 -0.4596 -0.0825 -1.7942
 9313SOL    HW228839   2.172   3.538   5.684  0.5268 -2.1279  0.2322
 9314SOL     OW28840   5.684   2.046   5.480 -0.5337 -0.1389  0.1757
 9314SOL    HW128841   5.609   2.018   5.540 -1.2865  2.0989  0.3769
 9314SOL    HW228842   5.647   2.073   5.391  0.0000  1.0301  0.2872
 9315SOL     OW28843   1.820   3.378   3.751 -0.1196 -0.7279 -0.2408
 9315SOL    HW128844   1.802   3.328   3.835 -1.7455  1.7830  1.0109
 9315SOL    HW228845   1.912   3.418   3.754  0.4910 -2.0490 -0.4795
 9316SOL     OW28846   3.890   6.863   1.522  0.0944 -0.2663  0.4608
 9316SOL    HW128847   3.969   6.876   1.461 -0.1381  1.4854  0.5075
 9316SOL    HW228848   3.909   6.785   1.583  0.9952 -1.0456 -0.7528
 9317SOL     OW28849   5.720   0.168   6.188 -0.8411  0.0482 -0.2654
 9317SOL    HW128850   5.745   0.262   6.212 -2.4166  0.0670  1.5873
 9317SOL    HW228851   5.801   0.110   6.186  0.2487  1.5419 -2.0926
 9318SOL     OW28852   6.460   1.457   3.204  0.2904 -0.0914 -0.2730
 9318SOL    HW128853   6.404   1.532   3.169 -0.1500 -0.2027  0.1911
 9318SOL    HW228854   6.449   1.377   3.144  0.4599  0.0866 -0.5473
 9319SOL     OW28855   0.873   1.099   3.532 -0.3873  0.4591  0.6703
 9319SOL    HW128856   0.920   1.027   3.481 -2.4791 -1.5933  1.4575
 9319SOL    HW228857   0.833   1.165   3.468  0.2855  0.1125 -0.1298
 9320SOL     OW28858   6.436   2.515   6.083  0.2512  0.5824  1.0286
 9320SOL    HW128859   6.467   2.589   6.144 -0.9245  0.3276  1.9829
 9320SOL    HW228860   6.484   2.431   6.106 -1.1445  0.1551  2.5977
 9321SOL     OW28861   1.170   1.602   0.100 -0.1744  0.2940 -0.5946
 9321SOL    HW128862   1.257   1.632   0.061  0.3429 -0.5297 -0.1012
 9321SOL    HW228863   1.152   1.507   0.074 -0.7065  0.3175 -0.3231
 9322SOL     OW28864   3.558   6.374   4.809  0.2132  0.8469 -0.3779
 9322SOL    HW128865   3.596   6.294   4.856  1.3558  2.1978  1.0607
 9322SOL    HW228866   3.625   6.409   4.744  1.1549  2.6599  1.4779
 9323SOL     OW28867   5.218   2.076   0.356 -0.1964 -0.2301  0.0125
 9323SOL    HW128868   5.218   1.988   0.309  1.3857 -0.4191  0.3312
 9323SOL    HW228869   5.243   2.062   0.452 -2.3422  0.2791  0.7026
 9324SOL     OW28870   4.632   2.275   0.654  0.2495 -0.1120 -0.1897
 9324SOL    HW128871   4.699   2.229   0.712 -0.1448  0.2305  0.5582
 9324SOL    HW228872   4.541   2.239   0.673 -0.2395  1.7014  1.2446
 9325SOL     OW28873   2.106   4.904   2.882 -0.2641  0.1015  0.1700
 9325SOL    HW128874   2.054   4.989   2.890  0.4905  0.4376  2.1681
 9325SOL    HW228875   2.173   4.912   2.808 -0.4145  1.1519  0.1397
 9326SOL     OW28876   0.293   2.737   5.849  1.1132 -0.2158  0.2937
 9326SOL    HW128877   0.293   2.824   5.898  0.4389 -0.2152  0.3144
 9326SOL    HW228878   0.366   2.736   5.781  1.5207  0.1179  0.7234
 9327SOL     OW28879   1.955   1.195   3.716 -0.2709 -0.3585  0.2937
 9327SOL    HW128880   1.879   1.183   3.780  0.6384  1.3334  1.7545
 9327SOL    HW228881   1.920   1.195   3.622 -2.0854  0.4306  0.9359
 9328SOL     OW28882   5.844   4.720   3.393 -0.4595  0.6217  1.0131
 9328SOL    HW128883   5.784   4.659   3.444 -0.8806  0.1020 -0.0817
 9328SOL    HW228884   5.790   4.793   3.352 -0.1461  0.9540  1.1950
 9329SOL     OW28885   5.441   6.424   1.940  0.0618  0.3711  0.0538
 9329SOL    HW128886   5.409   6.422   1.845  3.1388  0.6275 -1.1028
 9329SOL    HW228887   5.419   6.513   1.980  0.3950  0.9977 -1.0987
 9330SOL     OW28888   2.150   6.082   6.773  0.2623  0.1125  0.1378
 9330SOL    HW128889   2.066   6.132   6.795  0.1749  0.7703 -1.4885
 9330SOL    HW228890   2.127   5.989   6.744  0.2972 -0.4104  1.7136
 9331SOL     OW28891   0.922   0.601   1.847 -0.7107 -0.2253 -0.0541
 9331SOL    HW128892   0.970   0.528   1.800 -0.3632 -0.4986  0.7133
 9331SOL    HW228893   0.969   0.624   1.933 -0.4947  1.2778 -0.5379
 9332SOL     OW28894   5.592   4.465   1.958  0.5578 -0.0459 -0.2707
 9332SOL    HW128895   5.689   4.449   1.934 -0.2706 -1.6565 -3.1468
 9332SOL    HW228896   5.569   4.410   2.038  2.2290  1.2069  1.1537
 9333SOL     OW28897   1.329   6.973   5.981  0.3598  0.2110  0.1096
 9333SOL    HW128898   1.284   7.020   5.905 -1.1981 -0.0969  0.7972
 9333SOL    HW228899   1.427   6.993   5.980  0.5112 -0.3683 -2.3986
 9334SOL     OW28900   4.708   2.973   5.568  0.1096  0.4353 -0.3238
 9334SOL    HW128901   4.699   3.055   5.513  0.1519 -0.0474 -1.0616
 9334SOL    HW228902   4.739   2.897   5.511 -1.5231 -0.5035 -0.0198
 9335SOL     OW28903   1.901   6.049   3.780 -0.2527 -0.2628  0.2247
 9335SOL    HW128904   1.847   6.108   3.839 -1.5111 -0.6211 -0.5483
 9335SOL    HW228905   1.898   5.955   3.814 -4.0320 -1.2693 -2.2293
 9336SOL     OW28906   0.865   0.052   1.435  0.2229 -0.0235 -0.1747
 9336SOL    HW128907   0.825  -0.026   1.387  0.7734 -1.4301  1.5393
 9336SOL    HW228908   0.863   0.132   1.375  0.1491 -1.4593 -2.2133
 9337SOL     OW28909   3.949   0.926   4.479 -0.3468  0.2006 -0.1399
 9337SOL    HW128910   3.884   0.897   4.549 -0.7723 -1.0257 -1.0014
 9337SOL    HW228911   4.037   0.944   4.521 -0.3421 -1.3754  0.6292
 9338SOL     OW28912   4.445   1.888   0.781  0.2487 -0.1477  0.0038
 9338SOL    HW128913   4.482   1.977   0.808 -1.8715  0.6170  0.5819
 9338SOL    HW228914   4.513   1.838   0.728  1.1190  2.2770 -1.3053
 9339SOL     OW28915   0.539   1.660   5.324  0.2341  0.3620 -0.2378
 9339SOL    HW128916   0.550   1.561   5.332 -0.0917  0.3179 -0.3220
 9339SOL    HW228917   0.617   1.698   5.273  1.5008  0.4413  1.6409
 9340SOL     OW28918   6.857   5.156   3.681  0.2956  0.1712 -0.1524
 9340SOL    HW128919   6.768   5.156   3.637  0.7410 -1.6099 -1.1182
 9340SOL    HW228920   6.913   5.230   3.642 -0.8277  1.5427  0.7255
 9341SOL     OW28921   0.525   2.303   4.679 -0.3468  0.0028 -0.2974
 9341SOL    HW128922   0.473   2.377   4.720 -0.4739  0.2542 -0.9006
 9341SOL    HW228923   0.512   2.304   4.580  1.2150  0.3928 -0.5209
 9342SOL     OW28924   2.231   3.841   1.798  0.6695  0.1471  1.1237
 9342SOL    HW128925   2.198   3.773   1.863  0.7034 -1.3452 -0.3447
 9342SOL    HW228926   2.156   3.903   1.772 -1.0189 -2.7599 -1.6439
 9343SOL     OW28927   4.499   6.123   2.954 -0.1207 -0.2435  0.0777
 9343SOL    HW128928   4.473   6.160   2.865  0.5472  2.4326  0.9085
 9343SOL    HW228929   4.423   6.070   2.991 -1.1895  0.3528 -1.1662
 9344SOL     OW28930   3.007   3.252   1.506 -0.1676  0.3926  0.1416
 9344SOL    HW128931   2.924   3.201   1.487 -0.2673  0.0979  1.2467
 9344SOL    HW228932   3.069   3.194   1.560  0.7655  0.5940 -0.6962
 9345SOL     OW28933   2.660   1.903   1.479 -0.4002 -0.3530 -0.5690
 9345SOL    HW128934   2.572   1.884   1.523  0.0434 -0.8266  0.1333
 9345SOL    HW228935   2.718   1.954   1.542  0.9704 -2.7321  0.1801
 9346SOL     OW28936   0.227   4.551   1.144 -0.4609 -0.3651 -0.3488
 9346SOL    HW128937   0.156   4.480   1.144 -1.8113  0.8330  2.2307
 9346SOL    HW228938   0.291   4.533   1.219  1.5985 -0.9950 -2.1699
 9347SOL     OW28939   0.649   5.954   1.941  0.1604 -0.1542 -0.1012
 9347SOL    HW128940   0.571   6.005   1.978  1.0584  1.0660  0.2083
 9347SOL    HW228941   0.639   5.857   1.962  0.2960  0.3669  2.8725
 9348SOL     OW28942   3.153   1.586   4.522  0.5303 -0.1221 -0.6690
 9348SOL    HW128943   3.113   1.607   4.432  0.2970 -0.6408 -0.6915
 9348SOL    HW228944   3.081   1.590   4.592  0.9912  1.7590 -0.2623
 9349SOL     OW28945   2.800   5.018   4.896  0.1364 -0.4874 -0.0053
 9349SOL    HW128946   2.722   4.960   4.873  0.5414 -1.2329  0.4428
 9349SOL    HW228947   2.864   5.019   4.818 -0.2650  0.0511 -0.3369
 9350SOL     OW28948   3.587   1.383   6.761  0.1561 -0.1279 -0.1505
 9350SOL    HW128949   3.578   1.357   6.857 -0.2666 -1.4731 -0.5400
 9350SOL    HW228950   3.584   1.483   6.753 -0.4297 -0.0279  1.1624
 9351SOL     OW28951   5.633   3.917   1.540 -0.0171  0.2379 -0.1274
 9351SOL    HW128952   5.583   3.944   1.458 -1.8778  0.5062  1.0397
 9351SOL    HW228953   5.580   3.940   1.622  1.8137  0.0758  1.1899
 9352SOL     OW28954   0.860   4.560   3.445  0.1695  0.1676 -0.1249
 9352SOL    HW128955   0.793   4.516   3.506  0.4386 -1.8203 -1.1631
 9352SOL    HW228956   0.837   4.657   3.435 -1.2239  0.0385  1.2893
 9353SOL     OW28957   4.534   5.042   0.713  0.0438 -0.7477 -0.3037
 9353SOL    HW128958   4.499   4.971   0.775  0.2214 -0.0733  0.5853
 9353SOL    HW228959   4.537   5.006   0.620 -2.1204 -1.1313 -0.2677
 9354SOL     OW28960   4.500   3.413   6.539  0.1211 -0.0027  0.4050
 9354SOL    HW128961   4.544   3.323   6.535  0.3272 -0.0079  2.0033
 9354SOL    HW228962   4.528   3.459   6.623 -1.3608  0.8325  0.4594
 9355SOL     OW28963   6.201   5.185   5.280 -0.4432  0.0486  0.0877
 9355SOL    HW128964   6.130   5.202   5.212 -1.1552 -1.2131  0.4686
 9355SOL    HW228965   6.170   5.113   5.342  1.5434 -1.2172 -0.2960
 9356SOL     OW28966   0.259   0.572   0.752 -0.5552 -0.5712  0.2524
 9356SOL    HW128967   0.209   0.581   0.838  1.0486 -3.5971  1.6579
 9356SOL    HW228968   0.356   0.556   0.772  0.6722  2.6202 -2.3089
 9357SOL     OW28969   5.009   5.388   4.536  0.3440  0.1300 -0.3110
 9357SOL    HW128970   4.961   5.461   4.487 -1.2836 -0.8550 -0.2560
 9357SOL    HW228971   5.033   5.420   4.627  0.9655  1.0687 -0.7817
 9358SOL     OW28972   2.629   2.033   5.063 -0.1418 -0.1514 -0.1542
 9358SOL    HW128973   2.716   2.024   5.014 -0.4889 -1.1563 -0.6090
 9358SOL    HW228974   2.580   2.113   5.028  0.6949  0.5569  0.2690
 9359SOL     OW28975   3.711   3.363   4.871 -0.0247 -0.0904  0.3343
 9359SOL    HW128976   3.750   3.289   4.927 -0.2222  0.2444  0.9312
 9359SOL    HW228977   3.767   3.445   4.881  0.4505 -0.2770 -0.6857
 9360SOL     OW28978   6.468   0.691   2.002 -0.2873  0.1363 -0.0812
 9360SOL    HW128979   6.481   0.617   1.936 -0.1868  0.3496 -0.2991
 9360SOL    HW228980   6.471   0.653   2.095  1.9228  0.1503 -0.0899
 9361SOL     OW28981   3.049   5.886   2.677 -0.0633 -0.2472  0.0737
 9361SOL    HW128982   3.077   5.936   2.759  0.3880 -1.4873  0.7185
 9361SOL    HW228983   2.970   5.828   2.699 -0.3006 -0.1580 -0.5291
 9362SOL     OW28984   2.971   6.390   2.592 -0.3042 -0.3510 -0.2105
 9362SOL    HW128985   2.979   6.321   2.519  3.7223 -0.4304  0.0589
 9362SOL    HW228986   2.978   6.481   2.552  0.9003 -0.3659 -0.0741
 9363SOL     OW28987   6.451   6.347   6.131  0.0906  0.1914 -0.6351
 9363SOL    HW128988   6.371   6.342   6.072  0.3110 -0.7473 -0.8782
 9363SOL    HW228989   6.443   6.279   6.204  0.1569  0.8499 -0.0043
 9364SOL     OW28990   5.149   4.854   5.462 -0.1487 -0.4773  0.1923
 9364SOL    HW128991   5.057   4.841   5.500  0.0095  0.2428  0.8423
 9364SOL    HW228992   5.163   4.789   5.387 -0.7966 -1.3209  0.7771
 9365SOL     OW28993   0.735   6.745   2.793  0.0233  0.1849  0.0218
 9365SOL    HW128994   0.770   6.834   2.823 -2.3222  1.1872 -0.0451
 9365SOL    HW228995   0.812   6.684   2.775  1.6993  0.9950  3.5238
 9366SOL     OW28996   3.436   1.823   3.180 -0.1214 -0.8431  0.5823
 9366SOL    HW128997   3.482   1.911   3.192 -0.2241 -0.4401 -1.5769
 9366SOL    HW228998   3.348   1.837   3.135  1.4434 -2.2189 -3.3308
 9367SOL     OW28999   5.513   5.257   3.067  0.6751  0.0262  0.7693
 9367SOL    HW129000   5.430   5.312   3.061  1.0392  0.6518  1.2928
 9367SOL    HW229001   5.571   5.276   2.987  1.4132  1.4609  1.6054
 9368SOL     OW29002   1.730   3.032   1.705  0.3736  0.2540  0.3600
 9368SOL    HW129003   1.691   3.010   1.615  1.1213 -0.2801  0.1576
 9368SOL    HW229004   1.673   2.990   1.776 -1.3151  2.2239  0.2799
 9369SOL     OW29005   3.538   0.546   5.180  0.2880 -0.2905  0.0275
 9369SOL    HW129006   3.526   0.605   5.100  1.4248 -1.2507 -0.8882
 9369SOL    HW229007   3.634   0.518   5.187 -0.0503 -1.2913  0.9682
 9370SOL     OW29008   4.682   2.781   4.729 -0.5582  0.0341  0.1300
 9370SOL    HW129009   4.691   2.733   4.816 -0.0386 -1.3717 -0.6665
 9370SOL    HW229010   4.763   2.763   4.672 -0.0956  2.2997 -0.0158
 9371SOL     OW29011   3.291   4.056   2.594  0.8987 -0.8182  0.3315
 9371SOL    HW129012   3.381   4.068   2.637  1.2404  0.8584 -0.7238
 9371SOL    HW229013   3.303   4.054   2.494 -0.1987 -1.1444  0.1966
 9372SOL     OW29014   0.216   6.689   0.375 -0.3948 -0.1677 -0.1490
 9372SOL    HW129015   0.223   6.659   0.471 -0.4440 -0.3608 -0.2062
 9372SOL    HW229016   0.133   6.652   0.335 -0.4635  0.0597 -0.2159
 9373SOL     OW29017   5.323   0.852   1.575  0.0317  0.0221  0.0603
 9373SOL    HW129018   5.367   0.766   1.551 -1.0637 -0.3786 -0.5675
 9373SOL    HW229019   5.303   0.853   1.673 -0.0709 -0.5004  0.0447
 9374SOL     OW29020   5.013   5.073   6.654  0.1053  0.7828 -0.6474
 9374SOL    HW129021   5.050   5.155   6.697 -0.2138  0.3437  0.4964
 9374SOL    HW229022   5.065   4.993   6.685  0.5332  0.5540 -1.8891
 9375SOL     OW29023   0.704   0.726   1.725 -0.2891  0.3696  0.4739
 9375SOL    HW129024   0.665   0.787   1.794  0.3508  0.5453  0.6839
 9375SOL    HW229025   0.776   0.670   1.767  1.1631  1.5290 -0.3754
 9376SOL     OW29026   3.272   1.337   6.021 -0.2109 -0.2646 -0.1180
 9376SOL    HW129027   3.333   1.263   6.049  0.4100  0.3579  0.1815
 9376SOL    HW229028   3.272   1.409   6.090 -0.6688  0.1113 -0.4964
 9377SOL     OW29029   2.643   0.717   1.218 -0.8434  0.1567 -0.3709
 9377SOL    HW129030   2.570   0.709   1.149  0.5967 -0.8874 -1.8505
 9377SOL    HW229031   2.715   0.652   1.197  0.9846  1.8109  0.4825
 9378SOL     OW29032   4.966   6.558   6.430  0.0866 -0.0223 -0.1228
 9378SOL    HW129033   4.968   6.656   6.451 -1.0058  0.0828 -0.4169
 9378SOL    HW229034   4.920   6.509   6.504  2.1622 -0.5822  0.8670
 9379SOL     OW29035   4.015   2.282   0.646 -0.0517  0.0981 -0.3161
 9379SOL    HW129036   3.960   2.322   0.573 -0.3124  0.6195  0.1606
 9379SOL    HW229037   3.994   2.184   0.655 -0.1176  0.0655 -0.8422
 9380SOL     OW29038   2.930   0.930   5.300 -0.3408 -0.2359 -0.4996
 9380SOL    HW129039   2.953   1.009   5.356 -3.7471  1.5982 -1.4161
 9380SOL    HW229040   2.915   0.850   5.359  0.2454  0.5474  0.7450
 9381SOL     OW29041   4.260   0.022   0.693 -0.2512  0.3580 -0.2945
 9381SOL    HW129042   4.187   0.068   0.643  1.1792  0.9124 -1.9900
 9381SOL    HW229043   4.313  -0.034   0.630  0.8025  0.0026  0.8757
 9382SOL     OW29044   0.308   0.691   0.488  0.2674 -0.1721 -0.0743
 9382SOL    HW129045   0.268   0.649   0.407  1.2671 -2.0699  0.3670
 9382SOL    HW229046   0.258   0.661   0.569 -0.6256  1.5910  0.0788
 9383SOL     OW29047   2.140   3.418   3.226 -0.0370  0.3183 -0.0992
 9383SOL    HW129048   2.207   3.467   3.282  0.8057 -1.1069  0.1791
 9383SOL    HW229049   2.107   3.338   3.276 -1.0915  0.3581 -0.7052
 9384SOL     OW29050   4.631   1.508   5.524 -0.0109 -0.4655 -0.4135
 9384SOL    HW129051   4.539   1.544   5.537  0.4772  0.5149  0.4089
 9384SOL    HW229052   4.675   1.496   5.613  1.3442  0.9190 -0.8557
 9385SOL     OW29053   2.112   5.050   1.196 -0.1541 -0.3113 -0.3381
 9385SOL    HW129054   2.107   5.124   1.129 -0.7499 -0.1375 -0.1071
 9385SOL    HW229055   2.125   5.088   1.288 -0.7382 -0.4698 -0.1819
 9386SOL     OW29056   4.168   5.406   2.887 -0.0384  1.0049  0.3411
 9386SOL    HW129057   4.187   5.456   2.971  0.2219  0.3694  0.6701
 9386SOL    HW229058   4.113   5.463   2.826 -2.1788  0.6921  1.8606
 9387SOL     OW29059   2.010   4.149   5.716 -0.4884  0.0057 -0.4946
 9387SOL    HW129060   2.067   4.196   5.650  1.2346 -0.1331  0.8282
 9387SOL    HW229061   1.991   4.056   5.684 -0.4876  0.2526 -1.2227
 9388SOL     OW29062   5.486   2.014   2.986  0.0825 -0.1538 -0.3367
 9388SOL    HW129063   5.484   2.036   3.083  0.1575 -0.7338 -0.2027
 9388SOL    HW229064   5.469   2.098   2.933 -0.7791  0.0137  0.1832
 9389SOL     OW29065   3.939   6.383   6.791  0.1794 -0.3385  0.1392
 9389SOL    HW129066   3.851   6.342   6.766  0.6960 -0.6926 -1.1477
 9389SOL    HW229067   3.936   6.412   6.887 -1.5811  0.2730 -0.0587
 9390SOL     OW29068   3.413   6.548   3.893 -0.0289 -0.0509  0.1317
 9390SOL    HW129069   3.500   6.499   3.901  0.1200 -0.1126 -1.4534
 9390SOL    HW229070   3.340   6.493   3.933  0.8107  0.5984  2.7517
 9391SOL     OW29071   2.797   6.021   3.168  0.1365  0.4939  0.3557
 9391SOL    HW129072   2.703   6.051   3.156  0.1156  0.6985  1.0188
 9391SOL    HW229073   2.859   6.090   3.132  0.0189 -0.2702 -1.4172
 9392SOL     OW29074   6.891   3.856   4.917  0.0951  0.1862  0.0665
 9392SOL    HW129075   6.974   3.866   4.972  0.4954  0.9032 -0.6547
 9392SOL    HW229076   6.886   3.763   4.881  0.7335  0.2144 -0.1054
 9393SOL     OW29077   0.531   2.101   4.020  0.1906 -0.0773 -0.5875
 9393SOL    HW129078   0.531   2.143   4.111 -2.3697 -0.6166 -0.2424
 9393SOL    HW229079   0.535   2.172   3.951 -0.6697  0.5475 -0.0190
 9394SOL     OW29080   3.209   6.638   6.171  0.2961 -0.4498 -0.0727
 9394SOL    HW129081   3.186   6.728   6.136  1.0338  0.5553  1.8696
 9394SOL    HW229082   3.213   6.641   6.271  1.1990 -2.4305  0.0014
 9395SOL     OW29083   4.380   6.406   3.616  0.0333 -0.0670  0.7956
 9395SOL    HW129084   4.465   6.361   3.642 -0.1240 -0.5401  0.5050
 9395SOL    HW229085   4.327   6.346   3.556 -0.5255  0.2018  1.0077
 9396SOL     OW29086   1.566   4.764   6.001 -0.3462 -0.2949  0.0007
 9396SOL    HW129087   1.566   4.664   5.992 -0.2626 -0.1494 -2.1384
 9396SOL    HW229088   1.532   4.805   5.916  1.4587  1.5546  0.0926
 9397SOL     OW29089   2.559   5.639   2.109 -0.2206 -0.6725  0.1189
 9397SOL    HW129090   2.645   5.681   2.138  0.5402 -1.1444 -1.3734
 9397SOL    HW229091   2.554   5.637   2.009 -2.1925 -0.2111  0.1493
 9398SOL     OW29092   1.335   1.274   3.960  0.0456 -0.2802  0.0583
 9398SOL    HW129093   1.304   1.354   4.011  0.1279  0.4100 -0.9285
 9398SOL    HW229094   1.305   1.282   3.865  0.4143 -1.2285 -0.1489
 9399SOL     OW29095   0.972   5.738   5.187  0.5271  0.6636 -0.4657
 9399SOL    HW129096   0.914   5.661   5.159  0.9671 -0.3328  1.2140
 9399SOL    HW229097   0.919   5.801   5.244  0.6407  0.6489 -0.3426
 9400SOL     OW29098   2.018   4.817   2.157  0.0046  0.5140 -0.2637
 9400SOL    HW129099   2.044   4.727   2.121  0.2740  0.9957 -1.2956
 9400SOL    HW229100   2.087   4.846   2.224 -1.1834 -0.9676  1.7189
 9401SOL     OW29101   1.174   0.683   3.872 -0.2331  0.1035  0.2765
 9401SOL    HW129102   1.095   0.638   3.914  0.0253 -0.3061  0.3323
 9401SOL    HW229103   1.254   0.671   3.932  0.3955 -1.4029 -0.8044
 9402SOL     OW29104   1.961   3.660   5.564  0.7514  0.6649  0.1447
 9402SOL    HW129105   1.874   3.615   5.587  0.6601  2.1204  3.2700
 9402SOL    HW229106   2.032   3.591   5.552  0.1076 -0.4695  2.2891
 9403SOL     OW29107   1.871   0.286   6.125 -0.4920  0.0039  0.2691
 9403SOL    HW129108   1.879   0.222   6.202 -0.4296 -0.2170  0.0811
 9403SOL    HW229109   1.801   0.354   6.145  1.0615  1.3231  1.5119
 9404SOL     OW29110   4.148   1.138   0.608  0.3741  0.2256 -0.1882
 9404SOL    HW129111   4.138   1.122   0.510 -1.2159 -0.8169  0.1103
 9404SOL    HW229112   4.158   1.236   0.625 -1.9896  0.7046 -1.2215
 9405SOL     OW29113   5.829   4.165   0.753  0.2944 -0.3607 -0.2365
 9405SOL    HW129114   5.847   4.194   0.847 -0.3501  0.5908 -0.3959
 9405SOL    HW229115   5.883   4.084   0.733  1.9353  0.5378  0.3339
 9406SOL     OW29116   3.582   0.704   2.932 -0.0635  0.2317  0.5004
 9406SOL    HW129117   3.609   0.763   3.008 -3.6314  2.8166  0.0054
 9406SOL    HW229118   3.506   0.746   2.883  2.0066 -1.2544 -4.6189
 9407SOL     OW29119   0.847   6.290   4.595 -0.0912  0.2542 -0.1211
 9407SOL    HW129120   0.810   6.351   4.525  0.4135  0.6255 -0.0666
 9407SOL    HW229121   0.865   6.200   4.554 -1.6598 -0.1532 -0.0017
 9408SOL     OW29122   0.652   1.651   1.534 -0.0608  0.0976 -0.1716
 9408SOL    HW129123   0.569   1.694   1.498  0.0448  0.3895 -0.0657
 9408SOL    HW229124   0.631   1.604   1.620 -0.4313 -1.0395 -0.8521
 9409SOL     OW29125   1.058   5.249   2.383 -0.0909  0.5383  0.4666
 9409SOL    HW129126   1.137   5.193   2.357 -0.6246  0.0161 -0.0432
 9409SOL    HW229127   1.007   5.203   2.455  0.1977  0.9968  0.9779
 9410SOL     OW29128   4.924   0.334   2.803  0.3356 -0.2196 -0.2645
 9410SOL    HW129129   4.951   0.303   2.712 -0.4017 -1.1446 -0.1932
 9410SOL    HW229130   4.996   0.313   2.869  1.6150  1.9808 -0.8725
 9411SOL     OW29131   0.338   3.569   5.272 -0.4129  0.2423  0.2318
 9411SOL    HW129132   0.426   3.612   5.294 -0.5452  0.6148  0.0423
 9411SOL    HW229133   0.354   3.483   5.223 -0.1594  0.6680 -0.4537
 9412SOL     OW29134   3.783   1.154   6.865 -0.4247  0.3110 -0.5141
 9412SOL    HW129135   3.821   1.233   6.817  0.4613  2.2011  2.9221
 9412SOL    HW229136   3.691   1.177   6.898 -0.0742  0.0804  0.7031
 9413SOL     OW29137   5.463   5.657   4.848  0.0328 -0.4589  0.0771
 9413SOL    HW129138   5.551   5.664   4.895 -0.0111  0.9194  0.0123
 9413SOL    HW229139   5.474   5.683   4.752 -0.6389  1.0040  0.3597
 9414SOL     OW29140   5.955   2.969   2.251 -0.0594 -0.0666 -0.1077
 9414SOL    HW129141   5.891   3.042   2.276 -0.3147  0.1311 -1.3010
 9414SOL    HW229142   6.012   2.946   2.331 -0.7646  0.6155  0.6120
 9415SOL     OW29143   1.614   4.507   5.942  0.3012 -0.0856  0.3192
 9415SOL    HW129144   1.705   4.520   5.902 -0.1384 -0.7322 -0.9447
 9415SOL    HW229145   1.613   4.422   5.995 -0.5373 -2.2494 -2.8748
 9416SOL     OW29146   2.033   0.692   6.208 -0.1595 -0.0650  0.5035
 9416SOL    HW129147   2.044   0.698   6.308  1.5329 -0.3527  0.3588
 9416SOL    HW229148   2.076   0.608   6.175 -1.0432 -0.1554 -0.4401
 9417SOL     OW29149   6.636   3.145   0.042 -0.1311  0.1065  0.0881
 9417SOL    HW129150   6.693   3.087  -0.016 -0.4046  1.4330 -1.5786
 9417SOL    HW229151   6.540   3.129   0.019 -0.3369 -0.4215  1.2509
 9418SOL     OW29152   2.126   2.179   4.102 -0.2017  0.3375  0.1207
 9418SOL    HW129153   2.170   2.233   4.174 -1.4808 -0.3513  1.4804
 9418SOL    HW229154   2.152   2.216   4.013  1.1605  1.4369  0.9199
 9419SOL     OW29155   1.184   2.370   0.399 -0.6832  0.1500  0.1206
 9419SOL    HW129156   1.113   2.300   0.393  0.2700 -0.7791 -0.8261
 9419SOL    HW229157   1.256   2.339   0.461 -1.1017  1.1170  1.1331
 9420SOL     OW29158   1.705   5.059   6.008  0.6445 -0.1050  0.0435
 9420SOL    HW129159   1.631   4.993   6.022  0.1960  0.2296 -0.7072
 9420SOL    HW229160   1.768   5.024   5.938  1.0558 -0.2621  0.4839
 9421SOL     OW29161   3.445   3.464   4.335 -0.0949 -0.0262 -0.4365
 9421SOL    HW129162   3.353   3.435   4.308  0.2567 -2.3305  0.6110
 9421SOL    HW229163   3.460   3.442   4.431  0.4488  3.3434  0.3874
 9422SOL     OW29164   6.267   0.361   2.574  0.1143 -0.4324  0.0647
 9422SOL    HW129165   6.261   0.314   2.486 -1.2686 -0.5444  0.1968
 9422SOL    HW229166   6.208   0.314   2.641 -0.8630  1.1306  0.3528
 9423SOL     OW29167   4.872   4.544   1.396  0.5808  0.4964 -0.3926
 9423SOL    HW129168   4.784   4.525   1.439  1.5764 -3.6150  0.2530
 9423SOL    HW229169   4.924   4.606   1.453 -0.1404 -0.7625  1.7481
 9424SOL     OW29170   1.911   1.380   0.186 -0.2912  0.3354 -0.2239
 9424SOL    HW129171   1.819   1.416   0.167  0.6177  2.3126 -1.2255
 9424SOL    HW229172   1.916   1.350   0.281 -2.1754 -0.5585 -0.3480
 9425SOL     OW29173   2.129   4.572   3.661 -0.5504 -0.0421 -0.1517
 9425SOL    HW129174   2.204   4.538   3.605  0.0282 -0.4096  0.8086
 9425SOL    HW229175   2.114   4.669   3.642 -1.9840 -0.6837 -2.6643
 9426SOL     OW29176   0.199   5.054   2.016 -0.0844  0.2561  0.2070
 9426SOL    HW129177   0.272   5.031   2.080 -0.4198  0.2323  0.5874
 9426SOL    HW229178   0.238   5.097   1.935  0.5430 -1.5200 -0.4756
 9427SOL     OW29179   0.631   0.220   1.531 -0.0541 -0.1771 -0.4333
 9427SOL    HW129180   0.595   0.282   1.461 -0.0318 -0.1187 -0.3925
 9427SOL    HW229181   0.711   0.172   1.494 -1.0530 -1.4199 -1.0616
 9428SOL     OW29182   5.484   0.276   6.080 -0.4831  0.4606  0.6134
 9428SOL    HW129183   5.575   0.276   6.120 -1.1229  1.0509  2.1538
 9428SOL    HW229184   5.446   0.369   6.085 -1.3276  0.1375  0.3734
 9429SOL     OW29185   0.186   6.693   6.674 -0.0131 -0.5699  0.1357
 9429SOL    HW129186   0.278   6.675   6.638  0.3900  0.8216  0.3977
 9429SOL    HW229187   0.188   6.685   6.773  0.8478  3.1285  0.5733
 9430SOL     OW29188   4.651   4.642   1.210 -0.4488  0.3575 -0.0023
 9430SOL    HW129189   4.579   4.712   1.217 -0.0930  0.6650  0.6565
 9430SOL    HW229190   4.721   4.659   1.279 -0.8758 -1.2627  0.8992
 9431SOL     OW29191   3.723   4.845   6.151 -0.1600 -0.8999 -0.2777
 9431SOL    HW129192   3.744   4.847   6.054 -0.1429 -1.0665 -0.2786
 9431SOL    HW229193   3.729   4.937   6.189  0.7224 -0.9563 -0.2526
 9432SOL     OW29194   1.044   6.944   0.976  0.1923 -0.2290 -0.0608
 9432SOL    HW129195   1.089   6.981   1.058 -0.7553  0.7759  0.0385
 9432SOL    HW229196   0.967   6.887   1.003 -0.5568  0.6676 -0.2226
 9433SOL     OW29197   6.078   0.813   0.808 -0.0567  0.3645 -0.1312
 9433SOL    HW129198   6.027   0.875   0.748  0.4139  0.8698 -0.0183
 9433SOL    HW229199   6.039   0.721   0.802 -0.1843  0.4662 -1.0149
 9434SOL     OW29200   0.867   2.350   4.978  0.0273  0.2255 -0.0252
 9434SOL    HW129201   0.936   2.360   4.906 -1.4000 -0.2534 -1.5223
 9434SOL    HW229202   0.776   2.366   4.940 -0.6887  1.6662  2.0621
 9435SOL     OW29203   1.921   0.057   2.452  0.2246 -0.3965  1.1159
 9435SOL    HW129204   1.973  -0.004   2.512 -0.5115 -0.6294  1.5193
 9435SOL    HW229205   1.909   0.014   2.362  1.5214  0.0460  0.7073
 9436SOL     OW29206   5.428   1.160   3.150 -0.5234 -0.7406  0.7650
 9436SOL    HW129207   5.487   1.158   3.069  0.7659  2.1806  1.4913
 9436SOL    HW229208   5.354   1.226   3.137  0.3823  0.6746  2.2967
 9437SOL     OW29209   5.303   4.771   2.359  0.0343 -0.7698 -0.0693
 9437SOL    HW129210   5.372   4.698   2.353  0.4269 -0.6898  2.3661
 9437SOL    HW229211   5.345   4.859   2.336 -0.5571 -1.2300 -3.5158
 9438SOL     OW29212   0.521   4.927   4.620 -0.3632 -0.4168  0.0352
 9438SOL    HW129213   0.451   4.900   4.687 -0.4801 -0.5676 -0.1474
 9438SOL    HW229214   0.487   5.003   4.565  0.0247  0.2252  0.6532
 9439SOL     OW29215   2.191   4.522   0.978 -0.1781 -0.4753  0.2452
 9439SOL    HW129216   2.162   4.613   0.950 -1.0701 -0.5401  0.9234
 9439SOL    HW229217   2.219   4.470   0.898  1.0693  0.6349 -0.0701
 9440SOL     OW29218   4.232   1.130   5.946  0.0152 -0.0554 -0.1405
 9440SOL    HW129219   4.233   1.049   6.004  0.9855  1.7399  2.5221
 9440SOL    HW229220   4.297   1.118   5.870  0.3616 -1.6094  0.3682
 9441SOL     OW29221   3.864   2.490   1.361  0.3823 -0.2181 -0.1189
 9441SOL    HW129222   3.910   2.547   1.430  0.7623 -1.3068  0.5589
 9441SOL    HW229223   3.803   2.547   1.306  0.8960  0.8719  0.4048
 9442SOL     OW29224   1.627   1.503   3.886  0.0548  0.0039 -0.0641
 9442SOL    HW129225   1.691   1.522   3.811  0.0340 -0.7874 -0.2891
 9442SOL    HW229226   1.674   1.519   3.973  0.3969 -0.0562 -0.2325
 9443SOL     OW29227   4.528   3.573   6.110  0.3560 -0.1152 -0.0512
 9443SOL    HW129228   4.554   3.670   6.113  1.1124 -0.3327  1.6384
 9443SOL    HW229229   4.498   3.550   6.018 -2.0406  2.2801 -0.0224
 9444SOL     OW29230   6.540   5.002   2.887  0.5100  0.4566 -0.2475
 9444SOL    HW129231   6.482   4.992   2.968 -0.3013 -1.3263 -0.9806
 9444SOL    HW229232   6.634   4.977   2.910  0.3345  0.1875  0.1985
 9445SOL     OW29233   0.070   1.674   6.266  0.2106  0.8739 -0.2537
 9445SOL    HW129234   0.032   1.601   6.210  2.3745 -1.5531  1.2015
 9445SOL    HW229235   0.145   1.719   6.218  1.9332 -1.0689  0.4920
 9446SOL     OW29236   5.753   6.590   2.140 -0.7291  0.0496  0.0153
 9446SOL    HW129237   5.766   6.530   2.061 -0.5390 -1.5582  1.2153
 9446SOL    HW229238   5.818   6.666   2.136 -1.4435  0.6133 -1.8941
 9447SOL     OW29239   1.923   5.230   6.051  0.4338 -0.2418  0.3646
 9447SOL    HW129240   1.840   5.182   6.025  0.9625 -0.4117 -1.1221
 9447SOL    HW229241   1.900   5.318   6.091 -0.4555  0.0838 -0.8233
 9448SOL     OW29242   2.504   3.167   6.137 -0.5976  0.0783  0.2931
 9448SOL    HW129243   2.498   3.204   6.044  2.2394 -2.1898 -0.9528
 9448SOL    HW229244   2.528   3.242   6.200 -0.7823  1.3685 -1.1015
 9449SOL     OW29245   2.336   4.780   0.673  0.0730  0.3837 -0.4569
 9449SOL    HW129246   2.395   4.700   0.660 -1.1038 -0.5041 -0.5197
 9449SOL    HW229247   2.390   4.863   0.664  1.7233 -0.3931  1.4734
 9450SOL     OW29248   5.675   2.249   6.317 -0.0154 -0.2200  0.4798
 9450SOL    HW129249   5.753   2.218   6.262 -0.0967 -1.3462  0.9839
 9450SOL    HW229250   5.634   2.329   6.273  1.6958  0.6843  0.4447
 9451SOL     OW29251   6.781   0.578   3.277  0.8982  0.5489 -0.6162
 9451SOL    HW129252   6.739   0.661   3.313 -0.8966 -1.2039  1.6193
 9451SOL    HW229253   6.873   0.599   3.244  0.5497  3.3706 -0.0122
 9452SOL     OW29254   3.018   0.329   4.768 -0.1436 -0.3968 -0.1781
 9452SOL    HW129255   2.998   0.394   4.695  0.8659 -0.3427 -0.4224
 9452SOL    HW229256   3.065   0.377   4.843  0.8995 -0.8863 -0.4976
 9453SOL     OW29257   0.905   0.750   3.545  0.1579 -0.2608 -0.2807
 9453SOL    HW129258   0.869   0.761   3.452 -1.3620 -0.5873  0.2415
 9453SOL    HW229259   0.893   0.655   3.574  1.4087 -0.3538 -0.0528
 9454SOL     OW29260   6.808   0.245   2.371 -0.1072  0.1658 -0.5635
 9454SOL    HW129261   6.711   0.232   2.393 -0.3646 -0.9882 -2.1475
 9454SOL    HW229262   6.847   0.158   2.341  1.1111  0.8748 -1.1250
 9455SOL     OW29263   2.518   6.526   5.706 -0.3617  0.2862  0.0857
 9455SOL    HW129264   2.551   6.568   5.790 -2.9863  0.7890  0.9263
 9455SOL    HW229265   2.490   6.431   5.724  1.4520 -0.4975 -0.8604
 9456SOL     OW29266   6.777   2.255   5.287  0.1293  0.2831 -0.5625
 9456SOL    HW129267   6.752   2.323   5.218 -0.2048  1.2814  0.5111
 9456SOL    HW229268   6.818   2.301   5.366  1.0833 -0.8971 -0.3491
 9457SOL     OW29269   0.675   2.781   3.846  0.1021 -0.3799  0.2598
 9457SOL    HW129270   0.644   2.699   3.894  0.0132 -0.3036  0.3349
 9457SOL    HW229271   0.738   2.832   3.904 -0.1152 -0.2150  0.3510
 9458SOL     OW29272   0.899   6.134   0.175 -0.1854 -0.2672  0.7074
 9458SOL    HW129273   0.920   6.037   0.174 -1.2983 -0.5744 -2.1840
 9458SOL    HW229274   0.967   6.184   0.122 -0.7561  0.2086  0.3984
 9459SOL     OW29275   0.211   1.700   6.588 -0.0866 -0.2995  0.2488
 9459SOL    HW129276   0.138   1.655   6.537  1.0231 -2.0805  0.1489
 9459SOL    HW229277   0.300   1.677   6.547  0.6058  1.0487  0.9261
 9460SOL     OW29278   2.472   5.600   5.814  0.0823  0.8095  0.1775
 9460SOL    HW129279   2.448   5.515   5.861 -0.2931  0.9021  0.1601
 9460SOL    HW229280   2.422   5.605   5.728  0.8985  0.5543 -0.3261
 9461SOL     OW29281   2.353   1.674   5.124  0.2228 -0.5152  0.3606
 9461SOL    HW129282   2.420   1.603   5.105  1.1643  0.7271 -1.2718
 9461SOL    HW229283   2.261   1.636   5.117  0.6998 -1.5595 -0.5891
 9462SOL     OW29284   2.672   4.999   6.472 -0.0388  0.1992  0.2655
 9462SOL    HW129285   2.772   5.005   6.466  0.0338 -0.1182  0.9555
 9462SOL    HW229286   2.635   5.088   6.499  0.0027  0.4668 -0.5407
 9463SOL     OW29287   5.458   6.886   2.184  0.5949  0.0329 -0.2259
 9463SOL    HW129288   5.481   6.876   2.281  0.1278 -0.3232 -0.1501
 9463SOL    HW229289   5.414   6.974   2.169 -1.4092 -0.8192  0.3038
 9464SOL     OW29290   6.676   3.987   3.743 -0.4560 -0.2061  0.5064
 9464SOL    HW129291   6.663   3.891   3.768 -0.3497  0.1335  1.9584
 9464SOL    HW229292   6.723   4.035   3.818 -1.4211  1.2056  0.2498
 9465SOL     OW29293   4.694   4.970   1.508  0.1957  0.6712  0.2997
 9465SOL    HW129294   4.618   4.910   1.482 -0.1549  1.3452 -0.2882
 9465SOL    HW229295   4.748   4.927   1.580  0.4241 -0.7025 -0.6517
 9466SOL     OW29296   5.719   2.770   2.259  0.1469  0.5026  0.2315
 9466SOL    HW129297   5.753   2.689   2.307  1.9193  2.3024  2.2521
 9466SOL    HW229298   5.767   2.778   2.172  1.3367  0.3249  0.8402
 9467SOL     OW29299   6.660   0.828   3.366 -0.3939 -0.1064  0.3018
 9467SOL    HW129300   6.568   0.825   3.326 -0.0566  0.1208 -0.5194
 9467SOL    HW229301   6.715   0.896   3.317  0.8010 -1.5798 -0.5094
 9468SOL     OW29302   5.720   3.266   3.305 -0.6255 -0.0953 -0.0746
 9468SOL    HW129303   5.766   3.179   3.288  0.5218  0.2838  0.9524
 9468SOL    HW229304   5.652   3.282   3.233 -1.3155 -2.1187  0.0680
 9469SOL     OW29305   1.721   4.349   4.326 -0.1007  0.4096  0.1372
 9469SOL    HW129306   1.630   4.359   4.285  0.0720  1.4562 -0.0064
 9469SOL    HW229307   1.714   4.295   4.410 -1.0087  1.2870  0.6475
 9470SOL     OW29308   6.507   6.795   3.364  0.1254  0.0838 -0.1573
 9470SOL    HW129309   6.470   6.827   3.451  0.4130  1.8864 -0.6703
 9470SOL    HW229310   6.574   6.861   3.330  2.5184 -2.1616 -0.1465
 9471SOL     OW29311   6.595   1.421   1.561 -0.2476  0.1169 -0.1577
 9471SOL    HW129312   6.539   1.338   1.571 -0.3077 -0.0847 -1.9299
 9471SOL    HW229313   6.683   1.397   1.520  1.0296  0.5034  2.1581
 9472SOL     OW29314   4.124   5.920   0.954 -0.0107 -0.3985 -0.2043
 9472SOL    HW129315   4.209   5.944   0.907  0.8429  0.1816  1.5543
 9472SOL    HW229316   4.069   6.002   0.968  0.8380 -0.1251  1.8339
 9473SOL     OW29317   0.746   4.586   3.044  0.2859 -0.0231 -0.4927
 9473SOL    HW129318   0.660   4.612   3.089  0.1995 -1.1149  0.0108
 9473SOL    HW229319   0.758   4.640   2.961 -1.2369 -0.3411 -0.9462
 9474SOL     OW29320   3.277   5.972   3.762 -0.6566  0.4505 -0.1855
 9474SOL    HW129321   3.324   5.907   3.821 -0.1013 -1.9056 -3.0284
 9474SOL    HW229322   3.181   5.979   3.790 -1.1039 -2.7408 -0.6342
 9475SOL     OW29323   0.210   4.197   5.651  0.0702 -0.0027 -0.4527
 9475SOL    HW129324   0.148   4.226   5.579  0.5476 -0.5394 -1.0850
 9475SOL    HW229325   0.185   4.106   5.683 -1.1839  0.8857  1.2623
 9476SOL     OW29326   3.938   6.426   2.964 -0.1437 -0.3211  0.3073
 9476SOL    HW129327   4.010   6.450   3.030  1.2209 -1.2269 -0.7927
 9476SOL    HW229328   3.977   6.419   2.873 -1.4912 -1.5553 -0.2173
 9477SOL     OW29329   0.795   1.658   0.259  0.2190 -0.6439 -0.6721
 9477SOL    HW129330   0.831   1.732   0.314 -2.0400  1.9991 -2.4719
 9477SOL    HW229331   0.842   1.656   0.170 -0.7723 -0.2817 -1.2248
 9478SOL     OW29332   0.985   3.458   2.876  0.2149 -0.6027 -0.2349
 9478SOL    HW129333   1.063   3.453   2.938  0.2005 -0.4080 -0.2020
 9478SOL    HW229334   1.017   3.459   2.782  0.2676 -0.1380 -0.2116
 9479SOL     OW29335   4.531   5.301   2.107  0.2023  0.0213  0.1882
 9479SOL    HW129336   4.582   5.224   2.068  0.5973 -0.8531  2.3069
 9479SOL    HW229337   4.518   5.286   2.205 -0.4380  2.2878  0.5000
 9480SOL     OW29338   3.380   0.233   1.198  0.3011  0.1401  0.1321
 9480SOL    HW129339   3.357   0.329   1.216 -1.2680 -0.1223 -0.3483
 9480SOL    HW229340   3.410   0.189   1.283  0.4949  0.9059  0.4694
 9481SOL     OW29341   2.662   0.783   6.844 -0.4039 -0.2577 -0.0871
 9481SOL    HW129342   2.753   0.762   6.810 -1.4438 -2.1965 -1.8594
 9481SOL    HW229343   2.621   0.701   6.882 -1.7564  0.3636 -0.1528
 9482SOL     OW29344   3.693   3.163   3.543 -0.9418  0.1872 -0.2647
 9482SOL    HW129345   3.673   3.167   3.445 -1.9832 -0.4064 -0.0867
 9482SOL    HW229346   3.760   3.091   3.561 -0.9848  0.0920 -0.4944
 9483SOL     OW29347   5.306   1.723   2.609  0.4189  0.2684  0.2488
 9483SOL    HW129348   5.315   1.733   2.708 -1.4469 -0.2721  0.5206
 9483SOL    HW229349   5.214   1.689   2.587  0.4411  1.3091 -1.7320
 9484SOL     OW29350   1.803   5.528   2.964 -0.5524  0.7919  0.3205
 9484SOL    HW129351   1.808   5.461   2.890  0.3557  0.3693  0.7530
 9484SOL    HW229352   1.830   5.485   3.050  0.9035  1.9186  0.4612
 9485SOL     OW29353   6.781   2.608   0.935 -0.3045  0.2668  0.0305
 9485SOL    HW129354   6.694   2.611   0.886 -0.0008 -0.5076 -0.5643
 9485SOL    HW229355   6.777   2.536   1.004  0.3336 -0.6989 -0.9185
 9486SOL     OW29356   2.239   0.753   2.740 -0.0397 -0.1688  0.3797
 9486SOL    HW129357   2.232   0.799   2.829  1.0319 -0.2337  0.5101
 9486SOL    HW229358   2.175   0.677   2.737 -0.8699  0.4928  0.6747
 9487SOL     OW29359   1.972   5.564   4.975  0.1087  0.3123  0.2677
 9487SOL    HW129360   2.065   5.599   4.988 -0.3676  1.1081  1.8323
 9487SOL    HW229361   1.958   5.484   5.035 -0.8147  1.4338  1.6144
 9488SOL     OW29362   3.751   5.480   2.245  0.0438 -0.1052 -0.2740
 9488SOL    HW129363   3.843   5.443   2.259  0.1075  0.8918  2.4014
 9488SOL    HW229364   3.754   5.547   2.171  1.2911 -0.6088 -0.7192
 9489SOL     OW29365   6.998   1.457   2.120  0.1696  0.2742 -0.1258
 9489SOL    HW129366   7.009   1.380   2.183  1.4390 -0.4122 -1.1235
 9489SOL    HW229367   7.084   1.470   2.070 -0.7971  0.7907 -1.7077
 9490SOL     OW29368   0.424   4.617   0.906 -0.4989 -0.1508  0.2062
 9490SOL    HW129369   0.381   4.628   0.995 -2.5864 -3.0456 -0.3209
 9490SOL    HW229370   0.513   4.571   0.917  0.2191  1.3337  0.8895
 9491SOL     OW29371   3.281   3.720   6.033 -0.2176 -0.3856  0.0102
 9491SOL    HW129372   3.210   3.751   5.971  0.6918  0.4564 -0.6331
 9491SOL    HW229373   3.245   3.717   6.126 -1.1953 -0.3634 -0.3559
 9492SOL     OW29374   4.366   1.961   2.049  0.1500 -0.3687 -0.4091
 9492SOL    HW129375   4.353   1.940   1.952 -0.6493 -4.3056  0.3829
 9492SOL    HW229376   4.379   1.876   2.101  0.3515  1.5436  3.0105
 9493SOL     OW29377   0.141   3.300   3.216  0.4212 -0.3574 -0.1012
 9493SOL    HW129378   0.197   3.382   3.230 -1.1765  0.9530 -1.0411
 9493SOL    HW229379   0.199   3.219   3.221  1.8461  0.6758  2.3566
 9494SOL     OW29380   4.940   2.035   3.489  0.5805  0.1077  0.3846
 9494SOL    HW129381   4.961   1.998   3.579  3.3980  0.1244 -0.1612
 9494SOL    HW229382   4.931   1.960   3.423  0.8165  0.1625  0.2862
 9495SOL     OW29383   0.021   6.850   0.102 -0.0794  0.0637  0.0478
 9495SOL    HW129384   0.030   6.787   0.026 -1.3172  0.3360 -0.3450
 9495SOL    HW229385   0.086   6.825   0.174  0.4935 -0.7230 -0.7232
 9496SOL     OW29386   4.354   0.340   3.876  0.8355 -0.0613  0.4219
 9496SOL    HW129387   4.410   0.280   3.934  2.6342  2.9958  2.0985
 9496SOL    HW229388   4.399   0.428   3.867 -2.1790  1.4583 -1.0441
 9497SOL     OW29389   6.932   1.582   5.007  0.6817 -0.0940  0.2750
 9497SOL    HW129390   6.889   1.669   4.983 -0.4354 -0.4237  0.9992
 9497SOL    HW229391   7.017   1.599   5.056  0.2417  0.6112  0.8120
 9498SOL     OW29392   5.593   0.583   2.623 -0.3558 -0.0144  0.1395
 9498SOL    HW129393   5.633   0.658   2.570 -1.4741  0.5143  0.0294
 9498SOL    HW229394   5.608   0.497   2.575  0.6510  0.1565  0.1095
 9499SOL     OW29395   0.568   1.257   0.476 -0.8429 -0.0753 -0.1047
 9499SOL    HW129396   0.636   1.200   0.430 -0.6439 -0.4497  0.6376
 9499SOL    HW229397   0.579   1.352   0.447 -0.1879 -0.1808 -0.2120
 9500SOL     OW29398   4.785   6.534   4.992 -0.2086 -0.2844  0.1658
 9500SOL    HW129399   4.732   6.528   4.908 -1.3131  1.2567  0.6965
 9500SOL    HW229400   4.878   6.563   4.972 -0.4006 -0.1594 -0.5552
 9501SOL     OW29401   1.704   5.566   0.872  0.4021 -0.0047 -0.6350
 9501SOL    HW129402   1.695   5.488   0.811 -0.7915  1.7335 -2.8432
 9501SOL    HW229403   1.772   5.630   0.836 -0.4129  1.1220 -0.2652
 9502SOL     OW29404   6.378   0.391   0.630 -0.3209  0.4368  0.1084
 9502SOL    HW129405   6.425   0.479   0.640 -0.4831  0.6624 -0.9691
 9502SOL    HW229406   6.302   0.401   0.567  1.0076 -0.9398 -1.8427
 9503SOL     OW29407   1.029   0.775   6.841  0.0539  0.1092 -0.3448
 9503SOL    HW129408   1.054   0.728   6.756  0.4935 -0.7950  0.2708
 9503SOL    HW229409   1.071   0.866   6.842  2.9502 -1.1240  0.3866
 9504SOL     OW29410   5.881   4.924   5.037  0.7279 -0.5739 -0.0140
 9504SOL    HW129411   5.848   4.837   4.999  0.5482 -0.0875 -0.9931
 9504SOL    HW229412   5.962   4.953   4.987 -0.4445  0.8932 -1.1489
 9505SOL     OW29413   0.479   4.177   0.978  0.3240  0.3643  0.3510
 9505SOL    HW129414   0.381   4.163   0.962  0.2752 -0.1690  1.0905
 9505SOL    HW229415   0.511   4.115   1.049  0.7858  1.8351  1.4970
 9506SOL     OW29416   4.644   6.237   3.156 -0.2262 -0.3750 -0.0254
 9506SOL    HW129417   4.743   6.240   3.145 -0.1506 -0.4807  0.5862
 9506SOL    HW229418   4.603   6.186   3.080  0.2288 -0.7367 -0.0295
 9507SOL     OW29419   2.642   3.323   1.782 -0.2359 -0.2166  0.1251
 9507SOL    HW129420   2.546   3.351   1.788 -0.0881  0.6436 -1.0442
 9507SOL    HW229421   2.700   3.405   1.783  0.5914 -0.7786  2.1047
 9508SOL     OW29422   0.098   6.871   3.731  0.1508  0.2025 -0.8724
 9508SOL    HW129423   0.042   6.840   3.809 -0.4503 -0.5600 -1.5799
 9508SOL    HW229424   0.039   6.917   3.665  1.1944  4.1960  0.7029
 9509SOL     OW29425   6.531   6.726   5.984 -0.3863  0.1633 -0.1337
 9509SOL    HW129426   6.529   6.716   5.885 -1.0770 -0.2469 -0.0820
 9509SOL    HW229427   6.457   6.673   6.025 -0.0692  0.2788  0.6073
 9510SOL     OW29428   3.264   0.348   5.352  0.0019  0.0113  0.1661
 9510SOL    HW129429   3.244   0.284   5.278 -0.7088  1.2583 -0.7499
 9510SOL    HW229430   3.361   0.342   5.376  0.3146 -0.1996 -1.0725
 9511SOL     OW29431   4.956   0.545   0.975 -0.2742 -0.7357 -0.4300
 9511SOL    HW129432   5.007   0.563   1.060  0.0705 -0.5039 -0.6823
 9511SOL    HW229433   4.887   0.616   0.963 -0.3135 -0.7602 -0.3499
 9512SOL     OW29434   2.291   1.194   3.540 -0.4029  0.1022 -0.2528
 9512SOL    HW129435   2.230   1.136   3.594  0.5976  0.4389  1.2926
 9512SOL    HW229436   2.261   1.290   3.548 -0.4558  0.1149 -0.5884
 9513SOL     OW29437   4.639   2.286   4.761 -0.6159 -0.6892  0.3414
 9513SOL    HW129438   4.554   2.339   4.757 -0.9043 -1.2095 -2.0237
 9513SOL    HW229439   4.668   2.264   4.668  1.9137 -0.8776  1.1089
 9514SOL     OW29440   0.384   6.730   3.248 -0.7088 -0.0926  0.4178
 9514SOL    HW129441   0.312   6.785   3.291 -0.1172  1.7306 -0.8021
 9514SOL    HW229442   0.420   6.664   3.314 -1.5237  0.9300  1.9304
 9515SOL     OW29443   1.305   2.807   5.073 -0.0556 -0.4376 -0.3779
 9515SOL    HW129444   1.337   2.714   5.061  0.1550 -1.1377  3.9802
 9515SOL    HW229445   1.382   2.871   5.066  0.3718 -0.9514 -0.3851
 9516SOL     OW29446   0.080   6.216   1.786 -0.5120 -0.5566  0.2776
 9516SOL    HW129447   0.107   6.278   1.859  2.7477  0.1745 -1.4001
 9516SOL    HW229448   0.058   6.126   1.825 -0.5311  0.2705  2.2705
 9517SOL     OW29449   1.056   5.652   2.795  0.2059 -0.5834  0.4290
 9517SOL    HW129450   1.156   5.641   2.790  0.8293  2.9678  1.8888
 9517SOL    HW229451   1.021   5.673   2.704  1.3505  1.1587  0.3286
 9518SOL     OW29452   6.213   3.406   6.172  0.5942 -0.0041 -0.6572
 9518SOL    HW129453   6.177   3.342   6.240 -1.3123  1.8852  0.2193
 9518SOL    HW229454   6.270   3.474   6.219  3.6441 -1.6001 -1.7291
 9519SOL     OW29455   3.556   1.374   2.782 -0.2766  0.0244  0.2083
 9519SOL    HW129456   3.477   1.395   2.840  0.1940 -0.2984  0.9850
 9519SOL    HW229457   3.619   1.451   2.781  0.3253 -0.4420  1.1657
 9520SOL     OW29458   1.952   1.583   5.293  0.1819 -0.1369  0.6388
 9520SOL    HW129459   1.891   1.646   5.342 -0.0477  0.5473 -0.4979
 9520SOL    HW229460   2.041   1.580   5.339 -0.0699  0.3777  1.1705
 9521SOL     OW29461   6.473   0.976   0.401 -0.3414 -0.4251 -0.2392
 9521SOL    HW129462   6.385   0.946   0.363 -0.8048  1.0193 -0.3660
 9521SOL    HW229463   6.486   0.934   0.491 -0.9150 -1.0626 -0.4435
 9522SOL     OW29464   0.624   6.175   5.513 -0.1276  0.6511 -0.1474
 9522SOL    HW129465   0.562   6.114   5.563  0.1458 -0.9921 -1.7155
 9522SOL    HW229466   0.614   6.159   5.415  1.8297  1.3057 -0.4931
 9523SOL     OW29467   1.621   5.609   2.653 -0.2873 -0.2600  0.1165
 9523SOL    HW129468   1.555   5.581   2.583  2.0597 -1.5160 -1.7704
 9523SOL    HW229469   1.689   5.537   2.666  1.6897  1.5732  0.6873
 9524SOL     OW29470   4.906   6.499   2.078 -0.4359 -0.1089  0.1051
 9524SOL    HW129471   4.988   6.549   2.050  0.4376 -1.4166  0.2258
 9524SOL    HW229472   4.872   6.446   2.001  1.1368 -2.5930  1.0072
 9525SOL     OW29473   0.523   0.112   6.924  0.3867 -0.2457 -0.0437
 9525SOL    HW129474   0.447   0.106   6.989  0.2718  0.2862 -0.1318
 9525SOL    HW229475   0.508   0.048   6.849 -0.3180  0.3475 -0.4179
 9526SOL     OW29476   4.698   4.485   3.870  0.4199  0.0019 -0.7325
 9526SOL    HW129477   4.639   4.444   3.800 -0.8878 -0.3735  0.5322
 9526SOL    HW229478   4.720   4.579   3.844 -1.2123  0.3407 -1.0069
 9527SOL     OW29479   1.643   6.829   0.007 -0.2792  0.8090 -0.7182
 9527SOL    HW129480   1.637   6.921  -0.031  0.4588 -0.2737 -3.7347
 9527SOL    HW229481   1.699   6.830   0.089 -0.2701  3.0107 -0.6977
 9528SOL     OW29482   1.211   1.868   1.521 -0.0455  0.1912 -0.0966
 9528SOL    HW129483   1.169   1.780   1.499  1.3583 -1.0222  1.7791
 9528SOL    HW229484   1.288   1.884   1.459 -1.4232  1.0670 -1.6728
 9529SOL     OW29485   6.361   2.304   0.598  0.1647  0.0079 -0.0116
 9529SOL    HW129486   6.305   2.327   0.678 -1.0420 -2.3326 -0.0792
 9529SOL    HW229487   6.308   2.321   0.515  1.3320  2.2169 -0.3467
 9530SOL     OW29488   6.332   0.496   3.107 -0.2562  0.0034  0.0346
 9530SOL    HW129489   6.420   0.543   3.116  0.4461 -1.1631 -0.5493
 9530SOL    HW229490   6.308   0.487   3.011 -0.2520 -1.0371  0.1164
 9531SOL     OW29491   0.925   1.608   0.641  0.1967  0.1217  0.1351
 9531SOL    HW129492   0.937   1.509   0.642  1.6749  0.2873  0.7601
 9531SOL    HW229493   1.013   1.652   0.652 -0.5709  1.5188  0.9064
 9532SOL     OW29494   3.348   4.460   5.704 -0.4974  0.4833 -0.0055
 9532SOL    HW129495   3.428   4.505   5.665 -0.2305 -0.7392 -0.9417
 9532SOL    HW229496   3.373   4.367   5.733 -1.6658 -0.0940 -0.7592
 9533SOL     OW29497   6.417   3.387   6.425  0.3646 -0.1190 -0.2209
 9533SOL    HW129498   6.494   3.436   6.385  0.1057 -0.0233 -0.6085
 9533SOL    HW229499   6.411   3.407   6.523  1.1062 -0.4890 -0.0963
 9534SOL     OW29500   1.828   5.523   5.890  0.1606 -0.7832 -0.0966
 9534SOL    HW129501   1.917   5.535   5.847  1.0426 -1.1340  1.5520
 9534SOL    HW229502   1.800   5.610   5.931 -0.0474 -0.7939 -0.2158
 9535SOL     OW29503   1.550   6.548   1.677  0.5608 -0.0127  0.2432
 9535SOL    HW129504   1.573   6.479   1.746 -0.3177  0.0622  0.6327
 9535SOL    HW229505   1.489   6.507   1.608 -0.1551  0.4174  0.6056
 9536SOL     OW29506   3.620   3.517   1.399  0.2003 -0.3495  0.9534
 9536SOL    HW129507   3.706   3.512   1.349 -0.1523 -0.0751  0.3054
 9536SOL    HW229508   3.636   3.560   1.488  0.8186 -0.7669  1.0471
 9537SOL     OW29509   1.832   3.477   4.439 -0.3652  0.2847  0.3209
 9537SOL    HW129510   1.779   3.403   4.398 -0.6407  0.5239  0.2420
 9537SOL    HW229511   1.881   3.526   4.366 -0.7454  0.6238  0.2938
 9538SOL     OW29512   1.889   6.728   5.393 -0.1729 -0.6172 -0.6072
 9538SOL    HW129513   1.881   6.803   5.459  2.0256  0.7044 -1.6862
 9538SOL    HW229514   1.926   6.647   5.438 -0.8469 -0.4703  0.2197
 9539SOL     OW29515   3.269   0.469   0.392 -0.1704 -0.4258 -0.3201
 9539SOL    HW129516   3.353   0.453   0.444  0.8396  1.8933 -1.0706
 9539SOL    HW229517   3.191   0.474   0.454  0.8319  1.1001  0.8732
 9540SOL     OW29518   5.097   1.372   4.441 -0.8725  0.3501 -0.0859
 9540SOL    HW129519   5.118   1.290   4.389  0.9510  0.6500  0.1247
 9540SOL    HW229520   5.064   1.443   4.379 -1.1001 -0.0838 -0.4676
 9541SOL     OW29521   6.403   2.328   4.396 -0.0947 -0.6940 -0.0546
 9541SOL    HW129522   6.343   2.284   4.463  0.7725 -1.5009  0.2017
 9541SOL    HW229523   6.426   2.421   4.428 -0.6721 -0.6176  0.1575
 9542SOL     OW29524   3.975   4.202   6.013  0.2039  0.4480  0.0302
 9542SOL    HW129525   4.036   4.125   6.029  0.4855  0.6441 -0.1047
 9542SOL    HW229526   4.024   4.275   5.965 -0.4413  0.1243 -1.1894
 9543SOL     OW29527   0.355   4.023   2.427  0.3063 -0.5600 -0.1158
 9543SOL    HW129528   0.380   3.932   2.395  1.7053 -0.1770 -0.1465
 9543SOL    HW229529   0.369   4.089   2.354 -1.2201 -0.3704 -0.2735
 9544SOL     OW29530   6.009   6.824   1.137 -0.0169 -0.1284  0.0998
 9544SOL    HW129531   5.932   6.774   1.178  0.7378 -1.5077 -0.0944
 9544SOL    HW229532   5.975   6.908   1.095 -1.4737 -0.8731 -0.2904
 9545SOL     OW29533   2.718   5.678   1.532  0.2189  0.1482  0.2485
 9545SOL    HW129534   2.778   5.627   1.594 -0.8888 -0.4970  0.8370
 9545SOL    HW229535   2.743   5.658   1.437 -0.0130 -1.3194  0.4719
 9546SOL     OW29536   3.300   4.449   1.156 -0.1874  0.1652 -0.1362
 9546SOL    HW129537   3.318   4.522   1.222 -0.7207 -0.1891  0.4137
 9546SOL    HW229538   3.203   4.445   1.136 -0.3299 -1.0832  0.6746
 9547SOL     OW29539   6.170   6.937   1.408  0.0245  0.2160  0.0064
 9547SOL    HW129540   6.179   7.009   1.477 -2.0319  0.5051  0.0526
 9547SOL    HW229541   6.095   6.960   1.346  1.2336 -0.4877 -1.8049
 9548SOL     OW29542   5.864   0.464   5.864  0.2372 -0.1681 -0.5374
 9548SOL    HW129543   5.892   0.384   5.811 -0.3285  0.3300 -1.6083
 9548SOL    HW229544   5.795   0.515   5.813 -0.3633  0.2954  0.7155
 9549SOL     OW29545   3.214   6.979   2.906  0.7764 -0.0859 -0.0969
 9549SOL    HW129546   3.191   7.039   2.829  2.1895  0.0967 -0.4027
 9549SOL    HW229547   3.284   7.023   2.963  0.0515 -0.3996  1.0762
 9550SOL     OW29548   0.502   1.883   5.852 -0.5239  0.1116  0.2796
 9550SOL    HW129549   0.518   1.786   5.839  0.5560  0.4011 -0.6694
 9550SOL    HW229550   0.581   1.935   5.820 -0.4024  1.2362  2.2173
 9551SOL     OW29551   4.071   1.442   4.105  0.3395 -0.1765 -0.4857
 9551SOL    HW129552   4.026   1.425   4.193 -1.2856 -0.3890 -1.3078
 9551SOL    HW229553   4.001   1.460   4.035  1.5308 -0.9209 -1.9290
 9552SOL     OW29554   7.001   6.934   0.997  0.0550  0.2694  0.0970
 9552SOL    HW129555   7.012   6.844   0.956  0.3795  1.1225 -1.7921
 9552SOL    HW229556   7.078   6.952   1.059  0.9426 -0.0555 -0.8869
 9553SOL     OW29557   0.203   1.047   3.510 -0.1412  0.4511  0.6236
 9553SOL    HW129558   0.123   1.090   3.552 -0.9448  0.5129 -0.9042
 9553SOL    HW229559   0.186   0.949   3.500 -0.1116  0.4948  0.1245
 9554SOL     OW29560   6.574   4.008   5.136 -0.2229  0.0825 -0.7220
 9554SOL    HW129561   6.582   4.016   5.036 -2.2535  1.6889 -0.8334
 9554SOL    HW229562   6.511   3.933   5.158 -2.1024  1.5486 -0.8398
 9555SOL     OW29563   3.987   5.975   6.675 -0.3000 -0.1471 -0.5426
 9555SOL    HW129564   4.065   5.982   6.737 -0.1612 -0.0452 -0.7258
 9555SOL    HW229565   3.999   5.895   6.617 -1.0272 -0.9435  0.3765
 9556SOL     OW29566   5.201   3.498   5.129 -0.1608 -0.2259  0.5464
 9556SOL    HW129567   5.222   3.453   5.215 -0.4759  1.1579  1.3886
 9556SOL    HW229568   5.267   3.571   5.113  2.1959 -2.7146 -2.2720
 9557SOL     OW29569   5.461   2.005   0.085 -0.5812 -0.1316 -0.4110
 9557SOL    HW129570   5.513   2.053   0.014  0.9603 -2.1241 -0.7202
 9557SOL    HW229571   5.375   1.972   0.045 -0.2148 -0.3208 -1.0647
 9558SOL     OW29572   4.938   3.793   2.377 -0.7279 -0.6305  0.6756
 9558SOL    HW129573   5.011   3.782   2.445 -0.4431 -0.3391  0.4160
 9558SOL    HW229574   4.909   3.703   2.346  1.0644 -0.7390 -0.8739
 9559SOL     OW29575   4.157   2.177   2.133 -0.0801 -0.6616  0.4414
 9559SOL    HW129576   4.196   2.264   2.163  1.0336 -1.7272  2.2320
 9559SOL    HW229577   4.217   2.102   2.160 -0.7144 -1.9871 -1.5981
 9560SOL     OW29578   0.709   3.250   0.871 -0.1888  0.0797 -0.4817
 9560SOL    HW129579   0.696   3.348   0.854 -0.5191  0.1154 -0.0429
 9560SOL    HW229580   0.795   3.220   0.830  1.9752  1.4232  2.6701
 9561SOL     OW29581   5.306   4.354   2.969  0.5109  0.0212 -0.5936
 9561SOL    HW129582   5.304   4.307   3.057 -0.3722  2.3750  0.7371
 9561SOL    HW229583   5.214   4.355   2.930  0.8509 -0.7888 -1.4307
 9562SOL     OW29584   2.355   3.616   6.353 -0.2702  0.1053  0.3357
 9562SOL    HW129585   2.311   3.526   6.361  2.0871 -1.2218 -0.5681
 9562SOL    HW229586   2.310   3.681   6.414 -1.6201 -1.8635  1.5447
 9563SOL     OW29587   6.697   4.374   0.235  0.1017  0.1675  0.2968
 9563SOL    HW129588   6.709   4.431   0.316  0.3223  0.7182 -0.1204
 9563SOL    HW229589   6.617   4.404   0.183  0.1695  0.0448  0.1180
 9564SOL     OW29590   2.001   0.387   3.728 -0.4732 -0.0707  0.3008
 9564SOL    HW129591   2.056   0.380   3.645 -0.6419 -3.3152  0.3191
 9564SOL    HW229592   2.031   0.466   3.782 -0.2341  2.0349 -2.6725
 9565SOL     OW29593   1.839   1.455   1.464 -0.1280  0.2065  0.1482
 9565SOL    HW129594   1.754   1.421   1.505  0.6422 -0.7274  1.0378
 9565SOL    HW229595   1.821   1.540   1.415 -1.4334  0.4133  0.9347
 9566SOL     OW29596   4.670   6.916   5.960  0.3779  0.7987  0.0919
 9566SOL    HW129597   4.717   6.951   5.879  1.5134 -1.5241 -0.3300
 9566SOL    HW229598   4.736   6.902   6.034 -0.2393  0.6229  0.6224
 9567SOL     OW29599   3.176   1.812   6.301  0.2554  0.2983 -0.6677
 9567SOL    HW129600   3.102   1.842   6.361 -0.8134  1.7588 -2.5957
 9567SOL    HW229601   3.138   1.754   6.228  1.3918 -0.8142 -0.4081
 9568SOL     OW29602   2.207   2.115   4.944 -0.1105 -0.3070 -0.0971
 9568SOL    HW129603   2.180   2.061   4.864 -0.0035 -2.3051  1.1690
 9568SOL    HW229604   2.125   2.144   4.993 -0.1922  1.2132 -1.0578
 9569SOL     OW29605   4.185   3.676   6.632 -0.4259  0.5295 -0.1603
 9569SOL    HW129606   4.147   3.624   6.556 -0.2559  1.2581 -0.7534
 9569SOL    HW229607   4.222   3.613   6.700  2.3280 -0.1846 -2.1283
 9570SOL     OW29608   4.139   3.923   6.930  0.2246  0.6170 -0.8090
 9570SOL    HW129609   4.191   3.918   7.015  1.3389  2.5498 -1.2922
 9570SOL    HW229610   4.156   4.012   6.887 -3.0579  1.1037 -1.3212
 9571SOL     OW29611   1.803   6.422   4.943 -0.2272 -0.1608  0.0792
 9571SOL    HW129612   1.900   6.403   4.927 -0.4660 -0.0944 -1.5889
 9571SOL    HW229613   1.779   6.509   4.900 -0.9211  0.0712  0.9250
 9572SOL     OW29614   6.597   3.728   3.767  0.4096  0.7889 -0.0506
 9572SOL    HW129615   6.612   3.739   3.865 -0.2983  0.4616  0.1062
 9572SOL    HW229616   6.585   3.631   3.746 -3.8959  1.0537  0.2891
 9573SOL     OW29617   2.130   5.132   6.192  0.2920  0.1964 -0.7712
 9573SOL    HW129618   2.112   5.041   6.229 -1.2240  1.3145  1.4697
 9573SOL    HW229619   2.051   5.162   6.139  1.1532 -0.1063 -2.2736
 9574SOL     OW29620   4.611   5.882   6.369  0.5295  0.1941  0.0565
 9574SOL    HW129621   4.524   5.860   6.413  0.2749  1.6438  0.3235
 9574SOL    HW229622   4.627   5.981   6.374  2.6510 -0.1460  0.8515
 9575SOL     OW29623   6.109   1.864   3.007  0.3402 -0.3243  0.0869
 9575SOL    HW129624   6.206   1.874   2.987  0.5375 -1.1404  0.6140
 9575SOL    HW229625   6.096   1.801   3.083 -0.5694  0.3435  0.5138
 9576SOL     OW29626   3.423   2.009   1.371 -0.0285 -0.4237 -0.1588
 9576SOL    HW129627   3.484   2.082   1.400 -0.6881  0.5556 -1.1581
 9576SOL    HW229628   3.475   1.944   1.314  0.1943  0.1665 -0.6420
 9577SOL     OW29629   5.101   1.371   6.113 -0.0434  0.5567  0.7816
 9577SOL    HW129630   5.149   1.334   6.034 -2.4868 -0.9991 -0.0716
 9577SOL    HW229631   5.109   1.306   6.189 -1.7388 -0.3282  0.2478
 9578SOL     OW29632   0.481   4.848   4.939 -0.6643  0.1950  0.2987
 9578SOL    HW129633   0.453   4.771   4.881 -0.9569 -0.4202  1.2217
 9578SOL    HW229634   0.580   4.846   4.953 -0.3509  1.3439 -1.5436
 9579SOL     OW29635   0.138   1.553   5.945  0.4701 -0.4523  0.7188
 9579SOL    HW129636   0.067   1.623   5.936  0.4779 -0.6676 -1.7817
 9579SOL    HW229637   0.215   1.577   5.886  0.0323 -3.0083 -1.0436
 9580SOL     OW29638   1.642   2.596   4.498  0.0658  0.3307  0.3512
 9580SOL    HW129639   1.605   2.688   4.483  0.6828  0.6066  0.5246
 9580SOL    HW229640   1.657   2.552   4.409  1.3838  1.0472  0.1935
 9581SOL     OW29641   5.526   5.712   6.585 -0.1585 -0.6612 -0.1150
 9581SOL    HW129642   5.569   5.621   6.587  0.5931 -0.4303 -2.4133
 9581SOL    HW229643   5.441   5.707   6.533 -1.1595 -0.4138  1.4529
 9582SOL     OW29644   0.394   5.571   6.972  0.6847  0.4533 -0.5354
 9582SOL    HW129645   0.354   5.480   6.960 -0.0680  0.6800  0.1492
 9582SOL    HW229646   0.386   5.622   6.886 -0.7231  0.5674 -0.3683
 9583SOL     OW29647   5.164   6.256   2.714  0.9133 -0.5711  0.7045
 9583SOL    HW129648   5.095   6.214   2.655  0.2038  1.4235  0.0596
 9583SOL    HW229649   5.130   6.256   2.809  1.1497 -1.8497  0.8171
 9584SOL     OW29650   1.659   3.240   0.614 -0.3814  0.1305 -0.0292
 9584SOL    HW129651   1.580   3.301   0.623 -0.7919 -0.4977  0.8077
 9584SOL    HW229652   1.711   3.240   0.699 -0.8343 -1.2637  0.2810
 9585SOL     OW29653   5.831   6.299   5.860 -0.6478 -0.4004 -0.8331
 9585SOL    HW129654   5.851   6.386   5.814  2.6323  0.5998  2.1008
 9585SOL    HW229655   5.893   6.229   5.826  0.3482 -0.1872  0.4949
 9586SOL     OW29656   6.768   3.485   6.764  0.0523  0.4812 -0.6523
 9586SOL    HW129657   6.697   3.505   6.831  0.6687  0.2695  0.0768
 9586SOL    HW229658   6.734   3.419   6.697 -0.7145  1.0397 -0.8169
 9587SOL     OW29659   4.567   0.328   4.602  0.6446 -0.6221 -0.2319
 9587SOL    HW129660   4.563   0.426   4.622  0.4768 -0.6318 -0.2167
 9587SOL    HW229661   4.480   0.286   4.626  1.7133 -1.3584  2.8572
 9588SOL     OW29662   6.028   1.113   1.359 -0.0247 -0.4125 -0.0429
 9588SOL    HW129663   6.076   1.166   1.289 -1.0547 -0.3220 -0.6905
 9588SOL    HW229664   5.950   1.166   1.393 -0.4827 -1.1144  0.0129
 9589SOL     OW29665   0.569   1.978   6.639 -0.1965  0.1609  0.1232
 9589SOL    HW129666   0.503   1.966   6.565  1.8744  1.1365 -2.0033
 9589SOL    HW229667   0.631   1.899   6.642 -1.3137 -0.7099  2.0421
 9590SOL     OW29668   5.518   3.325   2.810  0.6861 -0.3936 -0.2912
 9590SOL    HW129669   5.492   3.229   2.797 -0.9348 -0.2703  1.5534
 9590SOL    HW229670   5.467   3.381   2.745  1.6835 -0.7491 -1.4177
 9591SOL     OW29671   3.792   5.137   6.223  0.2641 -0.1760  0.4720
 9591SOL    HW129672   3.736   5.172   6.148 -1.4540  0.8776  2.1648
 9591SOL    HW229673   3.878   5.189   6.227  0.5657 -0.5204 -0.9792
 9592SOL     OW29674   1.461   1.609   4.731  0.3965 -0.4629  0.6016
 9592SOL    HW129675   1.460   1.589   4.829  0.9589 -1.1188  0.4802
 9592SOL    HW229676   1.448   1.525   4.679  0.8760 -0.2401  0.1079
 9593SOL     OW29677   1.573   4.018   6.074  0.0239  0.0944 -0.3362
 9593SOL    HW129678   1.524   4.054   6.154  2.0055 -0.2477  1.0926
 9593SOL    HW229679   1.592   3.921   6.088 -0.2949 -0.1710 -1.6134
 9594SOL     OW29680   3.477   5.014   6.297 -0.1796  0.1446  0.0885
 9594SOL    HW129681   3.468   5.109   6.328 -0.9337  0.8704 -2.0873
 9594SOL    HW229682   3.388   4.982   6.264 -0.0411 -1.5232  1.2595
 9595SOL     OW29683   0.160   5.581   1.942  0.4991 -0.0416  0.2846
 9595SOL    HW129684   0.103   5.533   1.875 -0.5694  2.0596 -0.4082
 9595SOL    HW229685   0.105   5.603   2.022  0.8990  0.2245  0.4889
 9596SOL     OW29686   5.637   3.956   6.625 -0.4131 -0.1653  0.1809
 9596SOL    HW129687   5.651   3.858   6.640 -1.5581 -0.6003 -1.3674
 9596SOL    HW229688   5.551   3.970   6.575 -0.2432  1.6369  0.3285
 9597SOL     OW29689   1.322   0.179   3.755  0.4534 -0.3781  0.2296
 9597SOL    HW129690   1.368   0.204   3.669  0.0640 -0.2117  0.0693
 9597SOL    HW229691   1.256   0.250   3.780 -1.6181 -1.7957 -0.9261
 9598SOL     OW29692   3.917   6.671   2.874 -0.0931  0.1623  0.3166
 9598SOL    HW129693   3.913   6.633   2.782  0.2646  2.0638 -0.5468
 9598SOL    HW229694   3.896   6.600   2.941 -0.5548 -1.2221 -1.2301
 9599SOL     OW29695   5.098   6.880   0.306  0.0150  0.3752  0.0542
 9599SOL    HW129696   5.031   6.832   0.249  1.5535 -0.6010 -1.0400
 9599SOL    HW229697   5.184   6.828   0.306 -0.0018  0.0527  3.6944
 9600SOL     OW29698   2.545   5.385   6.306 -0.6550  0.0435 -0.1763
 9600SOL    HW129699   2.500   5.304   6.269  0.1839 -0.4621 -0.1344
 9600SOL    HW229700   2.528   5.391   6.405  0.9877 -1.2970  0.2398
 9601SOL     OW29701   5.360   2.878   2.056 -0.2022 -0.0554  0.4773
 9601SOL    HW129702   5.344   2.953   1.992 -2.9015 -0.6191  0.3450
 9601SOL    HW229703   5.429   2.816   2.019  1.2850  1.7472  0.0893
 9602SOL     OW29704   6.540   2.518   0.774 -0.6263 -0.0780  0.2578
 9602SOL    HW129705   6.532   2.434   0.827  3.2270  0.9544  2.8581
 9602SOL    HW229706   6.620   2.512   0.714 -0.3748  1.6314  0.3825
 9603SOL     OW29707   0.122   5.237   5.861  0.0015 -0.2071 -0.2772
 9603SOL    HW129708   0.057   5.240   5.937  2.3949 -1.0701  1.9620
 9603SOL    HW229709   0.116   5.148   5.816  0.6064 -0.8839  0.9211
 9604SOL     OW29710   4.097   1.510   4.746  0.2872  0.4788  0.1022
 9604SOL    HW129711   4.078   1.570   4.824  1.5311 -0.4830  1.2034
 9604SOL    HW229712   4.176   1.544   4.696  0.3122  0.3710  0.0676
 9605SOL     OW29713   5.556   3.898   4.442  0.5071 -0.1593 -0.3436
 9605SOL    HW129714   5.458   3.889   4.459  0.3252  0.7120 -0.8675
 9605SOL    HW229715   5.579   3.995   4.432  1.6073 -0.2759  0.8139
 9606SOL     OW29716   2.336   5.722   5.195  0.3316 -0.3043  0.3195
 9606SOL    HW129717   2.393   5.770   5.129  0.4746 -1.2993 -0.3087
 9606SOL    HW229718   2.382   5.637   5.223 -1.4481 -1.9187 -1.3534
 9607SOL     OW29719   1.011   0.818   5.723 -0.2978  0.6963  0.1355
 9607SOL    HW129720   0.940   0.811   5.653  0.1693  0.8196 -0.3509
 9607SOL    HW229721   0.992   0.751   5.795 -0.0938 -0.3185 -0.7282
 9608SOL     OW29722   6.029   0.226   6.678  0.0702  0.1977 -0.0297
 9608SOL    HW129723   5.950   0.243   6.620  0.8105  1.3523 -0.7315
 9608SOL    HW229724   6.072   0.313   6.703  0.1238 -0.3072  1.7693
 9609SOL     OW29725   6.941   0.529   6.465  0.1082  0.2359  0.4519
 9609SOL    HW129726   6.988   0.608   6.504 -0.0386  0.2132  0.6760
 9609SOL    HW229727   6.842   0.539   6.477  0.0898  0.0093  0.5062
 9610SOL     OW29728   0.119   2.779   5.618 -0.9806 -0.6144 -0.0914
 9610SOL    HW129729   0.019   2.785   5.617 -0.9973  3.7471  2.1051
 9610SOL    HW229730   0.150   2.755   5.710  0.1031 -2.5918 -0.9096
 9611SOL     OW29731   6.022   3.213   2.571 -0.0537 -0.1242  0.3016
 9611SOL    HW129732   5.938   3.237   2.619 -0.4180  0.8651 -0.7844
 9611SOL    HW229733   6.009   3.226   2.473  0.9730 -1.1916  0.0063
 9612SOL     OW29734   6.704   5.137   4.299  0.3127  0.0580  0.6601
 9612SOL    HW129735   6.742   5.228   4.310 -1.9891  0.9836  1.7755
 9612SOL    HW229736   6.637   5.138   4.225 -0.5942 -0.3731  1.4455
 9613SOL     OW29737   0.990   6.236   1.546  0.5368 -0.1996 -0.5538
 9613SOL    HW129738   0.922   6.203   1.480  0.0743 -0.2006 -0.0902
 9613SOL    HW229739   0.968   6.330   1.571  0.2006 -0.4774  0.2360
 9614SOL     OW29740   1.803   5.689   4.138  0.3478  0.6262  0.1543
 9614SOL    HW129741   1.721   5.673   4.081  0.3901  1.2446 -0.0917
 9614SOL    HW229742   1.778   5.683   4.234  0.0956  0.4187  0.0789
 9615SOL     OW29743   2.386   0.979   3.862  0.1888 -0.1965 -0.0604
 9615SOL    HW129744   2.305   0.983   3.921  1.1854 -1.1361  1.4505
 9615SOL    HW229745   2.369   0.915   3.787 -0.5562 -0.1951  0.0939
 9616SOL     OW29746   6.134   4.769   6.069  0.1276  0.1059 -0.1600
 9616SOL    HW129747   6.131   4.671   6.087 -0.1795  0.0641 -0.4264
 9616SOL    HW229748   6.102   4.786   5.976  0.4422  0.4342 -0.2097
 9617SOL     OW29749   2.748   6.355   4.290 -0.1850 -0.5304  0.1337
 9617SOL    HW129750   2.696   6.302   4.222 -3.0463  1.5880  0.4848
 9617SOL    HW229751   2.787   6.436   4.246  2.1215 -1.5694  0.1076
 9618SOL     OW29752   0.632   6.056   0.149  0.4945  0.8390  0.5775
 9618SOL    HW129753   0.717   6.109   0.149  0.4451  0.9685 -1.0716
 9618SOL    HW229754   0.615   6.021   0.057 -2.1377  2.2577  0.4213
 9619SOL     OW29755   5.471   4.665   3.553 -0.0113 -0.0939 -0.0969
 9619SOL    HW129756   5.431   4.617   3.631  0.3541 -2.7049 -1.4400
 9619SOL    HW229757   5.558   4.622   3.529 -0.3169  0.3652 -2.2123
 9620SOL     OW29758   5.840   3.259   2.981 -0.8259  0.2893  0.6672
 9620SOL    HW129759   5.866   3.351   2.953  0.8473  0.0425  1.3330
 9620SOL    HW229760   5.741   3.257   3.000 -1.0881  1.6536 -0.3970
 9621SOL     OW29761   3.156   5.639   4.495  0.0437  0.1930  0.0618
 9621SOL    HW129762   3.156   5.624   4.594 -0.5823  0.6226  0.1329
 9621SOL    HW229763   3.080   5.699   4.471  0.2982  0.2271 -0.6618
 9622SOL     OW29764   1.245   0.084   6.646 -0.7743 -0.3418 -0.5676
 9622SOL    HW129765   1.240  -0.012   6.671  0.1401 -0.2210  0.1291
 9622SOL    HW229766   1.263   0.139   6.728 -0.8435  0.3679 -1.0239
 9623SOL     OW29767   5.135   4.737   0.556  0.4375  0.6588 -0.4251
 9623SOL    HW129768   5.180   4.732   0.645 -2.1907  0.6323  1.0102
 9623SOL    HW229769   5.097   4.829   0.543 -0.6427  0.1846 -0.7208
 9624SOL     OW29770   2.926   6.813   1.071  0.0053 -0.3410  0.0988
 9624SOL    HW129771   3.008   6.786   1.020  0.0527 -2.1274  1.0232
 9624SOL    HW229772   2.844   6.786   1.020  0.0403 -1.2399  0.5080
 9625SOL     OW29773   0.242   4.114   6.014 -0.3807 -0.9512 -0.8211
 9625SOL    HW129774   0.307   4.182   5.979 -1.1504  0.3289  0.1621
 9625SOL    HW229775   0.205   4.061   5.937 -0.4288  0.3309 -1.7137
 9626SOL     OW29776   4.593   4.351   5.108  0.3104  0.3239 -0.3144
 9626SOL    HW129777   4.570   4.320   5.200  1.4551  0.8254  0.1549
 9626SOL    HW229778   4.509   4.378   5.060 -0.2289  0.6865  0.8061
 9627SOL     OW29779   0.575   5.485   0.387  0.1716  0.7129  0.0554
 9627SOL    HW129780   0.578   5.458   0.484  0.9970  0.6900  0.0298
 9627SOL    HW229781   0.643   5.432   0.336 -0.7510  0.2069 -0.6733
 9628SOL     OW29782   0.633   2.907   1.903 -0.7043  0.0981  0.4500
 9628SOL    HW129783   0.655   3.005   1.896 -0.3708  0.0215  0.4184
 9628SOL    HW229784   0.697   2.864   1.967 -0.1183 -0.3255 -0.3992
 9629SOL     OW29785   1.275   4.989   4.455 -0.4820  0.1777  0.3412
 9629SOL    HW129786   1.312   4.992   4.362  0.8298  1.4118  0.8709
 9629SOL    HW229787   1.202   5.055   4.465  2.7325  3.9541  1.4605
 9630SOL     OW29788   5.793   6.244   1.424 -0.1081  0.6142  0.3046
 9630SOL    HW129789   5.740   6.321   1.461 -2.0850 -1.3840  1.9391
 9630SOL    HW229790   5.733   6.165   1.412  1.9716 -0.9211 -0.6443
 9631SOL     OW29791   4.076   3.210   4.121  0.1034 -0.4464 -0.8671
 9631SOL    HW129792   4.094   3.309   4.121 -1.1163 -0.1915 -2.0991
 9631SOL    HW229793   4.157   3.161   4.089  1.6916 -0.1126  2.3279
 9632SOL     OW29794   0.304   4.409   0.768  0.2685 -0.2143 -0.2000
 9632SOL    HW129795   0.323   4.420   0.670 -0.4227 -1.7385 -0.5396
 9632SOL    HW229796   0.354   4.478   0.820 -0.6939  1.7362 -1.7386
 9633SOL     OW29797   4.624   5.052   5.560 -0.5665 -0.4354  0.0743
 9633SOL    HW129798   4.594   5.063   5.466  0.4829 -0.7515 -0.3094
 9633SOL    HW229799   4.705   5.108   5.576 -0.6392 -0.5120  0.7427
 9634SOL     OW29800   3.703   2.534   6.514 -0.4391  0.1149 -0.0370
 9634SOL    HW129801   3.640   2.609   6.530  0.7320  0.6305  2.8192
 9634SOL    HW229802   3.782   2.566   6.461  0.5394  1.2603  2.0044
 9635SOL     OW29803   3.076   1.285   0.165 -0.4723 -0.1067  0.2906
 9635SOL    HW129804   2.979   1.293   0.188 -0.0804  0.6603  1.8290
 9635SOL    HW229805   3.105   1.190   0.178 -1.6143 -1.0409 -2.9809
 9636SOL     OW29806   6.577   2.887   3.921 -0.0156 -0.0322 -0.1290
 9636SOL    HW129807   6.660   2.853   3.877 -1.0382 -0.6718 -1.6920
 9636SOL    HW229808   6.510   2.812   3.927 -0.1362  0.1906  2.0547
 9637SOL     OW29809   6.585   5.999   5.416  0.3112  0.6772  0.2827
 9637SOL    HW129810   6.542   6.041   5.335  0.6401  0.5411  0.0353
 9637SOL    HW229811   6.616   5.907   5.393  1.1511  0.9451  0.3303
 9638SOL     OW29812   3.782   3.349   5.807 -0.0616 -0.0494 -0.0467
 9638SOL    HW129813   3.823   3.421   5.864  0.2385 -1.0014  0.9940
 9638SOL    HW229814   3.726   3.290   5.865 -1.9641  0.5040 -1.2357
 9639SOL     OW29815   0.480   0.506   4.384 -0.4919 -0.8585  0.0729
 9639SOL    HW129816   0.423   0.537   4.309 -0.2024 -1.2220 -0.3049
 9639SOL    HW229817   0.539   0.431   4.352 -0.5032 -1.1427  0.7100
 9640SOL     OW29818   2.238   4.280   4.691  0.1525  0.4239  0.3698
 9640SOL    HW129819   2.316   4.339   4.671  0.3838  0.4076  1.1728
 9640SOL    HW229820   2.217   4.285   4.789 -1.1717  0.8175  0.0908
 9641SOL     OW29821   6.398   3.167   5.631 -0.2308  0.2430 -0.2220
 9641SOL    HW129822   6.405   3.150   5.533  0.8357  0.8519 -0.2720
 9641SOL    HW229823   6.427   3.086   5.682  2.3261  0.9121 -0.4461
 9642SOL     OW29824   4.423   3.725   5.679 -0.4408  0.0125 -0.0357
 9642SOL    HW129825   4.332   3.733   5.637  0.4113  2.4216 -1.5996
 9642SOL    HW229826   4.482   3.670   5.621  0.0033  1.2176 -0.7681
 9643SOL     OW29827   0.201   6.116   4.891  0.6085 -0.1137  0.0124
 9643SOL    HW129828   0.132   6.053   4.857  0.4857 -0.8523  1.5637
 9643SOL    HW229829   0.287   6.067   4.908 -0.2859 -0.6642  4.0115
 9644SOL     OW29830   1.255   6.990   4.006 -0.0198 -0.2207 -0.1015
 9644SOL    HW129831   1.346   7.031   4.018  0.3054 -0.9313 -0.0997
 9644SOL    HW229832   1.190   7.062   3.983 -0.7338  1.3791  5.5069
 9645SOL     OW29833   1.003   5.705   2.552 -0.2118 -0.4064  0.1179
 9645SOL    HW129834   0.950   5.779   2.510  2.5652  0.6571 -1.7926
 9645SOL    HW229835   1.047   5.651   2.480  0.5523 -1.7951  1.5772
 9646SOL     OW29836   3.049   3.788   5.914  0.0202 -0.0150  0.5996
 9646SOL    HW129837   2.952   3.782   5.938 -0.1895  1.3230  0.1590
 9646SOL    HW229838   3.059   3.780   5.815  0.3119  0.3307  0.6005
 9647SOL     OW29839   1.606   1.778   5.059 -0.2302 -0.2674 -0.0959
 9647SOL    HW129840   1.579   1.699   5.003  0.1630  0.8968 -2.0195
 9647SOL    HW229841   1.540   1.852   5.045  0.3055  0.3110  0.3936
 9648SOL     OW29842   1.373   6.684   5.341  0.0805  0.4201  0.1580
 9648SOL    HW129843   1.294   6.645   5.388 -0.4502  1.6833  0.3691
 9648SOL    HW229844   1.454   6.676   5.399  0.0049 -0.3998  0.1659
 9649SOL     OW29845   2.950   5.460   1.624  0.6382  0.4303  0.2634
 9649SOL    HW129846   3.012   5.385   1.647 -0.0467 -0.8854 -1.7960
 9649SOL    HW229847   2.996   5.525   1.563  0.6059  0.5378  0.3537
 9650SOL     OW29848   4.790   7.011   4.329 -0.2018 -0.7176 -0.3972
 9650SOL    HW129849   4.851   6.999   4.406  2.2655  0.3910 -2.0657
 9650SOL    HW229850   4.779   6.924   4.281 -0.1745 -0.9884  0.0883
 9651SOL     OW29851   2.580   0.098   6.631 -0.1476 -0.1292  0.6047
 9651SOL    HW129852   2.558   0.097   6.534 -3.9712  0.4576  1.3157
 9651SOL    HW229853   2.611   0.189   6.657  0.6810 -0.2305  0.0186
 9652SOL     OW29854   5.672   3.693   0.654 -0.1903  0.4098 -0.1169
 9652SOL    HW129855   5.682   3.726   0.561  1.0559 -0.5321 -0.3449
 9652SOL    HW229856   5.635   3.600   0.653  1.1704 -0.1529  0.2388
 9653SOL     OW29857   1.672   2.542   3.711  0.5046 -0.2496 -0.1952
 9653SOL    HW129858   1.645   2.631   3.748 -2.3195 -0.7103 -0.9371
 9653SOL    HW229859   1.674   2.474   3.785 -1.0344 -0.3190 -0.2010
 9654SOL     OW29860   0.613   4.441   0.924 -0.2446 -0.7722  0.2048
 9654SOL    HW129861   0.558   4.364   0.891  1.5234 -1.8858 -0.3281
 9654SOL    HW229862   0.691   4.455   0.863  0.0728  0.7542  0.9101
 9655SOL     OW29863   0.606   6.096   2.517 -0.1787 -0.2009  0.2775
 9655SOL    HW129864   0.547   6.027   2.475 -0.2857  1.1538 -1.9708
 9655SOL    HW229865   0.667   6.052   2.582 -2.0014 -1.9961  0.8686
 9656SOL     OW29866   2.661   6.977   1.318  0.2552  0.0745 -0.4894
 9656SOL    HW129867   2.600   7.001   1.394  1.2409  1.2875 -0.0524
 9656SOL    HW229868   2.718   6.899   1.345  1.7148  1.4786  0.6723
 9657SOL     OW29869   3.256   3.434   2.481 -0.4898 -0.2255 -0.3205
 9657SOL    HW129870   3.250   3.532   2.496  1.8809  0.2357 -1.8581
 9657SOL    HW229871   3.198   3.409   2.403  0.2453  0.2828 -1.0440
 9658SOL     OW29872   1.470   6.074   4.954  0.0945 -0.1677 -0.7374
 9658SOL    HW129873   1.530   6.007   4.910  0.4381 -0.8930  0.7733
 9658SOL    HW229874   1.439   6.038   5.043  3.6102  3.1851  2.1768
 9659SOL     OW29875   2.759   2.183   6.473 -0.3571 -0.4404  0.4554
 9659SOL    HW129876   2.688   2.252   6.488 -0.6181 -0.5384 -0.3221
 9659SOL    HW229877   2.798   2.157   6.562 -1.4699 -0.5760  0.9270
 9660SOL     OW29878   3.782   1.353   0.394  0.4417 -0.0052 -0.1747
 9660SOL    HW129879   3.857   1.347   0.328  2.1535  3.0641  1.2567
 9660SOL    HW229880   3.773   1.448   0.425 -2.4007 -0.7527  1.6240
 9661SOL     OW29881   1.305   2.401   3.712 -0.0696 -0.4792  0.3901
 9661SOL    HW129882   1.295   2.303   3.697 -1.1907 -0.1233 -1.6939
 9661SOL    HW229883   1.398   2.429   3.686 -0.8949 -0.4712 -3.1368
 9662SOL     OW29884   1.122   5.809   3.613  0.1000 -0.1979 -0.7632
 9662SOL    HW129885   1.033   5.848   3.634  0.5570  0.8838 -0.7879
 9662SOL    HW229886   1.119   5.766   3.522  0.2517  2.0059 -1.8716
 9663SOL     OW29887   6.615   4.112   0.249  0.4001  0.8580  0.5671
 9663SOL    HW129888   6.669   4.196   0.237 -0.1871  1.5315  2.2414
 9663SOL    HW229889   6.570   4.088   0.164  2.2995  1.0039 -0.5361
 9664SOL     OW29890   1.623   5.599   3.311  0.3723 -0.7559 -0.1776
 9664SOL    HW129891   1.610   5.657   3.391 -0.9694 -1.4501  0.1336
 9664SOL    HW229892   1.636   5.656   3.230  1.7553 -0.0397  0.4986
 9665SOL     OW29893   5.490   2.081   3.249  0.2661  0.4077  0.6302
 9665SOL    HW129894   5.541   2.085   3.335 -0.4998 -0.0163  1.1203
 9665SOL    HW229895   5.392   2.082   3.269  0.0131  3.2233 -0.3616
 9666SOL     OW29896   4.355   3.664   0.703 -0.2092  0.2337  0.2591
 9666SOL    HW129897   4.442   3.626   0.733  0.4077 -0.4479 -2.1337
 9666SOL    HW229898   4.364   3.701   0.611 -2.3198  0.6902  0.1671
 9667SOL     OW29899   2.332   2.691   6.249 -0.1788  0.0898 -0.1678
 9667SOL    HW129900   2.407   2.714   6.188 -0.0841  1.1343  0.3200
 9667SOL    HW229901   2.254   2.751   6.230 -1.4176 -1.8377 -1.5716
 9668SOL     OW29902   1.371   5.525   0.135 -0.2030  0.5714  0.1112
 9668SOL    HW129903   1.291   5.573   0.098  0.1309  1.2854  0.3020
 9668SOL    HW229904   1.386   5.441   0.083 -0.5935  0.8423 -0.4546
 9669SOL     OW29905   4.751   6.051   3.877  0.2378  0.0202  0.1548
 9669SOL    HW129906   4.658   6.019   3.894  0.6957 -0.2367  2.5068
 9669SOL    HW229907   4.760   6.076   3.780 -2.1445 -0.2776 -0.2185
 9670SOL     OW29908   5.828   1.353   2.083 -0.3227  0.2837 -0.3664
 9670SOL    HW129909   5.814   1.451   2.095 -0.6722  0.0923  0.9311
 9670SOL    HW229910   5.742   1.311   2.053 -0.3006  0.2969 -0.4509
 9671SOL     OW29911   1.388   3.930   6.912 -0.6414  0.3493 -0.5938
 9671SOL    HW129912   1.450   3.890   6.980 -0.0639  0.7824 -0.8558
 9671SOL    HW229913   1.343   4.011   6.951  0.6286  1.3403 -1.1112
 9672SOL     OW29914   2.003   4.041   5.990 -0.3062 -0.4211 -0.1594
 9672SOL    HW129915   2.022   3.943   5.994 -1.9707 -0.7775 -0.0530
 9672SOL    HW229916   1.995   4.070   5.894 -0.5801 -0.5558 -0.1773
 9673SOL     OW29917   6.555   0.660   3.103  0.4535 -0.3263 -0.5501
 9673SOL    HW129918   6.584   0.742   3.053 -1.0075  0.5459 -0.0288
 9673SOL    HW229919   6.497   0.686   3.180 -0.9074 -1.9029 -0.9708
 9674SOL     OW29920   0.902   2.885   1.354  0.1529  0.2156 -0.1743
 9674SOL    HW129921   0.843   2.847   1.425 -0.5066  0.1558 -0.7424
 9674SOL    HW229922   0.975   2.939   1.396 -0.2704  0.2401  0.5405
 9675SOL     OW29923   1.960   3.183   1.634  0.5236 -0.0509  0.3350
 9675SOL    HW129924   2.025   3.110   1.614 -1.5740 -1.6546 -1.0253
 9675SOL    HW229925   1.877   3.144   1.674  0.1436  1.8767  1.5823
 9676SOL     OW29926   0.864   2.170   2.038 -0.2279  0.2180  0.3308
 9676SOL    HW129927   0.911   2.244   1.988  1.3474  0.9879  2.7711
 9676SOL    HW229928   0.806   2.210   2.109 -2.0828 -0.8656 -0.5039
 9677SOL     OW29929   0.426   2.597   0.757 -0.9832  0.4018  0.0030
 9677SOL    HW129930   0.521   2.615   0.733 -1.0168  0.0923 -0.3634
 9677SOL    HW229931   0.401   2.651   0.838 -0.0365 -0.6558  1.0212
 9678SOL     OW29932   0.888   3.991   1.036  0.0162  0.1166  0.1123
 9678SOL    HW129933   0.803   3.939   1.032 -0.1373  0.4284 -0.8611
 9678SOL    HW229934   0.959   3.935   1.079 -0.6565 -0.1640  0.8795
 9679SOL     OW29935   5.278   0.403   4.812 -0.4498 -0.8162  0.5695
 9679SOL    HW129936   5.277   0.498   4.843 -1.1345 -0.8946  0.8211
 9679SOL    HW229937   5.362   0.385   4.761 -1.0530  0.3966 -0.9408
 9680SOL     OW29938   2.937   1.990   4.166 -0.3097  0.3628 -0.0195
 9680SOL    HW129939   3.027   1.946   4.165 -0.0385  0.8809 -1.8471
 9680SOL    HW229940   2.945   2.080   4.209  0.4551  1.1267 -1.6769
 9681SOL     OW29941   2.928   0.962   2.757  0.6524  0.2396 -0.7388
 9681SOL    HW129942   2.961   1.004   2.673  0.7146  0.9937 -0.3490
 9681SOL    HW229943   3.006   0.931   2.811  0.9698  3.7021  1.0562
 9682SOL     OW29944   6.482   2.299   4.743  0.0029 -0.6450  0.2226
 9682SOL    HW129945   6.402   2.350   4.773 -1.3888 -1.6917 -1.5066
 9682SOL    HW229946   6.509   2.330   4.652  0.6650 -1.2985  0.1877
 9683SOL     OW29947   3.265   5.921   1.883  0.1749 -0.5677 -0.1610
 9683SOL    HW129948   3.268   5.902   1.981 -0.3386 -0.5745 -0.1425
 9683SOL    HW229949   3.351   5.894   1.841 -0.1781 -2.0495  0.0202
 9684SOL     OW29950   2.062   0.181   0.668  0.2595  0.1213  0.4536
 9684SOL    HW129951   2.103   0.090   0.667  0.8762  0.3955  0.1886
 9684SOL    HW229952   2.122   0.245   0.621 -0.6198  0.4775 -0.2195
 9685SOL     OW29953   6.265   4.041   2.752  0.0995 -0.1308  0.2436
 9685SOL    HW129954   6.180   4.094   2.757 -1.2744 -2.3385  3.3862
 9685SOL    HW229955   6.244   3.943   2.752  2.6517 -0.7615  0.5391
 9686SOL     OW29956   1.290   4.809   4.067 -0.7699  0.0739  0.1922
 9686SOL    HW129957   1.308   4.734   4.131 -0.2064 -0.7613 -0.9083
 9686SOL    HW229958   1.315   4.896   4.109  0.8389 -0.5798  0.6549
 9687SOL     OW29959   5.138   2.387   2.587  0.5122  0.0580  0.0265
 9687SOL    HW129960   5.073   2.463   2.576  0.2802 -0.2493 -0.8143
 9687SOL    HW229961   5.174   2.387   2.680  0.8574  1.4788 -0.0717
 9688SOL     OW29962   3.847   0.597   5.421  0.1519  0.1181  0.2220
 9688SOL    HW129963   3.937   0.639   5.405  1.0097 -1.8187 -0.3118
 9688SOL    HW229964   3.797   0.592   5.335  0.1675 -0.1873  0.2302
 9689SOL     OW29965   4.806   6.720   0.209  0.3414  0.0637 -0.2141
 9689SOL    HW129966   4.751   6.742   0.290  0.7546  0.1575  0.0464
 9689SOL    HW229967   4.829   6.622   0.210 -2.3628 -0.7125 -1.9050
 9690SOL     OW29968   6.500   6.141   5.627 -0.4576  0.1259 -0.0084
 9690SOL    HW129969   6.503   6.064   5.563 -1.0297 -0.1435  0.2762
 9690SOL    HW229970   6.592   6.161   5.660 -0.0558  0.6691 -1.3819
 9691SOL     OW29971   1.646   4.565   0.242 -0.3391  0.2193  0.4597
 9691SOL    HW129972   1.569   4.620   0.272  0.1783  0.9474  0.4687
 9691SOL    HW229973   1.731   4.603   0.279  0.2191  0.5902 -1.1329
 9692SOL     OW29974   0.524   5.314   4.856  0.2209 -0.1442  0.0259
 9692SOL    HW129975   0.485   5.326   4.765  1.3286 -1.9199 -0.7235
 9692SOL    HW229976   0.521   5.402   4.905 -1.0500  0.6745 -1.4215
 9693SOL     OW29977   6.306   0.624   2.550 -0.0224  0.4474  0.1741
 9693SOL    HW129978   6.302   0.525   2.568  0.3177  0.5745  1.0338
 9693SOL    HW229979   6.285   0.642   2.454  2.4183 -0.6900 -0.6643
 9694SOL     OW29980   1.752   5.468   0.524  0.7218  0.1906  0.0195
 9694SOL    HW129981   1.679   5.446   0.460  0.0056 -0.2108  0.9463
 9694SOL    HW229982   1.840   5.464   0.477  0.1352  1.0795 -1.2153
 9695SOL     OW29983   2.389   2.657   4.647 -0.9984 -0.0557 -0.1826
 9695SOL    HW129984   2.354   2.751   4.646 -2.5800 -0.5830  0.6511
 9695SOL    HW229985   2.392   2.621   4.554  1.4436  1.4079 -0.7357
 9696SOL     OW29986   3.376   6.523   0.615 -0.0713 -0.5751 -0.4083
 9696SOL    HW129987   3.348   6.432   0.643 -1.9582  0.0393 -0.1170
 9696SOL    HW229988   3.341   6.590   0.680  1.9092  0.3447 -0.2016
 9697SOL     OW29989   3.349   0.537   0.146  0.3153  0.3475  0.1874
 9697SOL    HW129990   3.318   0.509   0.236 -0.9266 -0.9854 -0.6121
 9697SOL    HW229991   3.275   0.586   0.099  1.5453  2.6791  0.5303
 9698SOL     OW29992   3.519   1.837   2.084 -0.0786 -0.0379  0.3138
 9698SOL    HW129993   3.515   1.738   2.075  2.6014 -0.1310 -0.8095
 9698SOL    HW229994   3.608   1.870   2.052 -1.0118  2.7783  0.3332
 9699SOL     OW29995   4.946   3.881   4.223  0.6329 -0.8199  0.1394
 9699SOL    HW129996   4.974   3.816   4.294 -0.3562 -0.7245  0.6187
 9699SOL    HW229997   4.950   3.974   4.259 -0.7781 -0.8380  0.3852
 9700SOL     OW29998   1.257   0.267   3.188  0.2099 -0.3575 -0.1217
 9700SOL    HW129999   1.343   0.282   3.140  0.9194 -2.2149  0.4615
 9700SOL    HW230000   1.187   0.239   3.122  0.7202 -1.2140 -0.3229
 9701SOL     OW30001   1.554   5.903   1.229  0.0025 -0.4404 -0.6473
 9701SOL    HW130002   1.472   5.910   1.286  1.3199  1.1753  1.2164
 9701SOL    HW230003   1.528   5.880   1.136 -2.5480 -0.1631 -0.0869
 9702SOL     OW30004   6.852   1.386   3.452  0.3849  0.6198 -0.1903
 9702SOL    HW130005   6.838   1.287   3.454  2.1470  0.3475  0.8529
 9702SOL    HW230006   6.898   1.415   3.536  0.9197  2.1575 -0.9758
 9703SOL     OW30007   2.861   6.828   5.499  0.4713  0.3166 -0.4785
 9703SOL    HW130008   2.763   6.848   5.499  0.5914  1.0881 -2.2666
 9703SOL    HW230009   2.880   6.755   5.434  1.0653  0.0595 -0.0181
 9704SOL     OW30010   2.865   0.860   1.065  0.1008  0.0200 -0.4530
 9704SOL    HW130011   2.813   0.878   0.981 -0.0461  0.9591 -0.1751
 9704SOL    HW230012   2.803   0.828   1.136  0.1582 -0.3792 -0.5830
 9705SOL     OW30013   1.710   3.268   3.310 -0.5135  0.2891  0.2236
 9705SOL    HW130014   1.619   3.236   3.337 -0.5148  1.5535  1.9045
 9705SOL    HW230015   1.774   3.250   3.385  0.1741  1.1984 -0.1423
 9706SOL     OW30016   6.768   4.257   6.810 -0.2167  0.4099  0.1582
 9706SOL    HW130017   6.802   4.216   6.895 -1.7878  0.4800  0.8536
 9706SOL    HW230018   6.688   4.205   6.778  0.6459  0.0874 -1.5656
 9707SOL     OW30019   7.004   5.893   3.352 -0.1034  0.4203  0.0683
 9707SOL    HW130020   7.011   5.876   3.450 -1.1995  1.1633  0.2967
 9707SOL    HW230021   6.964   5.813   3.307  0.4202  0.0695  0.2207
 9708SOL     OW30022   2.450   1.665   4.549  0.4312  0.3901  0.0437
 9708SOL    HW130023   2.412   1.574   4.565 -1.0759  0.3923 -2.8843
 9708SOL    HW230024   2.389   1.734   4.588  0.2658  0.2296  0.0726
 9709SOL     OW30025   5.533   2.462   4.709  0.3978  0.6587 -0.1677
 9709SOL    HW130026   5.560   2.520   4.786  0.1696  0.3188  0.1719
 9709SOL    HW230027   5.508   2.372   4.743 -2.3595  1.2855 -0.2780
 9710SOL     OW30028   0.698   5.169   6.065 -0.3716 -0.0492  0.1493
 9710SOL    HW130029   0.725   5.072   6.062 -2.8454 -0.7815 -0.6022
 9710SOL    HW230030   0.623   5.180   6.130 -1.7343  0.8900 -1.5233
 9711SOL     OW30031   1.552   1.535   0.358  0.1865  0.4527  0.6953
 9711SOL    HW130032   1.611   1.528   0.438  0.1204  1.8224  0.8803
 9711SOL    HW230033   1.464   1.492   0.378  0.7214 -0.6507  0.7810
 9712SOL     OW30034   0.652   5.850   5.582 -0.0640  0.4917  0.1985
 9712SOL    HW130035   0.618   5.797   5.505  1.7278 -1.5916  0.7286
 9712SOL    HW230036   0.590   5.925   5.601 -1.4245  0.0585 -2.1815
 9713SOL     OW30037   3.522   2.949   0.139 -0.1413 -0.2282 -0.0532
 9713SOL    HW130038   3.615   2.958   0.103  0.5563 -0.3139  1.6235
 9713SOL    HW230039   3.503   2.853   0.159 -1.2610 -0.4563 -1.9791
 9714SOL     OW30040   0.897   5.142   2.925 -0.4113  0.4914  0.2317
 9714SOL    HW130041   0.923   5.201   3.001  1.1094  0.5850 -0.3219
 9714SOL    HW230042   0.826   5.079   2.954  0.8240 -0.1425  2.0432
 9715SOL     OW30043   6.024   3.068   2.917  0.3305  0.3028  0.4079
 9715SOL    HW130044   5.945   3.127   2.936 -0.5392 -1.0482  1.1884
 9715SOL    HW230045   6.078   3.058   3.000  0.5568  0.1406  0.2408
 9716SOL     OW30046   1.010   6.578   6.978  0.0417  0.4695 -0.2598
 9716SOL    HW130047   0.970   6.639   7.046 -1.5602  0.8400 -1.4685
 9716SOL    HW230048   0.981   6.607   6.887  0.0467 -1.5150 -0.9361
 9717SOL     OW30049   0.100   1.015   2.353 -0.5209  0.5646  0.4022
 9717SOL    HW130050   0.038   1.022   2.431 -0.7798  0.0691  0.2433
 9717SOL    HW230051   0.048   1.012   2.268 -0.2889  0.0364  0.2748
 9718SOL     OW30052   4.955   5.497   4.003  0.3467 -0.1902  0.2124
 9718SOL    HW130053   5.034   5.559   3.995  1.5960 -1.8208 -0.6997
 9718SOL    HW230054   4.926   5.468   3.912  1.2422 -2.6374  0.6352
 9719SOL     OW30055   1.566   0.780   2.384 -0.2419  0.1602 -0.3371
 9719SOL    HW130056   1.486   0.801   2.326 -0.8538 -1.3261 -0.0766
 9719SOL    HW230057   1.624   0.713   2.337 -1.3021 -1.9118  1.1302
 9720SOL     OW30058   4.319   4.634   4.701 -0.3532  0.3317 -0.5575
 9720SOL    HW130059   4.306   4.729   4.730 -0.4846  0.1636 -0.0569
 9720SOL    HW230060   4.320   4.575   4.782  0.0489 -0.0555 -0.8454
 9721SOL     OW30061   5.032   1.981   0.910 -0.2439 -0.4881 -0.7524
 9721SOL    HW130062   4.984   1.972   0.997 -0.5030  3.6058 -0.2813
 9721SOL    HW230063   5.121   1.936   0.917  0.8349  1.7280  2.6680
 9722SOL     OW30064   1.206   3.400   3.070  0.4877 -0.3975  0.3238
 9722SOL    HW130065   1.274   3.453   3.120  1.1515 -0.3955 -0.5525
 9722SOL    HW230066   1.244   3.311   3.046 -0.9060 -1.6915  2.5508
 9723SOL     OW30067   0.676   5.747   1.686  0.3043  0.1969  0.9620
 9723SOL    HW130068   0.683   5.847   1.686 -2.0388  0.4399  0.1497
 9723SOL    HW230069   0.759   5.708   1.724  1.6694  2.4113  0.4434
 9724SOL     OW30070   0.633   1.892   6.986  0.3610  0.1931 -0.0528
 9724SOL    HW130071   0.541   1.916   6.956  0.3507 -0.0035 -0.1792
 9724SOL    HW230072   0.645   1.920   7.082  0.3147  0.6040 -0.1616
 9725SOL     OW30073   3.444   3.051   6.100 -0.4152  0.1389 -0.0948
 9725SOL    HW130074   3.490   2.963   6.109  2.1014  1.4782  1.0920
 9725SOL    HW230075   3.439   3.076   6.003 -1.1927 -1.2843 -0.4430
 9726SOL     OW30076   0.872   0.175   5.733 -0.0358  0.2892  0.1487
 9726SOL    HW130077   0.782   0.132   5.725 -0.0020  0.1235  0.6437
 9726SOL    HW230078   0.910   0.188   5.642  0.0671 -0.9899 -0.0127
 9727SOL     OW30079   1.168   4.730   6.445 -0.7346 -0.4438  0.7640
 9727SOL    HW130080   1.222   4.657   6.487  0.3627 -0.7930 -1.1258
 9727SOL    HW230081   1.218   4.816   6.450 -0.9799 -0.3105  0.9311
 9728SOL     OW30082   0.924   0.851   0.050  0.2822  0.5492  0.0007
 9728SOL    HW130083   0.970   0.842  -0.039  0.3573  1.4824 -0.0682
 9728SOL    HW230084   0.992   0.841   0.123 -0.0878 -2.1715  0.0395
 9729SOL     OW30085   6.321   3.149   6.325 -0.5730  0.2597  0.3008
 9729SOL    HW130086   6.369   3.231   6.357 -0.0275 -0.2634  0.8509
 9729SOL    HW230087   6.224   3.157   6.347 -0.7920  1.3840 -0.9358
 9730SOL     OW30088   1.009   3.607   5.538 -0.0049 -0.0657 -0.1353
 9730SOL    HW130089   1.041   3.522   5.497  0.7454 -0.5287  1.3374
 9730SOL    HW230090   1.014   3.681   5.471  1.5256 -0.7134 -0.7631
 9731SOL     OW30091   2.811   5.622   5.848  0.8614  0.6593  0.4571
 9731SOL    HW130092   2.804   5.717   5.817  0.4402  0.4240 -0.1866
 9731SOL    HW230093   2.824   5.562   5.770  0.2632  0.0964  0.7810
 9732SOL     OW30094   2.564   4.928   6.206  0.1004  0.1069  0.0492
 9732SOL    HW130095   2.608   4.925   6.296  2.7349  0.1714 -1.1489
 9732SOL    HW230096   2.539   4.835   6.178  1.8667 -0.2877 -0.3116
 9733SOL     OW30097   5.572   5.320   0.036  0.2815  0.3836 -0.6431
 9733SOL    HW130098   5.649   5.275   0.082 -0.6453 -0.6823 -0.0739
 9733SOL    HW230099   5.570   5.293  -0.060  0.1373 -0.2367 -0.4673
 9734SOL     OW30100   3.449   6.021   6.413 -0.2198 -0.0896  0.1828
 9734SOL    HW130101   3.363   5.973   6.397 -0.3290  0.9067 -2.7832
 9734SOL    HW230102   3.441   6.075   6.497 -2.1784 -0.6628  0.4292
 9735SOL     OW30103   1.689   6.121   2.453  0.1939 -0.5214  0.0560
 9735SOL    HW130104   1.604   6.174   2.456  0.2213 -0.4960  2.3060
 9735SOL    HW230105   1.747   6.148   2.530  1.7513 -1.3719 -0.7729
 9736SOL     OW30106   6.896   1.108   3.210  0.5345 -0.1315 -0.5619
 9736SOL    HW130107   6.918   1.015   3.179  1.4490  0.1725 -0.8670
 9736SOL    HW230108   6.949   1.174   3.157  0.7671  0.5040  0.4316
 9737SOL     OW30109   0.924   4.998   1.126  0.2012 -0.0267  0.6753
 9737SOL    HW130110   0.833   4.955   1.124  0.5391 -0.7301 -0.4512
 9737SOL    HW230111   0.948   5.021   1.221 -0.6716 -0.8674  1.1230
 9738SOL     OW30112   1.817   4.568   2.452  0.1961 -0.9854  0.1580
 9738SOL    HW130113   1.899   4.559   2.509  1.1109 -0.8879 -1.1104
 9738SOL    HW230114   1.833   4.528   2.362  0.0998  2.0210 -1.3364
 9739SOL     OW30115   6.994   1.612   3.552  0.0603 -0.3720 -0.2701
 9739SOL    HW130116   7.068   1.575   3.608  0.2969 -1.0244 -0.9947
 9739SOL    HW230117   6.927   1.657   3.611 -0.1746 -1.8579  0.6341
 9740SOL     OW30118   3.091   5.525   3.080 -0.8130  0.0778 -0.4891
 9740SOL    HW130119   3.166   5.582   3.047 -0.5163  0.0647  0.1453
 9740SOL    HW230120   3.107   5.430   3.056 -1.5280  0.2991 -1.9447
 9741SOL     OW30121   6.818   6.154   4.175 -0.2097 -0.0351  0.4353
 9741SOL    HW130122   6.805   6.104   4.089 -0.2671 -1.8443  1.4502
 9741SOL    HW230123   6.729   6.186   4.208 -0.3712 -0.5590  0.5174
 9742SOL     OW30124   6.197   5.524   5.829 -0.2393  0.9521 -0.3943
 9742SOL    HW130125   6.145   5.439   5.837  0.9366  0.1000 -1.2013
 9742SOL    HW230126   6.239   5.547   5.917  0.5011 -0.0554 -0.4644
 9743SOL     OW30127   2.098   1.731   6.589  0.1053 -0.2772 -0.1737
 9743SOL    HW130128   2.048   1.787   6.523  1.4007  1.9138  0.5931
 9743SOL    HW230129   2.189   1.710   6.553  0.9261  1.1652  0.9127
 9744SOL     OW30130   6.404   0.330   2.092 -0.3920 -0.1609  0.6001
 9744SOL    HW130131   6.457   0.343   2.176  0.6490 -1.6286  0.1967
 9744SOL    HW230132   6.446   0.382   2.018 -0.0298 -0.6183  0.4839
 9745SOL     OW30133   4.227   5.654   2.690  0.0756 -0.5411 -0.2201
 9745SOL    HW130134   4.287   5.734   2.684  0.9440 -1.0037  1.4797
 9745SOL    HW230135   4.266   5.589   2.756 -1.6749 -1.4297 -0.0163
 9746SOL     OW30136   2.788   4.934   6.791  0.4332  0.0093  0.0956
 9746SOL    HW130137   2.885   4.908   6.787  0.7481  0.7983  1.7806
 9746SOL    HW230138   2.732   4.861   6.753  1.5827 -1.1757  0.5996
 9747SOL     OW30139   2.243   1.601   3.700 -0.6670 -0.1425 -0.1142
 9747SOL    HW130140   2.236   1.506   3.729 -0.7128 -0.3929 -0.9259
 9747SOL    HW230141   2.259   1.659   3.780 -0.4021 -0.8521  0.3573
 9748SOL     OW30142   6.827   4.867   6.296 -0.2887  0.6815 -0.3627
 9748SOL    HW130143   6.902   4.814   6.335  0.7030  1.7391 -0.7820
 9748SOL    HW230144   6.787   4.817   6.219 -1.3492 -0.7832  1.0671
 9749SOL     OW30145   6.270   2.787   3.277  0.1823  0.1848 -0.1523
 9749SOL    HW130146   6.358   2.831   3.258  0.0769  0.4134 -0.1078
 9749SOL    HW230147   6.264   2.701   3.226  1.7040 -1.3804  2.1150
 9750SOL     OW30148   5.511   0.058   3.752  0.5105  0.0604  0.1789
 9750SOL    HW130149   5.483  -0.011   3.685  2.2797 -0.3421 -0.1966
 9750SOL    HW230150   5.517   0.147   3.708  2.2355 -0.3043 -0.3828
 9751SOL     OW30151   3.493   3.774   4.052  0.0529  0.6642  0.0783
 9751SOL    HW130152   3.588   3.756   4.080 -0.5688  0.7278  2.4487
 9751SOL    HW230153   3.436   3.784   4.134 -1.5939  2.8674 -1.2257
 9752SOL     OW30154   1.402   5.397   4.651  0.0172 -0.0782 -0.4376
 9752SOL    HW130155   1.448   5.348   4.726 -1.9107 -1.7173 -0.2494
 9752SOL    HW230156   1.369   5.485   4.685  0.8891  0.0667  0.0738
 9753SOL     OW30157   3.394   0.816   0.337  0.5791  0.3077 -0.4251
 9753SOL    HW130158   3.424   0.867   0.257 -1.6711 -0.5518 -1.9317
 9753SOL    HW230159   3.340   0.737   0.308 -2.8673  1.5756  1.8867
 9754SOL     OW30160   1.645   6.345   2.879 -0.8187 -0.1670 -0.1205
 9754SOL    HW130161   1.648   6.435   2.837 -0.6553 -0.0077  0.2274
 9754SOL    HW230162   1.676   6.351   2.974 -0.6035 -0.6228 -0.1560
 9755SOL     OW30163   0.774   0.534   4.956 -0.5029  0.0722  0.2898
 9755SOL    HW130164   0.837   0.611   4.946  1.7509 -1.5696  0.8712
 9755SOL    HW230165   0.737   0.532   5.049  1.1517 -0.6711  0.9896
 9756SOL     OW30166   5.453   5.387   6.659  0.2224 -0.7660  0.0021
 9756SOL    HW130167   5.469   5.296   6.696  0.3201 -0.9597 -0.5098
 9756SOL    HW230168   5.395   5.381   6.578  0.6357 -0.4275 -0.3261
 9757SOL     OW30169   4.115   3.384   5.222  0.1075  0.0886 -0.5922
 9757SOL    HW130170   4.126   3.305   5.283 -0.3025  2.0978  2.2769
 9757SOL    HW230171   4.017   3.405   5.213  0.2652  0.8499 -0.5319
 9758SOL     OW30172   6.428   4.767   2.270  0.6345  0.2863  0.0584
 9758SOL    HW130173   6.340   4.741   2.311  0.3729  1.4415  0.2623
 9758SOL    HW230174   6.412   4.814   2.183  0.9783  1.3806  0.5670
 9759SOL     OW30175   6.305   6.028   4.694  0.5238  0.3683 -0.3925
 9759SOL    HW130176   6.375   6.057   4.630  1.6500 -0.1009  0.5704
 9759SOL    HW230177   6.267   6.108   4.740  0.4421  0.6293 -0.9093
 9760SOL     OW30178   5.936   1.844   3.349  0.3484  0.4593  0.0700
 9760SOL    HW130179   5.993   1.797   3.417  1.5922  1.9519  0.1339
 9760SOL    HW230180   5.847   1.800   3.344  0.2551  0.1971  2.5785
 9761SOL     OW30181   6.733   4.617   2.473 -0.0749 -0.4507 -0.6840
 9761SOL    HW130182   6.675   4.577   2.544  1.9124 -2.6819 -0.1944
 9761SOL    HW230183   6.779   4.699   2.509  1.0255 -1.6370  0.7288
 9762SOL     OW30184   4.620   1.237   3.209 -0.5225 -0.0187  0.6956
 9762SOL    HW130185   4.639   1.172   3.135 -1.1921 -0.5092  0.9428
 9762SOL    HW230186   4.527   1.272   3.199 -0.2540  0.7086  0.7161
 9763SOL     OW30187   3.888   0.139   3.745 -0.2020 -1.3510 -0.2059
 9763SOL    HW130188   3.923   0.175   3.832 -1.6198 -0.5660  0.0821
 9763SOL    HW230189   3.789   0.125   3.753 -0.1682 -2.3468 -1.3484
 9764SOL     OW30190   2.683   0.313   2.698  0.4940 -0.1833 -0.5456
 9764SOL    HW130191   2.708   0.230   2.748  2.9987  1.5271  1.3570
 9764SOL    HW230192   2.585   0.329   2.707  0.1181 -2.3474 -0.0989
 9765SOL     OW30193   1.379   5.143   1.634  0.2977  0.2934  0.0030
 9765SOL    HW130194   1.337   5.233   1.647  0.5002  0.7008 -1.9155
 9765SOL    HW230195   1.476   5.153   1.615  0.7257 -0.4863  1.5380
 9766SOL     OW30196   2.336   1.289   0.149  0.7019  0.2709 -0.8636
 9766SOL    HW130197   2.388   1.358   0.098 -0.6121 -0.3974 -3.2843
 9766SOL    HW230198   2.241   1.289   0.116 -0.0513 -0.7214  1.1639
 9767SOL     OW30199   5.754   5.291   2.591 -0.4860 -0.4336  0.3080
 9767SOL    HW130200   5.807   5.361   2.543 -1.1284 -0.0218  0.1894
 9767SOL    HW230201   5.735   5.215   2.529 -0.7877 -0.1785  0.0808
 9768SOL     OW30202   5.145   4.672   4.050  0.1917  0.0797  0.1649
 9768SOL    HW130203   5.106   4.764   4.050 -0.5023 -0.1779 -1.3124
 9768SOL    HW230204   5.080   4.609   4.009  0.5422 -1.1414  1.4353
 9769SOL     OW30205   4.099   1.667   5.006  0.1237  0.0394 -0.3711
 9769SOL    HW130206   4.109   1.754   4.958  1.8148 -0.6710 -1.4100
 9769SOL    HW230207   4.176   1.655   5.069  0.2873 -0.9959 -0.7499
 9770SOL     OW30208   4.327   4.158   6.232 -0.3885 -0.4243 -0.4866
 9770SOL    HW130209   4.419   4.145   6.196 -1.2360 -1.1910 -2.5442
 9770SOL    HW230210   4.299   4.253   6.217 -0.2443 -0.4029 -0.6296
 9771SOL     OW30211   6.545   4.130   5.550 -0.3593 -0.5570 -0.4624
 9771SOL    HW130212   6.496   4.167   5.471 -2.0617 -1.4565  0.1399
 9771SOL    HW230213   6.501   4.046   5.581 -0.3107  0.2583  2.0239
 9772SOL     OW30214   1.929   3.016   0.098 -0.6280  0.1215 -0.0186
 9772SOL    HW130215   1.926   2.974   0.008 -1.7525 -0.0053  0.0604
 9772SOL    HW230216   1.940   2.944   0.168  2.5679  0.3696 -0.1300
 9773SOL     OW30217   5.651   4.562   0.548  0.0881 -0.6309  0.2126
 9773SOL    HW130218   5.721   4.631   0.532 -0.0718 -0.4693  0.2068
 9773SOL    HW230219   5.609   4.577   0.638 -0.8787  0.1068 -0.3351
 9774SOL     OW30220   0.603   4.425   6.490  0.4758 -0.0336 -0.6963
 9774SOL    HW130221   0.628   4.483   6.568  1.0840  0.7847 -1.4885
 9774SOL    HW230222   0.503   4.422   6.482  0.4231  0.4638 -0.3221
 9775SOL     OW30223   1.311   1.087   2.066 -0.2318  0.4178 -0.0749
 9775SOL    HW130224   1.244   1.031   2.115  0.4071 -0.9811 -0.7176
 9775SOL    HW230225   1.308   1.064   1.968 -0.0215  1.6107 -0.3684
 9776SOL     OW30226   3.511   4.145   2.148 -0.2030 -0.1564 -0.6690
 9776SOL    HW130227   3.530   4.087   2.228 -0.9755  0.5536  0.0442
 9776SOL    HW230228   3.417   4.178   2.153 -0.2203 -0.0109 -1.8286
 9777SOL     OW30229   4.018   5.103   4.489  0.4843  0.1917  0.1515
 9777SOL    HW130230   3.938   5.068   4.439 -2.6459  1.9291  3.4468
 9777SOL    HW230231   4.078   5.027   4.512 -0.8499 -1.4206 -1.3851
 9778SOL     OW30232   4.905   3.194   5.823 -0.1760  0.7566  0.1641
 9778SOL    HW130233   4.935   3.121   5.761 -2.6800  0.5510 -0.9220
 9778SOL    HW230234   4.964   3.274   5.811  1.1613 -0.2590 -0.3551
 9779SOL     OW30235   0.956   6.848   0.536  0.2099 -0.8354  0.1321
 9779SOL    HW130236   0.971   6.750   0.546  2.5580 -0.6146 -0.5362
 9779SOL    HW230237   1.031   6.898   0.580  1.1490  0.5227 -2.7320
 9780SOL     OW30238   2.144   5.172   0.022 -0.2137  0.4546  0.1396
 9780SOL    HW130239   2.123   5.130   0.110 -1.3019 -1.1461 -0.8427
 9780SOL    HW230240   2.072   5.149  -0.044  1.5729 -0.0889 -1.7133
 9781SOL     OW30241   5.367   0.779   4.930 -0.3501  0.4726  0.0796
 9781SOL    HW130242   5.424   0.772   5.012 -0.9673 -2.7187  0.3708
 9781SOL    HW230243   5.284   0.725   4.943 -1.0750  0.9524 -2.2055
 9782SOL     OW30244   4.178   6.638   5.251 -0.2443  0.1668  0.5775
 9782SOL    HW130245   4.087   6.604   5.225 -0.0592 -0.2003  0.4111
 9782SOL    HW230246   4.246   6.600   5.189 -0.2762  2.5634 -1.0890
 9783SOL     OW30247   1.293   3.949   2.432  0.5466 -0.8428  0.1709
 9783SOL    HW130248   1.327   3.975   2.342 -2.0919  0.0447 -0.6662
 9783SOL    HW230249   1.281   3.850   2.436  0.6411 -0.8822 -0.4521
 9784SOL     OW30250   1.033   3.010   4.212 -0.1656 -0.6111  0.0337
 9784SOL    HW130251   1.013   2.967   4.125 -1.8729 -0.6071  0.3787
 9784SOL    HW230252   1.043   2.940   4.283 -0.1290 -0.5644  0.0747
 9785SOL     OW30253   5.899   0.415   2.251 -0.3741  0.5883 -0.5042
 9785SOL    HW130254   5.819   0.377   2.205 -0.3346  0.4648 -0.4725
 9785SOL    HW230255   5.971   0.345   2.255 -0.0955  0.8449 -0.9533
 9786SOL     OW30256   5.682   0.445   1.276  0.8408  0.1956 -0.0539
 9786SOL    HW130257   5.751   0.448   1.349  0.5920 -0.7353  0.2259
 9786SOL    HW230258   5.644   0.537   1.263 -0.3423  0.1079  2.1868
 9787SOL     OW30259   5.918   5.823   1.334 -0.3089  0.3408 -0.0392
 9787SOL    HW130260   5.917   5.752   1.264 -1.2983 -0.5533  0.8500
 9787SOL    HW230261   5.834   5.818   1.388  0.4267  1.0137  1.2136
 9788SOL     OW30262   0.997   2.508   0.782  0.0946 -0.0217 -0.5215
 9788SOL    HW130263   0.933   2.507   0.859  1.8044 -0.7059  0.9549
 9788SOL    HW230264   1.064   2.581   0.794  0.9697 -0.7531 -0.8363
 9789SOL     OW30265   6.940   3.964   0.019 -0.1143  0.2551 -0.6286
 9789SOL    HW130266   6.933   4.059   0.050 -0.2454  0.0348  0.0327
 9789SOL    HW230267   6.851   3.920   0.028  0.1335 -0.1573 -0.1858
 9790SOL     OW30268   4.489   5.714   0.947  0.9489  0.2724 -0.8851
 9790SOL    HW130269   4.523   5.622   0.967  0.7288  0.6643  1.5566
 9790SOL    HW230270   4.541   5.781   1.000 -0.7228  1.2854 -0.4526
 9791SOL     OW30271   1.956   1.561   0.908 -0.2535  0.0384  0.2696
 9791SOL    HW130272   1.944   1.463   0.923 -0.2275 -0.1289 -0.7278
 9791SOL    HW230273   1.867   1.606   0.911 -0.1118  0.3049  2.6214
 9792SOL     OW30274   1.639   2.828   4.844 -0.1490  0.2576  0.4263
 9792SOL    HW130275   1.731   2.834   4.806 -0.9119  1.7944 -1.4152
 9792SOL    HW230276   1.593   2.917   4.833 -2.5546 -1.0318 -0.7321
 9793SOL     OW30277   1.390   3.522   3.225  0.7153  0.1360 -0.5045
 9793SOL    HW130278   1.355   3.534   3.318  0.5123 -1.8625 -0.2756
 9793SOL    HW230279   1.490   3.522   3.226  0.7185 -0.6648 -0.1451
 9794SOL     OW30280   3.730   1.664   1.803 -0.0550 -0.1152 -0.3503
 9794SOL    HW130281   3.639   1.624   1.786 -1.1459  1.8172  0.5748
 9794SOL    HW230282   3.720   1.748   1.857  2.4158 -0.5491  0.9292
 9795SOL     OW30283   0.295   2.757   4.040 -0.1297 -0.0782 -0.4666
 9795SOL    HW130284   0.244   2.842   4.025 -1.1718 -0.5544  0.3004
 9795SOL    HW230285   0.242   2.695   4.097  2.1478  0.1987  2.1580
 9796SOL     OW30286   5.214   4.324   3.518 -0.4130  0.6102 -0.1675
 9796SOL    HW130287   5.307   4.329   3.555 -0.7161 -0.7720  0.8444
 9796SOL    HW230288   5.153   4.381   3.572 -0.8745 -1.4764  1.6602
 9797SOL     OW30289   3.983   3.877   0.293 -0.3938  0.1059  0.0037
 9797SOL    HW130290   3.910   3.889   0.361 -1.4199  0.8055 -1.1670
 9797SOL    HW230291   4.002   3.966   0.250 -0.8736 -0.5777 -1.6984
 9798SOL     OW30292   1.026   5.698   1.216  0.1776 -0.1236 -0.1147
 9798SOL    HW130293   1.018   5.608   1.173 -1.3627 -0.1191  0.1133
 9798SOL    HW230294   1.123   5.722   1.224  0.5666 -0.9375 -1.8625
 9799SOL     OW30295   1.392   4.061   6.652  0.0361  0.5331  0.0510
 9799SOL    HW130296   1.456   4.138   6.657  0.5667  0.0821  0.4269
 9799SOL    HW230297   1.383   4.020   6.743  1.1195 -0.9149 -0.4522
 9800SOL     OW30298   4.088   1.565   5.975  0.1155  0.0751 -0.2958
 9800SOL    HW130299   3.988   1.574   5.974 -0.0154 -1.1073  0.3991
 9800SOL    HW230300   4.116   1.507   6.051  1.3212  0.2007 -0.6208
 9801SOL     OW30301   5.221   3.348   1.472  0.6999  0.1384  0.3006
 9801SOL    HW130302   5.264   3.262   1.445 -0.6936 -0.3202 -0.5529
 9801SOL    HW230303   5.285   3.400   1.529  2.0813 -0.8371 -0.2820
 9802SOL     OW30304   6.220   6.362   5.242  0.2165 -0.6822  0.0559
 9802SOL    HW130305   6.154   6.288   5.258 -1.9135  1.0861  0.0073
 9802SOL    HW230306   6.219   6.425   5.319 -0.4258  0.9673 -1.2387
 9803SOL     OW30307   6.718   2.689   2.817  0.5649 -0.2452  0.7630
 9803SOL    HW130308   6.647   2.628   2.781  1.8507 -0.0107 -2.5336
 9803SOL    HW230309   6.803   2.638   2.830  0.7381  0.1753  1.3114
 9804SOL     OW30310   5.578   5.144   4.459  0.3179  0.4549 -0.2315
 9804SOL    HW130311   5.539   5.078   4.523 -0.5024  0.0900 -1.0728
 9804SOL    HW230312   5.510   5.166   4.389  0.0949  3.2107  0.7596
 9805SOL     OW30313   5.385   3.512   5.984 -0.7999  0.0599  0.1654
 9805SOL    HW130314   5.349   3.469   5.902  0.1837 -0.1508 -0.1753
 9805SOL    HW230315   5.340   3.599   6.000 -2.2659 -0.7123  0.4202
 9806SOL     OW30316   1.412   6.184   1.625  0.1952 -0.0975  0.3771
 9806SOL    HW130317   1.434   6.227   1.537 -1.2558 -1.1232 -0.5297
 9806SOL    HW230318   1.453   6.093   1.628 -0.6324 -0.4775  0.3115
 9807SOL     OW30319   4.830   2.427   3.555  0.2354 -0.1174  0.2100
 9807SOL    HW130320   4.766   2.502   3.572  0.3578 -0.1988  1.0541
 9807SOL    HW230321   4.788   2.340   3.581  0.2608 -0.3013 -0.3463
 9808SOL     OW30322   2.887   1.985   3.043  0.5512 -0.1224 -0.0236
 9808SOL    HW130323   2.928   2.071   3.072  2.1288 -1.0462  0.5998
 9808SOL    HW230324   2.822   2.002   2.968  0.0890  1.6963  0.7608
 9809SOL     OW30325   6.008   6.458   1.847  0.3630  0.2649  0.4428
 9809SOL    HW130326   6.001   6.446   1.748  0.0584  2.3493  0.1545
 9809SOL    HW230327   5.918   6.448   1.889  0.4528 -0.3883  0.4877
 9810SOL     OW30328   5.526   5.617   1.359  0.4432  0.1165 -0.1930
 9810SOL    HW130329   5.510   5.519   1.350 -0.2488  0.3196 -1.4035
 9810SOL    HW230330   5.474   5.654   1.436  1.7238 -0.6668  1.0966
 9811SOL     OW30331   0.951   1.698   5.087  0.3984  0.5549 -0.1333
 9811SOL    HW130332   0.866   1.750   5.085  0.5445  0.8709  1.0013
 9811SOL    HW230333   0.931   1.601   5.093  0.1231  0.6226  0.0342
 9812SOL     OW30334   4.316   4.884   4.041 -0.6478  0.1166 -0.6160
 9812SOL    HW130335   4.363   4.796   4.035 -2.3789 -1.0747  1.6391
 9812SOL    HW230336   4.320   4.930   3.953 -1.5489 -3.2125 -2.5519
 9813SOL     OW30337   3.020   4.618   0.932  0.4319  0.0278  0.1897
 9813SOL    HW130338   2.946   4.594   0.994 -0.2003 -3.1927 -1.5903
 9813SOL    HW230339   3.017   4.716   0.912 -3.9348 -0.0726 -0.5020
 9814SOL     OW30340   2.818   1.031   1.830  0.0225  0.3382 -0.2010
 9814SOL    HW130341   2.737   1.062   1.780 -0.1598  0.1803 -0.0075
 9814SOL    HW230342   2.897   1.031   1.770 -0.6491 -2.1959 -1.2231
 9815SOL     OW30343   2.482   5.777   3.447  0.3892 -0.6571 -0.1393
 9815SOL    HW130344   2.578   5.798   3.427  0.2044  0.5251  0.1471
 9815SOL    HW230345   2.444   5.723   3.372  0.8848  0.0840 -0.9428
 9816SOL     OW30346   0.759   5.908   6.138  0.4755 -0.1475 -0.1174
 9816SOL    HW130347   0.721   5.816   6.135 -0.4925  0.1886  1.0880
 9816SOL    HW230348   0.736   5.957   6.054 -0.3409 -0.5014 -0.1045
 9817SOL     OW30349   2.247   6.797   3.605 -0.7254 -0.2414 -0.3554
 9817SOL    HW130350   2.232   6.710   3.558 -2.5025 -1.0303  1.4982
 9817SOL    HW230351   2.294   6.780   3.692 -0.1580  0.8060 -0.4384
 9818SOL     OW30352   2.340   6.864   6.645  0.0537 -0.0529  0.3333
 9818SOL    HW130353   2.438   6.878   6.632 -0.2788  0.7109 -1.8231
 9818SOL    HW230354   2.310   6.784   6.593 -0.7596  0.8401 -0.6100
 9819SOL     OW30355   3.168   6.897   5.894  0.3934 -0.0008 -0.1517
 9819SOL    HW130356   3.131   6.959   5.824  0.2159 -1.5333 -1.4958
 9819SOL    HW230357   3.266   6.914   5.905  0.5523 -0.1392 -1.2417
 9820SOL     OW30358   5.653   1.513   6.763 -0.1836 -0.2586 -0.2217
 9820SOL    HW130359   5.633   1.567   6.681  0.5543  0.4709  0.0650
 9820SOL    HW230360   5.751   1.513   6.780 -0.3223 -0.4603  0.6250
 9821SOL     OW30361   0.234   1.179   2.122  0.1323  0.4406  0.0092
 9821SOL    HW130362   0.145   1.140   2.099 -0.5976 -0.1426  3.2754
 9821SOL    HW230363   0.241   1.272   2.085 -1.2831  0.0535 -1.3400
 9822SOL     OW30364   2.324   3.324   6.756 -0.6151 -0.1919  0.0960
 9822SOL    HW130365   2.283   3.278   6.835 -0.5826  1.6057  1.2153
 9822SOL    HW230366   2.293   3.279   6.672 -2.6614 -0.6372  1.0058
 9823SOL     OW30367   3.389   5.578   4.304  0.3036 -0.1092 -0.1436
 9823SOL    HW130368   3.313   5.604   4.363  0.1256 -1.0104  0.0467
 9823SOL    HW230369   3.441   5.503   4.347  1.5535  0.7603 -0.0752
 9824SOL     OW30370   5.018   4.782   3.623  0.1234 -0.5742 -0.5692
 9824SOL    HW130371   5.116   4.763   3.624  0.0033 -1.6453 -2.5398
 9824SOL    HW230372   4.999   4.851   3.552 -0.4252  0.6661  0.7364
 9825SOL     OW30373   6.510   6.110   2.091 -0.0863 -0.7492 -0.2581
 9825SOL    HW130374   6.449   6.032   2.098 -0.6149 -0.3878 -0.7368
 9825SOL    HW230375   6.599   6.080   2.057  0.2972 -1.4086  1.2246
 9826SOL     OW30376   5.834   6.976   3.421 -0.0352  0.1436 -0.5496
 9826SOL    HW130377   5.873   7.014   3.337  0.2471 -1.1904 -1.0375
 9826SOL    HW230378   5.896   6.995   3.497 -1.2661  3.2131 -0.1773
 9827SOL     OW30379   1.548   4.971   4.577  1.2658  0.8604  0.7680
 9827SOL    HW130380   1.457   5.000   4.546  0.7146  0.8194  2.3023
 9827SOL    HW230381   1.558   4.991   4.674  2.0490 -1.2234  1.1612
 9828SOL     OW30382   1.087   6.510   3.513 -0.7690  0.1877 -0.0758
 9828SOL    HW130383   1.095   6.454   3.431 -1.9629 -0.6942  0.3784
 9828SOL    HW230384   1.121   6.459   3.592 -0.1167  0.8295  0.0685
 9829SOL     OW30385   1.767   1.090   0.415 -0.5625  0.0019  0.4909
 9829SOL    HW130386   1.848   1.090   0.357 -0.9976  0.5833 -0.1269
 9829SOL    HW230387   1.793   1.114   0.509  0.1094 -0.7343  0.5075
 9830SOL     OW30388   2.047   3.261   2.014 -0.1494  0.2858 -0.2514
 9830SOL    HW130389   1.976   3.311   1.964 -2.0709  0.2832  2.2303
 9830SOL    HW230390   2.136   3.301   1.995 -0.5902 -0.1530 -4.0800
 9831SOL     OW30391   1.503   5.340   2.366  0.0928  0.5622  0.4221
 9831SOL    HW130392   1.429   5.279   2.339  0.3646  0.8426 -1.0291
 9831SOL    HW230393   1.556   5.296   2.439  0.7376 -1.3325 -1.0864
 9832SOL     OW30394   5.081   6.639   6.065 -0.1650  0.5151 -0.0802
 9832SOL    HW130395   5.120   6.623   5.974 -0.9813  1.7214 -0.6668
 9832SOL    HW230396   4.993   6.593   6.073 -0.9392  1.8421 -0.5748
 9833SOL     OW30397   4.914   5.473   2.116  0.0980  0.0451 -0.1018
 9833SOL    HW130398   4.931   5.511   2.207  0.5853 -2.4168  0.9078
 9833SOL    HW230399   4.841   5.525   2.071  2.1135  3.4913  0.2176
 9834SOL     OW30400   0.523   0.918   2.314 -0.6146 -0.0688  0.2160
 9834SOL    HW130401   0.601   0.962   2.358 -0.7535  1.0028 -0.5634
 9834SOL    HW230402   0.504   0.964   2.227 -2.3619 -0.0442  0.5727
 9835SOL     OW30403   6.572   5.115   3.568  0.0106  0.3705  0.1940
 9835SOL    HW130404   6.562   5.212   3.546 -1.3111  0.2361  0.1036
 9835SOL    HW230405   6.516   5.094   3.649  1.8061  0.0709  1.4260
 9836SOL     OW30406   5.165   5.019   3.467 -0.7324 -0.2638  0.2852
 9836SOL    HW130407   5.163   4.976   3.377  0.7536  1.2385 -0.5120
 9836SOL    HW230408   5.109   5.102   3.466 -0.1468  0.1443  0.5172
 9837SOL     OW30409   5.309   5.404   4.460 -0.0889 -0.0107 -0.3890
 9837SOL    HW130410   5.307   5.424   4.362  0.8795 -0.7833 -0.5803
 9837SOL    HW230411   5.243   5.332   4.481  1.3360 -1.5458 -0.9135
 9838SOL     OW30412   5.762   4.820   3.654 -0.1908 -0.2350  0.1815
 9838SOL    HW130413   5.722   4.756   3.720 -0.1845 -0.4124  0.0160
 9838SOL    HW230414   5.858   4.838   3.678 -0.5334  0.6738  0.9363
 9839SOL     OW30415   6.953   0.427   0.898 -0.3099 -0.2053 -0.0193
 9839SOL    HW130416   6.908   0.510   0.864 -0.4062  0.0692  0.7659
 9839SOL    HW230417   7.015   0.451   0.972 -1.2470 -0.9613  1.0492
 9840SOL     OW30418   3.128   4.215   5.599 -0.0850  0.0068  0.8595
 9840SOL    HW130419   3.081   4.303   5.588  0.9007  0.3729 -0.6323
 9840SOL    HW230420   3.165   4.210   5.692  0.7885  1.6585  0.6370
 9841SOL     OW30421   1.847   2.895   1.323 -0.1159 -0.4069  0.0436
 9841SOL    HW130422   1.861   2.807   1.370 -0.5742 -0.2873  0.4036
 9841SOL    HW230423   1.935   2.930   1.293 -0.0996 -2.1218 -2.1692
 9842SOL     OW30424   0.835   1.745   4.437  0.4488  0.1174  0.2620
 9842SOL    HW130425   0.792   1.672   4.490  0.5285 -0.2433 -0.1591
 9842SOL    HW230426   0.798   1.745   4.344 -0.1016  1.1092  0.4655
 9843SOL     OW30427   0.742   1.197   0.747 -0.3761  0.4092 -0.3883
 9843SOL    HW130428   0.673   1.267   0.764  0.7252  0.9795  2.1537
 9843SOL    HW230429   0.808   1.231   0.680 -0.5634  1.2693 -0.1493
 9844SOL     OW30430   2.764   2.682   6.258  0.2272 -0.4278 -0.3945
 9844SOL    HW130431   2.759   2.582   6.265 -1.1457 -0.3868 -0.5276
 9844SOL    HW230432   2.788   2.721   6.346 -3.0035 -0.6908  0.7198
 9845SOL     OW30433   3.753   1.036   1.942  0.1629 -0.2054 -0.0110
 9845SOL    HW130434   3.849   1.010   1.935  0.0215 -0.4646 -1.2280
 9845SOL    HW230435   3.719   1.015   2.034  1.1847 -0.3717  0.3402
 9846SOL     OW30436   1.859   2.316   4.097  0.0077 -0.0381  0.4150
 9846SOL    HW130437   1.842   2.245   4.164  0.2133  0.4074  0.9523
 9846SOL    HW230438   1.935   2.289   4.038  1.0655  0.3493  1.5539
 9847SOL     OW30439   1.853   6.574   6.949  1.0101 -0.3512  0.3016
 9847SOL    HW130440   1.822   6.480   6.955  1.3740 -0.3826  2.1107
 9847SOL    HW230441   1.778   6.636   6.973  0.4947 -0.0899 -1.7801
 9848SOL     OW30442   2.533   5.505   5.049  0.1314  0.1805  0.6800
 9848SOL    HW130443   2.537   5.406   5.032  0.8905  0.1018  1.2909
 9848SOL    HW230444   2.599   5.530   5.120 -2.5537  0.5868  3.1980
 9849SOL     OW30445   4.437   4.456   0.353 -0.2821 -0.1675  0.3819
 9849SOL    HW130446   4.409   4.545   0.389 -1.7992 -1.2143  1.9755
 9849SOL    HW230447   4.535   4.444   0.367  0.0053  1.3507 -0.1446
 9850SOL     OW30448   2.284   2.538   6.670 -0.0411 -0.3951 -0.2107
 9850SOL    HW130449   2.367   2.573   6.626  0.2996  0.0182  0.7495
 9850SOL    HW230450   2.294   2.441   6.687 -0.7651 -0.9167 -2.3651
 9851SOL     OW30451   6.229   4.076   4.797 -0.2571 -0.3698  0.1057
 9851SOL    HW130452   6.176   4.116   4.871  0.7009 -0.3478  0.8000
 9851SOL    HW230453   6.168   4.031   4.731 -1.0275 -2.6691  2.2315
 9852SOL     OW30454   4.925   2.729   7.007  0.2047  0.0583  0.0808
 9852SOL    HW130455   4.944   2.826   7.021 -0.2884  0.2457 -0.4932
 9852SOL    HW230456   4.996   2.674   7.051 -0.9993  0.5830  2.8778
 9853SOL     OW30457   5.053   1.275   4.705  0.1446  0.4282  0.1522
 9853SOL    HW130458   5.066   1.316   4.615 -0.3684 -1.6033 -0.9237
 9853SOL    HW230459   5.142   1.254   4.746  0.3839 -0.1949 -0.6664
 9854SOL     OW30460   4.511   0.296   5.824  0.1683 -0.2803  0.2859
 9854SOL    HW130461   4.523   0.206   5.782  0.1269  0.0805 -0.5022
 9854SOL    HW230462   4.417   0.327   5.811  0.5303  0.4739 -0.6520
 9855SOL     OW30463   0.758   2.936   4.700  0.2867  0.0672 -0.6191
 9855SOL    HW130464   0.663   2.967   4.691  0.1827 -0.3105 -0.8484
 9855SOL    HW230465   0.819   3.005   4.660  0.1622  0.6221  0.1231
 9856SOL     OW30466   0.440   2.969   5.293 -0.1662  0.5442  0.2413
 9856SOL    HW130467   0.506   2.902   5.256 -0.1145 -0.1204  1.4865
 9856SOL    HW230468   0.410   2.939   5.383 -1.4139  1.3798  0.1214
 9857SOL     OW30469   6.252   3.093   1.068  0.1776  0.3443  0.2320
 9857SOL    HW130470   6.302   3.037   1.002  2.7774  1.7389  0.8695
 9857SOL    HW230471   6.283   3.072   1.161 -0.0518  1.5918  0.6207
 9858SOL     OW30472   5.695   0.632   0.624 -0.0553  0.1368 -0.0761
 9858SOL    HW130473   5.757   0.558   0.648  1.1310  1.4819  1.2171
 9858SOL    HW230474   5.628   0.645   0.698 -0.2333  0.3852 -0.2784
 9859SOL     OW30475   0.558   5.706   3.181 -0.5200 -0.3647  0.0209
 9859SOL    HW130476   0.628   5.659   3.127 -1.1992 -2.2626  0.7071
 9859SOL    HW230477   0.477   5.721   3.124 -1.0472 -1.9043  0.3265
 9860SOL     OW30478   2.992   5.928   1.125  0.0762  0.1466  0.0250
 9860SOL    HW130479   3.009   5.856   1.192  0.2312  0.6054  0.4774
 9860SOL    HW230480   2.895   5.928   1.101  0.4470 -1.7798 -1.7795
 9861SOL     OW30481   6.698   6.197   5.820 -0.5030  0.2896 -0.2113
 9861SOL    HW130482   6.710   6.283   5.870 -3.1146 -0.5120  2.0391
 9861SOL    HW230483   6.758   6.127   5.859 -2.2520 -0.2302  1.6796
 9862SOL     OW30484   1.043   0.363   1.783 -0.2617  0.5170 -0.3064
 9862SOL    HW130485   1.030   0.276   1.735  0.8433  2.2442 -4.1206
 9862SOL    HW230486   1.140   0.372   1.808 -0.3881  0.6243  0.1457
 9863SOL     OW30487   1.357   1.644   4.035 -0.5134  0.0445  0.0779
 9863SOL    HW130488   1.289   1.612   3.970  0.2198 -3.1107  0.6873
 9863SOL    HW230489   1.323   1.632   4.129  0.1657  0.2407  0.3582
 9864SOL     OW30490   1.423   5.544   5.281  0.0475  0.2132 -0.2641
 9864SOL    HW130491   1.485   5.511   5.209 -1.5290  0.1718 -1.6783
 9864SOL    HW230492   1.348   5.479   5.292  0.7095 -0.2321  2.1085
 9865SOL     OW30493   6.774   4.605   6.991 -0.6952  0.1614 -0.3922
 9865SOL    HW130494   6.745   4.593   6.896  0.0101  1.9036 -0.8663
 9865SOL    HW230495   6.705   4.568   7.052 -0.0562 -3.3552 -1.5507
 9866SOL     OW30496   3.711   6.866   0.250  0.2595 -0.1861  0.2888
 9866SOL    HW130497   3.741   6.826   0.163 -1.2830  0.9503 -0.8273
 9866SOL    HW230498   3.728   6.965   0.248 -1.0420  0.0645  0.7083
 9867SOL     OW30499   1.297   0.972   3.862 -0.2660 -0.2337  0.2088
 9867SOL    HW130500   1.393   0.944   3.867  0.2989  1.4196 -0.5853
 9867SOL    HW230501   1.268   0.974   3.766 -1.1415 -0.8317  0.4540
 9868SOL     OW30502   2.694   3.517   6.200  0.1122 -0.0098  0.2954
 9868SOL    HW130503   2.754   3.439   6.180  0.1859 -0.1739  1.1332
 9868SOL    HW230504   2.616   3.486   6.254  0.7336  0.6716  1.6371
 9869SOL     OW30505   0.041   2.051   6.749  0.5412  0.3179 -0.1100
 9869SOL    HW130506   0.100   1.973   6.770  1.9134  0.6159 -2.4821
 9869SOL    HW230507  -0.047   2.019   6.715  0.0889 -0.1467  1.4348
 9870SOL     OW30508   1.370   5.931   3.848 -0.8945 -0.3291  0.1877
 9870SOL    HW130509   1.307   5.881   3.907 -1.3322  1.0931  0.9780
 9870SOL    HW230510   1.464   5.909   3.873 -1.0710 -1.2749  0.0472
 9871SOL     OW30511   1.376   6.219   4.763 -0.3082 -0.4708 -0.5414
 9871SOL    HW130512   1.414   6.175   4.844  0.4045 -3.2749 -2.2773
 9871SOL    HW230513   1.449   6.242   4.699 -0.9857  0.2733 -1.0810
 9872SOL     OW30514   6.362   4.896   6.191  0.0002  0.1564  0.0604
 9872SOL    HW130515   6.353   4.953   6.273 -0.3830 -1.4845  1.2036
 9872SOL    HW230516   6.272   4.869   6.159  0.1884 -0.0419 -0.3066
 9873SOL     OW30517   4.470   4.847   1.168 -0.3735  0.0116  0.5802
 9873SOL    HW130518   4.376   4.813   1.177  0.0174 -0.9222  1.2291
 9873SOL    HW230519   4.476   4.938   1.208 -1.3477  0.7470 -0.8432
 9874SOL     OW30520   1.660   5.905   4.858  0.0405 -0.0394  0.2725
 9874SOL    HW130521   1.624   5.829   4.912  1.5668 -1.3540 -0.4482
 9874SOL    HW230522   1.760   5.902   4.860  0.2636 -1.0065 -3.5975
 9875SOL     OW30523   3.616   5.882   2.418 -0.0076  0.8559  0.5135
 9875SOL    HW130524   3.680   5.872   2.494  0.9541  2.0324 -0.0928
 9875SOL    HW230525   3.624   5.804   2.357  1.8092  1.5416 -0.2080
 9876SOL     OW30526   4.594   1.930   1.621 -0.3262  0.4682 -0.6725
 9876SOL    HW130527   4.572   1.909   1.716  0.2963  0.8800 -0.4343
 9876SOL    HW230528   4.683   1.891   1.598 -1.0817 -0.8201 -1.5034
 9877SOL     OW30529   5.004   5.003   0.596 -0.1618 -0.3330  0.1488
 9877SOL    HW130530   4.931   4.937   0.610  0.7751 -1.1689  1.3488
 9877SOL    HW230531   4.973   5.094   0.621 -0.5511 -0.8070  1.4626
 9878SOL     OW30532   6.045   2.000   4.449 -0.0074 -0.2114 -0.0171
 9878SOL    HW130533   6.139   1.967   4.445  0.1003 -0.3569  2.2003
 9878SOL    HW230534   5.984   1.932   4.409  0.7544 -0.4802 -0.7385
 9879SOL     OW30535   4.738   5.313   5.418 -0.4438 -0.3634  0.0042
 9879SOL    HW130536   4.670   5.260   5.366 -0.7954 -1.5599  1.6043
 9879SOL    HW230537   4.691   5.383   5.472 -0.2715 -0.3819  0.1766
 9880SOL     OW30538   3.105   5.663   2.529 -0.6837 -0.5299  0.4760
 9880SOL    HW130539   3.143   5.750   2.562 -1.3372 -0.4926  1.1418
 9880SOL    HW230540   3.034   5.631   2.592 -1.4101 -0.8560 -0.4890
 9881SOL     OW30541   3.144   5.518   3.403  0.3784 -0.3359  0.1310
 9881SOL    HW130542   3.102   5.493   3.315  0.5153  0.2021 -0.0919
 9881SOL    HW230543   3.241   5.538   3.388  0.5904 -1.0265  0.5466
 9882SOL     OW30544   4.697   5.631   2.122  0.1905  0.7991  0.2221
 9882SOL    HW130545   4.644   5.630   2.207  0.5383  2.4059  0.4996
 9882SOL    HW230546   4.702   5.725   2.087 -1.4115 -0.0592 -2.5500
 9883SOL     OW30547   5.117   4.141   6.769 -0.3879  0.0788 -0.9228
 9883SOL    HW130548   5.213   4.152   6.742 -0.8113  0.6458 -2.2547
 9883SOL    HW230549   5.107   4.056   6.822  0.9937  0.4646  0.0143
 9884SOL     OW30550   0.640   2.976   0.668 -0.2750 -0.0050 -0.1179
 9884SOL    HW130551   0.562   2.979   0.730  1.0685  0.2776  1.6230
 9884SOL    HW230552   0.646   3.062   0.618  0.3355  0.9988  1.5996
 9885SOL     OW30553   4.524   5.488   6.481  0.0768  0.4124  0.5099
 9885SOL    HW130554   4.582   5.518   6.405  1.6468 -0.1804  1.4133
 9885SOL    HW230555   4.467   5.412   6.451  2.2566 -1.3081  0.4087
 9886SOL     OW30556   3.384   3.165   5.852  0.0009  0.0234  0.0195
 9886SOL    HW130557   3.335   3.240   5.895 -0.4529  0.2215 -0.8153
 9886SOL    HW230558   3.366   3.165   5.753  0.4933 -0.8019 -0.0869
 9887SOL     OW30559   5.303   3.041   4.293  0.7022  0.3736 -0.3330
 9887SOL    HW130560   5.399   3.053   4.268  0.6048  1.6799 -0.1683
 9887SOL    HW230561   5.246   3.096   4.231 -0.1944 -2.2619 -2.0369
 9888SOL     OW30562   1.437   2.231   1.716  0.3361  0.2290 -0.2906
 9888SOL    HW130563   1.365   2.170   1.685  0.5499  0.4798 -1.3423
 9888SOL    HW230564   1.410   2.275   1.802 -1.2853  1.2046 -1.2563
 9889SOL     OW30565   4.615   2.717   0.810 -0.0298 -0.2583 -0.1022
 9889SOL    HW130566   4.712   2.691   0.808  0.8813  2.8098 -1.3543
 9889SOL    HW230567   4.559   2.635   0.798  2.4420 -1.9619 -0.9548
 9890SOL     OW30568   2.672   1.421   4.156 -0.8632  0.3617 -0.1588
 9890SOL    HW130569   2.632   1.330   4.147 -1.4124  0.5172  0.5587
 9890SOL    HW230570   2.622   1.485   4.098  1.4113 -0.2896 -3.1087
 9891SOL     OW30571   4.210   1.945   2.376  0.5667 -0.4435  0.4217
 9891SOL    HW130572   4.197   1.860   2.324  0.4747  0.7392 -1.5943
 9891SOL    HW230573   4.291   1.937   2.433  0.7366 -1.7858  0.0359
 9892SOL     OW30574   1.185   6.184   6.792  0.1402 -0.5637  0.6094
 9892SOL    HW130575   1.147   6.095   6.817 -1.1857  0.0512  0.8778
 9892SOL    HW230576   1.214   6.182   6.696  1.0309 -1.5604  0.8786
 9893SOL     OW30577   5.414   3.642   3.293 -0.1811  0.3279 -0.2029
 9893SOL    HW130578   5.337   3.699   3.321  0.2956  0.8217  0.1213
 9893SOL    HW230579   5.381   3.567   3.235 -1.1747 -0.5319  1.3725
 9894SOL     OW30580   1.757   4.831   6.679  0.0483  0.0310 -0.2066
 9894SOL    HW130581   1.743   4.927   6.653 -1.0102  0.2042  0.9125
 9894SOL    HW230582   1.757   4.824   6.779  2.7298 -0.7767 -0.1754
 9895SOL     OW30583   0.826   3.568   1.493 -0.0803 -0.2468  0.4441
 9895SOL    HW130584   0.822   3.468   1.493 -1.0844 -0.2554 -1.3979
 9895SOL    HW230585   0.910   3.598   1.447  0.8240 -0.1940  2.0440
 9896SOL     OW30586   5.666   1.883   6.481 -0.2993 -0.0307  0.1754
 9896SOL    HW130587   5.677   1.804   6.420 -0.8973  0.3944 -0.4903
 9896SOL    HW230588   5.618   1.855   6.564 -1.4080 -0.1654 -0.4962
 9897SOL     OW30589   5.453   6.873   2.475 -0.4471  0.4010  0.1381
 9897SOL    HW130590   5.530   6.816   2.449 -0.8561 -0.0598 -0.0714
 9897SOL    HW230591   5.445   6.876   2.575 -1.3966 -1.2261  0.1315
 9898SOL     OW30592   6.806   6.866   3.658  0.3872  0.2028  0.3420
 9898SOL    HW130593   6.794   6.962   3.682 -0.2422  0.1198  0.3730
 9898SOL    HW230594   6.739   6.811   3.707  0.6172 -0.2308  0.1737
 9899SOL     OW30595   0.941   1.574   3.976  0.1464  1.0045  0.7937
 9899SOL    HW130596   0.963   1.640   4.048  0.2166  1.3087  0.4924
 9899SOL    HW230597   1.025   1.547   3.928  0.1837  0.3573  1.2021
 9900SOL     OW30598   6.519   4.547   4.002 -0.5420  0.2065  0.0610
 9900SOL    HW130599   6.589   4.598   3.952  1.1262 -0.9685  1.1247
 9900SOL    HW230600   6.482   4.604   4.075  0.6530  0.2228  0.6694
 9901SOL     OW30601   5.394   4.481   6.781  0.1314 -0.6726 -0.6616
 9901SOL    HW130602   5.364   4.387   6.797 -1.8824 -0.0125 -0.2322
 9901SOL    HW230603   5.487   4.493   6.817 -0.0295 -2.1812  0.3770
 9902SOL     OW30604   3.189   3.746   6.283 -0.7689 -0.2485 -0.1930
 9902SOL    HW130605   3.125   3.822   6.292  2.7338  3.0835 -0.7325
 9902SOL    HW230606   3.189   3.692   6.367 -2.3029  1.3363  0.8946
 9903SOL     OW30607   3.071   2.187   5.755 -0.0882  0.0744  0.5544
 9903SOL    HW130608   3.109   2.097   5.778  2.2585  0.8268 -0.0357
 9903SOL    HW230609   3.097   2.253   5.826  0.4229  0.7853 -0.2735
 9904SOL     OW30610   5.292   2.703   6.549 -0.0180 -0.5017 -0.6944
 9904SOL    HW130611   5.374   2.650   6.528  0.8400  0.2466  0.5783
 9904SOL    HW230612   5.261   2.680   6.642 -1.0118 -0.4648 -1.0072
 9905SOL     OW30613   5.940   0.091   1.316  0.1844 -0.6894  0.5374
 9905SOL    HW130614   5.888   0.059   1.237 -2.1164 -1.4315  2.2518
 9905SOL    HW230615   5.982   0.179   1.295 -0.6245 -0.7131 -1.3911
 9906SOL     OW30616   5.635   3.918   3.672  0.4828  0.8849 -0.1965
 9906SOL    HW130617   5.574   3.881   3.742 -2.1859 -0.0406 -2.8281
 9906SOL    HW230618   5.695   3.986   3.713  0.1603 -0.6994  3.2475
 9907SOL     OW30619   4.553   2.092   5.832 -0.3586  0.4599 -0.4618
 9907SOL    HW130620   4.480   2.153   5.801 -0.1657  1.8967  1.6812
 9907SOL    HW230621   4.641   2.139   5.825 -0.2323  0.5796  1.4343
 9908SOL     OW30622   2.331   1.348   3.942 -0.4291  0.3739  0.3096
 9908SOL    HW130623   2.420   1.330   3.900 -0.2623 -1.5533  1.3865
 9908SOL    HW230624   2.323   1.298   4.027 -3.0073 -0.4916 -0.3480
 9909SOL     OW30625   2.018   0.783   1.442  0.3915 -0.0168 -0.3942
 9909SOL    HW130626   1.966   0.837   1.376 -0.0730  0.1535  0.1077
 9909SOL    HW230627   2.009   0.686   1.420 -0.1281  0.0108 -0.3257
 9910SOL     OW30628   5.998   2.538   4.860 -0.3926 -0.0644  0.3461
 9910SOL    HW130629   5.963   2.561   4.951  1.5797  0.2817  1.0565
 9910SOL    HW230630   5.925   2.548   4.793 -1.2343  2.1907  1.5175
 9911SOL     OW30631   5.543   1.842   6.760 -0.0085 -0.3823  0.2610
 9911SOL    HW130632   5.468   1.780   6.786 -0.1478 -0.2434  0.1901
 9911SOL    HW230633   5.629   1.806   6.795  0.0702 -1.1988 -0.7408
 9912SOL     OW30634   3.689   0.444   3.270  0.6063  0.6738  0.0335
 9912SOL    HW130635   3.782   0.472   3.245  0.8201 -0.4847 -0.5262
 9912SOL    HW230636   3.628   0.458   3.193  0.3468  1.2498  0.3382
 9913SOL     OW30637   0.875   2.396   3.570  0.1087  0.5517 -0.8017
 9913SOL    HW130638   0.811   2.470   3.595  0.6524  0.9699 -0.6316
 9913SOL    HW230639   0.896   2.403   3.473 -0.5654  0.0460 -0.9933
 9914SOL     OW30640   1.284   3.411   2.531 -0.0537  0.5912 -0.3123
 9914SOL    HW130641   1.299   3.317   2.564 -0.5967  0.8907  0.8229
 9914SOL    HW230642   1.360   3.438   2.473  2.3360  0.9289  2.7041
 9915SOL     OW30643   0.930   1.795   0.436 -0.4351 -0.4460 -0.4250
 9915SOL    HW130644   0.907   1.739   0.517  0.8926  0.1789  0.4083
 9915SOL    HW230645   0.897   1.888   0.451  0.4748 -0.1464 -0.2727
 9916SOL     OW30646   4.716   1.956   1.305 -0.1547 -0.0300 -0.2770
 9916SOL    HW130647   4.713   2.055   1.321 -4.0413 -0.0983  0.4487
 9916SOL    HW230648   4.762   1.911   1.381 -0.2229  1.0701  0.4379
 9917SOL     OW30649   2.941   5.339   1.903 -0.2509 -0.6569 -0.4831
 9917SOL    HW130650   3.008   5.401   1.943 -1.7550  1.8379 -1.6245
 9917SOL    HW230651   2.931   5.358   1.806 -0.2237 -3.3037 -1.0941
 9918SOL     OW30652   4.514   0.760   5.162  0.5929 -0.5134 -0.3856
 9918SOL    HW130653   4.420   0.754   5.130 -0.1613 -0.4110  1.6854
 9918SOL    HW230654   4.576   0.727   5.090 -1.0604 -1.3760 -1.4736
 9919SOL     OW30655   6.842   3.115   2.622 -0.6064  0.6890  0.0803
 9919SOL    HW130656   6.919   3.155   2.671  0.4725  0.7526 -1.5935
 9919SOL    HW230657   6.853   3.130   2.524 -2.5551  0.3374 -0.2402
 9920SOL     OW30658   4.948   2.692   1.476 -0.8560 -0.6725  0.3790
 9920SOL    HW130659   4.948   2.602   1.433 -0.6769 -1.1476  1.3390
 9920SOL    HW230660   4.870   2.746   1.443 -0.0719 -0.5635 -1.4175
 9921SOL     OW30661   6.240   4.262   2.148 -0.4564 -0.1722  0.5528
 9921SOL    HW130662   6.192   4.302   2.226 -0.8980 -2.1068  1.3190
 9921SOL    HW230663   6.339   4.263   2.166 -0.5328 -0.2732  0.9808
 9922SOL     OW30664   1.403   4.012   5.401  0.2525 -0.2730  0.1224
 9922SOL    HW130665   1.363   4.020   5.309  0.6572 -0.0051 -0.0320
 9922SOL    HW230666   1.380   4.092   5.455 -0.3104 -0.6051  0.3880
 9923SOL     OW30667   1.750   6.159   1.961  0.6652 -0.3860 -0.6647
 9923SOL    HW130668   1.678   6.195   1.901  0.1022 -0.0926  0.1668
 9923SOL    HW230669   1.795   6.235   2.009 -0.1778 -0.7228  0.7059
 9924SOL     OW30670   1.471   6.883   5.605  0.3443 -0.1816  0.2076
 9924SOL    HW130671   1.481   6.858   5.509  0.0283 -1.2654  0.4391
 9924SOL    HW230672   1.486   6.981   5.616  0.0278  0.0165 -0.9972
 9925SOL     OW30673   6.221   6.456   2.470 -0.0845 -0.3253  0.0839
 9925SOL    HW130674   6.194   6.484   2.562  3.4974 -4.1058  2.6219
 9925SOL    HW230675   6.288   6.520   2.434 -0.0578  0.1640  0.9686
 9926SOL     OW30676   0.835   6.598   0.296  0.1247  0.4529 -0.3085
 9926SOL    HW130677   0.932   6.578   0.315 -0.0806 -0.3215 -0.0417
 9926SOL    HW230678   0.814   6.690   0.329  0.1612 -0.2926  1.9702
 9927SOL     OW30679   0.363   3.559   6.620  0.7898  0.1165 -0.0344
 9927SOL    HW130680   0.309   3.519   6.694  0.1492 -0.0497 -0.5905
 9927SOL    HW230681   0.401   3.647   6.650 -0.2048  0.4762  0.1879
 9928SOL     OW30682   1.790   4.993   3.708 -0.0530  0.3054 -0.2105
 9928SOL    HW130683   1.863   5.042   3.661  0.1371  0.8493  0.6257
 9928SOL    HW230684   1.718   4.969   3.642  1.3784 -1.2833 -1.2915
 9929SOL     OW30685   0.312   3.130   4.265 -0.7988 -0.0622  0.1353
 9929SOL    HW130686   0.311   3.220   4.221 -1.0429 -1.2143 -2.4451
 9929SOL    HW230687   0.402   3.115   4.307 -0.0007  0.5968 -1.2522
 9930SOL     OW30688   1.688   0.280   5.835 -0.8491  0.0852 -0.5384
 9930SOL    HW130689   1.784   0.294   5.808 -0.7593  0.5324 -0.0077
 9930SOL    HW230690   1.684   0.211   5.907 -0.9968 -0.4277 -1.0316
 9931SOL     OW30691   4.749   7.010   6.740 -0.5899  0.1710 -0.0474
 9931SOL    HW130692   4.700   7.060   6.812  0.8115  1.1138  0.2811
 9931SOL    HW230693   4.847   7.012   6.758 -0.3160 -0.7423 -1.2852
 9932SOL     OW30694   5.863   6.629   4.501 -0.3245  0.2227  0.3091
 9932SOL    HW130695   5.841   6.638   4.404  1.6112 -3.5555 -0.6744
 9932SOL    HW230696   5.940   6.689   4.523  0.4118 -0.1839 -1.0224
 9933SOL     OW30697   2.623   2.410   3.376  0.2717 -0.1902 -0.2707
 9933SOL    HW130698   2.697   2.361   3.421 -0.2627 -0.0941  0.7349
 9933SOL    HW230699   2.541   2.353   3.376 -0.5145  0.8577  1.4033
 9934SOL     OW30700   0.881   5.332   6.919 -0.3344 -0.3189 -0.6310
 9934SOL    HW130701   0.884   5.366   6.825 -1.9453  0.6222 -0.3906
 9934SOL    HW230702   0.790   5.348   6.956  0.8478  1.2608  1.8059
 9935SOL     OW30703   5.025   6.246   3.901  0.2645  0.1315 -0.8771
 9935SOL    HW130704   5.034   6.147   3.901  2.5200  0.2865 -1.7559
 9935SOL    HW230705   4.932   6.272   3.875 -0.4875 -1.7334 -0.1546
 9936SOL     OW30706   0.618   1.110   6.560 -0.3973  0.1305  0.2102
 9936SOL    HW130707   0.653   1.174   6.492 -0.6902  0.1085  0.0349
 9936SOL    HW230708   0.625   1.017   6.526  0.6905 -0.0054  0.7522
 9937SOL     OW30709   4.110   6.864   5.681  0.0883 -0.0800  0.0538
 9937SOL    HW130710   4.071   6.957   5.677 -0.1927 -0.1845  0.2795
 9937SOL    HW230711   4.148   6.840   5.592 -0.7224 -0.1240 -0.2874
 9938SOL     OW30712   1.148   1.987   4.069  0.1175  0.0898 -0.0421
 9938SOL    HW130713   1.071   1.940   4.111 -1.7172  0.5754 -2.6661
 9938SOL    HW230714   1.197   1.924   4.008  1.1263  0.1176  0.7028
 9939SOL     OW30715   0.175   5.635   0.705  0.0904 -0.6666 -0.5989
 9939SOL    HW130716   0.124   5.688   0.773  0.1454 -0.3391 -0.8086
 9939SOL    HW230717   0.232   5.567   0.751  0.9355  0.2545 -0.2410
 9940SOL     OW30718   3.734   5.464   2.553  0.1931 -0.4497 -0.0215
 9940SOL    HW130719   3.810   5.529   2.542 -2.1765  2.8321  1.3790
 9940SOL    HW230720   3.662   5.488   2.488 -1.1804 -0.9679  1.2718
 9941SOL     OW30721   4.057   2.042   5.967 -0.4239 -0.2404  0.4669
 9941SOL    HW130722   4.115   1.970   5.928  2.5886  2.6524 -0.9415
 9941SOL    HW230723   3.977   2.056   5.909  0.8568 -0.1154 -1.3768
 9942SOL     OW30724   2.433   5.461   3.500 -0.0796  0.0491 -0.4619
 9942SOL    HW130725   2.427   5.403   3.419 -0.1399 -0.0987 -0.3528
 9942SOL    HW230726   2.456   5.554   3.473  2.5042 -0.5095 -0.4524
 9943SOL     OW30727   2.221   1.894   6.188  0.5008  0.1416 -0.5513
 9943SOL    HW130728   2.321   1.889   6.189  0.4555 -1.2963 -0.8627
 9943SOL    HW230729   2.192   1.970   6.130  1.4077  0.2501 -0.8854
 9944SOL     OW30730   6.639   4.998   2.206 -0.0398 -0.4413  0.0091
 9944SOL    HW130731   6.618   4.919   2.148  1.9208 -2.3161  1.6582
 9944SOL    HW230732   6.595   4.986   2.295 -0.1021  0.5836  0.1223
 9945SOL     OW30733   1.653   4.073   4.092  0.4342 -0.2669 -0.2305
 9945SOL    HW130734   1.564   4.117   4.105  0.4252 -0.3758  0.1016
 9945SOL    HW230735   1.725   4.134   4.125  0.5424  0.1184 -1.1580
 9946SOL     OW30736   6.922   1.417   1.227 -0.2784  0.1336  0.5813
 9946SOL    HW130737   6.858   1.340   1.224 -0.0257 -0.1478  1.8747
 9946SOL    HW230738   7.016   1.382   1.225 -0.1660  0.4270  0.7037
 9947SOL     OW30739   3.324   1.346   4.873  0.0183  0.6006  1.1407
 9947SOL    HW130740   3.323   1.321   4.776  3.2268  2.1931  0.5381
 9947SOL    HW230741   3.311   1.265   4.929  1.5936 -1.0003 -0.6699
 9948SOL     OW30742   0.693   1.101   3.760 -0.3209  0.3094  0.0472
 9948SOL    HW130743   0.755   1.100   3.839  0.3856  1.6529 -0.4543
 9948SOL    HW230744   0.747   1.093   3.676 -0.6891  2.3348 -0.4472
 9949SOL     OW30745   1.652   5.377   3.502  0.1102 -0.4386  0.2685
 9949SOL    HW130746   1.616   5.447   3.441  1.6533  0.2813  0.1411
 9949SOL    HW230747   1.623   5.396   3.596 -0.7369 -0.5125  0.0332
 9950SOL     OW30748   6.136   1.375   2.325 -0.0417  0.3374 -0.1255
 9950SOL    HW130749   6.132   1.451   2.261  1.0819  2.7300  2.4350
 9950SOL    HW230750   6.066   1.386   2.395  1.2644  0.0390  1.2789
 9951SOL     OW30751   0.887   1.961   2.715  0.3463  0.0757 -0.1144
 9951SOL    HW130752   0.924   1.932   2.626 -1.1774 -0.7901 -0.4854
 9951SOL    HW230753   0.931   2.047   2.742  1.2228  0.0757 -1.4483
 9952SOL     OW30754   3.984   5.993   0.647  0.3625 -0.1633  0.4084
 9952SOL    HW130755   3.970   6.046   0.730  0.7261  0.2092  0.2385
 9952SOL    HW230756   4.054   5.923   0.663  0.0411 -0.4479  0.5700
 9953SOL     OW30757   0.317   1.445   2.075  0.1250  0.2472  0.1402
 9953SOL    HW130758   0.381   1.432   2.151 -0.4338 -0.1740  0.5541
 9953SOL    HW230759   0.345   1.524   2.021  0.0715  1.0791  1.2810
 9954SOL     OW30760   6.516   4.689   4.227 -0.3344  0.0262  0.3543
 9954SOL    HW130761   6.521   4.683   4.327 -0.9799  0.3865  0.4166
 9954SOL    HW230762   6.607   4.704   4.190 -0.0154 -0.6345  0.8513
 9955SOL     OW30763   5.497   6.449   5.199 -0.3703 -0.5286  0.3970
 9955SOL    HW130764   5.581   6.412   5.239  0.2013 -0.0012 -0.2899
 9955SOL    HW230765   5.516   6.540   5.160 -0.2337 -1.9770 -3.3059
 9956SOL     OW30766   0.229   4.935   3.422  0.0141 -0.1203  0.2275
 9956SOL    HW130767   0.190   4.843   3.416 -0.7390  0.2153 -0.2913
 9956SOL    HW230768   0.295   4.939   3.497  0.7951 -1.3462 -0.3627
 9957SOL     OW30769   3.667   5.643   1.248  0.0644 -0.6656  0.2481
 9957SOL    HW130770   3.605   5.602   1.314  0.2955 -0.5007  0.5681
 9957SOL    HW230771   3.724   5.571   1.207  0.8087 -0.6171  1.1641
 9958SOL     OW30772   1.083   6.477   6.483  0.6898 -0.1977 -0.2527
 9958SOL    HW130773   1.039   6.415   6.418 -1.5954  0.2594  0.7666
 9958SOL    HW230774   1.182   6.460   6.483  0.4631 -1.9040 -1.9941
 9959SOL     OW30775   6.322   1.201   6.072  0.4252 -0.2135 -0.5213
 9959SOL    HW130776   6.368   1.195   5.984  0.6485 -0.7208 -0.3795
 9959SOL    HW230777   6.265   1.283   6.075  0.6146 -0.0575 -1.0374
 9960SOL     OW30778   2.029   6.076   4.997  0.2926 -0.1368 -0.0833
 9960SOL    HW130779   2.020   6.091   5.095  1.3977  0.4891 -0.0668
 9960SOL    HW230780   2.047   6.163   4.951  0.3143 -0.4963 -0.7828
 9961SOL     OW30781   3.514   0.250   3.651  0.3023  0.1504  0.1643
 9961SOL    HW130782   3.543   0.193   3.727  0.9548 -1.5957 -1.3110
 9961SOL    HW230783   3.416   0.270   3.660  0.5151  0.5732  1.7948
 9962SOL     OW30784   0.838   6.093   0.523 -0.3101 -0.0865 -0.5222
 9962SOL    HW130785   0.756   6.052   0.484 -0.4492 -1.3434  1.0079
 9962SOL    HW230786   0.850   6.185   0.485 -2.0429 -0.1320 -1.2757
 9963SOL     OW30787   0.109   2.910   0.555  0.0739  0.0875  0.1543
 9963SOL    HW130788   0.107   2.970   0.476  0.4562  0.0968  0.1506
 9963SOL    HW230789   0.114   2.815   0.524 -0.6910  0.0421  0.1579
 9964SOL     OW30790   2.044   3.961   5.449 -0.3570 -0.6070 -0.1438
 9964SOL    HW130791   1.968   4.005   5.400 -1.2479 -1.3884  0.4996
 9964SOL    HW230792   2.015   3.871   5.481  1.3606 -1.6201 -1.2739
 9965SOL     OW30793   2.757   6.141   1.758  0.2109  0.1949 -0.0851
 9965SOL    HW130794   2.853   6.120   1.779  0.7027  1.4353 -0.9754
 9965SOL    HW230795   2.723   6.073   1.692  0.9378  0.5719 -0.8687
 9966SOL     OW30796   6.513   0.118   5.639  0.5302  0.3397  0.4475
 9966SOL    HW130797   6.583   0.072   5.584  1.6919  1.9945  0.4550
 9966SOL    HW230798   6.544   0.211   5.660 -1.4399  0.9190  0.9569
 9967SOL     OW30799   6.934   5.700   6.250 -0.2335 -0.1235 -0.2613
 9967SOL    HW130800   7.012   5.763   6.253  0.9169 -1.3693 -1.7399
 9967SOL    HW230801   6.961   5.617   6.201 -2.7981 -0.1793 -1.7465
 9968SOL     OW30802   6.944   4.148   5.759  0.1064  0.3810  0.3716
 9968SOL    HW130803   6.979   4.221   5.818  2.5392 -0.3074 -0.1403
 9968SOL    HW230804   6.958   4.059   5.803 -1.9993  0.0761  0.5752
 9969SOL     OW30805   2.421   5.169   6.723  0.1842  0.4440  0.2865
 9969SOL    HW130806   2.419   5.073   6.753  0.7535  1.0921  2.5831
 9969SOL    HW230807   2.328   5.206   6.726  0.2358  0.5166  1.4278
 9970SOL     OW30808   5.080   2.788   0.496 -0.2333 -0.5959  0.0593
 9970SOL    HW130809   5.065   2.857   0.425  0.6768  0.1487  0.5615
 9970SOL    HW230810   5.031   2.705   0.473 -2.2286  0.5426 -0.0647
 9971SOL     OW30811   3.980   5.629   4.099  0.5495  0.0998  0.4792
 9971SOL    HW130812   4.050   5.615   4.168  2.9593  1.8677 -1.4141
 9971SOL    HW230813   3.963   5.543   4.051  2.6802 -0.0727 -0.0735
 9972SOL     OW30814   5.742   4.064   2.720 -0.3181 -0.3046 -0.2670
 9972SOL    HW130815   5.830   4.111   2.716 -0.3183 -0.2198  0.5034
 9972SOL    HW230816   5.676   4.122   2.767 -1.0876  0.0775 -1.7753
 9973SOL     OW30817   0.614   5.293   1.810  0.3437 -0.1514  0.3416
 9973SOL    HW130818   0.694   5.335   1.854  0.2859  0.2547  0.0647
 9973SOL    HW230819   0.531   5.325   1.854  0.3420 -1.0268  1.0173
 9974SOL     OW30820   2.717   5.960   1.099 -0.2235 -0.0940 -0.4986
 9974SOL    HW130821   2.728   6.049   1.055 -0.8435  0.7090  0.8965
 9974SOL    HW230822   2.647   5.907   1.051 -0.3672  0.4678 -0.9166
 9975SOL     OW30823   5.269   6.056   3.569  0.1084  0.0498  0.7956
 9975SOL    HW130824   5.252   6.019   3.661  2.2880  0.8905  1.6129
 9975SOL    HW230825   5.368   6.058   3.552 -0.2538 -0.6979 -1.8690
 9976SOL     OW30826   6.073   1.969   5.871 -0.3053  0.3567 -0.4934
 9976SOL    HW130827   5.991   1.955   5.814  1.1367 -1.5155 -2.2454
 9976SOL    HW230828   6.093   2.066   5.875 -0.5929  0.6132 -3.1075
 9977SOL     OW30829   1.412   4.391   4.308 -0.0027 -0.4437 -0.2113
 9977SOL    HW130830   1.319   4.360   4.324 -0.0501 -0.4174 -0.4290
 9977SOL    HW230831   1.419   4.489   4.329  0.2705 -0.7010  0.9716
 9978SOL     OW30832   2.442   5.039   4.817 -0.4602 -0.1328 -0.0603
 9978SOL    HW130833   2.511   5.022   4.747 -1.0028 -0.5107 -0.5203
 9978SOL    HW230834   2.483   5.033   4.908  0.4729  1.3323 -0.3443
 9979SOL     OW30835   6.169   4.418   3.016  0.1660  0.0977  0.0150
 9979SOL    HW130836   6.249   4.464   2.977  1.1661 -0.9844  0.7567
 9979SOL    HW230837   6.190   4.322   3.032 -1.0785 -0.0541  0.8325
 9980SOL     OW30838   2.947   0.705   0.406  0.3348 -0.5216  0.3218
 9980SOL    HW130839   3.015   0.772   0.436 -0.3284 -0.0474  0.7896
 9980SOL    HW230840   2.908   0.733   0.319  1.6501 -1.4625 -0.6070
 9981SOL     OW30841   1.665   3.797   5.813 -0.4071  0.2108 -0.6883
 9981SOL    HW130842   1.684   3.747   5.898 -1.5439  0.9244  0.0137
 9981SOL    HW230843   1.568   3.789   5.791 -0.3012  0.8391 -1.3981
 9982SOL     OW30844   0.287   2.171   0.481  0.2276 -0.2708  0.1420
 9982SOL    HW130845   0.358   2.137   0.418 -1.5788 -1.5201 -1.3548
 9982SOL    HW230846   0.268   2.101   0.550 -0.0053 -0.2483  0.1031
 9983SOL     OW30847   3.415   2.802   1.535 -0.0986  0.3236  0.0682
 9983SOL    HW130848   3.317   2.807   1.516  0.3199  0.7254 -2.2989
 9983SOL    HW230849   3.442   2.707   1.551 -0.9166  0.2581  1.1293
 9984SOL     OW30850   1.987   4.294   3.293  0.1619  0.5225 -0.0901
 9984SOL    HW130851   2.072   4.307   3.242  0.8696 -0.2981  0.8421
 9984SOL    HW230852   1.920   4.248   3.235  1.1777 -0.9957 -0.0977
 9985SOL     OW30853   4.014   4.748   2.152 -0.1978  0.2163  0.7293
 9985SOL    HW130854   3.941   4.701   2.202  0.2895 -2.4152 -0.8135
 9985SOL    HW230855   3.975   4.818   2.093 -1.7254 -1.8174 -0.8385
 9986SOL     OW30856   5.970   6.445   1.587  0.0621  0.5445  0.0827
 9986SOL    HW130857   5.881   6.456   1.541  0.9158  1.1468 -1.4924
 9986SOL    HW230858   6.043   6.451   1.519  1.2885 -0.8089  1.2272
 9987SOL     OW30859   5.465   6.026   0.993 -1.0517  0.1647  0.1440
 9987SOL    HW130860   5.550   6.024   1.046 -1.0857 -0.9937  0.1875
 9987SOL    HW230861   5.393   5.979   1.045 -1.5105  0.4560 -0.2273
 9988SOL     OW30862   3.011   3.830   2.955 -0.5982 -0.3007  0.0066
 9988SOL    HW130863   3.028   3.860   2.861 -3.0127  1.1812 -0.0266
 9988SOL    HW230864   2.989   3.733   2.956  0.2134 -0.5039 -0.8371
 9989SOL     OW30865   4.087   0.919   5.304  0.0518  0.2930  0.0375
 9989SOL    HW130866   4.005   0.959   5.262 -1.8655 -1.6310  1.7074
 9989SOL    HW230867   4.119   0.978   5.378 -0.3387  0.6536 -0.0807
 9990SOL     OW30868   4.350   3.065   6.425  0.2559  0.5177 -0.4726
 9990SOL    HW130869   4.443   3.102   6.425 -0.0383  1.2759 -0.5085
 9990SOL    HW230870   4.331   3.023   6.336  0.3411  0.9577 -0.7016
 9991SOL     OW30871   0.526   4.132   6.672 -0.3317  0.7788 -0.2077
 9991SOL    HW130872   0.428   4.133   6.656 -0.5871  0.4304  1.2601
 9991SOL    HW230873   0.573   4.162   6.589 -1.6777  1.2998 -0.8094
 9992SOL     OW30874   0.773   3.031   1.605  0.2685 -0.0339 -0.0546
 9992SOL    HW130875   0.748   3.092   1.680  1.5322  2.1099 -1.2743
 9992SOL    HW230876   0.770   2.936   1.637 -1.5390  0.6191  1.9914
 9993SOL     OW30877   5.482   5.741   3.483 -0.1529  0.6035  0.0542
 9993SOL    HW130878   5.517   5.809   3.418 -0.2429 -0.0718 -0.7177
 9993SOL    HW230879   5.558   5.703   3.535  0.0609  0.3515 -0.4361
 9994SOL     OW30880   5.645   2.075   3.561  0.0691 -0.4157  0.6287
 9994SOL    HW130881   5.743   2.088   3.544  0.2260 -0.9975  1.0686
 9994SOL    HW230882   5.596   2.160   3.538  0.6061 -0.2802 -0.0593
 9995SOL     OW30883   2.078   6.193   2.748 -0.2468  0.0506  0.3366
 9995SOL    HW130884   2.123   6.168   2.662 -1.4141 -1.1046  0.0227
 9995SOL    HW230885   2.143   6.184   2.823 -0.1269 -2.5453  0.0284
 9996SOL     OW30886   5.431   6.620   5.609 -0.1755 -0.2505 -0.7208
 9996SOL    HW130887   5.527   6.592   5.602 -0.1248 -0.2072 -0.2395
 9996SOL    HW230888   5.377   6.572   5.540 -0.1576 -1.8227  0.3090
 9997SOL     OW30889   4.414   0.667   0.530 -0.3214  0.0060 -0.2081
 9997SOL    HW130890   4.425   0.573   0.563 -0.1539  0.3840  0.8650
 9997SOL    HW230891   4.318   0.693   0.535 -0.0833  0.7047  1.9263
 9998SOL     OW30892   0.582   3.058   1.350  0.1102 -0.3789  0.2422
 9998SOL    HW130893   0.556   2.979   1.294 -0.3320 -0.6737  0.8483
 9998SOL    HW230894   0.655   3.031   1.413  1.6108  0.3154 -1.1087
 9999SOL     OW30895   4.054   1.907   5.315 -0.2377 -0.1600 -0.1394
 9999SOL    HW130896   4.015   1.831   5.366  2.0855 -0.7750  0.8897
 9999SOL    HW230897   4.055   1.989   5.373 -0.2491 -0.0892 -0.2400
10000SOL     OW30898   0.311   6.642   0.937 -0.6309  0.1659 -0.3399
10000SOL    HW130899   0.297   6.738   0.913 -0.3091  0.1328 -0.6764
10000SOL    HW230900   0.315   6.632   1.036  0.1814  0.6244 -0.3140
10001SOL     OW30901   3.863   0.532   5.976 -0.1688  0.1218 -0.6070
10001SOL    HW130902   3.833   0.566   6.066 -3.1705 -0.2215 -1.3643
10001SOL    HW230903   3.898   0.439   5.986 -1.8746 -0.5022  0.0902
10002SOL     OW30904   3.171   6.643   1.098  0.1193 -0.3942  0.2559
10002SOL    HW130905   3.245   6.624   1.034 -2.0658 -0.2236 -2.4922
10002SOL    HW230906   3.129   6.557   1.128  1.0953 -0.4710  1.4519
10003SOL     OW30907   1.147   4.679   6.112 -0.1856  0.2950 -0.2758
10003SOL    HW130908   1.143   4.580   6.130 -0.8268  0.3269 -0.2049
10003SOL    HW230909   1.233   4.716   6.146  0.5104 -0.4144 -1.2061
10004SOL     OW30910   6.236   0.356   6.999  0.3246 -0.9137 -0.4832
10004SOL    HW130911   6.324   0.396   7.022 -0.0680 -0.7314  0.7508
10004SOL    HW230912   6.211   0.383   6.906  0.2296  1.4829  0.1650
10005SOL     OW30913   6.055   3.934   5.538 -0.5744 -0.1788 -0.4695
10005SOL    HW130914   6.027   3.898   5.627 -1.4518  2.5363  0.4466
10005SOL    HW230915   6.015   4.024   5.524  1.4839  0.5128 -2.6120
10006SOL     OW30916   1.235   4.982   3.418  0.2374 -0.4769 -0.7063
10006SOL    HW130917   1.195   4.899   3.379  1.3104 -0.9729 -0.7836
10006SOL    HW230918   1.319   5.005   3.369  1.3478 -0.8295  0.9580
10007SOL     OW30919   6.208   6.089   5.560 -0.2756 -0.7567 -0.1153
10007SOL    HW130920   6.255   6.014   5.608  0.0787  0.2942  1.2492
10007SOL    HW230921   6.266   6.170   5.560 -1.5183  0.1702  0.3797
10008SOL     OW30922   4.747   6.178   0.236 -0.0200  0.2662  0.5358
10008SOL    HW130923   4.833   6.140   0.202  0.1839  1.0698  0.1214
10008SOL    HW230924   4.677   6.168   0.165  0.2504  1.3974  0.0884
10009SOL     OW30925   5.754   4.874   4.573  0.3207 -0.0543 -0.2472
10009SOL    HW130926   5.840   4.863   4.623  1.4838  1.3655 -1.8556
10009SOL    HW230927   5.691   4.930   4.627 -0.1850 -2.1639  1.5225
10010SOL     OW30928   3.047   4.467   1.232  0.0077 -0.1249 -0.0889
10010SOL    HW130929   3.015   4.540   1.292 -0.0767 -0.1042 -0.1594
10010SOL    HW230930   2.975   4.442   1.167  0.1595 -0.0178 -0.3028
10011SOL     OW30931   3.297   5.389   6.619 -0.4262  0.1494 -0.6234
10011SOL    HW130932   3.350   5.326   6.676 -1.3542  0.5472  0.7447
10011SOL    HW230933   3.335   5.481   6.629 -0.7695  0.2704 -0.3885
10012SOL     OW30934   6.799   2.272   1.479  0.4068  0.2157 -0.0325
10012SOL    HW130935   6.881   2.311   1.437 -0.3828  0.7746 -1.0907
10012SOL    HW230936   6.826   2.220   1.560  1.9337 -0.6192 -1.0169
10013SOL     OW30937   3.963   2.135   2.952  0.4401 -0.4051  0.0524
10013SOL    HW130938   4.023   2.103   3.026 -0.5472 -0.5546  0.8164
10013SOL    HW230939   3.871   2.099   2.967 -0.2362  1.1639 -0.1564
10014SOL     OW30940   4.720   0.339   5.360  0.4899  0.4542  0.0065
10014SOL    HW130941   4.623   0.321   5.347  0.6932 -1.5937  0.9259
10014SOL    HW230942   4.748   0.307   5.450  1.8785  1.7050  0.0574
10015SOL     OW30943   4.617   6.305   0.595 -0.8212 -0.6525  0.0673
10015SOL    HW130944   4.519   6.295   0.608 -1.2365  0.8859 -1.4709
10015SOL    HW230945   4.659   6.337   0.680 -1.8120 -0.3579  0.4562
10016SOL     OW30946   4.955   0.153   1.296 -0.0863  0.3090 -0.2142
10016SOL    HW130947   4.896   0.229   1.268 -1.1239  0.1700  1.5046
10016SOL    HW230948   4.965   0.090   1.219 -0.4955  1.3822 -1.1778
10017SOL     OW30949   5.169   5.384   2.034 -0.2013 -0.3866 -0.1478
10017SOL    HW130950   5.082   5.415   2.074 -0.3201  0.8797 -1.3122
10017SOL    HW230951   5.152   5.311   1.968 -0.3506 -0.3099 -0.1934
10018SOL     OW30952   1.985   6.888   1.039  0.0503  0.0490 -0.0953
10018SOL    HW130953   1.951   6.799   1.011 -1.4117  0.8361 -0.9080
10018SOL    HW230954   2.034   6.879   1.126  1.7406 -1.8566 -1.1657
10019SOL     OW30955   3.660   0.165   3.133 -0.4549 -0.6207 -0.1958
10019SOL    HW130956   3.734   0.227   3.160 -0.3587 -0.6774 -0.3279
10019SOL    HW230957   3.595   0.214   3.075  0.2443 -0.9504 -1.2845
10020SOL     OW30958   1.076   0.195   3.991 -0.2924 -0.2996  0.1500
10020SOL    HW130959   1.094   0.286   4.027 -0.8112  0.1332 -0.6631
10020SOL    HW230960   0.998   0.154   4.040 -2.1649  1.0010 -1.6148
10021SOL     OW30961   2.435   6.267   5.799 -0.3097  0.1982 -0.0371
10021SOL    HW130962   2.352   6.236   5.846 -0.2762  1.9465  1.3047
10021SOL    HW230963   2.508   6.200   5.812 -0.6506  0.0856  1.4684
10022SOL     OW30964   3.038   0.150   3.163  0.1464  0.5838  0.1122
10022SOL    HW130965   2.948   0.188   3.141 -0.0967  0.0524  0.1745
10022SOL    HW230966   3.046   0.059   3.122  1.6564  1.6519 -2.1561
10023SOL     OW30967   0.377   2.126   0.208 -0.7757  0.4225 -0.1198
10023SOL    HW130968   0.326   2.048   0.245  0.7372 -0.7609 -0.4365
10023SOL    HW230969   0.346   2.146   0.115 -0.0483 -0.9169 -0.6776
10024SOL     OW30970   2.094   4.000   6.326  0.1547  0.2259 -0.1443
10024SOL    HW130971   2.189   3.975   6.306  0.2603  0.4888  0.0137
10024SOL    HW230972   2.074   4.089   6.285 -0.0901  0.0760 -0.3556
10025SOL     OW30973   5.180   2.083   5.693 -0.4128 -0.6824 -0.2283
10025SOL    HW130974   5.195   2.001   5.639 -3.6394 -0.5946 -1.5104
10025SOL    HW230975   5.233   2.078   5.778  1.2496 -2.9571 -1.3032
10026SOL     OW30976   6.964   0.747   0.511 -0.0173  0.4052  0.1861
10026SOL    HW130977   6.985   0.773   0.416 -0.0343  0.6011  0.2352
10026SOL    HW230978   6.894   0.676   0.511  0.8122 -0.4303  0.0104
10027SOL     OW30979   0.500   5.084   0.185 -0.0788 -0.3007  0.2579
10027SOL    HW130980   0.495   5.103   0.283 -0.6078 -0.2392  0.2181
10027SOL    HW230981   0.595   5.096   0.154  0.3541 -1.5482  1.0050
10028SOL     OW30982   4.091   3.487   0.783  0.4797  0.2019 -0.0148
10028SOL    HW130983   4.020   3.462   0.717 -0.7806  0.7050  1.1162
10028SOL    HW230984   4.143   3.565   0.747 -0.0869  0.3711 -0.4919
10029SOL     OW30985   1.630   6.142   0.263 -0.3400 -0.4130  0.1418
10029SOL    HW130986   1.606   6.059   0.314 -0.2492  1.1984  3.0199
10029SOL    HW230987   1.625   6.123   0.165 -4.2049 -2.7633  0.5659
10030SOL     OW30988   6.160   3.774   3.742 -0.5201  0.2232 -0.7868
10030SOL    HW130989   6.135   3.821   3.827  1.4133  1.7593 -0.9876
10030SOL    HW230990   6.209   3.690   3.763 -0.9491  0.0704 -0.3942
10031SOL     OW30991   0.156   3.056   3.405 -0.2666  0.2185  0.4493
10031SOL    HW130992   0.120   2.993   3.336 -0.1094  1.2260 -0.5764
10031SOL    HW230993   0.081   3.110   3.443 -0.6640 -1.6840  2.5414
10032SOL     OW30994   4.054   0.426   2.843  0.0726  0.5162  0.8216
10032SOL    HW130995   3.957   0.443   2.832 -0.0441 -0.1039  0.8301
10032SOL    HW230996   4.102   0.444   2.757 -0.4831 -1.9655 -0.1124
10033SOL     OW30997   0.122   5.187   0.263  0.5391 -0.2807 -0.9130
10033SOL    HW130998   0.086   5.167   0.172  0.2441 -1.9035 -0.4678
10033SOL    HW230999   0.068   5.260   0.305 -1.8550 -2.1199 -0.5620
10034SOL     OW31000   3.492   3.579   5.702  0.2038  0.1392 -0.0211
10034SOL    HW131001   3.549   3.638   5.759  1.9307 -1.0744 -0.4276
10034SOL    HW231002   3.416   3.543   5.757 -0.0327  1.5354  0.6149
10035SOL     OW31003   5.880   3.731   5.438  0.4566  0.5072 -0.0121
10035SOL    HW131004   5.902   3.807   5.376  0.4859  0.6626  0.1894
10035SOL    HW231005   5.908   3.754   5.531  0.4734  0.2445  0.0481
10036SOL     OW31006   5.793   1.922   4.680  0.1642 -0.1751  0.5610
10036SOL    HW131007   5.709   1.972   4.658  1.4426  2.6926  1.7661
10036SOL    HW231008   5.792   1.897   4.777  0.0655 -1.5580  0.2284
10037SOL     OW31009   4.315   6.673   4.836 -0.8269  0.2231 -0.2449
10037SOL    HW131010   4.243   6.734   4.870  0.5781  0.5339  2.4032
10037SOL    HW231011   4.397   6.726   4.816 -0.5510 -0.4433 -0.9357
10038SOL     OW31012   4.937   4.505   3.991  0.3829  0.5787  0.5701
10038SOL    HW131013   4.955   4.484   4.087  0.8652  1.5373  0.6955
10038SOL    HW231014   4.842   4.481   3.969 -0.4010  2.3166  1.8518
10039SOL     OW31015   3.834   5.616   2.819 -0.3659  0.3847  0.2328
10039SOL    HW131016   3.758   5.681   2.826 -1.0381 -0.1119 -1.8155
10039SOL    HW231017   3.891   5.639   2.740  1.0558  0.1280  1.1381
10040SOL     OW31018   3.994   0.092   5.646 -0.3571 -0.1945 -0.5056
10040SOL    HW131019   4.032   0.095   5.554  0.9144 -2.0021 -0.0878
10040SOL    HW231020   4.011   0.180   5.691  0.1459  0.2608 -1.5485
10041SOL     OW31021   5.965   6.113   3.335  0.1000 -0.0781 -0.4219
10041SOL    HW131022   5.971   6.091   3.432 -3.5445 -0.1378 -0.0782
10041SOL    HW231023   5.899   6.187   3.321 -2.2811 -2.4425 -3.0169
10042SOL     OW31024   5.956   4.055   4.227 -0.2491  0.2515  0.0139
10042SOL    HW131025   5.973   3.958   4.250  0.6882  0.5554  0.6937
10042SOL    HW231026   6.041   4.106   4.237 -0.9001  1.2907  0.3792
10043SOL     OW31027   6.526   2.175   3.616  0.2131 -0.2722 -0.1990
10043SOL    HW131028   6.448   2.199   3.559  0.3603  0.0857 -0.2475
10043SOL    HW231029   6.609   2.217   3.579  0.0920  1.2252  1.1139
10044SOL     OW31030   5.995   4.123   2.482 -0.1456 -0.5739  0.2345
10044SOL    HW131031   6.056   4.185   2.432 -2.3590  2.9571  1.5398
10044SOL    HW231032   6.018   4.125   2.579 -0.1580 -2.0041  0.2842
10045SOL     OW31033   3.879   5.465   3.350  0.3993 -0.3837 -0.3660
10045SOL    HW131034   3.969   5.452   3.309 -0.4031  0.2200 -2.4195
10045SOL    HW231035   3.883   5.442   3.447  2.2850 -2.2539 -0.8260
10046SOL     OW31036   2.360   4.738   2.583 -0.5523  0.7278 -0.6084
10046SOL    HW131037   2.356   4.695   2.674 -0.6373 -1.0414 -1.4035
10046SOL    HW231038   2.446   4.789   2.574 -0.0352  0.0211  0.1028
10047SOL     OW31039   1.980   4.671   2.932 -0.2384 -0.0414 -0.1583
10047SOL    HW131040   2.030   4.750   2.895 -2.5495  0.8659 -1.5531
10047SOL    HW231041   1.923   4.701   3.008  1.4132 -1.1129  1.5714
10048SOL     OW31042   1.998   0.050   5.665  0.3796  0.3599 -0.0418
10048SOL    HW131043   2.013  -0.030   5.723 -0.5299 -0.3220 -0.7110
10048SOL    HW231044   2.033   0.132   5.710  0.2473 -0.2449  1.1873
10049SOL     OW31045   0.229   2.134   3.421  0.2415 -0.0624 -0.2187
10049SOL    HW131046   0.297   2.152   3.351 -0.4969  0.7871 -0.7311
10049SOL    HW231047   0.235   2.038   3.449  0.8787 -0.2831 -1.0666
10050SOL     OW31048   5.917   4.185   4.683  0.2449  0.1191  0.6139
10050SOL    HW131049   5.994   4.244   4.657  0.1970  0.2343  0.7327
10050SOL    HW231050   5.938   4.090   4.660 -0.0643  0.2993 -0.4576
10051SOL     OW31051   6.690   2.464   3.544 -0.0852 -0.6137 -0.1853
10051SOL    HW131052   6.680   2.504   3.453 -1.6695 -0.6070 -0.0326
10051SOL    HW231053   6.785   2.475   3.575  0.1560  0.5895 -1.2629
10052SOL     OW31054   4.084   4.618   0.937  0.0922  0.0333  0.0714
10052SOL    HW131055   3.984   4.616   0.936  0.0332  1.9024 -1.1501
10052SOL    HW231056   4.119   4.545   0.879 -0.6320  0.7401 -1.3006
10053SOL     OW31057   6.713   0.759   1.108 -0.0201 -0.3176  0.1118
10053SOL    HW131058   6.794   0.700   1.114  1.0302  1.0880  0.1916
10053SOL    HW231059   6.642   0.711   1.056  1.4327 -0.9879 -1.3925
10054SOL     OW31060   5.381   4.885   1.328 -0.2610 -0.0937  0.3827
10054SOL    HW131061   5.374   4.786   1.318  0.6370 -0.3437  1.9031
10054SOL    HW231062   5.419   4.907   1.418  0.5230  1.6078 -0.3213
10055SOL     OW31063   1.078   0.134   3.489  0.4065  0.7373  0.1250
10055SOL    HW131064   1.081   0.227   3.452 -1.2312  0.7291 -0.1113
10055SOL    HW231065   1.039   0.137   3.582  1.8232  0.4384  0.7595
10056SOL     OW31066   1.856   3.312   2.242 -1.0063 -0.1639  0.4863
10056SOL    HW131067   1.887   3.390   2.295  0.8793 -0.8131  0.4208
10056SOL    HW231068   1.923   3.291   2.171 -0.9089 -2.4880  1.1746
10057SOL     OW31069   3.353   2.674   6.611  0.0672 -0.4339  0.1677
10057SOL    HW131070   3.382   2.703   6.520 -0.4608  1.4002  0.5444
10057SOL    HW231071   3.418   2.708   6.679  0.6108 -2.0302  0.4788
10058SOL     OW31072   3.103   3.370   2.724 -0.2705 -0.1602  0.3247
10058SOL    HW131073   3.169   3.404   2.657  0.5346 -0.5799  0.8756
10058SOL    HW231074   3.101   3.432   2.803 -1.0115  0.1871  0.0390
10059SOL     OW31075   3.025   2.241   2.828  0.2828  0.2962  0.0093
10059SOL    HW131076   2.940   2.232   2.776  0.3036 -1.4443  0.1968
10059SOL    HW231077   3.006   2.289   2.914 -0.4570  0.1745 -0.0732
10060SOL     OW31078   0.588   1.607   6.984 -0.3116  0.0545  0.3886
10060SOL    HW131079   0.587   1.556   6.898 -1.2435  0.5981  0.0678
10060SOL    HW231080   0.626   1.698   6.968 -0.4607  0.1456  0.5527
10061SOL     OW31081   4.189   3.770   1.814  0.0567  0.2833  0.4936
10061SOL    HW131082   4.141   3.804   1.895  0.8759  2.2210  0.2079
10061SOL    HW231083   4.183   3.838   1.741  2.1633  0.0392  0.0395
10062SOL     OW31084   5.844   3.763   0.866 -0.1512 -0.5337 -0.2349
10062SOL    HW131085   5.915   3.812   0.815 -0.4283 -0.2456 -0.3471
10062SOL    HW231086   5.790   3.707   0.802  0.0494 -0.8494 -0.1324
10063SOL     OW31087   2.393   4.081   0.172 -0.1268 -0.8506 -0.1329
10063SOL    HW131088   2.471   4.026   0.203  0.2568 -0.1189  0.2198
10063SOL    HW231089   2.424   4.147   0.104 -0.5848 -1.0464 -0.5395
10064SOL     OW31090   3.461   0.806   3.926 -0.7703  0.2874  0.4397
10064SOL    HW131091   3.450   0.903   3.902  0.7505  1.0439  2.4339
10064SOL    HW231092   3.463   0.751   3.843 -0.9939  2.0489 -0.7890
10065SOL     OW31093   6.005   4.268   5.816 -0.2849 -0.1002  0.3017
10065SOL    HW131094   6.100   4.269   5.786 -0.7938  1.2231 -1.4229
10065SOL    HW231095   5.951   4.328   5.757 -2.8095 -3.1799 -0.7514
10066SOL     OW31096   5.125   6.438   0.098  0.4305 -0.6534  0.1377
10066SOL    HW131097   5.115   6.501   0.020 -0.8574 -2.9197 -1.6642
10066SOL    HW231098   5.035   6.422   0.139  0.8837 -0.6291  1.1479
10067SOL     OW31099   1.102   5.170   5.984 -0.0621 -0.2668  0.0242
10067SOL    HW131100   1.055   5.085   6.009  2.1755 -1.3338  0.8697
10067SOL    HW231101   1.198   5.165   6.012  0.3949  2.1608 -0.8289
10068SOL     OW31102   0.004   6.002   2.296  0.1015 -0.1351 -0.2548
10068SOL    HW131103  -0.005   5.921   2.353  3.7253 -0.8682 -0.4731
10068SOL    HW231104   0.004   5.975   2.200  3.4240 -0.3839 -0.3208
10069SOL     OW31105   5.093   2.973   1.325 -0.4077  0.3039  1.0683
10069SOL    HW131106   5.027   2.917   1.274  0.7975 -0.6803  0.5273
10069SOL    HW231107   5.064   2.978   1.421 -0.1803 -1.9658  1.3261
10070SOL     OW31108   4.016   5.902   6.198 -0.0320  0.5091  0.7642
10070SOL    HW131109   4.023   5.999   6.173 -0.4997  0.4091  0.2331
10070SOL    HW231110   4.075   5.848   6.139 -1.1221  0.2757 -0.1466
10071SOL     OW31111   6.778   3.685   6.570 -0.3025  0.4783  0.1543
10071SOL    HW131112   6.706   3.674   6.501  2.8171  0.1382 -3.3732
10071SOL    HW231113   6.777   3.608   6.633 -0.9944 -1.2633 -1.8800
10072SOL     OW31114   3.476   6.556   6.082 -0.4627  0.2791  0.2318
10072SOL    HW131115   3.380   6.580   6.092 -0.6615  0.4751 -1.6645
10072SOL    HW231116   3.485   6.465   6.042  0.0814  0.6681 -0.5852
10073SOL     OW31117   0.882   3.533   3.416 -0.1322 -0.1473 -0.2659
10073SOL    HW131118   0.913   3.614   3.466 -0.2283  0.5495 -1.2870
10073SOL    HW231119   0.843   3.562   3.328 -0.4018 -1.2910 -0.5353
10074SOL     OW31120   6.748   6.085   6.327  0.0708  0.3321 -0.3431
10074SOL    HW131121   6.656   6.079   6.289  0.2913  0.6566 -0.9526
10074SOL    HW231122   6.750   6.150   6.402 -0.3383 -0.1932  0.1338
10075SOL     OW31123   4.751   1.699   4.655  0.3068 -0.0712  0.0357
10075SOL    HW131124   4.787   1.785   4.621 -0.5863  0.2788 -0.0589
10075SOL    HW231125   4.697   1.655   4.583 -1.1029  0.3847  0.7827
10076SOL     OW31126   5.193   1.190   5.936  0.1704 -0.4189 -0.9440
10076SOL    HW131127   5.131   1.221   5.865 -1.1409 -1.6280 -0.3770
10076SOL    HW231128   5.217   1.094   5.921  1.6998 -0.0599 -0.9873
10077SOL     OW31129   2.480   4.498   6.081 -0.4982 -0.2067  0.1748
10077SOL    HW131130   2.450   4.483   5.987  1.0261  0.5804 -0.4704
10077SOL    HW231131   2.536   4.420   6.111  0.4540  0.3241 -0.1979
10078SOL     OW31132   5.838   0.596   0.999  0.4729  0.0412 -0.9259
10078SOL    HW131133   5.738   0.593   1.006  0.3517  0.4865 -2.2797
10078SOL    HW231134   5.877   0.601   1.091 -0.7650  0.4306 -0.3965
10079SOL     OW31135   2.163   2.696   0.431 -0.7127  0.1324  0.1020
10079SOL    HW131136   2.176   2.601   0.462  1.3290  0.5614  0.7318
10079SOL    HW231137   2.202   2.758   0.499  1.0828  1.2552 -1.8348
10080SOL     OW31138   4.853   3.907   0.636 -0.1496  0.5977 -0.3464
10080SOL    HW131139   4.828   3.949   0.549  1.1399 -0.0082 -1.0416
10080SOL    HW231140   4.771   3.895   0.692 -1.1772  0.0383 -1.9057
10081SOL     OW31141   1.735   3.959   3.114 -0.4539  0.1471  0.1148
10081SOL    HW131142   1.677   3.885   3.079 -1.7697  1.0422  0.3267
10081SOL    HW231143   1.791   3.995   3.041 -0.9631 -0.0209 -0.3653
10082SOL     OW31144   1.829   4.552   0.787  0.1358 -0.3297 -0.0155
10082SOL    HW131145   1.849   4.477   0.850  0.8407 -1.7561 -1.8422
10082SOL    HW231146   1.800   4.514   0.698  0.6214  1.5508 -1.0304
10083SOL     OW31147   0.417   3.427   3.664  0.2334  0.2952 -0.0270
10083SOL    HW131148   0.354   3.351   3.680  0.4307  0.0333 -0.4946
10083SOL    HW231149   0.506   3.406   3.704  0.2901  0.2807 -0.1617
10084SOL     OW31150   5.453   6.252   2.173  0.0899  0.2424  0.7500
10084SOL    HW131151   5.420   6.315   2.243  0.3971 -0.0338  1.1444
10084SOL    HW231152   5.466   6.303   2.087  1.3465  0.9692  1.3368
10085SOL     OW31153   2.110   4.884   1.662 -0.0422 -1.1758  0.6095
10085SOL    HW131154   2.136   4.952   1.593  0.0930 -0.9393  0.8915
10085SOL    HW231155   2.095   4.930   1.750 -1.1172 -1.3541  0.5234
10086SOL     OW31156   1.132   5.376   5.051 -0.4037  0.5295 -0.5193
10086SOL    HW131157   1.127   5.420   5.141  0.8678 -0.4371  0.0649
10086SOL    HW231158   1.058   5.409   4.993 -1.4958  0.8847  1.0203
10087SOL     OW31159   2.478   6.424   0.985 -0.6082  0.7114  0.5257
10087SOL    HW131160   2.396   6.395   1.035 -0.0632 -2.4922 -0.2297
10087SOL    HW231161   2.558   6.409   1.043  0.0050 -2.7902 -1.0404
10088SOL     OW31162   6.774   3.253   4.591  0.2571  0.2838 -0.3000
10088SOL    HW131163   6.761   3.154   4.598 -1.0603  0.3348 -1.6262
10088SOL    HW231164   6.783   3.291   4.683  1.7682 -1.1547  0.2137
10089SOL     OW31165   0.318   1.572   5.759  0.7539  1.0403 -0.3255
10089SOL    HW131166   0.288   1.492   5.708  0.7606  1.0707 -0.3767
10089SOL    HW231167   0.416   1.563   5.780  0.4469  0.3419  0.9295
10090SOL     OW31168   2.984   0.303   2.738 -0.1438 -0.3924  0.4342
10090SOL    HW131169   3.020   0.338   2.824 -1.2395 -0.9266  1.1285
10090SOL    HW231170   2.884   0.308   2.739 -0.1995 -1.0408 -0.5355
10091SOL     OW31171   3.214   5.539   4.753  0.3211  0.3385 -0.0734
10091SOL    HW131172   3.133   5.491   4.721  0.1486  0.5297  0.0717
10091SOL    HW231173   3.267   5.479   4.812  0.5223  0.0620 -0.5361
10092SOL     OW31174   3.466   5.279   4.159 -0.2491  0.6008  0.8011
10092SOL    HW131175   3.424   5.358   4.204 -0.4476  2.5713 -2.4837
10092SOL    HW231176   3.397   5.232   4.104  0.5469  0.0515  0.2541
10093SOL     OW31177   1.601   0.481   0.117  0.0341 -0.6076 -0.6272
10093SOL    HW131178   1.532   0.467   0.046 -2.4519 -1.3275  1.7620
10093SOL    HW231179   1.573   0.433   0.201  1.8834  1.6262  1.4147
10094SOL     OW31180   0.606   6.564   0.836 -0.1229  0.0820 -0.0304
10094SOL    HW131181   0.639   6.636   0.774 -0.3716  0.1634 -0.0684
10094SOL    HW231182   0.510   6.581   0.860 -0.4586 -0.7032 -0.7413
10095SOL     OW31183   1.308   3.623   0.988  0.0210 -0.3311  0.3720
10095SOL    HW131184   1.250   3.704   0.986 -1.9281 -1.6505  0.4185
10095SOL    HW231185   1.254   3.542   0.964  1.8279 -1.6678  0.5490
10096SOL     OW31186   4.464   4.827   6.321 -0.1181 -0.7401 -0.1235
10096SOL    HW131187   4.367   4.833   6.345 -0.5479 -1.8933 -1.4726
10096SOL    HW231188   4.515   4.893   6.375 -1.8034  0.7149 -0.2258
10097SOL     OW31189   0.291   2.049   5.899 -0.3325  0.0997  0.0379
10097SOL    HW131190   0.295   2.119   5.827  0.8609  1.4682  1.3728
10097SOL    HW231191   0.370   1.988   5.890 -0.4275 -0.0093 -0.0675
10098SOL     OW31192   0.510   4.721   6.206  0.3412  0.0047 -0.2827
10098SOL    HW131193   0.597   4.719   6.254 -0.5129  0.4072  1.3651
10098SOL    HW231194   0.522   4.687   6.112  2.7074  2.1484 -0.8656
10099SOL     OW31195   6.188   1.832   4.145 -0.0449  0.3222  0.1836
10099SOL    HW131196   6.221   1.875   4.061 -0.1718 -1.8767 -1.0573
10099SOL    HW231197   6.236   1.872   4.223  2.5987  0.1023 -1.1991
10100SOL     OW31198   3.634   1.658   6.693  0.1067 -0.2544  0.0911
10100SOL    HW131199   3.688   1.685   6.613  0.4240  0.3827  0.5086
10100SOL    HW231200   3.558   1.722   6.704 -0.0120 -0.4188  0.2239
10101SOL     OW31201   0.198   3.309   2.548  0.8311  0.0723 -0.0425
10101SOL    HW131202   0.105   3.299   2.581  0.3392 -1.8038 -1.8276
10101SOL    HW231203   0.212   3.403   2.515  0.5188  1.2030  2.7690
10102SOL     OW31204   1.450   3.925   0.398  0.7257 -0.0745  0.4752
10102SOL    HW131205   1.357   3.960   0.409  1.5822  2.0650  1.5056
10102SOL    HW231206   1.447   3.826   0.380 -1.7259  0.0056  0.1589
10103SOL     OW31207   3.257   5.163   4.045 -0.1050 -0.0836 -0.2814
10103SOL    HW131208   3.278   5.104   3.968 -1.7480 -2.2265  0.8233
10103SOL    HW231209   3.160   5.185   4.046 -0.1005  0.0087  1.0942
10104SOL     OW31210   2.392   1.173   5.539 -0.3850  0.0340  0.2946
10104SOL    HW131211   2.455   1.131   5.604 -0.8072 -1.0707  0.0271
10104SOL    HW231212   2.313   1.113   5.527 -0.6763  0.5867 -0.6573
10105SOL     OW31213   1.974   5.978   3.066  0.3108 -0.2198  0.0087
10105SOL    HW131214   1.958   6.073   3.093  0.7456 -0.6307  1.8351
10105SOL    HW231215   1.896   5.945   3.012 -0.1563  0.9542 -0.0502
10106SOL     OW31216   1.390   0.209   3.474 -0.6226  0.4472  0.0164
10106SOL    HW131217   1.318   0.253   3.420 -0.2509  0.1973 -0.6987
10106SOL    HW231218   1.457   0.168   3.413 -0.5030 -0.3670  0.6765
10107SOL     OW31219   2.310   2.782   4.230 -0.4156  0.2581 -0.1046
10107SOL    HW131220   2.301   2.811   4.134 -0.4744 -0.4509 -0.3179
10107SOL    HW231221   2.333   2.861   4.286  0.0554  0.6024 -0.7700
10108SOL     OW31222   1.421   5.185   2.082 -0.1249  0.3941 -0.1388
10108SOL    HW131223   1.440   5.260   2.018  3.1129 -0.4152 -0.3063
10108SOL    HW231224   1.464   5.101   2.048 -0.3394 -0.6317  1.9574
10109SOL     OW31225   0.659   2.283   2.181 -0.2290 -0.5344  0.7383
10109SOL    HW131226   0.572   2.233   2.187 -0.5278 -0.1780 -0.4174
10109SOL    HW231227   0.640   2.381   2.177  0.0684 -0.5305 -1.8837
10110SOL     OW31228   3.973   1.351   0.176  0.6341  0.2913  0.1229
10110SOL    HW131229   3.984   1.450   0.162 -0.5717  0.3097 -0.8043
10110SOL    HW231230   4.003   1.303   0.094 -1.3957  0.0690 -0.5392
10111SOL     OW31231   5.948   1.704   4.188  0.2537 -0.3172  0.4258
10111SOL    HW131232   5.892   1.763   4.247 -1.1833  0.1851 -1.3311
10111SOL    HW231233   6.033   1.752   4.165  0.6128 -0.3290  1.6762
10112SOL     OW31234   5.912   3.501   6.483  0.2559  0.6698 -0.3556
10112SOL    HW131235   5.987   3.455   6.531  0.0210  1.0939  0.4471
10112SOL    HW231236   5.938   3.597   6.466  0.1224  0.6628 -0.5968
10113SOL     OW31237   3.646   6.442   1.036  0.2967  0.3328  0.0016
10113SOL    HW131238   3.559   6.428   1.083  1.3513 -2.3578  1.4106
10113SOL    HW231239   3.701   6.507   1.088  0.3444 -0.4594  0.9802
10114SOL     OW31240   5.305   4.057   4.227  0.1899 -0.3145 -0.0278
10114SOL    HW131241   5.243   4.111   4.170  1.1385  1.1909  0.3178
10114SOL    HW231242   5.398   4.065   4.192  0.3113 -2.1217 -0.2227
10115SOL     OW31243   3.091   6.977   6.702  0.1142  0.0126  0.2513
10115SOL    HW131244   3.019   6.909   6.711  0.4822 -0.3431  0.5696
10115SOL    HW231245   3.109   7.019   6.791  2.7697 -2.4776  1.0087
10116SOL     OW31246   0.175   5.562   6.578  0.2050  0.4108 -0.3481
10116SOL    HW131247   0.159   5.530   6.484 -0.9725 -1.3231  0.3979
10116SOL    HW231248   0.086   5.578   6.622  0.7531  1.4997  0.3930
10117SOL     OW31249   5.796   2.198   1.303 -0.0714 -0.1915  0.4573
10117SOL    HW131250   5.835   2.184   1.213  1.0340 -0.5851  0.9823
10117SOL    HW231251   5.743   2.283   1.304  1.8493  1.0597  0.0663
10118SOL     OW31252   5.229   4.322   3.882  0.0790 -0.0472  0.3142
10118SOL    HW131253   5.322   4.288   3.893  0.6937  1.8271  1.4041
10118SOL    HW231254   5.171   4.251   3.842  2.2179 -0.8710 -1.4520
10119SOL     OW31255   1.872   5.045   1.428  0.5726 -0.6564 -0.0595
10119SOL    HW131256   1.944   5.096   1.381  0.3158 -0.9683 -0.8078
10119SOL    HW231257   1.858   4.958   1.381 -0.6492 -0.3746 -0.2430
10120SOL     OW31258   0.207   1.883   3.511 -0.0289 -0.4329 -0.0507
10120SOL    HW131259   0.155   1.826   3.447  2.0198 -0.6058 -1.6679
10120SOL    HW231260   0.276   1.827   3.557 -0.6856 -0.0489  1.4733
10121SOL     OW31261   5.484   3.624   5.195  0.2539  0.0755 -0.4812
10121SOL    HW131262   5.553   3.647   5.126  2.4128  0.8852  1.8026
10121SOL    HW231263   5.497   3.530   5.226 -1.4738 -0.6975 -1.9254
10122SOL     OW31264   6.240   6.139   0.699  0.5743  0.1986  0.0078
10122SOL    HW131265   6.303   6.074   0.740  0.6259 -0.2491 -0.7462
10122SOL    HW231266   6.290   6.219   0.666  0.9202 -0.5562 -1.4081
10123SOL     OW31267   1.664   3.752   2.746  0.6132 -0.0096  0.2569
10123SOL    HW131268   1.573   3.757   2.704  1.7975  1.4223 -2.4002
10123SOL    HW231269   1.706   3.843   2.745  2.7021 -0.9097 -0.1576
10124SOL     OW31270   6.702   1.744   2.063 -0.2710  0.0698  0.1780
10124SOL    HW131271   6.779   1.807   2.053 -0.3777 -0.1113 -2.6747
10124SOL    HW231272   6.708   1.673   1.993 -1.4222 -1.7594  1.8475
10125SOL     OW31273   2.030   6.291   4.839  0.3411  0.1817  0.2619
10125SOL    HW131274   2.111   6.332   4.880  0.3716 -0.2098  0.5995
10125SOL    HW231275   2.057   6.227   4.766  0.4172 -0.9970  1.2960
10126SOL     OW31276   2.253   0.657   6.853 -0.0679 -0.1134 -0.3523
10126SOL    HW131277   2.190   0.593   6.898  0.0047 -0.6964 -1.0524
10126SOL    HW231278   2.331   0.606   6.816  0.0195  0.3869 -0.8750
10127SOL     OW31279   1.758   0.946   3.432 -0.4655 -0.1172  0.4829
10127SOL    HW131280   1.669   0.947   3.387  0.4618  0.4151 -1.4481
10127SOL    HW231281   1.786   1.039   3.455 -0.3430 -0.2715  0.9933
10128SOL     OW31282   2.987   4.145   0.739  0.0184  0.0416 -0.2508
10128SOL    HW131283   2.960   4.080   0.810 -0.6788  2.4910  1.9167
10128SOL    HW231284   2.978   4.103   0.649 -2.9308 -1.9988  0.8587
10129SOL     OW31285   5.322   6.915   1.842  0.5352  0.3467 -0.4423
10129SOL    HW131286   5.226   6.924   1.866  1.0540  1.0425  1.5920
10129SOL    HW231287   5.363   7.006   1.831  0.7264  0.0621 -2.5024
10130SOL     OW31288   4.236   5.434   6.524 -0.1031  0.8038  0.5596
10130SOL    HW131289   4.292   5.394   6.596 -0.5332 -1.2154 -0.1591
10130SOL    HW231290   4.273   5.408   6.435 -1.6906  0.0662  0.0718
10131SOL     OW31291   6.055   0.889   6.846  0.5345 -0.0732  0.0343
10131SOL    HW131292   6.022   0.871   6.754 -0.8906 -1.7251  0.8082
10131SOL    HW231293   6.098   0.980   6.849 -1.0130  0.7985 -1.8043
10132SOL     OW31294   0.346   2.786   4.474 -0.0975 -0.1087  0.0499
10132SOL    HW131295   0.387   2.856   4.533 -0.0433  1.1499 -1.3959
10132SOL    HW231296   0.251   2.771   4.500 -0.1501  0.6163  0.2998
10133SOL     OW31297   6.812   0.455   5.264  0.5824 -0.0700  0.1929
10133SOL    HW131298   6.907   0.424   5.262  1.1070  1.4673 -0.8361
10133SOL    HW231299   6.771   0.441   5.175 -0.1229 -0.5573  0.5850
10134SOL     OW31300   2.690   4.683   2.624  0.5382  0.3480  0.5888
10134SOL    HW131301   2.654   4.763   2.576  1.1362  0.6687  0.6731
10134SOL    HW231302   2.712   4.611   2.559  0.9832  0.6398  0.4129
10135SOL     OW31303   2.492   2.468   4.804 -0.1437  0.0939 -0.2458
10135SOL    HW131304   2.468   2.499   4.896  0.0153 -0.9569  0.1531
10135SOL    HW231305   2.456   2.534   4.737  0.3174  1.2170  0.5817
10136SOL     OW31306   0.550   3.947   2.612  0.5488 -0.0960 -0.1034
10136SOL    HW131307   0.482   4.007   2.569 -0.2447 -0.6681  0.3299
10136SOL    HW231308   0.641   3.989   2.606  0.5703 -0.3524 -2.7689
10137SOL     OW31309   2.544   4.244   0.674  0.0702  0.1445  0.4770
10137SOL    HW131310   2.595   4.298   0.741  2.0676 -1.0313 -0.0331
10137SOL    HW231311   2.600   4.231   0.592 -1.0505 -1.2236 -0.1077
10138SOL     OW31312   5.829   4.602   0.248 -0.2000  0.4541  0.0830
10138SOL    HW131313   5.813   4.677   0.183  0.3330 -0.4342 -1.1021
10138SOL    HW231314   5.765   4.528   0.229  0.7458 -0.2962 -0.2008
10139SOL     OW31315   3.372   2.898   3.841 -0.3157  0.0222  0.3852
10139SOL    HW131316   3.417   2.815   3.872 -0.4530  0.0046  0.5383
10139SOL    HW231317   3.290   2.914   3.896 -0.8855 -0.3303 -0.3438
10140SOL     OW31318   2.175   1.959   1.854  0.3545  0.1234 -0.2003
10140SOL    HW131319   2.206   1.965   1.948 -1.7757  1.2767  0.5100
10140SOL    HW231320   2.107   2.030   1.837 -0.6535 -1.1938 -2.0613
10141SOL     OW31321   4.341   1.694   5.133 -0.2916 -0.4391 -0.4578
10141SOL    HW131322   4.429   1.648   5.122  0.2039  0.5853 -0.8612
10141SOL    HW231323   4.345   1.756   5.211 -1.0036 -1.1524  0.1713
10142SOL     OW31324   3.127   2.291   0.499  0.2611  0.2146  0.1929
10142SOL    HW131325   3.166   2.359   0.560 -0.5710  0.8476  0.0329
10142SOL    HW231326   3.029   2.282   0.517  0.0058  0.3918 -1.0167
10143SOL     OW31327   1.696   0.458   6.860 -0.3627  0.0929  0.3855
10143SOL    HW131328   1.665   0.479   6.952 -0.1644  0.4749  0.3679
10143SOL    HW231329   1.683   0.360   6.842 -0.4025  0.0162  0.8159
10144SOL     OW31330   1.747   4.637   1.892 -0.3807  0.0263 -0.0250
10144SOL    HW131331   1.786   4.549   1.917  1.6810  0.8194 -0.2078
10144SOL    HW231332   1.661   4.624   1.842 -0.7357 -1.7958  1.0010
10145SOL     OW31333   6.069   4.603   3.162 -0.4064  0.3866  0.0553
10145SOL    HW131334   6.116   4.527   3.118  0.7251  1.2643 -0.3021
10145SOL    HW231335   5.998   4.568   3.223 -1.8536 -0.8769 -2.2197
10146SOL     OW31336   4.778   6.756   5.364 -0.1254 -0.1514 -0.3422
10146SOL    HW131337   4.817   6.799   5.445 -0.4000  0.7450 -0.6758
10146SOL    HW231338   4.703   6.812   5.328 -1.2062 -1.4200 -0.1909
10147SOL     OW31339   5.609   4.733   6.147 -0.4844  0.0470 -0.1719
10147SOL    HW131340   5.555   4.749   6.064 -3.2371  2.5172  1.8699
10147SOL    HW231341   5.669   4.811   6.163  0.3148 -0.5915  0.0150
10148SOL     OW31342   0.136   5.888   6.903 -0.1754  0.2852  0.0489
10148SOL    HW131343   0.090   5.976   6.889  0.1310  0.6442  1.1969
10148SOL    HW231344   0.087   5.835   6.971 -0.1826 -0.3144 -0.4179
10149SOL     OW31345   6.066   0.136   5.145 -0.4925  0.0043  0.2183
10149SOL    HW131346   6.164   0.113   5.144 -0.4284  0.2629  0.4547
10149SOL    HW231347   6.013   0.058   5.112 -0.1530  0.1136 -0.6163
10150SOL     OW31348   4.129   6.061   1.526 -0.4353 -0.3351  0.6919
10150SOL    HW131349   4.138   6.109   1.438  0.9481 -1.8522 -0.0372
10150SOL    HW231350   4.187   6.106   1.594 -0.4787  0.0414  0.4859
10151SOL     OW31351   1.894   1.377   2.305  0.1297  0.1157  0.2512
10151SOL    HW131352   1.955   1.456   2.306 -1.3076  1.3258 -1.4541
10151SOL    HW231353   1.842   1.374   2.391  2.1131 -0.6267  1.4976
10152SOL     OW31354   1.179   1.922   1.004 -0.0600  0.0528  0.1958
10152SOL    HW131355   1.142   2.003   0.958  1.7382  1.2403  0.7517
10152SOL    HW231356   1.131   1.908   1.091 -0.1232  0.7595  0.2809
10153SOL     OW31357   2.649   3.015   0.728  0.4663 -0.4279  0.3696
10153SOL    HW131358   2.680   3.011   0.633  1.9802  0.4277  0.7868
10153SOL    HW231359   2.572   3.078   0.736  1.2523  0.6367 -0.1082
10154SOL     OW31360   1.416   3.713   0.726  0.2569 -0.0918 -0.2981
10154SOL    HW131361   1.501   3.692   0.774  0.1619  1.2571  0.5191
10154SOL    HW231362   1.348   3.643   0.747  0.5161 -0.0337  0.7954
10155SOL     OW31363   5.340   3.434   2.650 -0.0907  0.6813  0.1338
10155SOL    HW131364   5.297   3.523   2.667  0.7169  1.0149  0.4382
10155SOL    HW231365   5.269   3.369   2.623 -1.4142  0.3114  3.9060
10156SOL     OW31366   4.125   1.812   1.865 -0.2435  0.7350 -0.3444
10156SOL    HW131367   4.032   1.845   1.846 -0.3174 -0.5807 -2.6589
10156SOL    HW231368   4.191   1.873   1.820  0.0157  1.3785  0.8733
10157SOL     OW31369   6.804   3.426   5.483 -0.2318  0.1778 -0.5562
10157SOL    HW131370   6.708   3.450   5.468 -0.5160 -1.0076 -0.6721
10157SOL    HW231371   6.861   3.506   5.461 -1.2316  1.1876  0.3846
10158SOL     OW31372   1.052   4.664   3.638  0.2121  0.2663 -0.1586
10158SOL    HW131373   1.140   4.658   3.591  0.8911  0.7689  0.9999
10158SOL    HW231374   0.980   4.624   3.580  1.5279 -2.0781 -0.2893
10159SOL     OW31375   5.788   2.658   1.553 -0.3402  0.2992 -0.0625
10159SOL    HW131376   5.797   2.711   1.637  0.8498 -0.3567  0.2547
10159SOL    HW231377   5.692   2.642   1.533 -0.6370 -0.7552  1.9883
10160SOL     OW31378   4.469   5.717   0.672 -0.3603 -0.2256 -0.8207
10160SOL    HW131379   4.547   5.692   0.615 -1.0646 -3.5941 -0.5202
10160SOL    HW231380   4.490   5.700   0.768 -0.7936  0.8412 -0.5229
10161SOL     OW31381   0.410   0.416   2.900 -0.5328 -0.6068 -0.7771
10161SOL    HW131382   0.422   0.509   2.933  0.3717 -0.4050 -1.6321
10161SOL    HW231383   0.484   0.358   2.933 -0.1320 -0.6140 -1.6491
10162SOL     OW31384   4.880   3.555   2.258  0.0535 -0.1922  0.5216
10162SOL    HW131385   4.787   3.519   2.265  0.6282 -1.6298  1.4314
10162SOL    HW231386   4.924   3.516   2.177 -0.2384  0.7685 -0.1082
10163SOL     OW31387   6.634   0.947   1.318  0.0744 -0.1365 -0.4492
10163SOL    HW131388   6.549   0.974   1.273 -2.2821 -4.0788  1.0965
10163SOL    HW231389   6.668   0.862   1.277  0.3959 -1.3319  2.1149
10164SOL     OW31390   4.045   2.527   0.746 -0.6939  0.0138 -0.2235
10164SOL    HW131391   4.035   2.429   0.730  0.5701 -0.4102  1.3119
10164SOL    HW231392   3.955   2.567   0.763 -1.7551 -0.0979 -4.3317
10165SOL     OW31393   1.675   5.398   4.211 -0.3017 -0.3866  0.3177
10165SOL    HW131394   1.658   5.488   4.171  0.9517  0.2528  1.1314
10165SOL    HW231395   1.676   5.406   4.311  2.9585 -0.6034  0.4008
10166SOL     OW31396   0.839   0.268   4.866  0.4436  0.2850 -0.0487
10166SOL    HW131397   0.864   0.259   4.769  0.7834  0.1477  0.0503
10166SOL    HW231398   0.836   0.365   4.891  2.8048  0.2809  0.4287
10167SOL     OW31399   0.170   6.914   4.335 -0.2253  0.5491  0.1481
10167SOL    HW131400   0.147   6.878   4.425  2.1175  2.7217  1.7434
10167SOL    HW231401   0.206   7.007   4.344  0.6992  0.6163 -2.9813
10168SOL     OW31402   1.737   4.759   3.826 -0.0771  0.5754 -0.5665
10168SOL    HW131403   1.775   4.824   3.760  1.7820 -0.4478 -0.5649
10168SOL    HW231404   1.760   4.788   3.919 -0.6931  0.7732 -0.4658
10169SOL     OW31405   3.252   6.191   4.528  0.5264 -0.2234 -0.1394
10169SOL    HW131406   3.184   6.217   4.459 -1.3123 -1.6343  1.0546
10169SOL    HW231407   3.344   6.213   4.494 -0.2623 -1.2153 -3.2073
10170SOL     OW31408   6.434   2.322   3.092  0.4772 -0.1123  0.7618
10170SOL    HW131409   6.403   2.310   2.997 -0.0985 -0.1722  0.9545
10170SOL    HW231410   6.533   2.307   3.096  0.3518 -1.1765  0.3480
10171SOL     OW31411   1.050   3.688   1.340 -0.1399 -0.3446  0.4604
10171SOL    HW131412   0.993   3.679   1.258 -1.4601  0.5533  1.2292
10171SOL    HW231413   1.050   3.784   1.369  2.3174 -0.2071  0.1489
10172SOL     OW31414   3.585   4.061   0.762 -0.1805 -0.5759  0.5252
10172SOL    HW131415   3.658   4.009   0.807 -0.0347  0.3681  1.4289
10172SOL    HW231416   3.543   4.123   0.829 -0.7804 -0.0010 -0.3666
10173SOL     OW31417   4.040   0.706   6.667  0.0362 -0.2576 -0.1337
10173SOL    HW131418   4.092   0.679   6.748 -0.6177 -1.1542  0.0077
10173SOL    HW231419   3.970   0.772   6.693  0.8532  0.6727 -0.2602
10174SOL     OW31420   2.626   4.834   1.120 -0.5933 -0.1121 -0.2653
10174SOL    HW131421   2.619   4.787   1.208  1.8406 -0.4982 -0.2202
10174SOL    HW231422   2.698   4.903   1.125  1.1136 -1.6010 -2.5229
10175SOL     OW31423   6.268   5.794   5.256  0.6556  0.1902  0.5041
10175SOL    HW131424   6.272   5.889   5.287 -1.1580  0.7203 -0.7336
10175SOL    HW231425   6.262   5.792   5.156 -1.8519 -1.0811  0.6072
10176SOL     OW31426   0.767   3.382   1.240  0.9203  0.4764  0.2811
10176SOL    HW131427   0.770   3.367   1.339  0.3775 -2.7133 -0.1037
10176SOL    HW231428   0.816   3.309   1.193  0.3779  1.4264 -1.8916
10177SOL     OW31429   5.659   4.250   4.645 -0.2920 -0.0302 -0.2999
10177SOL    HW131430   5.608   4.249   4.731 -1.7405 -2.9516 -1.0522
10177SOL    HW231431   5.754   4.226   4.662  0.1959  2.3862  0.7564
10178SOL     OW31432   1.993   5.041   5.024  0.1226  0.5236  0.5427
10178SOL    HW131433   1.995   4.947   5.057 -2.4428  1.0046  2.3912
10178SOL    HW231434   2.041   5.047   4.936  1.0466 -2.3052  0.7665
10179SOL     OW31435   6.991   5.062   6.134 -0.3776 -0.1708 -0.3969
10179SOL    HW131436   6.894   5.070   6.113  0.0009 -1.5149 -3.0577
10179SOL    HW231437   7.010   4.974   6.177 -0.5226  0.8592  1.9541
10180SOL     OW31438   1.317   4.110   0.093  0.5713 -0.2071  0.0786
10180SOL    HW131439   1.256   4.053   0.148 -0.5901  1.0242  0.1304
10180SOL    HW231440   1.373   4.166   0.154 -0.7314  1.1735  0.0790
10181SOL     OW31441   1.659   4.018   5.605 -0.2322  0.0113  0.5029
10181SOL    HW131442   1.569   4.000   5.566 -0.6006 -0.6796  1.6226
10181SOL    HW231443   1.702   3.932   5.632  2.3747 -0.1221 -3.2856
10182SOL     OW31444   6.522   5.870   1.758 -0.1730 -0.0471  0.2011
10182SOL    HW131445   6.451   5.924   1.803  0.2878 -0.2222  1.1744
10182SOL    HW231446   6.581   5.930   1.705  0.7691  0.5442  1.8545
10183SOL     OW31447   1.761   0.832   1.360  0.2614  0.2637  0.3954
10183SOL    HW131448   1.736   0.846   1.455 -1.2905  1.1351 -0.1104
10183SOL    HW231449   1.750   0.918   1.310  2.0235  0.0795 -0.3836
10184SOL     OW31450   6.148   4.589   2.048 -0.8793  0.0486 -0.0835
10184SOL    HW131451   6.185   4.533   2.122 -1.4330  1.3111  1.2023
10184SOL    HW231452   6.048   4.593   2.057 -0.9316  0.3768 -0.7866
10185SOL     OW31453   1.521   2.087   1.132  0.1894 -0.0315  0.3874
10185SOL    HW131454   1.552   2.112   1.041 -0.2394  0.0484  0.2622
10185SOL    HW231455   1.576   2.136   1.200 -0.2466  0.8134  0.1568
10186SOL     OW31456   2.878   2.265   4.542 -0.1822  0.0066 -0.1175
10186SOL    HW131457   2.867   2.178   4.590  0.4831  0.0645  0.1542
10186SOL    HW231458   2.795   2.319   4.551 -1.0350 -1.0612 -1.2521
10187SOL     OW31459   5.600   6.721   0.081 -0.7005  0.4155 -0.5015
10187SOL    HW131460   5.594   6.820   0.066 -0.5429  0.4514 -0.3278
10187SOL    HW231461   5.690   6.688   0.052 -0.1587  0.5861  0.9036
10188SOL     OW31462   0.994   3.757   6.677  0.0197 -0.4209 -0.9759
10188SOL    HW131463   0.983   3.696   6.756  0.6399 -0.5408 -0.9789
10188SOL    HW231464   1.029   3.705   6.600 -0.5875 -0.3033 -1.3388
10189SOL     OW31465   6.189   5.005   0.943  0.5486 -0.2710 -0.4040
10189SOL    HW131466   6.123   4.933   0.964 -0.5259  0.9557  0.6235
10189SOL    HW231467   6.278   4.980   0.981 -0.3162 -0.1299  1.9388
10190SOL     OW31468   1.978   2.976   6.121 -0.1828 -0.1232 -0.1072
10190SOL    HW131469   1.964   3.074   6.134  1.4311  0.1304 -0.0952
10190SOL    HW231470   2.046   2.960   6.050 -0.7866 -1.2560 -0.4616
10191SOL     OW31471   5.496   6.676   4.606  0.6975  0.0842  0.4561
10191SOL    HW131472   5.503   6.636   4.514 -0.4852 -1.5285  1.0218
10191SOL    HW231473   5.583   6.665   4.654  0.6211 -1.2368  0.3390
10192SOL     OW31474   1.485   6.711   4.610  0.4068  0.6115 -0.1505
10192SOL    HW131475   1.438   6.796   4.630  0.5810  0.4849  0.8257
10192SOL    HW231476   1.437   6.635   4.653 -0.9067 -0.0892 -2.6370
10193SOL     OW31477   6.862   4.259   0.989 -0.3506 -0.3170  0.2437
10193SOL    HW131478   6.784   4.315   1.016 -0.5718  0.1981 -1.3098
10193SOL    HW231479   6.831   4.182   0.933  0.2975  0.7482 -1.7063
10194SOL     OW31480   3.728   0.577   3.893 -0.4373 -0.3329  0.0049
10194SOL    HW131481   3.826   0.558   3.894 -0.3004  0.3416 -0.2409
10194SOL    HW231482   3.699   0.613   3.981 -0.2153  0.6512 -0.3089
10195SOL     OW31483   1.698   4.916   4.332 -0.6886  0.3898 -0.0546
10195SOL    HW131484   1.641   4.918   4.414 -1.1904  0.0320 -0.3953
10195SOL    HW231485   1.657   4.857   4.263  0.2522 -0.1350 -0.1899
10196SOL     OW31486   5.429   6.941   5.101  0.1806 -0.1456 -0.2570
10196SOL    HW131487   5.358   6.993   5.149  0.9722  0.6060  0.1207
10196SOL    HW231488   5.513   6.995   5.098  0.7227 -1.0081 -0.7427
10197SOL     OW31489   1.247   0.429   4.657 -0.2971  0.1409  0.2458
10197SOL    HW131490   1.288   0.338   4.654 -1.5792 -0.4720  0.5169
10197SOL    HW231491   1.318   0.498   4.670  0.5974 -0.9021  1.0149
10198SOL     OW31492   6.398   6.134   4.949 -0.0832  0.1265  0.4010
10198SOL    HW131493   6.322   6.184   4.908 -2.0448 -2.4200  0.6207
10198SOL    HW231494   6.477   6.136   4.888 -1.0671  1.0174 -0.8859
10199SOL     OW31495   5.924   6.708   5.987 -0.5506 -0.2189 -0.2495
10199SOL    HW131496   5.929   6.626   6.045  0.6614 -0.3135 -0.4677
10199SOL    HW231497   6.009   6.760   5.996 -1.1020  0.7395 -0.5332
10200SOL     OW31498   1.774   0.583   0.796 -0.0966  0.3890 -0.0581
10200SOL    HW131499   1.772   0.488   0.766  1.3222  0.9120 -2.0295
10200SOL    HW231500   1.845   0.594   0.866  0.5552  0.1906 -0.6737
10201SOL     OW31501   0.921   3.389   2.428 -0.1138 -0.1997  0.2692
10201SOL    HW131502   0.960   3.297   2.439  1.4368  0.5046  1.0017
10201SOL    HW231503   0.985   3.457   2.466 -1.7504  1.0930  0.8163
10202SOL     OW31504   1.686   6.924   2.763 -0.0620  0.0562  1.2173
10202SOL    HW131505   1.648   6.929   2.671 -0.6635 -2.5689  1.2491
10202SOL    HW231506   1.780   6.959   2.762 -0.3147  0.7458 -0.2189
10203SOL     OW31507   4.440   4.790   0.882  0.3062  0.2431 -0.2606
10203SOL    HW131508   4.507   4.718   0.862 -1.3032 -1.7250  1.1167
10203SOL    HW231509   4.404   4.778   0.974 -0.9476  2.1053 -0.4488
10204SOL     OW31510   1.218   5.829   1.779 -0.2769  0.5059  0.3831
10204SOL    HW131511   1.292   5.779   1.734 -0.6974  0.2409 -0.0247
10204SOL    HW231512   1.190   5.905   1.722 -1.4349 -0.3696 -0.2633
10205SOL     OW31513   4.932   2.851   5.430 -0.4821  0.7299  0.3517
10205SOL    HW131514   4.937   2.786   5.506 -1.5810  0.3687  0.1401
10205SOL    HW231515   4.942   2.801   5.344 -0.9955  0.8706  0.2029
10206SOL     OW31516   1.411   1.299   3.151  0.2410  0.5446  0.1462
10206SOL    HW131517   1.332   1.247   3.183  1.1121 -0.3622  0.9129
10206SOL    HW231518   1.424   1.283   3.053  0.2283 -0.3524  0.2793
10207SOL     OW31519   4.505   0.971   3.711  0.1575 -0.3115  0.0708
10207SOL    HW131520   4.552   1.040   3.767 -0.4986  0.1314  0.0760
10207SOL    HW231521   4.503   1.001   3.616 -2.4119  0.9610  0.4443
10208SOL     OW31522   1.833   0.446   5.576 -0.2939 -0.3739 -0.1717
10208SOL    HW131523   1.881   0.393   5.506  2.6010 -0.0405  1.3950
10208SOL    HW231524   1.847   0.543   5.561 -2.0979 -0.1655 -0.6991
10209SOL     OW31525   2.192   2.583   4.889  0.1004 -0.4377 -0.0470
10209SOL    HW131526   2.114   2.530   4.920 -1.7956  1.2896 -1.5662
10209SOL    HW231527   2.215   2.558   4.795  0.5298 -0.0226 -0.0588
10210SOL     OW31528   2.596   1.185   0.675  0.2815  0.1517 -0.2470
10210SOL    HW131529   2.618   1.102   0.623  1.1285  0.2694 -0.0970
10210SOL    HW231530   2.681   1.232   0.699 -0.1118  0.2671  0.9791
10211SOL     OW31531   3.935   2.955   5.189  0.3585 -0.3693 -0.2136
10211SOL    HW131532   3.857   2.906   5.152  1.6829 -0.0475 -3.7918
10211SOL    HW231533   4.007   2.890   5.214 -0.1727 -0.5318  0.9447
10212SOL     OW31534   5.843   5.179   0.777 -0.0751 -0.1317  0.0188
10212SOL    HW131535   5.916   5.146   0.717  1.2190  0.0452  1.4317
10212SOL    HW231536   5.874   5.176   0.872 -1.2633  1.6521  0.5133
10213SOL     OW31537   2.112   5.927   6.077  0.4003  0.1904  0.0131
10213SOL    HW131538   2.134   5.860   6.148 -1.2864  0.2966  0.6730
10213SOL    HW231539   2.107   5.882   5.988  1.5714 -0.1110  0.0811
10214SOL     OW31540   4.600   2.592   3.847  0.6407  0.2914  1.0299
10214SOL    HW131541   4.652   2.625   3.768  2.0731 -3.6009  0.1219
10214SOL    HW231542   4.662   2.581   3.925 -0.2003  1.4699  1.9011
10215SOL     OW31543   1.831   0.392   0.265 -0.3797 -0.3413  0.2428
10215SOL    HW131544   1.909   0.435   0.309 -1.3009  0.1381  1.4512
10215SOL    HW231545   1.747   0.415   0.314 -1.2386 -1.2333 -0.7385
10216SOL     OW31546   3.617   4.122   0.161  0.4033 -0.1964 -0.6567
10216SOL    HW131547   3.669   4.141   0.245 -0.8016 -0.2269  0.1204
10216SOL    HW231548   3.679   4.089   0.090  1.5567  0.4877  0.0001
10217SOL     OW31549   5.285   2.216   4.050  0.0257  0.1109 -0.6798
10217SOL    HW131550   5.252   2.293   3.995 -4.3130 -1.4215 -0.6054
10217SOL    HW231551   5.265   2.130   4.004  1.6913 -1.1254  0.7441
10218SOL     OW31552   0.660   1.898   2.884  0.0416 -0.4077  0.3918
10218SOL    HW131553   0.759   1.913   2.884 -0.0946  0.5130  0.5081
10218SOL    HW231554   0.614   1.977   2.844 -0.7268 -0.3559  1.3559
10219SOL     OW31555   3.081   3.330   2.286 -0.1171 -0.1844 -0.9120
10219SOL    HW131556   3.082   3.237   2.325 -1.5055 -0.3324 -1.1557
10219SOL    HW231557   2.989   3.367   2.294  0.6645  1.6354  0.1769
10220SOL     OW31558   6.616   5.412   0.397  0.2909  0.3131  0.0641
10220SOL    HW131559   6.693   5.359   0.433  0.8326  0.2474 -1.1402
10220SOL    HW231560   6.634   5.509   0.407  0.9156  0.3163 -0.9308
10221SOL     OW31561   2.609   2.153   0.841 -0.2743  0.0656  0.5284
10221SOL    HW131562   2.603   2.130   0.744 -1.5050  2.5626 -0.0718
10221SOL    HW231563   2.690   2.108   0.881 -0.3578 -1.8918 -1.3293
10222SOL     OW31564   1.171   0.388   0.931  0.5218  0.1868  0.5391
10222SOL    HW131565   1.163   0.347   1.022 -2.3779  1.6049  1.0562
10222SOL    HW231566   1.226   0.472   0.937  1.3540 -0.3563  0.6967
10223SOL     OW31567   1.908   5.996   2.139 -0.1029 -0.7280  0.4101
10223SOL    HW131568   1.854   6.063   2.089 -1.7480 -0.2407  2.7090
10223SOL    HW231569   1.984   5.966   2.082 -1.3947  0.3646 -2.0386
10224SOL     OW31570   0.239   6.123   2.437  0.3781  0.5911 -0.0114
10224SOL    HW131571   0.299   6.045   2.421 -0.0464  0.0007  1.1779
10224SOL    HW231572   0.153   6.109   2.387 -0.4743 -0.6756  1.7323
10225SOL     OW31573   6.805   0.243   6.088 -0.4817 -0.0379  0.3216
10225SOL    HW131574   6.823   0.245   6.187 -0.7780  0.5978  0.3704
10225SOL    HW231575   6.728   0.304   6.067  0.0799  0.4448 -0.3940
10226SOL     OW31576   3.353   6.565   4.780  0.1108  0.2307  0.5853
10226SOL    HW131577   3.424   6.501   4.812  0.0782 -0.2598 -0.3125
10226SOL    HW231578   3.274   6.514   4.748  0.2748  0.6885 -0.5998
10227SOL     OW31579   5.613   1.835   3.687  0.1576 -0.1662  0.3890
10227SOL    HW131580   5.536   1.828   3.751  0.0192 -1.0759  0.1357
10227SOL    HW231581   5.625   1.931   3.660 -1.4786 -0.1271 -0.2863
10228SOL     OW31582   5.721   3.027   6.665  0.3063  0.4475  0.3498
10228SOL    HW131583   5.784   3.007   6.590  1.5222  1.4774  1.0559
10228SOL    HW231584   5.654   2.954   6.673  0.8843 -0.2585 -0.9715
10229SOL     OW31585   0.395   1.829   4.974  0.2669 -0.2420 -0.2022
10229SOL    HW131586   0.384   1.861   5.069 -0.2645 -1.1627  0.0574
10229SOL    HW231587   0.306   1.799   4.939  0.5261 -0.2318 -0.8792
10230SOL     OW31588   4.745   0.910   1.717 -0.2493  0.2184 -1.1224
10230SOL    HW131589   4.757   0.834   1.654 -0.3206  0.1940 -1.1063
10230SOL    HW231590   4.727   0.994   1.665 -1.9086 -0.0895 -1.0870
10231SOL     OW31591   5.902   1.946   5.655 -0.1722 -0.3351  0.5034
10231SOL    HW131592   5.825   1.978   5.600  0.1914  1.0612  0.7603
10231SOL    HW231593   5.946   1.869   5.610  0.0383  0.6864 -1.1124
10232SOL     OW31594   3.059   6.058   6.226  0.2247 -0.4957  0.2307
10232SOL    HW131595   3.014   6.136   6.271  1.4219 -0.2397  1.0270
10232SOL    HW231596   3.076   6.080   6.130 -1.1835 -0.5407 -0.0508
10233SOL     OW31597   2.922   5.761   2.332  0.5697  0.4314  0.4457
10233SOL    HW131598   2.845   5.712   2.373 -1.0317  0.7947 -1.8874
10233SOL    HW231599   3.005   5.746   2.386 -0.3982 -2.7294  1.2448
10234SOL     OW31600   3.406   5.184   6.750  0.2753  0.0105  0.0392
10234SOL    HW131601   3.331   5.119   6.765 -1.2615  1.8763  0.7757
10234SOL    HW231602   3.491   5.133   6.734 -1.1218 -2.1721 -0.9166
10235SOL     OW31603   4.165   3.348   1.971 -0.4291 -0.4651  0.7603
10235SOL    HW131604   4.256   3.381   1.945 -0.7037 -1.0261 -1.0692
10235SOL    HW231605   4.114   3.422   2.016  0.0322  0.6798 -0.5301
10236SOL     OW31606   6.601   1.087   5.701  0.0757 -0.4569  0.4214
10236SOL    HW131607   6.640   1.124   5.785 -0.5915  1.0851  0.0743
10236SOL    HW231608   6.649   1.002   5.677  4.7549  2.1962 -1.0701
10237SOL     OW31609   3.566   1.838   0.302 -0.1143  0.1237  0.5228
10237SOL    HW131610   3.547   1.851   0.205 -0.5486  0.1824  0.6101
10237SOL    HW231611   3.500   1.891   0.355 -1.6627 -2.0420  0.9033
10238SOL     OW31612   1.549   6.581   6.549  0.4529 -0.3691 -0.3374
10238SOL    HW131613   1.634   6.562   6.500  0.5769  1.0045 -0.6988
10238SOL    HW231614   1.541   6.680   6.565  0.3326 -0.7258  2.2789
10239SOL     OW31615   2.094   6.838   5.779 -0.8858 -0.6125 -0.5661
10239SOL    HW131616   2.171   6.790   5.737 -0.0208 -0.2741  0.5989
10239SOL    HW231617   2.116   6.863   5.873 -2.3119 -0.2357 -0.2993
10240SOL     OW31618   5.496   5.888   0.283 -0.2581  0.5623  0.6065
10240SOL    HW131619   5.422   5.823   0.299 -1.6664  0.6269 -4.0644
10240SOL    HW231620   5.573   5.840   0.241 -0.2229  1.4638 -0.3859
10241SOL     OW31621   2.763   5.555   5.185  0.8230  0.1042  0.1526
10241SOL    HW131622   2.830   5.587   5.251 -0.5863  0.4384  1.4772
10241SOL    HW231623   2.740   5.460   5.204 -1.9350  1.0774  2.2862
10242SOL     OW31624   4.965   4.087   4.416  0.5593 -0.2091  0.2925
10242SOL    HW131625   4.907   4.163   4.446  1.6258 -0.5263  3.5127
10242SOL    HW231626   5.061   4.115   4.419  0.8297 -0.9784 -0.7978
10243SOL     OW31627   5.148   0.773   3.909 -0.3808  0.0410  0.3259
10243SOL    HW131628   5.084   0.781   3.833 -0.7003  0.3454  0.6234
10243SOL    HW231629   5.201   0.858   3.917  1.8848 -1.1046 -1.5201
10244SOL     OW31630   0.699   5.039   1.806  0.0394  0.0597  0.1292
10244SOL    HW131631   0.660   5.128   1.826  1.5888  0.9544 -0.6066
10244SOL    HW231632   0.635   4.985   1.750  0.0986  1.7593 -1.6865
10245SOL     OW31633   2.883   6.940   2.035 -0.4693  0.0914  0.0013
10245SOL    HW131634   2.852   6.940   1.940  0.7139  0.7230 -0.3986
10245SOL    HW231635   2.844   6.861   2.082  0.0404 -1.0348 -1.3829
10246SOL     OW31636   0.420   6.930   2.511  0.3009 -0.2615 -0.4096
10246SOL    HW131637   0.333   6.904   2.468  0.0115 -1.9674  1.0753
10246SOL    HW231638   0.474   6.847   2.528  1.8275  0.6908 -0.4617
10247SOL     OW31639   6.207   1.652   3.246 -0.0551  0.5129 -0.0387
10247SOL    HW131640   6.182   1.562   3.209  0.6897 -0.6160  2.0087
10247SOL    HW231641   6.173   1.660   3.339  1.6634  1.4983  0.5615
10248SOL     OW31642   5.663   6.049   2.707  0.4929  0.6243  0.5043
10248SOL    HW131643   5.605   6.131   2.702 -1.4978 -0.7788 -1.3228
10248SOL    HW231644   5.622   5.984   2.771  0.0892 -0.3323 -0.7063
10249SOL     OW31645   6.741   2.505   5.780  0.1006 -0.3907  0.2229
10249SOL    HW131646   6.724   2.598   5.749  1.1384 -0.3890 -0.3882
10249SOL    HW231647   6.819   2.505   5.843 -0.4934 -0.7224  0.9691
10250SOL     OW31648   4.660   5.919   2.083  0.0699 -0.1983 -0.3542
10250SOL    HW131649   4.692   5.946   2.174 -0.2849  1.7482 -0.7699
10250SOL    HW231650   4.563   5.895   2.088  0.1635 -0.5454 -0.1441
10251SOL     OW31651   1.583   4.825   5.716  0.0183  0.4727  0.4642
10251SOL    HW131652   1.486   4.845   5.705  0.1783  0.9705 -0.0405
10251SOL    HW231653   1.617   4.778   5.635 -0.3989 -2.1553  1.6703
10252SOL     OW31654   4.339   2.921   5.313 -0.1778 -0.6389 -0.3935
10252SOL    HW131655   4.429   2.894   5.278  0.5422 -0.3861  1.1992
10252SOL    HW231656   4.290   2.840   5.344 -0.5187 -0.7787 -1.2724
10253SOL     OW31657   5.607   0.243   3.531  0.0441 -0.3864  0.0691
10253SOL    HW131658   5.602   0.342   3.545 -0.5757  0.1407 -3.0705
10253SOL    HW231659   5.702   0.217   3.516  0.1830 -0.2243  0.6550
10254SOL     OW31660   4.776   5.358   6.566  0.1957  0.2571 -0.5567
10254SOL    HW131661   4.780   5.400   6.656 -0.2330 -1.5635  0.3562
10254SOL    HW231662   4.687   5.377   6.524 -0.8428 -1.4034  0.7528
10255SOL     OW31663   2.486   5.864   5.017  0.3775 -0.2432 -0.0149
10255SOL    HW131664   2.520   5.816   4.936  0.4304  2.7461 -1.9226
10255SOL    HW231665   2.563   5.900   5.069  0.2888  0.0058 -0.0554
10256SOL     OW31666   1.505   4.515   1.500 -0.2050 -0.1153  0.1457
10256SOL    HW131667   1.448   4.434   1.484  0.5286 -0.7536  0.7071
10256SOL    HW231668   1.594   4.503   1.455 -0.7608  1.2266 -1.4255
10257SOL     OW31669   1.216   2.369   1.315 -0.5381 -0.0017 -0.0508
10257SOL    HW131670   1.312   2.347   1.296 -1.1862 -2.5154 -0.8282
10257SOL    HW231671   1.199   2.465   1.293  2.1023  0.9611  1.5594
10258SOL     OW31672   3.585   6.572   4.188 -0.8167  0.0220  0.1780
10258SOL    HW131673   3.530   6.645   4.148 -1.3362  0.1143  1.0316
10258SOL    HW231674   3.677   6.574   4.149 -1.0390  0.6763 -0.3292
10259SOL     OW31675   5.262   0.075   6.989 -0.2755  0.7728  0.3193
10259SOL    HW131676   5.279  -0.023   6.979 -3.1662  0.3712 -2.3610
10259SOL    HW231677   5.330   0.126   6.936 -1.2061 -0.1247 -1.8696
10260SOL     OW31678   6.645   3.069   0.309 -1.0086 -0.1561  0.3213
10260SOL    HW131679   6.572   3.127   0.344 -0.2092  0.3332  1.2406
10260SOL    HW231680   6.665   3.094   0.214 -0.4971  1.3141  0.7734
10261SOL     OW31681   0.154   4.599   4.690  0.0366  0.5053 -0.6898
10261SOL    HW131682   0.119   4.510   4.720 -1.5356  1.1175 -0.6660
10261SOL    HW231683   0.114   4.623   4.602  1.1231  0.8187 -1.1192
10262SOL     OW31684   4.828   6.893   5.692 -0.1177 -0.7112  0.1079
10262SOL    HW131685   4.884   6.833   5.635 -1.0065 -0.8750 -0.6071
10262SOL    HW231686   4.888   6.950   5.749  0.7582 -2.8745  1.5023
10263SOL     OW31687   6.077   6.093   1.055  0.2075  0.3471  0.1019
10263SOL    HW131688   6.061   6.149   1.137  0.9569  0.3427  0.2623
10263SOL    HW231689   6.035   6.136   0.976  0.3971  0.9161  0.3057
10264SOL     OW31690   6.899   4.896   1.371  0.3725  0.4961 -0.1836
10264SOL    HW131691   6.928   4.861   1.282  1.3918 -0.4139  0.5022
10264SOL    HW231692   6.836   4.831   1.413  0.6704  0.4516  0.1943
10265SOL     OW31693   6.847   6.212   4.603  0.0284 -0.2953 -0.4599
10265SOL    HW131694   6.884   6.159   4.527  0.4489  2.5343 -2.4032
10265SOL    HW231695   6.916   6.278   4.634 -1.5078  1.4005 -0.4748
10266SOL     OW31696   6.165   0.242   4.141  0.4191  0.2461  0.5880
10266SOL    HW131697   6.201   0.335   4.152 -0.2632  0.5746  0.1234
10266SOL    HW231698   6.102   0.221   4.215 -0.6110  0.7429 -0.1116
10267SOL     OW31699   0.109   5.689   4.732  0.6352 -0.2521 -0.9391
10267SOL    HW131700   0.100   5.652   4.640 -0.0158 -0.7880 -0.6680
10267SOL    HW231701   0.059   5.631   4.796  1.0633  0.1293 -0.2510
10268SOL     OW31702   1.347   4.265   5.535  0.0816  0.4553  0.1476
10268SOL    HW131703   1.285   4.210   5.592 -0.8124  0.7954 -0.4859
10268SOL    HW231704   1.330   4.362   5.551  1.0435  0.5598  0.5963
10269SOL     OW31705   3.225   6.612   5.490  0.1030  0.7354 -0.4308
10269SOL    HW131706   3.298   6.675   5.515  0.4582  0.3854 -0.5934
10269SOL    HW231707   3.263   6.522   5.471 -0.4541  0.3548  0.2193
10270SOL     OW31708   6.134   1.772   3.601 -0.2893  0.3766 -0.7433
10270SOL    HW131709   6.113   1.852   3.658  2.3477  0.2785  0.4913
10270SOL    HW231710   6.227   1.781   3.565 -1.0772 -0.6884 -3.1983
10271SOL     OW31711   5.295   4.576   3.367  0.2723  0.2944  0.4524
10271SOL    HW131712   5.350   4.615   3.441  0.8125  1.8328 -0.6893
10271SOL    HW231713   5.273   4.481   3.388  1.1553  0.4226  2.1567
10272SOL     OW31714   2.895   2.210   2.442  0.3485  0.4929  0.2800
10272SOL    HW131715   2.966   2.179   2.505  1.2744  1.4844 -0.2471
10272SOL    HW231716   2.929   2.205   2.348 -0.4372  0.5786 -0.0181
10273SOL     OW31717   0.034   0.014   4.643 -0.2446 -0.5072  0.0076
10273SOL    HW131718  -0.032   0.079   4.607 -0.8720 -0.0353  1.8886
10273SOL    HW231719   0.120   0.061   4.663 -0.5884 -0.3064  1.0553
10274SOL     OW31720   0.770   2.433   5.756 -0.7203 -0.2595 -0.0413
10274SOL    HW131721   0.833   2.493   5.706 -2.8761 -0.2026 -2.9306
10274SOL    HW231722   0.752   2.472   5.846  1.2130  1.1375 -0.1904
10275SOL     OW31723   2.981   4.875   2.848 -0.0870 -0.2727  0.4132
10275SOL    HW131724   3.025   4.928   2.920 -0.6192 -0.1425  0.6472
10275SOL    HW231725   3.051   4.831   2.792  0.3413 -1.1437  1.5779
10276SOL     OW31726   2.159   2.308   1.287 -0.8366  0.3060  0.2643
10276SOL    HW131727   2.148   2.366   1.368 -2.2242  0.4960 -0.0244
10276SOL    HW231728   2.068   2.276   1.258 -0.1530 -1.8796  0.3289
10277SOL     OW31729   6.730   4.831   2.010 -0.3940  0.2355  0.0592
10277SOL    HW131730   6.796   4.812   1.938 -1.5949 -0.0380 -0.9920
10277SOL    HW231731   6.732   4.756   2.077 -2.6508 -2.0408 -2.2486
10278SOL     OW31732   0.234   0.019   1.112  0.7884  0.5647  0.9026
10278SOL    HW131733   0.276  -0.016   1.028 -0.3529 -0.6785  0.8147
10278SOL    HW231734   0.293  -0.004   1.190  0.1113 -1.5831  0.8358
10279SOL     OW31735   5.416   5.729   1.576  0.1862  0.1306 -0.4199
10279SOL    HW131736   5.327   5.718   1.621 -0.6577  1.2288 -1.7251
10279SOL    HW231737   5.486   5.744   1.646 -0.5034 -1.4219  0.6806
10280SOL     OW31738   0.350   0.689   2.152 -0.3886 -0.1128  0.2306
10280SOL    HW131739   0.277   0.729   2.206 -0.0873 -0.7785  1.1534
10280SOL    HW231740   0.432   0.746   2.159 -0.2659 -0.3474  0.7080
10281SOL     OW31741   6.700   6.853   4.595  0.1451 -0.1115 -0.0222
10281SOL    HW131742   6.762   6.823   4.522 -0.0644 -2.1322  0.5579
10281SOL    HW231743   6.722   6.947   4.622  1.7240 -0.1394 -1.0932
10282SOL     OW31744   6.301   3.519   4.846 -0.1199  0.0433  0.8016
10282SOL    HW131745   6.353   3.594   4.886 -1.1199  0.8356  0.6672
10282SOL    HW231746   6.204   3.544   4.841 -0.3657 -0.9640  0.0603
10283SOL     OW31747   1.714   4.298   2.728 -0.3657  0.5559  0.0817
10283SOL    HW131748   1.668   4.386   2.715 -0.6581  0.6719  1.7445
10283SOL    HW231749   1.661   4.241   2.790  0.2688 -0.4673 -0.2836
10284SOL     OW31750   0.541   2.438   6.935  0.2881  1.0039  0.5399
10284SOL    HW131751   0.615   2.503   6.919 -1.0555  2.5343  0.2844
10284SOL    HW231752   0.541   2.370   6.862  2.6356 -0.2581  1.6028
10285SOL     OW31753   4.943   0.715   2.248 -0.4860  0.0152  0.1344
10285SOL    HW131754   4.852   0.756   2.249 -0.9452 -0.9801  1.0900
10285SOL    HW231755   4.935   0.616   2.237  0.5916  0.1076 -2.1742
10286SOL     OW31756   4.088   4.342   5.327  0.3749 -0.0115  0.0936
10286SOL    HW131757   4.133   4.255   5.346  0.4047  0.0733  0.4150
10286SOL    HW231758   4.124   4.381   5.242 -1.0964 -1.3006 -1.1903
10287SOL     OW31759   6.607   5.200   6.642  0.4313 -0.2954  0.2275
10287SOL    HW131760   6.632   5.108   6.610  2.7128  0.0564  0.7870
10287SOL    HW231761   6.687   5.260   6.634 -1.5104  2.2709 -2.1425
10288SOL     OW31762   4.330   3.622   1.390 -0.3416  0.0138  0.4598
10288SOL    HW131763   4.256   3.640   1.325  0.7223 -0.4057 -0.8992
10288SOL    HW231764   4.412   3.672   1.363 -0.1072  0.4775  1.9545
10289SOL     OW31765   0.601   3.514   0.296  0.3236  0.6241  0.0402
10289SOL    HW131766   0.502   3.527   0.286  0.2209  1.0795  1.4987
10289SOL    HW231767   0.646   3.602   0.307  0.7869  0.3506  0.3804
10290SOL     OW31768   4.870   3.074   0.934 -0.0364  0.1665  0.0935
10290SOL    HW131769   4.919   3.010   0.994  1.3202  1.6900  0.7037
10290SOL    HW231770   4.851   3.030   0.847  1.3222 -0.9013  0.2946
10291SOL     OW31771   4.562   5.016   3.587 -0.2934 -0.0052 -0.2933
10291SOL    HW131772   4.491   5.078   3.554 -1.3121 -0.8814  0.2160
10291SOL    HW231773   4.520   4.940   3.636  0.6922 -2.6909 -3.3074
10292SOL     OW31774   5.778   3.333   1.463  0.2960 -0.0232  0.6457
10292SOL    HW131775   5.744   3.307   1.372 -0.2036  1.1661  0.4715
10292SOL    HW231776   5.707   3.385   1.511  0.9565  0.2984  1.2867
10293SOL     OW31777   3.456   4.957   4.811  0.7710  0.0374  0.0111
10293SOL    HW131778   3.408   5.010   4.741  1.4034  0.6839  0.0591
10293SOL    HW231779   3.395   4.941   4.888  0.6144  0.7977  0.0475
10294SOL     OW31780   6.540   6.920   2.565 -0.4201 -0.3127 -0.3958
10294SOL    HW131781   6.627   6.871   2.565 -0.2791 -0.0754  0.2595
10294SOL    HW231782   6.545   6.996   2.630 -2.0040 -1.8522  1.6117
10295SOL     OW31783   3.855   5.826   1.190  0.0752 -0.0203  0.1103
10295SOL    HW131784   3.769   5.779   1.208 -0.2400  0.7161  0.6142
10295SOL    HW231785   3.864   5.903   1.253  0.1307  1.1621 -1.2847
10296SOL     OW31786   6.525   2.433   2.154 -0.0888  0.6541  0.0622
10296SOL    HW131787   6.492   2.416   2.246 -0.7915  0.3849 -0.2339
10296SOL    HW231788   6.583   2.514   2.154  1.8139 -0.6324  1.1643
10297SOL     OW31789   1.492   5.569   1.343 -0.1847  0.3894  0.1607
10297SOL    HW131790   1.572   5.589   1.288  1.3137  1.9314  2.6908
10297SOL    HW231791   1.488   5.471   1.363 -0.5730 -0.1403 -2.2401
10298SOL     OW31792   5.429   4.071   1.667 -0.0466 -0.4331 -0.0805
10298SOL    HW131793   5.351   4.024   1.708  1.0319 -1.3229  1.0141
10298SOL    HW231794   5.448   4.155   1.718 -0.4237 -0.0793 -0.5068
10299SOL     OW31795   5.602   6.848   3.393 -0.1450  0.0922  0.6614
10299SOL    HW131796   5.679   6.904   3.423  0.0951 -0.1896  0.5724
10299SOL    HW231797   5.516   6.891   3.421 -0.0388  1.4118 -0.8716
10300SOL     OW31798   1.075   0.019   5.084  0.2798 -0.5385  0.1767
10300SOL    HW131799   1.087   0.117   5.066  1.0847 -0.7966 -0.7403
10300SOL    HW231800   1.164  -0.023   5.102  0.1846 -1.4628 -1.3657
10301SOL     OW31801   3.150   0.855   2.292  0.0134  0.2304 -0.5535
10301SOL    HW131802   3.092   0.782   2.256 -1.5872  0.5625  1.2150
10301SOL    HW231803   3.097   0.939   2.302  1.4422  1.2520 -1.1518
10302SOL     OW31804   6.611   2.117   6.573  0.0886 -1.1054 -0.2728
10302SOL    HW131805   6.707   2.127   6.598 -0.3968  4.0924  0.7394
10302SOL    HW231806   6.569   2.043   6.627  2.9349 -1.8523  1.0858
10303SOL     OW31807   0.729   1.084   2.399 -0.1919 -0.3429  0.1001
10303SOL    HW131808   0.805   1.041   2.448  0.3483  0.5197  0.0376
10303SOL    HW231809   0.765   1.149   2.332 -0.9799 -0.0350 -0.0378
10304SOL     OW31810   3.815   3.959   6.601 -0.1173 -0.3854  0.0695
10304SOL    HW131811   3.895   3.907   6.631  0.8122 -0.0499 -1.7373
10304SOL    HW231812   3.738   3.940   6.663  1.2265 -0.9990  1.6199
10305SOL     OW31813   4.719   5.506   6.798 -0.3024 -0.0602 -0.3002
10305SOL    HW131814   4.619   5.512   6.795 -0.5043 -0.5435  2.4466
10305SOL    HW231815   4.748   5.486   6.892  2.4756  1.5439 -0.7042
10306SOL     OW31816   1.132   2.589   2.173  0.5626 -0.1146  0.1571
10306SOL    HW131817   1.147   2.497   2.211 -0.0759  0.4679  1.9278
10306SOL    HW231818   1.221   2.631   2.154  0.8743 -0.9046 -0.1877
10307SOL     OW31819   2.041   3.590   3.460  0.0615 -0.0999  0.0764
10307SOL    HW131820   2.002   3.543   3.381 -0.6047  2.7180 -1.4068
10307SOL    HW231821   1.973   3.651   3.499  1.6215  1.6625  0.1870
10308SOL     OW31822   2.882   0.396   0.381 -0.4425  0.1118  0.1783
10308SOL    HW131823   2.856   0.463   0.311 -0.8643 -0.7332 -0.4905
10308SOL    HW231824   2.930   0.443   0.455  0.6423  0.9493 -0.9928
10309SOL     OW31825   3.624   4.715   5.851  0.5109 -0.0563  0.2405
10309SOL    HW131826   3.700   4.780   5.855 -0.7677  1.4487  1.8882
10309SOL    HW231827   3.658   4.622   5.860  2.2708  0.4429 -0.7904
10310SOL     OW31828   6.109   5.399   1.207  0.2150  0.0053 -0.0764
10310SOL    HW131829   6.148   5.358   1.125  0.6015 -0.8668  0.5300
10310SOL    HW231830   6.180   5.410   1.276 -0.1044  0.7492  0.1437
10311SOL     OW31831   3.443   0.755   1.145 -0.4603 -0.0271 -0.0194
10311SOL    HW131832   3.520   0.739   1.083 -1.0814 -0.0452 -0.8007
10311SOL    HW231833   3.377   0.816   1.102 -0.5722  0.5243  0.9107
10312SOL     OW31834   6.422   0.300   0.902  0.4260  0.0273 -0.1818
10312SOL    HW131835   6.460   0.210   0.923 -1.7590 -1.2856 -1.5011
10312SOL    HW231836   6.413   0.311   0.803 -2.2873  0.3110  0.0158
10313SOL     OW31837   0.412   5.930   2.428  0.3257 -0.9509  0.0475
10313SOL    HW131838   0.355   5.865   2.479 -2.4559  1.5184  0.4101
10313SOL    HW231839   0.420   5.900   2.333  2.8516 -3.9464  1.0655
10314SOL     OW31840   1.024   1.314   4.799  0.1048  0.1572 -0.4042
10314SOL    HW131841   1.024   1.365   4.713 -1.5299 -1.0626 -1.1808
10314SOL    HW231842   1.096   1.246   4.797  1.4376  1.4926  0.0964
10315SOL     OW31843   0.546   5.284   1.011 -0.1608  0.1898 -0.5495
10315SOL    HW131844   0.576   5.353   1.077  1.0189  1.1151 -1.9912
10315SOL    HW231845   0.454   5.252   1.036 -0.9142  2.5525 -0.0296
10316SOL     OW31846   6.517   4.419   0.644  0.0228 -0.6707 -0.3258
10316SOL    HW131847   6.615   4.414   0.661  0.0668 -0.3897 -0.4969
10316SOL    HW231848   6.492   4.353   0.573 -0.1884 -1.9742  0.9154
10317SOL     OW31849   4.558   0.476   6.271 -0.2994  0.8174  0.1761
10317SOL    HW131850   4.481   0.534   6.299 -0.0321  1.0996  0.3375
10317SOL    HW231851   4.641   0.508   6.317 -0.1442  0.3234  0.2414
10318SOL     OW31852   0.412   4.323   1.899 -0.0718 -0.1773 -0.2724
10318SOL    HW131853   0.493   4.273   1.866 -0.4357 -1.6574  0.9595
10318SOL    HW231854   0.435   4.369   1.985 -0.4547 -0.4051 -0.0442
10319SOL     OW31855   2.067   4.855   6.819 -0.0403  0.1841 -0.4202
10319SOL    HW131856   2.064   4.864   6.720  2.9823  1.6357 -0.4863
10319SOL    HW231857   2.060   4.758   6.844  0.1939 -0.2969 -2.1274
10320SOL     OW31858   5.687   3.468   2.233  0.1334  0.2228  0.0659
10320SOL    HW131859   5.663   3.474   2.330 -0.8139 -2.6840  0.0911
10320SOL    HW231860   5.611   3.427   2.182  0.9313  0.9464 -1.7989
10321SOL     OW31861   3.114   1.586   1.409  0.3869  0.4532  0.4804
10321SOL    HW131862   3.084   1.519   1.477 -0.1781  0.0617 -0.1458
10321SOL    HW231863   3.119   1.677   1.452 -0.3851  0.2875  0.9386
10322SOL     OW31864   4.063   4.953   3.145  0.3910  0.3083 -0.3958
10322SOL    HW131865   4.088   4.884   3.077  0.0364  1.4612 -1.7497
10322SOL    HW231866   4.063   5.043   3.102 -2.1351  0.8317  0.5356
10323SOL     OW31867   0.026   0.526   3.148 -0.1976  0.2236 -0.8982
10323SOL    HW131868   0.123   0.548   3.158 -0.0412 -0.5769 -0.5268
10323SOL    HW231869   0.015   0.461   3.073 -0.4064  0.0950 -0.7566
10324SOL     OW31870   6.901   1.143   0.188  0.2993 -0.3365  0.5593
10324SOL    HW131871   6.905   1.119   0.285  0.4327 -0.2488  0.5767
10324SOL    HW231872   6.811   1.182   0.167 -0.2926 -1.7892  0.3042
10325SOL     OW31873   4.042   1.506   3.442 -0.3480  0.1045 -0.0655
10325SOL    HW131874   4.062   1.438   3.371 -1.6857 -2.0403  1.4936
10325SOL    HW231875   4.128   1.537   3.483  0.2849 -2.3305  0.6304
10326SOL     OW31876   2.360   5.547   1.862 -0.2749  0.0813 -0.3048
10326SOL    HW131877   2.270   5.555   1.906 -0.6210 -0.9141 -0.7930
10326SOL    HW231878   2.392   5.453   1.869  1.2771  0.6589  0.8596
10327SOL     OW31879   2.936   0.034   1.206 -0.3450 -0.1150 -0.1777
10327SOL    HW131880   2.938  -0.056   1.164  1.0510 -0.0619 -0.2680
10327SOL    HW231881   2.861   0.038   1.272  0.4256 -1.8342  0.8770
10328SOL     OW31882   1.014   6.316   1.193 -0.2157 -0.0634 -0.2759
10328SOL    HW131883   0.960   6.331   1.110  0.6408 -0.6844 -0.9591
10328SOL    HW231884   0.965   6.252   1.253 -0.4176 -0.3222 -0.7109
10329SOL     OW31885   0.656   6.019   6.384 -0.0499  0.8506 -0.0555
10329SOL    HW131886   0.695   6.111   6.383  0.4556  0.6392 -0.8835
10329SOL    HW231887   0.695   5.966   6.309 -2.8922  1.0581 -1.8425
10330SOL     OW31888   4.369   1.029   3.078  0.1470  0.2895 -0.3369
10330SOL    HW131889   4.348   1.013   2.982 -0.8788  1.2326 -0.2868
10330SOL    HW231890   4.343   1.123   3.103 -1.4346 -0.5510  1.3507
10331SOL     OW31891   1.484   0.259   4.660 -0.0174 -0.7575  0.6139
10331SOL    HW131892   1.443   0.183   4.711  1.7708 -1.3800  1.1774
10331SOL    HW231893   1.583   0.249   4.658  0.1742  0.9305 -0.3571
10332SOL     OW31894   4.992   1.711   5.836  0.1425 -1.0227 -0.2543
10332SOL    HW131895   4.910   1.768   5.833 -1.0784 -2.6885 -1.4942
10332SOL    HW231896   4.974   1.630   5.893  1.8138 -0.2452  1.4591
10333SOL     OW31897   6.355   3.576   6.627 -0.0258 -0.0720 -0.9332
10333SOL    HW131898   6.393   3.642   6.563  0.9824 -0.9958 -1.3260
10333SOL    HW231899   6.256   3.588   6.633  0.2678  2.3513  0.0605
10334SOL     OW31900   2.674   1.188   5.901 -0.0473  0.5027 -0.1560
10334SOL    HW131901   2.768   1.167   5.929  0.7182  2.5789 -1.0095
10334SOL    HW231902   2.657   1.286   5.911 -2.2131  0.1458  0.1380
10335SOL     OW31903   5.703   4.516   3.521  0.1586  0.1449  0.0418
10335SOL    HW131904   5.750   4.505   3.609  0.3244 -1.3464 -0.1926
10335SOL    HW231905   5.759   4.474   3.449 -0.4901  0.3678 -0.6003
10336SOL     OW31906   1.500   6.136   2.807  0.6048 -0.5047 -0.2597
10336SOL    HW131907   1.558   6.215   2.827 -0.2726  0.3442 -0.9494
10336SOL    HW231908   1.540   6.084   2.732  1.7136 -1.3130  0.8580
10337SOL     OW31909   0.258   5.517   5.158 -0.0485 -0.5612 -0.5137
10337SOL    HW131910   0.212   5.606   5.161  0.9356 -0.0532  0.4422
10337SOL    HW231911   0.197   5.449   5.117 -1.2070  0.3229 -0.3173
10338SOL     OW31912   3.149   6.022   0.210  0.7152  0.2356  0.2962
10338SOL    HW131913   3.228   6.018   0.149  2.6684 -0.8363  2.7347
10338SOL    HW231914   3.139   6.114   0.247  1.1955  0.2209  0.4564
10339SOL     OW31915   6.623   1.241   4.584  0.1699 -0.6017 -0.5164
10339SOL    HW131916   6.680   1.323   4.595  0.8867 -1.3919  2.4303
10339SOL    HW231917   6.649   1.194   4.499  1.0983  1.1763 -1.2638
10340SOL     OW31918   3.411   5.366   6.964  0.1134 -0.2732 -0.2857
10340SOL    HW131919   3.492   5.346   7.019 -0.6379 -0.1072  0.9268
10340SOL    HW231920   3.400   5.295   6.894  0.7205 -0.8775  0.2112
10341SOL     OW31921   5.247   5.103   0.478  0.1552  0.0103 -0.4260
10341SOL    HW131922   5.228   5.170   0.406  0.4941 -0.3249 -0.8290
10341SOL    HW231923   5.161   5.073   0.518  0.0370  2.0038  0.9863
10342SOL     OW31924   1.304   2.165   4.163  0.2907  0.1792  0.0861
10342SOL    HW131925   1.269   2.259   4.160  1.1427  0.6650  2.9297
10342SOL    HW231926   1.229   2.102   4.142 -0.0915  1.4366 -2.8288
10343SOL     OW31927   4.811   1.685   2.549 -0.5243  0.6546 -0.4822
10343SOL    HW131928   4.888   1.733   2.506 -0.3448  1.5448  0.7797
10343SOL    HW231929   4.749   1.751   2.591 -1.4073 -0.1182 -0.5311
10344SOL     OW31930   3.950   2.200   3.573 -0.2167 -0.0646  0.1029
10344SOL    HW131931   3.918   2.189   3.479  1.8992 -0.0857 -0.6801
10344SOL    HW231932   3.905   2.279   3.614 -2.0359 -0.7428 -0.4974
10345SOL     OW31933   2.633   4.185   6.231  0.2545  0.2725  0.1599
10345SOL    HW131934   2.534   4.198   6.235  0.2775  0.7460 -0.6592
10345SOL    HW231935   2.657   4.102   6.283 -0.6409 -0.2205 -0.1750
10346SOL     OW31936   0.145   3.972   2.682  1.1053  0.2757  0.3401
10346SOL    HW131937   0.076   3.962   2.610 -0.4545  0.6426  1.6983
10346SOL    HW231938   0.171   3.882   2.716  0.2623  0.1636  0.7158
10347SOL     OW31939   4.025   6.914   2.766 -0.1853  1.1440  0.0199
10347SOL    HW131940   3.946   6.855   2.782 -0.9614  2.1771  0.1221
10347SOL    HW231941   4.053   6.956   2.852  0.5532  0.6990  0.0006
10348SOL     OW31942   3.221   1.100   3.311  0.5054  0.1511  0.2504
10348SOL    HW131943   3.210   1.127   3.407 -0.5503 -0.4159  0.2948
10348SOL    HW231944   3.154   1.148   3.255  0.7673  0.0684 -0.1401
10349SOL     OW31945   2.642   2.146   0.059  0.1207  0.0589  0.2087
10349SOL    HW131946   2.730   2.132   0.013  0.4123  0.0583  0.7593
10349SOL    HW231947   2.637   2.239   0.093  0.0581 -0.0472  0.4915
10350SOL     OW31948   4.768   4.182   3.267 -0.1220  0.4923  0.0716
10350SOL    HW131949   4.778   4.096   3.217 -0.7455  0.8544 -0.7077
10350SOL    HW231950   4.697   4.237   3.224 -0.3468  1.0269  1.0953
10351SOL     OW31951   3.799   1.990   6.481  0.4651  0.1820  0.2767
10351SOL    HW131952   3.794   2.076   6.532 -1.5666 -0.9239  2.1419
10351SOL    HW231953   3.832   2.008   6.389  0.1796  2.9470  0.6180
10352SOL     OW31954   5.230   0.619   5.884  0.1906  0.1400  0.4688
10352SOL    HW131955   5.271   0.695   5.935 -0.9645  1.6465 -0.7326
10352SOL    HW231956   5.193   0.552   5.948 -3.1194  2.9736  1.8109
10353SOL     OW31957   5.222   2.168   6.703  0.1180  0.4072  0.2641
10353SOL    HW131958   5.230   2.102   6.628 -1.9731  1.1564 -0.7190
10353SOL    HW231959   5.233   2.121   6.790 -0.5510 -1.1140 -0.4295
10354SOL     OW31960   5.244   0.558   3.667  0.1448  0.2677  0.2142
10354SOL    HW131961   5.282   0.481   3.615 -0.9486 -1.7506  2.2429
10354SOL    HW231962   5.145   0.557   3.660  0.1159  1.5058  0.3124
10355SOL     OW31963   1.824   0.921   6.823 -0.3241 -0.9163 -0.3004
10355SOL    HW131964   1.773   0.884   6.745 -0.2467  1.7933 -1.7626
10355SOL    HW231965   1.922   0.916   6.804 -0.3331  1.7138 -1.4987
10356SOL     OW31966   3.917   6.269   1.787 -0.1450 -0.0469 -0.2143
10356SOL    HW131967   3.940   6.264   1.689  1.3193 -0.4224  0.1227
10356SOL    HW231968   3.903   6.177   1.822  1.6578 -0.1109  0.4222
10357SOL     OW31969   1.857   4.794   4.093  0.3078  0.1892  1.0147
10357SOL    HW131970   1.906   4.850   4.160 -0.4459  0.8565  1.0334
10357SOL    HW231971   1.883   4.698   4.103  1.0684  0.4388  1.4815
10358SOL     OW31972   5.106   0.244   1.759  0.4822 -0.0416 -0.5725
10358SOL    HW131973   5.106   0.175   1.687  0.3868  0.0797 -0.6880
10358SOL    HW231974   5.198   0.251   1.798  0.5234 -0.1365 -0.6523
10359SOL     OW31975   3.384   4.883   5.908  0.5536  0.1698 -0.0724
10359SOL    HW131976   3.363   4.965   5.855  1.3418  0.1979 -0.3624
10359SOL    HW231977   3.471   4.846   5.877  3.1610  2.3955  3.7214
10360SOL     OW31978   6.866   3.039   6.335  0.1533  0.2799  0.2572
10360SOL    HW131979   6.767   3.048   6.339  0.0845 -0.5065  0.4887
10360SOL    HW231980   6.909   3.108   6.394 -0.1492  2.2556 -1.6872
10361SOL     OW31981   5.745   0.266   4.745  0.0166  0.0242 -0.4979
10361SOL    HW131982   5.735   0.229   4.837 -0.1999 -0.5542 -0.7481
10361SOL    HW231983   5.841   0.270   4.720 -0.0030 -1.2928 -0.8316
10362SOL     OW31984   0.388   1.960   6.930  0.1120 -0.8603 -0.2347
10362SOL    HW131985   0.300   1.915   6.915 -1.7242  1.9857  1.2065
10362SOL    HW231986   0.432   1.978   6.842 -1.9489 -0.1602 -1.1745
10363SOL     OW31987   2.905   1.176   6.566 -0.0327 -0.4734 -0.1407
10363SOL    HW131988   2.805   1.184   6.560 -0.1637 -0.3235  1.6859
10363SOL    HW231989   2.942   1.257   6.612  0.9909 -0.3736 -1.0963
10364SOL     OW31990   2.624   0.887   4.425  0.0137  0.0524 -0.1713
10364SOL    HW131991   2.634   0.803   4.371 -0.9200 -0.2241  0.0680
10364SOL    HW231992   2.553   0.944   4.383 -0.2840  0.1143  0.4170
10365SOL     OW31993   5.977   5.638   1.136  0.0719  0.4027  0.1831
10365SOL    HW131994   5.912   5.611   1.065 -1.7469 -0.4538  2.0330
10365SOL    HW231995   6.027   5.557   1.167  0.8882  0.7790 -0.1493
10366SOL     OW31996   5.549   2.928   1.197  0.1683 -0.6419  0.5574
10366SOL    HW131997   5.596   2.988   1.133 -0.6597  0.1212  0.6587
10366SOL    HW231998   5.462   2.898   1.158 -0.3347 -0.1909  1.2899
10367SOL     OW31999   2.859   0.507   6.483  0.1370  0.8506 -0.9798
10367SOL    HW132000   2.827   0.597   6.454 -0.0612  1.1983  0.2626
10367SOL    HW232001   2.824   0.438   6.419 -0.4466  1.5585 -1.4505
10368SOL     OW32002   1.069   2.358   4.440  0.0106 -0.4734  0.3387
10368SOL    HW132003   1.111   2.267   4.447  0.4604 -0.3383 -0.5017
10368SOL    HW232004   1.050   2.379   4.344 -0.6753  0.0670  0.5790
10369SOL     OW32005   3.500   4.224   5.140 -0.8979 -0.0762  0.0842
10369SOL    HW132006   3.458   4.283   5.209 -0.1012  1.6170 -0.8145
10369SOL    HW232007   3.600   4.228   5.150 -0.8328 -1.1055 -0.1289
10370SOL     OW32008   1.993   5.313   2.230  0.6369 -0.1033  0.0763
10370SOL    HW132009   1.959   5.386   2.171 -1.9085  0.6285  2.2261
10370SOL    HW232010   2.052   5.352   2.301  0.3547 -0.3415  0.4441
10371SOL     OW32011   6.577   4.490   2.643 -0.0526  0.3874  0.2112
10371SOL    HW132012   6.481   4.519   2.636 -0.7409 -1.8539 -0.5010
10371SOL    HW232013   6.581   4.403   2.691  1.6743  0.5279  0.3596
10372SOL     OW32014   5.206   6.987   5.562  0.2196 -0.4310 -0.5777
10372SOL    HW132015   5.171   6.893   5.559  2.0059 -1.1955  0.5497
10372SOL    HW232016   5.132   7.049   5.588 -1.3794 -1.2572 -2.9223
10373SOL     OW32017   0.833   2.923   6.749 -0.0819  0.2094 -0.0210
10373SOL    HW132018   0.890   2.998   6.716  0.4259 -0.6536 -1.1860
10373SOL    HW232019   0.756   2.911   6.688  0.1055 -0.5203 -0.1232
10374SOL     OW32020   3.457   0.456   0.615 -0.1935  0.0905  0.3246
10374SOL    HW132021   3.468   0.534   0.676 -2.4104 -0.3278  1.3496
10374SOL    HW232022   3.530   0.389   0.633  0.4871  0.9725  0.9171
10375SOL     OW32023   0.244   6.299   1.539  0.1474 -0.6513 -0.4449
10375SOL    HW132024   0.230   6.202   1.555 -0.8038 -0.8701 -2.3477
10375SOL    HW232025   0.182   6.352   1.598 -0.1783 -1.2419 -0.2525
10376SOL     OW32026   5.793   3.085   0.628 -0.0345 -0.6279 -0.7162
10376SOL    HW132027   5.793   2.988   0.649 -2.0747 -0.9549 -1.9525
10376SOL    HW232028   5.703   3.124   0.650  0.3740  0.7114 -1.3297
10377SOL     OW32029   1.024   0.104   5.511 -0.2658 -0.4059  0.5423
10377SOL    HW132030   0.972   0.088   5.428 -0.6808 -0.6661  0.8488
10377SOL    HW232031   1.098   0.038   5.518 -0.1142 -0.2641  0.2881
10378SOL     OW32032   0.419   6.257   0.477 -0.2854 -0.4579 -0.0538
10378SOL    HW132033   0.348   6.292   0.538 -1.0778 -0.0464 -1.1806
10378SOL    HW232034   0.431   6.319   0.400  0.8195 -0.8791 -0.2370
10379SOL     OW32035   1.385   0.084   4.851 -0.0765 -0.6079 -0.1913
10379SOL    HW132036   1.334   0.154   4.901  1.2636 -0.1435  0.5855
10379SOL    HW232037   1.436   0.027   4.915  1.2352 -0.3566 -0.9542
10380SOL     OW32038   3.904   5.277   4.714 -0.2663  0.2516  0.4162
10380SOL    HW132039   3.986   5.238   4.674  0.4023  0.1746  1.7891
10380SOL    HW232040   3.823   5.230   4.678  0.3052  0.0957 -0.6855
10381SOL     OW32041   3.576   6.620   6.352  0.0498  0.0317  0.5014
10381SOL    HW132042   3.579   6.582   6.259  0.7664 -1.4711  1.1142
10381SOL    HW232043   3.482   6.644   6.374 -0.4340 -1.2986  0.0250
10382SOL     OW32044   0.385   1.183   6.954 -0.4958  0.2302 -0.7775
10382SOL    HW132045   0.409   1.228   6.869 -1.1589  0.6934 -0.7352
10382SOL    HW232046   0.416   1.089   6.953  0.1357  0.4411 -1.2330
10383SOL     OW32047   3.367   3.573   1.336 -0.1525 -0.0458 -0.4562
10383SOL    HW132048   3.465   3.553   1.339  0.4996  2.8072  1.5066
10383SOL    HW232049   3.317   3.502   1.386  1.6205  1.1324  3.4079
10384SOL     OW32050   4.889   4.573   2.406 -0.3571  0.1842 -0.2082
10384SOL    HW132051   4.829   4.493   2.405 -0.0087 -0.1393  1.8206
10384SOL    HW232052   4.974   4.552   2.357 -0.0474 -0.8930  0.7502
10385SOL     OW32053   1.465   4.004   0.726 -0.7950 -0.0190 -0.1177
10385SOL    HW132054   1.495   3.925   0.779 -2.4482 -0.0877  0.8024
10385SOL    HW232055   1.498   3.996   0.632 -1.3256 -2.0609 -0.1727
10386SOL     OW32056   0.481   4.799   2.525 -0.4924 -0.4654 -0.2340
10386SOL    HW132057   0.428   4.829   2.604 -0.1266  0.4659 -0.3252
10386SOL    HW232058   0.578   4.820   2.540 -0.1624 -1.8854 -0.1848
10387SOL     OW32059   1.609   5.288   5.304  0.6384 -0.1698 -0.0845
10387SOL    HW132060   1.686   5.240   5.263 -0.3430 -1.5438 -0.3817
10387SOL    HW232061   1.556   5.224   5.360 -1.2682  0.2874 -1.2645
10388SOL     OW32062   4.284   0.288   3.261 -0.2516  0.2295  0.2786
10388SOL    HW132063   4.232   0.372   3.274  1.7991  1.6216  0.0027
10388SOL    HW232064   4.255   0.219   3.328 -1.0897  1.6096  1.3700
10389SOL     OW32065   6.618   5.708   5.386 -0.6154 -0.1896 -0.4094
10389SOL    HW132066   6.563   5.686   5.467  0.4758 -0.3997  0.3042
10389SOL    HW232067   6.571   5.675   5.304 -2.6400  1.6677 -0.0796
10390SOL     OW32068   3.007   5.373   5.011 -0.4043  0.5213 -0.2594
10390SOL    HW132069   2.924   5.419   5.044 -0.5664  0.1516 -0.1400
10390SOL    HW232070   3.031   5.408   4.921 -0.2548  1.1756  0.0326
10391SOL     OW32071   0.422   1.465   3.023  0.3889  0.6616  0.1381
10391SOL    HW132072   0.432   1.401   3.099  0.4123  2.0185  1.3279
10391SOL    HW232073   0.511   1.503   2.999  0.2485  0.9682  0.0961
10392SOL     OW32074   5.758   1.727   6.934  0.1699 -0.4951 -0.6564
10392SOL    HW132075   5.750   1.629   6.954 -1.0328 -0.2675  0.0991
10392SOL    HW232076   5.837   1.743   6.875  0.7512 -1.8427 -0.2796
10393SOL     OW32077   5.892   1.021   2.532  0.8253  0.7253  0.2995
10393SOL    HW132078   5.857   0.999   2.623 -2.4985  0.9107 -0.7993
10393SOL    HW232079   5.922   0.937   2.486 -1.3623 -0.0048  0.1265
10394SOL     OW32080   3.934   0.492   1.437  0.0663 -0.8000 -0.5106
10394SOL    HW132081   3.936   0.573   1.379 -1.9117 -0.4226 -0.1524
10394SOL    HW232082   3.978   0.415   1.391  2.7952  0.6632 -0.4859
10395SOL     OW32083   1.843   2.988   2.305 -0.1163 -0.4275 -0.2061
10395SOL    HW132084   1.786   3.064   2.336  1.3542  0.4436  0.4448
10395SOL    HW232085   1.892   3.014   2.223 -0.2743 -1.0121 -0.4963
10396SOL     OW32086   4.113   1.991   3.654  0.1309 -0.0949  0.5178
10396SOL    HW132087   4.063   1.966   3.737  0.6043  0.0417  0.8446
10396SOL    HW232088   4.077   2.077   3.618  0.1298  0.0047  0.7556
10397SOL     OW32089   2.737   2.114   3.634 -0.0193 -0.3855 -0.5823
10397SOL    HW132090   2.756   2.069   3.722  0.4642  2.3954  0.8630
10397SOL    HW232091   2.648   2.085   3.601 -1.2648  0.0968  2.0332
10398SOL     OW32092   2.072   3.440   1.727 -0.4763  0.1285  0.0481
10398SOL    HW132093   2.118   3.445   1.816 -3.6095  0.7757  1.7742
10398SOL    HW232094   2.044   3.346   1.709  0.5932 -0.0940 -0.5522
10399SOL     OW32095   4.591   4.577   0.793  0.1893 -0.5223 -0.8785
10399SOL    HW132096   4.686   4.550   0.808  0.4353  1.0713  0.8057
10399SOL    HW232097   4.530   4.505   0.824  0.8226  0.3306  2.8720
10400SOL     OW32098   2.645   0.215   5.658 -0.0028 -0.0633 -0.7482
10400SOL    HW132099   2.726   0.181   5.611  1.4753  0.7527  1.0901
10400SOL    HW232100   2.672   0.266   5.740 -2.4054 -0.5140  0.4250
10401SOL     OW32101   4.260   4.267   0.372  0.3037  0.9712  0.3196
10401SOL    HW132102   4.218   4.265   0.281  1.3302 -1.3751 -0.1807
10401SOL    HW232103   4.329   4.339   0.376  1.5489 -0.0804 -1.4129
10402SOL     OW32104   0.242   5.889   1.004 -0.1381 -0.0987 -0.1579
10402SOL    HW132105   0.303   5.901   0.926 -0.5564 -0.2498 -0.5129
10402SOL    HW232106   0.202   5.977   1.028  1.1839  0.2486  0.8908
10403SOL     OW32107   4.289   1.331   6.146 -0.6718 -0.0305  0.3646
10403SOL    HW132108   4.387   1.344   6.163 -0.7312  1.2252 -0.1459
10403SOL    HW232109   4.276   1.251   6.087  0.1259  0.2860 -0.2676
10404SOL     OW32110   6.872   5.962   2.695 -0.0598  0.2804 -0.0662
10404SOL    HW132111   6.797   5.955   2.628 -0.4736 -1.7641  0.5469
10404SOL    HW232112   6.843   6.022   2.770 -0.5586  0.5778 -0.4853
10405SOL     OW32113   0.315   5.320   5.445  0.1748  0.2741 -0.3476
10405SOL    HW132114   0.277   5.372   5.521 -2.2553 -1.5670 -0.1626
10405SOL    HW232115   0.324   5.379   5.365 -0.1843  1.5238  0.5115
10406SOL     OW32116   5.944   2.518   6.198 -0.1939  0.8370  0.8709
10406SOL    HW132117   6.009   2.443   6.213 -0.7608  0.7783  3.5014
10406SOL    HW232118   5.928   2.566   6.284 -2.2002  2.0652 -0.1083
10407SOL     OW32119   0.056   2.695   4.473 -0.1492 -0.0985 -0.2275
10407SOL    HW132120   0.078   2.599   4.458  2.0347  0.5901 -1.9743
10407SOL    HW232121  -0.023   2.720   4.418 -0.4872 -0.7874 -0.0641
10408SOL     OW32122   4.324   6.887   1.518 -0.4433  0.1818  0.1340
10408SOL    HW132123   4.319   6.887   1.618  1.7946  0.9203  0.3107
10408SOL    HW232124   4.413   6.850   1.489 -0.9638  0.1821 -1.5869
10409SOL     OW32125   0.545   3.081   4.385 -0.5628  0.1742 -0.1809
10409SOL    HW132126   0.638   3.110   4.360  0.3443 -1.3579  1.2425
10409SOL    HW232127   0.537   3.078   4.484 -2.1918  0.3939 -0.2912
10410SOL     OW32128   1.037   6.546   4.304 -0.1454  0.3539  0.0316
10410SOL    HW132129   1.120   6.553   4.249  0.2980 -0.2822  0.6262
10410SOL    HW232130   1.042   6.610   4.381  0.0863 -0.1678  0.4509
10411SOL     OW32131   0.093   5.273   4.347  0.1024  0.1421 -0.2378
10411SOL    HW132132   0.127   5.185   4.381  0.6052  0.3699 -0.1388
10411SOL    HW232133   0.056   5.261   4.255 -0.2447 -0.2628 -0.0445
10412SOL     OW32134   4.108   2.310   5.851  0.2466 -0.3018  0.1317
10412SOL    HW132135   4.148   2.259   5.775  1.2809  0.0575  0.4125
10412SOL    HW232136   4.128   2.265   5.937 -0.6602 -0.5419  0.2321
10413SOL     OW32137   2.222   5.373   2.457  0.0340  0.3525  0.4856
10413SOL    HW132138   2.270   5.436   2.395 -0.1601  0.1422  0.1236
10413SOL    HW232139   2.285   5.302   2.487  0.1558  0.5125  0.6106
10414SOL     OW32140   6.478   0.505   4.013 -0.1168 -0.6129  0.0640
10414SOL    HW132141   6.495   0.419   3.964 -0.7929 -1.2462  0.9185
10414SOL    HW232142   6.381   0.514   4.032  0.0967 -0.2557  1.0483
10415SOL     OW32143   2.103   0.950   3.241 -0.3195  0.2670 -0.0724
10415SOL    HW132144   2.023   0.920   3.189 -1.0658  1.8627  0.0911
10415SOL    HW232145   2.102   1.050   3.249  1.6812  0.3142 -0.0141
10416SOL     OW32146   5.048   1.841   1.786 -0.1882 -0.8227  0.1549
10416SOL    HW132147   5.122   1.822   1.722 -0.3060 -0.6791 -0.0269
10416SOL    HW232148   4.988   1.762   1.793 -0.4795 -0.6519 -0.3292
10417SOL     OW32149   4.343   3.702   5.313 -0.2012 -0.3900 -0.3987
10417SOL    HW132150   4.270   3.701   5.381  1.3648 -1.0921  1.3580
10417SOL    HW232151   4.363   3.608   5.284  0.9515 -0.3635  0.2421
10418SOL     OW32152   0.162   3.186   0.431 -0.1784  0.2925  0.0658
10418SOL    HW132153   0.068   3.153   0.444 -0.5398  0.8909 -0.9476
10418SOL    HW232154   0.207   3.193   0.520 -1.1438  0.1423  0.5802
10419SOL     OW32155   2.863   5.523   1.209 -0.0945 -0.5353  0.2574
10419SOL    HW132156   2.934   5.578   1.166 -1.5849  0.0821 -1.5125
10419SOL    HW232157   2.780   5.578   1.222  0.1633 -0.7172  3.8556
10420SOL     OW32158   3.055   1.042   1.202  0.0598  0.4483 -0.1015
10420SOL    HW132159   3.007   0.959   1.174 -1.3824  0.6095  1.7162
10420SOL    HW232160   3.137   1.053   1.145  0.9651 -2.8285  0.3333
10421SOL     OW32161   0.681   5.156   0.821 -0.3982 -0.3786  0.0040
10421SOL    HW132162   0.651   5.062   0.807 -2.1816  0.2853 -1.1052
10421SOL    HW232163   0.628   5.198   0.895  0.1006 -0.1222  0.2224
10422SOL     OW32164   2.132   1.844   4.517  0.2593 -0.6449 -0.0363
10422SOL    HW132165   2.077   1.919   4.556 -0.3896 -0.9675 -0.3245
10422SOL    HW232166   2.175   1.793   4.591  2.7991  1.5115  0.1500
10423SOL     OW32167   1.280   6.555   1.049 -0.3214 -0.2125 -0.0773
10423SOL    HW132168   1.336   6.475   1.023 -0.9525 -0.7175  0.1044
10423SOL    HW232169   1.235   6.537   1.136 -0.3050  0.4358  0.0691
10424SOL     OW32170   4.316   0.717   2.497  0.0084 -0.3233  0.2405
10424SOL    HW132171   4.309   0.798   2.557  0.2078  0.4104 -0.7020
10424SOL    HW232172   4.300   0.745   2.402  1.5524 -1.1230 -0.2848
10425SOL     OW32173   2.696   3.997   6.648  0.0964 -0.1893  0.4599
10425SOL    HW132174   2.779   3.950   6.679  1.1477  2.0745  1.3346
10425SOL    HW232175   2.616   3.951   6.686  1.0344 -1.4307  1.0091
10426SOL     OW32176   0.327   3.139   3.675  0.2040 -0.3036 -0.4943
10426SOL    HW132177   0.397   3.072   3.700 -0.4611 -1.7531 -2.3159
10426SOL    HW232178   0.236   3.100   3.688 -0.2676  1.0150  0.3819
10427SOL     OW32179   1.829   4.146   2.295  0.3482 -0.6798 -0.0575
10427SOL    HW132180   1.806   4.070   2.235 -0.6705 -0.3476 -0.1114
10427SOL    HW232181   1.763   4.150   2.371 -1.2968  1.7025 -1.4677
10428SOL     OW32182   2.521   4.602   2.062  0.5105 -0.1339  0.2894
10428SOL    HW132183   2.467   4.535   2.112  2.2086 -0.6908  1.4503
10428SOL    HW232184   2.618   4.590   2.083  1.0273  1.4871 -0.9307
10429SOL     OW32185   6.921   2.372   5.503 -0.2773 -0.3081  0.7457
10429SOL    HW132186   6.883   2.392   5.593  0.5000 -1.3935  1.3426
10429SOL    HW232187   7.017   2.399   5.501  0.4277 -2.5398  1.1345
10430SOL     OW32188   6.586   4.032   4.505  0.2055  0.3997  0.1310
10430SOL    HW132189   6.585   4.060   4.409 -0.4936 -2.3962 -0.7624
10430SOL    HW232190   6.507   4.071   4.552 -1.1692 -0.6013 -1.2380
10431SOL     OW32191   3.055   1.300   6.336 -0.5053  1.0162 -0.0377
10431SOL    HW132192   3.021   1.260   6.421  0.2622  0.4767  0.0194
10431SOL    HW232193   2.978   1.326   6.278 -1.1444  3.6001  1.8074
10432SOL     OW32194   1.654   4.428   5.326 -0.2960  0.2508  0.0736
10432SOL    HW132195   1.655   4.335   5.364 -0.3922 -0.6702 -2.0709
10432SOL    HW232196   1.747   4.456   5.305 -0.3296  0.3926  0.1125
10433SOL     OW32197   6.547   5.272   5.943  0.1031 -0.3922 -0.2418
10433SOL    HW132198   6.529   5.356   5.994  1.8232 -0.7641  1.0605
10433SOL    HW232199   6.479   5.203   5.968  0.6273 -0.4128  1.2050
10434SOL     OW32200   3.842   6.093   5.955 -0.1786  0.6048 -0.1810
10434SOL    HW132201   3.805   6.021   6.014 -1.6814  1.0797 -0.5020
10434SOL    HW232202   3.936   6.114   5.983  0.6136 -2.0379 -0.6255
10435SOL     OW32203   5.556   0.030   4.656 -0.1003 -0.0466 -0.7253
10435SOL    HW132204   5.567   0.122   4.696  0.9199 -0.2808 -0.4279
10435SOL    HW232205   5.461   0.001   4.665 -0.1614  0.4463  0.3712
10436SOL     OW32206   6.369   3.325   1.418 -0.3342 -0.3104  0.2809
10436SOL    HW132207   6.335   3.313   1.511  1.2986 -0.1582  0.9297
10436SOL    HW232208   6.443   3.392   1.417  1.2638 -1.9622 -0.6961
10437SOL     OW32209   3.240   3.561   0.131 -0.3479 -0.1356  0.1329
10437SOL    HW132210   3.223   3.634   0.065 -2.0184  0.3025  0.9941
10437SOL    HW232211   3.332   3.569   0.167  0.1378  0.3908 -1.1827
10438SOL     OW32212   1.397   3.672   5.898 -0.6107 -0.3486  0.1554
10438SOL    HW132213   1.408   3.615   5.979 -3.2439  0.5566  1.2600
10438SOL    HW232214   1.317   3.642   5.847 -1.1310  1.3322 -0.0917
10439SOL     OW32215   2.126   0.101   1.051 -0.4697  0.1998 -0.6580
10439SOL    HW132216   2.123   0.141   1.142 -2.7056  2.0436 -1.4476
10439SOL    HW232217   2.083   0.010   1.052  0.2939 -0.1661  0.2477
10440SOL     OW32218   5.547   5.671   0.606 -0.2426  0.2173  0.2990
10440SOL    HW132219   5.495   5.701   0.526 -1.3430 -1.5527  0.3044
10440SOL    HW232220   5.635   5.633   0.575  0.1491  1.2509  0.1095
10441SOL     OW32221   1.093   5.520   1.914 -0.1038 -0.2310 -0.1371
10441SOL    HW132222   1.173   5.528   1.856  1.2598 -2.4590  1.2966
10441SOL    HW232223   1.111   5.565   2.002 -0.4972 -0.5559  0.1160
10442SOL     OW32224   4.546   6.056   4.897 -0.0029 -0.0363  0.2863
10442SOL    HW132225   4.508   6.145   4.924  2.1326  0.9751  0.1517
10442SOL    HW232226   4.532   6.043   4.799  0.0357  0.3342  0.2291
10443SOL     OW32227   3.994   6.578   4.771  0.3834 -0.2222 -0.3553
10443SOL    HW132228   3.913   6.540   4.726  0.7634  0.0468 -1.2922
10443SOL    HW232229   4.071   6.579   4.706  0.8285  0.5721  0.1706
10444SOL     OW32230   0.911   6.870   1.913  0.2142 -1.4521 -0.7228
10444SOL    HW132231   0.953   6.892   2.001 -2.3348 -1.3728  0.5945
10444SOL    HW232232   0.905   6.771   1.903  0.3924 -1.4608 -0.7405
10445SOL     OW32233   2.071   5.755   6.941 -0.4764 -0.5362 -0.3656
10445SOL    HW132234   2.075   5.675   7.001  0.1102  0.2912  0.7321
10445SOL    HW232235   2.023   5.829   6.987  0.0922  0.1609 -0.8756
10446SOL     OW32236   1.502   6.401   4.457 -0.0138  0.9077  0.3985
10446SOL    HW132237   1.434   6.434   4.522 -1.9223 -0.2316 -0.9381
10446SOL    HW232238   1.584   6.372   4.507 -1.9846 -1.4423  2.5178
10447SOL     OW32239   4.633   2.596   2.183 -0.2611 -0.2556  0.1397
10447SOL    HW132240   4.551   2.539   2.169 -0.0758 -0.7694  1.0968
10447SOL    HW232241   4.637   2.666   2.111 -1.7512  0.0199  0.2909
10448SOL     OW32242   0.563   3.991   1.186  0.3882  0.8161  0.4021
10448SOL    HW132243   0.541   3.973   1.282  3.1470 -1.6850  0.7282
10448SOL    HW232244   0.541   3.911   1.131 -1.1563  2.2194 -1.1527
10449SOL     OW32245   4.643   5.398   0.327  0.2053  0.2423 -0.0499
10449SOL    HW132246   4.734   5.365   0.352 -0.3326 -0.0408  1.6892
10449SOL    HW232247   4.574   5.338   0.368 -0.7714  0.9951 -0.5484
10450SOL     OW32248   1.601   3.133   6.265 -0.4474  0.0126 -0.1693
10450SOL    HW132249   1.676   3.077   6.300 -0.7872 -2.1510 -2.6458
10450SOL    HW232250   1.631   3.180   6.182 -1.0389  1.3630  0.3535
10451SOL     OW32251   6.417   4.238   0.454 -0.6673 -0.0315 -0.3271
10451SOL    HW132252   6.323   4.210   0.436 -0.8651  0.8413 -0.6931
10451SOL    HW232253   6.479   4.189   0.392 -0.6608 -1.9980  1.1410
10452SOL     OW32254   1.066   0.441   2.116 -0.7256  0.1942 -0.1954
10452SOL    HW132255   1.100   0.443   2.210  1.3649  0.9127 -0.9073
10452SOL    HW232256   0.979   0.391   2.113 -0.2620 -0.8679  1.9226
10453SOL     OW32257   2.897   5.301   5.389 -0.7170  0.2552  0.3736
10453SOL    HW132258   2.918   5.212   5.429  3.7181  0.2782 -1.3969
10453SOL    HW232259   2.829   5.290   5.317 -1.9294 -1.2425  1.6804
10454SOL     OW32260   2.063   1.479   2.656 -0.0089  0.0273  0.6059
10454SOL    HW132261   1.986   1.525   2.611  1.7775  1.8147 -0.8150
10454SOL    HW232262   2.070   1.385   2.622  0.1647  0.7607 -1.5450
10455SOL     OW32263   1.001   0.429   0.292 -0.2022  0.6948  0.1542
10455SOL    HW132264   1.088   0.478   0.296  1.4576 -1.9446 -0.8098
10455SOL    HW232265   0.939   0.474   0.227  1.3657  1.3189 -0.9588
10456SOL     OW32266   6.275   3.393   6.862  0.3752  0.1291 -0.0024
10456SOL    HW132267   6.332   3.350   6.932 -0.6689  1.6707  1.8948
10456SOL    HW232268   6.316   3.479   6.833  0.3533 -0.0740 -0.6658
10457SOL     OW32269   5.667   1.579   6.503 -0.3328  0.2363 -0.0244
10457SOL    HW132270   5.766   1.562   6.508 -0.1257  1.1258 -0.7469
10457SOL    HW232271   5.639   1.585   6.407 -1.4027 -1.6076  0.1211
10458SOL     OW32272   4.828   3.669   4.148  0.0641  0.2903  0.2173
10458SOL    HW132273   4.865   3.749   4.195  0.0466 -0.0051  0.7321
10458SOL    HW232274   4.732   3.686   4.124  0.2852  0.7380 -0.4030
10459SOL     OW32275   3.859   3.566   4.944 -0.0516 -0.1761 -0.4553
10459SOL    HW132276   3.948   3.604   4.920 -0.4835  0.0827 -1.7496
10459SOL    HW232277   3.861   3.531   5.037  1.1031  0.7207 -0.1268
10460SOL     OW32278   1.631   3.647   4.910  0.0229 -0.2377 -0.4580
10460SOL    HW132279   1.642   3.662   4.812 -1.7561 -0.5692 -0.7431
10460SOL    HW232280   1.610   3.734   4.955 -0.1528 -0.2377 -0.5372
10461SOL     OW32281   3.847   0.636   3.538  0.1213  0.0566 -0.2239
10461SOL    HW132282   3.761   0.586   3.544 -0.1051  0.4512 -0.1975
10461SOL    HW232283   3.893   0.612   3.452 -0.5170  0.6515 -0.7462
10462SOL     OW32284   5.935   2.965   6.971  0.7811 -0.2277  0.1785
10462SOL    HW132285   5.916   2.876   7.012 -0.8141  0.4908  1.0906
10462SOL    HW232286   5.919   2.961   6.872 -1.4880 -0.4318  0.5081
10463SOL     OW32287   0.923   0.982   0.525  0.2359  0.4673  0.3118
10463SOL    HW132288   0.960   1.008   0.614 -2.0859 -0.3600  1.5912
10463SOL    HW232289   0.972   0.901   0.491  0.4948  0.1811  1.3197
10464SOL     OW32290   6.671   1.154   4.029  0.2616  0.2420 -0.1560
10464SOL    HW132291   6.620   1.227   4.075 -0.7770 -0.4947 -0.0983
10464SOL    HW232292   6.607   1.095   3.980  1.1682 -0.1562 -0.8835
10465SOL     OW32293   3.724   0.525   0.316  0.3419  0.3174  0.1946
10465SOL    HW132294   3.687   0.444   0.362  0.6485 -1.2428 -2.1416
10465SOL    HW232295   3.648   0.585   0.289 -0.0431 -0.1208  0.2862
10466SOL     OW32296   3.704   5.370   1.103  0.2436 -0.2460  0.0522
10466SOL    HW132297   3.788   5.419   1.128 -1.9341  2.5633  2.6205
10466SOL    HW232298   3.633   5.436   1.080 -1.8467 -2.4429 -0.1155
10467SOL     OW32299   0.022   2.071   4.952 -0.0585  0.0209 -0.0470
10467SOL    HW132300   0.037   2.009   5.029  1.5420  0.6434  0.1840
10467SOL    HW232301  -0.075   2.072   4.928 -0.2676 -1.7999  0.5787
10468SOL     OW32302   6.067   2.425   2.877  0.3410  0.0293  0.2703
10468SOL    HW132303   6.054   2.524   2.881  0.6028  0.0406  0.9262
10468SOL    HW232304   6.007   2.381   2.944 -0.4503 -0.3263 -0.6563
10469SOL     OW32305   0.908   6.945   2.889 -0.0238  0.1350 -0.4391
10469SOL    HW132306   0.918   6.952   2.988  1.3246  1.5280 -0.6398
10469SOL    HW232307   0.998   6.951   2.846 -0.7481  1.8971 -1.8486
10470SOL     OW32308   5.403   5.912   6.800  0.0567  0.1468 -0.2375
10470SOL    HW132309   5.344   5.841   6.762  1.8910 -1.7982  0.3191
10470SOL    HW232310   5.390   5.918   6.899  0.7664 -0.3071 -0.1084
10471SOL     OW32311   2.195   3.216   4.925 -0.4981 -0.3086 -0.3293
10471SOL    HW132312   2.241   3.131   4.953 -0.7910  0.2357  2.0720
10471SOL    HW232313   2.194   3.279   5.002 -1.9676  1.1598 -1.4856
10472SOL     OW32314   6.705   3.535   2.194  0.0809 -0.5934  0.5002
10472SOL    HW132315   6.746   3.532   2.284 -0.0283 -0.2877  0.5623
10472SOL    HW232316   6.710   3.628   2.158 -3.8236  0.4360  2.0667
10473SOL     OW32317   0.691   6.021   3.436 -0.2658  0.5627  0.0869
10473SOL    HW132318   0.691   5.922   3.422  0.4024  0.7244 -1.2092
10473SOL    HW232319   0.782   6.051   3.464 -0.6073  0.7586  1.0324
10474SOL     OW32320   1.418   5.754   4.403  0.4449 -0.0138  0.5569
10474SOL    HW132321   1.363   5.673   4.383  0.4380  0.2136 -0.4355
10474SOL    HW232322   1.392   5.792   4.492  0.7660 -1.3472  1.2380
10475SOL     OW32323   2.930   5.094   1.134 -0.3619 -0.6808 -0.2489
10475SOL    HW132324   2.838   5.130   1.118  0.7280  2.1082 -0.9121
10475SOL    HW232325   2.988   5.167   1.170  1.8905 -1.9972 -1.0108
10476SOL     OW32326   4.102   6.962   4.357 -0.0459  0.5160 -0.2807
10476SOL    HW132327   4.111   7.059   4.333 -0.4482 -0.0063 -2.7906
10476SOL    HW232328   4.112   6.952   4.456  0.3100  3.0680  0.0254
10477SOL     OW32329   4.873   3.990   5.374 -0.1172 -0.5879  0.0631
10477SOL    HW132330   4.811   3.926   5.329 -1.8344 -0.6460  2.3137
10477SOL    HW232331   4.897   4.064   5.311 -2.9667 -0.2521 -0.7511
10478SOL     OW32332   6.703   5.923   2.208  0.7263 -0.6935 -0.5060
10478SOL    HW132333   6.635   5.855   2.180 -0.6138  0.7960 -1.0644
10478SOL    HW232334   6.760   5.947   2.130 -0.7606  0.9472 -1.1508
10479SOL     OW32335   0.868   0.053   4.100  0.0793  0.4385  0.5857
10479SOL    HW132336   0.831   0.060   4.193 -0.5218 -1.3480  0.5312
10479SOL    HW232337   0.908  -0.038   4.088  0.6987  0.8696 -0.7142
10480SOL     OW32338   6.186   1.200   3.784 -0.2612  0.9020 -0.6137
10480SOL    HW132339   6.132   1.183   3.701  0.1086 -0.8842 -0.5283
10480SOL    HW232340   6.194   1.116   3.836  2.5151  1.1223 -0.5682
10481SOL     OW32341   1.795   5.767   6.022  0.3287 -0.7603  0.0296
10481SOL    HW132342   1.755   5.834   5.960  2.1645 -0.3282 -0.7528
10481SOL    HW232343   1.860   5.812   6.083  1.9170 -1.8195 -0.7912
10482SOL     OW32344   5.252   0.767   5.575  0.3621  0.6612  0.0879
10482SOL    HW132345   5.218   0.689   5.629 -0.7050  0.4882 -0.7993
10482SOL    HW232346   5.177   0.805   5.521  0.6117  2.9384  1.2196
10483SOL     OW32347   1.814   3.643   1.229 -0.2199 -0.2512  0.1597
10483SOL    HW132348   1.729   3.591   1.226 -0.0853 -0.7049  2.5204
10483SOL    HW232349   1.889   3.587   1.193 -0.6066 -0.5363 -0.2041
10484SOL     OW32350   5.277   5.153   0.908 -0.7567 -0.1459  0.2502
10484SOL    HW132351   5.327   5.109   0.833 -0.9407 -1.4138  0.8297
10484SOL    HW232352   5.222   5.228   0.873  2.3863  2.1109 -0.2870
10485SOL     OW32353   0.519   0.056   3.982  0.0883  0.5126 -0.3069
10485SOL    HW132354   0.554   0.059   3.888 -0.1651  0.9382 -0.3898
10485SOL    HW232355   0.523   0.147   4.022 -0.5850  0.5010 -0.1930
10486SOL     OW32356   3.165   4.396   0.842 -0.1552 -0.2816  0.0945
10486SOL    HW132357   3.107   4.473   0.868 -1.1802 -0.5806 -1.2041
10486SOL    HW232358   3.109   4.314   0.833  0.6876 -0.8597  0.0513
10487SOL     OW32359   3.779   6.358   5.886  0.1972  0.0232 -0.3860
10487SOL    HW132360   3.810   6.419   5.960  3.1736  0.2116 -1.6527
10487SOL    HW232361   3.783   6.263   5.917  0.8753  0.1368 -0.1172
10488SOL     OW32362   5.237   6.728   4.698 -0.1572 -0.0357  0.1962
10488SOL    HW132363   5.329   6.700   4.668 -0.2630  0.3471 -0.4880
10488SOL    HW232364   5.226   6.826   4.683 -1.7357 -0.5528 -2.5482
10489SOL     OW32365   4.155   0.343   3.630  0.3221  0.2042 -0.1464
10489SOL    HW132366   4.106   0.413   3.579  1.6809  1.2257 -0.1184
10489SOL    HW232367   4.253   0.363   3.628  0.5243 -0.3107  1.9750
10490SOL     OW32368   5.432   4.974   2.243  0.1638  0.6778  0.2666
10490SOL    HW132369   5.481   5.047   2.291 -1.8027  1.6650  0.8748
10490SOL    HW232370   5.372   5.014   2.174 -1.2092 -0.3034  0.8412
10491SOL     OW32371   3.894   6.377   3.948  0.1563  0.2230 -0.2519
10491SOL    HW132372   3.901   6.470   3.983  2.1280  0.2481 -0.5531
10491SOL    HW232373   3.799   6.356   3.924 -0.4700  1.7859  0.7639
10492SOL     OW32374   1.649   6.500   3.582 -0.3946  0.6700  0.1154
10492SOL    HW132375   1.611   6.525   3.494  0.7913 -0.2614 -0.6993
10492SOL    HW232376   1.696   6.578   3.623  1.2336  0.4690 -1.2809
10493SOL     OW32377   0.478   2.691   4.239  0.3312 -0.1584 -0.5038
10493SOL    HW132378   0.418   2.700   4.160  2.0960  3.0942 -1.6541
10493SOL    HW232379   0.444   2.747   4.314 -0.5523 -2.0941  0.6120
10494SOL     OW32380   2.870   3.198   0.653 -0.1174 -0.2362  0.2794
10494SOL    HW132381   2.795   3.169   0.712  0.0286  0.6608  0.9469
10494SOL    HW232382   2.923   3.119   0.624 -1.0342 -0.8294  0.1946
10495SOL     OW32383   0.004   3.663   2.288  0.3381 -0.3671  0.5738
10495SOL    HW132384   0.057   3.662   2.204  0.6233 -0.6526  0.7565
10495SOL    HW232385  -0.035   3.572   2.305  0.1382 -0.2680  0.6620
10496SOL     OW32386   1.868   3.133   4.663 -0.2189  0.3872  0.1696
10496SOL    HW132387   1.963   3.163   4.657 -0.4632  0.9662 -1.5848
10496SOL    HW232388   1.864   3.033   4.666  0.5082  0.3788  3.3211
10497SOL     OW32389   1.377   0.376   6.310  0.3192 -0.0847  0.1097
10497SOL    HW132390   1.473   0.363   6.285  0.3979 -0.5525  0.6131
10497SOL    HW232391   1.337   0.287   6.335  0.3099  0.3380  1.7602
10498SOL     OW32392   5.249   1.642   3.282  0.1325 -0.0528  0.0197
10498SOL    HW132393   5.269   1.636   3.184  2.2882 -2.5644  0.5018
10498SOL    HW232394   5.301   1.572   3.331 -0.6956  1.2724  3.0238
10499SOL     OW32395   5.237   5.120   4.944  0.1040  0.1669  0.3185
10499SOL    HW132396   5.317   5.067   4.974  0.1771  0.3271  0.4101
10499SOL    HW232397   5.266   5.213   4.920  0.1619 -0.1618 -0.9229
10500SOL     OW32398   5.044   1.988   2.454  0.3470 -0.2602 -0.0286
10500SOL    HW132399   5.071   1.997   2.550  0.9564  2.4518 -0.3692
10500SOL    HW232400   5.047   2.078   2.410 -3.0876 -0.8557 -1.8026
10501SOL     OW32401   4.579   4.061   0.965  0.0980 -0.1069 -0.2893
10501SOL    HW132402   4.652   4.077   1.031  0.5177  1.4375 -1.0836
10501SOL    HW232403   4.526   3.981   0.993  0.7540  0.0246  1.4623
10502SOL     OW32404   5.867   2.389   4.074  0.4209  0.4639  0.3057
10502SOL    HW132405   5.800   2.315   4.078 -1.4415  1.9693 -1.0530
10502SOL    HW232406   5.940   2.366   4.010 -0.2915 -0.0946 -0.3156
10503SOL     OW32407   5.725   6.486   1.175 -0.5717 -0.1777  0.1322
10503SOL    HW132408   5.706   6.556   1.244 -1.0610  1.3091 -1.4591
10503SOL    HW232409   5.657   6.413   1.182  0.0254 -0.6191  1.9012
10504SOL     OW32410   0.189   1.877   1.315  0.4077  0.8237 -0.0501
10504SOL    HW132411   0.202   1.909   1.221  0.1832  3.8242  0.8179
10504SOL    HW232412   0.092   1.863   1.333  0.4391  0.3830 -0.2137
10505SOL     OW32413   0.115   6.545   5.991 -0.2899 -0.6071  0.4959
10505SOL    HW132414   0.161   6.604   6.057 -1.4390  0.5199  0.3178
10505SOL    HW232415   0.052   6.599   5.935 -0.8588 -1.8882 -0.1506
10506SOL     OW32416   0.124   3.667   3.307  0.0761 -0.3014 -0.0836
10506SOL    HW132417   0.183   3.619   3.372 -0.3113  0.7151  1.0640
10506SOL    HW232418   0.114   3.613   3.224  1.4847 -1.1360  0.2583
10507SOL     OW32419   6.348   3.761   0.987  0.1601  0.9164  0.3153
10507SOL    HW132420   6.308   3.782   1.076 -0.5608 -0.4646  0.3421
10507SOL    HW232421   6.447   3.775   0.990  0.0411  1.7128  1.0584
10508SOL     OW32422   4.406   4.661   3.051 -0.1310  0.1290  0.1043
10508SOL    HW132423   4.384   4.621   2.962  0.2169  0.0168  0.0650
10508SOL    HW232424   4.490   4.715   3.043  0.0107 -0.0412  0.4057
10509SOL     OW32425   5.380   2.666   4.590  0.8394 -0.2858 -0.7879
10509SOL    HW132426   5.337   2.710   4.669 -0.2709  0.5499 -1.8271
10509SOL    HW232427   5.458   2.612   4.621 -0.3767 -1.0948  1.0514
10510SOL     OW32428   0.273   5.340   6.920  0.4019 -0.0199  0.2902
10510SOL    HW132429   0.277   5.325   6.822 -3.5861 -1.2628  0.1459
10510SOL    HW232430   0.288   5.253   6.968  1.5036  0.4194  0.7653
10511SOL     OW32431   4.113   6.943   1.362 -0.0344  0.2556 -0.1147
10511SOL    HW132432   4.156   6.902   1.281 -1.6611 -0.6906 -0.5345
10511SOL    HW232433   4.171   6.927   1.442  1.4777  0.9915 -1.0235
10512SOL     OW32434   4.536   6.115   6.984  0.0090  0.3588  0.0139
10512SOL    HW132435   4.581   6.026   6.990 -2.4360 -1.1228 -1.7691
10512SOL    HW232436   4.464   6.121   7.054  0.1227  0.8976  0.0853
10513SOL     OW32437   5.226   0.679   2.352 -0.5623  0.0024 -0.1819
10513SOL    HW132438   5.285   0.651   2.276  0.0875 -1.0237  0.6603
10513SOL    HW232439   5.154   0.611   2.365 -0.0179 -0.4159  0.7891
10514SOL     OW32440   4.113   2.392   5.478  0.4436 -0.4261  0.4053
10514SOL    HW132441   4.210   2.379   5.456 -0.5348 -4.4359 -2.5619
10514SOL    HW232442   4.070   2.448   5.406  0.1504 -0.3777  0.6174
10515SOL     OW32443   6.481   5.636   0.235 -0.6673 -0.1119 -0.2240
10515SOL    HW132444   6.384   5.618   0.252 -0.5685  0.1656  0.6941
10515SOL    HW232445   6.536   5.592   0.306 -0.2020  0.7404 -0.0426
10516SOL     OW32446   4.623   2.116   3.935  0.8196  0.3482 -0.4713
10516SOL    HW132447   4.681   2.122   3.853 -0.3258  0.3699 -1.3082
10516SOL    HW232448   4.560   2.194   3.937  0.3695 -0.0226  0.0648
10517SOL     OW32449   3.448   1.200   3.139 -0.0767  0.0296  0.6187
10517SOL    HW132450   3.432   1.118   3.194 -0.5214  0.1896  0.7380
10517SOL    HW232451   3.376   1.208   3.070  1.0118 -0.6986 -0.6544
10518SOL     OW32452   1.361   3.210   2.933 -0.2211 -0.0182  0.0910
10518SOL    HW132453   1.293   3.164   2.877  0.2363  0.6430 -1.0428
10518SOL    HW232454   1.437   3.147   2.951 -0.5392 -0.3496  0.2995
10519SOL     OW32455   5.874   3.037   6.212 -0.1165 -0.1764  0.2465
10519SOL    HW132456   5.800   3.049   6.147 -1.3438 -1.9381  1.2295
10519SOL    HW232457   5.930   2.958   6.185  0.9389  0.6354 -0.0329
10520SOL     OW32458   6.164   6.603   3.602 -0.2100  0.3388  0.3913
10520SOL    HW132459   6.097   6.582   3.530 -0.1328 -0.1502  0.4572
10520SOL    HW232460   6.214   6.686   3.577 -0.1319  0.1351 -0.1629
10521SOL     OW32461   0.910   1.067   1.730 -0.0466 -0.0642  0.4060
10521SOL    HW132462   0.888   1.052   1.827  1.8885  1.2193  1.0979
10521SOL    HW232463   0.826   1.072   1.677 -1.1707 -0.3222  2.0912
10522SOL     OW32464   3.441   6.929   3.721  0.4620 -0.0145  0.0654
10522SOL    HW132465   3.384   7.001   3.681  1.3581  0.2339 -0.7949
10522SOL    HW232466   3.422   6.842   3.676  0.5293  0.0059 -0.0035
10523SOL     OW32467   4.370   6.549   5.084  0.2590  0.0684  0.0070
10523SOL    HW132468   4.341   6.597   5.002 -0.3747 -0.2934  0.0115
10523SOL    HW232469   4.414   6.463   5.059  1.5981  0.7354 -0.0107
10524SOL     OW32470   4.896   4.735   4.222  0.2472 -0.0777 -0.0773
10524SOL    HW132471   4.859   4.810   4.167 -0.8053 -1.4563 -1.3235
10524SOL    HW232472   4.940   4.773   4.304  1.8033  2.0650 -1.7649
10525SOL     OW32473   1.326   5.632   2.773 -0.3560 -0.2706 -0.2182
10525SOL    HW132474   1.389   5.585   2.836  0.0809 -0.1579 -0.5666
10525SOL    HW232475   1.359   5.622   2.679 -0.8992 -0.2661 -0.4128
10526SOL     OW32476   6.360   3.589   2.941 -0.0899 -0.4337 -0.0571
10526SOL    HW132477   6.335   3.530   2.864  0.5885 -0.4529 -0.2669
10526SOL    HW232478   6.311   3.560   3.023 -1.9883  0.5245 -0.8055
10527SOL     OW32479   1.428   2.468   1.170 -0.4756 -0.4177 -0.1816
10527SOL    HW132480   1.377   2.527   1.108  0.1886  0.3660  0.0023
10527SOL    HW232481   1.488   2.408   1.117  0.2007  0.3536 -0.3066
10528SOL     OW32482   5.701   5.848   4.331  0.4193  0.3630 -0.1853
10528SOL    HW132483   5.634   5.923   4.330  1.2883  1.2903  2.2426
10528SOL    HW232484   5.653   5.760   4.330 -0.9070  1.0005  1.5458
10529SOL     OW32485   5.856   5.709   2.660  0.1254  0.5722 -0.1336
10529SOL    HW132486   5.781   5.720   2.726  0.0670 -0.7556  0.0542
10529SOL    HW232487   5.944   5.720   2.707  0.1402 -2.0084  0.6004
10530SOL     OW32488   0.685   2.369   6.525 -0.7849  0.0519  0.2751
10530SOL    HW132489   0.762   2.307   6.510  0.4031  1.1351  1.6675
10530SOL    HW232490   0.644   2.350   6.614  0.5541  2.1772  1.4135
10531SOL     OW32491   0.163   1.809   6.845 -0.4866  0.2765 -0.2094
10531SOL    HW132492   0.209   1.750   6.779  0.6010 -0.8737  1.4966
10531SOL    HW232493   0.089   1.758   6.889  0.4760  0.1210  1.2947
10532SOL     OW32494   3.860   6.268   5.395  0.0642 -0.2456  0.1939
10532SOL    HW132495   3.948   6.234   5.361  0.4799 -1.5992  2.4468
10532SOL    HW232496   3.868   6.292   5.491 -1.6504  1.1960  0.0307
10533SOL     OW32497   1.369   2.841   5.648 -0.0513  0.0601 -0.0295
10533SOL    HW132498   1.354   2.774   5.576 -0.9911  1.0513 -0.8026
10533SOL    HW232499   1.463   2.835   5.681 -0.0058 -1.3480 -0.3481
10534SOL     OW32500   1.529   2.541   1.405 -0.3681 -0.4811 -0.0544
10534SOL    HW132501   1.555   2.458   1.454 -0.9992  0.3623  1.7719
10534SOL    HW232502   1.504   2.517   1.311  1.0097 -2.1149 -0.0572
10535SOL     OW32503   2.147   3.239   6.260 -0.2913 -0.3131  0.1115
10535SOL    HW132504   2.182   3.152   6.296  1.1588 -0.3434 -1.2707
10535SOL    HW232505   2.179   3.252   6.166  0.2061  2.0715  0.5371
10536SOL     OW32506   3.092   6.859   1.486  0.2245  0.0646 -0.0147
10536SOL    HW132507   3.106   6.944   1.538 -1.0803  1.0148 -1.1549
10536SOL    HW232508   3.149   6.861   1.404  1.5376 -0.9990  0.8204
10537SOL     OW32509   6.370   4.414   3.792 -0.3394  0.1923  0.1322
10537SOL    HW132510   6.434   4.349   3.751 -0.9157  0.2281 -0.8486
10537SOL    HW232511   6.417   4.469   3.861  0.5675 -0.0848 -0.2607
10538SOL     OW32512   2.885   5.622   0.471  0.1972 -0.0116 -0.0767
10538SOL    HW132513   2.910   5.600   0.565 -0.0156  1.6470  0.3958
10538SOL    HW232514   2.788   5.647   0.468 -0.3726 -2.0986 -1.1299
10539SOL     OW32515   0.835   4.354   0.512  0.6331  0.3199  0.2638
10539SOL    HW132516   0.743   4.394   0.510  0.6943  0.4330 -0.9679
10539SOL    HW232517   0.864   4.343   0.607 -0.7921 -0.0422  0.6853
10540SOL     OW32518   6.911   1.623   2.305 -0.5851 -0.0415  0.2654
10540SOL    HW132519   6.908   1.600   2.208  2.0087 -0.3527  0.1911
10540SOL    HW232520   6.941   1.544   2.358 -2.1586  0.0556  1.3966
10541SOL     OW32521   2.817   3.813   1.193 -0.8357  0.0698 -0.2819
10541SOL    HW132522   2.868   3.767   1.265  0.8729 -0.9487 -2.0313
10541SOL    HW232523   2.797   3.907   1.221  1.8096  0.4389  0.6528
10542SOL     OW32524   5.070   6.684   2.454  1.0660 -0.2532 -0.5355
10542SOL    HW132525   4.999   6.623   2.421  0.8266 -0.4516  0.3281
10542SOL    HW232526   5.118   6.642   2.531  0.3356  0.9615  0.6370
10543SOL     OW32527   6.438   4.200   5.303  0.0060 -0.3943  0.4918
10543SOL    HW132528   6.496   4.140   5.248 -0.7059 -0.5931 -0.0622
10543SOL    HW232529   6.342   4.174   5.291 -0.2682  0.4683  0.7122
10544SOL     OW32530   4.054   3.280   2.475 -0.3318 -0.2072 -0.0884
10544SOL    HW132531   4.063   3.186   2.445 -0.3096 -0.0964 -0.4320
10544SOL    HW232532   4.115   3.296   2.553  0.5662 -0.1532 -0.7874
10545SOL     OW32533   6.358   6.849   2.838 -0.1608 -0.2849 -0.1067
10545SOL    HW132534   6.338   6.887   2.747  1.8918 -0.5442 -0.7216
10545SOL    HW232535   6.280   6.795   2.869 -1.0992  0.1995 -1.5018
10546SOL     OW32536   4.358   5.209   4.055 -0.3245 -0.1488  0.0794
10546SOL    HW132537   4.312   5.164   4.131 -0.5328  0.4814  0.3330
10546SOL    HW232538   4.327   5.304   4.048  1.5285  0.5605  0.7735
10547SOL     OW32539   1.913   0.149   4.895 -0.2922  0.7274  0.0979
10547SOL    HW132540   1.862   0.220   4.845  1.1893  1.3260 -0.6190
10547SOL    HW232541   1.912   0.064   4.843  1.5136  1.4326 -1.2062
10548SOL     OW32542   3.450   1.063   3.678  0.4202  0.6302  0.4518
10548SOL    HW132543   3.437   1.147   3.625  1.9891 -0.5156 -1.9131
10548SOL    HW232544   3.547   1.039   3.677  0.0175 -1.1208  1.2404
10549SOL     OW32545   3.435   2.311   5.303  0.4662  0.1226  0.2336
10549SOL    HW132546   3.398   2.345   5.217 -2.4311  0.5198  1.5108
10549SOL    HW232547   3.362   2.307   5.371  3.1859  2.7653  3.6371
10550SOL     OW32548   2.766   0.446   2.485  0.0517 -0.6134  0.4068
10550SOL    HW132549   2.825   0.527   2.488  0.9838 -1.2175 -0.9396
10550SOL    HW232550   2.746   0.416   2.579 -0.3316  1.1604  0.9228
10551SOL     OW32551   1.833   4.986   1.087  0.2301 -0.0757 -0.1568
10551SOL    HW132552   1.915   4.973   1.143 -0.9136 -0.1527  1.5926
10551SOL    HW232553   1.828   4.914   1.018  0.2564 -1.7407  1.4996
10552SOL     OW32554   6.214   4.236   0.921  0.1584 -0.4337  0.2686
10552SOL    HW132555   6.268   4.154   0.942 -0.8517 -0.9226  1.0769
10552SOL    HW232556   6.122   4.209   0.894 -0.8218  0.4382  2.4674
10553SOL     OW32557   6.778   2.481   0.635 -0.1604  0.7146  0.3285
10553SOL    HW132558   6.813   2.573   0.617 -0.7109  0.7647 -0.5644
10553SOL    HW232559   6.766   2.433   0.548 -0.6717  0.0952  0.7362
10554SOL     OW32560   5.294   0.658   0.801 -0.6973 -0.1962  0.3051
10554SOL    HW132561   5.226   0.725   0.771 -0.1158  0.4178  0.3384
10554SOL    HW232562   5.270   0.567   0.766  0.2383  0.5555 -2.4898
10555SOL     OW32563   5.026   3.624   1.738  0.5230  0.2300 -0.4094
10555SOL    HW132564   4.991   3.574   1.659 -1.4840 -1.4275  1.4039
10555SOL    HW232565   4.985   3.715   1.741  1.2328  0.6224 -1.6393
10556SOL     OW32566   5.875   3.778   1.699  0.6638 -0.3630  0.0498
10556SOL    HW132567   5.808   3.851   1.714  1.5313  0.5338 -0.3279
10556SOL    HW232568   5.828   3.690   1.700 -0.0122 -0.1165  3.6373
10557SOL     OW32569   0.681   4.185   6.917  0.8150  0.0648 -0.3912
10557SOL    HW132570   0.767   4.226   6.888  0.0046  0.8961 -1.7240
10557SOL    HW232571   0.621   4.173   6.838 -0.2263 -0.6804  0.4797
10558SOL     OW32572   6.331   4.754   0.355 -0.3524 -0.0092  0.3205
10558SOL    HW132573   6.269   4.826   0.324 -0.2544 -0.1908 -0.3140
10558SOL    HW232574   6.280   4.668   0.362  0.1133 -0.4739 -1.5681
10559SOL     OW32575   3.777   4.939   4.278 -0.3210  0.0774 -0.3156
10559SOL    HW132576   3.684   4.959   4.306 -0.5998 -1.3263 -0.1249
10559SOL    HW232577   3.785   4.945   4.179 -1.2941 -2.1339 -0.6011
10560SOL     OW32578   2.473   2.639   3.131  0.1316  0.0386  0.2514
10560SOL    HW132579   2.548   2.686   3.178  0.3616  0.7804 -0.8176
10560SOL    HW232580   2.509   2.592   3.050 -0.4219 -0.3465  0.2239
10561SOL     OW32581   6.731   5.999   0.152  0.7378  0.1698 -0.7541
10561SOL    HW132582   6.645   5.954   0.175  1.5201 -0.6471  0.7579
10561SOL    HW232583   6.805   5.958   0.205  1.9047  1.5462 -1.2431
10562SOL     OW32584   2.662   6.588   1.716  0.3075 -0.1623  0.3546
10562SOL    HW132585   2.600   6.511   1.734  1.0603 -0.6760  0.8426
10562SOL    HW232586   2.755   6.563   1.745  0.7595  0.5681 -0.4162
10563SOL     OW32587   6.173   1.300   4.755 -0.8271  0.2421 -0.3479
10563SOL    HW132588   6.094   1.293   4.695  0.0476  0.1427 -1.5063
10563SOL    HW232589   6.257   1.286   4.703 -0.0963 -1.3435  1.1460
10564SOL     OW32590   4.636   2.529   6.960  0.1311  0.2800 -0.2032
10564SOL    HW132591   4.635   2.554   6.863 -0.0405  0.9439 -0.0336
10564SOL    HW232592   4.673   2.605   7.014 -1.7425  0.7532  0.4815
10565SOL     OW32593   0.779   6.304   6.411  0.1768 -0.3057 -0.0267
10565SOL    HW132594   0.855   6.290   6.347 -0.8149 -2.8445 -0.7682
10565SOL    HW232595   0.809   6.277   6.503  0.0578 -1.9070 -0.4251
10566SOL     OW32596   3.187   2.150   4.054  0.0656 -0.0157  0.0155
10566SOL    HW132597   3.176   2.065   4.105  1.6469 -1.2668 -1.5835
10566SOL    HW232598   3.144   2.225   4.104 -1.5383 -1.7613  1.3890
10567SOL     OW32599   5.730   2.855   3.247  0.1645  0.8247  0.4565
10567SOL    HW132600   5.757   2.820   3.157 -0.6481  0.2025  0.4373
10567SOL    HW232601   5.811   2.877   3.300  0.7650 -1.5098  0.6307
10568SOL     OW32602   5.061   0.038   3.612 -0.1886 -0.0411  0.2292
10568SOL    HW132603   5.050   0.085   3.700  1.1288 -0.6224  0.7424
10568SOL    HW232604   5.054   0.104   3.537  0.7507  0.8333  0.8884
10569SOL     OW32605   1.635   1.067   1.262  0.1687  0.2693  0.3431
10569SOL    HW132606   1.595   1.157   1.245 -0.9877 -0.3274 -0.2804
10569SOL    HW232607   1.570   0.996   1.233 -0.3669 -0.8402  3.8248
10570SOL     OW32608   4.319   6.992   0.072 -0.4121 -0.5196  0.2227
10570SOL    HW132609   4.408   6.997   0.118  0.5313  0.6996 -1.6281
10570SOL    HW232610   4.286   6.898   0.075  1.4873 -1.2461 -0.0057
10571SOL     OW32611   6.228   0.031   6.700 -0.2935  0.2354 -0.3258
10571SOL    HW132612   6.163   0.106   6.682 -0.7965  0.0260  0.5173
10571SOL    HW232613   6.273   0.005   6.616  0.3309  1.8959 -0.5436
10572SOL     OW32614   6.374   1.092   6.468  0.0459 -0.8993 -0.1071
10572SOL    HW132615   6.448   1.155   6.490 -0.3506 -0.4315 -0.0757
10572SOL    HW232616   6.399   1.037   6.389  0.5719 -1.0052  0.1342
10573SOL     OW32617   2.048   4.366   6.384  0.6237 -0.4894 -0.1227
10573SOL    HW132618   2.055   4.298   6.311  0.0283 -1.3723  0.6184
10573SOL    HW232619   1.964   4.351   6.436  1.1003  0.0456  0.8302
10574SOL     OW32620   1.583   1.194   0.227 -0.0094  0.4254  0.2898
10574SOL    HW132621   1.636   1.193   0.142 -0.3314  1.9096  0.0396
10574SOL    HW232622   1.646   1.192   0.305  0.4212  1.5142 -0.0064
10575SOL     OW32623   3.871   6.939   5.121 -0.3845 -0.3459  0.0091
10575SOL    HW132624   3.874   6.925   5.220  1.9286 -1.3245 -0.1326
10575SOL    HW232625   3.855   6.851   5.076  1.9540 -0.5274 -0.5520
10576SOL     OW32626   1.811   4.079   6.806 -0.4318 -0.0951  0.3487
10576SOL    HW132627   1.882   4.057   6.873 -0.6837 -0.0791  0.6221
10576SOL    HW232628   1.773   3.995   6.768 -1.4860 -0.1532  1.4888
10577SOL     OW32629   3.069   6.258   3.963  0.0658  0.1716  0.0449
10577SOL    HW132630   2.997   6.198   3.997 -0.0296  1.5035  2.4097
10577SOL    HW232631   3.141   6.267   4.032 -0.3164  3.3575  0.1972
10578SOL     OW32632   3.157   1.816   5.920  0.1208 -0.0834  0.2199
10578SOL    HW132633   3.221   1.876   5.968 -1.5642  0.0246  2.5283
10578SOL    HW232634   3.207   1.737   5.883  1.9302  1.2952 -0.4315
10579SOL     OW32635   4.501   5.171   4.938  0.2669  0.0368  0.5114
10579SOL    HW132636   4.492   5.102   4.866  0.8810  0.2126  0.2656
10579SOL    HW232637   4.410   5.193   4.974  0.0088 -0.4515  0.1680
10580SOL     OW32638   2.574   4.698   5.173  0.0303 -0.0312 -0.4432
10580SOL    HW132639   2.660   4.670   5.130  0.6575  0.0353  0.7366
10580SOL    HW232640   2.585   4.701   5.272 -1.7851 -1.5510 -0.1279
10581SOL     OW32641   1.634   3.119   6.760 -0.0020  0.2291  0.3117
10581SOL    HW132642   1.631   3.213   6.725 -0.6702 -0.2224 -0.9079
10581SOL    HW232643   1.679   3.060   6.694  1.6082 -0.1194  1.6409
10582SOL     OW32644   4.053   1.975   5.693 -0.0550  0.1830  0.4573
10582SOL    HW132645   4.051   2.045   5.621  0.4520  2.6265  2.6825
10582SOL    HW232646   4.143   1.930   5.693  0.1579  0.5997 -0.0007
10583SOL     OW32647   4.056   0.272   3.961  0.0229  0.2217  0.0353
10583SOL    HW132648   4.154   0.254   3.956  0.0601  0.5321 -0.4264
10583SOL    HW232649   4.038   0.367   3.935 -0.3843  0.2154  0.2815
10584SOL     OW32650   2.032   6.542   2.837 -0.2834  0.0880 -0.4306
10584SOL    HW132651   2.076   6.585   2.758  1.7655 -1.0408  0.0105
10584SOL    HW232652   2.029   6.443   2.824 -1.6606  0.0422  0.1065
10585SOL     OW32653   4.362   6.507   0.157  0.1505  0.4967 -0.3641
10585SOL    HW132654   4.407   6.458   0.231 -0.7833 -0.7273 -0.5818
10585SOL    HW232655   4.345   6.445   0.080 -2.1852  0.8001 -0.1590
10586SOL     OW32656   6.494   0.275   3.879  0.1343  0.4730  0.5469
10586SOL    HW132657   6.416   0.217   3.855  0.8139 -0.4942  0.6550
10586SOL    HW232658   6.557   0.281   3.802  0.0042  1.1828  0.4896
10587SOL     OW32659   1.942   1.345   4.126 -0.0433 -0.0427 -0.2021
10587SOL    HW132660   1.987   1.321   4.211 -0.8885 -1.8585 -0.2170
10587SOL    HW232661   2.009   1.385   4.062  0.6404  1.0945  1.1731
10588SOL     OW32662   5.528   0.633   0.906  0.3285 -0.0754  0.0492
10588SOL    HW132663   5.514   0.561   0.973 -1.1442  0.9171  0.8612
10588SOL    HW232664   5.443   0.649   0.855  0.1225  2.0994  0.9620
10589SOL     OW32665   1.907   5.857   2.673 -0.2767  0.0996  1.1213
10589SOL    HW132666   1.820   5.807   2.671  0.0130 -0.4017  0.8973
10589SOL    HW232667   1.923   5.899   2.584  0.0608 -0.4238  0.9308
10590SOL     OW32668   5.079   6.623   1.324 -0.6858 -0.2712 -0.0632
10590SOL    HW132669   5.094   6.603   1.227  0.3430 -1.8739  0.3791
10590SOL    HW232670   4.988   6.662   1.337 -1.6475 -1.9076 -1.4566
10591SOL     OW32671   1.295   3.065   6.688 -0.8395  0.0896  0.1260
10591SOL    HW132672   1.349   3.021   6.616  0.0472  1.7203 -0.2507
10591SOL    HW232673   1.198   3.060   6.664 -0.7680 -1.6464  0.1144
10592SOL     OW32674   5.457   2.430   0.551 -0.3970 -0.4925  0.1975
10592SOL    HW132675   5.367   2.469   0.529  0.2170  0.6172 -0.4736
10592SOL    HW232676   5.485   2.368   0.478 -1.0391 -1.6438  0.8974
10593SOL     OW32677   0.884   5.915   5.384  0.1030  0.2662  0.4033
10593SOL    HW132678   0.844   5.878   5.468  0.4399  0.1505  0.5141
10593SOL    HW232679   0.966   5.967   5.406  0.1522  0.2971  0.1525
10594SOL     OW32680   3.205   2.705   5.669 -0.2504  0.5474  0.3784
10594SOL    HW132681   3.256   2.619   5.660 -0.5398  0.5086 -1.1554
10594SOL    HW232682   3.261   2.772   5.718  0.5164 -0.0990  0.4069
10595SOL     OW32683   3.765   5.345   6.659 -0.3703  0.3669 -0.3708
10595SOL    HW132684   3.707   5.277   6.704 -2.3760  2.9177  1.1347
10595SOL    HW232685   3.853   5.350   6.706 -0.2154 -1.0529 -0.4489
10596SOL     OW32686   0.767   4.879   2.481 -0.1432 -0.8472 -0.3148
10596SOL    HW132687   0.813   4.945   2.541 -1.1755 -0.1440 -0.2694
10596SOL    HW232688   0.731   4.926   2.401 -3.6007 -0.6687  1.1600
10597SOL     OW32689   6.829   5.222   0.544 -0.0622  0.1714  0.1637
10597SOL    HW132690   6.765   5.183   0.610 -1.2591  1.4270 -0.2278
10597SOL    HW232691   6.886   5.291   0.588 -0.0417  0.1674  0.1437
10598SOL     OW32692   6.116   2.806   2.423  0.2373  0.4612  0.2229
10598SOL    HW132693   6.185   2.735   2.437  0.5978  0.9251  0.8000
10598SOL    HW232694   6.090   2.846   2.511 -0.7502  0.3111  0.0108
10599SOL     OW32695   0.747   1.366   0.087  0.0777  0.2124  0.3951
10599SOL    HW132696   0.696   1.293   0.043  1.0671  0.5082 -1.3455
10599SOL    HW232697   0.709   1.454   0.061  0.4753  0.3821  0.3752
10600SOL     OW32698   2.772   1.378   0.542 -0.1403  0.0664 -0.1790
10600SOL    HW132699   2.683   1.351   0.505  0.1892 -1.6036  0.1861
10600SOL    HW232700   2.837   1.391   0.467 -0.3997  0.1778 -0.3839
10601SOL     OW32701   5.505   0.118   1.891 -0.3180  0.1536  0.2720
10601SOL    HW132702   5.578   0.048   1.895 -0.3004  0.0123 -1.6473
10601SOL    HW232703   5.545   0.208   1.908 -0.1935 -0.1755  1.9219
10602SOL     OW32704   6.536   5.723   1.056  0.5724  0.1904 -0.2380
10602SOL    HW132705   6.614   5.782   1.040 -0.9222  2.1606 -0.6528
10602SOL    HW232706   6.494   5.746   1.144 -0.5701  0.4150 -0.8237
10603SOL     OW32707   6.034   5.121   6.779  0.4510  0.3276 -0.4430
10603SOL    HW132708   5.958   5.159   6.831 -1.1449 -2.4432 -0.5005
10603SOL    HW232709   6.094   5.194   6.747 -0.3336  2.3579  2.4255
10604SOL     OW32710   1.158   5.945   1.537 -0.0347 -0.9918  0.0216
10604SOL    HW132711   1.209   5.947   1.451 -1.0799 -1.7213 -0.6299
10604SOL    HW232712   1.065   5.979   1.522 -1.3264 -4.2239  0.0777
10605SOL     OW32713   5.124   3.997   5.511  0.1108 -0.2997 -0.2142
10605SOL    HW132714   5.030   3.983   5.482  0.1345 -2.3186  0.4914
10605SOL    HW232715   5.183   3.929   5.467  1.1992  0.7264 -0.4012
10606SOL     OW32716   6.919   1.124   3.908 -0.7479  0.1692 -0.0448
10606SOL    HW132717   6.920   1.050   3.840  0.8988  1.9899 -2.1736
10606SOL    HW232718   6.825   1.145   3.933 -1.4526 -0.4086 -1.9997
10607SOL     OW32719   1.567   3.339   2.090 -0.2122  0.1187 -0.0742
10607SOL    HW132720   1.535   3.259   2.039 -0.7594  1.5269 -2.0540
10607SOL    HW232721   1.660   3.361   2.062 -0.9318  1.6033 -1.4185
10608SOL     OW32722   6.746   6.364   6.904 -0.4018  0.7281 -0.4742
10608SOL    HW132723   6.649   6.387   6.898 -1.2410 -1.6178  2.1032
10608SOL    HW232724   6.758   6.266   6.894  1.4802  0.7624  0.8867
10609SOL     OW32725   2.067   3.528   2.325 -0.6184  0.2984  0.1757
10609SOL    HW132726   2.056   3.584   2.407 -1.0316  0.1985  0.1889
10609SOL    HW232727   2.084   3.588   2.247  0.0213  0.3819  0.3691
10610SOL     OW32728   3.690   0.811   1.488 -0.0123  0.2882 -0.2906
10610SOL    HW132729   3.642   0.728   1.461 -0.7654  0.5838  0.0942
10610SOL    HW232730   3.745   0.845   1.411  0.6218 -0.7715 -0.3220
10611SOL     OW32731   2.723   1.619   3.623 -0.5577  0.1161  0.0844
10611SOL    HW132732   2.692   1.707   3.660  0.9329  1.0195 -0.7207
10611SOL    HW232733   2.770   1.634   3.537  0.3837 -1.3954  0.3043
10612SOL     OW32734   2.651   1.540   6.621  0.2283  0.4485 -0.5618
10612SOL    HW132735   2.683   1.470   6.685  1.0347  1.0536 -0.2868
10612SOL    HW232736   2.642   1.500   6.530 -1.7554 -0.6424  0.0680
10613SOL     OW32737   6.958   5.651   4.289  0.1705 -0.2233  0.2341
10613SOL    HW132738   6.998   5.740   4.311 -0.4909  0.0816  0.2303
10613SOL    HW232739   6.961   5.592   4.369 -0.1167  0.0829  0.4727
10614SOL     OW32740   5.435   3.120   6.207 -0.6556 -0.2612  0.3881
10614SOL    HW132741   5.389   3.033   6.188  0.0363 -0.5492 -0.0395
10614SOL    HW232742   5.441   3.134   6.306  1.6472 -2.0771  0.6030
10615SOL     OW32743   3.355   5.146   0.534  0.4883  0.7953  0.0601
10615SOL    HW132744   3.329   5.229   0.484  1.5958  0.0969 -1.7590
10615SOL    HW232745   3.279   5.082   0.533  0.6599  0.5861 -1.2194
10616SOL     OW32746   4.671   5.269   1.193  0.0605  0.2421 -0.0073
10616SOL    HW132747   4.692   5.179   1.155  0.8954 -0.1783  1.3783
10616SOL    HW232748   4.681   5.266   1.293 -1.4148  1.4734  0.2093
10617SOL     OW32749   0.292   1.719   1.778  0.0932 -0.3327 -0.1351
10617SOL    HW132750   0.355   1.733   1.854 -0.2822 -1.3632  0.3958
10617SOL    HW232751   0.242   1.803   1.760 -0.3934 -0.2768  1.3107
10618SOL     OW32752   3.075   6.159   4.771  0.2483 -0.4898 -0.6156
10618SOL    HW132753   3.116   6.148   4.680 -0.3459 -0.5010 -0.8869
10618SOL    HW232754   3.089   6.253   4.802  0.5905 -0.5265 -0.6467
10619SOL     OW32755   2.479   6.986   1.540  0.2934 -0.2303  0.5425
10619SOL    HW132756   2.524   7.069   1.574 -0.8974  1.1827 -1.1050
10619SOL    HW232757   2.385   7.008   1.513  0.1280 -1.9911 -0.4624
10620SOL     OW32758   2.440   2.708   1.924 -0.1724 -0.3024 -0.1200
10620SOL    HW132759   2.493   2.713   2.008 -0.9158  1.2152  0.2899
10620SOL    HW232760   2.353   2.663   1.942 -0.5670  0.5193  0.0684
10621SOL     OW32761   3.126   3.129   4.199  0.2522  0.2264  0.5084
10621SOL    HW132762   3.068   3.048   4.193  1.7043 -0.7902 -0.1308
10621SOL    HW232763   3.142   3.166   4.108 -1.4580  2.0642  0.8757
10622SOL     OW32764   6.966   3.213   4.356  0.0622 -0.4307 -0.0229
10622SOL    HW132765   6.946   3.305   4.389 -1.5017 -0.0493 -1.8935
10622SOL    HW232766   6.973   3.214   4.256  0.4814 -2.2724 -0.0413
10623SOL     OW32767   1.879   6.075   5.509 -0.0691  0.0860 -0.2193
10623SOL    HW132768   1.804   6.117   5.458  0.1855  0.2061 -0.4967
10623SOL    HW232769   1.962   6.076   5.453 -0.1138 -0.9832 -0.3264
10624SOL     OW32770   0.402   3.663   1.276 -0.2184 -0.5964  0.1196
10624SOL    HW132771   0.463   3.593   1.238 -0.7897 -1.7348  1.2166
10624SOL    HW232772   0.363   3.717   1.202 -0.4434 -2.0154 -0.8350
10625SOL     OW32773   0.344   1.050   5.847 -0.0573 -0.0566 -0.3917
10625SOL    HW132774   0.278   1.078   5.916 -0.1385  1.6359 -1.0981
10625SOL    HW232775   0.305   1.066   5.756  2.2178  3.6758 -0.9158
10626SOL     OW32776   0.404   5.806   6.427 -0.2592 -0.0136  0.3497
10626SOL    HW132777   0.467   5.769   6.358  1.1251  3.1451 -0.2775
10626SOL    HW232778   0.444   5.793   6.518  0.8113  0.9123  0.0451
10627SOL     OW32779   5.663   1.943   1.944 -0.4940 -0.4481 -0.0518
10627SOL    HW132780   5.610   1.960   2.027  1.0999  1.0277  0.7235
10627SOL    HW232781   5.731   1.872   1.962 -0.5818 -0.5955 -0.2988
10628SOL     OW32782   1.630   5.445   6.870  0.0363  0.3318 -0.1714
10628SOL    HW132783   1.680   5.499   6.939  0.4150  1.3637 -1.2204
10628SOL    HW232784   1.543   5.416   6.909  0.4316  0.4941  0.8982
10629SOL     OW32785   5.659   4.839   0.202 -0.6190 -0.3225  0.1824
10629SOL    HW132786   5.728   4.908   0.181  0.9765 -1.5797  1.1103
10629SOL    HW232787   5.592   4.878   0.265  0.3085  0.3630  0.7686
10630SOL     OW32788   3.281   3.682   3.897  0.0386  0.3724  0.3603
10630SOL    HW132789   3.209   3.749   3.874  1.6320  1.2410 -2.6639
10630SOL    HW232790   3.352   3.728   3.950  1.4677  1.5003 -2.2832
10631SOL     OW32791   5.387   0.378   1.469 -0.5244  0.3123  0.5446
10631SOL    HW132792   5.482   0.357   1.492 -0.5017  0.5986  0.7159
10631SOL    HW232793   5.332   0.295   1.477 -0.1304 -0.0554 -0.4017
10632SOL     OW32794   1.219   3.021   0.148  0.0178  0.5888  0.1991
10632SOL    HW132795   1.286   3.002   0.076  0.8019  0.9924  0.7999
10632SOL    HW232796   1.140   3.068   0.109  0.1442  0.2375 -0.5012
10633SOL     OW32797   3.100   1.510   0.313  0.4372  0.2128  0.2327
10633SOL    HW132798   3.180   1.554   0.273  0.3609 -0.5382 -0.8005
10633SOL    HW232799   3.088   1.419   0.272 -0.4863 -0.0079  0.9473
10634SOL     OW32800   3.624   0.479   0.053 -0.0519 -0.5171  0.4453
10634SOL    HW132801   3.525   0.491   0.059  0.1228  1.0670  0.6984
10634SOL    HW232802   3.656   0.423   0.130 -0.7760 -1.3572  0.1489
10635SOL     OW32803   1.186   4.952   1.662 -0.0619 -0.2335 -0.3342
10635SOL    HW132804   1.260   5.019   1.675 -0.5334  0.0335  1.1687
10635SOL    HW232805   1.179   4.929   1.565  1.1003  0.7593 -0.6840
10636SOL     OW32806   3.938   6.529   5.209  0.0978  0.4894 -0.1873
10636SOL    HW132807   3.888   6.451   5.172 -2.0331  1.5055  0.4457
10636SOL    HW232808   3.932   6.528   5.309  0.5203  1.1609 -0.1476
10637SOL     OW32809   2.767   2.895   0.984  0.6357 -0.4615 -0.8162
10637SOL    HW132810   2.736   2.919   0.892  1.9904  0.0835 -1.1433
10637SOL    HW232811   2.863   2.921   0.995  0.8529 -1.6789  0.3348
10638SOL     OW32812   5.328   4.632   2.085 -0.3552  0.0933  0.5252
10638SOL    HW132813   5.301   4.541   2.054  0.8132 -0.3783  0.8363
10638SOL    HW232814   5.247   4.686   2.105 -1.0964 -0.4250 -0.9310
10639SOL     OW32815   0.070   6.791   2.524 -0.3800 -0.2702 -0.4268
10639SOL    HW132816   0.047   6.750   2.436  0.1404 -0.2253 -0.5869
10639SOL    HW232817   0.113   6.722   2.583  0.0061 -0.0994 -0.5029
10640SOL     OW32818   1.279   2.692   6.627 -0.4348 -0.1006  0.4670
10640SOL    HW132819   1.253   2.696   6.724  0.2841  0.9791  0.6245
10640SOL    HW232820   1.298   2.597   6.602  1.1256 -0.1994  1.8650
10641SOL     OW32821   0.408   1.812   3.709  0.1251 -0.1351 -0.2003
10641SOL    HW132822   0.383   1.875   3.783  0.6813  0.1663 -0.2639
10641SOL    HW232823   0.488   1.758   3.737 -0.2185 -0.6714 -0.2288
10642SOL     OW32824   4.528   5.706   2.363  0.2902 -0.6177  0.1591
10642SOL    HW132825   4.544   5.688   2.460  2.2238  0.3151  0.0719
10642SOL    HW232826   4.525   5.805   2.348 -0.8374 -0.7518 -0.6399
10643SOL     OW32827   1.689   3.838   5.172  0.1340 -0.6750  0.0347
10643SOL    HW132828   1.746   3.766   5.134  0.5738 -0.9365  1.1439
10643SOL    HW232829   1.745   3.917   5.195 -0.1675 -0.4068 -0.1397
10644SOL     OW32830   0.448   2.068   1.459  0.1009 -0.6703  0.0769
10644SOL    HW132831   0.475   2.141   1.396 -1.2394 -0.3268 -0.1296
10644SOL    HW232832   0.456   1.980   1.412 -3.0486 -0.2779 -1.4663
10645SOL     OW32833   0.688   2.778   2.239 -0.2530 -0.6776 -0.2182
10645SOL    HW132834   0.776   2.781   2.286 -0.1609 -1.7260 -0.3014
10645SOL    HW232835   0.644   2.868   2.244  1.0265 -0.0019 -0.5762
10646SOL     OW32836   1.751   4.736   4.707 -0.6561  0.1274 -0.4049
10646SOL    HW132837   1.746   4.722   4.608  0.0744  1.7474 -0.7034
10646SOL    HW232838   1.660   4.756   4.742 -1.1435 -1.7006 -0.5028
10647SOL     OW32839   7.012   4.462   6.955  0.4675  0.6198  0.4275
10647SOL    HW132840   6.947   4.516   7.008  0.5679  1.6150 -0.4333
10647SOL    HW232841   7.096   4.514   6.941  1.3018 -0.4807  1.1562
10648SOL     OW32842   5.309   4.377   4.634 -0.5191 -0.4305  0.9025
10648SOL    HW132843   5.243   4.451   4.641  0.0786  0.1383  0.6536
10648SOL    HW232844   5.402   4.415   4.636 -0.1669 -1.2967  2.3440
10649SOL     OW32845   5.069   0.216   3.400 -0.4563  0.1634 -0.4137
10649SOL    HW132846   5.136   0.283   3.434 -1.3093  0.8561 -0.0471
10649SOL    HW232847   5.082   0.203   3.302 -0.9299  1.6732 -0.7068
10650SOL     OW32848   4.525   4.703   5.793  0.0655 -0.0419 -0.2987
10650SOL    HW132849   4.571   4.775   5.845  1.5376 -0.6837 -0.6733
10650SOL    HW232850   4.453   4.744   5.736  0.4467  1.0459 -0.0208
10651SOL     OW32851   1.643   4.310   1.778 -0.1281  0.1895 -0.9953
10651SOL    HW132852   1.598   4.248   1.714 -0.2073  0.7712 -1.5193
10651SOL    HW232853   1.597   4.399   1.776 -1.0770 -0.2053  0.9768
10652SOL     OW32854   2.371   1.442   4.619  0.6102  0.6017 -0.7223
10652SOL    HW132855   2.384   1.346   4.592  1.3122  0.9498 -1.6709
10652SOL    HW232856   2.277   1.469   4.600 -0.0356 -0.3300  0.9804
10653SOL     OW32857   3.871   6.702   3.301 -0.4324 -0.0321 -0.5059
10653SOL    HW132858   3.939   6.699   3.228 -2.3455  1.5443 -2.4592
10653SOL    HW232859   3.827   6.791   3.303 -2.5549 -1.0135  0.6057
10654SOL     OW32860   5.321   6.305   6.533 -0.1899  0.5866  0.5789
10654SOL    HW132861   5.358   6.392   6.566 -1.1416  1.0965  0.3605
10654SOL    HW232862   5.249   6.323   6.466 -1.8270 -0.2920  2.0073
10655SOL     OW32863   0.604   4.274   4.988 -0.3906 -0.2650  0.5518
10655SOL    HW132864   0.669   4.260   5.062 -0.5840  0.0904  0.7941
10655SOL    HW232865   0.651   4.311   4.908 -0.8003  3.8628  1.9635
10656SOL     OW32866   1.758   6.947   6.743 -0.1131  0.2690 -0.4210
10656SOL    HW132867   1.668   6.922   6.707 -0.3354 -1.1526  1.0079
10656SOL    HW232868   1.824   6.875   6.722  0.7612  1.3409 -1.5316
10657SOL     OW32869   1.663   5.735   3.085  0.0995 -0.3526 -0.2029
10657SOL    HW132870   1.696   5.655   3.035 -2.3191 -0.7582 -1.2843
10657SOL    HW232871   1.693   5.818   3.038 -1.7024 -0.7229 -2.1865
10658SOL     OW32872   6.415   0.624   5.131  0.3145 -0.4590 -0.1866
10658SOL    HW132873   6.451   0.607   5.039  1.2061 -1.1387  0.2717
10658SOL    HW232874   6.358   0.547   5.159  0.8150 -0.6962  0.1932
10659SOL     OW32875   2.489   6.464   3.536  0.0316  0.6244  0.8300
10659SOL    HW132876   2.446   6.539   3.486  1.3942  1.1690  0.4317
10659SOL    HW232877   2.571   6.497   3.582 -0.1641 -0.2992  1.9049
10660SOL     OW32878   5.499   5.708   4.101  0.6608  0.2224 -0.3999
10660SOL    HW132879   5.572   5.667   4.156  0.4145 -0.7246 -0.7589
10660SOL    HW232880   5.528   5.712   4.005  0.0381 -0.7012 -0.6409
10661SOL     OW32881   3.748   1.864   1.001 -0.4079 -0.1778 -0.3561
10661SOL    HW132882   3.768   1.889   0.906 -1.5239  2.9105  0.0975
10661SOL    HW232883   3.761   1.766   1.014 -0.2405 -0.6932 -3.6904
10662SOL     OW32884   1.659   6.853   0.929 -0.2958  0.1146  0.2403
10662SOL    HW132885   1.661   6.873   1.027  1.0541  0.9964  0.0520
10662SOL    HW232886   1.653   6.938   0.878 -1.1533 -0.3488 -0.4592
10663SOL     OW32887   3.852   0.985   0.298  0.2685  0.4958  0.2422
10663SOL    HW132888   3.774   1.035   0.335  0.4503  1.4013 -0.5411
10663SOL    HW232889   3.832   0.957   0.204  0.1966 -0.8886  0.6386
10664SOL     OW32890   3.499   6.042   5.828  0.3062 -0.4832  0.1014
10664SOL    HW132891   3.463   5.951   5.850 -0.6013 -0.4544 -1.1300
10664SOL    HW232892   3.593   6.033   5.795 -0.4677 -1.2838 -2.0674
10665SOL     OW32893   3.818   3.395   2.340 -0.7131  0.4189  0.1264
10665SOL    HW132894   3.881   3.357   2.407  0.2006  0.1134 -0.8767
10665SOL    HW232895   3.865   3.406   2.252 -2.5266 -1.6200 -1.2007
10666SOL     OW32896   0.449   4.703   1.433 -0.4431  0.4225  0.2642
10666SOL    HW132897   0.432   4.660   1.522 -0.4155 -0.3822 -0.1140
10666SOL    HW232898   0.372   4.685   1.372  0.1117 -0.1546 -0.2870
10667SOL     OW32899   0.818   3.522   3.857  0.3259 -0.3286  0.0567
10667SOL    HW132900   0.771   3.593   3.804 -1.4061 -0.1337  1.7539
10667SOL    HW232901   0.767   3.436   3.850  0.4070 -0.4532  0.9000
10668SOL     OW32902   2.218   1.695   4.749 -0.0123 -0.2187 -0.0106
10668SOL    HW132903   2.289   1.745   4.797 -0.8154  2.2258 -1.2413
10668SOL    HW232904   2.149   1.663   4.815  0.6854 -0.0038  0.8322
10669SOL     OW32905   3.344   6.755   6.438 -0.6677 -0.4186 -0.7832
10669SOL    HW132906   3.397   6.809   6.372  2.4514 -2.1169  0.1295
10669SOL    HW232907   3.368   6.783   6.531 -0.7878 -1.7364 -0.3314
10670SOL     OW32908   1.295   4.228   1.853  0.0012  0.3566  0.3835
10670SOL    HW132909   1.333   4.267   1.937  0.8864 -1.2995  0.7729
10670SOL    HW232910   1.254   4.302   1.798  0.4621  1.6289  1.6921
10671SOL     OW32911   4.380   6.679   2.085  0.7057  0.2191 -0.2411
10671SOL    HW132912   4.409   6.752   2.147  0.5660 -1.3140  1.7233
10671SOL    HW232913   4.302   6.710   2.031  0.0670  1.2280  1.2089
10672SOL     OW32914   0.912   2.874   0.758 -0.2345 -0.5069  0.0287
10672SOL    HW132915   0.874   2.835   0.842 -0.0879 -0.6220  0.0415
10672SOL    HW232916   0.854   2.849   0.681 -1.2219  0.8393  0.2807
10673SOL     OW32917   4.471   5.849   5.066  0.1081 -0.3592  0.0450
10673SOL    HW132918   4.548   5.851   5.130 -0.0065  1.6027  0.1743
10673SOL    HW232919   4.475   5.930   5.007 -1.5874 -0.4930 -0.2869
10674SOL     OW32920   6.391   2.331   5.479  0.2138 -0.0962 -0.4755
10674SOL    HW132921   6.435   2.416   5.449 -0.0198  0.2991  0.2839
10674SOL    HW232922   6.458   2.257   5.478  0.2557 -0.0593 -1.7940
10675SOL     OW32923   5.142   6.234   0.874 -0.1848 -0.1594 -0.2579
10675SOL    HW132924   5.050   6.200   0.892  0.1968 -1.3038 -0.3752
10675SOL    HW232925   5.189   6.249   0.961 -0.4932  0.4881 -0.1964
10676SOL     OW32926   5.031   6.588   6.896  0.0523 -0.5069  0.2453
10676SOL    HW132927   4.976   6.642   6.832 -0.9010  0.3983  1.7726
10676SOL    HW232928   5.097   6.533   6.844 -0.3941  0.4949 -1.4800
10677SOL     OW32929   1.798   1.810   6.737  0.1305  0.1879 -0.2145
10677SOL    HW132930   1.814   1.714   6.718  0.9549  0.5783 -1.6175
10677SOL    HW232931   1.726   1.845   6.676  0.5053  0.6734 -0.3915
10678SOL     OW32932   3.039   2.084   1.586 -0.3238  0.2249 -0.3102
10678SOL    HW132933   3.071   2.127   1.670 -0.1521  0.1390 -0.3313
10678SOL    HW232934   3.048   2.148   1.510  2.4923 -0.7040 -0.8678
10679SOL     OW32935   0.099   2.178   2.999  0.0763 -0.6771 -0.2224
10679SOL    HW132936   0.017   2.134   2.963 -0.0180  0.5067 -1.5361
10679SOL    HW232937   0.128   2.251   2.937 -0.2500  1.7149  2.2169
10680SOL     OW32938   0.098   2.623   1.647 -0.3453 -0.4001 -0.2429
10680SOL    HW132939   0.005   2.590   1.634 -1.0688  1.4977 -0.1872
10680SOL    HW232940   0.099   2.693   1.718  1.0504 -0.0761 -0.5493
10681SOL     OW32941   0.434   5.827   5.229  0.8538 -0.1562  0.0666
10681SOL    HW132942   0.370   5.815   5.153  1.2149  2.0391 -0.6324
10681SOL    HW232943   0.460   5.737   5.264  0.3126 -1.2163 -2.0801
10682SOL     OW32944   0.766   0.805   4.264  0.3137  0.3418 -0.0435
10682SOL    HW132945   0.708   0.836   4.189 -0.0149 -0.3280 -0.0749
10682SOL    HW232946   0.776   0.706   4.260  0.2138  0.2835  0.8458
10683SOL     OW32947   3.715   1.757   3.705 -0.5660 -0.6818  0.7150
10683SOL    HW132948   3.618   1.758   3.728 -0.5466  1.2196  0.8782
10683SOL    HW232949   3.728   1.713   3.616 -1.8874  1.0121 -0.3957
10684SOL     OW32950   5.375   2.314   6.941 -0.1556 -0.2784 -0.1744
10684SOL    HW132951   5.398   2.264   6.857 -1.5006 -0.6267 -0.3681
10684SOL    HW232952   5.278   2.300   6.961 -0.3374  1.4876  0.2984
10685SOL     OW32953   3.883   4.946   6.596  0.0201  0.4622 -0.4748
10685SOL    HW132954   3.947   5.023   6.600  0.4532  0.0896 -0.0920
10685SOL    HW232955   3.879   4.902   6.685 -0.9604  0.6227 -0.4245
10686SOL     OW32956   2.794   2.035   4.655  0.0889 -0.3606 -0.5288
10686SOL    HW132957   2.783   1.943   4.618 -1.9742 -0.1439 -0.6019
10686SOL    HW232958   2.805   2.030   4.755 -0.0589 -0.6995 -0.5273
10687SOL     OW32959   5.073   6.450   1.816  0.4090 -0.1616 -0.0144
10687SOL    HW132960   5.072   6.544   1.852 -1.3202 -1.3000  3.3016
10687SOL    HW232961   5.136   6.394   1.870 -1.0019 -1.6240  0.1743
10688SOL     OW32962   0.312   5.154   1.775 -0.4453 -0.0790  0.0291
10688SOL    HW132963   0.371   5.077   1.749 -1.2932 -1.1332  1.1334
10688SOL    HW232964   0.329   5.230   1.713 -1.0436 -1.8186 -2.4363
10689SOL     OW32965   2.921   5.925   5.468 -0.2535 -0.3148 -0.0564
10689SOL    HW132966   2.944   5.957   5.559  2.5108 -1.3309 -0.2984
10689SOL    HW232967   2.992   5.954   5.403 -2.7181  1.4152 -2.2146
10690SOL     OW32968   6.532   3.482   5.480  0.2650 -0.4040  0.5803
10690SOL    HW132969   6.501   3.502   5.387  2.2974  2.2954  0.3928
10690SOL    HW232970   6.453   3.483   5.542 -0.8264 -0.0053 -0.7675
10691SOL     OW32971   1.989   3.850   4.148  0.1513 -0.0360  0.1490
10691SOL    HW132972   1.948   3.869   4.058 -0.3327  3.2525  0.9370
10691SOL    HW232973   1.934   3.893   4.219  1.4721 -1.1097  1.8799
10692SOL     OW32974   0.578   4.069   0.399  0.4104  0.3500 -0.1453
10692SOL    HW132975   0.518   3.989   0.400 -0.2614  0.8424  1.0206
10692SOL    HW232976   0.670   4.043   0.427  0.8140 -0.4363 -2.0580
10693SOL     OW32977   3.761   5.551   5.442 -0.3406  0.2862 -0.3782
10693SOL    HW132978   3.664   5.570   5.462 -0.1010  0.7430  0.3948
10693SOL    HW232979   3.812   5.637   5.443  0.2551 -0.0684  0.2803
10694SOL     OW32980   5.910   0.219   1.768  0.0672  0.6176  0.9726
10694SOL    HW132981   5.972   0.290   1.735 -1.0074  1.0529 -0.1623
10694SOL    HW232982   5.964   0.144   1.806  1.4254 -0.0671 -2.0368
10695SOL     OW32983   4.793   0.196   4.716  0.2890  0.4819  0.1084
10695SOL    HW132984   4.730   0.255   4.666  1.2639  1.6642  0.2343
10695SOL    HW232985   4.877   0.184   4.663 -0.0110 -1.1009 -0.0705
10696SOL     OW32986   0.811   0.165   0.550  0.4310  0.3198  0.5224
10696SOL    HW132987   0.887   0.127   0.604  0.8958 -0.7917 -0.8695
10696SOL    HW232988   0.833   0.161   0.453 -0.7780  1.4547  0.1628
10697SOL     OW32989   6.349   3.040   1.336 -0.5464  0.2620 -0.0761
10697SOL    HW132990   6.348   3.137   1.359 -2.2303 -0.0478  1.2935
10697SOL    HW232991   6.273   2.994   1.380 -0.8510 -1.3805 -2.1391
10698SOL     OW32992   0.576   4.079   4.176 -0.3001 -0.1336  0.5465
10698SOL    HW132993   0.544   4.173   4.160  0.8261 -0.0490 -1.4365
10698SOL    HW232994   0.564   4.025   4.093 -2.1056 -2.1690  2.0121
10699SOL     OW32995   1.973   5.485   5.425  0.0619  0.0720 -0.1577
10699SOL    HW132996   2.041   5.462   5.494  0.8531  0.1931 -0.8755
10699SOL    HW232997   1.926   5.569   5.451  2.3076  1.7221 -1.0742
10700SOL     OW32998   3.530   3.397   0.411  0.2055  0.1070 -0.6205
10700SOL    HW132999   3.518   3.420   0.507 -3.7408 -0.7812 -0.7100
10700SOL    HW233000   3.541   3.481   0.358 -2.5775  1.1349  0.2184
10701SOL     OW33001   4.859   1.350   3.290 -0.1361 -0.6294 -0.3175
10701SOL    HW133002   4.780   1.290   3.300 -0.0054 -1.3967 -3.0156
10701SOL    HW233003   4.837   1.424   3.227  0.2987  1.1676  1.5370
10702SOL     OW33004   2.573   1.162   4.073 -0.3694 -0.4851  0.3724
10702SOL    HW133005   2.521   1.137   3.991  0.5172  1.2960 -0.7882
10702SOL    HW233006   2.627   1.084   4.103 -0.8226 -1.2200 -0.6482
10703SOL     OW33007   1.190   3.184   1.879 -0.1055 -0.5321  0.1555
10703SOL    HW133008   1.111   3.228   1.836  0.6200  0.2596 -0.3947
10703SOL    HW233009   1.224   3.111   1.819  0.5027  0.1343 -0.3183
10704SOL     OW33010   2.559   6.864   2.088 -0.2567 -0.7120 -0.2654
10704SOL    HW133011   2.575   6.810   2.006  0.3292  0.2164 -0.7864
10704SOL    HW233012   2.601   6.954   2.077 -0.7542 -0.3327  0.7857
10705SOL     OW33013   3.428   2.201   1.748 -0.1838  0.0890  0.0499
10705SOL    HW133014   3.514   2.235   1.788 -0.5162  0.8221  0.1635
10705SOL    HW233015   3.427   2.220   1.650 -1.0691  2.0003  0.3666
10706SOL     OW33016   3.421   5.626   3.374 -0.9076 -0.0902 -0.9212
10706SOL    HW133017   3.500   5.673   3.414 -0.2252 -0.6454 -1.5833
10706SOL    HW233018   3.443   5.598   3.280 -1.1337 -2.0951 -0.4086
10707SOL     OW33019   0.351   0.655   2.650 -0.5768  0.3710  0.3743
10707SOL    HW133020   0.400   0.571   2.627 -2.4396 -0.4774 -0.7522
10707SOL    HW233021   0.365   0.723   2.578 -0.6836  0.2919  0.2782
10708SOL     OW33022   2.341   5.866   2.650 -0.0618  0.7577 -0.2216
10708SOL    HW133023   2.290   5.855   2.735  1.8639 -0.8791  0.8104
10708SOL    HW233024   2.398   5.948   2.655 -0.6235  1.1635 -0.3369
10709SOL     OW33025   2.914   6.602   4.751 -0.7727 -0.2930 -0.5348
10709SOL    HW133026   2.961   6.588   4.663  0.0699 -0.5093 -0.0652
10709SOL    HW233027   2.898   6.513   4.794  2.1667 -0.1058  1.2189
10710SOL     OW33028   6.948   1.953   6.309 -0.0838 -0.1193  0.3017
10710SOL    HW133029   6.940   1.994   6.218  0.8660  0.2798  0.3881
10710SOL    HW233030   6.960   1.855   6.301 -1.5168 -0.3027  0.0604
10711SOL     OW33031   2.186   5.355   1.096  0.2315  0.3651  0.7794
10711SOL    HW133032   2.280   5.390   1.091  0.0427  0.8798  0.7858
10711SOL    HW233033   2.138   5.401   1.171  0.2438 -0.5511  1.3634
10712SOL     OW33034   4.541   2.417   5.727 -0.4962 -0.1943  0.1282
10712SOL    HW133035   4.472   2.404   5.657 -0.2170 -1.6503  0.0996
10712SOL    HW233036   4.499   2.411   5.818 -0.6659  0.5764  0.1108
10713SOL     OW33037   2.743   1.707   1.076  0.0614  0.4151  0.1259
10713SOL    HW133038   2.750   1.628   1.137 -1.6476 -0.0313 -0.2001
10713SOL    HW233039   2.747   1.676   0.981  0.5469  0.8730 -0.0100
10714SOL     OW33040   4.082   3.531   1.708  0.0038 -0.2161  0.6224
10714SOL    HW133041   4.111   3.597   1.777  0.3020 -0.0742  0.3599
10714SOL    HW233042   4.160   3.476   1.679  0.2097  0.7346 -0.7063
10715SOL     OW33043   6.493   0.422   0.088  0.1515 -0.1365  0.0071
10715SOL    HW133044   6.500   0.336   0.039  1.8319  0.3114 -0.5876
10715SOL    HW233045   6.570   0.431   0.152  0.7533  1.4647 -0.8725
10716SOL     OW33046   3.372   5.474   5.985  0.2502 -0.1454 -0.4428
10716SOL    HW133047   3.409   5.556   6.029 -1.8887  0.7521 -0.2106
10716SOL    HW233048   3.325   5.418   6.053  1.4161 -1.4439 -0.6613
10717SOL     OW33049   2.865   3.455   5.400  0.3067  0.0328 -0.5090
10717SOL    HW133050   2.933   3.387   5.426  1.2021  0.4945 -1.5409
10717SOL    HW233051   2.907   3.546   5.402 -0.4356  0.3863 -0.6177
10718SOL     OW33052   4.044   2.834   0.171  0.2211  0.3757  0.6867
10718SOL    HW133053   3.951   2.866   0.157  0.7294  1.0693 -1.5427
10718SOL    HW233054   4.107   2.912   0.175  0.8919 -0.1280  0.3179
10719SOL     OW33055   0.845   3.101   1.187 -0.0982  0.7071 -0.3040
10719SOL    HW133056   0.890   3.018   1.221  1.8025  2.1754  0.9343
10719SOL    HW233057   0.758   3.076   1.145  0.9314 -2.0597 -1.0667
10720SOL     OW33058   0.706   6.083   4.220  0.2706 -0.0487  0.3158
10720SOL    HW133059   0.657   6.075   4.307  0.7132  0.5139  0.6239
10720SOL    HW233060   0.803   6.097   4.238  0.6021 -1.3606 -0.2886
10721SOL     OW33061   2.655   6.435   6.330  0.3997 -0.1708 -0.0589
10721SOL    HW133062   2.711   6.386   6.263  0.8077  0.8560 -0.4800
10721SOL    HW233063   2.693   6.422   6.422  1.1951  0.3052 -0.3081
10722SOL     OW33064   1.917   0.466   0.024 -0.8597 -0.1028  1.2730
10722SOL    HW133065   1.848   0.448  -0.046 -0.7278 -2.3011  1.6326
10722SOL    HW233066   1.883   0.435   0.113 -1.0430  2.6787  2.2646
10723SOL     OW33067   1.341   3.718   3.413  0.3277 -0.2095 -0.1149
10723SOL    HW133068   1.314   3.753   3.503  0.8473 -0.0397 -0.0172
10723SOL    HW233069   1.277   3.751   3.344  0.7352  0.8663 -0.0089
10724SOL     OW33070   1.166   0.963   1.423  0.1903  0.3635 -0.0761
10724SOL    HW133071   1.081   0.981   1.472 -1.2735 -0.8230 -1.9971
10724SOL    HW233072   1.213   0.886   1.465 -0.9003 -0.4626 -0.3086
10725SOL     OW33073   5.693   3.732   6.971  0.1637  0.1558 -0.2405
10725SOL    HW133074   5.681   3.714   6.873  1.0388 -0.0115 -0.3230
10725SOL    HW233075   5.721   3.648   7.017 -0.1324  0.2628  0.1365
10726SOL     OW33076   3.393   6.766   2.920  0.1289 -0.7158  0.3458
10726SOL    HW133077   3.480   6.815   2.917  0.2946 -1.0500 -1.9306
10726SOL    HW233078   3.318   6.832   2.929  0.5327 -0.3495  1.1837
10727SOL     OW33079   1.052   2.818   4.391 -0.2321 -0.6716  0.2242
10727SOL    HW133080   1.147   2.796   4.414  0.0644  1.1272  0.9028
10727SOL    HW233081   1.001   2.733   4.377  1.3064 -1.6954  0.4907
10728SOL     OW33082   0.709   4.763   4.171  0.0205 -0.0408 -0.7068
10728SOL    HW133083   0.747   4.757   4.263 -1.7497 -1.2205 -0.0009
10728SOL    HW233084   0.778   4.733   4.104  0.1428 -2.9851  0.5789
10729SOL     OW33085   3.139   6.858   2.197  0.1529 -0.3162 -0.5593
10729SOL    HW133086   3.212   6.845   2.130  0.4486 -1.1430 -0.1025
10729SOL    HW233087   3.061   6.903   2.154  1.4205  1.8457 -0.7218
10730SOL     OW33088   3.417   6.664   2.672 -0.9076  0.0018  0.0652
10730SOL    HW133089   3.384   6.711   2.754  0.3010 -0.8175  1.0650
10730SOL    HW233090   3.367   6.577   2.661 -0.3895 -0.3622  0.5231
10731SOL     OW33091   1.177   4.431   1.684 -0.5736  0.4426  0.0282
10731SOL    HW133092   1.086   4.409   1.720 -0.8836  1.0580 -0.3516
10731SOL    HW233093   1.205   4.521   1.717  0.7859 -0.5732  1.7658
10732SOL     OW33094   4.428   2.433   2.740 -0.2532 -0.2874  0.5132
10732SOL    HW133095   4.408   2.415   2.643  0.7185  1.0759  0.0410
10732SOL    HW233096   4.349   2.478   2.782 -0.7224 -0.9796  0.4045
10733SOL     OW33097   6.993   4.478   0.502  0.1134 -0.5359 -0.3650
10733SOL    HW133098   6.895   4.489   0.482  0.3895  1.5683 -0.7988
10733SOL    HW233099   7.006   4.466   0.600 -0.4594  1.9452  0.0818
10734SOL     OW33100   5.841   1.471   3.276  0.0110  0.4024  0.4165
10734SOL    HW133101   5.810   1.566   3.282  0.8407  0.6062  2.7960
10734SOL    HW233102   5.825   1.426   3.364  0.5159 -1.3782 -0.3700
10735SOL     OW33103   5.731   2.595   0.852  0.1292 -0.1012 -0.1062
10735SOL    HW133104   5.795   2.616   0.778  0.7799 -1.2260  0.1125
10735SOL    HW233105   5.763   2.638   0.937  0.8945 -1.0804  0.1152
10736SOL     OW33106   1.943   6.511   4.652  0.8509 -0.0412 -0.0277
10736SOL    HW133107   2.026   6.462   4.624  2.1476  1.4310  1.0898
10736SOL    HW233108   1.956   6.548   4.744 -0.9530  0.4988  0.0437
10737SOL     OW33109   3.752   6.310   0.835 -0.0972 -0.2232  0.4838
10737SOL    HW133110   3.700   6.350   0.759  1.8297  2.8118  0.6076
10737SOL    HW233111   3.714   6.341   0.922  1.2226  1.1793  0.5912
10738SOL     OW33112   2.128   1.688   3.044 -0.0567  0.5433  0.9922
10738SOL    HW133113   2.199   1.709   3.111  0.7934  0.3443  0.1773
10738SOL    HW233114   2.170   1.675   2.954 -1.1060  0.1953  0.5373
10739SOL     OW33115   3.149   4.220   6.162 -0.3752 -0.0978 -0.5023
10739SOL    HW133116   3.147   4.281   6.082 -0.6059  0.9824  0.2972
10739SOL    HW233117   3.088   4.142   6.145  0.5815 -0.5879 -1.8884
10740SOL     OW33118   1.321   6.286   0.155  0.2005  0.2971  0.2628
10740SOL    HW133119   1.221   6.291   0.149  0.0585  0.1352  2.0333
10740SOL    HW233120   1.352   6.198   0.120 -0.2752  0.2742 -0.1206
10741SOL     OW33121   6.360   4.309   1.810 -0.0030 -0.2910 -0.0193
10741SOL    HW133122   6.394   4.359   1.890 -1.2123  0.0514  0.2916
10741SOL    HW233123   6.260   4.307   1.811 -0.0036 -1.4989 -0.7876
10742SOL     OW33124   0.073   0.015   3.025  0.4665 -0.4503  0.1482
10742SOL    HW133125   0.161   0.061   3.024  0.2954  0.0134 -2.9780
10742SOL    HW233126   0.083  -0.077   2.988 -0.5562  0.1733 -1.8015
10743SOL     OW33127   3.995   2.851   5.715  0.0135 -0.2878 -0.0034
10743SOL    HW133128   4.008   2.948   5.697 -0.8883 -0.0019  0.7969
10743SOL    HW233129   3.966   2.838   5.809  1.8766 -1.5077  0.4563
10744SOL     OW33130   6.866   4.017   6.406 -0.1579 -0.1118 -0.1681
10744SOL    HW133131   6.767   4.012   6.407 -0.2191 -0.9517  3.2968
10744SOL    HW233132   6.902   3.955   6.335 -2.0697 -0.5108 -0.8386
10745SOL     OW33133   6.467   4.912   0.668  0.2852 -0.7047 -0.0691
10745SOL    HW133134   6.402   4.954   0.605  0.3865  0.8242  0.8132
10745SOL    HW233135   6.418   4.857   0.735  0.1348 -1.8358 -1.0713
10746SOL     OW33136   2.703   5.996   5.723  0.0591 -0.0569  0.4194
10746SOL    HW133137   2.705   6.025   5.627 -0.7471  0.6451  0.6032
10746SOL    HW233138   2.659   5.907   5.730  0.9151 -0.5257  0.0529
10747SOL     OW33139   1.567   1.641   5.840 -0.1953 -0.5986  0.3449
10747SOL    HW133140   1.547   1.737   5.857 -1.9192 -0.5843 -1.3561
10747SOL    HW233141   1.482   1.589   5.837  0.4823 -1.7153 -1.2478
10748SOL     OW33142   5.375   3.707   0.486 -0.2656 -0.4335 -0.1931
10748SOL    HW133143   5.386   3.804   0.506 -0.0317 -0.3886 -0.5337
10748SOL    HW233144   5.357   3.657   0.571 -1.9489  0.1135 -0.2103
10749SOL     OW33145   7.012   2.866   5.104 -0.4717 -0.5878  0.3022
10749SOL    HW133146   6.984   2.907   5.017  0.7473 -1.6330 -0.6328
10749SOL    HW233147   6.938   2.811   5.141 -0.6107 -1.0930 -0.7049
10750SOL     OW33148   2.176   4.257   6.605  0.0165 -0.5175 -0.4908
10750SOL    HW133149   2.157   4.278   6.509  0.9504 -2.2468 -1.0967
10750SOL    HW233150   2.109   4.303   6.663  0.3401  1.7893 -1.8446
10751SOL     OW33151   3.899   3.431   0.578  0.1643  0.4355  0.2860
10751SOL    HW133152   3.841   3.354   0.555 -0.6006  0.9940  0.3153
10751SOL    HW233153   3.936   3.471   0.494 -0.3958  0.7630  0.1908
10752SOL     OW33154   6.417   6.118   5.232 -0.0739  0.2766 -0.2448
10752SOL    HW133155   6.435   6.111   5.134 -1.8743 -0.6882 -0.5471
10752SOL    HW233156   6.362   6.200   5.249 -1.2339 -0.4719 -0.3030
10753SOL     OW33157   0.656   2.817   5.233  0.0115 -0.2935  0.4839
10753SOL    HW133158   0.708   2.747   5.183 -0.1672 -1.7715  2.2635
10753SOL    HW233159   0.719   2.882   5.275  0.2154  0.1763 -0.5222
10754SOL     OW33160   3.029   6.443   6.014  0.2413  0.1505 -0.6453
10754SOL    HW133161   3.057   6.448   5.918  1.8196 -0.4710 -0.2532
10754SOL    HW233162   3.087   6.504   6.068  1.6304 -1.9556  0.3561
10755SOL     OW33163   6.979   2.393   1.308  0.1668 -0.4868  0.1725
10755SOL    HW133164   7.039   2.322   1.273 -0.2813 -0.2561 -1.1097
10755SOL    HW233165   7.015   2.483   1.284 -2.2579 -0.3173 -3.6318
10756SOL     OW33166   3.534   5.265   5.792  0.3193  0.2011  0.3600
10756SOL    HW133167   3.462   5.298   5.853  0.0995  0.0654  0.1765
10756SOL    HW233168   3.495   5.199   5.727  0.8385 -0.8390  1.0665
10757SOL     OW33169   2.939   0.830   4.906  0.1204 -0.3516 -0.1991
10757SOL    HW133170   2.890   0.841   4.819 -0.1664 -3.0388 -0.4617
10757SOL    HW233171   2.908   0.899   4.971 -1.3177  0.3076 -1.5131
10758SOL     OW33172   0.622   5.076   1.472  0.7433 -0.1754  0.5247
10758SOL    HW133173   0.712   5.057   1.433 -0.2437 -0.9897 -1.4868
10758SOL    HW233174   0.614   5.173   1.492  1.7393  0.0588 -0.1599
10759SOL     OW33175   5.622   0.356   1.000 -0.2904 -0.6432 -0.1457
10759SOL    HW133176   5.562   0.283   1.033 -1.1973  0.0974 -0.0976
10759SOL    HW233177   5.670   0.397   1.077 -1.2389  0.0693  0.0778
10760SOL     OW33178   1.445   1.642   3.720  0.5155  0.0040 -0.1306
10760SOL    HW133179   1.439   1.604   3.627  0.2302 -0.3643  0.0404
10760SOL    HW233180   1.515   1.592   3.771  0.7295  0.2604 -0.1725
10761SOL     OW33181   3.297   3.433   4.018 -0.2814  0.4157 -0.6649
10761SOL    HW133182   3.321   3.529   4.003  0.8103  0.3791  0.6796
10761SOL    HW233183   3.250   3.424   4.106 -0.6044 -0.2570 -0.9027
10762SOL     OW33184   4.343   1.506   3.420  0.1744  0.1624 -0.5928
10762SOL    HW133185   4.402   1.587   3.420  0.6924 -0.2062 -0.6418
10762SOL    HW233186   4.399   1.425   3.434 -0.4221 -0.1381  0.0843
10763SOL     OW33187   5.545   4.324   0.767 -0.6143  0.1720 -0.2243
10763SOL    HW133188   5.614   4.381   0.811 -2.3188  1.3091  1.0665
10763SOL    HW233189   5.479   4.293   0.834 -1.7811 -0.2985 -1.5375
10764SOL     OW33190   1.278   6.285   0.729 -0.2326  0.4933 -0.1943
10764SOL    HW133191   1.304   6.202   0.678 -1.6705  0.1582 -0.4486
10764SOL    HW233192   1.180   6.300   0.718 -0.1236  1.8064  0.5041
10765SOL     OW33193   2.404   1.502   5.794  0.4747 -0.1247  0.4391
10765SOL    HW133194   2.342   1.425   5.779 -1.1576  0.9298  1.4217
10765SOL    HW233195   2.403   1.563   5.715 -0.0196  0.0668  0.5919
10766SOL     OW33196   2.128   5.028   0.246  0.1521 -0.4957  0.3977
10766SOL    HW133197   2.123   4.939   0.201 -0.8558 -0.2273 -0.0601
10766SOL    HW233198   2.214   5.035   0.296  0.3069 -1.6720  0.3379
10767SOL     OW33199   6.023   1.880   1.110  0.4590 -0.4397  0.3011
10767SOL    HW133200   6.002   1.882   1.207  2.0267  1.1317  0.6698
10767SOL    HW233201   6.094   1.812   1.092  1.3643  0.4264  0.5524
10768SOL     OW33202   4.135   3.478   2.315 -0.4465  0.0094 -0.0855
10768SOL    HW133203   4.160   3.556   2.372  1.6555 -0.4237 -0.3179
10768SOL    HW233204   4.106   3.402   2.373  1.5782 -0.3969  0.4758
10769SOL     OW33205   3.207   2.471   1.732 -0.0289  0.4453 -0.3849
10769SOL    HW133206   3.217   2.372   1.729 -2.1612  0.2040 -1.3869
10769SOL    HW233207   3.115   2.494   1.764 -0.2848  2.0451 -2.1208
10770SOL     OW33208   5.777   2.286   3.776  0.2179  0.4589  0.1824
10770SOL    HW133209   5.743   2.255   3.865 -0.8234  0.7019 -0.1139
10770SOL    HW233210   5.859   2.235   3.752 -0.5117 -0.8926  0.4651
10771SOL     OW33211   0.441   2.520   2.642 -0.4508 -0.0021  0.2741
10771SOL    HW133212   0.453   2.512   2.741  1.7655  1.8962  0.2633
10771SOL    HW233213   0.419   2.615   2.619 -1.3379 -0.5027 -1.0359
10772SOL     OW33214   3.253   2.012   6.074 -0.1552  0.0679 -0.8656
10772SOL    HW133215   3.350   2.026   6.055 -0.2070  0.4791 -0.8324
10772SOL    HW233216   3.236   2.017   6.172  0.0630 -1.7569 -0.6933
10773SOL     OW33217   2.811   6.396   5.446  0.6511 -0.2046  0.1062
10773SOL    HW133218   2.823   6.395   5.546 -0.4562  2.5584  0.3706
10773SOL    HW233219   2.741   6.463   5.422  0.1866 -1.5070 -2.5162
10774SOL     OW33220   1.962   5.455   6.252  0.6877 -0.1792 -0.3235
10774SOL    HW133221   1.952   5.546   6.290  1.3764  0.2010 -1.0347
10774SOL    HW233222   1.994   5.392   6.323  0.8788  0.2777 -0.0054
10775SOL     OW33223   0.415   0.578   3.863  0.4874  0.3916  0.0554
10775SOL    HW133224   0.411   0.664   3.915  0.8343  0.1922  0.4210
10775SOL    HW233225   0.327   0.532   3.869  0.2784  0.7486 -0.1948
10776SOL     OW33226   6.660   5.722   6.293  0.5213  1.2175  0.3270
10776SOL    HW133227   6.619   5.767   6.213  0.2016  1.8003  0.8028
10776SOL    HW233228   6.759   5.723   6.284  0.4819  1.0612 -0.1770
10777SOL     OW33229   5.078   0.529   0.141  0.1859 -0.1756 -0.2862
10777SOL    HW133230   5.050   0.512   0.236 -1.1078 -0.2229 -0.6593
10777SOL    HW233231   5.137   0.455   0.110  0.0278 -0.5340  0.2539
10778SOL     OW33232   2.779   0.277   3.544 -0.2814 -0.5640  0.1521
10778SOL    HW133233   2.744   0.315   3.630  2.1206  1.7085  0.2551
10778SOL    HW233234   2.713   0.294   3.471 -0.9560  0.4334  0.9486
10779SOL     OW33235   3.420   2.412   0.995  0.0266  0.3573  0.2996
10779SOL    HW133236   3.382   2.450   1.080  0.6038  0.5317  0.4825
10779SOL    HW233237   3.496   2.351   1.017  0.6459  0.9566 -0.1255
10780SOL     OW33238   0.915   0.752   4.897  0.4358  0.0477  0.0807
10780SOL    HW133239   1.014   0.769   4.900  0.2474  1.1891  0.3541
10780SOL    HW233240   0.876   0.794   4.815 -0.0292  0.8443  0.7001
10781SOL     OW33241   0.602   6.985   3.729  0.3525 -0.1269  0.4020
10781SOL    HW133242   0.686   6.952   3.687  0.4936  1.1335 -0.3614
10781SOL    HW233243   0.527   6.922   3.708  0.5677  0.1107 -1.1780
10782SOL     OW33244   0.533   6.628   5.576  0.2051  0.5631 -0.0601
10782SOL    HW133245   0.484   6.588   5.498  1.7090  0.5667 -1.0546
10782SOL    HW233246   0.607   6.567   5.604  0.1569  0.9209  0.8873
10783SOL     OW33247   0.817   6.487   0.988  0.5068 -0.0882 -0.1897
10783SOL    HW133248   0.835   6.390   0.976  1.0307  0.0953 -1.0460
10783SOL    HW233249   0.733   6.512   0.939  0.9814  0.0842 -0.9479
10784SOL     OW33250   4.305   0.521   4.225 -0.0466 -0.1581  0.3518
10784SOL    HW133251   4.245   0.555   4.297 -1.9683 -2.0075 -0.2772
10784SOL    HW233252   4.310   0.588   4.151 -1.6949 -0.1255  0.2381
10785SOL     OW33253   3.036   6.248   1.575  0.1402 -0.2933  0.2025
10785SOL    HW133254   3.034   6.289   1.666 -0.5105 -1.2608  0.6504
10785SOL    HW233255   2.944   6.248   1.536  0.4940  0.5278 -0.6595
10786SOL     OW33256   2.235   6.884   6.026  0.2742 -0.2477  0.0514
10786SOL    HW133257   2.300   6.942   5.978 -0.8190  0.0101 -1.1803
10786SOL    HW233258   2.280   6.798   6.052  0.8794 -0.4739 -1.6102
10787SOL     OW33259   3.508   1.218   4.502  0.2306  0.5319 -0.1872
10787SOL    HW133260   3.536   1.247   4.593 -1.5300  0.8495  0.2748
10787SOL    HW233261   3.572   1.149   4.468  1.7853  1.5081  0.6370
10788SOL     OW33262   5.462   6.043   6.513  0.1793 -0.1834 -0.5065
10788SOL    HW133263   5.473   6.036   6.414  1.3865 -0.2478 -0.3715
10788SOL    HW233264   5.442   6.138   6.538  0.9358  0.0358 -0.7172
10789SOL     OW33265   6.599   6.264   6.493 -0.0616 -0.4151  0.3355
10789SOL    HW133266   6.530   6.192   6.490 -0.7728  0.2800 -0.6730
10789SOL    HW233267   6.663   6.246   6.567 -0.5060 -1.8216  0.4042
10790SOL     OW33268   5.022   3.037   5.262  0.0940  0.3487  0.1768
10790SOL    HW133269   4.960   3.097   5.211  1.8205  2.4569  0.4128
10790SOL    HW233270   4.969   2.967   5.310 -1.9120  0.9450 -1.0559
10791SOL     OW33271   0.315   3.220   6.722 -0.2403  0.0576  0.4693
10791SOL    HW133272   0.396   3.222   6.665 -1.2264 -1.1607 -1.0616
10791SOL    HW233273   0.236   3.251   6.669 -0.7201  1.8589  2.1177
10792SOL     OW33274   2.582   2.996   0.456 -0.5482  0.4589 -0.1007
10792SOL    HW133275   2.669   2.982   0.409 -0.5930  2.3893 -0.8583
10792SOL    HW233276   2.515   3.033   0.392 -1.3112  0.9185  0.9363
10793SOL     OW33277   4.699   4.073   0.352 -0.0427 -0.9016  0.0854
10793SOL    HW133278   4.703   4.118   0.441  0.5019 -0.8246  0.0217
10793SOL    HW233279   4.604   4.047   0.333 -1.4070  4.2454 -1.8445
10794SOL     OW33280   5.531   4.284   4.903  0.3615 -0.4160  0.0923
10794SOL    HW133281   5.463   4.356   4.916  0.0037 -1.0270  1.8620
10794SOL    HW233282   5.501   4.200   4.949  1.9899 -0.9104  0.3263
10795SOL     OW33283   4.014   2.294   6.784 -0.4662  1.0543 -0.4351
10795SOL    HW133284   4.005   2.362   6.712 -1.8637  1.3698  0.0136
10795SOL    HW233285   4.107   2.256   6.783  0.7774  3.8711  0.1006
10796SOL     OW33286   0.009   5.784   0.902  0.3090  0.8044  0.1640
10796SOL    HW133287   0.083   5.831   0.950  0.8702 -0.7375  0.8685
10796SOL    HW233288  -0.076   5.794   0.954  0.4109  1.0761  0.2811
10797SOL     OW33289   3.048   5.890   6.825 -0.0728  0.3002 -0.3762
10797SOL    HW133290   3.061   5.829   6.746 -0.5349  0.2460 -0.4129
10797SOL    HW233291   3.114   5.866   6.896 -1.6076 -1.6943  0.4908
10798SOL     OW33292   2.205   3.413   0.090 -0.5466 -0.2680 -0.2678
10798SOL    HW133293   2.194   3.507   0.125  1.3389 -0.4068  0.7993
10798SOL    HW233294   2.164   3.349   0.155  1.2521 -0.3895  0.8031
10799SOL     OW33295   6.872   1.676   1.048  0.0259  0.4269  0.0297
10799SOL    HW133296   6.864   1.590   1.099  1.6097  0.0495 -0.3078
10799SOL    HW233297   6.815   1.672   0.966  2.2120 -1.5040 -1.5168
10800SOL     OW33298   6.560   6.595   0.272 -0.0205 -0.4071 -0.1520
10800SOL    HW133299   6.481   6.598   0.210 -0.1713  0.1713  0.0585
10800SOL    HW233300   6.636   6.645   0.230 -0.1699  0.1097  0.1935
10801SOL     OW33301   0.095   6.116   2.890  0.4712  0.3165  0.1688
10801SOL    HW133302   0.190   6.108   2.860  0.3429  1.2158 -0.5204
10801SOL    HW233303   0.050   6.188   2.837 -0.9274 -0.9033 -0.3652
10802SOL     OW33304   1.116   3.290   3.866  0.1456  0.0729 -0.2390
10802SOL    HW133305   1.146   3.277   3.960  1.1047 -1.2414 -0.7034
10802SOL    HW233306   1.184   3.344   3.816 -0.7473  1.4837 -0.0056
10803SOL     OW33307   1.474   0.342   6.600  0.3376  0.4829  0.6638
10803SOL    HW133308   1.445   0.246   6.601 -1.8228  1.0863  1.0779
10803SOL    HW233309   1.475   0.375   6.506  2.2471 -0.2153  0.3883
10804SOL     OW33310   0.108   5.282   1.398  0.0199 -0.2990 -0.3475
10804SOL    HW133311   0.104   5.358   1.332  0.1087 -0.9528 -1.1154
10804SOL    HW233312   0.020   5.234   1.399  0.1511 -0.5373 -0.2813
10805SOL     OW33313   6.882   0.080   5.316  0.4405  0.3003  0.6237
10805SOL    HW133314   6.917   0.160   5.267 -1.6137  1.1086  0.3846
10805SOL    HW233315   6.908  -0.003   5.267  2.1219  0.8165  0.5741
10806SOL     OW33316   6.189   3.052   4.169 -0.0805 -0.3263 -0.2107
10806SOL    HW133317   6.263   3.058   4.102  0.1877 -0.1040  0.1025
10806SOL    HW233318   6.205   2.972   4.228  0.0106 -0.1712 -0.0246
10807SOL     OW33319   2.352   0.970   2.444  0.3297  0.2990  0.3238
10807SOL    HW133320   2.280   0.919   2.397 -0.5230  0.8094  1.0374
10807SOL    HW233321   2.352   1.064   2.412 -0.1658  0.6146  1.2147
10808SOL     OW33322   3.678   2.914   5.929 -0.4500 -0.0849  0.3088
10808SOL    HW133323   3.655   2.982   5.861 -0.7287  1.1946  1.6276
10808SOL    HW233324   3.739   2.954   5.997 -0.6343 -1.1374  1.1214
10809SOL     OW33325   4.455   0.163   2.139  0.7995  0.3704  0.0399
10809SOL    HW133326   4.472   0.210   2.053 -0.1027  1.2488  0.3262
10809SOL    HW233327   4.510   0.205   2.211  0.5298  0.5180  0.1586
10810SOL     OW33328   1.128   2.730   4.044 -0.2589  0.6105 -0.1553
10810SOL    HW133329   1.052   2.778   4.001 -0.2995 -0.3780 -1.2502
10810SOL    HW233330   1.189   2.695   3.973  0.0198 -0.5312  0.6154
10811SOL     OW33331   6.274   4.465   1.231  0.0202 -0.0382 -0.0769
10811SOL    HW133332   6.311   4.548   1.274  1.5118 -0.3511 -0.6817
10811SOL    HW233333   6.335   4.436   1.157 -1.1339 -0.9855 -0.6907
10812SOL     OW33334   1.404   3.954   3.200  0.0670 -0.3643  0.0368
10812SOL    HW133335   1.482   3.895   3.185 -0.2708 -0.1022 -3.4623
10812SOL    HW233336   1.320   3.900   3.198 -0.2074  0.0408 -2.6933
10813SOL     OW33337   6.415   6.879   0.931  0.5545 -0.6732  0.3988
10813SOL    HW133338   6.408   6.780   0.936  2.3591 -0.9098 -0.6402
10813SOL    HW233339   6.350   6.921   0.995 -1.5898 -2.4476 -0.4766
10814SOL     OW33340   6.367   6.369   0.592  0.0448  0.1930  0.4261
10814SOL    HW133341   6.346   6.466   0.588 -1.5536 -0.1523 -1.5240
10814SOL    HW233342   6.461   6.353   0.564 -0.4111  1.0483 -1.7956
10815SOL     OW33343   5.265   3.475   6.377 -0.7512  0.1269 -0.3707
10815SOL    HW133344   5.248   3.567   6.412  1.2503  0.2253  0.4259
10815SOL    HW233345   5.363   3.462   6.362 -1.2167 -0.9638 -3.1304
10816SOL     OW33346   5.411   1.340   5.785 -0.2347  0.0184 -0.1973
10816SOL    HW133347   5.365   1.254   5.806 -0.2698 -0.1142 -0.7800
10816SOL    HW233348   5.418   1.396   5.867 -0.4399 -0.4339  0.1308
10817SOL     OW33349   5.138   1.698   3.726 -0.5201 -0.2928 -0.4867
10817SOL    HW133350   5.183   1.746   3.651  0.8219 -1.6016 -0.5725
10817SOL    HW233351   5.203   1.635   3.769 -1.2020  0.5393  1.9116
10818SOL     OW33352   2.095   5.558   5.814  0.1277  0.3021 -0.1540
10818SOL    HW133353   2.103   5.656   5.794 -2.5876  0.8692  1.0077
10818SOL    HW233354   2.156   5.534   5.889  0.6831  1.1608 -0.3208
10819SOL     OW33355   2.510   3.258   1.409 -0.0627 -0.6336  0.0946
10819SOL    HW133356   2.415   3.273   1.382 -0.5108 -1.5591  1.0872
10819SOL    HW233357   2.556   3.346   1.417 -1.1839 -0.0841  0.7978
10820SOL     OW33358   6.588   0.618   5.794  0.1197  0.0869  0.1937
10820SOL    HW133359   6.553   0.539   5.844 -0.2059  0.5818  0.7573
10820SOL    HW233360   6.516   0.653   5.734 -0.0376  0.5152  0.6312
10821SOL     OW33361   4.052   0.159   0.487 -0.1310  0.6567  0.2785
10821SOL    HW133362   4.052   0.105   0.403  1.5942  2.8686 -1.2316
10821SOL    HW233363   3.961   0.154   0.529  0.1434 -4.1800  0.8937
10822SOL     OW33364   3.016   3.117   2.645  0.1447 -0.9138 -0.1734
10822SOL    HW133365   3.064   3.200   2.674  0.8070 -1.4614  0.3363
10822SOL    HW233366   2.950   3.092   2.715 -2.0163  0.6616 -1.5201
10823SOL     OW33367   1.655   6.712   1.259  0.2646  0.0206  0.0334
10823SOL    HW133368   1.583   6.782   1.257 -1.2089 -1.2958  2.1442
10823SOL    HW233369   1.722   6.735   1.329 -1.6399 -1.8082  2.6453
10824SOL     OW33370   6.700   0.745   5.998 -0.8205 -0.1261 -0.0067
10824SOL    HW133371   6.797   0.768   5.994 -0.9050  0.3852  0.7181
10824SOL    HW233372   6.672   0.704   5.911 -0.0577  0.1002 -0.3698
10825SOL     OW33373   0.103   5.018   5.694 -0.3149 -0.2559 -0.5252
10825SOL    HW133374   0.004   5.033   5.702 -0.5127 -1.5714 -0.3358
10825SOL    HW233375   0.131   5.032   5.599 -1.2357 -2.7491 -1.2365
10826SOL     OW33376   4.906   1.820   6.985  0.1253  0.2729  0.2719
10826SOL    HW133377   4.878   1.877   6.908 -0.1071 -0.8925 -0.5168
10826SOL    HW233378   4.950   1.737   6.951 -0.9933 -0.7958  1.3586
10827SOL     OW33379   0.983   4.881   6.305 -0.3542 -0.0830  0.2009
10827SOL    HW133380   1.040   4.799   6.307  1.2868  0.8683 -2.4768
10827SOL    HW233381   1.029   4.956   6.353  0.8123  0.6932 -1.9862
10828SOL     OW33382   3.708   6.880   3.566 -0.1391 -0.3365 -0.0571
10828SOL    HW133383   3.629   6.822   3.585 -0.9783  0.3819 -1.1982
10828SOL    HW233384   3.684   6.947   3.496  0.7634  1.4871  1.3185
10829SOL     OW33385   4.740   1.709   4.295 -0.0504  0.1121 -0.1552
10829SOL    HW133386   4.668   1.655   4.338 -0.2961  0.6844  0.1644
10829SOL    HW233387   4.733   1.804   4.325 -0.7314  0.7054 -2.0677
10830SOL     OW33388   6.624   5.359   0.959 -0.8686 -0.4922  0.0020
10830SOL    HW133389   6.677   5.357   1.043  1.5091  3.2735 -1.1860
10830SOL    HW233390   6.547   5.422   0.970  1.0086  2.1924 -1.2724
10831SOL     OW33391   6.960   4.681   1.851 -0.2602 -0.1399  0.8331
10831SOL    HW133392   6.899   4.603   1.860  1.0665 -1.3241 -0.0196
10831SOL    HW233393   6.981   4.696   1.754  0.5318  0.4611  1.0887
10832SOL     OW33394   0.055   1.204   4.853  0.0439 -0.2402  0.5712
10832SOL    HW133395   0.083   1.109   4.872 -0.1637 -0.6452 -1.0277
10832SOL    HW233396   0.136   1.263   4.852  0.1490 -0.3248  1.8399
10833SOL     OW33397   2.028   3.420   4.634 -0.5757 -0.3442  0.0793
10833SOL    HW133398   1.969   3.449   4.558 -0.2426 -0.5909 -0.2822
10833SOL    HW233399   2.047   3.498   4.693 -1.2210 -0.2551  0.1682
10834SOL     OW33400   1.303   1.087   5.444 -0.0697  0.2056  0.0964
10834SOL    HW133401   1.219   1.056   5.399  0.3501 -1.6899  0.5502
10834SOL    HW233402   1.373   1.103   5.374  0.0009 -0.8893 -0.1106
10835SOL     OW33403   2.420   1.305   6.498 -0.0894 -0.4391 -0.2556
10835SOL    HW133404   2.341   1.273   6.444  0.3338 -1.4486 -0.3071
10835SOL    HW233405   2.394   1.308   6.595 -0.1547 -0.9111 -0.2547
10836SOL     OW33406   4.892   3.228   2.543 -0.4705 -0.0432 -0.0993
10836SOL    HW133407   4.843   3.173   2.610  0.6876 -0.6795  0.2391
10836SOL    HW233408   4.885   3.185   2.453  0.1732 -0.5944  0.1080
10837SOL     OW33409   1.814   1.868   5.828  0.5359 -0.1883 -0.3228
10837SOL    HW133410   1.908   1.833   5.829  1.0551  1.1179 -0.0445
10837SOL    HW233411   1.813   1.959   5.785 -0.7388 -0.5130 -1.0248
10838SOL     OW33412   2.174   6.381   3.792 -0.1775  0.3733 -0.2090
10838SOL    HW133413   2.211   6.409   3.704 -1.3281  2.4874 -0.0716
10838SOL    HW233414   2.089   6.329   3.778 -0.3543  0.6993 -0.3609
10839SOL     OW33415   3.170   2.612   0.085  0.1767  0.0419  0.1973
10839SOL    HW133416   3.217   2.559   0.014 -0.9837 -0.5509 -0.1503
10839SOL    HW233417   3.208   2.589   0.175  1.4271  0.5496 -0.1725
10840SOL     OW33418   2.247   2.379   1.740  0.4201  0.9797  0.8630
10840SOL    HW133419   2.342   2.408   1.726  0.6286 -0.3002 -0.5879
10840SOL    HW233420   2.245   2.301   1.801  0.3041  0.9447  0.8149
10841SOL     OW33421   6.901   3.491   2.941  0.2492  0.0824  0.2809
10841SOL    HW133422   6.898   3.423   3.014  0.2757  1.0155  1.1670
10841SOL    HW233423   6.816   3.543   2.940  0.3402  0.2254 -0.2120
10842SOL     OW33424   5.244   6.315   4.396  0.1047 -0.0508 -0.0169
10842SOL    HW133425   5.201   6.302   4.307  1.7535  1.5919 -1.1379
10842SOL    HW233426   5.195   6.386   4.446  0.2261  0.2957 -0.3826
10843SOL     OW33427   4.250   1.670   0.245 -0.2803  0.0831 -0.1621
10843SOL    HW133428   4.171   1.617   0.276 -0.0572  0.0308  0.3364
10843SOL    HW233429   4.302   1.702   0.325 -0.7143  1.5256 -0.4225
10844SOL     OW33430   3.867   4.898   1.967  0.1485  0.1797  0.1063
10844SOL    HW133431   3.886   4.889   1.869  0.5439  0.9932  0.1023
10844SOL    HW233432   3.773   4.868   1.985  0.3020 -0.6306 -0.4063
10845SOL     OW33433   6.685   6.384   1.910  0.0362 -0.0138 -0.0315
10845SOL    HW133434   6.761   6.364   1.972 -0.1646  1.5430  0.7718
10845SOL    HW233435   6.604   6.408   1.963 -0.5274  0.0163 -0.8868
10846SOL     OW33436   1.499   0.433   4.126  0.0426  0.1075  0.2282
10846SOL    HW133437   1.549   0.464   4.045 -0.8459  1.1644  0.0576
10846SOL    HW233438   1.547   0.355   4.167  0.6870 -0.2314 -1.1079
10847SOL     OW33439   0.490   6.390   2.040 -0.0178 -0.6437 -0.2327
10847SOL    HW133440   0.553   6.466   2.053 -0.8088 -0.3763  3.0828
10847SOL    HW233441   0.540   6.308   2.011  1.4906  0.1015  0.2104
10848SOL     OW33442   3.650   0.829   6.769  0.4567 -0.1519  0.3846
10848SOL    HW133443   3.630   0.762   6.698 -0.8098 -0.7522  1.2882
10848SOL    HW233444   3.732   0.881   6.743 -0.6869  0.5491 -2.1469
10849SOL     OW33445   1.537   3.810   1.398 -0.2771 -0.3019  0.3515
10849SOL    HW133446   1.445   3.823   1.437  0.1404  3.0014  0.5349
10849SOL    HW233447   1.529   3.775   1.305 -1.8840  1.4288 -0.2242
10850SOL     OW33448   5.214   1.014   0.454  0.2550  0.2597  0.6819
10850SOL    HW133449   5.283   0.951   0.419 -0.0055 -0.0883  0.7868
10850SOL    HW233450   5.252   1.107   0.457  0.5237  0.1671  0.1994
10851SOL     OW33451   6.816   1.468   3.197 -0.7867  0.2747  0.1232
10851SOL    HW133452   6.805   1.442   3.292 -1.4844  0.5890  0.1336
10851SOL    HW233453   6.877   1.404   3.151 -0.4812  0.1011  0.7690
10852SOL     OW33454   6.434   4.517   4.554 -0.0889 -0.6013 -0.3107
10852SOL    HW133455   6.360   4.510   4.487 -0.9468  2.6508  0.1157
10852SOL    HW233456   6.397   4.505   4.646 -0.2255  1.2075 -0.0835
10853SOL     OW33457   1.810   3.923   4.856  0.0091 -0.4206  0.4101
10853SOL    HW133458   1.880   3.899   4.790 -0.5008  0.8906 -0.6425
10853SOL    HW233459   1.834   3.884   4.945  2.6701  0.9603  0.3883
10854SOL     OW33460   0.835   2.381   2.737  0.2401 -0.3509 -0.1506
10854SOL    HW133461   0.921   2.331   2.733  0.6230  0.1812  1.0037
10854SOL    HW233462   0.778   2.355   2.659  1.7621 -0.1021 -1.4192
10855SOL     OW33463   1.878   7.004   3.075  0.0379 -0.5823 -0.4422
10855SOL    HW133464   1.960   6.961   3.115  0.6423 -0.0924 -1.1414
10855SOL    HW233465   1.797   6.955   3.107  0.4123  0.2918  2.0807
10856SOL     OW33466   4.590   5.023   2.362  0.3534 -0.0041  0.0512
10856SOL    HW133467   4.527   4.990   2.292  1.0647  0.1570 -0.6816
10856SOL    HW233468   4.672   4.966   2.363  0.2219 -0.2017  0.9849
10857SOL     OW33469   5.466   6.753   6.302  0.1438  0.2011 -0.3497
10857SOL    HW133470   5.408   6.713   6.372 -1.4665  0.0240 -1.7225
10857SOL    HW233471   5.530   6.817   6.344 -0.3480 -0.3616  1.3326
10858SOL     OW33472   5.027   6.012   5.707  0.4091  0.2785 -0.0440
10858SOL    HW133473   4.927   6.013   5.708  0.4053  0.9938 -0.3229
10858SOL    HW233474   5.061   6.105   5.692  1.1211  0.0930  0.3578
10859SOL     OW33475   6.954   0.238   6.360 -0.1340 -0.2448 -0.0569
10859SOL    HW133476   7.038   0.184   6.351 -0.6479 -1.5400  2.1104
10859SOL    HW233477   6.976   0.328   6.398  0.2148 -1.0751  1.8342
10860SOL     OW33478   2.001   2.995   4.147  0.1895 -0.4854 -0.0513
10860SOL    HW133479   2.011   3.002   4.048  2.1702 -0.9458  0.0720
10860SOL    HW233480   2.031   3.081   4.189  0.3565 -0.6643  0.1929
10861SOL     OW33481   1.299   6.930   4.669 -0.2724  0.2231 -0.3555
10861SOL    HW133482   1.203   6.934   4.641 -0.8574  1.3959  1.5906
10861SOL    HW233483   1.316   7.000   4.739  1.2548 -1.8552  1.5144
10862SOL     OW33484   3.957   6.297   3.686  0.0178  0.2663 -0.3410
10862SOL    HW133485   4.013   6.370   3.646 -0.2452  0.6155 -0.0807
10862SOL    HW233486   3.930   6.322   3.779  1.4063 -0.9575  0.4335
10863SOL     OW33487   4.925   5.327   0.362  0.3923 -0.1384 -0.4916
10863SOL    HW133488   4.912   5.227   0.366  0.8214 -0.1788 -0.0407
10863SOL    HW233489   4.980   5.356   0.440 -1.4745  0.7403  0.5710
10864SOL     OW33490   5.806   4.137   1.461 -0.4186  0.1238  0.2505
10864SOL    HW133491   5.867   4.069   1.420  1.3373  1.6206  0.2513
10864SOL    HW233492   5.758   4.097   1.538  0.4834 -1.1528  0.1826
10865SOL     OW33493   5.250   2.884   2.823 -0.4446  0.0499 -0.1618
10865SOL    HW133494   5.272   2.846   2.913  1.2293 -0.4803 -0.7528
10865SOL    HW233495   5.188   2.822   2.775  1.0748 -1.2582 -0.5260
10866SOL     OW33496   5.255   6.873   6.162  0.1425 -0.3882  0.0290
10866SOL    HW133497   5.201   6.794   6.132  1.9912 -1.8295  0.3060
10866SOL    HW233498   5.332   6.842   6.217  1.0425  1.6151  0.0027
10867SOL     OW33499   3.816   5.484   1.809 -0.1499  0.1488  0.3564
10867SOL    HW133500   3.808   5.539   1.892 -1.4303 -1.8464  1.6311
10867SOL    HW233501   3.913   5.474   1.785  0.1583  2.0389  0.6741
10868SOL     OW33502   3.423   5.307   1.689 -0.5836  0.2400 -0.1950
10868SOL    HW133503   3.367   5.305   1.771  1.4656 -1.6889  1.3009
10868SOL    HW233504   3.365   5.309   1.608 -2.9025 -2.6059  1.2089
10869NA      NA33505   1.928   2.654   0.981 -0.1294  0.0728 -0.7271
10870NA      NA33506   4.978   3.551   5.085  0.2061 -0.3156 -0.4853
10871NA      NA33507   5.622   5.914   6.635  0.3273  0.1422  0.1912
10872NA      NA33508   5.661   3.054   5.794  0.6668  0.5546  0.2305
10873NA      NA33509   3.261   3.801   5.016  0.0983  0.2369  0.0976
10874NA      NA33510   3.736   3.886   6.133 -0.3614 -0.4630  0.4888
10875NA      NA33511   4.068   0.117   3.603  0.4560  0.0480 -0.5522
10876NA      NA33512   2.633   4.637   1.841 -0.7486  0.6161 -0.1187
10877NA      NA33513   5.867   3.772   1.110  0.1031  0.0467 -0.2778
10878NA      NA33514   3.469   3.018   2.282  0.1270  0.2993 -0.4950
10879NA      NA33515   3.546   4.747   6.271 -0.0756  0.1621 -0.3261
10880NA      NA33516   3.002   2.166   5.186 -0.0525 -0.2730 -0.0037
10881NA      NA33517   0.212   1.258   6.640 -0.0768  0.3872 -0.3530
10882NA      NA33518   0.908   6.667   3.559  0.3318  0.3503  0.1137
   7.01266   7.01266   7.01266
