CNT in water
33518
    1C        C    1   2.847   2.770   4.745  0.0234 -0.0732 -0.2887
    1C        C    2   2.901   2.724   4.867 -0.4301 -0.1759 -0.1233
    1C        C    3   2.839   2.768   4.984 -0.2541 -0.4666  0.0809
    1C        C    4   2.857   2.777   4.259 -0.2132  0.2834  0.0179
    1C        C    5   2.908   2.728   4.381 -0.2384 -0.3503 -0.2196
    1C        C    6   2.852   2.775   4.502 -0.3865 -0.5003 -0.2260
    1C        C    7   3.012   2.635   4.624 -0.3322 -0.4341 -0.0542
    1C        C    8   2.898   2.719   4.624 -0.5576 -0.7327 -0.2643
    1C        C    9   3.078   2.604   4.745 -0.1067 -0.0747 -0.0815
    1C        C   10   3.016   2.642   4.866 -0.1293  0.2426 -0.1901
    1C        C   11   3.183   2.500   4.975 -0.1361 -0.3254 -0.6794
    1C        C   12   3.065   2.575   4.978 -0.2796 -0.5563 -0.5958
    1C        C   13   2.859   2.773   3.771 -0.0677 -0.2644  0.2542
    1C        C   14   2.910   2.727   3.894  0.0224  0.1390  0.3691
    1C        C   15   2.853   2.772   4.015 -0.0926 -0.2451  0.4620
    1C        C   16   3.020   2.641   4.136  0.0764 -0.3439  0.4483
    1C        C   17   2.909   2.729   4.137  0.5481  0.2563  0.3506
    1C        C   18   3.079   2.602   4.258 -0.0952 -0.5104  0.4823
    1C        C   19   3.018   2.640   4.379  0.0391 -0.0266  0.4014
    1C        C   20   3.211   2.558   4.503 -0.0150 -0.6719 -0.0539
    1C        C   21   3.077   2.604   4.502 -0.1794 -1.1293  0.1957
    1C        C   22   3.278   2.530   4.624  0.3093 -0.7267 -0.2434
    1C        C   23   3.209   2.550   4.746  0.0834  0.3626 -0.5309
    1C        C   24   3.414   2.476   4.864 -0.1181 -0.3797 -0.0666
    1C        C   25   3.274   2.506   4.865  0.0062  0.2317 -0.5352
    1C        C   26   3.489   2.482   4.982 -0.0830 -0.0379 -0.1052
    1C        C   27   2.858   2.772   3.284 -0.6894 -0.6016  0.0213
    1C        C   28   2.909   2.721   3.406 -0.6461 -0.4022  0.0863
    1C        C   29   2.859   2.772   3.528 -0.3455 -0.5139  0.2551
    1C        C   30   3.020   2.633   3.649  0.1198  0.0480 -0.1377
    1C        C   31   2.910   2.722   3.650 -0.3613 -0.5448  0.2484
    1C        C   32   3.079   2.599   3.773 -0.0145  0.2900 -0.0062
    1C        C   33   3.022   2.640   3.895 -0.1326 -0.0646  0.0594
    1C        C   34   3.209   2.541   4.016 -0.2229  0.1360 -0.0420
    1C        C   35   3.081   2.599   4.016 -0.3252 -0.0858  0.1480
    1C        C   36   3.278   2.520   4.137  0.2396  0.0909 -0.3049
    1C        C   37   3.213   2.556   4.257 -0.0478 -0.3844 -0.3140
    1C        C   38   3.416   2.510   4.378 -0.1479 -0.1782 -0.3552
    1C        C   39   3.276   2.533   4.381 -0.1627 -0.2594 -0.2273
    1C        C   40   3.487   2.500   4.500  0.4490  0.3194 -0.6565
    1C        C   41   3.416   2.497   4.621  0.6013  0.4557 -0.5594
    1C        C   42   3.629   2.480   4.742 -0.0956 -0.6055 -0.0635
    1C        C   43   3.487   2.475   4.741 -0.1443  0.5167 -0.0975
    1C        C   44   3.704   2.487   4.862 -0.0913 -0.6572 -0.0615
    1C        C   45   3.628   2.480   4.979 -0.0837 -0.2149 -0.0280
    1C        C   46   2.834   2.748   2.793 -0.7819 -0.6137 -0.3176
    1C        C   47   2.893   2.709   2.915 -0.4260 -0.4047 -0.4237
    1C        C   48   2.846   2.760   3.038 -0.3733 -0.6527 -0.3008
    1C        C   49   3.015   2.634   3.157 -0.3508  0.0741 -0.1067
    1C        C   50   2.902   2.718   3.161 -0.7296 -0.4344 -0.0660
    1C        C   51   3.074   2.599   3.280 -0.2923  0.0958 -0.1306
    1C        C   52   3.022   2.637   3.405 -0.3195  0.0417 -0.1268
    1C        C   53   3.208   2.537   3.525 -0.2374 -0.0306 -0.1411
    1C        C   54   3.078   2.592   3.527 -0.3621 -0.3218 -0.2435
    1C        C   55   3.275   2.520   3.648 -0.1387 -0.2205 -0.2210
    1C        C   56   3.209   2.543   3.770 -0.1566 -0.0325 -0.2659
    1C        C   57   3.416   2.515   3.891 -0.5068 -0.2783 -0.1159
    1C        C   58   3.275   2.519   3.893 -0.5085 -0.2962 -0.1242
    1C        C   59   3.488   2.509   4.012 -0.3152  0.6785 -0.1788
    1C        C   60   3.418   2.506   4.135  0.2230 -0.1913  0.1135
    1C        C   61   3.628   2.502   4.257  0.4179  0.5761 -0.0755
    1C        C   62   3.487   2.497   4.257  0.4413 -0.2248 -0.0081
    1C        C   63   3.700   2.503   4.378  0.4030 -0.2134 -0.0512
    1C        C   64   3.628   2.501   4.500  0.4532  0.3742 -0.0069
    1C        C   65   3.835   2.539   4.622  0.0597  0.2337 -0.0020
    1C        C   66   3.700   2.500   4.622  0.1685 -0.1564  0.1594
    1C        C   67   3.896   2.575   4.744 -0.2198  0.5036  0.0590
    1C        C   68   3.834   2.541   4.867 -0.3377 -0.0444 -0.1452
    1C        C   69   4.047   2.589   4.981  0.2053  0.0225  0.2673
    1C        C   70   3.921   2.529   4.976 -0.0018  0.5018 -0.3441
    1C        C   71   2.827   2.735   2.309  0.0463 -0.1230 -0.0202
    1C        C   72   2.882   2.690   2.431  0.1131 -0.2836 -0.1077
    1C        C   73   2.832   2.751   2.549 -0.0617 -0.0999 -0.2740
    1C        C   74   3.003   2.624   2.672 -0.3226 -0.3048 -0.0591
    1C        C   75   2.887   2.705   2.670 -0.3038 -0.2798 -0.2297
    1C        C   76   3.067   2.589   2.793 -0.3452 -0.4767 -0.0961
    1C        C   77   3.006   2.625   2.915 -0.3008 -0.2394 -0.1445
    1C        C   78   3.200   2.532   3.037 -0.2399  0.2231 -0.0973
    1C        C   79   3.072   2.591   3.035 -0.3959 -0.1172 -0.0589
    1C        C   80   3.270   2.518   3.159 -0.0276  0.1589 -0.2284
    1C        C   81   3.203   2.541   3.281 -0.3527 -0.0393 -0.3692
    1C        C   82   3.412   2.500   3.401 -0.2909  0.4844  0.0016
    1C        C   83   3.271   2.512   3.401 -0.2901  0.4904 -0.2740
    1C        C   84   3.483   2.495   3.523 -0.1381  0.1892 -0.0991
    1C        C   85   3.415   2.501   3.646 -0.1150 -0.0506 -0.0757
    1C        C   86   3.627   2.503   3.767 -0.3200 -0.0764 -0.3364
    1C        C   87   3.485   2.501   3.768 -0.3128 -0.7336  0.0412
    1C        C   88   3.697   2.514   3.889 -0.5398  0.5456 -0.2617
    1C        C   89   3.629   2.510   4.013 -0.3135  0.5437 -0.1373
    1C        C   90   3.836   2.545   4.135 -0.0798  0.2160 -0.2593
    1C        C   91   3.700   2.507   4.135  0.0251 -0.1690 -0.3462
    1C        C   92   3.902   2.571   4.257  0.2566  0.5623 -0.5096
    1C        C   93   3.835   2.545   4.378  0.2905  0.1604 -0.5721
    1C        C   94   4.024   2.638   4.501  0.2514 -0.9278  0.2135
    1C        C   95   3.900   2.570   4.501 -0.2327 -0.0653 -0.2408
    1C        C   96   4.088   2.673   4.622  0.2322 -0.4259  0.0839
    1C        C   97   4.025   2.634   4.741 -0.1391  0.3355  0.1467
    1C        C   98   4.178   2.772   4.863  0.1663 -0.1225 -0.0158
    1C        C   99   4.091   2.659   4.865 -0.1350  0.1112  0.1929
    1C        C  100   4.211   2.846   4.978  0.0676  0.1771 -0.1780
    1C        C  101   2.829   2.738   2.070  0.3569  0.1430 -0.0345
    1C        C  102   2.990   2.591   2.191 -0.2361 -0.4415 -0.1167
    1C        C  103   2.880   2.682   2.188 -0.0532 -0.2174 -0.0242
    1C        C  104   3.065   2.578   2.310  0.0535 -0.4150 -0.2940
    1C        C  105   3.002   2.616   2.431 -0.1015 -0.6355 -0.3037
    1C        C  106   3.198   2.532   2.554 -0.3560 -0.4228 -0.0076
    1C        C  107   3.068   2.586   2.552 -0.1489  0.0862 -0.0922
    1C        C  108   3.270   2.517   2.675 -0.1757  0.2680 -0.0223
    1C        C  109   3.198   2.535   2.795 -0.2157 -0.1610  0.0212
    1C        C  110   3.409   2.499   2.913  0.0006  0.8503  0.0356
    1C        C  111   3.269   2.515   2.915 -0.0818  0.1772 -0.0012
    1C        C  112   3.479   2.491   3.036  0.0035 -0.0481 -0.0144
    1C        C  113   3.409   2.492   3.159  0.0217  0.4257 -0.0048
    1C        C  114   3.624   2.506   3.278 -0.1408  0.6456  0.3573
    1C        C  115   3.483   2.498   3.279 -0.1506  0.8142  0.0799
    1C        C  116   3.690   2.516   3.402  0.1560 -0.6723  0.3216
    1C        C  117   3.623   2.508   3.526 -0.1160 -0.1388  0.2125
    1C        C  118   3.831   2.556   3.645  0.2937  0.1262 -0.1581
    1C        C  119   3.698   2.509   3.646  0.2181  0.3389 -0.0017
    1C        C  120   3.899   2.577   3.767 -0.2323  0.1769  0.1279
    1C        C  121   3.832   2.554   3.889 -0.4055  0.1042  0.0195
    1C        C  122   4.025   2.636   4.014  0.0245 -0.0155 -0.4022
    1C        C  123   3.901   2.571   4.012  0.1593 -0.2814 -0.2397
    1C        C  124   4.092   2.670   4.134  0.2639 -0.4646 -0.4051
    1C        C  125   4.028   2.634   4.255  0.4775  0.1428 -0.1068
    1C        C  126   4.188   2.770   4.377 -0.0066 -0.3439  0.2249
    1C        C  127   4.079   2.680   4.378  0.3445 -0.7755  0.3049
    1C        C  128   4.240   2.820   4.498  0.5437 -0.5750  0.0882
    1C        C  129   4.195   2.766   4.620 -0.0150 -0.1356  0.0844
    1C        C  130   4.324   2.934   4.744 -0.3470  0.3566  0.1557
    1C        C  131   4.237   2.821   4.743 -0.0225  0.1043 -0.0184
    1C        C  132   4.349   3.009   4.861  0.0130  0.0764  0.2609
    1C        C  133   4.285   2.963   4.977  0.5148 -0.0937  0.4737
    1C        C  134   3.175   2.474   2.082 -0.0831  0.1102  0.1744
    1C        C  135   3.039   2.506   2.087 -0.2304 -0.4637 -0.0973
    1C        C  136   3.261   2.483   2.192  0.4398 -0.4552 -0.1731
    1C        C  137   3.197   2.526   2.311  0.1490 -0.1843 -0.4202
    1C        C  138   3.406   2.488   2.429 -0.2340  0.5295  0.2025
    1C        C  139   3.266   2.508   2.433 -0.2912  0.2209 -0.1055
    1C        C  140   3.481   2.485   2.548  0.0069  0.1749  0.0473
    1C        C  141   3.409   2.495   2.669 -0.0607  0.9648 -0.0472
    1C        C  142   3.621   2.498   2.791 -0.0876 -0.2858 -0.0194
    1C        C  143   3.480   2.491   2.791 -0.1285  0.4787 -0.0184
    1C        C  144   3.690   2.513   2.913  0.1293  0.0870 -0.1843
    1C        C  145   3.619   2.499   3.035  0.0209 -0.4071 -0.3009
    1C        C  146   3.829   2.547   3.155 -0.6116 -0.1599 -0.0257
    1C        C  147   3.693   2.511   3.155 -0.5904 -0.2420  0.0592
    1C        C  148   3.895   2.574   3.278 -0.0484 -0.0961 -0.3371
    1C        C  149   3.826   2.556   3.400 -0.0996  0.1876 -0.3249
    1C        C  150   4.027   2.627   3.522  0.1698 -0.4119 -0.2828
    1C        C  151   3.895   2.575   3.521 -0.0888  0.2370 -0.3400
    1C        C  152   4.088   2.663   3.645 -0.3692 -0.2770 -0.0508
    1C        C  153   4.031   2.627   3.769 -0.0464 -0.3117  0.0862
    1C        C  154   4.196   2.758   3.893  0.1477  0.4226  0.4307
    1C        C  155   4.088   2.668   3.891  0.0887  0.4998 -0.2410
    1C        C  156   4.254   2.803   4.014  0.3072 -0.1530  0.5741
    1C        C  157   4.203   2.757   4.137  0.1500 -0.3317  0.4425
    1C        C  158   4.339   2.921   4.255 -0.2293  0.1419 -0.3374
    1C        C  159   4.251   2.811   4.258  0.1396 -0.1445  0.3658
    1C        C  160   4.374   2.984   4.377 -0.0423 -0.4465 -0.0820
    1C        C  161   4.331   2.929   4.499  0.3762 -0.4317  0.0780
    1C        C  162   4.429   3.116   4.619  0.5518 -0.5223 -0.2414
    1C        C  163   4.369   2.988   4.621  0.4950 -0.4927  0.0733
    1C        C  164   4.451   3.193   4.736 -0.4238  0.4256 -0.6637
    1C        C  165   4.421   3.130   4.859 -0.4934  0.3671 -0.7116
    1C        C  166   4.516   3.322   4.974 -0.2732  0.2003  0.3310
    1C        C  167   4.480   3.187   4.972 -0.6364  0.2995 -0.6042
    1C        C  168   3.475   2.431   2.075  0.2539  0.8082  0.1088
    1C        C  169   3.401   2.466   2.188  0.5651  0.3366  0.4622
    1C        C  170   3.619   2.474   2.306  0.3717 -0.0384  0.1232
    1C        C  171   3.476   2.473   2.307  0.3713  0.0403  0.6066
    1C        C  172   3.691   2.486   2.426 -0.1972  0.4301  0.4310
    1C        C  173   3.622   2.481   2.549  0.0009 -0.0788  0.5275
    1C        C  174   3.827   2.543   2.667  0.5171 -0.2464  0.2883
    1C        C  175   3.694   2.496   2.670  0.4145  0.0331  0.2718
    1C        C  176   3.891   2.572   2.789  0.3328  0.1054  0.3045
    1C        C  177   3.827   2.547   2.913  0.1460  0.0365  0.1948
    1C        C  178   4.023   2.631   3.035  0.0186  0.0305  0.3445
    1C        C  179   3.897   2.569   3.033 -0.1846  0.4427  0.3155
    1C        C  180   4.088   2.659   3.157  0.4105  0.0553  0.1324
    1C        C  181   4.027   2.621   3.279 -0.1113  0.0754 -0.1194
    1C        C  182   4.196   2.751   3.400  0.2936 -0.2834  0.0641
    1C        C  183   4.091   2.657   3.400  0.2112 -0.1925 -0.2071
    1C        C  184   4.246   2.798   3.523 -0.6500  0.4415  0.1851
    1C        C  185   4.200   2.748   3.647 -0.2588 -0.4233 -0.0066
    1C        C  186   4.340   2.908   3.764 -0.3613 -0.2104  0.2372
    1C        C  187   4.249   2.800   3.769 -0.5517 -0.0638 -0.0375
    1C        C  188   4.379   2.970   3.885 -0.2015  0.0308  0.0625
    1C        C  189   4.341   2.915   4.009  0.1152 -0.0176  0.1406
    1C        C  190   4.446   3.100   4.130  0.3642  0.2867 -0.0736
    1C        C  191   4.377   2.977   4.131  0.9566 -0.0549 -0.0810
    1C        C  192   4.469   3.170   4.251  0.2071 -0.2531  0.2786
    1C        C  193   4.435   3.111   4.374 -0.0826 -0.4201  0.1236
    1C        C  194   4.493   3.316   4.492 -0.1351  0.0289 -0.2731
    1C        C  195   4.453   3.180   4.496 -0.5193  0.1419 -0.1221
    1C        C  196   4.517   3.389   4.610 -0.2286 -0.0662 -0.1938
    1C        C  197   4.507   3.324   4.735  0.1147  0.2065 -0.0218
    1C        C  198   4.552   3.536   4.851 -0.2484 -0.0238  0.1179
    1C        C  199   4.533   3.395   4.855 -0.2645 -0.0189  0.1965
    1C        C  200   4.579   3.622   4.962 -0.1217  0.0303  0.0462
    1C        C  201   3.614   2.415   2.078  0.1390 -0.2863 -0.1028
    1C        C  202   3.829   2.512   2.179  0.0556 -0.1837  0.0996
    1C        C  203   3.694   2.465   2.186  0.0364 -0.1595 -0.0822
    1C        C  204   3.894   2.542   2.302  0.3055 -1.0464  0.1887
    1C        C  205   3.827   2.525   2.425 -0.0804  0.0299  0.1388
    1C        C  206   4.021   2.622   2.547  0.1458 -0.2313  0.1642
    1C        C  207   3.893   2.561   2.544  0.2081 -0.3618  0.1005
    1C        C  208   4.082   2.661   2.668 -0.0470  0.5052  0.0339
    1C        C  209   4.019   2.631   2.791  0.2010  0.4011  0.1366
    1C        C  210   4.197   2.750   2.910  0.0231  0.0324 -0.0918
    1C        C  211   4.079   2.672   2.912  0.0542 -0.0053  0.3493
    1C        C  212   4.251   2.793   3.033  0.1828  0.0287 -0.1607
    1C        C  213   4.196   2.749   3.156  0.4225  0.0384 -0.0518
    1C        C  214   4.337   2.908   3.277 -0.0387  0.1540 -0.1205
    1C        C  215   4.249   2.797   3.278  0.0433  0.0919  0.0929
    1C        C  216   4.373   2.968   3.399 -0.1550 -0.3184  0.1461
    1C        C  217   4.334   2.908   3.521 -0.7568  0.5312  0.3815
    1C        C  218   4.437   3.095   3.640 -0.6244  0.3583 -0.2885
    1C        C  219   4.378   2.967   3.642 -0.6850  0.3947  0.4216
    1C        C  220   4.459   3.163   3.762 -0.2806  0.0078 -0.1528
    1C        C  221   4.438   3.099   3.886  0.3056 -0.1985 -0.1596
    1C        C  222   4.483   3.306   4.004 -0.7766  0.2077  0.0896
    1C        C  223   4.465   3.166   4.007 -0.0644  0.1025 -0.2410
    1C        C  224   4.497   3.377   4.125 -0.5948  0.1468  0.1071
    1C        C  225   4.493   3.309   4.249 -0.0796 -0.2052 -0.0650
    1C        C  226   4.494   3.525   4.365 -0.5503  0.1639  0.4129
    1C        C  227   4.499   3.384   4.368 -0.6836  0.1386 -0.2438
    1C        C  228   4.500   3.596   4.487 -0.9458  0.2291  0.3982
    1C        C  229   4.519   3.530   4.610 -0.2447 -0.0643  0.1420
    1C        C  230   4.497   3.744   4.725  0.4662  0.1791 -0.1708
    1C        C  231   4.528   3.605   4.729 -0.6137 -0.0598  0.1683
    1C        C  232   4.497   3.824   4.841 -0.3940 -0.1789  0.0869
    1C        C  233   4.544   3.758   4.955 -0.2264  0.0071  0.1285
    1C        C  234   4.025   2.598   2.063 -0.2159  0.1118  0.5293
    1C        C  235   3.898   2.542   2.061 -0.1629 -0.0002  0.0166
    1C        C  236   4.082   2.646   2.182  0.0690 -0.0036  0.4409
    1C        C  237   4.021   2.606   2.303 -0.0181 -0.3956  0.2709
    1C        C  238   4.194   2.737   2.420 -0.0608 -0.0774 -0.1407
    1C        C  239   4.082   2.650   2.423  0.2600 -0.4847  0.1637
    1C        C  240   4.250   2.783   2.541 -0.0114  0.0532 -0.2118
    1C        C  241   4.198   2.741   2.666  0.0890  0.3047 -0.0847
    1C        C  242   4.344   2.897   2.786 -0.2785  0.4572 -0.0648
    1C        C  243   4.253   2.789   2.786  0.0887  0.1499 -0.0239
    1C        C  244   4.381   2.957   2.908  0.1746 -0.0488  0.0470
    1C        C  245   4.341   2.902   3.031  0.2072  0.0116  0.0831
    1C        C  246   4.433   3.093   3.151  0.0043  0.3115  0.2714
    1C        C  247   4.374   2.965   3.153  0.1588  0.2376 -0.0226
    1C        C  248   4.460   3.159   3.274  0.4720 -0.0204  0.3449
    1C        C  249   4.433   3.095   3.397 -0.6171 -0.1022  0.0702
    1C        C  250   4.487   3.300   3.514 -0.3236  0.4092 -0.2113
    1C        C  251   4.465   3.160   3.518 -0.6025  0.4535 -0.2312
    1C        C  252   4.486   3.371   3.636 -0.1722  0.0984 -0.0306
    1C        C  253   4.480   3.302   3.760  0.0445 -0.0400 -0.0962
    1C        C  254   4.498   3.515   3.876 -0.3440 -0.0597  0.0809
    1C        C  255   4.493   3.374   3.881 -0.4117 -0.0604 -0.0320
    1C        C  256   4.501   3.587   3.997  0.0477  0.1788 -0.0689
    1C        C  257   4.498   3.518   4.120 -0.6826  0.1415 -0.1059
    1C        C  258   4.471   3.732   4.241  0.1561 -0.1907  0.0624
    1C        C  259   4.486   3.591   4.240 -0.1681 -0.2268  0.1740
    1C        C  260   4.462   3.804   4.362  0.3683  0.2126 -0.1580
    1C        C  261   4.481   3.736   4.485  0.2797  0.4046 -0.0347
    1C        C  262   4.421   3.944   4.601 -0.2985  0.1792  0.0824
    1C        C  263   4.464   3.809   4.604 -0.2182  0.2015  0.0224
    1C        C  264   4.395   4.012   4.722 -0.2508  0.1328  0.1204
    1C        C  265   4.431   3.949   4.843 -0.0467  0.0091 -0.0021
    1C        C  266   4.320   4.132   4.957 -0.0350 -0.0923 -0.3523
    1C        C  267   4.392   4.013   4.961  0.0846 -0.0096  0.0530
    1C        C  268   4.252   2.779   2.062  0.1437 -0.3744 -0.1204
    1C        C  269   4.194   2.732   2.180  0.1118 -0.0653 -0.0112
    1C        C  270   4.343   2.891   2.298 -0.1058  0.2010 -0.3694
    1C        C  271   4.249   2.784   2.299  0.0424  0.0710 -0.0379
    1C        C  272   4.385   2.950   2.420 -0.4953 -0.0584 -0.1078
    1C        C  273   4.343   2.889   2.540  0.1854 -0.1144  0.1037
    1C        C  274   4.449   3.075   2.663  0.0284  0.2808  0.1878
    1C        C  275   4.381   2.952   2.661 -0.0522  0.3311 -0.0522
    1C        C  276   4.470   3.146   2.784  0.5781 -0.0664  0.2982
    1C        C  277   4.439   3.086   2.907  0.5271 -0.2071  0.2144
    1C        C  278   4.492   3.294   3.027  0.4570 -0.0812 -0.0040
    1C        C  279   4.459   3.157   3.028  0.2570 -0.0288  0.1521
    1C        C  280   4.497   3.364   3.149  0.1552  0.2649 -0.1922
    1C        C  281   4.493   3.296   3.272  0.2882  0.0201 -0.3248
    1C        C  282   4.494   3.509   3.390  0.0949  0.0460  0.1459
    1C        C  283   4.508   3.368   3.393  0.1818  0.0449 -0.3291
    1C        C  284   4.490   3.582   3.510  0.3975 -0.0484  0.2130
    1C        C  285   4.495   3.512   3.632  0.5231  0.0656  0.2724
    1C        C  286   4.476   3.724   3.753 -0.1052  0.1037 -0.0386
    1C        C  287   4.495   3.585   3.753  0.5987  0.1960  0.1928
    1C        C  288   4.461   3.794   3.875  0.1331  0.3388 -0.1429
    1C        C  289   4.476   3.726   3.998 -0.4611  0.0900 -0.2030
    1C        C  290   4.425   3.935   4.113 -0.4217 -0.2614  0.1091
    1C        C  291   4.467   3.800   4.118 -0.4793 -0.2832  0.0286
    1C        C  292   4.395   4.003   4.233  0.3436  0.2709  0.0151
    1C        C  293   4.416   3.937   4.357  0.7459  0.3538 -0.0069
    1C        C  294   4.324   4.130   4.477  0.6669  0.4171 -0.0039
    1C        C  295   4.391   4.006   4.477  0.5403  0.3468 -0.0430
    1C        C  296   4.281   4.190   4.598  0.2862  0.2822 -0.0695
    1C        C  297   4.321   4.133   4.720 -0.3011  0.1021  0.0421
    1C        C  298   4.200   4.315   4.840 -0.0838  0.3957 -0.0492
    1C        C  299   4.281   4.198   4.840  0.1611  0.5639 -0.0529
    1C        C  300   4.171   4.402   4.950 -0.3520 -0.0701  0.2539
    1C        C  301   4.335   2.891   2.062  0.1214 -0.3574  0.0250
    1C        C  302   4.461   3.074   2.177  0.0912  0.2970  0.0914
    1C        C  303   4.388   2.951   2.177 -0.0940  0.4044 -0.2657
    1C        C  304   4.473   3.144   2.300 -0.2635  0.0668  0.2588
    1C        C  305   4.444   3.078   2.421 -0.3253 -0.1394  0.1301
    1C        C  306   4.501   3.282   2.540 -0.4420  0.0785  0.0009
    1C        C  307   4.476   3.143   2.542 -0.1979  0.0348  0.0033
    1C        C  308   4.509   3.356   2.660  0.0857  0.0427 -0.0104
    1C        C  309   4.492   3.286   2.781 -0.1181  0.0411 -0.0408
    1C        C  310   4.515   3.499   2.904  0.2216 -0.0387 -0.2888
    1C        C  311   4.502   3.359   2.902 -0.1175 -0.0112 -0.0120
    1C        C  312   4.500   3.573   3.024 -0.5567 -0.0378 -0.3813
    1C        C  313   4.497   3.505   3.148 -0.0023  0.2628 -0.2035
    1C        C  314   4.470   3.720   3.267  0.0398 -0.1313  0.4443
    1C        C  315   4.488   3.579   3.268 -0.0299 -0.1423  0.0455
    1C        C  316   4.455   3.792   3.387 -0.0153  0.5957  0.0066
    1C        C  317   4.469   3.722   3.509  0.4511 -0.0429 -0.4066
    1C        C  318   4.424   3.930   3.630  0.5194 -0.2083  0.0634
    1C        C  319   4.455   3.792   3.631 -0.0664 -0.3441 -0.2931
    1C        C  320   4.394   3.996   3.750  0.5971  0.3999 -0.2485
    1C        C  321   4.425   3.930   3.872  0.8854  0.5402 -0.2454
    1C        C  322   4.327   4.122   3.991  0.6083  0.0103  0.2499
    1C        C  323   4.400   4.002   3.991  0.5549 -0.0243  0.0269
    1C        C  324   4.288   4.184   4.112  0.1232  0.0247  0.0898
    1C        C  325   4.321   4.123   4.235  0.8047  0.5532  0.1759
    1C        C  326   4.188   4.293   4.354 -0.0474  0.0373  0.1857
    1C        C  327   4.279   4.185   4.355  0.7252  0.6757  0.0871
    1C        C  328   4.138   4.348   4.473 -0.3089 -0.0283  0.1091
    1C        C  329   4.188   4.296   4.595  0.0325  0.0651  0.0131
    1C        C  330   4.022   4.430   4.715  0.0121  0.2924  0.1987
    1C        C  331   4.141   4.353   4.716  0.1227  0.4535 -0.1302
    1C        C  332   3.971   4.491   4.831 -0.3668 -0.2919  0.3501
    1C        C  333   4.056   4.483   4.942 -0.1406  0.2299  0.2210
    1C        C  334   4.555   3.267   2.066  0.5332  0.2167  0.1332
    1C        C  335   4.534   3.129   2.067  0.0156  0.2937  0.0401
    1C        C  336   4.536   3.351   2.177 -0.1212  0.2208  0.0185
    1C        C  337   4.504   3.283   2.297 -0.4123  0.0900 -0.1335
    1C        C  338   4.517   3.494   2.415 -0.2103 -0.0695 -0.1513
    1C        C  339   4.510   3.353   2.419 -0.0436 -0.0743 -0.0589
    1C        C  340   4.511   3.565   2.537  0.3084  0.1160 -0.2332
    1C        C  341   4.516   3.497   2.661 -0.3672  0.0672 -0.2320
    1C        C  342   4.493   3.708   2.778  0.5405  0.0364  0.3314
    1C        C  343   4.520   3.570   2.782  0.5611  0.0260 -0.2349
    1C        C  344   4.466   3.778   2.898 -0.2185  0.0507  0.1576
    1C        C  345   4.476   3.712   3.022 -0.4242 -0.0090  0.1413
    1C        C  346   4.421   3.920   3.139  0.3107 -0.1582  0.1790
    1C        C  347   4.463   3.785   3.142 -0.2481 -0.3284  0.3575
    1C        C  348   4.388   3.985   3.259  0.2692  0.3487 -0.1043
    1C        C  349   4.415   3.927   3.385  0.2191  0.6657  0.0550
    1C        C  350   4.327   4.118   3.501 -0.0682  0.0506  0.1229
    1C        C  351   4.394   3.994   3.508 -0.1275  0.0293  0.3462
    1C        C  352   4.281   4.174   3.622 -0.6495 -0.4534  0.1413
    1C        C  353   4.321   4.117   3.745  0.2424  0.2106  0.1663
    1C        C  354   4.188   4.279   3.866  0.2939 -0.0993  0.2892
    1C        C  355   4.284   4.175   3.868  0.3991 -0.0027  0.3166
    1C        C  356   4.138   4.332   3.987  0.0153 -0.1714  0.2069
    1C        C  357   4.191   4.287   4.109  0.0706 -0.0199  0.2387
    1C        C  358   4.018   4.411   4.228 -0.5090 -0.7941 -0.1659
    1C        C  359   4.141   4.341   4.230 -0.0316  0.0265  0.1750
    1C        C  360   3.957   4.453   4.348 -0.3042 -0.4233 -0.1873
    1C        C  361   4.018   4.423   4.471 -0.4436 -0.2487 -0.0739
    1C        C  362   3.832   4.523   4.593  0.0392 -0.0402  0.0958
    1C        C  363   3.962   4.468   4.593  0.0377 -0.0456  0.0765
    1C        C  364   3.761   4.544   4.713 -0.4316 -0.8640 -0.0322
    1C        C  365   3.838   4.539   4.831 -0.5383 -0.7617  0.0433
    1C        C  366   3.631   4.596   4.948 -0.4788  0.5762  0.3723
    1C        C  367   3.768   4.576   4.946 -0.6291 -0.4986 -0.0946
    1C        C  368   4.509   3.566   2.058  0.2583 -0.1251 -0.3759
    1C        C  369   4.532   3.492   2.175 -0.0918  0.2190 -0.0871
    1C        C  370   4.504   3.706   2.291  0.0093  0.1095  0.2182
    1C        C  371   4.526   3.567   2.294  0.1103  0.1198 -0.0148
    1C        C  372   4.475   3.773   2.412  0.0333  0.3157  0.1118
    1C        C  373   4.490   3.704   2.535  0.0440  0.0792 -0.0205
    1C        C  374   4.420   3.906   2.652 -0.0162 -0.3417  0.0075
    1C        C  375   4.475   3.776   2.656  0.0544 -0.3061  0.2105
    1C        C  376   4.383   3.968   2.773 -0.6274 -0.2930 -0.2010
    1C        C  377   4.412   3.908   2.897 -0.2135  0.0515 -0.1292
    1C        C  378   4.325   4.104   3.013 -0.1013 -0.5259  0.1738
    1C        C  379   4.399   3.984   3.015  0.3820 -0.2342  0.1259
    1C        C  380   4.281   4.164   3.133  0.0998  0.3881 -0.1908
    1C        C  381   4.320   4.109   3.258  0.1811  0.2988 -0.2543
    1C        C  382   4.188   4.276   3.376  0.0322 -0.3043  0.0872
    1C        C  383   4.284   4.172   3.379  0.4424  0.0668 -0.0527
    1C        C  384   4.135   4.325   3.498  0.1031 -0.3481  0.1371
    1C        C  385   4.187   4.281   3.621 -0.1048  0.0341  0.3674
    1C        C  386   4.017   4.403   3.741 -0.3010 -0.1506 -0.0682
    1C        C  387   4.137   4.329   3.744 -0.6037 -0.6347  0.4329
    1C        C  388   3.951   4.429   3.863 -0.6952 -1.0738 -0.0765
    1C        C  389   4.013   4.398   3.986 -0.3204 -0.8032 -0.1974
    1C        C  390   3.824   4.497   4.107 -0.4543 -0.9297 -0.0126
    1C        C  391   3.952   4.438   4.106 -0.4484 -0.9155 -0.2258
    1C        C  392   3.755   4.522   4.228 -0.2608 -0.8312  0.0769
    1C        C  393   3.826   4.505   4.349 -0.3627 -0.5774  0.1709
    1C        C  394   3.620   4.543   4.475 -0.3306 -0.3752  0.2838
    1C        C  395   3.761   4.532   4.472 -0.3834 -1.0472  0.2637
    1C        C  396   3.545   4.555   4.594 -0.4720  0.4005  0.1246
    1C        C  397   3.620   4.560   4.714 -0.3591 -0.2105  0.0834
    1C        C  398   3.412   4.543   4.839 -0.2789  0.8034  0.3112
    1C        C  399   3.550   4.574   4.835 -0.0985 -0.0121  0.2131
    1C        C  400   3.348   4.506   4.958 -0.1365  0.0686  0.1627
    1C        C  401   4.495   3.705   2.053  0.0542 -0.1155  0.3470
    1C        C  402   4.452   3.915   2.169 -0.5372 -0.0920 -0.1411
    1C        C  403   4.494   3.780   2.171  0.0523  0.0988  0.2093
    1C        C  404   4.407   3.974   2.289 -0.0439  0.0347 -0.0174
    1C        C  405   4.425   3.904   2.410 -0.3327  0.1755  0.1065
    1C        C  406   4.325   4.096   2.527 -0.1719 -0.0199 -0.1037
    1C        C  407   4.392   3.972   2.530  0.3021  0.2414  0.2450
    1C        C  408   4.279   4.152   2.648 -0.0170 -0.4116  0.1407
    1C        C  409   4.309   4.089   2.770  0.0506  0.1439  0.4158
    1C        C  410   4.178   4.256   2.889 -0.2458 -0.0441 -0.0896
    1C        C  411   4.277   4.156   2.890 -0.1950  0.0084  0.4283
    1C        C  412   4.132   4.315   3.009  0.4369  0.3723 -0.0283
    1C        C  413   4.186   4.269   3.131  0.3316  0.6050  0.1070
    1C        C  414   4.009   4.384   3.252 -0.2393 -0.5289  0.1501
    1C        C  415   4.132   4.316   3.253  0.1985  0.2505  0.1875
    1C        C  416   3.951   4.426   3.374 -0.7460 -0.9661  0.0609
    1C        C  417   4.013   4.396   3.497 -0.1418 -0.7678 -0.1923
    1C        C  418   3.816   4.473   3.618 -0.2616 -0.8865 -0.0522
    1C        C  419   3.950   4.427   3.620 -0.1927 -0.6939 -0.2375
    1C        C  420   3.749   4.492   3.741 -0.0949 -0.7819  0.0227
    1C        C  421   3.820   4.482   3.863 -0.7222 -1.1377  0.3585
    1C        C  422   3.613   4.517   3.989 -0.6823  0.0196  0.2804
    1C        C  423   3.754   4.510   3.985 -0.7032 -0.3468  0.1888
    1C        C  424   3.543   4.526   4.111 -0.5552 -0.0616  0.3589
    1C        C  425   3.615   4.535   4.232 -0.1920 -0.0730  0.1445
    1C        C  426   3.405   4.533   4.357 -0.1590 -0.0494  0.0959
    1C        C  427   3.546   4.538   4.355 -0.1584 -0.0468  0.1621
    1C        C  428   3.331   4.537   4.478 -0.3140  0.2709 -0.0081
    1C        C  429   3.404   4.553   4.597 -0.4696  0.2298  0.0917
    1C        C  430   3.198   4.507   4.722  0.0548 -0.7747  0.2333
    1C        C  431   3.336   4.538   4.720 -0.1606  0.2133  0.2601
    1C        C  432   3.131   4.487   4.846 -0.2967 -0.1548  0.1482
    1C        C  433   3.211   4.485   4.962 -0.1654  0.2412  0.0628
    1C        C  434   4.382   4.121   2.055 -0.6158 -0.1339  0.3132
    1C        C  435   4.450   3.999   2.057 -0.0880  0.1535  0.0381
    1C        C  436   4.304   4.167   2.165 -0.2060  0.4390  0.3697
    1C        C  437   4.331   4.094   2.285  0.1203  0.1406  0.1134
    1C        C  438   4.182   4.250   2.403 -0.3533 -0.1595 -0.1835
    1C        C  439   4.285   4.154   2.404  0.2651  0.4955 -0.0065
    1C        C  440   4.128   4.299   2.524 -0.0341 -0.0776 -0.0727
    1C        C  441   4.180   4.252   2.646 -0.1519 -0.5457 -0.1972
    1C        C  442   4.012   4.386   2.765 -0.3497 -0.6415  0.0885
    1C        C  443   4.127   4.304   2.767 -0.1715 -0.4028 -0.2660
    1C        C  444   3.949   4.423   2.886 -0.3226 -0.5872  0.0878
    1C        C  445   4.010   4.385   3.007 -0.0774 -0.5090 -0.0106
    1C        C  446   3.822   4.482   3.129  0.1654 -0.2839  0.0140
    1C        C  447   3.950   4.421   3.130  0.2068 -0.1943  0.0358
    1C        C  448   3.751   4.487   3.250 -0.2086 -0.7673 -0.1841
    1C        C  449   3.818   4.473   3.374 -0.8535 -1.2694  0.1123
    1C        C  450   3.612   4.523   3.499 -0.4588 -0.4473  0.3893
    1C        C  451   3.750   4.498   3.496 -0.4410 -0.3111  0.1570
    1C        C  452   3.542   4.534   3.622 -0.4274 -0.0450  0.3721
    1C        C  453   3.611   4.524   3.745  0.0426 -0.1813  0.0973
    1C        C  454   3.401   4.527   3.867 -0.1728  0.1628 -0.1295
    1C        C  455   3.542   4.528   3.867 -0.1727 -0.0696 -0.0297
    1C        C  456   3.332   4.522   3.991 -0.1027 -0.0837 -0.1016
    1C        C  457   3.402   4.530   4.113 -0.5521  0.1907  0.1357
    1C        C  458   3.194   4.499   4.235 -0.5250  1.0442 -0.2654
    1C        C  459   3.333   4.523   4.236 -0.5113  0.9390  0.2081
    1C        C  460   3.122   4.490   4.357 -0.2427  0.4487 -0.1420
    1C        C  461   3.192   4.512   4.478 -0.2419 -0.1249 -0.0394
    1C        C  462   3.000   4.428   4.604  0.0740 -0.0338 -0.2643
    1C        C  463   3.127   4.490   4.601  0.0198  0.0848  0.1327
    1C        C  464   2.936   4.399   4.726 -0.1319  0.3779 -0.2776
    1C        C  465   2.996   4.441   4.849 -0.3214 -0.0832 -0.0289
    1C        C  466   2.807   4.334   4.963 -0.1086 -0.0648 -0.1404
    1C        C  467   2.914   4.424   4.965 -0.1194 -0.0594  0.1140
    1C        C  468   4.132   4.297   2.041 -0.0646  0.0648 -0.2427
    1C        C  469   4.188   4.251   2.161 -0.3368  0.2380 -0.0488
    1C        C  470   4.004   4.369   2.277 -0.4566 -0.0067  0.0388
    1C        C  471   4.125   4.294   2.281  0.0072  0.7280 -0.0395
    1C        C  472   3.942   4.401   2.399 -0.2693 -0.2550  0.2006
    1C        C  473   4.011   4.377   2.521 -0.0377 -0.0737  0.1082
    1C        C  474   3.818   4.467   2.643 -0.0823 -0.0812  0.0483
    1C        C  475   3.949   4.415   2.642 -0.0290  0.0472  0.0774
    1C        C  476   3.748   4.485   2.764  0.3041 -0.0624  0.2718
    1C        C  477   3.816   4.470   2.887 -0.3046 -0.5430  0.5548
    1C        C  478   3.608   4.509   3.011 -0.5352 -0.0141  0.4562
    1C        C  479   3.749   4.496   3.009 -0.5937 -0.6852  0.4281
    1C        C  480   3.539   4.510   3.134 -0.5582 -0.0248  0.4441
    1C        C  481   3.611   4.506   3.255 -0.0905  0.0287  0.1663
    1C        C  482   3.400   4.522   3.377 -0.1072  0.0191 -0.0622
    1C        C  483   3.541   4.520   3.377 -0.1130 -0.2800  0.1871
    1C        C  484   3.332   4.517   3.500 -0.2851  0.2245 -0.1522
    1C        C  485   3.401   4.535   3.622 -0.4257  0.2888 -0.0826
    1C        C  486   3.196   4.487   3.744 -0.5400  0.9086 -0.0084
    1C        C  487   3.331   4.526   3.744 -0.3339  0.1993 -0.0381
    1C        C  488   3.128   4.472   3.867 -0.5059  0.6665 -0.0205
    1C        C  489   3.194   4.495   3.990 -0.0877 -0.1515 -0.0840
    1C        C  490   3.004   4.404   4.114 -0.4936  0.3917  0.1542
    1C        C  491   3.129   4.471   4.113 -0.2886  0.0078 -0.1609
    1C        C  492   2.939   4.383   4.237 -0.7464  0.5294  0.0405
    1C        C  493   2.996   4.427   4.359 -0.2643  0.4956 -0.1747
    1C        C  494   2.827   4.304   4.485 -0.2314  0.3768  0.3145
    1C        C  495   2.937   4.392   4.482 -0.2902  0.4293 -0.2093
    1C        C  496   2.773   4.257   4.607 -0.0350 -0.1352  0.2001
    1C        C  497   2.824   4.311   4.727  0.0881  0.1028  0.0347
    1C        C  498   2.664   4.171   4.847 -0.1407  0.1672  0.0863
    1C        C  499   2.755   4.278   4.845 -0.5622  0.5206 -0.2231
    1C        C  500   2.596   4.121   4.960 -0.3710  0.4652  0.0791
    1C        C  501   4.005   4.353   2.039 -0.1309 -0.0738  0.0247
    1C        C  502   3.817   4.467   2.154 -0.0680  0.3685 -0.3240
    1C        C  503   3.942   4.402   2.155 -0.2932 -0.0719 -0.0633
    1C        C  504   3.749   4.483   2.277 -0.1564  0.5289 -0.3909
    1C        C  505   3.814   4.459   2.400  0.0527  0.4881 -0.5051
    1C        C  506   3.607   4.502   2.521  0.3027 -0.5332 -0.0344
    1C        C  507   3.747   4.484   2.522  0.3801 -0.0125 -0.2173
    1C        C  508   3.537   4.508   2.643  0.1945 -0.2547 -0.1043
    1C        C  509   3.608   4.501   2.765  0.3126  0.0719 -0.1450
    1C        C  510   3.398   4.517   2.889  0.3127 -0.5409 -0.4415
    1C        C  511   3.539   4.514   2.888  0.3195 -0.5741 -0.0611
    1C        C  512   3.326   4.517   3.010  0.0449  0.7318 -0.5777
    1C        C  513   3.397   4.513   3.132 -0.5441  0.5829 -0.2302
    1C        C  514   3.190   4.481   3.256 -0.2022  0.2056 -0.1746
    1C        C  515   3.329   4.509   3.256 -0.1623  0.0156 -0.0297
    1C        C  516   3.123   4.461   3.379 -0.3199  0.6283 -0.1684
    1C        C  517   3.195   4.485   3.499 -0.4954  1.1048 -0.1566
    1C        C  518   3.002   4.403   3.621 -0.3300  0.8796  0.1639
    1C        C  519   3.128   4.465   3.622 -0.3622  0.9445 -0.1115
    1C        C  520   2.941   4.373   3.745 -0.0732  0.4186  0.1794
    1C        C  521   3.003   4.408   3.867 -0.4363  0.5309  0.3303
    1C        C  522   2.831   4.288   3.996 -0.6923  0.5932  0.0266
    1C        C  523   2.943   4.374   3.990 -0.7557  0.6833  0.2163
    1C        C  524   2.779   4.243   4.119 -0.2123 -0.1799 -0.0491
    1C        C  525   2.832   4.292   4.240 -0.0003 -0.3606 -0.0712
    1C        C  526   2.690   4.141   4.365  0.5359 -0.0941  0.3218
    1C        C  527   2.777   4.252   4.364  0.3629  0.0360  0.2160
    1C        C  528   2.648   4.083   4.486  0.3531 -0.3394  0.1380
    1C        C  529   2.690   4.143   4.607 -0.2326  0.0137  0.1626
    1C        C  530   2.581   3.966   4.732 -0.2566  0.0107  0.0033
    1C        C  531   2.639   4.096   4.730  0.0812 -0.1366  0.2326
    1C        C  532   2.542   3.905   4.854  0.3880  0.1540  0.2843
    1C        C  533   2.527   3.999   4.960  0.2211  0.1251  0.2855
    1C        C  534   3.616   4.552   2.042  0.2207  0.4113  0.2033
    1C        C  535   3.750   4.510   2.039 -0.0895 -0.5937 -0.6820
    1C        C  536   3.536   4.521   2.156 -0.0134  0.2961  0.0132
    1C        C  537   3.609   4.507   2.278 -0.2140  0.2032  0.1246
    1C        C  538   3.395   4.512   2.399 -0.0733  0.7256  0.4351
    1C        C  539   3.536   4.510   2.399 -0.0734  0.1300  0.2166
    1C        C  540   3.327   4.499   2.523 -0.4985  0.3273  0.1690
    1C        C  541   3.396   4.502   2.645  0.2005 -0.5430 -0.1882
    1C        C  542   3.187   4.480   2.767 -0.1010  0.2074  0.2304
    1C        C  543   3.327   4.502   2.768  0.0175 -0.4494 -0.2848
    1C        C  544   3.119   4.461   2.889 -0.1348  0.4979  0.2612
    1C        C  545   3.188   4.486   3.010  0.1691  0.1188  0.1706
    1C        C  546   3.000   4.393   3.135 -0.1582 -0.2514  0.0680
    1C        C  547   3.124   4.461   3.133 -0.3086  0.0270 -0.0897
    1C        C  548   2.938   4.360   3.257 -0.6243  0.2600 -0.0232
    1C        C  549   2.998   4.396   3.379  0.0238 -0.0360 -0.2487
    1C        C  550   2.822   4.283   3.505  0.3960  0.1812 -0.2309
    1C        C  551   2.934   4.370   3.502  0.2687  0.3527 -0.0349
    1C        C  552   2.776   4.236   3.630  0.0794  0.5298 -0.2180
    1C        C  553   2.829   4.287   3.751  0.1521  0.1076 -0.0739
    1C        C  554   2.691   4.129   3.877  0.4088 -0.0755  0.2391
    1C        C  555   2.778   4.240   3.874 -0.2176  0.4136 -0.1106
    1C        C  556   2.652   4.071   4.000  0.5074 -0.2836  0.1687
    1C        C  557   2.689   4.134   4.120  0.0448 -0.3847  0.3606
    1C        C  558   2.601   3.946   4.248  0.7624 -0.4612 -0.0597
    1C        C  559   2.652   4.077   4.244  0.3078 -0.2696  0.4891
    1C        C  560   2.568   3.884   4.370  0.3016 -0.0608  0.0185
    1C        C  561   2.585   3.956   4.490 -0.2646 -0.0355  0.0852
    1C        C  562   2.537   3.752   4.614 -0.0840 -0.1058  0.1287
    1C        C  563   2.562   3.891   4.613 -0.2636 -0.0750  0.0616
    1C        C  564   2.522   3.685   4.737 -0.0161  0.0154  0.2007
    1C        C  565   2.528   3.762   4.857  0.3221  0.1571  0.0944
    1C        C  566   2.524   3.548   4.978  0.1422  0.1527  0.0243
    1C        C  567   2.530   3.687   4.975  0.2655  0.1484  0.0896
    1C        C  568   3.325   4.481   2.039  0.3511 -0.1051  0.1600
    1C        C  569   3.395   4.505   2.158  0.0265 -0.0548  0.3451
    1C        C  570   3.183   4.474   2.281  0.0487 -0.4031 -0.1816
    1C        C  571   3.321   4.508   2.279  0.0537 -0.3624  0.3746
    1C        C  572   3.117   4.454   2.405  0.1393  0.4702  0.0207
    1C        C  573   3.188   4.474   2.526 -0.4237 -0.1026  0.4578
    1C        C  574   2.989   4.397   2.647 -0.4765  0.0542 -0.1363
    1C        C  575   3.119   4.454   2.647 -0.4731  0.0649  0.4654
    1C        C  576   2.934   4.356   2.770 -0.1580 -0.2351 -0.0799
    1C        C  577   2.996   4.392   2.891  0.1223  0.0056 -0.2876
    1C        C  578   2.823   4.272   3.014 -0.3295  0.8229 -0.4638
    1C        C  579   2.939   4.353   3.014 -0.2091  0.6542 -0.2219
    1C        C  580   2.773   4.228   3.138  0.0431  0.1948 -0.5307
    1C        C  581   2.826   4.275   3.261 -0.5537  0.1546 -0.2513
    1C        C  582   2.693   4.113   3.385  0.2931 -0.0985  0.1870
    1C        C  583   2.777   4.226   3.384 -0.1187  0.2108 -0.0566
    1C        C  584   2.653   4.063   3.511  0.4418 -0.0129  0.2690
    1C        C  585   2.690   4.124   3.632  0.5448  0.1790  0.1403
    1C        C  586   2.602   3.934   3.757  0.1804  0.2431 -0.3328
    1C        C  587   2.657   4.065   3.756  0.6340  0.0592  0.1052
    1C        C  588   2.573   3.873   3.881  0.4395 -0.1641 -0.4718
    1C        C  589   2.605   3.938   4.002  0.5587 -0.3141 -0.4257
    1C        C  590   2.532   3.744   4.129  0.2466  0.0992  0.1552
    1C        C  591   2.576   3.878   4.126  0.7126 -0.0627 -0.2704
    1C        C  592   2.519   3.675   4.252  0.9793 -0.1216  0.1095
    1C        C  593   2.532   3.747   4.373  0.3028 -0.0550  0.1418
    1C        C  594   2.524   3.536   4.500  0.6619 -0.0463  0.3442
    1C        C  595   2.521   3.678   4.495 -0.0450 -0.0657  0.1008
    1C        C  596   2.525   3.467   4.622  0.1839 -0.1570  0.2849
    1C        C  597   2.524   3.543   4.741 -0.0448  0.0151  0.1719
    1C        C  598   2.537   3.329   4.862 -0.4850 -0.0994  0.1753
    1C        C  599   2.524   3.470   4.862  0.2434 -0.0275  0.1458
    1C        C  600   2.538   3.249   4.977 -0.3678  0.0318  0.2657
    1C        C  601   3.192   4.443   2.042  0.1696  0.5193  0.2422
    1C        C  602   2.984   4.389   2.160 -0.0524 -0.6187  0.1563
    1C        C  603   3.116   4.443   2.160 -0.3936  0.2422 -0.1168
    1C        C  604   2.931   4.348   2.285  0.0548 -0.3859  0.2798
    1C        C  605   2.996   4.383   2.406  0.2865  0.2062 -0.0032
    1C        C  606   2.816   4.268   2.527 -0.4623  0.4152 -0.3037
    1C        C  607   2.928   4.354   2.527 -0.2033  0.0877 -0.2948
    1C        C  608   2.766   4.220   2.650 -0.8848  0.5827 -0.4032
    1C        C  609   2.821   4.271   2.769 -0.5310  0.2455 -0.4143
    1C        C  610   2.687   4.109   2.895  0.3193 -0.2762  0.1848
    1C        C  611   2.771   4.223   2.892  0.1361 -0.1467 -0.2836
    1C        C  612   2.647   4.055   3.019 -0.5274  0.2595  0.1541
    1C        C  613   2.693   4.112   3.140 -0.0946  0.2925 -0.0204
    1C        C  614   2.581   3.933   3.266  0.8862 -0.1645  0.2787
    1C        C  615   2.653   4.055   3.263  0.0326  0.3535  0.0508
    1C        C  616   2.565   3.868   3.389  0.5690 -0.4002  0.1162
    1C        C  617   2.595   3.934   3.510  0.2436  0.0764 -0.0623
    1C        C  618   2.534   3.735   3.638  0.3978 -0.1340  0.2940
    1C        C  619   2.574   3.870   3.634  0.0844 -0.0507 -0.1559
    1C        C  620   2.522   3.668   3.761  1.0725 -0.4516  0.1892
    1C        C  621   2.529   3.739   3.883  0.5225 -0.1808  0.0615
    1C        C  622   2.517   3.532   4.011  0.4155  0.0644  0.1257
    1C        C  623   2.522   3.673   4.008  0.2483  0.0689  0.1764
    1C        C  624   2.518   3.463   4.134  0.3836  0.0107  0.0924
    1C        C  625   2.515   3.534   4.255  0.4922 -0.1045  0.1594
    1C        C  626   2.548   3.326   4.379  0.1491  0.0270 -0.1399
    1C        C  627   2.521   3.464   4.378  0.4765  0.0909  0.2689
    1C        C  628   2.558   3.256   4.501 -0.2516  0.1675 -0.0267
    1C        C  629   2.544   3.327   4.622  0.5140 -0.1124  0.2319
    1C        C  630   2.604   3.121   4.742 -0.1954 -0.1796  0.0572
    1C        C  631   2.564   3.258   4.743  0.3990 -0.0051  0.3120
    1C        C  632   2.617   3.047   4.863 -0.2803 -0.1039  0.1142
    1C        C  633   2.553   3.110   4.974 -0.3599  0.0383 -0.0103
    1C        C  634   2.784   4.302   2.053 -0.5759  0.1083 -0.4068
    1C        C  635   2.890   4.395   2.052 -0.1208 -0.3944  0.2255
    1C        C  636   2.753   4.227   2.166  0.4119 -0.2587 -0.3636
    1C        C  637   2.817   4.263   2.287  0.1411 -0.5153 -0.1363
    1C        C  638   2.668   4.111   2.407 -0.2229 -0.2741 -0.2340
    1C        C  639   2.760   4.217   2.408  0.0643 -0.5174 -0.1692
    1C        C  640   2.630   4.054   2.530  0.3425 -0.1719 -0.0071
    1C        C  641   2.673   4.113   2.651 -0.3328  0.0972  0.1118
    1C        C  642   2.578   3.926   2.778 -0.4284  0.2593  0.3310
    1C        C  643   2.639   4.054   2.775 -0.1577  0.1322  0.1832
    1C        C  644   2.557   3.861   2.901  0.1568 -0.1349  0.2322
    1C        C  645   2.581   3.931   3.022  0.1374 -0.0971  0.2179
    1C        C  646   2.518   3.730   3.150  0.1914 -0.0403 -0.4218
    1C        C  647   2.550   3.868   3.144  0.4946 -0.0732  0.3243
    1C        C  648   2.514   3.660   3.273  0.6331  0.0073 -0.3775
    1C        C  649   2.532   3.731   3.394  0.3212 -0.3490 -0.1198
    1C        C  650   2.515   3.522   3.523  0.9589  0.0063 -0.0004
    1C        C  651   2.517   3.663   3.517  0.8419  0.0124  0.1440
    1C        C  652   2.528   3.455   3.646  0.9553 -0.2113 -0.1203
    1C        C  653   2.527   3.527   3.768  1.1398 -0.4545  0.0221
    1C        C  654   2.545   3.319   3.892  0.4467 -0.0698 -0.1011
    1C        C  655   2.519   3.458   3.891  0.5112 -0.0559  0.2048
    1C        C  656   2.563   3.252   4.015  0.1945 -0.0532 -0.0591
    1C        C  657   2.548   3.325   4.135  0.3890  0.0127 -0.0779
    1C        C  658   2.619   3.125   4.255  0.5817  0.0909  0.2028
    1C        C  659   2.570   3.257   4.257 -0.0385 -0.1341 -0.0817
    1C        C  660   2.643   3.059   4.378 -0.0459  0.0676  0.3126
    1C        C  661   2.608   3.124   4.498  0.1608  0.3168  0.2399
    1C        C  662   2.714   2.940   4.623 -0.0271 -0.1663  0.1807
    1C        C  663   2.636   3.058   4.620  0.3033  0.0519  0.0654
    1C        C  664   2.755   2.878   4.744 -0.0589 -0.1331  0.2105
    1C        C  665   2.701   2.931   4.864  0.3848  0.3666  0.1985
    1C        C  666   2.744   2.869   4.982 -0.2640 -0.4772  0.0026
    1C        C  667   2.680   4.023   2.052 -0.2407 -0.2166 -0.0145
    1C        C  668   2.684   4.104   2.167  0.8256 -0.4941  0.1535
    1C        C  669   2.584   3.913   2.292  0.6855 -0.7824 -0.0809
    1C        C  670   2.636   4.046   2.286  0.0465 -0.5300 -0.1730
    1C        C  671   2.554   3.851   2.415  0.3959 -0.3486  0.0740
    1C        C  672   2.578   3.922   2.534  1.2929 -0.5615  0.0332
    1C        C  673   2.518   3.721   2.663  1.2438 -0.2110 -0.3001
    1C        C  674   2.550   3.859   2.657  0.9529 -0.1163  0.1943
    1C        C  675   2.507   3.652   2.786  0.5075 -0.1117 -0.3034
    1C        C  676   2.529   3.723   2.906  0.8161 -0.2913 -0.2491
    1C        C  677   2.515   3.517   3.034  0.7660 -0.1843  0.1860
    1C        C  678   2.511   3.658   3.030  0.0648 -0.2125 -0.3136
    1C        C  679   2.521   3.446   3.156  0.8951 -0.1620  0.1948
    1C        C  680   2.519   3.519   3.276  1.0135  0.0305  0.0818
    1C        C  681   2.551   3.314   3.401  0.4278 -0.1854  0.2761
    1C        C  682   2.523   3.452   3.401  1.0944 -0.0460  0.0384
    1C        C  683   2.566   3.249   3.525 -0.6765 -0.5944  0.2048
    1C        C  684   2.547   3.315   3.649 -0.4535 -0.4134  0.1393
    1C        C  685   2.613   3.116   3.769 -0.3008 -0.5405 -0.3000
    1C        C  686   2.566   3.248   3.772 -0.1486 -0.4957  0.0465
    1C        C  687   2.648   3.056   3.892 -0.0730 -0.0609 -0.1338
    1C        C  688   2.612   3.119   4.013  0.1531 -0.0652 -0.0662
    1C        C  689   2.717   2.935   4.137  0.9285  0.6734 -0.1336
    1C        C  690   2.642   3.054   4.135  0.1034  0.1654  0.0679
    1C        C  691   2.765   2.884   4.260  0.0668  0.5253  0.1487
    1C        C  692   2.721   2.941   4.381 -0.0616  0.0570  0.3238
    1C        C  693   2.762   2.883   4.503 -0.0336 -0.2038  0.1939
    1C        C  694   2.632   3.891   2.053 -0.2564 -0.2211 -0.7253
    1C        C  695   2.527   3.708   2.176 -0.0398 -0.0358  0.0342
    1C        C  696   2.574   3.841   2.171  0.2949 -0.1684 -0.4250
    1C        C  697   2.507   3.641   2.299  0.4495 -0.6376 -0.2069
    1C        C  698   2.516   3.715   2.419  0.9069 -0.5111 -0.3107
    1C        C  699   2.500   3.507   2.544  0.3718 -0.2982 -0.0875
    1C        C  700   2.510   3.648   2.543  0.8624 -0.3291 -0.2087
    1C        C  701   2.506   3.438   2.667 -0.2848  0.0431  0.1410
    1C        C  702   2.504   3.511   2.788 -0.1051 -0.0969  0.2325
    1C        C  703   2.538   3.305   2.913  0.0339 -0.2038 -0.0371
    1C        C  704   2.519   3.445   2.912  0.3705 -0.1536  0.1506
    1C        C  705   2.559   3.236   3.034  0.1687 -0.1576 -0.0312
    1C        C  706   2.550   3.308   3.156 -0.3224 -0.4257  0.0933
    1C        C  707   2.607   3.108   3.280 -1.0148 -0.4427 -0.2491
    1C        C  708   2.561   3.241   3.280 -0.3470 -0.2024  0.2165
    1C        C  709   2.639   3.048   3.404 -1.1448 -0.6262 -0.3038
    1C        C  710   2.615   3.117   3.525 -0.1902 -0.4137 -0.2295
    1C        C  711   2.719   2.932   3.650 -0.1238 -0.4496 -0.0517
    1C        C  712   2.644   3.052   3.647 -0.2745 -0.5522 -0.2849
    1C        C  713   2.759   2.872   3.771  0.0930 -0.1021  0.0496
    1C        C  714   2.720   2.935   3.892 -0.0183 -0.0267 -0.0275
    1C        C  715   2.760   2.879   4.015  0.1004 -0.0761 -0.0895
    1C        C  716   2.443   3.502   2.064  0.0167  0.0404 -0.1005
    1C        C  717   2.480   3.638   2.065  0.3861 -0.0596 -0.1332
    1C        C  718   2.474   3.426   2.181  0.1618  0.0320 -0.1429
    1C        C  719   2.486   3.501   2.301  0.1409 -0.5897  0.2564
    1C        C  720   2.523   3.294   2.425  0.5162 -0.7111  0.0765
    1C        C  721   2.496   3.433   2.424  0.4492 -0.7203  0.1638
    1C        C  722   2.552   3.229   2.547  0.0562 -0.3634  0.3800
    1C        C  723   2.538   3.301   2.667 -0.1502  0.0707  0.1022
    1C        C  724   2.611   3.105   2.793  0.0240 -0.2053  0.1013
    1C        C  725   2.557   3.236   2.791  0.1650 -0.1453 -0.0535
    1C        C  726   2.637   3.040   2.915  0.4093 -0.1287  0.0636
    1C        C  727   2.606   3.103   3.037 -0.3687 -0.3510 -0.0122
    1C        C  728   2.716   2.925   3.162  0.0001 -0.2849  0.2541
    1C        C  729   2.634   3.039   3.160 -0.1897 -0.4224 -0.0878
    1C        C  730   2.760   2.874   3.286 -0.3971 -0.3236  0.3834
    1C        C  731   2.718   2.931   3.407 -1.4455 -0.8188  0.2629
    1C        C  732   2.760   2.873   3.529 -0.8681 -1.0196 -0.0311
    1C        C  733   2.504   3.205   2.070  0.3246 -0.1390 -0.0677
    1C        C  734   2.498   3.285   2.185  0.7837  0.1317 -0.2252
    1C        C  735   2.578   3.084   2.305  0.3369 -0.0693 -0.2121
    1C        C  736   2.527   3.217   2.307 -0.4896 -0.3781 -0.1855
    1C        C  737   2.614   3.022   2.426  0.8120  0.1395 -0.2419
    1C        C  738   2.594   3.094   2.547  0.4330 -0.2534 -0.0650
    1C        C  739   2.697   2.913   2.673 -0.0860 -0.1722  0.1087
    1C        C  740   2.626   3.035   2.671 -0.3222 -0.3062  0.1119
    1C        C  741   2.743   2.856   2.794 -0.4181 -0.3056  0.1755
    1C        C  742   2.706   2.917   2.916 -0.2770 -0.5182  0.3261
    1C        C  743   2.754   2.867   3.039 -0.4589 -0.7255  0.3142
    1C        C  744   2.549   3.073   2.070  0.1903 -0.1872 -0.6827
    1C        C  745   2.683   2.898   2.188 -0.0596  0.1133 -0.0449
    1C        C  746   2.601   3.013   2.185  0.0356  0.1754 -0.4192
    1C        C  747   2.733   2.841   2.307 -0.2709 -0.4028 -0.1963
    1C        C  748   2.692   2.905   2.426  0.4668 -0.0932 -0.0985
    1C        C  749   2.738   2.856   2.551 -0.6356 -0.6113  0.1216
    1C        C  750   2.736   2.841   2.071  0.3291  0.1158  0.1288
    1C        C  751   3.660   2.319   1.974 -0.7690 -0.3429 -0.4612
    1C        O  752   3.711   2.210   2.012 -0.5349 -0.1012 -0.0742
    1C        O  753   3.672   2.366   1.843  0.0731 -0.1619 -0.3268
    1C        C  754   4.627   3.044   1.988  0.0551 -0.0944  0.5042
    1C        O  755   4.746   3.016   2.019 -0.0441 -0.4713  0.5492
    1C        O  756   4.621   3.064   1.850  0.5086 -0.4661  0.4306
    1C        C  757   4.425   4.219   1.951 -0.2966 -0.1703  0.4124
    1C        O  758   4.488   4.323   1.984 -0.6160  0.2692 -0.3585
    1C        O  759   4.385   4.207   1.818  0.1425  0.0554  0.2633
    1C        C  760   3.589   4.681   1.975 -0.0848  0.1542 -0.1790
    1C        O  761   3.607   4.791   2.035  0.1721  0.1956 -0.3313
    1C        O  762   3.521   4.692   1.853 -0.0279 -0.1230 -0.2366
    1C        C  763   2.857   4.516   1.973 -0.1111 -0.6896 -0.2389
    1C        O  764   2.857   4.503   1.848  0.3113 -0.3529 -0.2772
    1C        O  765   2.766   4.616   2.010  0.3203 -0.3977  0.0462
    1C        C  766   2.307   3.492   2.005  0.0802 -0.5572 -0.1450
    1C        O  767   2.290   3.461   1.884  0.1296 -0.3057 -0.2170
    1C        O  768   2.192   3.512   2.082  0.1253 -0.3251 -0.1377
    1C        C  769   4.674   3.593   5.072 -0.0096  0.6715  0.1276
    1C        O  770   4.648   3.569   5.193 -0.0376 -0.2674 -0.0552
    1C        O  771   4.812   3.595   5.050 -0.0176  0.3114  0.0338
    1C        C  772   4.279   4.451   5.039  0.0169 -0.3647 -0.0284
    1C        O  773   4.288   4.444   5.164  0.6538  0.2342 -0.0356
    1C        O  774   4.370   4.544   4.988  0.0879 -0.1754  0.4409
    1C        C  775   4.140   2.511   5.067  0.7489  0.3393 -0.0277
    1C        O  776   4.194   2.404   5.030 -0.1999 -0.1113 -0.1450
    1C        O  777   4.153   2.546   5.202 -0.6157 -0.0383  0.2108
    1C        C  778   2.877   4.550   5.034 -0.1562  0.1085 -0.2138
    1C        O  779   2.792   4.628   4.982 -0.6763  0.0721  0.5770
    1C        O  780   2.878   4.575   5.172 -0.4851 -0.2031 -0.1544
    1C        C  781   2.451   3.037   5.052 -0.0803 -0.0128  0.3103
    1C        O  782   2.385   2.937   5.012  0.2590  0.0708 -0.4730
    1C        O  783   2.469   3.015   5.188 -0.5239 -0.2347  0.3375
    1C        C  784   2.428   3.992   5.070 -0.3188 -0.1842 -0.2149
    1C        O  785   2.306   3.979   5.043 -0.1763 -0.1494 -0.8952
    1C        O  786   2.458   3.999   5.207  0.3096  0.2571 -0.3699
    1C        C  787   2.962   2.435   1.982 -0.0355 -0.1352 -0.4658
    1C        O  788   2.908   2.495   1.885 -0.4494  0.0811 -0.1067
    1C        O  789   2.888   2.321   2.014  0.0645 -0.0537  0.0629
    1C        C  790   3.179   2.389   5.072 -0.1232  0.0144 -0.2870
    1C        O  791   3.121   2.277   5.059  0.3290 -0.2005 -0.4785
    1C        O  792   3.196   2.415   5.209  0.1207 -0.0009 -0.3141
    1C        H  793   4.256   3.034   5.051 -1.8507 -0.4712 -0.0147
    1C        H  794   4.185   2.807   5.074 -1.2618  1.8812  0.2149
    1C        H  795   4.517   3.119   5.046  0.8742  0.3545 -1.2695
    1C        H  796   4.506   3.368   5.069  0.6475 -0.3317  0.6953
    1C        H  797   4.552   3.810   5.049  2.2825  0.1028 -0.0642
    1C        H  798   4.427   3.982   5.057 -0.4422 -0.1439  0.2087
    1C        H  799   4.265   4.150   5.048 -1.4970 -0.0771 -1.2083
    1C        H  800   4.060   4.570   5.004  1.0611  0.1137  0.3357
    1C        H  801   3.821   4.649   5.005 -1.2122  0.0325 -0.2183
    1C        H  802   3.593   4.660   5.025 -2.2625  0.1948 -0.1410
    1C        H  803   3.403   4.486   5.048 -0.1218  0.7093  0.3050
    1C        H  804   3.173   4.432   5.046  0.9356 -0.7034 -0.0062
    1C        H  805   3.902   2.446   5.041 -1.7716  0.0737 -1.3476
    1C        H  806   3.672   2.459   5.075  0.2239  0.4905 -0.0092
    1C        H  807   2.984   2.534   5.036 -0.8623 -0.8026 -1.5590
    1C        H  808   3.439   2.487   5.076 -1.3831 -1.4685 -0.6797
    1C        H  809   2.890   2.749   5.077  1.2638 -0.7865 -0.7820
    1C        H  810   2.728   2.923   5.073 -2.0023 -1.7432  0.5079
    1C        H  811   2.483   3.287   5.062 -1.1401 -1.2933  0.3841
    1C        H  812   2.487   3.502   5.067  0.9249  0.5107  0.5364
    1C        H  813   2.503   3.736   5.066  0.4789 -0.8760  0.7176
    1C        H  814   2.616   4.173   5.051 -1.7685  2.2809 -0.5852
    1C        H  815   2.760   4.312   5.057  2.1961 -0.7819  0.9254
    1C        H  816   2.667   2.833   1.990  0.3868 -0.6003  0.1463
    1C        H  817   2.877   2.716   1.977  0.3981 -1.4699  0.3356
    1C        H  818   3.223   2.498   1.989 -1.4640  2.3974 -0.0392
    1C        H  819   3.439   2.464   1.979  0.0310  1.3582  0.3732
    1C        H  820   3.866   2.504   1.967 -0.0377  1.2576 -0.5521
    1C        H  821   4.088   2.559   1.986 -1.2793 -0.3728 -0.1169
    1C        H  822   4.260   2.712   1.979  1.4125 -0.5781  0.1332
    1C        H  823   4.325   2.951   1.974 -0.3373  0.7768  0.8282
    1C        H  824   4.548   3.313   1.970  1.7031  0.0153 -0.0620
    1C        H  825   4.446   3.517   1.988 -0.4808 -2.0652  1.5638
    1C        H  826   4.465   3.751   1.962  2.6593  0.5205 -0.2753
    1C        H  827   3.804   4.522   1.947  0.1607 -0.5140 -0.5288
    1C        H  828   3.997   4.409   1.948  0.9972  1.1922  0.6587
    1C        H  829   4.160   4.250   1.949  1.3272  0.5157 -0.0769
    1C        H  830   4.533   3.988   1.990  0.3474  0.8251  0.4564
    1C        H  831   2.643   3.828   1.967 -2.5635 -0.3791 -0.9736
    1C        H  832   2.751   4.046   1.976 -1.3039  1.4272 -0.5479
    1C        H  833   2.754   4.268   1.956  0.0214  0.9583 -0.9129
    1C        H  834   3.364   4.515   1.945 -0.2246  0.7573  0.2164
    1C        H  835   3.147   4.445   1.945  0.1879  0.6122  0.2347
    1C        H  836   2.504   3.008   1.998 -1.0801  0.3016 -0.3577
    1C        H  837   2.482   3.249   1.975 -0.3536  0.3456  0.3127
    1C        H  838   2.479   3.681   1.967  0.5564 -1.9188 -0.9993
    2V3OU   H29  839   2.811   3.552   0.546  1.8216 -2.5328 -0.0793
    2V3OU   C27  840   2.778   3.501   0.640 -0.3731  0.0096  0.6639
    2V3OU   H27  841   2.719   3.572   0.703 -1.8741  1.5894 -2.3239
    2V3OU   H28  842   2.719   3.410   0.613 -2.2659  1.6516 -1.0229
    2V3OU   O11  843   2.906   3.471   0.698 -0.0236  0.8646  0.3449
    2V3OU   C15  844   2.920   3.401   0.816  0.4442 -0.4668 -0.4812
    2V3OU   C13  845   3.053   3.377   0.855  0.2725 -0.2930  0.2351
    2V3OU   C14  846   3.077   3.270   0.942  0.0563 -0.2359  0.3634
    2V3OU   C16  847   2.972   3.191   0.989 -0.1625 -0.2880 -0.2062
    2V3OU    H6  848   2.993   3.101   1.047 -0.8871  0.3923  1.1493
    2V3OU   C12  849   3.214   3.227   0.975  0.1548 -0.0618  0.1813
    2V3OU    O2  850   3.234   3.117   1.030  0.2221 -0.1077  0.0666
    2V3OU   C10  851   3.326   3.311   0.931 -0.0168  0.0104 -0.1225
    2V3OU    C8  852   3.457   3.267   0.947 -0.1629 -0.5031 -0.3453
    2V3OU   O10  853   3.486   3.144   0.997 -0.0694 -0.3484 -0.0168
    2V3OU   H26  854   3.406   3.109   1.040 -0.3995 -0.2335 -0.5320
    2V3OU    C6  855   3.564   3.347   0.897  0.0088 -0.7791 -0.4239
    2V3OU    C5  856   3.539   3.466   0.828 -0.3459 -0.4686  0.2293
    2V3OU    C4  857   3.702   3.291   0.899  0.1582 -0.3801  0.7000
    2V3OU    H4  858   3.726   3.229   0.990  1.0953 -0.8863  0.1159
    2V3OU    H5  859   3.712   3.221   0.811  0.9638  0.1459  0.3585
    2V3OU    C2  860   3.813   3.395   0.890 -0.2402 -0.0200 -0.1151
    2V3OU    O6  861   3.812   3.473   1.010  0.3087 -0.0440 -0.0924
    2V3OU   H21  862   3.771   3.558   0.987  3.5128  1.8904  0.6858
    2V3OU    C3  863   3.785   3.495   0.777  0.1070  0.0630 -0.1287
    2V3OU    H2  864   3.868   3.570   0.782 -0.8556  1.2908 -1.8295
    2V3OU    H3  865   3.787   3.435   0.683 -0.0388 -1.4187  0.7786
    2V3OU   C25  866   3.949   3.327   0.872 -0.3792 -0.4595  0.4999
    2V3OU    O7  867   4.000   3.293   0.765  0.1929  0.3174  0.5263
    2V3OU   C26  868   4.026   3.288   0.997  0.5999  0.0117  0.0514
    2V3OU   H22  869   4.057   3.387   1.040 -3.6270  2.3107 -1.5521
    2V3OU   H23  870   4.115   3.226   0.968 -0.3390 -0.9552 -0.8431
    2V3OU    O8  871   3.956   3.205   1.087  0.4185 -0.1538 -0.2392
    2V3OU   H24  872   3.934   3.264   1.162 -0.5405  1.5010 -1.7586
    2V3OU    C1  873   3.649   3.562   0.793 -0.1304 -0.5780  0.5990
    2V3OU    H1  874   3.627   3.620   0.698 -0.2101 -0.9203  0.4045
    2V3OU    O3  875   3.665   3.654   0.900 -0.0895 -0.1411  0.2194
    2V3OU   C19  876   3.619   3.789   0.887  0.4183  0.0486  0.3688
    2V3OU    H9  877   3.522   3.794   0.830  0.3822 -1.8290  0.2033
    2V3OU    O4  878   3.714   3.850   0.803  0.3561  0.0073  0.2686
    2V3OU   C20  879   3.846   3.875   0.853  0.2802 -0.0693  0.5071
    2V3OU   H10  880   3.892   3.774   0.878 -1.7841 -1.2276 -0.1492
    2V3OU   C24  881   3.609   3.861   1.022  0.1840  0.1028  0.3234
    2V3OU   H16  882   3.542   3.800   1.088  1.9453 -2.5653 -0.1606
    2V3OU   H17  883   3.562   3.956   0.987 -0.8754 -1.3493 -2.4769
    2V3OU   C23  884   3.748   3.880   1.085  0.2263  0.2719  0.1783
    2V3OU   H15  885   3.789   3.775   1.101  0.9422  0.6469  0.8377
    2V3OU    N1  886   3.733   3.955   1.208 -0.0958  0.2676  0.1427
    2V3OU   H19  887   3.787   3.914   1.281 -1.7951 -1.0976  0.7179
    2V3OU   H20  888   3.638   3.934   1.234 -0.8282  0.4579 -2.1863
    2V3OU   C21  889   3.850   3.947   0.988  0.4016  0.2380  0.3399
    2V3OU   H11  890   3.956   3.931   1.024  0.6289  3.1909  1.2635
    2V3OU    O5  891   3.827   4.087   0.984  0.0094  0.1747  0.3661
    2V3OU   H18  892   3.774   4.106   1.063  0.4284 -0.1069  0.7181
    2V3OU   C22  893   3.916   3.954   0.744 -0.4036  0.0695  0.1630
    2V3OU   H12  894   3.865   4.053   0.728 -1.4256 -0.5478 -0.5222
    2V3OU   H13  895   3.915   3.897   0.648  0.0943  0.9155 -0.3562
    2V3OU   H14  896   4.025   3.964   0.771 -0.9130  1.0813  2.0643
    2V3OU   C11  897   3.162   3.472   0.824  0.0457 -0.0934  0.0479
    2V3OU    O1  898   3.130   3.588   0.791 -0.5793 -0.1685  0.3753
    2V3OU    C9  899   3.300   3.427   0.853  0.1256 -0.1603 -0.4259
    2V3OU    C7  900   3.404   3.505   0.803 -0.0683  0.1616 -0.3334
    2V3OU    O9  901   3.386   3.630   0.748 -0.0267  0.2395 -0.1730
    2V3OU   H25  902   3.291   3.638   0.765 -0.5909 -2.0451 -1.6398
    2V3OU   C17  903   2.814   3.328   0.874  0.1216 -0.3799 -0.9599
    2V3OU    H7  904   2.710   3.338   0.841 -0.9909 -1.0678  2.0037
    2V3OU   C18  905   2.839   3.224   0.962 -0.0422  0.1184 -0.3137
    2V3OU    H8  906   2.762   3.157   1.003  1.6461  0.1743  3.3337
    3SOL     OW  907   6.689   5.537   3.388  0.5305 -0.3765 -0.4623
    3SOL    HW1  908   6.600   5.499   3.363  0.4945  0.0216 -0.9495
    3SOL    HW2  909   6.704   5.622   3.339  0.6347  0.2282  0.5844
    4SOL     OW  910   2.741   2.137   1.868  0.0170 -0.7537 -0.2386
    4SOL    HW1  911   2.675   2.080   1.916 -0.6658  1.0079  1.0323
    4SOL    HW2  912   2.794   2.190   1.935  0.4950  0.2416 -1.3654
    5SOL     OW  913   6.626   4.256   1.619 -0.3485 -0.7739 -0.2733
    5SOL    HW1  914   6.658   4.346   1.591 -0.5255  0.4350  2.9399
    5SOL    HW2  915   6.677   4.186   1.570  2.8230  1.0726  0.0662
    6SOL     OW  916   2.071   5.019   5.784  0.0483 -0.5787 -0.2199
    6SOL    HW1  917   2.078   5.042   5.687  1.1048 -1.6577 -0.4216
    6SOL    HW2  918   2.118   4.933   5.802 -1.1701 -1.0340  1.0442
    7SOL     OW  919   0.676   6.907   6.849 -0.1075  0.3074 -0.7479
    7SOL    HW1  920   0.749   6.892   6.915 -1.3147  1.1691  0.8414
    7SOL    HW2  921   0.593   6.863   6.881 -0.3216 -0.6548 -2.5306
    8SOL     OW  922   4.313   2.813   0.002  0.1470  0.0622  0.4913
    8SOL    HW1  923   4.364   2.767   0.075 -0.9349  1.0143  1.9085
    8SOL    HW2  924   4.215   2.802   0.018 -0.1355 -0.5086 -1.3803
    9SOL     OW  925   0.132   2.117   5.278 -0.4445  0.0051  0.2611
    9SOL    HW1  926   0.081   2.031   5.266 -1.6438  0.4656  1.8066
    9SOL    HW2  927   0.114   2.177   5.200 -0.8075 -0.5589 -0.1008
   10SOL     OW  928   0.885   5.472   2.941 -0.0997  0.4168  0.1187
   10SOL    HW1  929   0.849   5.555   2.986 -0.3814 -0.3743  1.4009
   10SOL    HW2  930   0.815   5.434   2.882  0.3149  1.5395 -1.1523
   11SOL     OW  931   6.383   0.684   4.823  0.0908  0.6690  0.3089
   11SOL    HW1  932   6.401   0.606   4.763  1.0394  0.9681  0.1893
   11SOL    HW2  933   6.379   0.653   4.918 -0.5650  0.3250  0.1754
   12SOL     OW  934   6.222   0.088   0.942 -0.0131 -0.2777 -0.5887
   12SOL    HW1  935   6.215   0.025   1.019 -1.8178  1.2389  0.5895
   12SOL    HW2  936   6.266   0.042   0.865 -0.7604 -2.7908  0.3716
   13SOL     OW  937   0.071   5.622   4.956  0.3073 -0.5587 -0.7769
   13SOL    HW1  938   0.149   5.599   5.015 -0.4509  1.1970  1.0590
   13SOL    HW2  939  -0.014   5.606   5.006 -0.3838  0.6158 -1.5257
   14SOL     OW  940   0.009   6.796   4.591  0.4110  0.2889  0.1832
   14SOL    HW1  941   0.052   6.877   4.632  1.1679 -0.9803  1.9967
   14SOL    HW2  942  -0.036   6.743   4.662 -1.1432 -0.2863 -1.1711
   15SOL     OW  943   2.511   0.292   5.338 -0.4838  0.2650 -0.4841
   15SOL    HW1  944   2.596   0.252   5.302 -1.5068 -1.2338 -1.3789
   15SOL    HW2  945   2.488   0.374   5.285  0.2324  0.4875 -0.4566
   16SOL     OW  946   6.844   5.795   2.499  0.2880 -0.1199 -0.3817
   16SOL    HW1  947   6.794   5.836   2.575  2.2329  1.5954  0.1019
   16SOL    HW2  948   6.825   5.847   2.415 -0.9435 -1.2737 -0.8343
   17SOL     OW  949   3.841   1.379   2.549 -1.2915  0.4708 -0.7494
   17SOL    HW1  950   3.827   1.285   2.520 -1.9455  0.7903 -1.4950
   17SOL    HW2  951   3.765   1.436   2.517 -0.4577  1.4202 -1.0926
   18SOL     OW  952   0.063   3.424   5.917  0.1169  0.4499  0.0410
   18SOL    HW1  953   0.102   3.401   5.828  0.4536 -0.7680  0.4736
   18SOL    HW2  954   0.112   3.502   5.956  0.3556  0.6125 -0.5763
   19SOL     OW  955   3.829   4.040   4.231  0.1905 -0.0908 -0.5588
   19SOL    HW1  956   3.913   4.031   4.178  1.6343 -0.6710  1.6952
   19SOL    HW2  957   3.771   3.960   4.215  0.9175 -0.5863 -0.7538
   20SOL     OW  958   0.449   4.064   2.250  0.4892  0.2661  0.4003
   20SOL    HW1  959   0.354   4.038   2.270  0.4253  1.5588  1.9902
   20SOL    HW2  960   0.453   4.162   2.233  1.9162  0.8266  3.4008
   21SOL     OW  961   0.930   1.642   6.123 -0.0198  0.0542  0.3361
   21SOL    HW1  962   1.027   1.620   6.136 -0.0617  0.0539  0.6545
   21SOL    HW2  963   0.911   1.651   6.025  0.5622  1.2566  0.3149
   22SOL     OW  964   5.472   6.825   6.097  0.2304 -0.0087  0.2787
   22SOL    HW1  965   5.380   6.796   6.070 -0.1625  0.7395  0.7684
   22SOL    HW2  966   5.501   6.901   6.039  0.1697  0.3310  0.6828
   23SOL     OW  967   7.010   2.963   5.400  0.3792  0.9673 -0.6020
   23SOL    HW1  968   6.940   2.975   5.330  0.7251 -1.7094 -1.5048
   23SOL    HW2  969   7.100   2.987   5.363  0.5031 -0.0228 -0.9770
   24SOL     OW  970   0.611   4.267   2.892 -0.1270  0.2984  0.4875
   24SOL    HW1  971   0.582   4.216   2.973 -1.0901  1.5198  0.9496
   24SOL    HW2  972   0.540   4.333   2.867  0.2815  0.1478 -1.1866
   25SOL     OW  973   6.390   5.896   2.988  0.2316 -0.4922  0.1770
   25SOL    HW1  974   6.350   5.821   3.040 -0.6871 -0.4985 -0.5086
   25SOL    HW2  975   6.486   5.877   2.970 -0.2572 -2.0657 -0.9677
   26SOL     OW  976   4.844   1.838   1.345 -0.3300  0.2262 -0.3137
   26SOL    HW1  977   4.941   1.819   1.330  0.0918  1.9217  0.0615
   26SOL    HW2  978   4.814   1.795   1.430  0.3323  0.3927  0.0117
   27SOL     OW  979   5.017   5.550   4.648  0.4093 -0.3187 -0.0518
   27SOL    HW1  980   5.086   5.525   4.580  0.3862  2.7217 -1.3949
   27SOL    HW2  981   4.959   5.471   4.669  0.8826 -1.5743 -3.0419
   28SOL     OW  982   4.814   2.797   2.319 -0.1635  0.3761  0.6462
   28SOL    HW1  983   4.772   2.709   2.339  1.2632 -0.3866  0.3976
   28SOL    HW2  984   4.846   2.798   2.224 -1.0883  1.5548  0.3315
   29SOL     OW  985   5.805   4.268   5.197 -0.3979 -0.2276 -0.4047
   29SOL    HW1  986   5.880   4.285   5.261 -0.3192 -2.3604  0.1419
   29SOL    HW2  987   5.719   4.301   5.237  0.2624  3.2411 -1.4886
   30SOL     OW  988   1.620   5.946   6.076 -0.4994  0.1930 -0.3970
   30SOL    HW1  989   1.623   5.921   5.980  1.0925 -1.3454  0.0090
   30SOL    HW2  990   1.539   5.904   6.118  1.0679 -2.9322 -0.1750
   31SOL     OW  991   5.183   0.918   0.812 -0.6919 -0.3365 -0.0510
   31SOL    HW1  992   5.212   0.996   0.868 -0.0788 -0.6606  0.0881
   31SOL    HW2  993   5.263   0.874   0.772 -1.0282 -0.9975 -0.0083
   32SOL     OW  994   4.810   6.416   5.995  0.7112 -0.6717 -0.1715
   32SOL    HW1  995   4.840   6.344   5.933  3.8492  1.3760 -1.3083
   32SOL    HW2  996   4.725   6.456   5.961 -0.3343 -2.8227 -0.2619
   33SOL     OW  997   1.853   1.045   5.682  0.2989 -0.6093  0.5754
   33SOL    HW1  998   1.763   1.089   5.684  0.2528 -0.6829  0.2527
   33SOL    HW2  999   1.924   1.116   5.683  0.2165 -0.4547 -1.0389
   34SOL     OW 1000   1.281   0.189   5.829  0.2895 -0.3230  0.0791
   34SOL    HW1 1001   1.268   0.155   5.736 -2.5474  0.6924  0.0051
   34SOL    HW2 1002   1.194   0.187   5.878  1.0270  2.0814  1.6856
   35SOL     OW 1003   6.911   5.514   6.855 -0.7952 -0.5040 -0.1228
   35SOL    HW1 1004   6.960   5.571   6.789  0.8875 -0.3143  1.2366
   35SOL    HW2 1005   6.954   5.521   6.945 -3.8293  0.3285  1.4099
   36SOL     OW 1006   1.753   4.238   5.531 -0.6948  0.3291  0.3941
   36SOL    HW1 1007   1.671   4.259   5.584 -2.2050  0.3642 -1.8349
   36SOL    HW2 1008   1.732   4.169   5.462  0.9328  0.8869 -0.7319
   37SOL     OW 1009   6.118   4.194   5.622  0.4865 -0.1070  0.9077
   37SOL    HW1 1010   6.157   4.240   5.702  0.2667 -0.6064  1.3016
   37SOL    HW2 1011   6.185   4.130   5.584  0.2802 -0.5055  1.2106
   38SOL     OW 1012   5.520   4.677   6.646  0.2236  0.0008  0.1250
   38SOL    HW1 1013   5.457   4.633   6.582 -2.1193  1.5280  1.2450
   38SOL    HW2 1014   5.544   4.612   6.718  1.3934 -1.1445 -1.2489
   39SOL     OW 1015   6.665   2.269   4.137  0.2773  0.0029 -0.0497
   39SOL    HW1 1016   6.723   2.267   4.219 -1.2827 -1.3013  1.0938
   39SOL    HW2 1017   6.689   2.192   4.078  0.1645 -0.1363  0.0859
   40SOL     OW 1018   5.733   4.159   5.823 -0.5063 -0.4237 -0.0770
   40SOL    HW1 1019   5.785   4.146   5.738 -0.5696  2.2200 -0.5824
   40SOL    HW2 1020   5.636   4.161   5.802 -0.5643 -0.5100  0.1803
   41SOL     OW 1021   1.764   0.224   6.018 -0.4730  0.5091 -0.3603
   41SOL    HW1 1022   1.858   0.214   5.984 -0.6647  0.4867 -0.8954
   41SOL    HW2 1023   1.701   0.176   5.957 -0.5635 -2.1420  1.6061
   42SOL     OW 1024   2.296   1.059   6.872  0.1642 -0.1415 -0.1023
   42SOL    HW1 1025   2.320   0.976   6.822 -0.5832 -1.6662  1.9281
   42SOL    HW2 1026   2.348   1.063   6.957  0.9934  2.0912 -0.6432
   43SOL     OW 1027   3.918   3.710   6.255  0.8418 -0.4126 -0.3149
   43SOL    HW1 1028   3.981   3.786   6.275 -0.8009  0.4977  1.8040
   43SOL    HW2 1029   3.878   3.723   6.165  0.0044  1.7469  0.2960
   44SOL     OW 1030   2.380   6.748   5.611  0.6318 -0.2238  0.2144
   44SOL    HW1 1031   2.407   6.843   5.619  0.7847 -0.2398 -0.0696
   44SOL    HW2 1032   2.441   6.690   5.666  0.7152 -0.1853  0.1624
   45SOL     OW 1033   1.952   1.982   2.093  0.3990 -0.2161  0.3978
   45SOL    HW1 1034   2.001   1.962   2.178  2.7240 -0.8853 -1.0303
   45SOL    HW2 1035   2.015   2.021   2.027 -1.6000  1.3000 -0.7207
   46SOL     OW 1036   6.654   5.660   5.673 -0.1206  0.3429  0.2965
   46SOL    HW1 1037   6.589   5.727   5.636 -3.8459 -1.3017  3.2253
   46SOL    HW2 1038   6.699   5.698   5.754 -1.8138 -0.3686  1.6246
   47SOL     OW 1039   3.083   2.128   4.512  0.2288 -0.0238  0.1487
   47SOL    HW1 1040   3.166   2.126   4.569 -0.0412 -0.3110  0.5364
   47SOL    HW2 1041   3.059   2.035   4.485 -0.7058 -0.0842  1.1273
   48SOL     OW 1042   5.078   2.018   0.709 -0.4287 -0.0036  0.2422
   48SOL    HW1 1043   5.157   2.072   0.682  0.8887 -2.4350 -1.1830
   48SOL    HW2 1044   5.051   2.042   0.802  0.0804  2.9460 -0.2628
   49SOL     OW 1045   2.583   1.047   1.312  0.1264 -0.1632 -0.2823
   49SOL    HW1 1046   2.494   1.086   1.333  0.1018 -0.9627  1.2453
   49SOL    HW2 1047   2.574   0.983   1.235 -0.6151 -0.2132 -0.1636
   50SOL     OW 1048   1.648   5.810   3.088  0.0892 -0.1966  0.4986
   50SOL    HW1 1049   1.573   5.872   3.108  0.8647  0.6268  0.9295
   50SOL    HW2 1050   1.728   5.862   3.058  0.2057 -1.1221 -0.9129
   51SOL     OW 1051   2.728   6.654   5.665 -0.0648  0.1630  0.0543
   51SOL    HW1 1052   2.685   6.694   5.746  0.1459 -0.5702  0.5429
   51SOL    HW2 1053   2.812   6.607   5.692 -0.4481 -0.8399 -0.4333
   52SOL     OW 1054   3.700   0.093   5.407 -0.0988 -0.0220 -0.3651
   52SOL    HW1 1055   3.659   0.171   5.359 -0.3140 -1.3734 -2.4813
   52SOL    HW2 1056   3.639   0.014   5.400 -0.2824 -0.2343  2.4686
   53SOL     OW 1057   4.283   5.259   3.307 -0.4409  0.6370  0.3190
   53SOL    HW1 1058   4.276   5.257   3.207  1.7519  0.6573  0.1157
   53SOL    HW2 1059   4.225   5.189   3.346 -1.3082  0.6040 -0.9739
   54SOL     OW 1060   2.460   0.138   2.585  0.2401  0.3956  0.0148
   54SOL    HW1 1061   2.515   0.091   2.516  0.0147  1.5286 -0.9578
   54SOL    HW2 1062   2.520   0.186   2.649  0.5451 -2.1308  1.7847
   55SOL     OW 1063   6.999   3.985   6.960 -0.5065 -0.3048 -0.0187
   55SOL    HW1 1064   7.000   3.945   7.051  1.0246  1.3516  0.7433
   55SOL    HW2 1065   7.010   3.913   6.891 -1.8517 -1.5918  1.0456
   56SOL     OW 1066   5.027   2.200   4.609 -0.1093  0.2650 -0.5443
   56SOL    HW1 1067   4.999   2.289   4.574  0.2656  0.5033 -0.2394
   56SOL    HW2 1068   5.124   2.202   4.634 -0.0303 -0.3111 -0.8015
   57SOL     OW 1069   2.885   3.483   4.814 -0.0909  0.4683 -0.2584
   57SOL    HW1 1070   2.893   3.534   4.900 -3.4208 -1.1542  1.2514
   57SOL    HW2 1071   2.928   3.393   4.825 -0.3989  0.3133 -0.2900
   58SOL     OW 1072   3.919   5.736   5.543 -0.1354  0.0629 -0.4719
   58SOL    HW1 1073   3.847   5.753   5.610 -1.4712 -0.3020 -1.7677
   58SOL    HW2 1074   3.945   5.639   5.545  0.0999  0.1317 -0.2129
   59SOL     OW 1075   1.241   3.158   1.626  0.2509  0.0415  0.3574
   59SOL    HW1 1076   1.295   3.241   1.641  2.0527 -1.0213  0.0195
   59SOL    HW2 1077   1.187   3.168   1.542 -1.5335  1.7929  1.5954
   60SOL     OW 1078   4.709   2.742   2.603  0.0171  0.3842 -0.1188
   60SOL    HW1 1079   4.667   2.705   2.521  0.3774 -0.6311  0.1408
   60SOL    HW2 1080   4.674   2.835   2.620 -2.0006 -0.3526  0.0137
   61SOL     OW 1081   0.606   6.571   5.420 -0.1799 -0.1773  0.1452
   61SOL    HW1 1082   0.557   6.532   5.498  1.6107 -0.4226  1.2098
   61SOL    HW2 1083   0.609   6.504   5.346 -0.9514 -0.3579  0.2685
   62SOL     OW 1084   1.618   2.324   1.119  0.1332  0.0263  0.7285
   62SOL    HW1 1085   1.550   2.350   1.051  0.0765 -1.6717  0.0947
   62SOL    HW2 1086   1.695   2.388   1.115 -0.3591  0.5788 -0.1728
   63SOL     OW 1087   6.440   4.795   4.807  0.3856 -0.7358  1.0924
   63SOL    HW1 1088   6.472   4.882   4.844 -0.4711 -0.6811  1.7646
   63SOL    HW2 1089   6.434   4.801   4.708 -0.2172  0.1931  1.1632
   64SOL     OW 1090   5.471   4.510   0.080 -0.1494  0.0618 -0.6222
   64SOL    HW1 1091   5.420   4.592   0.107  0.2998 -0.5810  2.6876
   64SOL    HW2 1092   5.407   4.438   0.053 -1.0432 -0.1772  1.8268
   65SOL     OW 1093   1.858   5.185   1.834 -0.1334 -0.3707 -0.3059
   65SOL    HW1 1094   1.794   5.202   1.909  0.0926 -2.1121  0.3211
   65SOL    HW2 1095   1.880   5.272   1.789 -0.5379  0.6759  1.4161
   66SOL     OW 1096   6.716   3.173   5.711  0.1532 -0.3885  0.1836
   66SOL    HW1 1097   6.770   3.256   5.726 -0.6328  0.2465 -0.4007
   66SOL    HW2 1098   6.777   3.097   5.689  0.8256  0.2870 -0.3395
   67SOL     OW 1099   3.359   0.833   2.747  0.2846  0.1983  0.3555
   67SOL    HW1 1100   3.406   0.751   2.782 -0.2246 -0.8864 -1.4207
   67SOL    HW2 1101   3.414   0.914   2.768  0.4639 -0.4752  2.7713
   68SOL     OW 1102   1.148   4.386   2.899 -0.1823 -0.1050  0.3833
   68SOL    HW1 1103   1.187   4.379   2.807  1.0847 -1.2096  0.9592
   68SOL    HW2 1104   1.088   4.466   2.904  0.2131  0.3376 -1.2067
   69SOL     OW 1105   5.629   0.755   5.903 -0.2542  0.3760  0.4582
   69SOL    HW1 1106   5.555   0.690   5.884  1.5224 -1.3737 -0.9605
   69SOL    HW2 1107   5.685   0.720   5.978  0.6629  0.2743 -0.2527
   70SOL     OW 1108   1.761   2.801   1.560  0.2856  0.1402 -0.6824
   70SOL    HW1 1109   1.766   2.769   1.465  1.5274 -0.9145 -0.2953
   70SOL    HW2 1110   1.830   2.753   1.615 -0.2874  0.8656  0.7217
   71SOL     OW 1111   4.251   1.483   5.913  0.8746  0.4964  0.2564
   71SOL    HW1 1112   4.334   1.442   5.875 -0.2737  0.4591 -2.3868
   71SOL    HW2 1113   4.171   1.450   5.863 -0.9473 -0.4430  3.5329
   72SOL     OW 1114   6.032   4.290   0.278 -0.9682  0.4396 -0.2776
   72SOL    HW1 1115   6.128   4.297   0.306 -1.3733 -0.0138  1.3172
   72SOL    HW2 1116   6.025   4.233   0.196  0.1066  0.3999 -0.3579
   73SOL     OW 1117   1.534   4.715   1.791  0.7701 -0.0611  0.0591
   73SOL    HW1 1118   1.572   4.623   1.782  0.5398 -0.7137  3.9951
   73SOL    HW2 1119   1.437   4.714   1.766  0.3595 -1.3249  1.5812
   74SOL     OW 1120   0.705   4.554   4.778 -0.6417  0.5352  0.0942
   74SOL    HW1 1121   0.742   4.623   4.717 -1.2125 -0.1706 -1.0814
   74SOL    HW2 1122   0.773   4.480   4.790 -0.1158  1.1587  1.1827
   75SOL     OW 1123   1.908   3.156   5.207  0.6004  0.1855  1.0681
   75SOL    HW1 1124   1.972   3.215   5.157  0.6688  1.7711  2.8756
   75SOL    HW2 1125   1.944   3.139   5.299  0.2002 -2.1160  0.8336
   76SOL     OW 1126   2.573   5.281   3.484 -0.6778  0.4216  0.4936
   76SOL    HW1 1127   2.658   5.321   3.451 -0.7982  0.2745  0.0037
   76SOL    HW2 1128   2.567   5.186   3.455  0.0999 -0.3005  2.5383
   77SOL     OW 1129   2.359   0.918   2.742  0.0098  0.3982 -0.4720
   77SOL    HW1 1130   2.374   0.884   2.649  0.1259 -1.5587  0.2061
   77SOL    HW2 1131   2.297   0.996   2.739 -1.8410 -1.0064 -2.0668
   78SOL     OW 1132   0.500   6.418   1.661 -0.5335  0.3312 -0.0825
   78SOL    HW1 1133   0.409   6.431   1.701 -0.1335 -0.2588  1.0450
   78SOL    HW2 1134   0.532   6.504   1.621 -2.7187 -0.0368 -2.9625
   79SOL     OW 1135   1.732   4.149   6.403 -0.1339  0.9850 -0.4274
   79SOL    HW1 1136   1.673   4.103   6.337 -0.9064  0.2626  0.7186
   79SOL    HW2 1137   1.679   4.216   6.455  0.0797  0.4562  0.4947
   80SOL     OW 1138   5.910   1.517   4.117  0.1538 -0.1588 -0.1075
   80SOL    HW1 1139   5.817   1.497   4.085 -0.1715 -0.7869  1.1558
   80SOL    HW2 1140   5.908   1.602   4.171  0.1953 -0.4744  0.3968
   81SOL     OW 1141   3.952   2.666   6.686 -0.2068  0.5652 -0.3089
   81SOL    HW1 1142   4.041   2.623   6.673 -0.2794  0.1765  0.4105
   81SOL    HW2 1143   3.880   2.598   6.674 -0.3016  0.3471  1.2922
   82SOL     OW 1144   6.254   4.313   2.561 -0.1141 -0.6006 -0.0268
   82SOL    HW1 1145   6.332   4.356   2.607  0.6842  0.0637 -1.9186
   82SOL    HW2 1146   6.172   4.368   2.577 -0.0047 -0.7482  1.1263
   83SOL     OW 1147   0.991   1.774   5.604 -0.1185  0.1152  0.6583
   83SOL    HW1 1148   1.059   1.773   5.531 -0.1880 -0.6539  0.5950
   83SOL    HW2 1149   0.901   1.793   5.566 -0.2939 -1.1348  0.4009
   84SOL     OW 1150   3.586   3.360   2.344 -0.6565 -0.2228  0.2246
   84SOL    HW1 1151   3.635   3.393   2.425 -2.3022  1.7912  0.4979
   84SOL    HW2 1152   3.647   3.361   2.265  0.5648 -0.7995  1.1284
   85SOL     OW 1153   4.513   0.831   0.081 -0.2331  0.2542 -0.2177
   85SOL    HW1 1154   4.486   0.744   0.122 -0.9593  0.8691  0.6793
   85SOL    HW2 1155   4.431   0.887   0.066  0.2086  0.7337 -0.9086
   86SOL     OW 1156   2.722   1.991   1.422  0.0458 -0.0393  0.1175
   86SOL    HW1 1157   2.669   1.951   1.496  0.3780  0.2005  0.4915
   86SOL    HW2 1158   2.818   1.963   1.430  0.3180  0.9492  0.4823
   87SOL     OW 1159   6.436   2.727   4.849  0.4581 -0.3846 -0.4081
   87SOL    HW1 1160   6.476   2.786   4.779  0.6858  0.1650  0.1847
   87SOL    HW2 1161   6.501   2.653   4.871  0.1216 -0.9476 -1.2381
   88SOL     OW 1162   6.597   6.630   4.886 -0.7288 -0.3764 -0.0843
   88SOL    HW1 1163   6.657   6.569   4.938  0.1076  0.2665 -0.2695
   88SOL    HW2 1164   6.510   6.639   4.934  0.6732  1.7510  2.3720
   89SOL     OW 1165   4.841   0.848   2.106  0.7439 -0.0372 -0.2366
   89SOL    HW1 1166   4.852   0.754   2.073 -0.6328 -0.6984  1.0926
   89SOL    HW2 1167   4.869   0.853   2.202 -1.5101  0.3270  0.4388
   90SOL     OW 1168   6.430   5.585   4.075  0.5058 -0.4047 -0.3743
   90SOL    HW1 1169   6.427   5.500   4.127 -1.1425 -1.2926 -1.8381
   90SOL    HW2 1170   6.511   5.638   4.103  1.8009 -2.5965  0.2698
   91SOL     OW 1171   5.786   0.280   6.841 -0.0875 -0.3353  1.0083
   91SOL    HW1 1172   5.769   0.186   6.873 -2.2402 -0.8396 -1.2643
   91SOL    HW2 1173   5.869   0.281   6.784 -0.0323 -0.8672  1.0711
   92SOL     OW 1174   0.635   5.148   1.408 -0.0645 -0.1985 -0.1080
   92SOL    HW1 1175   0.562   5.200   1.363  1.9661  1.8910 -1.2258
   92SOL    HW2 1176   0.623   5.155   1.507 -1.1771  0.3975 -0.2561
   93SOL     OW 1177   3.105   6.199   3.085  0.9008 -0.0498  0.0949
   93SOL    HW1 1178   3.041   6.129   3.051  0.9196 -1.0116  1.9142
   93SOL    HW2 1179   3.131   6.177   3.178  0.9447  2.4097  0.7244
   94SOL     OW 1180   1.830   5.360   3.519 -0.0769 -0.7635  0.0878
   94SOL    HW1 1181   1.826   5.357   3.420 -1.7099 -0.6321  0.1265
   94SOL    HW2 1182   1.798   5.449   3.551  1.1403 -0.5297  0.7241
   95SOL     OW 1183   1.274   5.070   1.055  0.9017 -0.2515  0.3099
   95SOL    HW1 1184   1.359   5.072   1.109  1.2286 -0.6297 -0.1821
   95SOL    HW2 1185   1.296   5.074   0.958  0.3308  0.0248  0.1872
   96SOL     OW 1186   6.561   4.660   3.834 -0.1075  0.2219 -0.7545
   96SOL    HW1 1187   6.485   4.602   3.805  0.1807 -0.3655 -0.3548
   96SOL    HW2 1188   6.629   4.604   3.883  0.4213  0.7990 -0.8175
   97SOL     OW 1189   2.877   1.028   4.531 -0.6027  0.1255 -0.0731
   97SOL    HW1 1190   2.882   1.076   4.444  0.8107 -1.2139 -0.7778
   97SOL    HW2 1191   2.887   0.929   4.516  0.0970 -0.1033  1.6378
   98SOL     OW 1192   1.254   1.237   1.592 -0.1235  0.0759 -0.4394
   98SOL    HW1 1193   1.341   1.232   1.544 -0.7332  0.4127 -1.6282
   98SOL    HW2 1194   1.215   1.146   1.601  0.2089 -0.0410 -0.1725
   99SOL     OW 1195   1.578   5.484   0.664  0.0751  0.0208  0.1560
   99SOL    HW1 1196   1.622   5.527   0.742 -2.3503  0.7343  1.2213
   99SOL    HW2 1197   1.495   5.534   0.641  0.1193 -0.8487 -2.1963
  100SOL     OW 1198   5.254   2.689   1.534 -0.1426  0.0773 -0.1571
  100SOL    HW1 1199   5.234   2.597   1.567  2.1815 -1.3316 -2.3023
  100SOL    HW2 1200   5.183   2.717   1.470 -1.0685 -0.0361  0.7951
  101SOL     OW 1201   1.971   1.657   6.235  0.0428  0.2131 -0.0608
  101SOL    HW1 1202   1.991   1.753   6.256 -2.0828  0.3947  1.4844
  101SOL    HW2 1203   2.057   1.607   6.223  1.3088  1.7695  1.7480
  102SOL     OW 1204   2.735   2.255   3.676  0.0165 -0.1591  0.2885
  102SOL    HW1 1205   2.805   2.276   3.744 -0.3617 -0.1334  0.6789
  102SOL    HW2 1206   2.771   2.189   3.610  0.6293  0.3673  0.0862
  103SOL     OW 1207   4.201   4.786   4.696  1.0888 -0.0180  0.6053
  103SOL    HW1 1208   4.124   4.834   4.655  1.3577 -0.8495 -0.9565
  103SOL    HW2 1209   4.168   4.708   4.749  0.8495 -0.7304 -0.5541
  104SOL     OW 1210   6.015   1.582   4.460  0.4443 -0.0543  0.0660
  104SOL    HW1 1211   5.976   1.560   4.549  2.7624 -0.8884  0.9619
  104SOL    HW2 1212   6.044   1.497   4.415  2.3774  0.5557  0.0642
  105SOL     OW 1213   6.487   1.900   6.669  0.0615  0.1530  0.1618
  105SOL    HW1 1214   6.494   1.932   6.574  0.7261  1.0101  0.4790
  105SOL    HW2 1215   6.548   1.823   6.683 -0.7035 -0.5581 -0.3251
  106SOL     OW 1216   0.343   4.183   2.557 -0.1552 -0.4028  0.6442
  106SOL    HW1 1217   0.404   4.114   2.518  3.2700  1.7632  1.7765
  106SOL    HW2 1218   0.322   4.158   2.652 -0.6322 -0.8690  0.4239
  107SOL     OW 1219   3.713   2.148   3.616 -0.2654 -0.5881  0.3130
  107SOL    HW1 1220   3.615   2.156   3.636 -0.1872  0.2074  0.4154
  107SOL    HW2 1221   3.727   2.158   3.518 -0.2879 -0.7451  0.2931
  108SOL     OW 1222   0.867   2.008   6.669  0.1822  0.2402 -0.0899
  108SOL    HW1 1223   0.800   2.071   6.631 -2.6519 -1.3748  1.8871
  108SOL    HW2 1224   0.900   1.948   6.597 -0.0146  1.4313 -1.2201
  109SOL     OW 1225   0.201   0.462   4.446 -0.0581  0.5824 -0.2043
  109SOL    HW1 1226   0.226   0.483   4.541 -0.1308 -1.0827  0.2050
  109SOL    HW2 1227   0.271   0.404   4.405 -1.5357 -1.3838 -0.1096
  110SOL     OW 1228   6.166   1.710   0.538 -0.7090 -0.4784 -0.1546
  110SOL    HW1 1229   6.118   1.626   0.513 -0.1685 -0.7349 -0.3427
  110SOL    HW2 1230   6.263   1.690   0.551 -0.4226  0.2841 -1.0709
  111SOL     OW 1231   5.322   0.128   5.284  0.2410 -0.6332  0.1213
  111SOL    HW1 1232   5.269   0.050   5.318 -0.0730 -0.7469 -0.5984
  111SOL    HW2 1233   5.391   0.095   5.219  0.4169 -0.3549  0.1666
  112SOL     OW 1234   1.766   3.069   2.952 -0.1995 -0.3088  0.5275
  112SOL    HW1 1235   1.770   3.117   3.040  0.0157  0.6415  0.0071
  112SOL    HW2 1236   1.837   3.105   2.891 -1.5000  0.3431 -0.6633
  113SOL     OW 1237   4.298   1.139   2.064 -0.3962  0.0268  0.3660
  113SOL    HW1 1238   4.302   1.237   2.083 -0.4206 -0.0659  0.8804
  113SOL    HW2 1239   4.344   1.090   2.138  2.0182 -0.2114 -1.1954
  114SOL     OW 1240   1.081   2.564   6.831 -0.4346  0.5504 -0.4009
  114SOL    HW1 1241   1.084   2.501   6.754 -1.5420  1.3737 -1.1498
  114SOL    HW2 1242   0.991   2.559   6.875  0.9496 -1.8312  2.5672
  115SOL     OW 1243   4.803   6.931   1.875 -0.5604  0.6155 -0.1774
  115SOL    HW1 1244   4.746   6.928   1.793 -0.5568  2.3523 -0.2805
  115SOL    HW2 1245   4.884   6.987   1.858  0.2793 -0.3429  0.5266
  116SOL     OW 1246   1.584   3.752   3.825  0.5432  0.5171  0.0644
  116SOL    HW1 1247   1.648   3.780   3.754  0.5260  0.7118  0.1255
  116SOL    HW2 1248   1.606   3.660   3.856 -0.1713 -0.0431 -1.0305
  117SOL     OW 1249   2.077   0.866   6.617 -0.4468 -0.3391  0.5362
  117SOL    HW1 1250   2.046   0.863   6.522  0.0645  1.0979  0.2971
  117SOL    HW2 1251   2.177   0.868   6.619 -0.3814 -2.3885  1.2049
  118SOL     OW 1252   6.818   1.826   5.593  0.2153  0.0351  0.0609
  118SOL    HW1 1253   6.903   1.803   5.546  0.3407  0.8643 -0.1203
  118SOL    HW2 1254   6.817   1.782   5.683  1.9062  1.9105  1.0511
  119SOL     OW 1255   1.562   1.052   0.856  0.2867 -0.0886  0.1144
  119SOL    HW1 1256   1.639   1.088   0.908  1.5474 -1.2198 -0.8799
  119SOL    HW2 1257   1.558   1.097   0.766  0.4386 -0.7736 -0.2404
  120SOL     OW 1258   3.723   6.083   3.967  0.0405  0.3056 -0.5176
  120SOL    HW1 1259   3.795   6.118   3.908  0.2920  1.1653  0.2687
  120SOL    HW2 1260   3.741   5.987   3.989  1.5697  0.8056  0.5580
  121SOL     OW 1261   3.498   2.501   6.415  0.1034  0.6708 -0.0127
  121SOL    HW1 1262   3.420   2.481   6.356 -0.3977  0.8478  0.5805
  121SOL    HW2 1263   3.477   2.580   6.472  0.2591  0.0101  0.9870
  122SOL     OW 1264   0.759   6.461   1.443 -0.2989 -0.0240 -0.0024
  122SOL    HW1 1265   0.705   6.380   1.464  0.2299 -0.7143 -1.2434
  122SOL    HW2 1266   0.765   6.473   1.344  0.5011  0.9344  0.1468
  123SOL     OW 1267   3.702   4.223   0.771  0.4450  0.3538  0.3147
  123SOL    HW1 1268   3.749   4.175   0.845 -1.6068  0.0958  1.5289
  123SOL    HW2 1269   3.624   4.169   0.740  1.1129  0.5845 -1.9152
  124SOL     OW 1270   5.569   6.370   3.579 -0.3069  0.0701  0.0476
  124SOL    HW1 1271   5.536   6.277   3.595 -0.7592  0.0355 -1.0821
  124SOL    HW2 1272   5.546   6.399   3.487  0.9896  0.8205 -0.0688
  125SOL     OW 1273   0.446   4.448   2.514 -0.4174 -0.1074 -0.1060
  125SOL    HW1 1274   0.423   4.351   2.520 -0.3286 -0.1522 -0.4962
  125SOL    HW2 1275   0.503   4.473   2.593 -0.2827 -0.4168 -0.1026
  126SOL     OW 1276   4.362   4.716   5.355  0.2045  0.1950 -0.3601
  126SOL    HW1 1277   4.447   4.768   5.364 -0.7562  1.6308  0.9539
  126SOL    HW2 1278   4.335   4.712   5.259  0.4838  1.8982 -0.5415
  127SOL     OW 1279   1.754   3.882   5.680 -0.1905  0.7426 -0.3375
  127SOL    HW1 1280   1.820   3.952   5.708  0.8375  0.8675 -2.8212
  127SOL    HW2 1281   1.777   3.795   5.724 -0.0333  1.3805  0.9071
  128SOL     OW 1282   4.833   6.777   3.762 -0.6493 -0.6637 -0.9314
  128SOL    HW1 1283   4.830   6.714   3.839 -1.0398  0.9995  0.4662
  128SOL    HW2 1284   4.842   6.871   3.795 -0.0702  0.0512 -2.9450
  129SOL     OW 1285   4.894   5.836   6.886 -0.1324 -0.1918  0.7173
  129SOL    HW1 1286   4.875   5.747   6.844 -0.9474 -0.0805  0.8337
  129SOL    HW2 1287   4.817   5.862   6.944 -0.2634  0.9802  0.0243
  130SOL     OW 1288   3.232   1.608   3.367  0.3341  0.7508  0.1595
  130SOL    HW1 1289   3.242   1.622   3.268 -2.3612  1.8147 -0.0228
  130SOL    HW2 1290   3.248   1.695   3.414  0.5959  0.4691  0.5968
  131SOL     OW 1291   3.138   0.767   2.531 -0.0619 -0.1209 -0.2414
  131SOL    HW1 1292   3.191   0.851   2.529  0.1216 -0.2061  0.5374
  131SOL    HW2 1293   3.186   0.695   2.481  0.3858 -0.0940  0.1382
  132SOL     OW 1294   1.816   3.446   4.347 -0.4256  0.0952 -0.7279
  132SOL    HW1 1295   1.805   3.365   4.405 -1.3313 -0.7471 -2.0232
  132SOL    HW2 1296   1.851   3.521   4.402  2.3230 -1.6715  0.1799
  133SOL     OW 1297   2.584   2.486   3.760  0.5140 -0.3476 -0.2582
  133SOL    HW1 1298   2.653   2.414   3.754 -0.8947 -1.6564 -1.4616
  133SOL    HW2 1299   2.620   2.570   3.720  1.5737 -0.8621 -0.4166
  134SOL     OW 1300   4.628   1.889   3.365 -0.2310  0.2955  0.2577
  134SOL    HW1 1301   4.721   1.875   3.330 -0.1594  0.8221  0.2307
  134SOL    HW2 1302   4.629   1.962   3.434 -0.6720  0.5084  0.0435
  135SOL     OW 1303   6.128   2.134   3.607 -0.8473 -0.0199  0.0406
  135SOL    HW1 1304   6.163   2.210   3.662 -0.8225  1.0092 -1.3221
  135SOL    HW2 1305   6.182   2.052   3.624 -0.0455  0.6109  0.6004
  136SOL     OW 1306   3.686   3.449   5.456  0.3332 -0.1706 -0.2066
  136SOL    HW1 1307   3.648   3.364   5.490  0.0147  0.0892  0.0974
  136SOL    HW2 1308   3.666   3.458   5.358  1.4167 -1.0066 -0.5173
  137SOL     OW 1309   0.487   2.468   1.901  0.0241  0.0975  0.0219
  137SOL    HW1 1310   0.425   2.413   1.958 -0.1888  1.5433  1.2461
  137SOL    HW2 1311   0.580   2.433   1.911 -0.4679 -1.8284 -1.4967
  138SOL     OW 1312   0.643   0.883   0.404  0.3148 -0.2633  0.7459
  138SOL    HW1 1313   0.721   0.944   0.414 -0.5831  1.1466 -0.4028
  138SOL    HW2 1314   0.570   0.913   0.466  0.8659 -1.9615  2.2959
  139SOL     OW 1315   0.082   4.222   4.606  0.8902 -0.2343  0.5808
  139SOL    HW1 1316   0.095   4.138   4.554  1.0267  0.1458 -0.0038
  139SOL    HW2 1317   0.023   4.203   4.685 -0.6708 -0.4843 -0.5929
  140SOL     OW 1318   6.309   4.315   0.329 -0.5514  0.1667 -0.3339
  140SOL    HW1 1319   6.359   4.372   0.394 -1.1161 -1.7413  1.9228
  140SOL    HW2 1320   6.339   4.220   0.338 -1.2278 -0.2827 -2.3415
  141SOL     OW 1321   2.653   6.591   0.983  0.2635 -0.3707 -0.5233
  141SOL    HW1 1322   2.742   6.625   1.014  1.4561 -1.2645 -2.7470
  141SOL    HW2 1323   2.643   6.495   1.010  0.3499 -0.5085 -0.9733
  142SOL     OW 1324   1.474   3.872   6.554 -0.2265  0.1156 -0.4212
  142SOL    HW1 1325   1.564   3.881   6.597 -1.3168  3.3049  1.5669
  142SOL    HW2 1326   1.424   3.796   6.596  1.2447 -1.3156 -1.1392
  143SOL     OW 1327   5.055   4.231   4.974 -0.5111 -0.4451 -0.1173
  143SOL    HW1 1328   5.076   4.161   5.042  2.9807 -1.7638 -2.2760
  143SOL    HW2 1329   5.055   4.321   5.017  0.4160 -1.3019  1.7981
  144SOL     OW 1330   5.410   1.796   0.103 -0.0745  0.2516 -0.0637
  144SOL    HW1 1331   5.488   1.767   0.047 -0.9888 -1.7301 -0.3888
  144SOL    HW2 1332   5.341   1.837   0.044  0.0989  0.6584  0.0138
  145SOL     OW 1333   1.489   2.828   6.622  0.3148  0.6897  0.4650
  145SOL    HW1 1334   1.465   2.913   6.575  1.4151  1.7374  1.7102
  145SOL    HW2 1335   1.405   2.776   6.642 -0.2108  0.2698 -2.3829
  146SOL     OW 1336   5.490   3.690   6.848 -0.1861 -0.6362  0.7914
  146SOL    HW1 1337   5.545   3.720   6.770 -2.2514  0.2011 -0.4453
  146SOL    HW2 1338   5.461   3.595   6.833  1.0935 -1.1676  1.5730
  147SOL     OW 1339   4.421   6.163   5.360 -0.3188 -0.0939  0.1573
  147SOL    HW1 1340   4.498   6.221   5.334  0.5647 -1.3340 -0.0935
  147SOL    HW2 1341   4.336   6.201   5.322  0.3220  0.6769 -0.5297
  148SOL     OW 1342   6.470   4.916   3.778  0.6256  0.3976  0.0718
  148SOL    HW1 1343   6.412   4.928   3.697  2.3128  2.4124 -0.9197
  148SOL    HW2 1344   6.493   4.819   3.788 -0.2763 -0.0053 -1.3894
  149SOL     OW 1345   2.325   0.685   0.682 -0.4126 -0.1361 -0.0827
  149SOL    HW1 1346   2.290   0.727   0.766  0.1210 -0.4012  0.2812
  149SOL    HW2 1347   2.280   0.726   0.603 -0.2455  0.7931  0.2848
  150SOL     OW 1348   6.892   1.186   4.122 -0.4324  0.2454  0.7323
  150SOL    HW1 1349   6.889   1.250   4.199 -0.6718  2.1649 -0.7747
  150SOL    HW2 1350   6.983   1.189   4.080 -0.7871  0.4915 -0.0424
  151SOL     OW 1351   2.442   2.230   1.991  0.2921  0.2181  0.1978
  151SOL    HW1 1352   2.502   2.150   1.992  0.6361  0.3352 -2.3076
  151SOL    HW2 1353   2.494   2.310   1.959 -1.0346  0.3945 -1.7344
  152SOL     OW 1354   2.716   1.528   1.268  0.1342  0.1789  0.2179
  152SOL    HW1 1355   2.733   1.505   1.364 -0.3842 -0.5612  0.1383
  152SOL    HW2 1356   2.653   1.606   1.263 -1.4487 -1.0321  0.4909
  153SOL     OW 1357   5.518   0.870   6.415  0.4020 -0.5349  0.3318
  153SOL    HW1 1358   5.541   0.962   6.384 -0.4281  0.6902  3.0726
  153SOL    HW2 1359   5.595   0.809   6.397  1.1581  0.7799 -1.1096
  154SOL     OW 1360   3.052   3.325   5.290  0.9055  0.2574 -0.0051
  154SOL    HW1 1361   2.959   3.353   5.263  1.6786  1.0289 -2.0454
  154SOL    HW2 1362   3.098   3.402   5.334  0.3665 -0.3516  1.6906
  155SOL     OW 1363   5.205   4.742   1.724  0.6046 -0.8069 -0.0925
  155SOL    HW1 1364   5.253   4.722   1.639  0.1987  1.3444 -0.8953
  155SOL    HW2 1365   5.264   4.794   1.785 -0.5423  1.7382 -1.0326
  156SOL     OW 1366   6.099   1.443   1.917 -0.4992  0.3198  0.0983
  156SOL    HW1 1367   6.081   1.527   1.969 -1.8164 -0.2143  0.5314
  156SOL    HW2 1368   6.122   1.369   1.980  0.5317  0.2991 -0.2753
  157SOL     OW 1369   5.029   5.750   1.465 -0.5445  0.1999  0.0908
  157SOL    HW1 1370   4.973   5.832   1.459 -0.4012  0.3094  0.2465
  157SOL    HW2 1371   5.019   5.709   1.556 -0.4513  0.1610  0.0838
  158SOL     OW 1372   6.748   3.594   1.680  1.1344 -0.2574  0.5493
  158SOL    HW1 1373   6.682   3.519   1.687 -0.2016  0.9161  1.1715
  158SOL    HW2 1374   6.806   3.580   1.600 -1.4089 -0.1800 -1.4388
  159SOL     OW 1375   3.453   4.152   4.111 -0.1766  0.8346 -0.0251
  159SOL    HW1 1376   3.363   4.113   4.133  0.5953 -0.8215  0.3654
  159SOL    HW2 1377   3.447   4.201   4.025 -1.6001  1.3113  0.3107
  160SOL     OW 1378   6.321   2.241   3.108 -0.7564 -0.0221  0.0071
  160SOL    HW1 1379   6.306   2.252   3.206 -2.5841  1.2300 -0.3609
  160SOL    HW2 1380   6.250   2.183   3.069  0.4356 -1.2164 -0.4940
  161SOL     OW 1381   2.316   1.809   6.015  0.1657 -0.2170  0.0397
  161SOL    HW1 1382   2.407   1.816   6.054 -0.0086  1.3313  0.2228
  161SOL    HW2 1383   2.264   1.892   6.035 -1.3362 -1.1072  0.0489
  162SOL     OW 1384   0.167   2.020   0.576  0.2187  0.5561 -0.0062
  162SOL    HW1 1385   0.253   2.039   0.623 -0.4680  2.6285  0.5153
  162SOL    HW2 1386   0.115   2.105   0.567 -0.4625 -0.0760 -2.9809
  163SOL     OW 1387   0.395   0.464   2.030  0.5015  0.2590  0.1925
  163SOL    HW1 1388   0.407   0.543   2.091  0.3182 -0.6195  1.3951
  163SOL    HW2 1389   0.371   0.496   1.938 -0.2934  1.5780  0.8376
  164SOL     OW 1390   3.200   6.152   3.333  0.6823 -0.2576 -0.5385
  164SOL    HW1 1391   3.213   6.059   3.367 -0.0703 -0.1879 -0.0384
  164SOL    HW2 1392   3.187   6.214   3.411 -0.4505  0.0057 -0.9133
  165SOL     OW 1393   1.528   6.983   1.506 -0.2208  0.5120  0.2355
  165SOL    HW1 1394   1.482   7.060   1.461  0.7820  0.8201 -0.3000
  165SOL    HW2 1395   1.623   6.977   1.473 -0.7300 -1.9535 -1.0018
  166SOL     OW 1396   5.589   6.003   5.278  0.3240 -0.0301  0.2977
  166SOL    HW1 1397   5.685   6.029   5.265  0.3505  0.3325  1.1023
  166SOL    HW2 1398   5.585   5.915   5.326  0.2592  0.0911  0.5159
  167SOL     OW 1399   3.316   0.723   3.350 -0.1611  0.2910  0.2079
  167SOL    HW1 1400   3.360   0.796   3.401  0.9877  0.2529 -0.6905
  167SOL    HW2 1401   3.343   0.634   3.387 -1.6126  0.2918  1.3452
  168SOL     OW 1402   6.459   6.716   0.095 -0.0447 -0.5811 -0.3178
  168SOL    HW1 1403   6.515   6.732   0.013 -0.2390  1.0995 -0.1580
  168SOL    HW2 1404   6.502   6.646   0.151  0.3322 -1.4356 -1.6373
  169SOL     OW 1405   5.711   4.632   4.454 -0.1111  0.3750  0.3519
  169SOL    HW1 1406   5.732   4.608   4.549  0.6426 -2.0662 -0.3580
  169SOL    HW2 1407   5.612   4.637   4.442 -0.2768  3.7622  1.8652
  170SOL     OW 1408   4.623   4.273   1.719 -0.3063  0.2593 -0.3264
  170SOL    HW1 1409   4.605   4.250   1.624 -1.4213 -1.9179  0.3294
  170SOL    HW2 1410   4.543   4.250   1.775  0.7246  0.3657  1.2853
  171SOL     OW 1411   3.705   4.105   2.412  0.2527  0.1343  0.1212
  171SOL    HW1 1412   3.795   4.135   2.380 -0.3629  2.1549  0.0957
  171SOL    HW2 1413   3.687   4.012   2.381  1.9928 -0.0009 -0.5745
  172SOL     OW 1414   1.156   6.385   2.063 -0.0551  0.4171 -0.2119
  172SOL    HW1 1415   1.151   6.314   1.993  0.2383  0.9263 -0.7596
  172SOL    HW2 1416   1.143   6.475   2.020  0.6105  0.7696  0.3080
  173SOL     OW 1417   4.612   4.995   6.885 -0.6411 -0.5283  0.4686
  173SOL    HW1 1418   4.587   4.962   6.794 -0.0917 -1.5796  0.6788
  173SOL    HW2 1419   4.609   5.095   6.886  0.9414 -0.4031 -1.1943
  174SOL     OW 1420   6.690   6.606   0.228 -0.4306  0.1958  0.3277
  174SOL    HW1 1421   6.746   6.627   0.308 -1.9246 -0.0457  1.4747
  174SOL    HW2 1422   6.745   6.557   0.161  0.0931 -2.4262  2.5117
  175SOL     OW 1423   6.772   3.042   3.476  0.5293 -0.1546 -0.0883
  175SOL    HW1 1424   6.787   2.951   3.515  0.7940  0.6273  1.7178
  175SOL    HW2 1425   6.677   3.069   3.489  0.5104 -0.0667 -0.4000
  176SOL     OW 1426   6.310   4.623   3.529  0.2625 -0.1641 -0.0772
  176SOL    HW1 1427   6.374   4.686   3.485  0.1107  1.0116  1.2822
  176SOL    HW2 1428   6.226   4.673   3.552  0.6352 -0.5039  2.1930
  177SOL     OW 1429   5.263   0.265   6.629 -0.3494  0.1718 -0.0362
  177SOL    HW1 1430   5.198   0.276   6.703  1.5645  0.9853  1.6056
  177SOL    HW2 1431   5.249   0.336   6.560 -0.0192  1.4979  1.2355
  178SOL     OW 1432   4.390   1.233   5.755  0.1802  0.5610  0.4994
  178SOL    HW1 1433   4.477   1.199   5.789  0.3898  0.9029  0.3074
  178SOL    HW2 1434   4.397   1.252   5.657  0.0647  1.1379  0.5980
  179SOL     OW 1435   4.472   4.552   2.138 -0.1107  0.9341  0.1488
  179SOL    HW1 1436   4.568   4.575   2.157  0.3799 -0.3843 -0.6021
  179SOL    HW2 1437   4.468   4.468   2.083 -1.6771  1.3979 -0.4983
  180SOL     OW 1438   6.455   4.889   6.666 -0.3933  0.6999  0.0232
  180SOL    HW1 1439   6.546   4.894   6.624  0.4378 -0.6411  1.5698
  180SOL    HW2 1440   6.422   4.981   6.685  0.6845  1.2009 -0.4506
  181SOL     OW 1441   3.327   3.045   6.070 -0.6941 -0.5650  0.3069
  181SOL    HW1 1442   3.318   3.029   5.972  2.1177 -0.4912 -0.0374
  181SOL    HW2 1443   3.384   2.974   6.111 -0.3569  0.3814  1.5476
  182SOL     OW 1444   0.603   5.482   2.593  0.2097 -0.2567 -0.0476
  182SOL    HW1 1445   0.637   5.391   2.570  0.8494 -0.3445  1.1665
  182SOL    HW2 1446   0.575   5.483   2.689  0.1241  0.8071 -0.0765
  183SOL     OW 1447   3.582   3.708   2.725 -0.2030  0.0722 -0.3499
  183SOL    HW1 1448   3.673   3.721   2.686  0.3451 -1.2815  0.3983
  183SOL    HW2 1449   3.579   3.747   2.817 -0.2370 -0.2785 -0.2004
  184SOL     OW 1450   3.588   3.005   0.741  0.0194 -0.0778  0.2300
  184SOL    HW1 1451   3.592   2.914   0.781  0.6932  0.1983  0.8184
  184SOL    HW2 1452   3.540   3.067   0.803  3.3160  0.9841  2.0134
  185SOL     OW 1453   6.983   5.838   4.839 -0.2989 -0.1409 -0.0848
  185SOL    HW1 1454   7.033   5.767   4.888 -1.4918 -0.6821  0.4000
  185SOL    HW2 1455   6.925   5.796   4.769 -1.2362  0.2978  0.4014
  186SOL     OW 1456   4.048   1.994   1.108  0.3651 -0.1594 -0.4697
  186SOL    HW1 1457   4.124   2.057   1.088 -0.3091  0.6800 -0.4282
  186SOL    HW2 1458   3.962   2.036   1.080 -0.0346 -1.3845 -1.1433
  187SOL     OW 1459   2.576   1.329   0.774 -0.0594  0.1198  0.2697
  187SOL    HW1 1460   2.486   1.371   0.789  0.1023  1.0870 -1.2514
  187SOL    HW2 1461   2.599   1.271   0.852 -1.2732  1.1455  1.4383
  188SOL     OW 1462   6.886   3.890   6.655 -0.4444  0.1150 -0.0142
  188SOL    HW1 1463   6.861   3.793   6.650  0.9274 -0.3401  1.1539
  188SOL    HW2 1464   6.883   3.931   6.564  1.2933 -1.6567 -0.9393
  189SOL     OW 1465   0.915   1.479   2.700  0.3764 -0.3610  0.2926
  189SOL    HW1 1466   1.000   1.523   2.728  0.1879  0.3080 -0.1583
  189SOL    HW2 1467   0.845   1.492   2.771 -0.5812  2.7033 -1.0248
  190SOL     OW 1468   2.060   3.059   3.737 -0.0821 -0.3077  0.9754
  190SOL    HW1 1469   2.071   3.064   3.836  0.6392 -0.5241  0.9096
  190SOL    HW2 1470   1.976   3.009   3.716 -1.0058  0.9617  1.4834
  191SOL     OW 1471   3.949   5.999   1.553  0.2683 -0.5783 -0.1049
  191SOL    HW1 1472   4.012   6.046   1.614 -0.0153 -1.1431  0.6256
  191SOL    HW2 1473   3.963   5.901   1.559 -0.8345 -0.7251  0.2528
  192SOL     OW 1474   2.713   0.857   0.743 -0.2878 -0.1153 -0.1353
  192SOL    HW1 1475   2.809   0.885   0.738 -0.6240  0.9369 -1.2413
  192SOL    HW2 1476   2.671   0.896   0.826  0.3439 -1.0003  0.6221
  193SOL     OW 1477   5.070   1.725   6.149 -0.4794  0.2694 -0.1694
  193SOL    HW1 1478   4.985   1.673   6.151  0.3885 -1.1875 -0.0547
  193SOL    HW2 1479   5.067   1.797   6.219 -2.2665  1.3763 -1.2870
  194SOL     OW 1480   2.679   6.331   1.115  0.1530 -0.8200 -0.0731
  194SOL    HW1 1481   2.763   6.294   1.074  1.2473 -0.0447  1.3631
  194SOL    HW2 1482   2.702   6.374   1.203 -1.6581  0.0178  0.0180
  195SOL     OW 1483   7.008   2.909   1.830  0.6263  0.0017  0.5457
  195SOL    HW1 1484   7.009   2.928   1.732 -1.2848 -0.1617  0.4625
  195SOL    HW2 1485   7.044   2.818   1.847 -2.5165 -1.5553 -0.4549
  196SOL     OW 1486   5.739   4.655   1.782 -0.3402  1.1306 -0.0251
  196SOL    HW1 1487   5.668   4.637   1.850 -1.5625 -0.5313 -1.6241
  196SOL    HW2 1488   5.823   4.609   1.809 -0.3856  1.6297  1.0121
  197SOL     OW 1489   0.242   3.760   3.040  0.3405 -0.0173  0.0246
  197SOL    HW1 1490   0.212   3.665   3.036  0.5827 -0.0633 -1.2271
  197SOL    HW2 1491   0.268   3.791   2.948  0.4762  1.1906  0.4445
  198SOL     OW 1492   5.624   1.446   5.003 -0.0700  0.4260 -0.4016
  198SOL    HW1 1493   5.642   1.381   5.076  0.5879 -0.0276 -0.9532
  198SOL    HW2 1494   5.676   1.530   5.019 -0.5095  0.6210  0.0341
  199SOL     OW 1495   2.592   1.685   0.756 -0.3211  0.3235  0.4387
  199SOL    HW1 1496   2.603   1.631   0.839  1.4223  0.6219  0.4460
  199SOL    HW2 1497   2.636   1.774   0.768 -0.2238  0.4470 -0.7172
  200SOL     OW 1498   3.333   6.185   5.490  0.0379 -0.5412 -0.5304
  200SOL    HW1 1499   3.354   6.202   5.587  0.7849  0.3407 -0.8304
  200SOL    HW2 1500   3.398   6.119   5.453 -0.8045 -1.5746 -0.2167
  201SOL     OW 1501   2.483   3.558   6.031 -0.1777  0.5463  0.2242
  201SOL    HW1 1502   2.550   3.580   6.102  1.2580 -0.4962 -0.7477
  201SOL    HW2 1503   2.390   3.566   6.068  0.4623 -3.2648  3.3740
  202SOL     OW 1504   2.385   2.706   3.849  0.3093 -0.2823 -0.3661
  202SOL    HW1 1505   2.452   2.640   3.884 -0.2424 -0.2197  0.8556
  202SOL    HW2 1506   2.407   2.797   3.884  0.4267 -0.0050 -1.1520
  203SOL     OW 1507   1.495   1.460   1.643 -0.4230 -0.1830 -0.3107
  203SOL    HW1 1508   1.524   1.435   1.551  1.2650  0.4573  0.0111
  203SOL    HW2 1509   1.529   1.552   1.666  2.8701 -1.8110  2.3566
  204SOL     OW 1510   5.873   1.750   2.065  0.6542 -0.4575  0.9341
  204SOL    HW1 1511   5.833   1.732   1.975  0.2266  0.2649  0.9707
  204SOL    HW2 1512   5.973   1.746   2.058  0.6211 -0.5611  0.4574
  205SOL     OW 1513   0.523   4.306   3.750  0.3669  0.0227  0.1655
  205SOL    HW1 1514   0.606   4.296   3.695 -0.2658 -1.4476 -0.5810
  205SOL    HW2 1515   0.449   4.341   3.692 -0.0488 -0.6045  0.3015
  206SOL     OW 1516   2.557   0.850   1.770  0.1815  0.0064  0.3043
  206SOL    HW1 1517   2.625   0.782   1.798  0.4726 -0.4219 -1.3665
  206SOL    HW2 1518   2.596   0.909   1.700 -1.4614 -0.9532 -1.5366
  207SOL     OW 1519   6.560   5.837   0.233 -0.2488  0.6842  0.2724
  207SOL    HW1 1520   6.617   5.891   0.295  0.2940  0.1620  0.2314
  207SOL    HW2 1521   6.470   5.823   0.274 -0.0098  0.6450  0.7897
  208SOL     OW 1522   6.313   0.079   6.856 -0.2746  0.0860 -0.2288
  208SOL    HW1 1523   6.350   0.062   6.765 -0.4182  0.3522 -0.3357
  208SOL    HW2 1524   6.378   0.047   6.925 -0.5161 -0.8750 -0.4228
  209SOL     OW 1525   6.727   3.834   0.087 -0.9360  0.2070  0.5909
  209SOL    HW1 1526   6.754   3.917   0.039  4.0417 -0.4488  1.7648
  209SOL    HW2 1527   6.729   3.850   0.185  1.0162 -1.3700  0.8787
  210SOL     OW 1528   6.366   3.220   0.142  0.2086  0.5473  0.3669
  210SOL    HW1 1529   6.271   3.214   0.109 -0.7642  2.3035  2.5713
  210SOL    HW2 1530   6.379   3.158   0.219  1.0934 -0.1439 -0.3099
  211SOL     OW 1531   5.484   3.843   1.778  0.0240 -0.0931  0.3844
  211SOL    HW1 1532   5.402   3.898   1.768  0.5097  0.9138  1.5798
  211SOL    HW2 1533   5.529   3.832   1.689 -0.6229  0.5936 -0.0316
  212SOL     OW 1534   4.173   3.607   0.922 -0.1498 -0.9269 -0.3367
  212SOL    HW1 1535   4.235   3.529   0.916 -0.1014 -0.8061 -2.0066
  212SOL    HW2 1536   4.225   3.688   0.949 -0.0578 -1.2948  0.6377
  213SOL     OW 1537   4.658   4.726   1.092  0.2478  0.0530 -0.1699
  213SOL    HW1 1538   4.620   4.780   1.167  0.2924 -0.4477  0.2218
  213SOL    HW2 1539   4.625   4.762   1.005 -1.6790 -0.7429  0.1586
  214SOL     OW 1540   2.049   5.546   2.421  0.5046  0.4795 -0.1578
  214SOL    HW1 1541   2.139   5.520   2.457  0.3385 -0.3703 -0.3386
  214SOL    HW2 1542   2.030   5.493   2.338  0.2298  1.3277 -0.6505
  215SOL     OW 1543   0.290   1.014   3.525 -0.7027 -0.2567 -0.4090
  215SOL    HW1 1544   0.235   0.931   3.538  0.0678 -0.5308  1.2486
  215SOL    HW2 1545   0.380   0.989   3.489 -0.1268 -0.2648  0.9890
  216SOL     OW 1546   4.349   0.333   0.318  0.1414 -0.7934  0.2954
  216SOL    HW1 1547   4.419   0.338   0.390 -0.6534 -0.4706  1.0617
  216SOL    HW2 1548   4.362   0.249   0.265 -0.3022 -1.9245  1.9106
  217SOL     OW 1549   5.603   0.400   4.867  0.1272 -0.5710  0.6663
  217SOL    HW1 1550   5.545   0.475   4.836  0.0355  0.0140  2.1794
  217SOL    HW2 1551   5.636   0.348   4.787 -3.8113 -1.9895 -0.2846
  218SOL     OW 1552   0.632   4.523   2.725 -0.4067  0.6885  0.5363
  218SOL    HW1 1553   0.685   4.575   2.658  0.5869  1.1347  1.6297
  218SOL    HW2 1554   0.676   4.435   2.742 -0.8105  0.4592  0.4073
  219SOL     OW 1555   2.828   1.758   3.037  0.2093  0.1594 -0.2791
  219SOL    HW1 1556   2.896   1.716   3.096  0.1579  0.1077 -0.2571
  219SOL    HW2 1557   2.874   1.809   2.964  0.2837  0.7931  0.1995
  220SOL     OW 1558   5.159   2.067   6.095 -0.5279 -0.1723 -0.3804
  220SOL    HW1 1559   5.060   2.065   6.076 -0.1346 -0.4027 -2.8017
  220SOL    HW2 1560   5.202   2.134   6.035  0.9794 -1.2077 -0.4898
  221SOL     OW 1561   5.798   2.890   1.208 -0.9189  0.4080  0.6271
  221SOL    HW1 1562   5.819   2.884   1.305  1.0651  1.0064  0.2786
  221SOL    HW2 1563   5.834   2.808   1.161  0.0208  1.0910  0.1205
  222SOL     OW 1564   1.452   2.111   4.552 -0.0915  0.5251 -0.0533
  222SOL    HW1 1565   1.447   2.211   4.556  1.2396  0.5858  0.7760
  222SOL    HW2 1566   1.457   2.074   4.645  2.7699 -0.0616 -0.3515
  223SOL     OW 1567   0.202   4.505   2.372 -0.0123 -0.4808  0.2630
  223SOL    HW1 1568   0.284   4.466   2.412  0.8355  1.4647  0.5685
  223SOL    HW2 1569   0.225   4.591   2.326 -1.7011 -0.4467 -0.6280
  224SOL     OW 1570   6.516   4.916   6.977 -0.4138 -0.8358  0.2626
  224SOL    HW1 1571   6.551   4.997   6.929 -1.8903 -1.0016 -1.1899
  224SOL    HW2 1572   6.460   4.862   6.914 -1.7320 -1.5354  1.9561
  225SOL     OW 1573   0.781   5.800   2.997  1.0070  0.3380  0.8864
  225SOL    HW1 1574   0.689   5.792   3.034  0.3133  2.8949 -0.0449
  225SOL    HW2 1575   0.776   5.823   2.899  2.6498 -0.0514  0.6737
  226SOL     OW 1576   0.108   1.607   2.060  0.2028  0.3720  0.3844
  226SOL    HW1 1577   0.041   1.606   2.133  0.1265  1.7126  0.3683
  226SOL    HW2 1578   0.109   1.698   2.017 -1.3448 -0.9192 -2.7545
  227SOL     OW 1579   2.303   1.446   0.115 -0.2178  0.0931 -0.1519
  227SOL    HW1 1580   2.272   1.360   0.155  0.6450 -0.8901 -1.4854
  227SOL    HW2 1581   2.227   1.510   0.109 -1.2694 -1.1605 -0.6028
  228SOL     OW 1582   0.011   5.124   6.383 -0.3295  0.1970  0.0631
  228SOL    HW1 1583  -0.022   5.191   6.450  0.9410  0.1093  0.8108
  228SOL    HW2 1584  -0.007   5.032   6.417  1.4293  0.1242  0.9448
  229SOL     OW 1585   3.599   3.039   4.270 -0.1079 -0.3307 -0.4648
  229SOL    HW1 1586   3.686   3.013   4.312 -0.0796  1.6247  0.7990
  229SOL    HW2 1587   3.524   3.000   4.324 -0.0599  1.7463  1.2375
  230SOL     OW 1588   1.518   3.310   3.010  0.0817 -1.1378 -0.0115
  230SOL    HW1 1589   1.485   3.402   2.990 -0.2491 -0.5122  3.0201
  230SOL    HW2 1590   1.616   3.304   2.989  0.7367  0.7813  2.1304
  231SOL     OW 1591   2.683   4.939   5.002  0.2471 -0.1585 -0.2525
  231SOL    HW1 1592   2.743   5.019   4.992 -1.2459  0.9918 -0.3293
  231SOL    HW2 1593   2.635   4.923   4.916 -0.8777  0.0393  0.3279
  232SOL     OW 1594   5.892   6.220   0.539 -0.3708 -0.1883 -0.3242
  232SOL    HW1 1595   5.870   6.124   0.519  2.0657 -1.0046  0.5039
  232SOL    HW2 1596   5.898   6.233   0.638 -2.1420  1.2416 -0.3560
  233SOL     OW 1597   1.529   1.399   2.846 -0.0967 -0.0809  0.0839
  233SOL    HW1 1598   1.594   1.325   2.827  2.1030  2.1735 -1.9105
  233SOL    HW2 1599   1.564   1.455   2.921  0.6238  1.4055 -1.2933
  234SOL     OW 1600   4.085   3.624   5.543  0.4175 -0.0178 -0.0193
  234SOL    HW1 1601   4.071   3.723   5.541  0.7119  0.0191 -0.4218
  234SOL    HW2 1602   4.176   3.602   5.508  0.5704 -0.3932  0.6039
  235SOL     OW 1603   2.646   2.258   0.211 -0.2215 -0.1123  0.7189
  235SOL    HW1 1604   2.708   2.324   0.170  0.8716 -1.5884 -0.1154
  235SOL    HW2 1605   2.554   2.297   0.217  0.1243  1.0435 -0.8637
  236SOL     OW 1606   3.512   2.034   6.633  0.2619 -0.0731 -0.2675
  236SOL    HW1 1607   3.597   2.017   6.582  0.6723 -0.9351  0.6652
  236SOL    HW2 1608   3.508   2.130   6.658  0.6825  0.0986 -0.8233
  237SOL     OW 1609   2.065   3.515   2.742  0.0754  0.3283 -0.3280
  237SOL    HW1 1610   2.086   3.572   2.662  1.9000 -0.9182 -0.8298
  237SOL    HW2 1611   2.070   3.418   2.715 -0.5898 -0.1056  1.0176
  238SOL     OW 1612   3.766   6.676   5.776  0.0862  0.0544  0.1529
  238SOL    HW1 1613   3.823   6.751   5.810  0.9726 -0.0169 -1.1251
  238SOL    HW2 1614   3.670   6.701   5.785  0.2603  0.1363  2.4497
  239SOL     OW 1615   5.921   1.083   3.625  0.1254  0.3114 -0.4831
  239SOL    HW1 1616   5.869   1.003   3.654  1.7126 -0.8780 -0.7666
  239SOL    HW2 1617   6.017   1.070   3.651  0.4792  1.9563 -0.9050
  240SOL     OW 1618   5.325   3.884   3.135 -0.6086  0.1307  0.0090
  240SOL    HW1 1619   5.345   3.926   3.047  1.2438 -0.8020 -0.0723
  240SOL    HW2 1620   5.267   3.803   3.122 -1.0977  0.5150 -0.2343
  241SOL     OW 1621   3.484   6.534   2.578  0.1474  0.3353 -0.1459
  241SOL    HW1 1622   3.407   6.523   2.640 -0.0952  0.3432 -0.4459
  241SOL    HW2 1623   3.558   6.582   2.625  0.2629 -0.3549  0.3802
  242SOL     OW 1624   3.712   3.432   3.226 -0.8452 -0.2770  0.4901
  242SOL    HW1 1625   3.725   3.375   3.144 -1.1938  0.2130  0.0824
  242SOL    HW2 1626   3.706   3.373   3.307  0.4884 -0.7111  0.2940
  243SOL     OW 1627   6.133   1.112   4.129  0.0922 -0.7136  0.6607
  243SOL    HW1 1628   6.100   1.071   4.044  1.1125 -1.6917  0.7075
  243SOL    HW2 1629   6.130   1.043   4.202  1.9154 -0.7550  0.7326
  244SOL     OW 1630   5.401   1.138   4.262 -0.1360 -0.2559  0.1407
  244SOL    HW1 1631   5.466   1.205   4.299 -1.4513  2.2825 -1.8338
  244SOL    HW2 1632   5.450   1.071   4.207  0.8988  1.8561 -1.6816
  245SOL     OW 1633   6.497   4.706   1.098 -0.3944 -0.0248 -0.2436
  245SOL    HW1 1634   6.435   4.666   1.030 -0.0581 -0.3047 -0.3820
  245SOL    HW2 1635   6.561   4.767   1.052  0.4160 -0.9047 -0.2976
  246SOL     OW 1636   6.932   3.683   3.034 -0.4560  0.1625 -0.5933
  246SOL    HW1 1637   6.890   3.631   2.960 -2.8165  0.7207  0.2410
  246SOL    HW2 1638   7.020   3.643   3.058  0.3888 -0.0537 -3.6230
  247SOL     OW 1639   1.187   2.254   4.311  0.1663  0.0718  0.4674
  247SOL    HW1 1640   1.283   2.283   4.317 -0.2553  1.3552  1.5236
  247SOL    HW2 1641   1.128   2.335   4.314 -0.9298 -0.5995 -1.3874
  248SOL     OW 1642   3.068   0.094   4.594 -0.0938  0.1256  0.2057
  248SOL    HW1 1643   3.108   0.182   4.568 -0.2614  0.0552 -0.2956
  248SOL    HW2 1644   2.980   0.110   4.638 -0.1674  0.2045  0.0306
  249SOL     OW 1645   3.671   2.076   5.853 -0.3486 -0.3136  0.4900
  249SOL    HW1 1646   3.734   2.007   5.890  0.7424  0.2032 -0.3430
  249SOL    HW2 1647   3.586   2.032   5.825  0.4837 -1.4077 -0.4124
  250SOL     OW 1648   3.920   5.702   1.555  0.4723 -0.1395 -0.0560
  250SOL    HW1 1649   3.833   5.651   1.547  1.1428 -1.0969 -2.1321
  250SOL    HW2 1650   3.992   5.640   1.583  1.0042 -0.0041 -1.0797
  251SOL     OW 1651   1.973   4.186   6.539  0.2239  0.5334  0.2262
  251SOL    HW1 1652   2.066   4.181   6.501 -0.1195 -0.8029 -0.4825
  251SOL    HW2 1653   1.906   4.169   6.467 -0.4603 -1.4280  1.2714
  252SOL     OW 1654   2.377   2.961   1.070 -0.1130 -0.2279  0.0323
  252SOL    HW1 1655   2.450   3.006   1.019  0.4688  0.6957  1.5989
  252SOL    HW2 1656   2.416   2.916   1.151 -1.2505  0.2146  0.8548
  253SOL     OW 1657   6.172   1.054   5.458 -0.1898  0.0132 -0.3443
  253SOL    HW1 1658   6.074   1.034   5.458  0.0005 -0.9508  0.4515
  253SOL    HW2 1659   6.217   0.998   5.388 -0.6472  3.0075 -3.3367
  254SOL     OW 1660   5.573   3.299   0.455 -0.7992 -0.2339 -0.0945
  254SOL    HW1 1661   5.501   3.231   0.443 -2.8670  1.8485 -0.0819
  254SOL    HW2 1662   5.537   3.390   0.438  1.7550  0.9590  0.3361
  255SOL     OW 1663   5.498   4.691   5.586 -0.0380  0.5974  0.3607
  255SOL    HW1 1664   5.574   4.754   5.605 -1.4605  2.5336 -0.0953
  255SOL    HW2 1665   5.508   4.654   5.493  0.5057  0.5902  0.4174
  256SOL     OW 1666   4.953   2.257   5.491  0.0047  0.3653 -0.1197
  256SOL    HW1 1667   4.853   2.253   5.491 -0.1075  2.2321 -0.5571
  256SOL    HW2 1668   4.984   2.328   5.555  0.9045  1.7022 -1.9574
  257SOL     OW 1669   6.208   2.428   5.199 -0.7302 -0.4201  0.2166
  257SOL    HW1 1670   6.158   2.343   5.216 -0.6239 -0.3218  1.0761
  257SOL    HW2 1671   6.194   2.457   5.104 -2.4928 -0.2683  0.4847
  258SOL     OW 1672   0.342   0.492   1.208  0.4075  0.5335 -0.3841
  258SOL    HW1 1673   0.267   0.483   1.143  0.9537 -1.4202 -0.7889
  258SOL    HW2 1674   0.325   0.433   1.286  1.5298  0.0773 -0.4821
  259SOL     OW 1675   1.849   0.318   2.003  0.0228 -0.4228  0.9367
  259SOL    HW1 1676   1.821   0.350   2.094 -0.9348  2.9066 -0.3458
  259SOL    HW2 1677   1.768   0.288   1.952  0.1430  0.2415  0.3393
  260SOL     OW 1678   6.822   5.193   4.672  0.2626 -0.3063  0.0638
  260SOL    HW1 1679   6.725   5.169   4.677  0.0069  0.3211 -1.4229
  260SOL    HW2 1680   6.836   5.263   4.602  2.1709 -2.4257 -1.8274
  261SOL     OW 1681   1.963   3.776   0.670 -0.3089 -0.1279  0.6088
  261SOL    HW1 1682   1.946   3.873   0.653 -0.6345 -0.3004 -0.0887
  261SOL    HW2 1683   1.992   3.732   0.584  2.7171 -0.0599  1.4576
  262SOL     OW 1684   5.704   2.523   4.117  1.0351  0.2735 -0.2855
  262SOL    HW1 1685   5.649   2.477   4.188 -0.1115  2.0937  0.0782
  262SOL    HW2 1686   5.644   2.580   4.061  2.6490  3.3426  0.8923
  263SOL     OW 1687   2.848   1.673   3.640  0.4055 -0.4905  0.0460
  263SOL    HW1 1688   2.837   1.679   3.541  1.5457  1.2550 -0.0243
  263SOL    HW2 1689   2.886   1.584   3.664  1.1208 -0.5386 -1.1912
  264SOL     OW 1690   4.488   5.851   6.264 -0.5586 -0.7210  0.2377
  264SOL    HW1 1691   4.420   5.831   6.335 -0.1179 -3.3701  0.0067
  264SOL    HW2 1692   4.445   5.904   6.191 -2.0153 -1.1783  0.7221
  265SOL     OW 1693   1.023   5.991   0.484 -0.2728 -0.5463  0.3150
  265SOL    HW1 1694   1.039   6.046   0.566  1.2511 -0.3116 -0.0954
  265SOL    HW2 1695   1.068   6.035   0.406 -0.9836 -1.2029 -0.4824
  266SOL     OW 1696   3.560   2.843   4.942 -0.5698 -0.1232 -1.0561
  266SOL    HW1 1697   3.636   2.795   4.987 -0.6122  0.8890  0.1795
  266SOL    HW2 1698   3.566   2.831   4.843  0.2170 -1.4661 -0.8610
  267SOL     OW 1699   4.725   2.420   4.692  0.6931 -0.4047 -0.3658
  267SOL    HW1 1700   4.667   2.500   4.685 -0.4328 -1.0435  1.0338
  267SOL    HW2 1701   4.775   2.407   4.607 -0.4500  0.7459 -1.2513
  268SOL     OW 1702   4.269   4.561   5.590 -0.5637 -0.1465  0.4988
  268SOL    HW1 1703   4.352   4.571   5.536  0.3297 -1.3907  1.5702
  268SOL    HW2 1704   4.190   4.585   5.535  0.4911  1.0809 -0.5510
  269SOL     OW 1705   0.206   6.604   6.897  0.3634 -0.6298  0.1701
  269SOL    HW1 1706   0.108   6.591   6.907  0.4116 -0.5994  0.7261
  269SOL    HW2 1707   0.251   6.515   6.889  0.4263 -0.7145  1.3202
  270SOL     OW 1708   6.801   5.457   6.617 -0.6876 -0.2431 -0.4320
  270SOL    HW1 1709   6.820   5.469   6.714 -1.1306  2.0873 -0.5664
  270SOL    HW2 1710   6.886   5.462   6.565 -0.6115  0.1219 -0.2760
  271SOL     OW 1711   0.471   1.562   3.101 -0.2556 -0.2349 -0.2143
  271SOL    HW1 1712   0.492   1.551   3.198 -1.4563 -0.4013  0.0399
  271SOL    HW2 1713   0.384   1.516   3.080 -1.2984  1.9005 -0.8302
  272SOL     OW 1714   0.084   1.601   0.323 -0.0897  0.0675 -0.1252
  272SOL    HW1 1715   0.113   1.525   0.382  2.7210 -0.1672 -1.6366
  272SOL    HW2 1716   0.153   1.673   0.326 -0.9490  0.9768 -1.4583
  273SOL     OW 1717   2.661   5.788   1.625 -0.4354  0.1365 -0.1850
  273SOL    HW1 1718   2.655   5.733   1.542 -0.4867  1.2354 -0.9251
  273SOL    HW2 1719   2.583   5.850   1.629 -0.2719  0.3027  0.5348
  274SOL     OW 1720   6.449   0.315   4.240  0.1872  0.2566  0.2236
  274SOL    HW1 1721   6.391   0.329   4.319 -0.6787 -0.2571 -0.3045
  274SOL    HW2 1722   6.508   0.395   4.227 -1.5632  1.5362 -0.1976
  275SOL     OW 1723   6.081   4.885   0.018 -0.6222 -0.3432  0.1042
  275SOL    HW1 1724   6.052   4.869  -0.077 -0.5290  0.0315  0.0104
  275SOL    HW2 1725   6.093   4.797   0.064 -1.1761 -0.5200 -0.0758
  276SOL     OW 1726   4.422   5.217   2.752  0.1540  0.0042 -0.4805
  276SOL    HW1 1727   4.414   5.154   2.675  0.2421  0.7722 -1.1224
  276SOL    HW2 1728   4.511   5.262   2.749 -0.0283  0.3854 -0.1906
  277SOL     OW 1729   6.257   6.039   1.686 -0.7325 -0.3524  0.5298
  277SOL    HW1 1730   6.289   6.100   1.613 -1.6078  1.5753  1.6688
  277SOL    HW2 1731   6.323   5.965   1.699 -0.4486 -0.6393 -2.0243
  278SOL     OW 1732   6.472   2.639   6.556  0.5674 -1.0165 -1.0557
  278SOL    HW1 1733   6.389   2.660   6.505 -0.7116 -2.6341  0.2266
  278SOL    HW2 1734   6.488   2.710   6.624  0.7844 -0.2159 -1.9276
  279SOL     OW 1735   6.836   5.173   6.691  0.2223 -0.0029  0.0967
  279SOL    HW1 1736   6.933   5.183   6.714  0.0791  0.4805  0.5031
  279SOL    HW2 1737   6.804   5.256   6.646  0.3467 -0.7027 -1.3622
  280SOL     OW 1738   3.650   0.732   6.866 -0.3260 -0.1618 -0.4865
  280SOL    HW1 1739   3.715   0.659   6.886  0.1010  0.6471  1.3249
  280SOL    HW2 1740   3.568   0.719   6.921 -0.5217  0.3600 -0.6499
  281SOL     OW 1741   1.626   4.541   4.542  0.2020 -0.7205  0.3996
  281SOL    HW1 1742   1.658   4.473   4.477 -0.2623 -0.6621  0.1083
  281SOL    HW2 1743   1.642   4.509   4.635  1.7766 -0.3897  0.2807
  282SOL     OW 1744   0.839   5.808   6.614 -0.0185 -0.1441  0.0891
  282SOL    HW1 1745   0.771   5.784   6.545 -0.5014 -0.9243  0.8036
  282SOL    HW2 1746   0.900   5.729   6.628  0.4705  0.2326  0.1056
  283SOL     OW 1747   6.820   2.154   3.292  0.5892 -0.4340  0.0729
  283SOL    HW1 1748   6.911   2.195   3.288 -0.0120  0.9030 -1.6908
  283SOL    HW2 1749   6.753   2.218   3.254 -0.9232 -1.8260  0.2540
  284SOL     OW 1750   4.997   6.093   1.017  0.3951  0.4198  0.0493
  284SOL    HW1 1751   4.993   5.997   0.987 -1.2252  1.4300 -3.5454
  284SOL    HW2 1752   5.089   6.114   1.049  1.0506 -2.0659  0.0581
  285SOL     OW 1753   0.151   3.044   6.873 -0.2769  0.2119  0.2313
  285SOL    HW1 1754   0.224   3.002   6.820  0.4724  1.8304 -0.0466
  285SOL    HW2 1755   0.110   2.974   6.933  0.9118 -0.9094 -0.2100
  286SOL     OW 1756   6.964   0.379   4.144  0.6348 -0.1443 -0.2315
  286SOL    HW1 1757   7.061   0.362   4.126  1.0815  2.2602 -0.4253
  286SOL    HW2 1758   6.941   0.472   4.116 -1.9765 -0.9631 -1.0385
  287SOL     OW 1759   6.526   1.201   2.491  0.1425 -0.3223 -0.0597
  287SOL    HW1 1760   6.549   1.119   2.543 -2.2517 -0.1793  1.3686
  287SOL    HW2 1761   6.543   1.282   2.548 -0.2698 -0.0044 -0.3889
  288SOL     OW 1762   1.368   0.777   0.261 -0.0324  0.1706 -0.2879
  288SOL    HW1 1763   1.447   0.729   0.221  0.3442  0.1593  0.4488
  288SOL    HW2 1764   1.287   0.758   0.207  0.1638 -1.0959 -0.1675
  289SOL     OW 1765   3.829   0.237   1.483 -0.1881 -0.1021 -0.2472
  289SOL    HW1 1766   3.827   0.148   1.529 -0.2136 -0.5589 -1.1038
  289SOL    HW2 1767   3.744   0.249   1.431 -0.2742  0.5199  0.0232
  290SOL     OW 1768   5.448   6.646   0.488  0.4430 -0.5501  0.3397
  290SOL    HW1 1769   5.378   6.630   0.419 -0.7403  1.4406  1.0063
  290SOL    HW2 1770   5.466   6.561   0.538 -2.7969 -0.7711  1.3274
  291SOL     OW 1771   0.304   0.576   1.757  0.0440 -0.2367 -0.5303
  291SOL    HW1 1772   0.245   0.502   1.793 -0.2199  0.2418  0.0435
  291SOL    HW2 1773   0.250   0.635   1.697 -0.1315  0.3277  0.1670
  292SOL     OW 1774   0.009   3.717   3.314  0.3441 -0.0154  0.7353
  292SOL    HW1 1775  -0.025   3.632   3.353 -1.2567  1.3815  2.5589
  292SOL    HW2 1776  -0.057   3.752   3.247  1.3761 -0.5585 -0.6175
  293SOL     OW 1777   3.820   1.413   3.726  0.2661  0.9022  0.2740
  293SOL    HW1 1778   3.890   1.484   3.720  0.1393  0.9731 -0.3946
  293SOL    HW2 1779   3.757   1.435   3.800  1.5078  0.3340  1.5675
  294SOL     OW 1780   5.413   2.263   6.382  0.3970  0.1495 -0.0503
  294SOL    HW1 1781   5.362   2.235   6.463  0.1413 -0.0969 -0.2947
  294SOL    HW2 1782   5.387   2.356   6.356  1.3541  0.6916  0.8489
  295SOL     OW 1783   3.700   0.282   0.451 -0.4290  0.5443 -0.4889
  295SOL    HW1 1784   3.772   0.257   0.386 -2.0448 -0.6950 -1.9163
  295SOL    HW2 1785   3.673   0.202   0.504 -0.7548  0.9877  0.0289
  296SOL     OW 1786   1.682   1.678   6.286 -0.3785 -0.6468  0.4676
  296SOL    HW1 1787   1.775   1.696   6.255 -0.5875 -1.4324 -0.6827
  296SOL    HW2 1788   1.681   1.597   6.344 -0.2031 -0.0167  1.3730
  297SOL     OW 1789   4.967   6.257   1.877 -0.3794  0.3257 -0.2293
  297SOL    HW1 1790   4.915   6.289   1.797  0.2953  0.5918 -0.5645
  297SOL    HW2 1791   4.918   6.283   1.960 -0.6553  0.8111 -0.5351
  298SOL     OW 1792   1.766   0.464   1.586  0.1212 -0.2532  0.1171
  298SOL    HW1 1793   1.804   0.554   1.568 -0.4953  0.4930  2.2776
  298SOL    HW2 1794   1.837   0.404   1.621  0.4399 -0.5125 -0.9352
  299SOL     OW 1795   5.769   0.320   2.378  0.7362  0.0782 -0.1629
  299SOL    HW1 1796   5.810   0.238   2.419 -0.6422 -2.1339 -2.8277
  299SOL    HW2 1797   5.842   0.383   2.350  1.8618 -0.4059  1.5054
  300SOL     OW 1798   6.425   2.753   3.444 -0.8985 -0.3019 -0.1207
  300SOL    HW1 1799   6.355   2.820   3.467 -1.5774 -0.2165 -2.2029
  300SOL    HW2 1800   6.382   2.670   3.410 -0.0064 -0.7046 -0.3031
  301SOL     OW 1801   6.849   6.154   5.861 -0.7576  0.1093 -0.4852
  301SOL    HW1 1802   6.891   6.237   5.898 -0.5613 -0.4942  0.7016
  301SOL    HW2 1803   6.756   6.174   5.832 -0.3745  0.9722 -1.1642
  302SOL     OW 1804   0.347   6.848   5.177  0.1573  0.4966  0.9002
  302SOL    HW1 1805   0.405   6.888   5.248 -0.4248 -0.6344  2.0626
  302SOL    HW2 1806   0.314   6.759   5.208 -2.8713  1.4117  0.6740
  303SOL     OW 1807   4.698   0.123   5.886  0.5125 -0.1857 -0.3249
  303SOL    HW1 1808   4.657   0.049   5.939  0.4182  0.7206  0.8901
  303SOL    HW2 1809   4.627   0.187   5.857  0.8942  0.8077  0.8600
  304SOL     OW 1810   0.363   4.622   6.963  0.1002 -0.5184  0.0507
  304SOL    HW1 1811   0.434   4.555   6.943 -1.1271 -2.1960  1.0278
  304SOL    HW2 1812   0.299   4.584   7.029 -1.3994  1.1467 -0.3561
  305SOL     OW 1813   0.579   0.275   5.012  0.4236 -0.3956 -0.5032
  305SOL    HW1 1814   0.524   0.313   5.086 -0.4919  0.8464 -1.7516
  305SOL    HW2 1815   0.552   0.318   4.925  0.7596 -2.4756 -1.7110
  306SOL     OW 1816   2.475   4.047   5.971  0.1220  0.5688 -0.1521
  306SOL    HW1 1817   2.390   3.998   5.954  0.8465 -0.3429 -1.3255
  306SOL    HW2 1818   2.456   4.130   6.024 -1.3614 -0.0688  0.3682
  307SOL     OW 1819   1.297   6.993   1.932  0.0276 -0.2484  0.1579
  307SOL    HW1 1820   1.330   7.071   1.879 -0.5500  0.1664  0.3910
  307SOL    HW2 1821   1.342   6.990   2.021  0.0521 -0.1801  0.1473
  308SOL     OW 1822   6.820   0.269   3.910  0.1366  0.3840  0.5628
  308SOL    HW1 1823   6.861   0.296   3.997  0.6974 -0.9916  0.7503
  308SOL    HW2 1824   6.723   0.293   3.910 -0.2024 -0.7805  2.1265
  309SOL     OW 1825   6.468   4.955   5.882 -0.1368  0.0069  0.5564
  309SOL    HW1 1826   6.407   4.899   5.938 -2.5712  1.5474 -0.3582
  309SOL    HW2 1827   6.446   4.940   5.785 -0.0758  1.6412  0.2639
  310SOL     OW 1828   4.335   6.342   1.046 -0.4915 -0.3026  0.1863
  310SOL    HW1 1829   4.428   6.378   1.060 -0.7863 -0.0737  1.7283
  310SOL    HW2 1830   4.312   6.347   0.949  1.0359 -0.1902 -0.1982
  311SOL     OW 1831   1.956   3.898   5.391  0.0537  0.1421  0.1457
  311SOL    HW1 1832   2.027   3.880   5.459 -0.3199 -0.1323  0.4678
  311SOL    HW2 1833   1.994   3.953   5.317  0.1409  1.6415  1.2372
  312SOL     OW 1834   0.563   0.567   1.654 -0.4512 -0.0123  0.2498
  312SOL    HW1 1835   0.564   0.645   1.592  0.6679 -0.4318 -0.2745
  312SOL    HW2 1836   0.475   0.565   1.702 -1.3968  0.2807 -1.3680
  313SOL     OW 1837   3.824   0.943   4.128  0.1510  0.3109 -0.1062
  313SOL    HW1 1838   3.824   0.877   4.203 -1.5862  1.4172  0.9345
  313SOL    HW2 1839   3.906   0.930   4.072  0.9187 -1.2915  1.3047
  314SOL     OW 1840   1.944   1.868   7.020 -0.1962 -0.1961 -0.2680
  314SOL    HW1 1841   2.027   1.919   6.997 -1.9532  2.3488 -1.4101
  314SOL    HW2 1842   1.908   1.901   7.107 -0.3981 -0.8141 -0.1097
  315SOL     OW 1843   5.437   3.575   3.947  0.1873 -0.1378  0.4616
  315SOL    HW1 1844   5.488   3.567   4.033 -0.0454 -1.7569  0.4709
  315SOL    HW2 1845   5.458   3.498   3.888 -1.5390 -0.3670  0.0815
  316SOL     OW 1846   1.413   3.940   5.953  0.4291 -0.3711  0.0756
  316SOL    HW1 1847   1.434   3.859   5.897  0.3871  1.3051 -2.5299
  316SOL    HW2 1848   1.497   3.973   5.995  0.7606 -0.7978 -0.2336
  317SOL     OW 1849   6.972   0.468   1.232  0.1313  0.8270 -0.1273
  317SOL    HW1 1850   6.901   0.417   1.281 -0.4898  2.3963  0.6766
  317SOL    HW2 1851   7.012   0.410   1.161 -3.0171  0.3250 -1.6778
  318SOL     OW 1852   6.124   2.319   0.073  0.4883 -0.4841 -0.4161
  318SOL    HW1 1853   6.062   2.243   0.092  0.8901 -0.2849  2.0759
  318SOL    HW2 1854   6.213   2.283   0.045  0.8084 -0.9892  1.1750
  319SOL     OW 1855   4.842   3.392   1.914 -0.0301 -0.9501 -0.7945
  319SOL    HW1 1856   4.823   3.439   1.828 -1.7059  0.2161  0.1648
  319SOL    HW2 1857   4.764   3.335   1.939  0.5613 -1.5133 -0.1674
  320SOL     OW 1858   4.357   3.386   0.969  0.4398  0.6448  0.6385
  320SOL    HW1 1859   4.440   3.413   0.921  0.9243 -1.1012  0.4355
  320SOL    HW2 1860   4.380   3.341   1.055 -0.2481 -0.3375  0.3320
  321SOL     OW 1861   4.707   0.810   6.066 -0.2448 -0.1673  0.9095
  321SOL    HW1 1862   4.798   0.836   6.033 -0.5553 -0.2301 -0.0384
  321SOL    HW2 1863   4.709   0.798   6.165  0.3247  1.7473  1.1716
  322SOL     OW 1864   2.568   4.142   0.136  0.2949 -0.1792 -0.0852
  322SOL    HW1 1865   2.557   4.051   0.177  0.7290 -0.4732 -0.6011
  322SOL    HW2 1866   2.484   4.194   0.148 -0.3575 -1.0426 -0.7231
  323SOL     OW 1867   3.184   6.327   0.104  0.0703 -0.4159 -0.1010
  323SOL    HW1 1868   3.123   6.362   0.033 -0.0108  0.3951  0.3647
  323SOL    HW2 1869   3.167   6.229   0.116 -1.3947 -0.1352  0.2707
  324SOL     OW 1870   3.278   7.013   1.740  0.2393  0.3117  0.1986
  324SOL    HW1 1871   3.282   6.917   1.713  0.6301  0.0954  1.0053
  324SOL    HW2 1872   3.326   7.069   1.672  2.3771 -0.3748  1.0470
  325SOL     OW 1873   1.123   6.424   3.818  0.0905  0.2223  0.0320
  325SOL    HW1 1874   1.119   6.336   3.867  1.2321 -0.0511 -0.3257
  325SOL    HW2 1875   1.202   6.476   3.850 -0.5679  1.1231  0.2233
  326SOL     OW 1876   3.296   4.043   1.640  0.1925 -0.1008 -0.3048
  326SOL    HW1 1877   3.205   4.074   1.613  0.0032 -0.0326  0.3988
  326SOL    HW2 1878   3.308   3.948   1.614 -0.0329 -0.0725 -0.5155
  327SOL     OW 1879   2.546   1.680   6.931  0.0336  0.2240 -0.5052
  327SOL    HW1 1880   2.560   1.753   6.998  1.7867  1.2496 -1.9003
  327SOL    HW2 1881   2.552   1.591   6.976  3.3190  0.8089  0.4566
  328SOL     OW 1882   4.651   6.204   5.568  0.1590  0.1554 -0.6651
  328SOL    HW1 1883   4.619   6.291   5.605  1.2582  0.8488 -1.2978
  328SOL    HW2 1884   4.728   6.220   5.507  1.1742 -1.3630  0.1501
  329SOL     OW 1885   5.046   4.078   1.359 -0.1958 -0.0740  0.5676
  329SOL    HW1 1886   4.950   4.065   1.336 -0.2262 -0.2639  0.7899
  329SOL    HW2 1887   5.090   3.989   1.369  0.1167  0.0158  0.0134
  330SOL     OW 1888   0.573   3.279   2.839  0.0995 -0.1988  0.0149
  330SOL    HW1 1889   0.546   3.183   2.854  0.1969 -0.4032 -1.0774
  330SOL    HW2 1890   0.582   3.297   2.741 -0.6695  1.1482  0.1711
  331SOL     OW 1891   3.425   0.727   0.745  0.5283 -0.1265  0.7632
  331SOL    HW1 1892   3.391   0.639   0.778 -0.0139 -0.7881 -1.3771
  331SOL    HW2 1893   3.518   0.742   0.779  0.5718 -1.4561  1.2792
  332SOL     OW 1894   5.720   6.434   6.701 -0.1542  0.6015  0.2692
  332SOL    HW1 1895   5.809   6.449   6.742 -0.0450 -0.1681  0.3198
  332SOL    HW2 1896   5.670   6.521   6.698  0.9736  1.2508 -0.6775
  333SOL     OW 1897   4.267   4.506   6.760 -0.0913 -0.0488  0.2028
  333SOL    HW1 1898   4.331   4.561   6.706 -0.3342 -0.5583 -0.6275
  333SOL    HW2 1899   4.275   4.410   6.734 -0.5964 -0.2327  0.7003
  334SOL     OW 1900   4.457   2.975   0.680 -0.1049 -0.7928 -0.3806
  334SOL    HW1 1901   4.541   3.021   0.649  0.4215 -1.2261  0.3703
  334SOL    HW2 1902   4.387   3.044   0.700 -0.0622 -0.4438 -1.3607
  335SOL     OW 1903   0.488   3.234   1.484  0.3203  0.0998  0.2662
  335SOL    HW1 1904   0.498   3.223   1.583  0.5410  0.5438  0.2962
  335SOL    HW2 1905   0.440   3.320   1.465  0.6223  0.2042 -0.0262
  336SOL     OW 1906   1.833   0.383   3.471 -0.6662  0.0790  0.7025
  336SOL    HW1 1907   1.894   0.331   3.531 -1.6095  0.0316  1.6419
  336SOL    HW2 1908   1.882   0.461   3.432  0.1685 -0.3235  0.9428
  337SOL     OW 1909   6.750   5.212   1.222  0.1429  0.0437 -0.1057
  337SOL    HW1 1910   6.705   5.128   1.254  0.3720 -0.3463 -0.7944
  337SOL    HW2 1911   6.843   5.216   1.259 -0.2313  0.5390  0.8073
  338SOL     OW 1912   2.171   0.453   2.686  0.0950 -0.1744 -0.3207
  338SOL    HW1 1913   2.136   0.360   2.692 -0.8454  0.2480  1.5089
  338SOL    HW2 1914   2.166   0.485   2.592 -1.8690 -1.1277 -0.5893
  339SOL     OW 1915   0.705   1.158   1.972 -0.7477  0.0582 -0.1992
  339SOL    HW1 1916   0.796   1.121   1.952 -0.8057 -0.5054  0.5448
  339SOL    HW2 1917   0.691   1.241   1.919 -0.2559 -0.4875 -1.2156
  340SOL     OW 1918   2.445   5.816   5.381  0.3884  0.6098  0.6854
  340SOL    HW1 1919   2.438   5.720   5.351 -0.5932  0.8358  0.1423
  340SOL    HW2 1920   2.357   5.861   5.369  0.8322  1.5796  0.9672
  341SOL     OW 1921   1.026   2.265   3.988  0.2560  0.1271 -0.0597
  341SOL    HW1 1922   1.079   2.337   3.943  0.4329 -0.8829 -1.5813
  341SOL    HW2 1923   0.945   2.304   4.031  1.2451  1.4405  0.6589
  342SOL     OW 1924   1.976   2.993   6.854  0.2215  0.5396  0.1066
  342SOL    HW1 1925   1.877   3.000   6.842  0.0046 -2.2312 -0.5435
  342SOL    HW2 1926   2.018   3.084   6.848 -2.1498  1.6503 -0.6795
  343SOL     OW 1927   0.923   3.179   4.885 -0.7167  0.1460 -0.1936
  343SOL    HW1 1928   0.918   3.082   4.862 -1.8364  0.8802 -3.6106
  343SOL    HW2 1929   0.848   3.202   4.947 -0.7169 -1.0666  0.2867
  344SOL     OW 1930   1.530   6.962   1.127  0.5587 -0.2620  0.2153
  344SOL    HW1 1931   1.504   7.054   1.155  0.0405 -0.0268 -0.9923
  344SOL    HW2 1932   1.554   6.962   1.030 -1.5136 -1.7869 -0.3687
  345SOL     OW 1933   1.165   4.971   3.787 -0.2109 -0.1258 -0.3170
  345SOL    HW1 1934   1.242   4.916   3.757 -0.8156 -0.7365 -0.7823
  345SOL    HW2 1935   1.130   4.934   3.874 -0.3046 -0.1661 -0.3723
  346SOL     OW 1936   0.719   3.179   0.912  0.0891  0.3604  0.4618
  346SOL    HW1 1937   0.716   3.272   0.949  1.1029  0.6519 -0.1610
  346SOL    HW2 1938   0.630   3.155   0.873  0.2281  1.5996 -0.6490
  347SOL     OW 1939   1.927   3.373   1.511  0.3665  0.5679 -0.2399
  347SOL    HW1 1940   1.855   3.416   1.456  1.3118  1.1492 -1.0789
  347SOL    HW2 1941   1.908   3.386   1.608 -0.5489  0.8965 -0.4569
  348SOL     OW 1942   5.249   0.490   3.105  0.0944 -0.0918  0.0302
  348SOL    HW1 1943   5.151   0.471   3.098  0.2957 -0.6941 -1.5507
  348SOL    HW2 1944   5.279   0.541   3.024  1.3640 -1.2620 -0.2736
  349SOL     OW 1945   0.563   4.638   1.103  0.4870 -0.0134 -0.6418
  349SOL    HW1 1946   0.537   4.602   1.014  0.8616 -2.2937  0.0998
  349SOL    HW2 1947   0.484   4.680   1.147  0.4414  1.7137 -2.2553
  350SOL     OW 1948   5.945   6.313   3.149 -0.1791 -0.4077  0.3147
  350SOL    HW1 1949   5.871   6.290   3.212  0.4264 -0.4542  1.0079
  350SOL    HW2 1950   6.006   6.380   3.191 -1.6771  2.3084 -1.4936
  351SOL     OW 1951   3.204   0.634   0.405 -0.0452 -0.0966  0.2511
  351SOL    HW1 1952   3.218   0.535   0.405 -1.4132 -0.3124 -1.1249
  351SOL    HW2 1953   3.136   0.658   0.475 -0.2899 -0.2256  0.0590
  352SOL     OW 1954   5.795   3.269   4.250  0.4646 -0.3815  0.6758
  352SOL    HW1 1955   5.806   3.183   4.300  2.9851  0.1900  1.2405
  352SOL    HW2 1956   5.766   3.341   4.314 -1.1032 -0.6544  0.3091
  353SOL     OW 1957   1.759   6.199   0.164 -0.6820  0.1256 -0.5363
  353SOL    HW1 1958   1.737   6.218   0.069 -1.4836 -0.3785 -0.4605
  353SOL    HW2 1959   1.711   6.116   0.194 -1.4222  0.9493  0.6511
  354SOL     OW 1960   1.699   4.575   2.618  0.4344  0.5609  0.2622
  354SOL    HW1 1961   1.690   4.675   2.620 -0.9269  0.4999 -0.8717
  354SOL    HW2 1962   1.659   4.541   2.533  1.4471 -0.9169  0.3450
  355SOL     OW 1963   5.635   2.622   1.336  0.3250  0.9129 -0.4405
  355SOL    HW1 1964   5.575   2.703   1.343  0.0992  0.7836 -0.8436
  355SOL    HW2 1965   5.697   2.621   1.413 -0.2369  1.0193  0.0229
  356SOL     OW 1966   4.843   6.340   3.652 -0.2402  0.3288  0.4505
  356SOL    HW1 1967   4.849   6.420   3.592 -2.4068  0.9754  0.9978
  356SOL    HW2 1968   4.791   6.364   3.734  1.3821 -0.9375  1.9368
  357SOL     OW 1969   6.885   1.084   3.576  0.3253 -0.0966  0.4470
  357SOL    HW1 1970   6.866   1.012   3.509 -0.3112  0.7541 -0.3038
  357SOL    HW2 1971   6.984   1.103   3.578  0.6189 -1.5319  1.2452
  358SOL     OW 1972   2.062   4.726   0.973  0.0193 -0.4746  0.7104
  358SOL    HW1 1973   2.043   4.648   0.913  1.2897  0.8735 -1.5980
  358SOL    HW2 1974   2.153   4.716   1.013  1.3597  0.9782 -1.7467
  359SOL     OW 1975   0.124   2.650   2.228 -0.2570  0.8418  0.0372
  359SOL    HW1 1976   0.220   2.636   2.249  0.2036  2.0791 -1.0987
  359SOL    HW2 1977   0.084   2.566   2.192  0.5619  0.5089 -0.0957
  360SOL     OW 1978   6.896   4.736   5.926 -0.1066  0.1442 -0.3376
  360SOL    HW1 1979   6.827   4.800   5.959 -0.7177 -0.7896  0.2479
  360SOL    HW2 1980   6.861   4.643   5.933  0.5827 -0.2332 -1.6286
  361SOL     OW 1981   4.079   6.016   0.490 -0.4109  0.7538  0.1853
  361SOL    HW1 1982   4.131   6.005   0.405 -1.0794 -0.0245 -0.1357
  361SOL    HW2 1983   4.089   5.934   0.546 -0.6747  0.9100  0.4641
  362SOL     OW 1984   3.959   0.297   0.078  0.2400  0.1315 -1.2161
  362SOL    HW1 1985   3.972   0.220   0.015 -0.6466 -1.0109 -0.0684
  362SOL    HW2 1986   3.981   0.267   0.171 -2.9333  0.2950 -0.2782
  363SOL     OW 1987   3.174   3.091   4.224 -0.5198 -0.8175 -0.0093
  363SOL    HW1 1988   3.214   3.143   4.300 -1.5631 -0.6699  0.4634
  363SOL    HW2 1989   3.100   3.145   4.184  0.2142 -0.7688 -1.3430
  364SOL     OW 1990   6.835   2.311   1.348  0.1032 -0.3115  0.5468
  364SOL    HW1 1991   6.762   2.363   1.392 -1.6689 -1.0853 -1.3300
  364SOL    HW2 1992   6.806   2.282   1.257  1.7579 -2.8792  0.7093
  365SOL     OW 1993   1.892   1.917   4.315  0.4196 -0.1656 -0.1958
  365SOL    HW1 1994   1.864   1.838   4.369  2.3857 -0.7114  0.1220
  365SOL    HW2 1995   1.872   2.001   4.366 -0.2027 -0.5419  0.1878
  366SOL     OW 1996   1.373   1.177   5.270  0.2865  0.1169 -0.0197
  366SOL    HW1 1997   1.296   1.168   5.206  0.2786  0.6396 -0.0856
  366SOL    HW2 1998   1.342   1.223   5.353  0.5246  0.3222 -0.0437
  367SOL     OW 1999   5.562   2.417   2.730 -0.4918  0.2917 -0.3264
  367SOL    HW1 2000   5.484   2.457   2.681  1.4408  2.1957 -2.0366
  367SOL    HW2 2001   5.643   2.420   2.672  0.5341 -3.3871  0.6814
  368SOL     OW 2002   0.490   5.194   5.793 -0.4436  0.1981  0.1592
  368SOL    HW1 2003   0.533   5.279   5.760 -1.5365  0.2452 -1.2213
  368SOL    HW2 2004   0.411   5.217   5.850 -1.1296  0.1347 -0.7431
  369SOL     OW 2005   5.590   2.863   3.446 -0.3288 -0.2232 -0.5476
  369SOL    HW1 2006   5.652   2.860   3.368  0.6480 -1.5728  0.2403
  369SOL    HW2 2007   5.613   2.790   3.510 -0.3991  1.4856  1.5506
  370SOL     OW 2008   2.224   0.087   4.080  0.1493  0.0930  0.6012
  370SOL    HW1 2009   2.204   0.182   4.103  1.9387  0.2738  1.5282
  370SOL    HW2 2010   2.319   0.078   4.053 -0.0533 -1.4111  0.3077
  371SOL     OW 2011   3.361   0.301   4.959  0.0009 -0.2138  0.1342
  371SOL    HW1 2012   3.292   0.365   4.926  0.5380 -0.0036 -0.6266
  371SOL    HW2 2013   3.412   0.342   5.035 -0.2653 -0.1069  0.2556
  372SOL     OW 2014   2.810   0.662   1.750  0.4144  0.5362 -0.0185
  372SOL    HW1 2015   2.884   0.695   1.809  1.7174 -2.9719  0.6061
  372SOL    HW2 2016   2.845   0.647   1.658  0.3320 -0.3807  0.0823
  373SOL     OW 2017   1.614   5.929   0.262  0.5285  0.0782  0.3479
  373SOL    HW1 2018   1.661   5.842   0.244 -1.3471 -0.8710 -0.2570
  373SOL    HW2 2019   1.541   5.941   0.195 -1.3247  0.5309  2.3484
  374SOL     OW 2020   4.498   6.204   6.191  0.3919  0.1376 -0.2686
  374SOL    HW1 2021   4.581   6.259   6.204 -0.6154  1.8993 -0.9194
  374SOL    HW2 2022   4.465   6.172   6.280  2.1122 -1.1724 -0.0556
  375SOL     OW 2023   2.477   1.602   1.047  0.0833  0.1310  0.3116
  375SOL    HW1 2024   2.571   1.574   1.030  0.8207  0.6469  3.0781
  375SOL    HW2 2025   2.417   1.522   1.048  0.6260 -0.2979 -0.5959
  376SOL     OW 2026   2.674   5.950   3.388  0.3712  0.1688 -0.2770
  376SOL    HW1 2027   2.626   5.863   3.389  2.4169 -1.0277  0.2455
  376SOL    HW2 2028   2.718   5.963   3.298  0.7615  0.2389 -0.0801
  377SOL     OW 2029   3.232   2.671   0.603  0.0709  0.6666  0.4953
  377SOL    HW1 2030   3.319   2.655   0.650  0.1060  0.1361  0.2524
  377SOL    HW2 2031   3.248   2.730   0.524  0.6154 -1.1697 -0.8434
  378SOL     OW 2032   1.927   3.753   3.035 -0.6768 -0.0934 -0.2491
  378SOL    HW1 2033   1.877   3.763   2.949 -0.5843  3.2823 -0.0773
  378SOL    HW2 2034   1.867   3.774   3.112  0.0497  0.3103  0.2293
  379SOL     OW 2035   5.929   1.683   5.903 -0.4692 -0.3165 -0.3982
  379SOL    HW1 2036   6.011   1.738   5.888  0.7151 -0.9690  2.8721
  379SOL    HW2 2037   5.950   1.587   5.885 -1.4928 -0.2117 -2.5260
  380SOL     OW 2038   2.717   1.235   0.447 -0.3890 -0.5706 -0.3087
  380SOL    HW1 2039   2.627   1.246   0.403 -0.0840 -0.9234 -1.0325
  380SOL    HW2 2040   2.738   1.317   0.500 -0.4031  0.2333 -1.4936
  381SOL     OW 2041   4.520   4.208   0.972  0.4621  0.2010  0.3545
  381SOL    HW1 2042   4.445   4.239   0.913 -0.0434 -0.4831  0.6173
  381SOL    HW2 2043   4.575   4.287   1.000 -0.7108  0.8629  0.9126
  382SOL     OW 2044   3.318   3.777   4.061 -0.7071  0.3897 -0.5241
  382SOL    HW1 2045   3.365   3.727   4.134 -1.4223  0.1291 -0.2327
  382SOL    HW2 2046   3.385   3.825   4.005 -0.0332 -0.6292 -0.6063
  383SOL     OW 2047   1.223   1.863   0.408 -0.1994  0.1695 -0.4251
  383SOL    HW1 2048   1.226   1.826   0.315  1.2211 -0.3192 -0.2001
  383SOL    HW2 2049   1.192   1.792   0.471  3.7901 -1.2625  0.2129
  384SOL     OW 2050   3.017   1.290   2.875 -0.1690 -0.0163  0.2728
  384SOL    HW1 2051   3.080   1.226   2.920  0.7826  1.2316  0.7837
  384SOL    HW2 2052   2.942   1.239   2.834  0.3687 -1.4290  0.9623
  385SOL     OW 2053   5.345   2.539   2.636 -0.2016 -0.5242 -0.5202
  385SOL    HW1 2054   5.278   2.537   2.710 -0.5749 -1.0294 -0.8599
  385SOL    HW2 2055   5.298   2.555   2.549  0.2027 -0.1865 -0.6806
  386SOL     OW 2056   5.988   5.955   2.126  0.2059 -0.2103 -0.1280
  386SOL    HW1 2057   5.934   5.896   2.066  0.0177 -0.4105  0.2373
  386SOL    HW2 2058   5.967   5.935   2.222 -0.0286  0.5982  0.0008
  387SOL     OW 2059   6.570   0.936   4.277  0.0169 -0.4045 -0.1589
  387SOL    HW1 2060   6.646   0.968   4.333  0.0970 -1.0190  0.0982
  387SOL    HW2 2061   6.503   0.890   4.335 -0.6971  0.3881 -0.3449
  388SOL     OW 2062   4.209   1.934   6.095 -0.2922  0.4202 -0.3317
  388SOL    HW1 2063   4.154   1.995   6.152 -2.6978 -1.9199  0.0033
  388SOL    HW2 2064   4.283   1.894   6.150 -0.4495  0.8264  0.1865
  389SOL     OW 2065   4.127   3.530   1.634 -0.0023 -0.0452 -0.0833
  389SOL    HW1 2066   4.027   3.532   1.638  0.0033  0.4837 -0.1293
  389SOL    HW2 2067   4.159   3.596   1.567  0.3253 -1.2454 -1.1460
  390SOL     OW 2068   2.274   0.226   2.369 -0.7619  0.0085  0.2062
  390SOL    HW1 2069   2.326   0.245   2.286  0.5123  0.8268  1.1377
  390SOL    HW2 2070   2.337   0.191   2.440 -0.5787  4.3233  2.5399
  391SOL     OW 2071   4.896   6.549   3.133  0.4761 -0.2828  0.0442
  391SOL    HW1 2072   4.933   6.569   3.043  0.0622  0.1546 -0.0339
  391SOL    HW2 2073   4.808   6.595   3.144  0.3629 -0.6056  0.5455
  392SOL     OW 2074   2.323   1.411   0.839 -0.0682 -0.7940  0.4611
  392SOL    HW1 2075   2.354   1.378   0.928 -1.0314 -0.4818  0.9250
  392SOL    HW2 2076   2.252   1.481   0.852  1.9702  1.6139 -0.4432
  393SOL     OW 2077   6.383   4.096   4.776 -0.3493 -0.3423 -1.0734
  393SOL    HW1 2078   6.381   4.132   4.683  0.4839 -0.3326 -1.0944
  393SOL    HW2 2079   6.446   4.018   4.780  0.3075  0.2140 -0.3256
  394SOL     OW 2080   6.428   4.586   5.760  0.0323  0.0781  0.4334
  394SOL    HW1 2081   6.446   4.552   5.852  2.6178  1.2796  0.4614
  394SOL    HW2 2082   6.332   4.571   5.737 -0.1073 -2.5810  2.2935
  395SOL     OW 2083   2.316   4.259   0.791 -0.7333  0.3210  0.3942
  395SOL    HW1 2084   2.407   4.226   0.765 -1.1242 -0.0452 -0.5667
  395SOL    HW2 2085   2.246   4.195   0.758 -1.3264  0.3403  1.5544
  396SOL     OW 2086   5.082   0.194   3.921 -0.0460  0.0544 -0.0918
  396SOL    HW1 2087   5.173   0.155   3.908 -0.3786 -0.5632 -0.6271
  396SOL    HW2 2088   5.026   0.177   3.840  0.1436  2.6953 -0.8657
  397SOL     OW 2089   6.837   4.853   2.840  0.2080  0.2999  0.3533
  397SOL    HW1 2090   6.807   4.944   2.811  1.1525  0.6913  0.5801
  397SOL    HW2 2091   6.759   4.790   2.837  0.0836  0.4602 -2.3905
  398SOL     OW 2092   2.909   6.353   3.455 -0.2060 -0.0056  0.2754
  398SOL    HW1 2093   3.004   6.343   3.485 -0.2641  1.0318  0.8457
  398SOL    HW2 2094   2.872   6.439   3.490 -1.5511 -0.6848  0.5735
  399SOL     OW 2095   6.486   1.044   3.614  0.0676 -0.0021  0.4197
  399SOL    HW1 2096   6.433   1.120   3.575  0.1559 -0.0733  0.1583
  399SOL    HW2 2097   6.553   1.080   3.679  0.9379  0.2768 -0.5997
  400SOL     OW 2098   5.947   5.101   1.015 -0.0961 -0.4362 -0.8797
  400SOL    HW1 2099   6.005   5.088   0.935  0.0042 -2.2755 -0.5425
  400SOL    HW2 2100   5.858   5.135   0.986  0.5444  0.7573 -1.5572
  401SOL     OW 2101   6.165   3.846   1.759  0.2718 -0.1060 -0.2016
  401SOL    HW1 2102   6.098   3.782   1.721  1.3344 -1.0392 -0.5422
  401SOL    HW2 2103   6.131   3.939   1.748 -1.8323 -0.6095  1.2968
  402SOL     OW 2104   4.452   5.503   5.152 -0.7155 -0.3131  0.3689
  402SOL    HW1 2105   4.379   5.437   5.171 -0.7638  0.0395  1.4687
  402SOL    HW2 2106   4.527   5.456   5.104 -0.3929 -1.3887  1.8462
  403SOL     OW 2107   0.327   1.681   1.212  0.7023 -0.3113  1.1241
  403SOL    HW1 2108   0.389   1.725   1.147 -0.2675  0.4019  0.6548
  403SOL    HW2 2109   0.369   1.681   1.303  1.3922  0.1545  0.8107
  404SOL     OW 2110   3.902   0.979   5.869  0.3645  0.7001 -0.2164
  404SOL    HW1 2111   3.878   1.068   5.907 -0.8838  0.2586  0.0941
  404SOL    HW2 2112   3.820   0.923   5.861  0.6682  0.4958 -2.9122
  405SOL     OW 2113   1.392   4.816   3.026 -0.6622 -0.1791 -0.7291
  405SOL    HW1 2114   1.341   4.861   3.098 -2.3363 -0.3446 -1.7515
  405SOL    HW2 2115   1.473   4.870   3.003 -0.6991  0.4266  0.4943
  406SOL     OW 2116   5.731   3.543   3.811 -0.1180 -0.1188 -0.0410
  406SOL    HW1 2117   5.776   3.485   3.879 -1.3490 -1.4157 -0.2759
  406SOL    HW2 2118   5.651   3.496   3.775  0.3993  0.5795 -2.3072
  407SOL     OW 2119   5.501   1.171   3.180  0.0455 -0.3937 -0.2212
  407SOL    HW1 2120   5.540   1.093   3.132 -0.5291 -1.0866  0.4152
  407SOL    HW2 2121   5.530   1.169   3.276 -1.5292 -0.9310  0.2706
  408SOL     OW 2122   6.665   0.057   5.520 -0.5056 -0.0928 -0.9585
  408SOL    HW1 2123   6.660   0.031   5.424  0.7926 -2.7031 -0.3872
  408SOL    HW2 2124   6.680  -0.024   5.576  1.0655  1.6145  1.2465
  409SOL     OW 2125   5.765   0.250   1.914 -0.2848 -0.1565 -0.0921
  409SOL    HW1 2126   5.732   0.173   1.969  0.5883 -0.7190 -0.3410
  409SOL    HW2 2127   5.798   0.217   1.826  2.3821  0.1078  0.6997
  410SOL     OW 2128   0.681   2.450   3.237  0.4505 -0.1450 -0.3436
  410SOL    HW1 2129   0.721   2.493   3.318  0.1488  0.1690 -0.3610
  410SOL    HW2 2130   0.729   2.364   3.219  2.6246  1.2425 -1.6617
  411SOL     OW 2131   5.971   5.253   2.799  0.1316 -0.0671  0.2894
  411SOL    HW1 2132   6.032   5.289   2.727  1.4331  0.0070  1.3893
  411SOL    HW2 2133   6.006   5.281   2.888 -2.4977  1.4587  0.9442
  412SOL     OW 2134   0.875   3.085   1.635  0.5646 -0.3573 -0.6402
  412SOL    HW1 2135   0.938   3.072   1.711  0.9085 -2.5052 -1.2303
  412SOL    HW2 2136   0.925   3.115   1.554  0.3273  1.0608 -0.2814
  413SOL     OW 2137   5.810   0.019   6.899  0.0419 -0.1483 -0.4222
  413SOL    HW1 2138   5.774   0.002   6.808 -0.3693 -0.7019 -0.1584
  413SOL    HW2 2139   5.788  -0.058   6.959 -0.7828  0.7682  0.4722
  414SOL     OW 2140   1.022   0.981   3.687 -1.0450  0.1996  0.0981
  414SOL    HW1 2141   1.122   0.986   3.693 -1.1222  0.8691  1.1821
  414SOL    HW2 2142   0.987   0.930   3.765 -1.5420 -0.2576 -0.4207
  415SOL     OW 2143   1.514   4.426   6.914 -0.2467  0.8205 -0.4321
  415SOL    HW1 2144   1.512   4.424   7.014 -0.5154 -0.6331 -0.4451
  415SOL    HW2 2145   1.422   4.443   6.880 -0.2045  1.0435 -0.4343
  416SOL     OW 2146   2.277   3.880   0.811 -0.2702 -0.1598 -1.2391
  416SOL    HW1 2147   2.192   3.932   0.808  0.9099  2.0414  0.3001
  416SOL    HW2 2148   2.330   3.898   0.728 -0.6780 -0.3960 -1.5531
  417SOL     OW 2149   3.468   3.500   1.858  0.3327  0.2473  0.7577
  417SOL    HW1 2150   3.434   3.451   1.939 -0.6137 -1.1698 -0.4518
  417SOL    HW2 2151   3.416   3.585   1.847 -1.2781 -0.7461  0.2779
  418SOL     OW 2152   6.977   6.828   4.315 -0.3182 -0.3048 -0.9520
  418SOL    HW1 2153   6.929   6.909   4.281 -0.4836  0.2060  0.4012
  418SOL    HW2 2154   6.971   6.826   4.415  1.8200 -0.6293 -0.7769
  419SOL     OW 2155   5.172   1.003   0.514 -0.2625  0.0086 -0.2259
  419SOL    HW1 2156   5.107   0.954   0.455 -0.6000  1.2711 -0.9328
  419SOL    HW2 2157   5.170   0.963   0.605 -2.2659  0.1905 -0.1457
  420SOL     OW 2158   0.972   0.399   3.440 -0.0673 -0.5765 -0.5086
  420SOL    HW1 2159   0.994   0.306   3.468 -0.7636 -0.2595  1.2313
  420SOL    HW2 2160   0.971   0.458   3.520  0.8660  1.0600 -1.6409
  421SOL     OW 2161   0.295   1.727   6.387  0.4299 -0.0878  0.1805
  421SOL    HW1 2162   0.249   1.640   6.368  0.3127 -0.0852  0.4492
  421SOL    HW2 2163   0.380   1.732   6.335  0.3119 -0.2554 -0.0279
  422SOL     OW 2164   5.963   0.769   2.051  0.1578  0.2088 -0.4771
  422SOL    HW1 2165   5.947   0.740   1.957  1.3408 -0.2360 -0.5572
  422SOL    HW2 2166   6.055   0.741   2.080 -0.8597 -1.4245  1.4741
  423SOL     OW 2167   2.891   6.988   0.205 -0.0003  0.1086 -0.2746
  423SOL    HW1 2168   2.794   6.966   0.190 -0.3131  1.0446  0.2776
  423SOL    HW2 2169   2.913   6.980   0.302  0.3553  0.3691 -0.3326
  424SOL     OW 2170   4.431   0.690   4.465 -0.6285  0.3199  0.2924
  424SOL    HW1 2171   4.451   0.592   4.476  0.4694  0.4769 -0.1655
  424SOL    HW2 2172   4.508   0.734   4.418 -0.7959  1.5357  1.1243
  425SOL     OW 2173   6.722   2.965   0.923  0.6137  0.0873  0.2266
  425SOL    HW1 2174   6.687   2.883   0.877  1.0981  1.2627 -2.3979
  425SOL    HW2 2175   6.739   3.037   0.856  2.7038  1.5005  2.1150
  426SOL     OW 2176   6.494   6.942   0.434  0.9577  0.0163  0.3276
  426SOL    HW1 2177   6.413   6.984   0.393  1.7734  1.7657  0.4563
  426SOL    HW2 2178   6.571   6.948   0.372  1.8052  1.2887  1.4468
  427SOL     OW 2179   5.846   0.969   6.296 -0.6216 -0.2215  0.1427
  427SOL    HW1 2180   5.872   1.060   6.329 -1.7559  0.3100 -0.3803
  427SOL    HW2 2181   5.759   0.974   6.248  0.2229 -1.2371 -1.6092
  428SOL     OW 2182   4.594   5.907   6.730 -0.0416 -0.2422 -0.3011
  428SOL    HW1 2183   4.644   5.826   6.761 -1.0780 -0.5040  0.7662
  428SOL    HW2 2184   4.658   5.973   6.691  0.8614 -1.4282 -0.8769
  429SOL     OW 2185   5.474   1.368   3.515 -0.1209  0.8796  0.8101
  429SOL    HW1 2186   5.390   1.324   3.549  0.3448 -1.7392 -1.1355
  429SOL    HW2 2187   5.456   1.411   3.427  0.2938  1.4979  1.0206
  430SOL     OW 2188   6.565   1.958   6.392  0.0191  0.5499  0.7944
  430SOL    HW1 2189   6.646   2.013   6.411  0.2925  0.1399  0.8156
  430SOL    HW2 2190   6.512   2.001   6.319  1.5286 -0.4469 -0.9537
  431SOL     OW 2191   1.994   2.780   4.051  0.3833  0.4599 -0.0305
  431SOL    HW1 2192   1.962   2.872   4.026 -0.5915  0.3528  0.7519
  431SOL    HW2 2193   2.042   2.784   4.138 -0.6618  0.0750  0.5847
  432SOL     OW 2194   6.958   4.030   6.077 -0.0859  0.0100  0.4282
  432SOL    HW1 2195   7.049   3.992   6.093  0.5330  0.5260 -1.5247
  432SOL    HW2 2196   6.951   4.119   6.121 -0.1911 -0.6649  1.8187
  433SOL     OW 2197   5.560   6.873   5.705  0.6301 -0.1569 -0.0598
  433SOL    HW1 2198   5.462   6.893   5.702  0.6302  0.1708  1.2974
  433SOL    HW2 2199   5.604   6.933   5.772  1.9140  0.2615 -1.2353
  434SOL     OW 2200   2.166   2.131   5.710  0.1951  0.6482 -0.0234
  434SOL    HW1 2201   2.107   2.071   5.765 -0.5187  0.9705 -0.4230
  434SOL    HW2 2202   2.110   2.201   5.666  0.6882  0.1090 -1.5555
  435SOL     OW 2203   3.805   5.156   3.471  0.0468  0.3677 -0.5716
  435SOL    HW1 2204   3.798   5.203   3.559  1.3573  0.9717 -0.7823
  435SOL    HW2 2205   3.820   5.058   3.487  4.1746  0.9253  0.0309
  436SOL     OW 2206   1.256   6.347   5.075  0.2008  0.3745 -0.2105
  436SOL    HW1 2207   1.200   6.287   5.132  1.4463  0.5953  1.3019
  436SOL    HW2 2208   1.234   6.332   4.979 -2.5991  0.6298  0.3174
  437SOL     OW 2209   4.651   5.592   3.491 -0.2850  0.5981 -0.0304
  437SOL    HW1 2210   4.598   5.531   3.432 -0.0642 -0.7228  1.1048
  437SOL    HW2 2211   4.615   5.685   3.483 -2.8128 -0.2420  0.6887
  438SOL     OW 2212   3.440   3.991   5.669  0.0936  0.4886  0.0182
  438SOL    HW1 2213   3.452   4.066   5.604  0.6236  0.5004  0.1251
  438SOL    HW2 2214   3.499   3.914   5.641 -0.2531  0.2069  0.0525
  439SOL     OW 2215   5.826   1.601   6.645 -0.2506 -0.5774 -0.1722
  439SOL    HW1 2216   5.862   1.658   6.720 -0.5833 -0.7812  0.1437
  439SOL    HW2 2217   5.757   1.538   6.681 -0.4282 -0.6623 -0.6559
  440SOL     OW 2218   3.212   6.899   2.074  0.1870  0.3248 -0.0490
  440SOL    HW1 2219   3.145   6.944   2.015  1.3703 -0.3457 -1.9926
  440SOL    HW2 2220   3.279   6.966   2.105  0.6158  0.3746 -1.0316
  441SOL     OW 2221   6.211   6.715   6.444 -0.2466  0.4718 -0.1774
  441SOL    HW1 2222   6.226   6.792   6.382  2.2479  0.4213  0.2484
  441SOL    HW2 2223   6.251   6.735   6.533 -1.4865 -0.4787  0.6155
  442SOL     OW 2224   5.157   4.427   1.522  0.5630  0.0722 -0.4293
  442SOL    HW1 2225   5.135   4.518   1.554  0.6376  0.1166 -0.5037
  442SOL    HW2 2226   5.091   4.361   1.560  0.8885  0.0665  0.1333
  443SOL     OW 2227   6.488   6.356   1.179 -0.0813 -0.0493  0.4417
  443SOL    HW1 2228   6.478   6.451   1.207  0.1686  0.3695 -0.8194
  443SOL    HW2 2229   6.561   6.312   1.232  2.3237  1.5102 -1.3932
  444SOL     OW 2230   3.399   2.915   3.624  0.3007 -0.1506  0.2320
  444SOL    HW1 2231   3.423   3.008   3.598 -0.0497 -0.0029  0.4226
  444SOL    HW2 2232   3.312   2.890   3.582 -0.1151 -0.0202  0.9859
  445SOL     OW 2233   0.303   3.441   1.676  0.1353  0.3427  0.0438
  445SOL    HW1 2234   0.318   3.449   1.775  1.5052 -0.5822 -0.0621
  445SOL    HW2 2235   0.245   3.362   1.657  1.5709 -0.7463  0.0179
  446SOL     OW 2236   1.425   4.490   4.934 -0.1720 -0.3731 -0.6285
  446SOL    HW1 2237   1.519   4.518   4.913  0.2524 -0.7552  0.6535
  446SOL    HW2 2238   1.427   4.404   4.985 -1.2314 -0.4435 -0.6936
  447SOL     OW 2239   6.033   0.389   4.134  0.1151 -0.4623 -0.0764
  447SOL    HW1 2240   6.106   0.357   4.074  2.7230  0.5508  2.2793
  447SOL    HW2 2241   6.047   0.486   4.154 -2.0420 -0.1828  0.3073
  448SOL     OW 2242   4.681   2.756   4.482  0.3165 -0.1331 -0.2273
  448SOL    HW1 2243   4.666   2.702   4.399  0.0850  0.5460 -0.6404
  448SOL    HW2 2244   4.716   2.846   4.457 -0.2097  0.2492  0.3764
  449SOL     OW 2245   1.543   6.962   0.846 -0.3893  0.2037  0.0469
  449SOL    HW1 2246   1.604   7.038   0.825  0.6156 -0.0769  1.7235
  449SOL    HW2 2247   1.457   6.973   0.796 -0.2907  2.4491  0.2718
  450SOL     OW 2248   0.373   6.723   0.781  0.1142  0.0287  0.3966
  450SOL    HW1 2249   0.282   6.737   0.819 -1.4034 -1.3277 -2.4539
  450SOL    HW2 2250   0.403   6.630   0.799 -0.7085 -0.6976 -1.6840
  451SOL     OW 2251   4.276   5.278   3.001  0.2057 -0.3426  0.1135
  451SOL    HW1 2252   4.334   5.253   2.924  0.1577 -1.3257  0.3821
  451SOL    HW2 2253   4.195   5.218   3.003  0.2634 -0.4105  0.9836
  452SOL     OW 2254   0.335   6.152   1.673 -0.5413 -1.0448 -0.1784
  452SOL    HW1 2255   0.268   6.181   1.741  1.1185 -1.7981  1.8958
  452SOL    HW2 2256   0.402   6.225   1.658  0.1485 -1.5312  0.4336
  453SOL     OW 2257   0.405   6.315   3.949 -0.5278 -0.0002  0.2720
  453SOL    HW1 2258   0.466   6.348   3.877  1.3521 -3.3084  0.1527
  453SOL    HW2 2259   0.429   6.358   4.036  1.3117 -0.4281  0.0117
  454SOL     OW 2260   3.064   1.418   2.462 -0.1228 -0.2852  0.2590
  454SOL    HW1 2261   3.130   1.436   2.535  0.2127  0.3458 -0.1853
  454SOL    HW2 2262   2.975   1.400   2.502  0.0897 -0.0943  0.8370
  455SOL     OW 2263   6.464   4.333   2.728  0.1255 -0.0353 -0.1850
  455SOL    HW1 2264   6.485   4.251   2.781 -1.8856 -1.5195 -1.5219
  455SOL    HW2 2265   6.427   4.403   2.789 -0.2760 -0.9690  0.6939
  456SOL     OW 2266   5.259   2.203   4.729 -0.3702 -0.2104  0.0661
  456SOL    HW1 2267   5.302   2.271   4.787 -0.7321  0.0289  0.0592
  456SOL    HW2 2268   5.293   2.112   4.752 -0.4933 -0.1117  0.6338
  457SOL     OW 2269   2.908   5.373   1.174  0.0467 -0.1127  0.4937
  457SOL    HW1 2270   2.988   5.355   1.232 -0.5405  0.4238  1.4976
  457SOL    HW2 2271   2.917   5.464   1.133 -0.3318  0.1898  1.0834
  458SOL     OW 2272   4.393   3.768   6.272  0.1850 -0.2763  0.0654
  458SOL    HW1 2273   4.407   3.693   6.337  0.4576  0.1591  0.5122
  458SOL    HW2 2274   4.472   3.776   6.212  0.8784  0.6983  1.0845
  459SOL     OW 2275   0.374   3.716   0.863 -0.7851 -0.2515 -0.0425
  459SOL    HW1 2276   0.322   3.661   0.797  0.2959 -1.7685  0.3009
  459SOL    HW2 2277   0.472   3.706   0.845 -0.5278  0.5693  0.8283
  460SOL     OW 2278   4.228   0.077   2.315 -0.2328  0.5017 -0.3712
  460SOL    HW1 2279   4.196   0.132   2.238 -0.6467  0.6252 -0.1104
  460SOL    HW2 2280   4.224   0.130   2.399  0.3667  0.4160 -0.2860
  461SOL     OW 2281   2.875   0.760   4.440  0.1193  0.1418  0.5940
  461SOL    HW1 2282   2.781   0.776   4.410 -0.3596 -1.8695  0.8815
  461SOL    HW2 2283   2.874   0.718   4.531  1.1348 -2.2870 -0.4382
  462SOL     OW 2284   4.248   2.292   4.117 -0.2074 -0.3226 -0.2172
  462SOL    HW1 2285   4.202   2.294   4.028  0.4069  1.5448 -0.5353
  462SOL    HW2 2286   4.182   2.313   4.189 -0.1340  1.0679 -0.5422
  463SOL     OW 2287   6.254   4.079   1.247  0.1567  0.3086 -0.0126
  463SOL    HW1 2288   6.179   4.144   1.241  1.5381  1.9171 -0.6297
  463SOL    HW2 2289   6.323   4.112   1.312  0.2292 -1.2879  0.7905
  464SOL     OW 2290   2.582   0.176   0.072 -0.8483 -0.2623  0.0031
  464SOL    HW1 2291   2.608   0.273   0.076  0.0361 -0.5409  2.3409
  464SOL    HW2 2292   2.490   0.164   0.109 -1.7544 -0.1425 -2.0474
  465SOL     OW 2293   1.333   2.843   5.840 -0.7265  0.1989  0.1496
  465SOL    HW1 2294   1.276   2.797   5.908  0.5184 -1.8684 -0.1251
  465SOL    HW2 2295   1.378   2.921   5.882 -2.1697  0.6783  0.8913
  466SOL     OW 2296   5.154   2.512   2.180 -0.9478 -0.1823 -0.1123
  466SOL    HW1 2297   5.132   2.415   2.190 -3.2531  0.3348  0.3387
  466SOL    HW2 2298   5.147   2.538   2.084  1.2601 -0.7537 -0.4855
  467SOL     OW 2299   1.570   2.093   2.739 -0.4112 -0.3456 -0.0634
  467SOL    HW1 2300   1.517   2.165   2.783  0.1262 -1.2848  2.2700
  467SOL    HW2 2301   1.541   2.004   2.773 -1.4187 -1.3706 -3.2654
  468SOL     OW 2302   4.195   5.421   4.339  0.1380 -0.0172 -0.5918
  468SOL    HW1 2303   4.207   5.339   4.283  0.0598  0.1202 -0.8119
  468SOL    HW2 2304   4.112   5.413   4.393  1.5769 -1.3490  1.5830
  469SOL     OW 2305   4.854   0.532   3.949  0.1265 -0.1873  0.3800
  469SOL    HW1 2306   4.940   0.509   3.902  0.3047  2.9266 -1.1029
  469SOL    HW2 2307   4.779   0.530   3.884 -0.5837 -0.8806  1.2036
  470SOL     OW 2308   3.555   5.467   2.850  0.0350 -0.2279 -0.1472
  470SOL    HW1 2309   3.497   5.476   2.930  0.2845  1.5182 -0.1330
  470SOL    HW2 2310   3.591   5.373   2.845  0.9904 -0.0748  2.4549
  471SOL     OW 2311   1.052   2.654   0.235  0.3808  0.4211 -0.4941
  471SOL    HW1 2312   0.995   2.700   0.167 -1.1234 -1.8562 -0.8762
  471SOL    HW2 2313   1.140   2.630   0.195  0.5212  1.4000 -0.7973
  472SOL     OW 2314   4.112   3.697   4.306 -0.2171 -0.2068  0.0372
  472SOL    HW1 2315   4.097   3.631   4.233  1.2379  1.9082 -2.3585
  472SOL    HW2 2316   4.109   3.651   4.395  0.0344 -3.2871 -1.4478
  473SOL     OW 2317   6.108   4.692   4.558  0.3247 -0.4115  0.1043
  473SOL    HW1 2318   6.182   4.757   4.543  1.5137 -1.7083  0.1668
  473SOL    HW2 2319   6.112   4.658   4.652 -0.3313 -0.5189  0.0976
  474SOL     OW 2320   3.693   4.328   6.926 -0.2568 -0.3649  0.4644
  474SOL    HW1 2321   3.742   4.362   6.846 -1.2660  0.6838  0.2740
  474SOL    HW2 2322   3.648   4.242   6.902  0.3192 -0.6103  0.2331
  475SOL     OW 2323   0.892   3.874   5.352  0.1023 -1.1786  0.4129
  475SOL    HW1 2324   0.830   3.885   5.430  0.4395 -2.2915  0.8616
  475SOL    HW2 2325   0.852   3.914   5.271  0.1038  0.7892  1.3290
  476SOL     OW 2326   1.412   1.800   6.560 -0.1045  0.2769 -0.5680
  476SOL    HW1 2327   1.389   1.893   6.588 -0.8801 -0.1320  0.2029
  476SOL    HW2 2328   1.328   1.751   6.535  0.3624 -0.0234 -1.5874
  477SOL     OW 2329   6.031   0.308   1.002  0.1212  0.0349  0.0788
  477SOL    HW1 2330   6.064   0.215   0.985  0.9127  0.2371  0.4606
  477SOL    HW2 2331   6.010   0.353   0.916  0.1267 -0.3588 -0.1294
  478SOL     OW 2332   2.816   1.828   3.840  0.4250 -0.1637  0.3674
  478SOL    HW1 2333   2.830   1.777   3.755 -2.8586 -0.5432 -0.0922
  478SOL    HW2 2334   2.824   1.766   3.918  1.6772 -0.1999  0.2247
  479SOL     OW 2335   5.952   6.952   3.495  0.0655  0.0178 -0.0077
  479SOL    HW1 2336   5.880   6.908   3.548  1.5062 -0.7283  1.4120
  479SOL    HW2 2337   5.922   7.043   3.467 -0.6306  0.6078  2.4549
  480SOL     OW 2338   3.395   0.959   3.499 -0.1529 -0.3143  0.3043
  480SOL    HW1 2339   3.386   0.949   3.598  1.3078  0.3428  0.5371
  480SOL    HW2 2340   3.408   1.056   3.476  0.8400 -0.5876 -0.3822
  481SOL     OW 2341   1.913   5.253   0.625 -0.2702 -0.3619  0.3550
  481SOL    HW1 2342   1.859   5.302   0.693  1.1808  0.6042  0.8560
  481SOL    HW2 2343   1.984   5.199   0.671  1.5660  1.3124 -0.3753
  482SOL     OW 2344   5.638   5.342   4.760 -0.4511 -0.2839  0.0136
  482SOL    HW1 2345   5.699   5.264   4.743  0.4738  0.3957  0.0986
  482SOL    HW2 2346   5.691   5.416   4.801 -1.6760 -0.2430  1.6237
  483SOL     OW 2347   4.029   5.127   2.734  0.1419  0.3128  0.2217
  483SOL    HW1 2348   4.056   5.111   2.830 -1.1907  0.2568  0.6072
  483SOL    HW2 2349   3.971   5.052   2.703  0.5267  0.3576 -0.6260
  484SOL     OW 2350   0.657   6.728   2.512  0.4360 -0.1810  0.2711
  484SOL    HW1 2351   0.569   6.713   2.467  0.9086  0.0697 -0.7425
  484SOL    HW2 2352   0.643   6.732   2.611 -0.5287 -1.3457  0.2089
  485SOL     OW 2353   6.140   0.677   0.869  0.1370  0.3159 -0.1361
  485SOL    HW1 2354   6.115   0.773   0.869 -0.7087  0.1210 -1.4558
  485SOL    HW2 2355   6.121   0.637   0.959 -2.2183  0.7327 -0.3856
  486SOL     OW 2356   5.750   4.791   2.996  0.0628  0.4945 -0.0189
  486SOL    HW1 2357   5.804   4.875   3.008 -0.7661  1.0402 -0.0095
  486SOL    HW2 2358   5.697   4.798   2.912 -2.3733  1.3541  1.4758
  487SOL     OW 2359   5.101   2.264   3.336 -0.0099 -0.0227 -0.0259
  487SOL    HW1 2360   5.062   2.207   3.409  0.0860  1.2480  1.0724
  487SOL    HW2 2361   5.033   2.277   3.264 -0.3624 -0.7211  0.1724
  488SOL     OW 2362   1.693   1.672   1.501  0.1124  0.0760 -0.1637
  488SOL    HW1 2363   1.734   1.583   1.482  1.7964  1.0584 -1.3787
  488SOL    HW2 2364   1.739   1.714   1.579 -0.3180  0.1105  0.0725
  489SOL     OW 2365   4.299   6.972   4.167 -0.0682  0.2041 -0.0681
  489SOL    HW1 2366   4.317   6.926   4.254  1.4887 -1.8672 -1.4019
  489SOL    HW2 2367   4.225   6.924   4.120  1.5963 -1.0873 -1.4921
  490SOL     OW 2368   2.709   0.372   3.351  0.4932 -0.0949 -0.5774
  490SOL    HW1 2369   2.796   0.418   3.337  0.8263 -0.9506 -1.4693
  490SOL    HW2 2370   2.638   0.416   3.297  0.7576 -0.4712 -1.2377
  491SOL     OW 2371   6.345   3.933   3.243  0.5146 -0.1144 -0.2412
  491SOL    HW1 2372   6.439   3.904   3.259  0.0294 -1.3501  0.5251
  491SOL    HW2 2373   6.329   4.021   3.288  0.7920 -0.8119  1.2869
  492SOL     OW 2374   2.478   5.807   3.681  0.2598  0.2632 -0.4604
  492SOL    HW1 2375   2.419   5.774   3.607  0.5236 -0.1974 -0.4691
  492SOL    HW2 2376   2.436   5.784   3.769  0.2918  0.1806 -0.4667
  493SOL     OW 2377   1.762   2.638   4.988 -0.5268 -0.2108 -0.2834
  493SOL    HW1 2378   1.851   2.642   4.943 -0.6740 -0.9203 -0.6364
  493SOL    HW2 2379   1.762   2.566   5.057 -1.2154 -1.0851 -1.1579
  494SOL     OW 2380   4.984   6.483   6.192  0.5422 -0.4315  0.0201
  494SOL    HW1 2381   4.954   6.565   6.242 -1.1568 -1.3014  0.5136
  494SOL    HW2 2382   4.918   6.463   6.120  0.5762 -1.7231  0.3213
  495SOL     OW 2383   0.201   2.626   3.725  0.5132  0.2692  0.0313
  495SOL    HW1 2384   0.249   2.566   3.659  2.8061  1.0801  0.8505
  495SOL    HW2 2385   0.213   2.589   3.817 -3.1577 -1.1663  0.0843
  496SOL     OW 2386   3.446   3.191   2.532 -0.8010  0.2661 -0.3546
  496SOL    HW1 2387   3.360   3.221   2.575 -3.3321 -1.8517 -3.4760
  496SOL    HW2 2388   3.461   3.244   2.449  0.5169  0.0231 -0.2907
  497SOL     OW 2389   0.128   1.623   1.425  0.0854 -0.2104 -0.0039
  497SOL    HW1 2390   0.053   1.678   1.388 -0.0831 -0.4336  0.0018
  497SOL    HW2 2391   0.196   1.606   1.353 -0.5451 -1.1726 -0.3974
  498SOL     OW 2392   6.427   2.380   4.132  0.3592  0.0612 -0.5885
  498SOL    HW1 2393   6.526   2.371   4.123  0.4363 -0.9169  0.7793
  498SOL    HW2 2394   6.385   2.289   4.133 -0.2397  0.2934  1.4697
  499SOL     OW 2395   3.631   5.669   5.636  0.6263  0.2362 -0.1132
  499SOL    HW1 2396   3.550   5.715   5.673 -0.3281 -2.7151  1.8442
  499SOL    HW2 2397   3.607   5.625   5.549 -0.1309 -1.0354  0.6916
  500SOL     OW 2398   2.241   2.466   5.752 -0.3238 -0.1418 -0.7800
  500SOL    HW1 2399   2.287   2.417   5.677  1.5850 -0.9454  0.8360
  500SOL    HW2 2400   2.308   2.518   5.804 -1.8868  1.7949 -0.6066
  501SOL     OW 2401   3.371   5.234   0.847 -0.1051 -0.5049  0.5370
  501SOL    HW1 2402   3.358   5.155   0.788  2.0480 -0.4625 -0.0952
  501SOL    HW2 2403   3.383   5.316   0.791 -2.3290  0.3278  1.1814
  502SOL     OW 2404   2.397   6.685   4.014  0.1432  0.1300 -0.4753
  502SOL    HW1 2405   2.303   6.718   4.010 -0.8048 -1.3685  3.7149
  502SOL    HW2 2406   2.449   6.741   4.079  1.6084 -0.2242 -1.3021
  503SOL     OW 2407   5.166   2.168   3.922 -0.0308  0.0779  0.0700
  503SOL    HW1 2408   5.207   2.126   4.003  1.9549  1.0392 -0.3847
  503SOL    HW2 2409   5.188   2.266   3.921  1.0888 -0.1492 -2.2730
  504SOL     OW 2410   3.105   6.367   6.855 -0.8142  0.1774  0.6434
  504SOL    HW1 2411   3.174   6.419   6.805 -1.5635  2.0369  1.4814
  504SOL    HW2 2412   3.027   6.348   6.794  0.0027 -1.1542 -0.0395
  505SOL     OW 2413   4.868   4.415   4.289  0.5079 -0.4386  0.2764
  505SOL    HW1 2414   4.807   4.344   4.325 -0.0539 -0.9669 -1.6032
  505SOL    HW2 2415   4.902   4.471   4.364 -2.2905 -0.1075  1.4162
  506SOL     OW 2416   2.371   0.016   6.204 -0.5411 -0.3268 -0.1036
  506SOL    HW1 2417   2.393   0.113   6.210  2.6148 -0.9585 -0.0551
  506SOL    HW2 2418   2.345  -0.007   6.110 -3.6357  0.8746  0.3171
  507SOL     OW 2419   2.971   6.304   1.352 -0.4027  0.5911 -0.3090
  507SOL    HW1 2420   3.013   6.308   1.442 -0.4004 -0.3675 -0.2642
  507SOL    HW2 2421   2.872   6.317   1.360 -0.4302  0.2734 -0.1494
  508SOL     OW 2422   6.585   6.130   6.614 -0.7053 -0.2751 -0.4129
  508SOL    HW1 2423   6.542   6.082   6.690 -0.6499 -1.1697 -0.9279
  508SOL    HW2 2424   6.528   6.208   6.588 -0.3797  0.4568  0.9731
  509SOL     OW 2425   6.966   3.341   1.861 -0.0889  0.2306  0.4717
  509SOL    HW1 2426   7.000   3.327   1.954  1.6592  3.1238  0.4107
  509SOL    HW2 2427   6.907   3.422   1.860 -0.2558  0.1102 -0.9013
  510SOL     OW 2428   1.466   4.774   5.919  0.2997  1.1018  0.2165
  510SOL    HW1 2429   1.547   4.729   5.882 -0.1223  0.6301 -0.1452
  510SOL    HW2 2430   1.461   4.756   6.018  0.3950  0.7520  0.1605
  511SOL     OW 2431   4.279   0.358   5.514 -0.3556 -0.2256  0.2480
  511SOL    HW1 2432   4.197   0.306   5.488 -0.8284  0.3828  0.4852
  511SOL    HW2 2433   4.268   0.394   5.606  0.0297  0.1544  0.1488
  512SOL     OW 2434   3.047   4.304   0.359  0.3032 -0.8742 -0.3077
  512SOL    HW1 2435   3.006   4.274   0.445  0.6399 -2.8963 -0.8101
  512SOL    HW2 2436   3.020   4.242   0.285 -1.5737  1.8728 -2.1534
  513SOL     OW 2437   5.640   3.540   6.220 -0.0366  0.2850  0.0282
  513SOL    HW1 2438   5.621   3.638   6.207 -0.2037  0.3471  0.7314
  513SOL    HW2 2439   5.603   3.489   6.143  0.0384  0.7729 -0.3398
  514SOL     OW 2440   0.911   2.849   4.001 -0.1384 -0.6319  0.0044
  514SOL    HW1 2441   0.975   2.898   3.942  0.0086 -1.7176 -0.7617
  514SOL    HW2 2442   0.828   2.904   4.012  0.0150 -0.2147 -0.8463
  515SOL     OW 2443   5.439   3.756   2.838  0.2185 -0.1266 -0.1525
  515SOL    HW1 2444   5.349   3.713   2.833  0.0600  0.2940 -1.1466
  515SOL    HW2 2445   5.497   3.705   2.901 -1.4959  1.0340  2.5962
  516SOL     OW 2446   0.913   5.927   3.184 -0.4830  0.2079  0.0680
  516SOL    HW1 2447   0.864   5.904   3.099 -0.2730  1.7548 -0.5199
  516SOL    HW2 2448   1.011   5.919   3.169 -0.4773 -2.2675  1.0567
  517SOL     OW 2449   2.716   6.499   6.567 -0.6948 -1.0025  0.5525
  517SOL    HW1 2450   2.687   6.455   6.482  1.9168  1.1742 -1.6856
  517SOL    HW2 2451   2.687   6.594   6.567  2.5632  0.1448  0.0556
  518SOL     OW 2452   2.046   6.357   0.547 -0.0172 -0.1014 -0.0296
  518SOL    HW1 2453   2.051   6.259   0.524 -0.3472 -0.0386 -0.3679
  518SOL    HW2 2454   2.126   6.382   0.601  0.6251 -0.3165 -0.8544
  519SOL     OW 2455   0.698   6.009   4.899  0.7566 -0.0525 -0.1872
  519SOL    HW1 2456   0.677   5.993   4.996 -0.2155  1.0157 -0.1950
  519SOL    HW2 2457   0.621   5.980   4.843 -0.2818  2.6850 -0.3222
  520SOL     OW 2458   3.483   0.023   4.675 -0.4590 -0.2186  0.6614
  520SOL    HW1 2459   3.403  -0.003   4.621 -0.0386 -0.6823  0.2503
  520SOL    HW2 2460   3.563   0.030   4.615 -0.0412 -0.4805  1.1765
  521SOL     OW 2461   5.346   6.825   5.112 -0.0526 -0.1629  0.6638
  521SOL    HW1 2462   5.300   6.850   5.027  0.6121  0.6961  0.5456
  521SOL    HW2 2463   5.296   6.751   5.157 -0.5773 -0.4190 -0.3216
  522SOL     OW 2464   2.806   4.822   2.696 -0.3367  0.3227  0.3775
  522SOL    HW1 2465   2.780   4.745   2.638  1.0387  0.5568 -0.6026
  522SOL    HW2 2466   2.805   4.906   2.643  0.4667  0.6181  0.8058
  523SOL     OW 2467   2.024   4.786   3.343 -0.4700 -0.0022  0.6911
  523SOL    HW1 2468   2.123   4.774   3.344 -0.5403 -0.8843 -0.6863
  523SOL    HW2 2469   1.995   4.828   3.429  1.2778  1.8860  0.4502
  524SOL     OW 2470   2.472   4.584   2.848  0.1172 -0.2231 -0.5777
  524SOL    HW1 2471   2.377   4.607   2.868  0.1531  0.3309 -1.0333
  524SOL    HW2 2472   2.513   4.538   2.927 -0.6853 -0.9566 -0.5768
  525SOL     OW 2473   0.188   1.899   0.873  0.2023  0.0733 -0.0999
  525SOL    HW1 2474   0.285   1.874   0.872  0.7410  2.0333  0.1508
  525SOL    HW2 2475   0.178   1.994   0.846 -1.7014 -0.1575 -0.3436
  526SOL     OW 2476   5.767   2.093   5.475 -0.2571 -0.2185 -0.1346
  526SOL    HW1 2477   5.828   2.039   5.417  0.7584  0.9077 -0.1354
  526SOL    HW2 2478   5.684   2.039   5.494  0.5586 -1.6345 -0.4157
  527SOL     OW 2479   4.025   4.622   6.818  0.0417  0.2532  0.1400
  527SOL    HW1 2480   4.116   4.585   6.802 -0.7429 -1.2618 -1.0698
  527SOL    HW2 2481   3.956   4.553   6.794 -1.4343  1.4062  0.8966
  528SOL     OW 2482   1.024   1.078   3.437 -0.3209  0.3681 -0.3219
  528SOL    HW1 2483   1.014   1.043   3.530  1.0820 -1.4414 -0.7983
  528SOL    HW2 2484   1.021   1.178   3.438  0.7148  0.4148  1.8180
  529SOL     OW 2485   5.174   2.889   4.624 -0.3541 -0.0945  0.3277
  529SOL    HW1 2486   5.100   2.839   4.582  0.3682  0.8519 -2.2402
  529SOL    HW2 2487   5.223   2.830   4.689 -2.4121 -1.1402  0.9903
  530SOL     OW 2488   6.587   3.932   3.421  0.1911 -0.1030  0.8458
  530SOL    HW1 2489   6.622   3.976   3.338 -2.0780 -1.2974 -0.8774
  530SOL    HW2 2490   6.523   3.994   3.467  0.5892  0.1430  1.0690
  531SOL     OW 2491   1.961   3.894   1.759 -0.3265  0.1104  0.3986
  531SOL    HW1 2492   2.022   3.967   1.731 -2.7504  1.4123 -1.9080
  531SOL    HW2 2493   2.011   3.807   1.761  1.9264  1.3481  0.3715
  532SOL     OW 2494   5.160   2.005   2.070  0.1136 -0.4615  0.9244
  532SOL    HW1 2495   5.113   1.983   2.155 -0.5651 -3.4774 -0.0877
  532SOL    HW2 2496   5.258   1.989   2.081  0.0037 -1.0258  1.1006
  533SOL     OW 2497   3.727   5.692   1.062  0.6402 -0.2116  0.2924
  533SOL    HW1 2498   3.795   5.723   1.128  2.3054  1.5390 -2.0908
  533SOL    HW2 2499   3.766   5.694   0.970 -2.5004  0.5201 -1.1591
  534SOL     OW 2500   5.904   4.010   2.315 -0.2933  0.2291  0.0768
  534SOL    HW1 2501   5.858   3.969   2.237  0.9193  0.5930 -0.8537
  534SOL    HW2 2502   5.859   3.980   2.400 -1.7595  0.0094 -0.7454
  535SOL     OW 2503   0.465   5.134   3.126 -0.0511 -0.2577  0.0942
  535SOL    HW1 2504   0.378   5.182   3.114 -0.6700 -1.5316 -0.7972
  535SOL    HW2 2505   0.526   5.156   3.050  1.4810  2.6573  1.9783
  536SOL     OW 2506   5.960   3.608   0.780 -0.3099 -0.0728  0.2753
  536SOL    HW1 2507   5.894   3.669   0.737  0.3977 -0.7987 -1.9926
  536SOL    HW2 2508   5.924   3.575   0.867 -1.3048  2.4219  0.8861
  537SOL     OW 2509   2.889   1.855   2.524 -0.0224 -0.3547  0.0168
  537SOL    HW1 2510   2.866   1.871   2.620  3.1566  1.0843  0.6474
  537SOL    HW2 2511   2.854   1.930   2.468  0.7827  0.4087  0.5272
  538SOL     OW 2512   5.096   0.628   1.762  0.1576 -0.0829 -0.0572
  538SOL    HW1 2513   5.127   0.712   1.806  0.2348  0.3126 -0.8695
  538SOL    HW2 2514   5.068   0.647   1.668  1.7245 -1.2409 -0.7938
  539SOL     OW 2515   0.896   3.426   4.756  0.4905  0.3134 -0.1436
  539SOL    HW1 2516   0.888   3.356   4.827 -1.7581 -0.4934 -1.0856
  539SOL    HW2 2517   0.808   3.437   4.710  0.7735  3.7356 -0.1398
  540SOL     OW 2518   5.591   4.594   5.006  0.4480 -0.1540 -0.5070
  540SOL    HW1 2519   5.573   4.508   4.958 -0.0887 -1.0220  1.1806
  540SOL    HW2 2520   5.570   4.584   5.103 -0.5702  2.1758 -0.3983
  541SOL     OW 2521   5.468   5.698   1.356 -0.0548 -0.6698 -0.1812
  541SOL    HW1 2522   5.530   5.653   1.292 -1.1240  0.7775 -2.3449
  541SOL    HW2 2523   5.384   5.645   1.364  0.7053 -1.6973  1.3542
  542SOL     OW 2524   5.682   0.001   5.263 -0.2928  0.3145 -0.1797
  542SOL    HW1 2525   5.613   0.025   5.195 -1.1018 -1.6431 -0.1152
  542SOL    HW2 2526   5.639  -0.050   5.338  0.8555  1.0503  1.0313
  543SOL     OW 2527   6.837   4.509   3.687 -0.1041  0.1764 -0.1790
  543SOL    HW1 2528   6.903   4.491   3.760 -0.4839 -0.7772 -0.0531
  543SOL    HW2 2529   6.759   4.448   3.698 -0.7813  0.9445 -0.6211
  544SOL     OW 2530   0.811   2.802   5.800 -0.5797  0.0890  0.1504
  544SOL    HW1 2531   0.777   2.803   5.706 -0.8811  0.0775  0.2593
  544SOL    HW2 2532   0.849   2.712   5.821  0.9775  0.5580 -0.4867
  545SOL     OW 2533   4.777   2.044   0.366 -0.3430 -0.4377  0.2234
  545SOL    HW1 2534   4.726   2.086   0.292  1.5183  0.5508 -0.5685
  545SOL    HW2 2535   4.798   2.113   0.436  0.0271 -0.7904  0.4684
  546SOL     OW 2536   3.625   3.786   5.598 -0.1507 -0.4181  0.0995
  546SOL    HW1 2537   3.639   3.802   5.500 -0.6034 -1.9771 -0.2442
  546SOL    HW2 2538   3.667   3.699   5.624  0.2970  0.1590  1.3930
  547SOL     OW 2539   3.905   2.231   5.207  0.2151 -0.7797  0.1967
  547SOL    HW1 2540   3.813   2.218   5.246  0.7315  0.9821  2.1619
  547SOL    HW2 2541   3.962   2.279   5.272  0.8585  3.5343 -3.0867
  548SOL     OW 2542   6.151   2.171   5.306  0.0962  0.5238 -0.0394
  548SOL    HW1 2543   6.081   2.099   5.302 -0.0178  0.6714 -1.6025
  548SOL    HW2 2544   6.180   2.184   5.400  0.1749 -1.6163  0.2913
  549SOL     OW 2545   0.445   6.866   4.005  0.2533  0.6550 -0.1885
  549SOL    HW1 2546   0.463   6.878   3.908 -0.4441  0.3438 -0.3681
  549SOL    HW2 2547   0.374   6.931   4.034 -0.9999 -0.5864 -0.3619
  550SOL     OW 2548   2.069   6.148   1.622  0.1764 -0.4574  0.2380
  550SOL    HW1 2549   1.997   6.177   1.685  0.3693  0.0430  0.2346
  550SOL    HW2 2550   2.073   6.212   1.545 -0.9784 -1.8300 -1.0152
  551SOL     OW 2551   2.339   5.970   0.572  0.2641  0.2657  0.0668
  551SOL    HW1 2552   2.247   5.945   0.542  0.1364  0.5950  0.1763
  551SOL    HW2 2553   2.371   6.048   0.519  0.2527  0.5098  0.4167
  552SOL     OW 2554   4.046   2.092   5.502  0.0695 -0.0119  0.0123
  552SOL    HW1 2555   4.061   2.185   5.467 -0.3667 -0.7600 -2.3964
  552SOL    HW2 2556   4.128   2.061   5.550  0.0990  1.7039  1.1705
  553SOL     OW 2557   4.304   2.307   3.254 -0.2449 -0.0290 -0.0790
  553SOL    HW1 2558   4.367   2.381   3.233  3.0075 -1.9755  1.9475
  553SOL    HW2 2559   4.323   2.229   3.196 -1.8653 -0.2256 -0.4082
  554SOL     OW 2560   1.983   2.321   1.188  0.4393 -0.0919  0.2761
  554SOL    HW1 2561   2.077   2.288   1.184  0.4467  0.0071 -2.5864
  554SOL    HW2 2562   1.920   2.244   1.184  0.4194 -0.0918  0.6189
  555SOL     OW 2563   4.112   2.033   3.597  0.1360  0.8188 -0.3495
  555SOL    HW1 2564   4.182   2.013   3.529  1.6821  2.3928  0.6920
  555SOL    HW2 2565   4.105   1.956   3.661 -0.0318  0.1069 -1.2058
  556SOL     OW 2566   6.778   1.819   2.127  0.3635 -0.3439  0.2413
  556SOL    HW1 2567   6.812   1.909   2.156 -2.0372  0.7562 -0.0965
  556SOL    HW2 2568   6.855   1.763   2.096  1.8070  2.1379 -0.9907
  557SOL     OW 2569   6.598   3.092   3.844 -0.2310 -0.0015  0.4816
  557SOL    HW1 2570   6.566   3.032   3.917 -1.8642 -0.2835 -0.4297
  557SOL    HW2 2571   6.580   3.049   3.755  1.4351  0.4729 -0.1243
  558SOL     OW 2572   1.046   4.954   1.107 -0.2875 -0.2309  0.2803
  558SOL    HW1 2573   1.123   5.017   1.089 -1.1746  0.2423 -2.3756
  558SOL    HW2 2574   0.977   5.001   1.162 -0.0142  0.4088  0.0898
  559SOL     OW 2575   6.617   4.221   4.879  0.6624 -0.1374 -0.2978
  559SOL    HW1 2576   6.541   4.199   4.818  1.0043 -3.5010  0.2927
  559SOL    HW2 2577   6.582   4.243   4.970  0.3473 -0.4758 -0.3348
  560SOL     OW 2578   3.748   0.503   0.718  0.3218  0.3469 -0.0596
  560SOL    HW1 2579   3.798   0.589   0.726  1.6681 -0.5399  2.0575
  560SOL    HW2 2580   3.790   0.446   0.648  0.1127  0.9480 -0.6853
  561SOL     OW 2581   2.444   2.590   0.086  0.9817 -0.0333  0.1668
  561SOL    HW1 2582   2.356   2.620   0.049  1.2318  1.1070  0.4598
  561SOL    HW2 2583   2.508   2.666   0.086  2.1256 -0.9562 -0.4530
  562SOL     OW 2584   2.420   4.519   1.589  0.1005 -0.4455 -0.2397
  562SOL    HW1 2585   2.362   4.438   1.586 -1.2748  0.4112  1.4840
  562SOL    HW2 2586   2.507   4.497   1.633  0.5726 -1.4251 -1.6170
  563SOL     OW 2587   6.895   0.472   5.389 -0.2419 -0.0820 -0.4464
  563SOL    HW1 2588   6.953   0.404   5.343  1.6508  0.3534  1.1444
  563SOL    HW2 2589   6.799   0.447   5.378  0.3605 -3.0735  0.0986
  564SOL     OW 2590   3.234   0.181   0.733  0.2531 -0.1087 -0.1215
  564SOL    HW1 2591   3.184   0.104   0.693  1.0206 -0.3068 -0.7375
  564SOL    HW2 2592   3.332   0.168   0.717  0.6250 -0.3336  2.1041
  565SOL     OW 2593   2.677   3.753   0.439  0.1958 -0.1729  0.6892
  565SOL    HW1 2594   2.769   3.786   0.421 -0.1448  0.9771  0.9701
  565SOL    HW2 2595   2.661   3.668   0.388  0.7116  0.6915 -0.9746
  566SOL     OW 2596   6.500   6.012   4.820  0.3029 -0.1055 -0.0304
  566SOL    HW1 2597   6.559   5.954   4.876  0.6307  0.7314  0.5218
  566SOL    HW2 2598   6.487   5.971   4.730 -1.0486 -1.9852  0.9563
  567SOL     OW 2599   0.162   6.398   1.192  0.2146  0.1684 -0.4820
  567SOL    HW1 2600   0.163   6.300   1.173  1.0937  0.3857 -1.6969
  567SOL    HW2 2601   0.249   6.425   1.233 -0.5507  0.2324  1.1944
  568SOL     OW 2602   3.575   2.967   0.080  0.3977 -0.1504 -0.2911
  568SOL    HW1 2603   3.619   3.005   0.161  0.2557  0.9593 -0.7140
  568SOL    HW2 2604   3.625   2.996  -0.002 -0.2287 -0.1444 -0.6780
  569SOL     OW 2605   2.520   0.528   2.137 -0.8027  0.5294 -0.5903
  569SOL    HW1 2606   2.562   0.526   2.228 -2.6622  0.8170  0.3215
  569SOL    HW2 2607   2.579   0.480   2.072 -0.0051 -0.7730  1.0215
  570SOL     OW 2608   0.277   5.571   5.127  0.0246 -0.8610  0.3328
  570SOL    HW1 2609   0.305   5.478   5.107  0.4281 -0.9830  1.3930
  570SOL    HW2 2610   0.344   5.614   5.188 -0.0802  0.1718 -0.2543
  571SOL     OW 2611   3.830   1.209   0.118  0.3826 -0.3982  0.1772
  571SOL    HW1 2612   3.762   1.282   0.116  1.2678  0.4846  0.9509
  571SOL    HW2 2613   3.791   1.125   0.081 -1.0473  0.1448  0.4113
  572SOL     OW 2614   1.105   4.477   3.230 -0.1738 -0.1812  0.1983
  572SOL    HW1 2615   1.097   4.416   3.150  0.8658 -0.1845  0.0802
  572SOL    HW2 2616   1.049   4.558   3.215 -2.3195 -1.4641  0.7396
  573SOL     OW 2617   6.404   1.243   1.270 -0.2549 -0.0371  0.5797
  573SOL    HW1 2618   6.348   1.167   1.236 -0.5293  0.5742 -0.3898
  573SOL    HW2 2619   6.379   1.263   1.365 -2.3547  0.7905 -0.0792
  574SOL     OW 2620   1.966   6.695   1.370 -0.3933 -0.1325  0.2457
  574SOL    HW1 2621   1.980   6.737   1.281  0.8227  0.9133  0.9035
  574SOL    HW2 2622   2.054   6.662   1.406 -0.5927  0.8326  1.7095
  575SOL     OW 2623   1.672   1.008   6.562 -0.1847 -0.5653  0.0300
  575SOL    HW1 2624   1.621   0.972   6.641  0.5514  1.1767  1.3740
  575SOL    HW2 2625   1.747   1.066   6.595 -0.1068  0.5482 -1.9630
  576SOL     OW 2626   4.769   6.861   6.933 -0.4353  0.4953  0.0099
  576SOL    HW1 2627   4.777   6.907   7.022  1.0544  1.5308 -0.6275
  576SOL    HW2 2628   4.849   6.804   6.918 -0.1153  1.2189 -1.1465
  577SOL     OW 2629   1.000   5.194   1.835 -0.0729  0.4199 -0.2503
  577SOL    HW1 2630   0.902   5.209   1.838 -0.3416 -1.3201  0.8099
  577SOL    HW2 2631   1.041   5.218   1.923  0.3475  0.4135 -0.4400
  578SOL     OW 2632   0.566   6.418   6.011 -0.3949 -0.5251 -0.5502
  578SOL    HW1 2633   0.472   6.398   6.040 -0.5478  1.1035  0.2168
  578SOL    HW2 2634   0.564   6.491   5.942  0.3373  0.0293  0.0027
  579SOL     OW 2635   6.675   6.138   3.938 -0.2083 -0.1944 -0.1957
  579SOL    HW1 2636   6.579   6.150   3.966 -0.9406 -0.3651 -2.4759
  579SOL    HW2 2637   6.686   6.049   3.894  0.9308 -0.0331 -0.2623
  580SOL     OW 2638   4.988   0.261   5.672 -0.3339 -0.4695 -0.4079
  580SOL    HW1 2639   4.954   0.203   5.745  0.1628 -1.8534 -1.2495
  580SOL    HW2 2640   4.921   0.264   5.598 -0.2798 -0.0904 -0.4450
  581SOL     OW 2641   0.465   6.005   4.778 -0.2703  0.1549  0.2347
  581SOL    HW1 2642   0.372   6.031   4.803 -0.2435 -0.2734  0.7843
  581SOL    HW2 2643   0.478   6.018   4.680 -2.1625 -3.4695 -0.6616
  582SOL     OW 2644   5.095   6.855   4.387 -0.7319  0.2216 -0.4096
  582SOL    HW1 2645   5.022   6.863   4.319 -0.1045 -1.8892 -1.4160
  582SOL    HW2 2646   5.113   6.758   4.406 -0.5261  0.7227  2.4335
  583SOL     OW 2647   3.943   3.295   6.171  0.3563 -0.1341  0.3646
  583SOL    HW1 2648   4.017   3.338   6.120 -2.1155  1.4800 -2.1990
  583SOL    HW2 2649   3.889   3.237   6.110 -0.7962 -0.8467  1.9796
  584SOL     OW 2650   4.175   4.585   1.610  0.2989 -0.0562  0.0176
  584SOL    HW1 2651   4.096   4.572   1.550  1.0270 -1.5807 -0.6660
  584SOL    HW2 2652   4.251   4.622   1.557  0.3304  0.5346  0.4704
  585SOL     OW 2653   3.543   6.461   5.661 -0.2360  0.4935 -0.2000
  585SOL    HW1 2654   3.487   6.457   5.744 -0.5859 -2.4849 -0.4892
  585SOL    HW2 2655   3.640   6.462   5.687 -0.3475  0.2040  0.2322
  586SOL     OW 2656   1.698   2.279   4.774  0.5885  0.5727 -0.1394
  586SOL    HW1 2657   1.645   2.363   4.778  0.3203  0.6124 -2.7162
  586SOL    HW2 2658   1.638   2.200   4.790  0.3615  0.7641 -0.0536
  587SOL     OW 2659   1.486   4.113   3.932  0.3420  0.4794 -0.5374
  587SOL    HW1 2660   1.400   4.070   3.959 -0.2588  1.0343 -1.5103
  587SOL    HW2 2661   1.467   4.190   3.872  1.3027  2.7146  1.8199
  588SOL     OW 2662   6.567   1.789   3.425  0.2689 -0.2461  0.7604
  588SOL    HW1 2663   6.470   1.799   3.450  0.0493  0.9458 -0.4883
  588SOL    HW2 2664   6.591   1.856   3.355  1.6258 -1.5180 -0.0517
  589SOL     OW 2665   6.628   5.768   4.145 -0.4968  0.0129  0.4235
  589SOL    HW1 2666   6.677   5.826   4.080  0.6127  0.0566  1.2720
  589SOL    HW2 2667   6.693   5.726   4.208 -1.2825 -2.0024 -0.0142
  590SOL     OW 2668   3.917   5.846   6.912 -0.0740 -0.4786 -0.0528
  590SOL    HW1 2669   3.892   5.778   6.981  1.4171 -2.0842 -1.0320
  590SOL    HW2 2670   4.016   5.849   6.903 -0.0641  2.0743  0.1484
  591SOL     OW 2671   0.667   4.481   0.172 -0.6195 -0.9802 -0.6443
  591SOL    HW1 2672   0.628   4.461   0.082 -0.3962 -0.2602 -0.9046
  591SOL    HW2 2673   0.709   4.398   0.209 -1.4604 -1.5027 -0.8203
  592SOL     OW 2674   0.256   4.868   6.928 -0.1936  0.0213 -0.5555
  592SOL    HW1 2675   0.316   4.789   6.935  0.1527  0.1819 -1.5756
  592SOL    HW2 2676   0.304   4.949   6.962  0.2730  0.1926 -1.5848
  593SOL     OW 2677   5.218   0.197   2.595  0.7964  0.5835 -0.2769
  593SOL    HW1 2678   5.157   0.124   2.563  1.3018  0.6640 -1.4755
  593SOL    HW2 2679   5.204   0.279   2.540  3.1204  0.0935 -1.7344
  594SOL     OW 2680   4.865   1.611   1.824 -0.2976 -0.0049 -0.1290
  594SOL    HW1 2681   4.924   1.531   1.814  1.3442  1.2568 -1.0804
  594SOL    HW2 2682   4.906   1.674   1.890  0.0306  1.4024 -1.6333
  595SOL     OW 2683   5.494   4.624   1.915  0.2281 -0.0091  0.5003
  595SOL    HW1 2684   5.478   4.723   1.920  1.8347  0.2428  1.1128
  595SOL    HW2 2685   5.437   4.578   1.983 -0.7924  0.4306 -0.0184
  596SOL     OW 2686   4.042   5.758   5.241  0.0213  0.0512  0.4182
  596SOL    HW1 2687   4.025   5.816   5.321  1.4107  0.7544  0.2422
  596SOL    HW2 2688   4.140   5.740   5.234 -0.1514 -0.4668 -0.8236
  597SOL     OW 2689   2.301   2.801   1.865 -0.1060  0.0146  0.6206
  597SOL    HW1 2690   2.223   2.774   1.807  2.6361 -0.4609 -3.2825
  597SOL    HW2 2691   2.361   2.861   1.813  3.1142 -1.1638  2.6713
  598SOL     OW 2692   3.852   4.043   3.211  0.3099  0.6526 -0.3253
  598SOL    HW1 2693   3.772   4.007   3.260  1.8197 -2.1340  0.3442
  598SOL    HW2 2694   3.832   4.046   3.113 -0.6793  0.1485 -0.1529
  599SOL     OW 2695   5.482   6.423   2.030  0.3498  0.3800 -0.0158
  599SOL    HW1 2696   5.463   6.452   2.124 -0.0577 -0.8728  0.3114
  599SOL    HW2 2697   5.461   6.325   2.021  3.0882 -0.2213 -0.6661
  600SOL     OW 2698   6.531   3.684   5.611 -0.2279  0.0418 -0.4222
  600SOL    HW1 2699   6.450   3.740   5.592 -0.9309 -1.1769 -1.1685
  600SOL    HW2 2700   6.567   3.706   5.701 -0.4874  1.6746 -0.6897
  601SOL     OW 2701   3.199   3.889   0.169 -0.1334 -0.2269 -0.1142
  601SOL    HW1 2702   3.163   3.816   0.111 -1.2418 -0.5077  0.8877
  601SOL    HW2 2703   3.236   3.849   0.254 -1.5939  0.4104  0.8621
  602SOL     OW 2704   1.076   0.545   6.078  0.0325 -0.3384 -0.0343
  602SOL    HW1 2705   1.004   0.507   6.019  0.6684  0.1110 -1.1419
  602SOL    HW2 2706   1.154   0.483   6.080 -0.4939 -0.9889  1.4423
  603SOL     OW 2707   6.422   2.317   6.933 -0.0951  0.0608  0.0405
  603SOL    HW1 2708   6.515   2.319   6.897 -0.2495  0.4015 -0.3473
  603SOL    HW2 2709   6.424   2.289   7.029  0.5511  1.4901  0.4709
  604SOL     OW 2710   2.821   1.092   5.643 -0.0706  0.3416  0.0954
  604SOL    HW1 2711   2.902   1.035   5.636  1.4993  2.2941  1.2820
  604SOL    HW2 2712   2.795   1.103   5.739 -1.1889  0.4856 -0.2058
  605SOL     OW 2713   6.075   6.143   2.947 -0.3453 -0.8182  0.4358
  605SOL    HW1 2714   6.049   6.189   3.032  1.3969 -2.3481  1.9040
  605SOL    HW2 2715   6.011   6.068   2.928 -0.6878 -0.5296  0.4562
  606SOL     OW 2716   1.669   3.832   0.869  0.2112 -0.1640  0.0865
  606SOL    HW1 2717   1.630   3.893   0.800  2.4007  0.1431 -0.9931
  606SOL    HW2 2718   1.688   3.884   0.952 -0.1542  0.0564  0.0335
  607SOL     OW 2719   6.126   3.110   0.405 -0.2980 -0.8551  0.0666
  607SOL    HW1 2720   6.092   3.183   0.346  0.5577  1.2418  2.0168
  607SOL    HW2 2721   6.226   3.110   0.404 -0.2779 -1.7706  0.4188
  608SOL     OW 2722   4.495   1.133   3.890  0.2086  0.3072 -0.0305
  608SOL    HW1 2723   4.467   1.100   3.980 -0.4940  0.5438 -0.1545
  608SOL    HW2 2724   4.591   1.110   3.874  0.1733 -0.2505  0.5374
  609SOL     OW 2725   0.051   5.351   3.672  0.0593  0.5016 -0.1190
  609SOL    HW1 2726   0.136   5.367   3.621 -0.9033  6.0250 -0.6263
  609SOL    HW2 2727  -0.020   5.319   3.610  0.6630  0.1812 -0.6538
  610SOL     OW 2728   1.112   0.142   4.928  0.5870  0.4730 -0.2636
  610SOL    HW1 2729   1.026   0.098   4.902 -0.0847  0.6595  1.5026
  610SOL    HW2 2730   1.173   0.145   4.849 -0.4162 -1.0843 -1.1529
  611SOL     OW 2731   0.705   3.857   1.907 -0.4344 -0.3208  0.2453
  611SOL    HW1 2732   0.606   3.841   1.901 -0.5307  0.2160  0.2984
  611SOL    HW2 2733   0.724   3.911   1.989 -0.4276  1.9171 -1.1470
  612SOL     OW 2734   1.847   0.920   5.451 -0.2215  0.3090 -0.1354
  612SOL    HW1 2735   1.792   0.955   5.375  0.8868  2.8700  0.1501
  612SOL    HW2 2736   1.851   0.988   5.524 -0.2579 -1.6033  1.7764
  613SOL     OW 2737   0.955   3.170   2.819 -0.3029  0.5659 -0.6799
  613SOL    HW1 2738   0.912   3.240   2.762  1.3220  1.4847 -0.8126
  613SOL    HW2 2739   1.037   3.206   2.861  2.7047 -2.1913 -3.5776
  614SOL     OW 2740   2.102   0.479   4.578  0.5163  0.8324  0.3113
  614SOL    HW1 2741   2.018   0.501   4.528 -0.8329 -0.9523  1.6366
  614SOL    HW2 2742   2.092   0.507   4.673  0.7272 -0.8524  0.8629
  615SOL     OW 2743   1.642   3.193   4.361 -0.3860  0.2752 -0.0992
  615SOL    HW1 2744   1.612   3.204   4.266 -0.3619 -0.7375 -0.2312
  615SOL    HW2 2745   1.582   3.129   4.409 -0.8946  1.3966  0.8260
  616SOL     OW 2746   2.457   2.853   0.589 -0.7645 -0.2083  0.2660
  616SOL    HW1 2747   2.363   2.885   0.594 -0.7779 -0.4054  1.8675
  616SOL    HW2 2748   2.474   2.788   0.664  1.2641  1.5317  1.4157
  617SOL     OW 2749   2.371   2.289   6.435  0.2106 -0.1885 -0.0515
  617SOL    HW1 2750   2.333   2.295   6.343 -2.0140 -0.2727  0.8158
  617SOL    HW2 2751   2.366   2.194   6.467  0.3411 -0.0316  0.4340
  618SOL     OW 2752   2.440   4.301   5.161 -0.6990  0.5162  0.4931
  618SOL    HW1 2753   2.457   4.210   5.198 -0.2496  0.6367  0.5977
  618SOL    HW2 2754   2.381   4.295   5.081  0.6308 -0.0451 -0.4883
  619SOL     OW 2755   1.722   2.493   0.135  0.3346  0.4795  0.1508
  619SOL    HW1 2756   1.644   2.477   0.074 -0.8109 -1.8410  2.0614
  619SOL    HW2 2757   1.774   2.408   0.146  2.1992  1.5682  0.2261
  620SOL     OW 2758   6.471   0.935   3.366 -0.0563  0.3382 -0.0161
  620SOL    HW1 2759   6.478   1.003   3.293  0.2643  0.4651  0.1295
  620SOL    HW2 2760   6.481   0.980   3.455 -0.3586  0.1718  0.1003
  621SOL     OW 2761   4.101   6.862   2.322 -0.1877  0.2558  0.5183
  621SOL    HW1 2762   4.146   6.952   2.332 -0.2664  0.2361  1.0785
  621SOL    HW2 2763   4.155   6.793   2.371 -0.9506  0.2722  1.4003
  622SOL     OW 2764   1.931   3.641   4.506 -0.0913  0.0988  0.8372
  622SOL    HW1 2765   1.879   3.637   4.592 -0.9109  0.5849  0.3755
  622SOL    HW2 2766   2.001   3.712   4.514 -0.2707  0.2560  1.0489
  623SOL     OW 2767   5.488   2.920   0.222  0.1161 -0.1283  0.5978
  623SOL    HW1 2768   5.456   2.986   0.289  0.1793  2.8755 -2.0771
  623SOL    HW2 2769   5.423   2.845   0.214 -0.7282  0.3238  2.7312
  624SOL     OW 2770   4.522   6.243   1.844  0.0925  0.2890  0.4879
  624SOL    HW1 2771   4.473   6.160   1.873  3.2582 -0.9868  2.8414
  624SOL    HW2 2772   4.475   6.324   1.880 -3.0399 -0.3196 -1.8166
  625SOL     OW 2773   5.190   3.441   5.972 -0.1210  0.4740  0.0062
  625SOL    HW1 2774   5.098   3.422   5.937 -0.4545  0.4775  0.8641
  625SOL    HW2 2775   5.211   3.377   6.046  1.2609 -0.6938 -1.3267
  626SOL     OW 2776   1.826   5.308   4.570  0.1021 -0.4170 -0.7469
  626SOL    HW1 2777   1.819   5.380   4.500 -0.2700  0.4644  0.1743
  626SOL    HW2 2778   1.741   5.303   4.622  0.7653 -0.2640  0.3960
  627SOL     OW 2779   1.896   6.883   5.210 -0.5303  0.4137 -0.0907
  627SOL    HW1 2780   1.974   6.871   5.271 -1.0899 -0.0235  0.5536
  627SOL    HW2 2781   1.867   6.979   5.212  0.0389  0.5991 -0.4056
  628SOL     OW 2782   6.953   2.178   4.149 -0.2094 -0.2132 -0.3229
  628SOL    HW1 2783   6.906   2.243   4.090  1.1938  0.3194 -0.9025
  628SOL    HW2 2784   6.984   2.099   4.096 -0.3420 -0.5083  0.0266
  629SOL     OW 2785   4.731   2.619   5.530  0.0525 -0.3783  0.2393
  629SOL    HW1 2786   4.756   2.584   5.439  0.7547 -1.7526  0.9312
  629SOL    HW2 2787   4.657   2.564   5.567 -0.1636  0.1168  0.5418
  630SOL     OW 2788   4.093   0.058   0.377  0.9954 -0.5136  0.3066
  630SOL    HW1 2789   4.107   0.142   0.430  2.2909 -1.0972  0.9440
  630SOL    HW2 2790   4.178   0.005   0.377  0.7865 -0.9244 -1.6774
  631SOL     OW 2791   2.914   5.257   2.534  0.6839 -0.2500  0.4175
  631SOL    HW1 2792   2.989   5.228   2.593 -0.3278 -0.8077  1.4572
  631SOL    HW2 2793   2.876   5.343   2.568 -0.7701 -1.2481  1.4131
  632SOL     OW 2794   4.513   0.826   2.841  0.1933  0.0354 -0.5159
  632SOL    HW1 2795   4.571   0.904   2.865  0.2888 -0.4838  1.0554
  632SOL    HW2 2796   4.419   0.844   2.870  0.3610 -0.7164  0.5463
  633SOL     OW 2797   5.712   3.670   5.716  0.2135 -0.6194 -0.0049
  633SOL    HW1 2798   5.726   3.576   5.748 -1.0354 -0.7463  0.2234
  633SOL    HW2 2799   5.721   3.733   5.793  2.4573 -0.3680 -0.3969
  634SOL     OW 2800   2.948   6.462   2.728 -0.3928  0.1107  0.3344
  634SOL    HW1 2801   2.943   6.426   2.821  0.1923 -3.0935 -0.7257
  634SOL    HW2 2802   2.858   6.497   2.701 -1.6300 -2.3210  0.9498
  635SOL     OW 2803   5.654   3.161   3.776  0.8121 -0.3569  0.2051
  635SOL    HW1 2804   5.723   3.091   3.793 -0.2641 -1.7470 -0.9062
  635SOL    HW2 2805   5.590   3.128   3.706 -0.7153  1.0531  0.8846
  636SOL     OW 2806   2.895   6.135   5.843  0.2116 -0.0052 -0.4580
  636SOL    HW1 2807   2.811   6.092   5.875  0.8510 -0.3061  0.8571
  636SOL    HW2 2808   2.878   6.179   5.755 -1.8907  1.7503  0.7275
  637SOL     OW 2809   3.572   1.878   2.394 -0.0404  0.4195  1.0239
  637SOL    HW1 2810   3.562   1.952   2.328 -1.1857  0.7501  1.5318
  637SOL    HW2 2811   3.511   1.802   2.369  0.8829 -0.2314  0.6898
  638SOL     OW 2812   5.875   6.256   4.953 -0.9778  0.4978  0.0953
  638SOL    HW1 2813   5.953   6.243   5.015 -0.3922  1.0178 -0.5220
  638SOL    HW2 2814   5.858   6.170   4.904 -1.5735  0.0229  1.1092
  639SOL     OW 2815   0.474   2.233   3.321  0.1148  1.0789 -0.8400
  639SOL    HW1 2816   0.527   2.313   3.295 -0.0282  1.4336 -0.0776
  639SOL    HW2 2817   0.448   2.241   3.417 -3.3857  2.0844 -1.7446
  640SOL     OW 2818   2.974   6.023   4.194  0.3356 -1.0917 -0.0020
  640SOL    HW1 2819   2.993   6.098   4.257  0.9045 -0.0533 -1.3609
  640SOL    HW2 2820   2.984   6.055   4.100 -2.1786 -2.1295 -0.7024
  641SOL     OW 2821   4.880   4.359   0.254 -0.3975 -0.1030 -0.3610
  641SOL    HW1 2822   4.784   4.387   0.268 -0.1089  0.4244  0.6770
  641SOL    HW2 2823   4.883   4.263   0.228 -1.1879 -0.2915  0.2006
  642SOL     OW 2824   0.455   1.016   2.421  0.6244 -0.3321 -0.3889
  642SOL    HW1 2825   0.375   0.965   2.391  0.9238 -1.5562  0.7632
  642SOL    HW2 2826   0.494   1.067   2.344  0.1089 -1.5816 -1.5067
  643SOL     OW 2827   0.536   6.630   1.999 -0.1599 -0.1579 -0.3990
  643SOL    HW1 2828   0.530   6.704   1.932 -0.0110  0.6622  0.4679
  643SOL    HW2 2829   0.632   6.606   2.015 -0.1835 -0.1935 -0.3080
  644SOL     OW 2830   0.644   6.722   1.198 -0.1773 -0.4734  0.0502
  644SOL    HW1 2831   0.717   6.784   1.171  0.7714 -0.3642  2.6121
  644SOL    HW2 2832   0.556   6.768   1.190  0.3347  0.5297  0.0843
  645SOL     OW 2833   3.476   2.616   6.100 -0.4505 -0.0520 -0.7518
  645SOL    HW1 2834   3.496   2.519   6.109  0.4909  0.2412  0.5326
  645SOL    HW2 2835   3.377   2.629   6.094 -0.7496 -0.9580  1.3938
  646SOL     OW 2836   6.421   0.962   0.907  0.3381 -0.1885  0.3824
  646SOL    HW1 2837   6.323   0.941   0.903 -0.0539  1.6798 -0.8107
  646SOL    HW2 2838   6.434   1.061   0.912  2.1669 -0.1987 -2.0283
  647SOL     OW 2839   5.643   3.543   2.761  0.0978  0.2054 -0.2261
  647SOL    HW1 2840   5.595   3.565   2.846 -0.1509 -1.4148  0.0990
  647SOL    HW2 2841   5.733   3.587   2.761  0.5940 -0.7160  1.4601
  648SOL     OW 2842   1.637   1.395   3.244 -0.1669  0.0792 -0.0770
  648SOL    HW1 2843   1.687   1.409   3.329 -1.0806 -1.1462  0.6837
  648SOL    HW2 2844   1.542   1.423   3.256 -0.1096  0.7064 -0.9704
  649SOL     OW 2845   5.340   2.089   6.633 -0.7544 -0.4943  0.7312
  649SOL    HW1 2846   5.243   2.112   6.642 -0.4369  1.1531  0.2852
  649SOL    HW2 2847   5.349   2.001   6.587 -2.0354 -0.9282  1.2533
  650SOL     OW 2848   0.540   4.068   4.983  0.6083  0.1995  0.7060
  650SOL    HW1 2849   0.568   4.161   4.959  1.3399 -0.3466 -0.7174
  650SOL    HW2 2850   0.619   4.017   5.018  0.5863 -0.3008  0.0637
  651SOL     OW 2851   3.452   3.940   6.661  0.3638  0.4575 -0.2733
  651SOL    HW1 2852   3.374   3.976   6.610 -0.3974 -1.1530 -0.3017
  651SOL    HW2 2853   3.530   3.930   6.600 -0.3127 -0.7345 -0.9689
  652SOL     OW 2854   4.978   6.390   5.178 -0.4678 -0.2090  0.3904
  652SOL    HW1 2855   4.981   6.304   5.128  2.0517  0.7837 -1.4049
  652SOL    HW2 2856   4.896   6.441   5.152  0.9001  0.4605 -3.3668
  653SOL     OW 2857   3.676   0.067   2.527 -0.6019  0.8203 -0.7311
  653SOL    HW1 2858   3.715   0.138   2.468 -0.5475 -1.4723 -3.7419
  653SOL    HW2 2859   3.749   0.020   2.576 -0.4876  1.7603  0.0288
  654SOL     OW 2860   5.660   3.559   4.784 -0.2498 -0.4703  0.0458
  654SOL    HW1 2861   5.587   3.502   4.745 -0.3515 -0.3808  0.1036
  654SOL    HW2 2862   5.619   3.635   4.834 -0.1266 -0.8479  0.7336
  655SOL     OW 2863   1.419   4.597   2.862  0.1137 -0.3885  0.1664
  655SOL    HW1 2864   1.372   4.606   2.775 -0.8568  0.0621  0.7241
  655SOL    HW2 2865   1.441   4.687   2.899  2.4789 -0.5681 -0.6090
  656SOL     OW 2866   0.815   1.086   0.484 -0.3080  0.2031 -0.3745
  656SOL    HW1 2867   0.893   1.088   0.546 -0.5298  0.5864 -0.1033
  656SOL    HW2 2868   0.819   1.164   0.422  0.4685 -0.7386 -1.5451
  657SOL     OW 2869   3.287   5.838   6.262  0.5903 -0.4328  0.4983
  657SOL    HW1 2870   3.385   5.859   6.272  0.4856  0.1993  0.2506
  657SOL    HW2 2871   3.262   5.766   6.326  1.1602 -0.3989  0.7682
  658SOL     OW 2872   4.381   0.216   2.750 -0.5022 -0.2660  0.7979
  658SOL    HW1 2873   4.468   0.228   2.798  0.7602 -1.3294 -1.1009
  658SOL    HW2 2874   4.316   0.168   2.809  0.4071 -0.0029  2.0375
  659SOL     OW 2875   4.295   2.257   0.633 -0.1531  0.3519 -0.6100
  659SOL    HW1 2876   4.203   2.260   0.672 -0.2286  1.9591 -0.8258
  659SOL    HW2 2877   4.322   2.162   0.618 -2.1511 -0.1529 -1.4019
  660SOL     OW 2878   2.765   4.933   1.992  0.3483  0.3409  0.2880
  660SOL    HW1 2879   2.764   4.866   2.065  1.7933  0.8473  0.8182
  660SOL    HW2 2880   2.706   4.903   1.917  0.1263 -0.9719  0.9712
  661SOL     OW 2881   2.064   6.161   6.496 -0.0685  0.2619 -0.5736
  661SOL    HW1 2882   2.028   6.087   6.438 -0.4014  0.6720 -0.8938
  661SOL    HW2 2883   2.153   6.190   6.461  0.2811 -0.3000 -0.1718
  662SOL     OW 2884   2.204   0.802   1.534 -0.3743  0.3384  0.0733
  662SOL    HW1 2885   2.292   0.758   1.521 -1.7997 -2.8475  0.3903
  662SOL    HW2 2886   2.217   0.891   1.579  2.6156 -0.0863  0.2117
  663SOL     OW 2887   4.845   5.824   5.495 -0.2249 -0.1668  0.3919
  663SOL    HW1 2888   4.934   5.781   5.478 -0.6313 -0.4121 -1.2613
  663SOL    HW2 2889   4.818   5.807   5.590  0.3573 -2.2313  0.2497
  664SOL     OW 2890   0.860   2.790   1.382  0.5054  0.4157  0.0024
  664SOL    HW1 2891   0.851   2.735   1.299  0.3288 -0.3898  0.5405
  664SOL    HW2 2892   0.772   2.834   1.403  0.5255  0.5445 -0.1882
  665SOL     OW 2893   2.675   4.235   0.425 -0.5336  0.0335  0.6468
  665SOL    HW1 2894   2.714   4.256   0.336  2.6188 -1.6766  1.4953
  665SOL    HW2 2895   2.588   4.188   0.413  0.6419 -1.7447 -1.6240
  666SOL     OW 2896   1.454   3.552   2.203 -0.6838 -0.2886  0.3836
  666SOL    HW1 2897   1.505   3.530   2.120  1.4924 -0.8632  1.7780
  666SOL    HW2 2898   1.497   3.507   2.282 -1.9443  1.1851  2.0137
  667SOL     OW 2899   5.466   1.814   1.174  0.1289 -0.1277 -0.5099
  667SOL    HW1 2900   5.409   1.786   1.252 -0.0167 -0.0051 -0.5720
  667SOL    HW2 2901   5.415   1.879   1.118  0.8204  0.9810  0.1336
  668SOL     OW 2902   5.288   2.252   5.377  0.8293 -0.5297 -0.0736
  668SOL    HW1 2903   5.336   2.338   5.395  0.5562  0.1721 -2.3266
  668SOL    HW2 2904   5.196   2.257   5.416  0.9033  0.1186  0.0383
  669SOL     OW 2905   1.370   1.032   6.413  0.5067  0.3263  0.1501
  669SOL    HW1 2906   1.373   0.964   6.341 -0.5138 -0.4039  0.7760
  669SOL    HW2 2907   1.436   1.008   6.484  1.4303  0.9841 -0.4665
  670SOL     OW 2908   4.805   6.651   6.361 -0.7652 -0.0879 -0.2235
  670SOL    HW1 2909   4.850   6.639   6.450 -0.5568  2.5906  0.1154
  670SOL    HW2 2910   4.852   6.723   6.310 -1.7469 -0.6086 -1.9329
  671SOL     OW 2911   4.668   6.172   2.674 -0.5158 -0.2123 -0.4175
  671SOL    HW1 2912   4.750   6.203   2.722 -1.4436 -0.9721  1.8147
  671SOL    HW2 2913   4.630   6.093   2.722 -1.6322 -0.9475 -2.3907
  672SOL     OW 2914   6.403   0.393   5.129 -1.0334 -0.0683  0.1439
  672SOL    HW1 2915   6.402   0.301   5.089  0.2531 -0.9568  2.0286
  672SOL    HW2 2916   6.327   0.402   5.193  0.1059 -0.6670  1.6418
  673SOL     OW 2917   6.888   4.698   3.970  0.8772  0.1205 -0.0178
  673SOL    HW1 2918   6.832   4.616   3.978  1.6765 -0.3099  1.5049
  673SOL    HW2 2919   6.840   4.766   3.915  0.3922 -1.5120 -1.7191
  674SOL     OW 2920   4.209   0.348   5.771  0.1234  0.2937  0.4252
  674SOL    HW1 2921   4.133   0.289   5.795  0.1924  0.3452  0.7697
  674SOL    HW2 2922   4.289   0.325   5.827  0.4818 -0.0212 -0.1986
  675SOL     OW 2923   2.952   6.665   2.335  0.2002  0.5764  0.0325
  675SOL    HW1 2924   2.995   6.752   2.356 -0.5790  0.9362  0.1590
  675SOL    HW2 2925   2.855   6.679   2.316 -0.0615 -0.3344  0.6160
  676SOL     OW 2926   0.753   1.678   0.976  0.6337 -0.1846  0.2922
  676SOL    HW1 2927   0.763   1.722   0.887  0.2639 -0.9806 -0.1558
  676SOL    HW2 2928   0.722   1.745   1.044 -2.1227 -0.1949 -0.8502
  677SOL     OW 2929   5.797   5.493   1.416  0.5957 -0.2789 -0.3045
  677SOL    HW1 2930   5.797   5.572   1.355  1.4211  0.7604  0.9873
  677SOL    HW2 2931   5.705   5.455   1.421  0.5108 -0.4356 -2.2024
  678SOL     OW 2932   2.053   3.124   0.345 -0.3963  0.0008  0.1441
  678SOL    HW1 2933   2.013   3.080   0.425 -1.2036  0.8171  0.1947
  678SOL    HW2 2934   1.995   3.107   0.265 -0.8161  1.1139  0.2008
  679SOL     OW 2935   5.486   3.429   4.618 -0.2511 -0.3662 -0.0685
  679SOL    HW1 2936   5.400   3.462   4.580  0.4414  0.5570 -0.8881
  679SOL    HW2 2937   5.469   3.347   4.673 -1.7781  0.3693  0.6153
  680SOL     OW 2938   3.682   4.203   5.820  0.1875  0.0780 -0.2248
  680SOL    HW1 2939   3.699   4.133   5.750  1.7322 -1.0012  1.1530
  680SOL    HW2 2940   3.768   4.232   5.861 -0.6761  0.4471  1.4471
  681SOL     OW 2941   1.110   6.279   6.131  0.0206  0.1927  0.5391
  681SOL    HW1 2942   1.166   6.225   6.069  1.2944  1.7022  0.3119
  681SOL    HW2 2943   1.054   6.218   6.187  2.1155 -1.4250  0.9904
  682SOL     OW 2944   0.834   6.977   4.315  0.1752 -0.3758 -0.6565
  682SOL    HW1 2945   0.799   7.042   4.382  0.5827 -1.0621  0.2459
  682SOL    HW2 2946   0.814   6.884   4.345 -0.7687 -0.6839 -2.1377
  683SOL     OW 2947   2.801   3.502   1.216  0.0907  0.0637  0.1984
  683SOL    HW1 2948   2.855   3.421   1.239  0.2439  0.1702  0.2216
  683SOL    HW2 2949   2.806   3.567   1.291  1.5900  0.9325 -0.5815
  684SOL     OW 2950   4.806   6.512   0.470 -0.5976 -0.8254 -0.4008
  684SOL    HW1 2951   4.821   6.514   0.569 -1.3449 -0.2639 -0.2908
  684SOL    HW2 2952   4.891   6.487   0.424  0.3779  1.1374  0.2563
  685SOL     OW 2953   5.230   5.590   1.366 -0.2334 -0.3180  0.7457
  685SOL    HW1 2954   5.171   5.652   1.417 -0.3293 -1.4831  2.1185
  685SOL    HW2 2955   5.201   5.496   1.382  0.4831 -0.7828 -0.5426
  686SOL     OW 2956   1.973   5.732   6.760 -0.0756  0.0426  0.0032
  686SOL    HW1 2957   1.970   5.732   6.860  1.4622 -1.1454  0.0919
  686SOL    HW2 2958   2.044   5.794   6.729 -1.4622  1.4652 -0.4499
  687SOL     OW 2959   2.905   5.086   4.968  0.5469  0.4142  0.0564
  687SOL    HW1 2960   2.948   4.997   4.955 -0.3125 -0.1464  0.8915
  687SOL    HW2 2961   2.957   5.139   5.035  0.6877  0.2743  0.0579
  688SOL     OW 2962   3.536   0.639   2.138  0.1133 -0.2372  0.5124
  688SOL    HW1 2963   3.469   0.628   2.212  0.7095 -0.2357  1.0655
  688SOL    HW2 2964   3.587   0.554   2.128 -0.5049 -0.5021 -0.4449
  689SOL     OW 2965   5.733   6.815   2.424 -0.1400  0.8957  0.5758
  689SOL    HW1 2966   5.716   6.842   2.518 -0.6936  0.4883  0.6018
  689SOL    HW2 2967   5.651   6.833   2.369 -0.3060 -0.1096  0.4650
  690SOL     OW 2968   3.795   6.095   0.444 -0.2036 -0.0943 -0.4324
  690SOL    HW1 2969   3.879   6.047   0.469 -0.5569 -0.7724 -0.5133
  690SOL    HW2 2970   3.721   6.028   0.431 -1.5627  0.6482  2.6595
  691SOL     OW 2971   6.930   6.968   1.370  0.0587 -0.5841 -0.3910
  691SOL    HW1 2972   6.961   7.060   1.396 -0.1364  0.6231 -3.8761
  691SOL    HW2 2973   6.857   6.976   1.303 -2.5786 -3.4014  1.8807
  692SOL     OW 2974   1.959   3.496   3.324 -0.0228 -0.4228  0.2007
  692SOL    HW1 2975   2.010   3.582   3.321  0.3287 -0.6005  0.9711
  692SOL    HW2 2976   2.021   3.419   3.309 -0.5650 -0.5028 -2.1041
  693SOL     OW 2977   1.369   3.466   5.286 -0.0921  0.3500  0.6123
  693SOL    HW1 2978   1.289   3.450   5.344 -0.0984  1.1033  0.8211
  693SOL    HW2 2979   1.421   3.382   5.277  0.0930  0.2923  1.9893
  694SOL     OW 2980   4.372   1.705   6.901  0.4305 -0.1538  0.3654
  694SOL    HW1 2981   4.380   1.608   6.923 -1.6010 -0.5912 -0.6547
  694SOL    HW2 2982   4.297   1.745   6.954 -0.4884  0.2201 -1.1883
  695SOL     OW 2983   6.341   3.375   1.778  0.2213 -0.2406 -0.6358
  695SOL    HW1 2984   6.249   3.354   1.744  0.7887  0.1600 -2.5247
  695SOL    HW2 2985   6.352   3.336   1.870 -1.2161 -1.8174 -1.0790
  696SOL     OW 2986   5.219   2.584   2.878  0.5702 -0.3192  0.7705
  696SOL    HW1 2987   5.239   2.545   2.967 -0.0260  0.4754  1.2665
  696SOL    HW2 2988   5.192   2.680   2.888 -0.5440 -0.4999 -0.1407
  697SOL     OW 2989   6.108   6.363   1.051  0.1187 -0.1303 -0.2946
  697SOL    HW1 2990   6.165   6.297   1.100  0.5592 -0.7277 -1.5824
  697SOL    HW2 2991   6.023   6.377   1.102  1.5936  1.2034  1.9663
  698SOL     OW 2992   4.508   5.449   2.406 -0.0260  0.2828  0.1320
  698SOL    HW1 2993   4.541   5.540   2.433  1.1537  0.1300 -0.7135
  698SOL    HW2 2994   4.412   5.455   2.378 -0.5410  0.8970  1.9065
  699SOL     OW 2995   0.841   3.542   1.226 -0.2509 -0.3304 -0.4684
  699SOL    HW1 2996   0.932   3.502   1.235 -0.5689 -1.0424 -0.3153
  699SOL    HW2 2997   0.790   3.492   1.155 -1.3260 -1.4926  1.0669
  700SOL     OW 2998   6.045   5.323   3.959  0.4511 -0.3122  0.0765
  700SOL    HW1 2999   6.041   5.230   3.923  1.0369 -0.1960 -0.2988
  700SOL    HW2 3000   6.026   5.320   4.058 -1.2867 -0.6062 -0.2333
  701SOL     OW 3001   6.073   2.761   5.401 -0.2837 -0.3568  0.1178
  701SOL    HW1 3002   6.038   2.850   5.431  0.3362 -0.6567  1.8193
  701SOL    HW2 3003   6.020   2.689   5.444  1.2031 -0.8075  1.2555
  702SOL     OW 3004   1.253   6.685   1.964 -0.0251 -0.0299  0.1702
  702SOL    HW1 3005   1.164   6.668   1.920 -0.3911  1.0659  0.4487
  702SOL    HW2 3006   1.306   6.748   1.907  0.6184 -0.7567 -0.0416
  703SOL     OW 3007   1.027   2.607   1.726  0.3376  0.2348 -0.6771
  703SOL    HW1 3008   0.998   2.701   1.744  2.1764  0.8803 -0.8237
  703SOL    HW2 3009   1.053   2.564   1.813 -0.4000 -0.1169 -0.6238
  704SOL     OW 3010   2.547   5.730   1.997 -0.1383 -0.6876 -0.1381
  704SOL    HW1 3011   2.489   5.761   1.921 -0.6016  0.4209  0.6363
  704SOL    HW2 3012   2.547   5.800   2.069  0.6881 -1.4997  0.6712
  705SOL     OW 3013   3.584   3.408   6.762  0.3056  0.2179 -0.3702
  705SOL    HW1 3014   3.650   3.459   6.707  1.3992 -1.1968 -0.3942
  705SOL    HW2 3015   3.570   3.456   6.849 -0.2362  1.6150 -1.1758
  706SOL     OW 3016   3.361   1.429   0.580  0.0318 -0.0867  0.1063
  706SOL    HW1 3017   3.267   1.405   0.555  0.2385 -0.6030 -0.1908
  706SOL    HW2 3018   3.418   1.348   0.575  0.3515  0.0676  0.9974
  707SOL     OW 3019   0.077   1.343   0.477  0.2638 -0.5467 -0.8015
  707SOL    HW1 3020  -0.002   1.366   0.420  0.1252  0.2859 -0.2887
  707SOL    HW2 3021   0.060   1.256   0.524 -0.2105 -0.5383 -0.9537
  708SOL     OW 3022   0.551   1.125   1.126  0.0782  0.2119 -0.3017
  708SOL    HW1 3023   0.526   1.221   1.113  2.3178  1.2624  2.2347
  708SOL    HW2 3024   0.618   1.098   1.056 -0.3426  0.5462 -0.8420
  709SOL     OW 3025   4.629   5.275   6.826  0.2454  0.4004  0.4903
  709SOL    HW1 3026   4.684   5.339   6.879 -0.9712  2.2963 -0.4058
  709SOL    HW2 3027   4.583   5.325   6.752  0.2069 -1.7657 -1.0242
  710SOL     OW 3028   0.560   6.053   0.865  0.4405  0.0579 -0.8464
  710SOL    HW1 3029   0.625   6.008   0.803  2.1551  1.4206 -0.1398
  710SOL    HW2 3030   0.485   6.093   0.812  0.7539 -0.6070 -1.8106
  711SOL     OW 3031   4.691   1.509   3.426  0.0065  0.0802 -0.2058
  711SOL    HW1 3032   4.681   1.606   3.404 -1.0012 -0.1368 -0.7392
  711SOL    HW2 3033   4.627   1.484   3.499  1.4013  0.1646  1.1013
  712SOL     OW 3034   2.212   6.009   3.583 -0.2669  0.1690 -0.2283
  712SOL    HW1 3035   2.137   5.944   3.569 -3.5271  3.6873 -0.3933
  712SOL    HW2 3036   2.236   6.012   3.680  0.1703 -1.3811 -0.2506
  713SOL     OW 3037   6.028   3.466   4.489 -0.1649 -0.4336 -0.6100
  713SOL    HW1 3038   6.069   3.400   4.552  1.2884 -1.6396 -2.7016
  713SOL    HW2 3039   5.930   3.447   4.479 -0.0125 -1.4724 -0.2271
  714SOL     OW 3040   6.942   3.900   3.495  1.2257  0.4193  0.4918
  714SOL    HW1 3041   6.882   3.858   3.563  0.7983  0.3779  0.0930
  714SOL    HW2 3042   6.976   3.829   3.433  2.7940  0.2189  1.5409
  715SOL     OW 3043   2.914   5.984   6.886 -0.1543  0.1204 -0.0798
  715SOL    HW1 3044   2.895   6.047   6.811  1.0071 -0.1124 -0.5887
  715SOL    HW2 3045   2.862   5.900   6.872 -0.2819  0.2491 -0.3861
  716SOL     OW 3046   4.795   4.050   1.695 -0.5994 -0.4303  0.4788
  716SOL    HW1 3047   4.724   3.981   1.682 -0.3750 -0.9005  1.5683
  716SOL    HW2 3048   4.752   4.140   1.706 -0.9338 -0.4885 -0.3004
  717SOL     OW 3049   6.533   0.344   3.914 -0.3301  0.2011  0.0140
  717SOL    HW1 3050   6.502   0.333   3.819 -2.0988  1.2832  0.4223
  717SOL    HW2 3051   6.504   0.433   3.949  0.1332 -0.2540  1.6422
  718SOL     OW 3052   6.906   1.124   6.625 -0.0257  0.5226 -0.2793
  718SOL    HW1 3053   6.929   1.028   6.607 -0.2211  0.6100 -1.0008
  718SOL    HW2 3054   6.867   1.165   6.543  0.2231  1.2752 -0.0268
  719SOL     OW 3055   6.828   1.433   1.022 -0.3087  0.2354  0.2502
  719SOL    HW1 3056   6.808   1.483   1.106 -0.8227 -0.7209  0.7081
  719SOL    HW2 3057   6.804   1.490   0.943 -0.8525  0.7203  0.7554
  720SOL     OW 3058   0.313   3.287   5.877  0.8868 -0.4670 -0.0104
  720SOL    HW1 3059   0.280   3.277   5.971  0.0260  1.0721 -0.1221
  720SOL    HW2 3060   0.253   3.234   5.816  0.4155 -0.1036  0.1295
  721SOL     OW 3061   4.522   2.947   5.898  0.2078 -0.4452  0.6539
  721SOL    HW1 3062   4.533   3.046   5.887  1.0401 -0.6335 -0.4727
  721SOL    HW2 3063   4.539   2.903   5.810 -3.0019 -1.3886  0.4153
  722SOL     OW 3064   3.391   2.007   0.305 -0.7379  0.1005  0.1240
  722SOL    HW1 3065   3.424   1.942   0.237 -0.1746  0.0003  0.4864
  722SOL    HW2 3066   3.463   2.072   0.327 -1.1185  0.5056  0.1759
  723SOL     OW 3067   3.891   1.501   6.036  0.1434  0.4337  0.0378
  723SOL    HW1 3068   3.967   1.531   6.093  0.0881 -1.4674  1.2167
  723SOL    HW2 3069   3.869   1.572   5.969  3.2838  0.8812 -0.7067
  724SOL     OW 3070   0.631   0.310   2.666 -0.1615  0.2524 -0.2914
  724SOL    HW1 3071   0.667   0.231   2.716 -0.3764  0.9110  0.9523
  724SOL    HW2 3072   0.653   0.301   2.569  2.6918  0.2090  0.2516
  725SOL     OW 3073   1.008   4.903   0.166 -0.1588  0.2207  0.0329
  725SOL    HW1 3074   1.048   4.977   0.112  0.8345 -0.3547 -0.0515
  725SOL    HW2 3075   0.941   4.940   0.229  0.6366  1.2585  0.2938
  726SOL     OW 3076   2.444   6.323   1.233 -0.3973  0.3448 -0.2321
  726SOL    HW1 3077   2.540   6.318   1.204 -0.5274  1.7638 -1.0258
  726SOL    HW2 3078   2.433   6.275   1.320  0.5780 -1.6711 -1.1672
  727SOL     OW 3079   3.581   4.860   1.657 -0.6106 -0.1551 -0.0567
  727SOL    HW1 3080   3.555   4.781   1.714 -0.9997 -0.6085 -0.8367
  727SOL    HW2 3081   3.580   4.832   1.561  1.4056  0.2182 -0.2173
  728SOL     OW 3082   6.093   3.390   0.293  0.4447  0.0782  0.2321
  728SOL    HW1 3083   6.081   3.473   0.238 -1.4495 -0.5383 -0.3425
  728SOL    HW2 3084   6.097   3.416   0.390  0.4919  0.8815  0.0273
  729SOL     OW 3085   0.748   1.147   5.962  0.0049 -0.5135  0.5387
  729SOL    HW1 3086   0.691   1.144   6.044  0.3513  0.0749  0.8006
  729SOL    HW2 3087   0.693   1.121   5.883 -1.2765  2.1949  0.4392
  730SOL     OW 3088   2.417   6.838   2.326  0.3379 -0.4179 -0.1445
  730SOL    HW1 3089   2.324   6.856   2.293  1.0274  1.1880 -1.3455
  730SOL    HW2 3090   2.412   6.786   2.411 -1.7420  1.0476  0.7337
  731SOL     OW 3091   3.200   6.409   1.010  0.1828  0.0301  0.1639
  731SOL    HW1 3092   3.146   6.346   0.954 -1.1137  0.4322  0.9177
  731SOL    HW2 3093   3.297   6.387   1.001  0.2006  1.0478 -3.4820
  732SOL     OW 3094   0.156   0.587   5.205  0.0974 -0.1281  0.1754
  732SOL    HW1 3095   0.252   0.614   5.214 -0.1977  0.8219  0.4440
  732SOL    HW2 3096   0.106   0.656   5.154 -0.1219 -1.3534 -1.3674
  733SOL     OW 3097   1.350   0.576   6.826  0.0329 -0.3061  0.4085
  733SOL    HW1 3098   1.374   0.479   6.832  0.3186 -0.2935 -0.3902
  733SOL    HW2 3099   1.432   0.632   6.841 -0.0888 -0.1944  0.6549
  734SOL     OW 3100   3.406   2.976   1.261  0.2912 -0.8010  0.7758
  734SOL    HW1 3101   3.315   3.014   1.274 -0.2738 -2.1191  0.8564
  734SOL    HW2 3102   3.472   3.028   1.314 -0.1677  1.0544 -0.3664
  735SOL     OW 3103   6.164   5.923   5.144 -0.8095 -0.1343  0.1464
  735SOL    HW1 3104   6.124   5.865   5.074  1.1250 -1.5607  0.1331
  735SOL    HW2 3105   6.208   5.866   5.215 -0.7483  1.2870  1.3080
  736SOL     OW 3106   0.367   6.795   3.258 -0.1285 -0.5424 -0.2137
  736SOL    HW1 3107   0.409   6.748   3.335 -0.0341  0.9807  0.7206
  736SOL    HW2 3108   0.283   6.748   3.232  0.4851 -1.7840 -0.0035
  737SOL     OW 3109   4.378   5.141   2.333 -0.1121  0.3228  0.4209
  737SOL    HW1 3110   4.437   5.222   2.336 -1.4141  1.2955  0.7941
  737SOL    HW2 3111   4.406   5.076   2.402 -0.3104  1.3929  1.5405
  738SOL     OW 3112   4.990   1.219   2.871 -0.2993  0.0325  0.3006
  738SOL    HW1 3113   5.049   1.141   2.891  0.9980  0.9699  0.3284
  738SOL    HW2 3114   5.033   1.302   2.908 -0.8090  0.9862 -1.1714
  739SOL     OW 3115   1.118   6.720   6.001 -0.3558 -0.3670 -0.2089
  739SOL    HW1 3116   1.036   6.664   6.010  0.3402 -1.3556  0.2108
  739SOL    HW2 3117   1.115   6.770   5.915 -0.2859 -2.2638 -1.3708
  740SOL     OW 3118   1.922   4.637   1.440 -0.3279 -0.5715 -0.7575
  740SOL    HW1 3119   1.881   4.724   1.411 -0.5821 -0.6942 -0.7758
  740SOL    HW2 3120   1.985   4.653   1.516 -0.9955 -0.4712 -0.2099
  741SOL     OW 3121   0.766   5.874   1.952 -0.2285 -0.1642  0.0796
  741SOL    HW1 3122   0.833   5.929   2.000 -0.2142  0.4323 -0.6005
  741SOL    HW2 3123   0.695   5.933   1.913 -1.0944 -0.7705  0.6933
  742SOL     OW 3124   3.489   1.565   0.785 -0.4699  0.4899  0.2294
  742SOL    HW1 3125   3.513   1.500   0.857  3.5765  0.3233 -1.0303
  742SOL    HW2 3126   3.463   1.516   0.702  1.1834  0.4308 -0.2871
  743SOL     OW 3127   4.122   6.343   0.320  0.0328 -0.0936 -0.4178
  743SOL    HW1 3128   4.042   6.384   0.363 -1.3330 -0.2880 -2.6369
  743SOL    HW2 3129   4.094   6.275   0.254  2.1395 -1.5466  0.0650
  744SOL     OW 3130   2.091   5.150   5.195 -0.7510  0.3671 -0.2641
  744SOL    HW1 3131   2.119   5.089   5.120 -1.9266  0.4231 -0.7788
  744SOL    HW2 3132   2.123   5.243   5.176  0.9677 -0.0419  0.4763
  745SOL     OW 3133   6.375   4.193   1.495  0.2948  0.1441 -0.6515
  745SOL    HW1 3134   6.452   4.211   1.556  0.6395 -0.8124 -0.7768
  745SOL    HW2 3135   6.327   4.110   1.526 -0.7116  0.7422 -0.5585
  746SOL     OW 3136   3.917   0.104   3.727  0.1117  0.0517  0.2624
  746SOL    HW1 3137   3.911   0.183   3.666 -0.8536 -0.6521 -0.5878
  746SOL    HW2 3138   3.866   0.028   3.688 -1.0821 -0.2458  2.2471
  747SOL     OW 3139   0.488   3.347   2.264  0.5251 -0.0963  0.6336
  747SOL    HW1 3140   0.559   3.411   2.236 -1.4524  2.5924  1.3304
  747SOL    HW2 3141   0.459   3.293   2.184  1.3987  0.7723 -0.3045
  748SOL     OW 3142   3.237   5.497   4.730  0.3516  0.4285 -0.7060
  748SOL    HW1 3143   3.236   5.577   4.790 -1.6234 -0.0782  0.0298
  748SOL    HW2 3144   3.231   5.413   4.785  0.0023 -0.1104 -1.5348
  749SOL     OW 3145   4.468   2.513   3.246 -0.2426 -0.3052  0.2041
  749SOL    HW1 3146   4.475   2.583   3.317  0.7971  0.9855 -1.0972
  749SOL    HW2 3147   4.508   2.548   3.161  1.6807 -2.9728 -0.1272
  750SOL     OW 3148   0.336   4.801   3.755 -0.1375 -0.8040 -0.1408
  750SOL    HW1 3149   0.345   4.899   3.772 -1.2273 -0.3812 -1.7053
  750SOL    HW2 3150   0.382   4.778   3.669  1.9109 -2.0991  1.2273
  751SOL     OW 3151   2.445   0.216   4.299  0.2422  0.2372 -0.0831
  751SOL    HW1 3152   2.526   0.273   4.308  2.2126 -2.3882  0.1618
  751SOL    HW2 3153   2.442   0.177   4.207 -1.3113  1.0402 -0.3995
  752SOL     OW 3154   1.239   2.913   0.300  0.7495  0.2982  0.5020
  752SOL    HW1 3155   1.239   2.889   0.397  0.3722  0.3377  0.5162
  752SOL    HW2 3156   1.178   2.852   0.251  0.7430  0.4401  0.3332
  753SOL     OW 3157   5.371   2.693   4.729  0.0899 -0.6093 -0.1288
  753SOL    HW1 3158   5.412   2.677   4.639 -1.0133  1.0687 -0.9796
  753SOL    HW2 3159   5.397   2.619   4.791  0.8856 -1.8124 -1.8177
  754SOL     OW 3160   2.985   1.060   6.220  0.3051  0.3181  0.3162
  754SOL    HW1 3161   2.978   1.146   6.270  0.3053  0.0791  0.7287
  754SOL    HW2 3162   2.918   1.060   6.145  0.8408  1.0001 -0.1801
  755SOL     OW 3163   5.183   2.773   4.107 -0.1501 -0.4479 -0.2566
  755SOL    HW1 3164   5.216   2.769   4.012  1.5438  0.5572  0.2404
  755SOL    HW2 3165   5.189   2.868   4.140 -1.7215 -0.5938  0.5425
  756SOL     OW 3166   5.960   2.988   5.515  0.6335  0.0567 -0.5624
  756SOL    HW1 3167   5.883   3.021   5.461  1.7957 -1.0572 -3.0492
  756SOL    HW2 3168   6.008   3.065   5.556 -0.6496  0.8876 -0.5628
  757SOL     OW 3169   2.374   5.339   4.352 -0.1692 -0.4150 -0.6729
  757SOL    HW1 3170   2.451   5.281   4.379 -1.1278 -1.9837 -1.1631
  757SOL    HW2 3171   2.367   5.417   4.414  1.9065 -0.1279 -0.7259
  758SOL     OW 3172   3.180   4.624   6.133  0.8217 -0.0306  0.2124
  758SOL    HW1 3173   3.183   4.652   6.229  3.1360  0.3724  0.0925
  758SOL    HW2 3174   3.207   4.701   6.076  0.8546 -0.6680 -0.6427
  759SOL     OW 3175   5.878   3.714   0.385  0.5241 -0.2046 -0.5771
  759SOL    HW1 3176   5.812   3.659   0.436 -0.6001  1.0606 -0.6270
  759SOL    HW2 3177   5.834   3.755   0.306  0.9550  1.7991  0.1640
  760SOL     OW 3178   2.692   4.665   5.419 -0.2734  0.0106  0.4424
  760SOL    HW1 3179   2.760   4.630   5.484 -1.3879  0.2670  1.8031
  760SOL    HW2 3180   2.605   4.617   5.433 -1.1277  1.5641  0.6179
  761SOL     OW 3181   2.686   0.667   1.019 -0.4143 -0.2664  0.0907
  761SOL    HW1 3182   2.620   0.722   1.069 -1.3776  0.5932 -1.9896
  761SOL    HW2 3183   2.637   0.607   0.955  0.7535 -0.9769 -0.1629
  762SOL     OW 3184   2.392   1.330   2.341  0.3952  0.4982  0.7365
  762SOL    HW1 3185   2.377   1.302   2.246  0.1794 -1.4747  1.2986
  762SOL    HW2 3186   2.429   1.253   2.393  0.7293  1.6044  2.2136
  763SOL     OW 3187   2.575   3.223   5.677 -0.4376  0.0650 -0.5434
  763SOL    HW1 3188   2.631   3.148   5.712  1.0602  0.7504 -1.3854
  763SOL    HW2 3189   2.634   3.295   5.640 -1.8105  1.9431  0.7105
  764SOL     OW 3190   3.389   2.761   0.082 -0.5883 -0.0796 -0.2792
  764SOL    HW1 3191   3.475   2.813   0.083 -1.2514  1.0475  0.8906
  764SOL    HW2 3192   3.377   2.715   0.170 -1.7702  0.8155  0.0549
  765SOL     OW 3193   1.915   5.106   6.685 -0.1344  0.1219  0.0518
  765SOL    HW1 3194   1.896   5.030   6.623 -0.2173  2.0504 -2.4367
  765SOL    HW2 3195   1.839   5.171   6.683  0.9777  1.4849  0.1566
  766SOL     OW 3196   3.978   4.994   0.932  0.1582  0.2066 -0.5779
  766SOL    HW1 3197   4.019   4.912   0.892  0.6969 -0.6534  1.5963
  766SOL    HW2 3198   4.018   5.010   1.022 -1.4553  1.6553 -0.0734
  767SOL     OW 3199   3.587   5.867   6.034 -0.3097  0.5004 -0.1208
  767SOL    HW1 3200   3.605   5.948   6.089  1.2853  0.5057 -0.5883
  767SOL    HW2 3201   3.623   5.786   6.081 -1.1349  0.1700 -0.0441
  768SOL     OW 3202   1.148   1.777   4.013  0.3341  0.1805 -0.5198
  768SOL    HW1 3203   1.174   1.847   4.080 -1.8321  0.6772 -0.1228
  768SOL    HW2 3204   1.139   1.689   4.060 -0.1795  0.3196 -0.3529
  769SOL     OW 3205   1.436   6.134   5.413 -0.0005  0.0873  0.7604
  769SOL    HW1 3206   1.345   6.144   5.372 -0.3236 -2.5593  0.6757
  769SOL    HW2 3207   1.497   6.203   5.375 -1.4121  0.5160 -0.8513
  770SOL     OW 3208   3.639   6.337   1.922  0.0606 -0.3684 -0.0727
  770SOL    HW1 3209   3.620   6.253   1.871  0.8691 -0.5983 -0.0112
  770SOL    HW2 3210   3.680   6.313   2.011 -0.4717  0.0627  0.2955
  771SOL     OW 3211   2.174   6.889   3.316 -0.1704 -0.2776  0.0194
  771SOL    HW1 3212   2.101   6.876   3.249 -0.5360  0.3255  0.2938
  771SOL    HW2 3213   2.262   6.868   3.273 -0.3516  0.5682 -0.8026
  772SOL     OW 3214   2.395   0.248   3.313  0.2114 -0.5051 -0.6575
  772SOL    HW1 3215   2.475   0.188   3.304  0.8942  0.0361  1.1647
  772SOL    HW2 3216   2.424   0.343   3.300 -0.6781 -0.4598 -2.5741
  773SOL     OW 3217   6.518   0.517   5.729  0.5941 -0.0601 -0.6640
  773SOL    HW1 3218   6.494   0.475   5.817 -1.1511  0.2314 -0.9621
  773SOL    HW2 3219   6.599   0.574   5.740  0.5240 -0.1986  0.6994
  774SOL     OW 3220   5.187   5.455   3.389 -0.2584  0.1085  0.4355
  774SOL    HW1 3221   5.128   5.535   3.401  0.2565  0.5309  0.2139
  774SOL    HW2 3222   5.281   5.486   3.372  0.1204 -0.5491  1.2451
  775SOL     OW 3223   6.762   3.428   5.226  0.3952 -0.4188 -0.4237
  775SOL    HW1 3224   6.708   3.453   5.306 -0.0649 -1.4646 -0.3883
  775SOL    HW2 3225   6.702   3.385   5.158  1.3311 -2.8032  0.1422
  776SOL     OW 3226   0.493   1.497   6.648  0.0578 -0.4637 -0.5319
  776SOL    HW1 3227   0.529   1.479   6.740  0.4242 -0.1991 -0.6207
  776SOL    HW2 3228   0.513   1.420   6.588  0.3128 -0.3984 -0.5313
  777SOL     OW 3229   4.067   6.471   5.307 -0.7865 -0.6054  0.0149
  777SOL    HW1 3230   4.005   6.432   5.240 -2.3103  1.7156 -0.0380
  777SOL    HW2 3231   4.039   6.564   5.329  2.4573  0.4550  0.3118
  778SOL     OW 3232   6.828   1.650   5.823  0.0193 -0.4604 -0.3240
  778SOL    HW1 3233   6.888   1.573   5.800 -0.0184 -0.6764  0.2790
  778SOL    HW2 3234   6.770   1.625   5.900  1.9309  1.0840  1.7525
  779SOL     OW 3235   5.785   5.581   6.916  0.0059  0.4151  0.0991
  779SOL    HW1 3236   5.726   5.501   6.907 -2.0702  1.9039 -0.1428
  779SOL    HW2 3237   5.818   5.608   6.826 -3.7002  2.9093 -0.7079
  780SOL     OW 3238   0.570   4.317   0.728 -0.5998  0.3168 -0.0794
  780SOL    HW1 3239   0.525   4.240   0.774  0.5803 -0.8715 -0.8520
  780SOL    HW2 3240   0.524   4.336   0.641 -0.9896  0.6159  0.1849
  781SOL     OW 3241   1.385   6.103   4.570 -0.1311 -0.1933 -0.1252
  781SOL    HW1 3242   1.416   6.195   4.596  0.3011  0.3417 -2.3650
  781SOL    HW2 3243   1.285   6.100   4.571 -0.1346 -0.1459  1.3352
  782SOL     OW 3244   5.169   2.207   1.257 -0.2369 -0.2235 -0.6230
  782SOL    HW1 3245   5.085   2.234   1.210 -0.1143 -2.4380 -2.2796
  782SOL    HW2 3246   5.248   2.238   1.204 -0.0581 -0.8589 -0.7276
  783SOL     OW 3247   4.601   1.482   6.919 -0.5517  0.3276  0.1037
  783SOL    HW1 3248   4.505   1.454   6.920 -0.9429  1.4478 -1.8523
  783SOL    HW2 3249   4.659   1.403   6.937 -1.8078 -0.3508  1.3973
  784SOL     OW 3250   3.574   3.213   6.456 -0.4725 -0.9603 -0.3771
  784SOL    HW1 3251   3.670   3.241   6.452  0.2223 -3.2637 -1.2609
  784SOL    HW2 3252   3.532   3.227   6.366 -0.3468 -1.9442 -0.5961
  785SOL     OW 3253   2.170   3.520   4.800  0.3863  0.5476  0.3330
  785SOL    HW1 3254   2.189   3.600   4.857  1.2007 -0.5184  1.6218
  785SOL    HW2 3255   2.153   3.440   4.858 -0.3582 -0.2470 -0.9163
  786SOL     OW 3256   5.854   0.503   4.547  0.2906 -0.0864 -0.2972
  786SOL    HW1 3257   5.835   0.546   4.458  3.2034 -1.4187 -1.7210
  786SOL    HW2 3258   5.823   0.408   4.546 -2.2192  0.6102  1.2672
  787SOL     OW 3259   2.140   3.657   2.522  0.5112  0.5507  0.8308
  787SOL    HW1 3260   2.150   3.585   2.454 -2.6260 -0.5411  1.3381
  787SOL    HW2 3261   2.161   3.745   2.481 -2.3953  0.0840 -2.0699
  788SOL     OW 3262   0.187   3.197   0.765  0.0047 -0.1162 -0.1404
  788SOL    HW1 3263   0.207   3.099   0.757 -1.3035 -0.5592  1.5763
  788SOL    HW2 3264   0.248   3.239   0.832 -1.6356 -0.5239  1.6954
  789SOL     OW 3265   1.503   2.629   5.805 -0.1714 -0.2102 -0.1889
  789SOL    HW1 3266   1.598   2.657   5.813 -0.3970  1.3345 -2.0735
  789SOL    HW2 3267   1.444   2.710   5.800 -1.1476 -0.9721 -3.0598
  790SOL     OW 3268   5.005   4.769   4.968 -0.5735  0.4322 -0.1104
  790SOL    HW1 3269   4.991   4.672   4.947  0.8552  0.1269  0.2789
  790SOL    HW2 3270   5.012   4.820   4.882 -1.7447  0.2813 -0.3209
  791SOL     OW 3271   5.487   3.935   2.642  0.1763 -0.2000 -0.2906
  791SOL    HW1 3272   5.395   3.934   2.603  0.3732 -2.0455 -0.7611
  791SOL    HW2 3273   5.491   3.873   2.720  0.3982  1.7508  1.3551
  792SOL     OW 3274   4.769   4.449   5.364  0.0739  0.2590 -0.7762
  792SOL    HW1 3275   4.764   4.359   5.408  0.3479 -0.8918 -2.9875
  792SOL    HW2 3276   4.854   4.456   5.312  0.0161  1.7954 -0.7122
  793SOL     OW 3277   6.000   6.738   0.130  0.1518  0.7743 -0.2082
  793SOL    HW1 3278   5.944   6.697   0.202 -2.1623  1.9578 -1.2386
  793SOL    HW2 3279   5.973   6.701   0.041  1.8110  0.5715 -0.6723
  794SOL     OW 3280   1.883   1.228   5.237  0.2108 -0.5484 -0.3814
  794SOL    HW1 3281   1.811   1.223   5.306  0.6639 -0.2218  0.1225
  794SOL    HW2 3282   1.939   1.146   5.242  1.5727  0.4085  1.1414
  795SOL     OW 3283   1.891   3.039   3.383 -0.5612 -0.0829 -0.1325
  795SOL    HW1 3284   1.839   2.997   3.309 -1.1941  1.1189 -0.3946
  795SOL    HW2 3285   1.862   3.001   3.471  2.0071 -3.4831 -0.5298
  796SOL     OW 3286   0.833   1.337   6.732 -0.0561  0.0277  0.5438
  796SOL    HW1 3287   0.830   1.357   6.634 -2.1770 -1.1750  0.3008
  796SOL    HW2 3288   0.870   1.416   6.781 -1.2800  1.6416 -1.0111
  797SOL     OW 3289   4.945   5.600   3.116  0.1996  0.0654  0.0369
  797SOL    HW1 3290   4.868   5.651   3.154 -0.2688 -1.6365  1.4755
  797SOL    HW2 3291   4.912   5.532   3.051  0.5831 -0.0640 -0.0267
  798SOL     OW 3292   0.237   0.436   0.146  0.0374 -0.2534 -0.0809
  798SOL    HW1 3293   0.236   0.457   0.048  0.1188  0.9003  0.1499
  798SOL    HW2 3294   0.262   0.518   0.197 -0.3433 -0.7536  0.9346
  799SOL     OW 3295   4.032   6.857   3.471  0.8317  0.7018 -0.0823
  799SOL    HW1 3296   3.943   6.892   3.501  1.0150 -0.7679  2.4907
  799SOL    HW2 3297   4.019   6.773   3.419  0.6996  0.9918 -0.5270
  800SOL     OW 3298   6.836   5.668   1.147 -0.5713  0.4152 -0.0933
  800SOL    HW1 3299   6.918   5.621   1.180  0.4194  1.8547 -0.3976
  800SOL    HW2 3300   6.761   5.603   1.139 -0.7203 -0.2279  4.2279
  801SOL     OW 3301   2.638   6.061   1.374 -0.1892 -0.1652 -0.2193
  801SOL    HW1 3302   2.696   6.007   1.314 -0.8236 -1.5153  0.3547
  801SOL    HW2 3303   2.694   6.104   1.445  0.2267 -0.7384 -0.1927
  802SOL     OW 3304   6.397   0.254   0.118  0.1115 -0.2245  0.2055
  802SOL    HW1 3305   6.394   0.302   0.030  0.5133  0.7662  0.7085
  802SOL    HW2 3306   6.441   0.165   0.107  0.8563  0.2163 -0.4502
  803SOL     OW 3307   6.829   3.826   4.358 -0.4245 -0.5268 -0.3019
  803SOL    HW1 3308   6.823   3.906   4.418  0.8471 -0.7650  0.1707
  803SOL    HW2 3309   6.761   3.759   4.385 -0.9835  0.0698 -0.2034
  804SOL     OW 3310   3.797   4.723   6.655  0.0773  0.7627  0.1073
  804SOL    HW1 3311   3.882   4.709   6.706 -0.1337 -0.3895  0.1778
  804SOL    HW2 3312   3.727   4.661   6.690 -0.1984  0.2368 -1.3055
  805SOL     OW 3313   1.441   4.627   4.119  0.0103 -0.3026 -0.1237
  805SOL    HW1 3314   1.471   4.536   4.144 -1.4703 -0.5468  0.8938
  805SOL    HW2 3315   1.366   4.621   4.053 -0.0368  0.1790 -0.1227
  806SOL     OW 3316   0.895   6.575   2.254  0.0520  0.0241 -0.0873
  806SOL    HW1 3317   0.815   6.621   2.294  0.8950  1.7137 -0.2645
  806SOL    HW2 3318   0.971   6.577   2.319  0.2199 -0.8363 -0.2421
  807SOL     OW 3319   3.036   0.490   6.629 -1.0807  0.7592 -0.7399
  807SOL    HW1 3320   2.945   0.456   6.652 -0.9174 -0.7851 -2.1487
  807SOL    HW2 3321   3.077   0.533   6.709 -2.8880  1.1738  0.0197
  808SOL     OW 3322   6.607   6.877   1.633 -0.7662  0.3348  0.1563
  808SOL    HW1 3323   6.664   6.799   1.606  0.3289  0.5473  1.7537
  808SOL    HW2 3324   6.662   6.961   1.628 -1.5869  0.8562 -0.3605
  809SOL     OW 3325   5.069   2.825   6.947  0.2199 -0.7142 -0.1040
  809SOL    HW1 3326   5.146   2.763   6.962 -0.2967 -1.5937 -0.9888
  809SOL    HW2 3327   5.075   2.864   6.855  1.1388  1.4486  0.7980
  810SOL     OW 3328   5.592   3.036   2.507 -0.2196 -0.0648 -0.2149
  810SOL    HW1 3329   5.609   3.108   2.575  0.5355 -1.4566  1.1494
  810SOL    HW2 3330   5.622   3.067   2.417 -2.5448  2.3719 -0.2679
  811SOL     OW 3331   5.852   5.231   2.265  0.2647  0.3426 -0.4907
  811SOL    HW1 3332   5.868   5.198   2.358 -1.9188  0.7855  0.1073
  811SOL    HW2 3333   5.847   5.153   2.203 -0.8996 -0.1862  0.2345
  812SOL     OW 3334   5.513   3.164   2.925 -0.6268  0.1756  0.2366
  812SOL    HW1 3335   5.550   3.112   3.002  0.9203 -0.1273 -0.6603
  812SOL    HW2 3336   5.451   3.106   2.873  1.3391 -0.9807 -0.9510
  813SOL     OW 3337   3.864   6.140   2.701 -0.1478  0.3182  0.9272
  813SOL    HW1 3338   3.930   6.069   2.678 -0.0474 -0.3680  3.0768
  813SOL    HW2 3339   3.897   6.229   2.669  1.0032 -0.2384  0.5269
  814SOL     OW 3340   6.195   0.226   2.665  0.0250  0.3615 -0.1665
  814SOL    HW1 3341   6.172   0.164   2.739  0.7455 -0.8853 -0.9637
  814SOL    HW2 3342   6.243   0.306   2.702  3.3025 -1.7326  0.4581
  815SOL     OW 3343   5.169   5.482   5.199  0.0817 -0.9583  0.0099
  815SOL    HW1 3344   5.132   5.471   5.107 -0.6523  1.9528 -0.1250
  815SOL    HW2 3345   5.269   5.491   5.193  0.0459 -0.8450 -0.4942
  816SOL     OW 3346   3.462   3.309   3.003 -0.3669 -0.4474 -0.1511
  816SOL    HW1 3347   3.546   3.255   3.005  0.1272  0.3198  0.8747
  816SOL    HW2 3348   3.464   3.371   2.924 -0.2608 -0.8728 -0.4855
  817SOL     OW 3349   6.561   0.939   2.532  0.1983 -0.1345  0.5690
  817SOL    HW1 3350   6.582   0.880   2.454 -1.8421 -0.3742  0.1495
  817SOL    HW2 3351   6.471   0.915   2.569 -0.9375  2.9554  0.1268
  818SOL     OW 3352   1.271   0.952   3.090 -0.0820  0.0099 -0.3712
  818SOL    HW1 3353   1.264   0.925   2.994 -0.7973 -1.0220 -0.0429
  818SOL    HW2 3354   1.349   1.013   3.102  0.8779 -1.0035 -1.3413
  819SOL     OW 3355   5.257   3.126   3.088 -0.7219  0.0832 -0.2029
  819SOL    HW1 3356   5.339   3.102   3.036 -0.3002 -1.4094  1.0747
  819SOL    HW2 3357   5.231   3.049   3.147 -2.0966  1.1302  0.6280
  820SOL     OW 3358   4.748   0.453   2.685 -0.2051  0.0319 -0.2118
  820SOL    HW1 3359   4.763   0.511   2.605 -0.1040 -0.2926 -0.4321
  820SOL    HW2 3360   4.832   0.449   2.740  0.1677 -0.8436 -0.8225
  821SOL     OW 3361   5.070   6.542   0.768  0.1547  0.8066 -0.3842
  821SOL    HW1 3362   5.108   6.587   0.849  2.2343  0.9518 -1.3729
  821SOL    HW2 3363   5.081   6.600   0.688 -2.1725  0.8016 -0.7874
  822SOL     OW 3364   0.889   4.444   5.832  0.2427  0.4789 -0.2865
  822SOL    HW1 3365   0.817   4.392   5.876  1.9341 -1.2944  0.5111
  822SOL    HW2 3366   0.921   4.396   5.750  1.7821  0.2722  0.4131
  823SOL     OW 3367   5.218   5.145   6.968  0.1278 -0.1810  0.6540
  823SOL    HW1 3368   5.252   5.230   6.928 -1.0415  0.0911  0.2009
  823SOL    HW2 3369   5.118   5.147   6.973  0.0622 -1.6075  0.4535
  824SOL     OW 3370   0.160   0.529   5.513 -0.2186 -0.1532  0.2575
  824SOL    HW1 3371   0.101   0.539   5.433  1.1623 -1.9881 -1.0793
  824SOL    HW2 3372   0.218   0.610   5.522 -0.0232 -0.1375 -0.9510
  825SOL     OW 3373   1.851   0.432   2.673  0.4220  0.1144 -0.4526
  825SOL    HW1 3374   1.850   0.346   2.724 -0.5849  1.0083  1.1167
  825SOL    HW2 3375   1.834   0.413   2.576 -1.1293 -1.3605  0.0471
  826SOL     OW 3376   1.945   6.221   5.354 -0.1859 -0.0026  0.1590
  826SOL    HW1 3377   1.911   6.129   5.371 -1.2814  0.1744 -0.8695
  826SOL    HW2 3378   2.039   6.230   5.387 -0.9551 -0.6735  2.6946
  827SOL     OW 3379   2.434   2.964   6.606 -0.1180  0.2583 -0.3222
  827SOL    HW1 3380   2.357   2.901   6.615  0.9703 -1.0068  0.8404
  827SOL    HW2 3381   2.515   2.912   6.578  0.6467  1.2705 -0.0418
  828SOL     OW 3382   6.447   1.919   1.041 -0.1278 -0.1362 -0.0850
  828SOL    HW1 3383   6.484   2.008   1.014 -0.0589  0.0972  0.7432
  828SOL    HW2 3384   6.507   1.846   1.008 -0.1030  0.1271 -0.6378
  829SOL     OW 3385   0.049   3.308   3.586 -0.1788 -0.2847  0.1413
  829SOL    HW1 3386   0.136   3.323   3.540  0.0748 -0.5177  0.5404
  829SOL    HW2 3387  -0.022   3.290   3.518  0.1236 -0.2818 -0.1759
  830SOL     OW 3388   2.838   6.458   3.202 -0.3080 -0.0471 -0.7111
  830SOL    HW1 3389   2.866   6.425   3.291  0.1916 -1.5841 -1.4074
  830SOL    HW2 3390   2.918   6.492   3.152 -0.1630 -1.4142 -1.4578
  831SOL     OW 3391   1.682   0.099   5.348  0.0735 -0.2873  0.1144
  831SOL    HW1 3392   1.759   0.162   5.359  0.2765  0.1048 -2.6901
  831SOL    HW2 3393   1.655   0.097   5.252 -0.9897 -3.2876  0.3703
  832SOL     OW 3394   1.253   1.138   6.120  0.0810 -0.0556 -0.0260
  832SOL    HW1 3395   1.289   1.045   6.132 -0.3135 -0.4384 -1.6151
  832SOL    HW2 3396   1.286   1.196   6.195  0.5736 -1.3909  0.8342
  833SOL     OW 3397   1.571   4.486   5.256 -0.0577  0.3218  0.2636
  833SOL    HW1 3398   1.474   4.511   5.252 -0.2639  0.0490  2.3486
  833SOL    HW2 3399   1.626   4.568   5.274  0.0955  0.4413 -0.6973
  834SOL     OW 3400   3.043   0.094   2.552  0.0396 -0.2767 -0.1650
  834SOL    HW1 3401   3.079   0.044   2.473  0.3096  0.8189 -0.7594
  834SOL    HW2 3402   3.118   0.123   2.611 -0.2012 -1.6334  0.8631
  835SOL     OW 3403   0.399   4.206   5.677 -0.5902  0.5917  0.0508
  835SOL    HW1 3404   0.385   4.110   5.650  0.7450  0.4660 -0.2460
  835SOL    HW2 3405   0.455   4.251   5.608  0.4442  1.0578  1.1696
  836SOL     OW 3406   0.253   3.471   3.885 -0.6170  0.5408  0.0692
  836SOL    HW1 3407   0.195   3.523   3.823 -1.0889  1.6540  1.4005
  836SOL    HW2 3408   0.216   3.379   3.896  0.9603 -0.7016 -3.3664
  837SOL     OW 3409   4.353   2.095   4.647  0.3422  0.3406 -0.2205
  837SOL    HW1 3410   4.447   2.117   4.673 -0.2011  0.5568  1.7081
  837SOL    HW2 3411   4.294   2.173   4.667 -0.1139  0.6602 -2.5228
  838SOL     OW 3412   1.360   6.938   4.109  0.4417  0.1242  0.1552
  838SOL    HW1 3413   1.418   6.982   4.040  1.3521 -0.4471  0.5455
  838SOL    HW2 3414   1.266   6.973   4.100  0.3293 -0.5470 -1.9260
  839SOL     OW 3415   2.388   5.366   0.417  0.1676 -0.0442 -0.2682
  839SOL    HW1 3416   2.460   5.308   0.379 -1.4238 -1.1891 -1.6766
  839SOL    HW2 3417   2.425   5.418   0.494  2.1705 -1.4510 -0.1908
  840SOL     OW 3418   3.469   6.983   6.531  0.1701 -0.0050 -0.1312
  840SOL    HW1 3419   3.507   6.904   6.485  0.7842  0.6750 -0.8242
  840SOL    HW2 3420   3.521   7.002   6.614  0.5815  0.1965 -0.4333
  841SOL     OW 3421   4.715   0.428   1.694  0.1083  0.4818 -0.2414
  841SOL    HW1 3422   4.716   0.362   1.769  0.9303  0.5448 -0.1933
  841SOL    HW2 3423   4.669   0.512   1.724 -0.7982  0.0061 -0.2547
  842SOL     OW 3424   4.909   4.883   4.702  0.2816  0.0267  0.7129
  842SOL    HW1 3425   4.961   4.829   4.636  0.0867 -0.3786  0.8862
  842SOL    HW2 3426   4.846   4.823   4.751  0.4323  0.3205  1.2755
  843SOL     OW 3427   5.157   4.073   6.263 -0.2268 -0.0546  0.2133
  843SOL    HW1 3428   5.190   4.076   6.169 -1.5545 -0.4763 -0.2829
  843SOL    HW2 3429   5.159   4.164   6.303 -0.3760  0.2528 -0.4785
  844SOL     OW 3430   6.272   2.694   5.242  0.1366 -0.3617  0.5365
  844SOL    HW1 3431   6.271   2.595   5.229 -0.4290 -0.5036  1.5693
  844SOL    HW2 3432   6.201   2.720   5.308  1.7017  0.4772  1.9835
  845SOL     OW 3433   6.524   0.338   6.429  0.2563 -0.4086  0.3879
  845SOL    HW1 3434   6.577   0.422   6.424  0.6023 -0.5768  1.0813
  845SOL    HW2 3435   6.490   0.325   6.523  1.1095 -1.5691  0.5643
  846SOL     OW 3436   5.756   1.272   1.650 -0.4870  0.3414  0.2137
  846SOL    HW1 3437   5.784   1.182   1.685  2.0501  0.4083 -1.3673
  846SOL    HW2 3438   5.802   1.344   1.702  0.4553  0.5580 -0.8797
  847SOL     OW 3439   4.416   5.566   6.959  0.1341  0.0986 -0.5049
  847SOL    HW1 3440   4.482   5.636   6.988  0.8725  0.1025 -2.1064
  847SOL    HW2 3441   4.403   5.500   7.033  0.3768  1.2224  0.5712
  848SOL     OW 3442   2.066   1.534   5.516  0.0509  0.2644 -0.7720
  848SOL    HW1 3443   2.037   1.620   5.558 -3.7923 -0.0392 -2.3956
  848SOL    HW2 3444   2.074   1.547   5.417 -0.3400 -1.1880 -1.0111
  849SOL     OW 3445   3.919   2.100   2.109  0.3602  0.4228  0.3007
  849SOL    HW1 3446   3.936   2.025   2.045  0.8086  0.1931  0.6861
  849SOL    HW2 3447   3.850   2.161   2.071 -1.0902 -0.9534  0.6092
  850SOL     OW 3448   0.293   0.487   4.786  0.1559 -0.2938 -0.2879
  850SOL    HW1 3449   0.233   0.457   4.860  0.8753  0.5521  0.6693
  850SOL    HW2 3450   0.351   0.411   4.757 -0.1548 -0.6405 -0.0037
  851SOL     OW 3451   6.058   5.291   3.070  0.6312  0.1347 -0.0051
  851SOL    HW1 3452   6.098   5.257   3.155 -0.6789 -0.8681  0.2622
  851SOL    HW2 3453   6.079   5.388   3.059  1.1265  0.1969  1.2807
  852SOL     OW 3454   5.934   4.100   6.037  0.0500  0.1036  0.5662
  852SOL    HW1 3455   5.864   4.143   5.980  0.4549 -0.7809 -0.6372
  852SOL    HW2 3456   5.978   4.026   5.986  0.8403 -0.3314  1.8312
  853SOL     OW 3457   4.200   0.055   5.330  0.1533 -0.2176  0.1225
  853SOL    HW1 3458   4.118   0.076   5.383 -0.0145 -0.3777 -0.0740
  853SOL    HW2 3459   4.276   0.037   5.392 -0.2922 -1.4445  0.3323
  854SOL     OW 3460   6.937   2.437   0.977  0.2349 -0.4708 -0.4840
  854SOL    HW1 3461   7.034   2.446   1.003 -0.3089  0.0265  1.5770
  854SOL    HW2 3462   6.888   2.389   1.049 -1.3495  0.6148 -0.7803
  855SOL     OW 3463   2.254   3.087   0.713  0.1165 -0.4833  0.3956
  855SOL    HW1 3464   2.341   3.099   0.761  1.1837  0.4770 -1.6478
  855SOL    HW2 3465   2.262   3.124   0.620 -2.7816  0.5426  0.4516
  856SOL     OW 3466   3.739   0.420   6.441  0.3589 -0.5911  0.1939
  856SOL    HW1 3467   3.651   0.386   6.407  0.3024  0.7383 -1.0804
  856SOL    HW2 3468   3.722   0.493   6.508  0.4814 -2.7388  2.7152
  857SOL     OW 3469   2.789   5.505   0.525 -0.3027  0.1696 -0.3494
  857SOL    HW1 3470   2.764   5.600   0.509  2.3541  0.6049 -2.7465
  857SOL    HW2 3471   2.777   5.453   0.440  1.1253 -0.8790  0.0504
  858SOL     OW 3472   3.752   3.688   3.330 -0.0177 -0.4113  0.2959
  858SOL    HW1 3473   3.842   3.728   3.344 -0.0237  0.4863 -1.8974
  858SOL    HW2 3474   3.756   3.621   3.256 -1.3503  0.5636 -0.7131
  859SOL     OW 3475   5.841   3.697   1.322  0.4970  0.2399  0.0670
  859SOL    HW1 3476   5.858   3.721   1.227  0.3194  0.1056  0.0010
  859SOL    HW2 3477   5.833   3.597   1.331  1.1992  0.1984  0.3333
  860SOL     OW 3478   4.153   4.122   5.499 -0.5095 -0.1636 -0.0212
  860SOL    HW1 3479   4.211   4.096   5.577 -2.3367 -0.6316  1.2389
  860SOL    HW2 3480   4.135   4.042   5.442 -1.9336 -0.6223  1.0079
  861SOL     OW 3481   6.516   4.274   4.018  0.1082 -0.1432 -0.4194
  861SOL    HW1 3482   6.541   4.247   4.111 -0.7440 -0.2610 -0.2214
  861SOL    HW2 3483   6.443   4.341   4.021  2.0774  2.1554 -0.9094
  862SOL     OW 3484   2.720   3.099   1.270  0.1377  0.2238 -0.3194
  862SOL    HW1 3485   2.771   3.185   1.280  0.0817  0.3217 -0.8299
  862SOL    HW2 3486   2.781   3.022   1.289  0.4568  0.3425 -0.8260
  863SOL     OW 3487   3.098   6.504   4.938  0.1296 -0.1720  0.2086
  863SOL    HW1 3488   3.168   6.521   5.007  0.0209 -0.0492  0.2905
  863SOL    HW2 3489   3.119   6.558   4.856 -2.2594  3.6418  1.7939
  864SOL     OW 3490   5.130   5.773   3.242  0.0347 -0.2657  0.4042
  864SOL    HW1 3491   5.123   5.745   3.338 -0.3168 -0.3186  0.3640
  864SOL    HW2 3492   5.114   5.871   3.236 -0.9203 -0.4206  0.2880
  865SOL     OW 3493   0.686   5.665   5.099  0.2305 -0.0684 -0.1027
  865SOL    HW1 3494   0.633   5.631   5.177  1.4720  2.8322  2.2078
  865SOL    HW2 3495   0.783   5.655   5.118  0.5773  1.8999 -0.6228
  866SOL     OW 3496   5.532   4.390   6.082 -0.6583 -0.5433  0.4155
  866SOL    HW1 3497   5.554   4.384   5.985 -2.7791  0.2200 -0.1831
  866SOL    HW2 3498   5.615   4.381   6.136  1.0387  1.8917 -1.5570
  867SOL     OW 3499   5.488   2.128   6.979  0.3321 -0.2712 -0.7701
  867SOL    HW1 3500   5.512   2.175   6.894  1.6262  1.1524  0.3134
  867SOL    HW2 3501   5.571   2.108   7.031 -0.4923  0.2739  0.8460
  868SOL     OW 3502   2.432   4.459   2.249 -0.0031 -0.2855 -0.1434
  868SOL    HW1 3503   2.477   4.524   2.188 -1.1995 -0.1128 -0.8721
  868SOL    HW2 3504   2.399   4.381   2.196  1.0660 -1.3183  0.6626
  869SOL     OW 3505   0.146   1.662   1.720  0.1344  0.1839  0.2104
  869SOL    HW1 3506   0.141   1.671   1.621  1.2221  1.6784  0.2535
  869SOL    HW2 3507   0.158   1.566   1.745 -2.0709 -0.4568 -0.9670
  870SOL     OW 3508   6.104   3.899   0.353  0.2510  0.4749  0.0347
  870SOL    HW1 3509   6.119   3.943   0.441  1.0971 -0.4391  0.3569
  870SOL    HW2 3510   6.025   3.838   0.359  0.7914 -0.1998  0.4012
  871SOL     OW 3511   5.625   5.115   2.942 -0.3378  0.4516  0.5072
  871SOL    HW1 3512   5.618   5.214   2.930 -0.7717  0.3110 -0.5574
  871SOL    HW2 3513   5.721   5.089   2.951 -0.1270  0.8546 -0.4512
  872SOL     OW 3514   0.335   6.341   6.925  0.3431  0.1871 -0.2794
  872SOL    HW1 3515   0.285   6.285   6.859 -0.0721 -1.8303  1.6211
  872SOL    HW2 3516   0.428   6.306   6.934  0.6102  0.8818 -0.2866
  873SOL     OW 3517   2.732   1.190   2.134 -0.2015 -0.6326 -0.3032
  873SOL    HW1 3518   2.797   1.152   2.069  0.2357 -2.1696  0.9703
  873SOL    HW2 3519   2.660   1.122   2.153  0.0408 -0.4855  1.2809
  874SOL     OW 3520   2.104   1.034   2.395  0.3475  0.6202 -0.0270
  874SOL    HW1 3521   2.175   1.052   2.464 -0.1305  0.5844  0.4827
  874SOL    HW2 3522   2.114   1.099   2.320  0.9818  0.5527 -0.0117
  875SOL     OW 3523   5.802   3.767   6.560 -0.0240  0.2015 -0.4524
  875SOL    HW1 3524   5.811   3.668   6.560 -2.0512 -0.0378 -0.5241
  875SOL    HW2 3525   5.705   3.791   6.552  0.4765  2.1951 -1.0560
  876SOL     OW 3526   4.931   4.674   7.017 -0.2329  0.4181 -0.1278
  876SOL    HW1 3527   4.969   4.593   6.972 -0.1838  1.0392 -1.2261
  876SOL    HW2 3528   4.835   4.656   7.042 -0.1935 -0.0059 -0.2776
  877SOL     OW 3529   2.364   6.071   4.082 -0.2414  0.0806 -0.1111
  877SOL    HW1 3530   2.322   6.161   4.091 -0.3654  0.2587 -2.0311
  877SOL    HW2 3531   2.317   6.006   4.143  0.9055  1.5888  2.5143
  878SOL     OW 3532   2.363   1.414   4.038  0.0611 -0.1361 -0.3842
  878SOL    HW1 3533   2.412   1.414   3.951 -1.8161 -4.0921 -1.6860
  878SOL    HW2 3534   2.419   1.370   4.108  1.6156  3.1427  0.5890
  879SOL     OW 3535   5.442   4.450   2.647 -0.0350 -0.6487 -0.0801
  879SOL    HW1 3536   5.351   4.425   2.613 -0.0550 -0.2535 -0.3195
  879SOL    HW2 3537   5.445   4.437   2.746 -1.0046  1.2464  0.2416
  880SOL     OW 3538   5.955   5.691   0.085 -0.3080  0.0235 -0.5753
  880SOL    HW1 3539   5.886   5.675   0.013 -1.1744  2.7494 -0.4575
  880SOL    HW2 3540   5.933   5.634   0.164 -1.6350 -0.1584 -1.0389
  881SOL     OW 3541   2.744   3.194   6.890  0.2082  0.0821  0.4428
  881SOL    HW1 3542   2.793   3.264   6.941 -0.8192  2.3218 -1.4273
  881SOL    HW2 3543   2.810   3.131   6.848  1.4876  2.1235 -0.7915
  882SOL     OW 3544   0.050   0.273   4.824 -0.0796  1.1111  0.2257
  882SOL    HW1 3545   0.098   0.286   4.910  0.6154  0.6189 -0.0858
  882SOL    HW2 3546   0.013   0.181   4.819 -2.0095  1.8015  0.9262
  883SOL     OW 3547   4.197   6.343   1.368 -0.5771 -0.3544  0.0792
  883SOL    HW1 3548   4.263   6.269   1.350  2.5246  2.5733 -1.8357
  883SOL    HW2 3549   4.124   6.339   1.300  0.7280 -0.4561 -1.3756
  884SOL     OW 3550   3.141   3.906   4.399 -0.0225 -0.0850 -0.1038
  884SOL    HW1 3551   3.227   3.914   4.450 -1.3026 -0.0386  2.1633
  884SOL    HW2 3552   3.066   3.890   4.463 -1.5280 -1.6108 -2.1456
  885SOL     OW 3553   6.611   1.492   0.236 -0.6459  0.2486  0.1746
  885SOL    HW1 3554   6.575   1.579   0.201 -2.6034 -0.1581  1.0543
  885SOL    HW2 3555   6.711   1.497   0.241 -0.6602  2.1248 -0.5935
  886SOL     OW 3556   6.493   2.223   0.161 -0.0193  0.1689  0.6333
  886SOL    HW1 3557   6.584   2.188   0.183 -0.0005  0.0228  0.3303
  886SOL    HW2 3558   6.459   2.278   0.237  0.7440  1.0565  0.3550
  887SOL     OW 3559   0.365   0.575   3.464 -0.4710 -0.0701  0.0548
  887SOL    HW1 3560   0.345   0.489   3.418  0.3210 -0.1593 -0.1492
  887SOL    HW2 3561   0.459   0.603   3.442 -0.3448  0.2778  0.9932
  888SOL     OW 3562   3.787   1.087   2.583  0.1513  0.3841  0.0068
  888SOL    HW1 3563   3.843   1.007   2.603 -0.6132  0.5623  3.4459
  888SOL    HW2 3564   3.714   1.062   2.519  0.5533 -1.3944  0.1956
  889SOL     OW 3565   5.465   0.286   3.094  0.3937  0.7684 -0.3572
  889SOL    HW1 3566   5.552   0.312   3.051  1.3348 -1.2619  0.1959
  889SOL    HW2 3567   5.398   0.359   3.081  2.5206  2.9476  0.2271
  890SOL     OW 3568   5.207   0.488   2.030  0.2253  0.4527  0.3504
  890SOL    HW1 3569   5.141   0.539   1.975 -1.4596 -1.3513  0.5762
  890SOL    HW2 3570   5.284   0.460   1.973  0.0397  1.2818 -0.3174
  891SOL     OW 3571   3.798   6.811   4.228  0.3300  0.0844 -0.0602
  891SOL    HW1 3572   3.835   6.904   4.219 -0.8783  0.4318 -1.9282
  891SOL    HW2 3573   3.795   6.767   4.139  1.1210 -1.9088  0.8258
  892SOL     OW 3574   1.380   5.609   5.220  0.0514 -0.3047  0.0108
  892SOL    HW1 3575   1.347   5.703   5.225  0.9317 -0.0047  0.3105
  892SOL    HW2 3576   1.374   5.566   5.310  2.5776  0.4995  0.6358
  893SOL     OW 3577   4.190   5.257   4.903 -0.2173 -0.4802  0.0692
  893SOL    HW1 3578   4.230   5.169   4.881 -1.4323 -0.9412 -0.3526
  893SOL    HW2 3579   4.216   5.324   4.833 -0.4498 -0.8515 -0.3755
  894SOL     OW 3580   5.027   6.416   5.670  0.5060  0.0917 -0.5949
  894SOL    HW1 3581   5.069   6.330   5.701 -0.7838  0.1435  1.5107
  894SOL    HW2 3582   4.972   6.398   5.589  0.6019 -0.9906 -0.4450
  895SOL     OW 3583   3.737   2.512   6.247  0.2077 -0.3864  0.2767
  895SOL    HW1 3584   3.699   2.430   6.203 -1.3302  0.6129 -0.3392
  895SOL    HW2 3585   3.679   2.539   6.323  0.8976 -0.0444  0.6909
  896SOL     OW 3586   5.125   4.424   6.094  0.7192  0.2904 -0.2141
  896SOL    HW1 3587   5.044   4.430   6.035 -0.8347 -2.0704  1.4776
  896SOL    HW2 3588   5.130   4.505   6.152 -0.5341  0.4368 -0.2727
  897SOL     OW 3589   1.317   1.848   3.697 -0.1291 -0.1297  0.0798
  897SOL    HW1 3590   1.332   1.913   3.771 -0.9831 -0.8155  0.8700
  897SOL    HW2 3591   1.366   1.763   3.716  1.2090  0.3415 -1.0845
  898SOL     OW 3592   1.874   0.590   4.431 -0.2530 -0.1378  0.6238
  898SOL    HW1 3593   1.786   0.595   4.478 -0.0130 -2.0205  1.3262
  898SOL    HW2 3594   1.869   0.644   4.347 -1.6385  0.8532  1.2891
  899SOL     OW 3595   5.846   5.140   6.790 -0.5318  0.4939  0.0231
  899SOL    HW1 3596   5.795   5.077   6.848  1.4433 -1.4287 -0.2059
  899SOL    HW2 3597   5.943   5.138   6.815  0.3599 -0.1854 -3.0566
  900SOL     OW 3598   4.263   3.231   5.721 -0.3527  0.6447 -0.1849
  900SOL    HW1 3599   4.349   3.199   5.681 -0.5748  0.3338 -0.4244
  900SOL    HW2 3600   4.188   3.174   5.687 -0.3964 -0.5499  1.7621
  901SOL     OW 3601   3.517   3.060   1.479  0.1479 -0.5825 -0.0325
  901SOL    HW1 3602   3.478   3.035   1.567 -0.8563  1.0130  0.0093
  901SOL    HW2 3603   3.613   3.087   1.492 -0.1747  0.2606  0.6832
  902SOL     OW 3604   5.634   6.995   0.568 -0.8818  0.3062 -0.1720
  902SOL    HW1 3605   5.562   7.062   0.552 -1.1711 -0.0365 -0.3414
  902SOL    HW2 3606   5.723   7.037   0.553 -1.0606  0.6337 -0.3355
  903SOL     OW 3607   4.905   1.486   0.094 -0.3320  0.0207  0.2691
  903SOL    HW1 3608   4.837   1.461   0.163 -0.7772 -0.6181 -0.3790
  903SOL    HW2 3609   4.951   1.571   0.121 -0.8052  0.0118  1.1247
  904SOL     OW 3610   1.366   3.319   6.034 -0.5334  0.7608 -0.3403
  904SOL    HW1 3611   1.306   3.240   6.026  0.3122  0.0499  0.1559
  904SOL    HW2 3612   1.387   3.335   6.130  0.9514  0.3066 -0.5690
  905SOL     OW 3613   0.753   0.296   1.128 -0.7341  0.2690  0.3053
  905SOL    HW1 3614   0.806   0.296   1.044 -0.1302  0.9426  0.6649
  905SOL    HW2 3615   0.805   0.250   1.201 -1.2882 -0.3892  0.2920
  906SOL     OW 3616   2.222   3.245   1.755  0.2226  0.4573 -0.2655
  906SOL    HW1 3617   2.137   3.220   1.802 -0.5396  1.5360 -0.9964
  906SOL    HW2 3618   2.253   3.334   1.789  1.4631 -0.2587  0.5017
  907SOL     OW 3619   0.761   5.326   1.188 -0.1209  0.3160 -0.3831
  907SOL    HW1 3620   0.728   5.244   1.141 -0.7756  0.6283 -0.4869
  907SOL    HW2 3621   0.769   5.309   1.286  1.5050 -0.4236 -0.6154
  908SOL     OW 3622   1.618   6.326   3.370  0.5410  0.0866  0.0676
  908SOL    HW1 3623   1.668   6.241   3.352 -0.4367 -0.0866 -2.2737
  908SOL    HW2 3624   1.585   6.327   3.465  0.1223 -2.4238  0.0155
  909SOL     OW 3625   5.141   5.541   0.753 -0.0640 -0.1008 -0.0355
  909SOL    HW1 3626   5.187   5.476   0.814  0.5089  0.2128 -0.1275
  909SOL    HW2 3627   5.139   5.505   0.660  0.8748  0.3147 -0.2222
  910SOL     OW 3628   2.919   4.446   5.385 -0.0594  0.1350  0.3732
  910SOL    HW1 3629   2.841   4.430   5.446 -0.4278 -0.4291 -0.2293
  910SOL    HW2 3630   2.892   4.511   5.313 -0.6322 -1.5148 -0.9852
  911SOL     OW 3631   2.106   5.087   5.529 -0.1588  0.3884  0.1816
  911SOL    HW1 3632   2.116   5.157   5.459  1.9289  0.3103  0.3462
  911SOL    HW2 3633   2.164   5.008   5.507 -1.9071 -1.0302  0.3690
  912SOL     OW 3634   2.752   6.332   6.966  0.3010  0.0487  0.7936
  912SOL    HW1 3635   2.718   6.238   6.964 -2.1674  0.8381 -1.9223
  912SOL    HW2 3636   2.826   6.342   6.900 -1.0801  0.4463 -0.7679
  913SOL     OW 3637   2.822   5.996   2.525 -0.0219  0.3847  0.0369
  913SOL    HW1 3638   2.784   5.927   2.587  1.1700  0.0967  0.4758
  913SOL    HW2 3639   2.816   5.964   2.431  0.0002 -0.0686  0.1903
  914SOL     OW 3640   3.151   3.084   6.748 -0.0865 -0.4661 -0.0775
  914SOL    HW1 3641   3.228   3.138   6.714  0.0651 -0.4000  0.3553
  914SOL    HW2 3642   3.157   3.078   6.848 -1.4535  0.7920  0.1278
  915SOL     OW 3643   0.235   6.853   2.222  0.2740 -0.3770  0.7996
  915SOL    HW1 3644   0.302   6.919   2.187  2.1078 -0.7971  3.2571
  915SOL    HW2 3645   0.168   6.902   2.279 -1.2978 -0.0326 -1.2439
  916SOL     OW 3646   0.370   2.463   5.883  0.4828 -0.2116 -0.5053
  916SOL    HW1 3647   0.435   2.476   5.808  0.5623 -0.2157 -0.4369
  916SOL    HW2 3648   0.356   2.365   5.898  1.9949 -0.2778  0.7966
  917SOL     OW 3649   1.155   5.859   0.919  0.1362 -0.1274  0.6819
  917SOL    HW1 3650   1.100   5.806   0.854  0.6350 -1.4057  1.2669
  917SOL    HW2 3651   1.252   5.847   0.898  0.2728  2.3445 -0.5262
  918SOL     OW 3652   0.166   6.349   6.176  0.2385  0.3180 -0.6630
  918SOL    HW1 3653   0.206   6.436   6.204  1.1042 -0.0694 -0.6819
  918SOL    HW2 3654   0.216   6.312   6.098 -0.9998  0.4798 -1.5724
  919SOL     OW 3655   4.724   0.870   4.888 -0.3728 -0.2439  0.1699
  919SOL    HW1 3656   4.689   0.947   4.941 -2.1703 -1.2010  0.4798
  919SOL    HW2 3657   4.659   0.848   4.815 -0.7039 -2.3916  1.0260
  920SOL     OW 3658   5.744   1.040   0.965 -0.8076  0.0545 -0.1958
  920SOL    HW1 3659   5.772   0.975   1.036  0.2225 -1.1055 -1.5999
  920SOL    HW2 3660   5.723   1.128   1.007  0.8029 -0.2770  1.4407
  921SOL     OW 3661   2.118   5.627   3.754 -0.3930  0.3242 -0.5072
  921SOL    HW1 3662   2.104   5.671   3.842  1.4841 -1.1425  0.6106
  921SOL    HW2 3663   2.076   5.536   3.755  1.8489 -0.7718 -0.0899
  922SOL     OW 3664   4.101   2.077   6.303 -0.3073 -0.7379 -0.3681
  922SOL    HW1 3665   4.026   2.142   6.303 -0.3218 -0.7459  0.2937
  922SOL    HW2 3666   4.161   2.095   6.381 -0.1297 -1.3109 -0.3661
  923SOL     OW 3667   0.371   6.295   2.358  0.1233 -0.0547  0.4781
  923SOL    HW1 3668   0.424   6.283   2.274 -1.8872  0.8315 -0.9872
  923SOL    HW2 3669   0.378   6.212   2.414  1.7288 -0.5458 -0.3967
  924SOL     OW 3670   5.748   3.007   1.846  0.1265  0.2243 -0.3484
  924SOL    HW1 3671   5.807   2.944   1.797 -1.9085 -3.2011  1.2448
  924SOL    HW2 3672   5.723   2.968   1.935 -4.1670  1.4935 -0.7290
  925SOL     OW 3673   5.584   2.514   4.762  0.3657  0.1520  0.1996
  925SOL    HW1 3674   5.642   2.594   4.744  0.9835 -0.5516 -1.1085
  925SOL    HW2 3675   5.619   2.436   4.711 -1.1586 -0.5628  0.1967
  926SOL     OW 3676   3.010   5.938   3.699 -0.1124  0.3876  0.2275
  926SOL    HW1 3677   2.968   5.995   3.629  0.9130  0.9109  0.0189
  926SOL    HW2 3678   2.945   5.868   3.729 -1.0616  1.0870 -0.1773
  927SOL     OW 3679   1.780   4.313   6.963 -0.3155  0.6514  0.2311
  927SOL    HW1 3680   1.803   4.314   7.060 -0.5502 -0.4177  0.3032
  927SOL    HW2 3681   1.720   4.390   6.942  2.3077  2.8614  0.2590
  928SOL     OW 3682   5.722   1.720   1.460 -0.4194 -0.3625 -0.3991
  928SOL    HW1 3683   5.797   1.785   1.468  0.3151 -1.2739  0.3752
  928SOL    HW2 3684   5.636   1.765   1.486  0.0844  0.2867  0.1792
  929SOL     OW 3685   5.923   4.688   4.996  0.3690  0.1475  0.3421
  929SOL    HW1 3686   5.860   4.752   4.953  0.6434 -0.9146 -1.7565
  929SOL    HW2 3687   6.008   4.735   5.020  0.1293  0.8213 -0.1182
  930SOL     OW 3688   3.085   6.420   2.471 -0.9802 -0.1533  0.1554
  930SOL    HW1 3689   3.048   6.506   2.438  0.1955 -0.0696 -1.0260
  930SOL    HW2 3690   3.132   6.436   2.558 -1.9326  0.1219  0.6281
  931SOL     OW 3691   5.081   3.226   0.747  0.1742  0.3549 -0.4945
  931SOL    HW1 3692   5.151   3.269   0.804  0.1180 -0.8531  0.5431
  931SOL    HW2 3693   5.124   3.176   0.673  0.6400 -2.1503  1.3425
  932SOL     OW 3694   3.976   6.415   0.842 -0.2381 -0.1888  0.0849
  932SOL    HW1 3695   3.913   6.350   0.883  1.7319 -1.2338  1.6401
  932SOL    HW2 3696   4.007   6.381   0.753 -0.8820 -0.2809 -0.1077
  933SOL     OW 3697   2.691   1.469   2.789  0.2720  0.0058 -0.6358
  933SOL    HW1 3698   2.704   1.499   2.883 -1.5779  0.2486 -0.4121
  933SOL    HW2 3699   2.634   1.387   2.787 -0.7442  0.6985 -1.5710
  934SOL     OW 3700   5.270   4.457   0.620 -0.0841 -0.0954 -0.1095
  934SOL    HW1 3701   5.268   4.543   0.570 -0.4383 -0.3581 -0.5607
  934SOL    HW2 3702   5.283   4.475   0.717  1.2409  0.3977 -0.3463
  935SOL     OW 3703   1.309   4.845   2.175  0.0140 -0.4210  0.5332
  935SOL    HW1 3704   1.309   4.870   2.078 -0.7370 -1.1266  0.3415
  935SOL    HW2 3705   1.264   4.757   2.187  1.7514 -1.2575  1.3008
  936SOL     OW 3706   4.154   3.361   5.116 -0.2829  0.2488  0.0595
  936SOL    HW1 3707   4.137   3.393   5.023  2.8516 -0.8121 -1.0245
  936SOL    HW2 3708   4.214   3.426   5.163 -0.4895 -0.0508  0.7586
  937SOL     OW 3709   3.718   2.600   1.301 -0.0597  0.2996 -0.0162
  937SOL    HW1 3710   3.748   2.653   1.381  0.6023  2.1245 -1.4038
  937SOL    HW2 3711   3.793   2.541   1.271 -0.0011  0.2773  0.1712
  938SOL     OW 3712   4.553   5.657   1.567  0.1142 -0.2969 -0.1668
  938SOL    HW1 3713   4.628   5.723   1.573  0.2282 -0.5786  2.3731
  938SOL    HW2 3714   4.515   5.659   1.474  3.1955 -0.1286 -1.5454
  939SOL     OW 3715   2.192   2.169   2.380 -0.6273  0.1538  0.6022
  939SOL    HW1 3716   2.278   2.217   2.397  0.1960 -0.5248 -1.4146
  939SOL    HW2 3717   2.118   2.237   2.370  0.0729  0.8729  0.2071
  940SOL     OW 3718   5.291   4.996   2.864 -0.0679 -0.0610  0.2380
  940SOL    HW1 3719   5.339   4.917   2.825 -0.7964 -0.0093 -0.8249
  940SOL    HW2 3720   5.194   4.991   2.837 -0.4842  0.2931  1.5971
  941SOL     OW 3721   0.053   1.785   6.654 -0.1892 -0.2625  0.0150
  941SOL    HW1 3722   0.077   1.863   6.596 -1.4174  1.1311  1.2802
  941SOL    HW2 3723  -0.046   1.771   6.651  0.0550 -2.1255 -0.5614
  942SOL     OW 3724   5.359   3.585   1.506 -0.5439 -0.3163  0.8747
  942SOL    HW1 3725   5.351   3.682   1.479  0.0018 -0.7861 -1.2059
  942SOL    HW2 3726   5.272   3.553   1.542 -1.2013  0.5694  0.1450
  943SOL     OW 3727   0.871   5.134   3.354 -0.5085 -0.0930  1.1757
  943SOL    HW1 3728   0.777   5.110   3.378 -0.4963  0.0851  1.4097
  943SOL    HW2 3729   0.931   5.110   3.431 -0.5649  1.1656  1.6337
  944SOL     OW 3730   2.433   6.737   0.140  0.1220 -1.1069 -0.0907
  944SOL    HW1 3731   2.488   6.665   0.097 -0.1297 -0.7839 -0.9805
  944SOL    HW2 3732   2.345   6.744   0.093 -0.3359 -1.0258  0.7640
  945SOL     OW 3733   0.551   3.785   2.732 -0.3110 -0.7763  0.3899
  945SOL    HW1 3734   0.468   3.839   2.727 -0.3708 -0.9220 -0.3205
  945SOL    HW2 3735   0.630   3.846   2.743 -0.3083 -0.4713 -1.0931
  946SOL     OW 3736   4.919   1.494   1.086 -0.1246 -0.3841 -0.4860
  946SOL    HW1 3737   4.953   1.450   1.170  0.8100  0.4296 -0.4327
  946SOL    HW2 3738   4.995   1.518   1.027 -0.4860  2.3192  0.0485
  947SOL     OW 3739   3.077   6.971   0.687  0.3700 -0.4264  0.2977
  947SOL    HW1 3740   2.980   6.946   0.677 -0.2556  1.1087  1.9472
  947SOL    HW2 3741   3.132   6.888   0.694 -1.1640 -1.3879  1.9639
  948SOL     OW 3742   4.116   5.878   2.082 -0.3940  0.3327  0.7473
  948SOL    HW1 3743   4.174   5.851   2.159 -0.5397 -2.7346 -0.0889
  948SOL    HW2 3744   4.158   5.847   1.997 -0.1004  3.8531 -0.5757
  949SOL     OW 3745   6.136   1.122   3.286  0.2881  0.0933 -0.2727
  949SOL    HW1 3746   6.060   1.066   3.254  0.2600  0.7363 -1.3909
  949SOL    HW2 3747   6.208   1.125   3.216  0.1373  1.6981 -0.4166
  950SOL     OW 3748   2.009   3.434   0.238 -0.3736 -0.2170 -0.0943
  950SOL    HW1 3749   1.931   3.376   0.262 -0.5126  0.4015  1.0254
  950SOL    HW2 3750   1.978   3.510   0.181 -0.4454 -0.4072 -0.3113
  951SOL     OW 3751   5.407   4.946   6.955  0.1052  0.1115  0.1967
  951SOL    HW1 3752   5.474   4.947   6.881 -0.0378 -0.2288  0.0605
  951SOL    HW2 3753   5.335   5.013   6.935 -0.2779 -0.4357 -0.3028
  952SOL     OW 3754   6.164   5.673   1.211 -0.7278 -0.2303  0.2500
  952SOL    HW1 3755   6.210   5.653   1.298  0.4432  0.7753 -0.1144
  952SOL    HW2 3756   6.231   5.676   1.137 -1.0649  2.8590 -0.0592
  953SOL     OW 3757   5.181   5.314   4.191  0.0038 -0.1828 -0.8106
  953SOL    HW1 3758   5.216   5.236   4.139 -1.2157 -0.1889 -1.6631
  953SOL    HW2 3759   5.240   5.331   4.270 -0.2723 -2.6507  0.0223
  954SOL     OW 3760   1.797   3.617   6.349  0.5364 -0.2014  0.6871
  954SOL    HW1 3761   1.876   3.576   6.395  1.6633  1.4800  0.3576
  954SOL    HW2 3762   1.725   3.635   6.416  1.2425  0.0748  1.3866
  955SOL     OW 3763   4.596   0.668   5.033  0.4446  0.1502  0.0385
  955SOL    HW1 3764   4.660   0.743   5.016  0.7628  0.2309  1.4539
  955SOL    HW2 3765   4.503   0.697   5.008  0.9167  0.0485 -1.9722
  956SOL     OW 3766   4.640   6.557   5.430 -0.4593 -0.6596 -0.2973
  956SOL    HW1 3767   4.724   6.603   5.403  0.0070 -1.0238  0.5050
  956SOL    HW2 3768   4.622   6.573   5.527 -1.9994  0.4522 -0.7250
  957SOL     OW 3769   0.516   1.029   6.997 -0.2325 -0.9652  0.3389
  957SOL    HW1 3770   0.463   1.114   6.990  2.0866  0.4376 -1.1399
  957SOL    HW2 3771   0.515   0.982   6.910  2.1998 -0.0808 -0.2233
  958SOL     OW 3772   1.532   5.156   3.949  0.2473  0.3393  0.6190
  958SOL    HW1 3773   1.453   5.154   4.009  1.2351 -0.4794  1.9464
  958SOL    HW2 3774   1.572   5.064   3.943 -0.3866  0.1344 -2.1238
  959SOL     OW 3775   4.556   1.872   5.294 -0.6927  0.3618 -0.2405
  959SOL    HW1 3776   4.592   1.829   5.377  1.5550  1.5315 -0.5125
  959SOL    HW2 3777   4.575   1.815   5.215  1.3854  1.2849 -0.4747
  960SOL     OW 3778   4.465   5.224   1.053 -0.0067  0.7922  0.5235
  960SOL    HW1 3779   4.520   5.149   1.089  1.2774  2.3332  1.9266
  960SOL    HW2 3780   4.445   5.289   1.127 -0.2979  2.3027 -0.8406
  961SOL     OW 3781   4.175   6.539   1.149  0.0414 -0.5637 -0.0602
  961SOL    HW1 3782   4.087   6.496   1.167  0.7665 -2.5311 -0.9450
  961SOL    HW2 3783   4.245   6.468   1.140  1.5889  0.9136 -0.1380
  962SOL     OW 3784   1.011   1.345   3.519 -0.3531  0.4013 -0.2463
  962SOL    HW1 3785   0.970   1.381   3.435 -0.7455  1.0261  0.2005
  962SOL    HW2 3786   0.944   1.351   3.594  0.6537  1.8169  0.5890
  963SOL     OW 3787   0.777   5.897   2.738 -0.4210  0.4290  0.5489
  963SOL    HW1 3788   0.800   5.993   2.720  0.1936  0.2550  0.3588
  963SOL    HW2 3789   0.749   5.853   2.652 -0.5923  0.4080  0.6149
  964SOL     OW 3790   6.036   4.336   0.610 -0.4753  0.1749 -0.2841
  964SOL    HW1 3791   6.013   4.371   0.519  1.5184  0.5958 -0.6808
  964SOL    HW2 3792   6.068   4.411   0.668 -1.4123 -0.1482  0.6819
  965SOL     OW 3793   5.005   0.942   4.985  0.1426 -0.0032 -0.3469
  965SOL    HW1 3794   4.931   0.988   4.935  0.3208  1.3112  0.5555
  965SOL    HW2 3795   5.086   0.937   4.926 -0.4870 -1.0331 -1.1720
  966SOL     OW 3796   3.433   6.182   2.335 -0.0014 -0.0720  0.1027
  966SOL    HW1 3797   3.479   6.125   2.404 -0.0543  0.4635  0.5939
  966SOL    HW2 3798   3.335   6.179   2.350  0.0697  1.1204  0.9190
  967SOL     OW 3799   3.725   2.493   6.766  0.0174 -0.3455  0.0488
  967SOL    HW1 3800   3.684   2.584   6.769  1.8012  0.4793  0.5131
  967SOL    HW2 3801   3.665   2.431   6.714 -1.1279  1.1220 -0.4408
  968SOL     OW 3802   6.834   6.055   4.871  0.3163 -0.1247 -0.0949
  968SOL    HW1 3803   6.886   5.970   4.858  1.6244  0.9264 -2.4631
  968SOL    HW2 3804   6.807   6.091   4.782  1.6618  3.0506  0.6585
  969SOL     OW 3805   1.641   4.639   6.814  0.2182  0.2651 -0.0937
  969SOL    HW1 3806   1.581   4.561   6.827 -0.0375  0.5332  0.3529
  969SOL    HW2 3807   1.588   4.719   6.786  0.3458  0.5300  0.4052
  970SOL     OW 3808   6.537   3.732   0.535 -0.1066  0.1170 -0.1740
  970SOL    HW1 3809   6.480   3.735   0.617 -0.7566 -1.9165 -0.4868
  970SOL    HW2 3810   6.483   3.695   0.459  0.9059  0.5916 -1.1400
  971SOL     OW 3811   1.057   5.896   7.011  0.0770  0.0358  0.2310
  971SOL    HW1 3812   1.087   5.982   7.050 -2.0955  0.2233  1.6649
  971SOL    HW2 3813   1.022   5.911   6.918 -1.4949  0.9886  0.9432
  972SOL     OW 3814   6.437   6.113   6.274 -0.0594  0.1593  0.2664
  972SOL    HW1 3815   6.398   6.038   6.327  0.2591  1.2367  2.1010
  972SOL    HW2 3816   6.467   6.079   6.185  1.0977 -2.1438  1.4444
  973SOL     OW 3817   7.012   6.848   3.704 -0.1143  0.0606 -0.0682
  973SOL    HW1 3818   7.074   6.783   3.748 -0.2956 -0.2671 -0.2913
  973SOL    HW2 3819   6.919   6.812   3.707 -0.3678  0.7388  0.6345
  974SOL     OW 3820   6.590   6.642   4.328  0.2754  0.1336 -0.2628
  974SOL    HW1 3821   6.557   6.715   4.268  1.0759  0.9479  0.2579
  974SOL    HW2 3822   6.636   6.682   4.407  2.4330 -0.9181 -0.9158
  975SOL     OW 3823   4.266   0.346   4.597 -0.2507  0.2978  0.2020
  975SOL    HW1 3824   4.240   0.437   4.631  0.5577 -0.5448  3.3778
  975SOL    HW2 3825   4.187   0.304   4.551 -1.0841  1.9788  0.0048
  976SOL     OW 3826   6.618   5.445   0.862  0.5773  0.0796 -0.3166
  976SOL    HW1 3827   6.635   5.443   0.764 -1.4832 -0.2759 -0.7056
  976SOL    HW2 3828   6.544   5.382   0.885 -0.0320  1.2826  1.2419
  977SOL     OW 3829   3.977   1.476   6.375  0.0233  0.3560 -0.4527
  977SOL    HW1 3830   3.917   1.535   6.429 -0.5573 -0.7519  0.1431
  977SOL    HW2 3831   4.022   1.530   6.304 -1.0886  1.3565 -0.4209
  978SOL     OW 3832   2.401   0.290   2.141  0.3261 -0.4158  0.3513
  978SOL    HW1 3833   2.315   0.301   2.090  0.8129  0.8849 -0.2251
  978SOL    HW2 3834   2.442   0.379   2.157  0.0338 -0.7250  3.3997
  979SOL     OW 3835   3.541   0.961   6.311  0.1142 -0.0411  0.1055
  979SOL    HW1 3836   3.496   1.049   6.295  0.7744  0.3487  0.3380
  979SOL    HW2 3837   3.625   0.957   6.258 -0.2301 -0.8012 -0.3978
  980SOL     OW 3838   1.215   2.695   4.910  0.4711 -0.4746  0.0977
  980SOL    HW1 3839   1.230   2.765   4.840  0.6597 -0.5320  0.0798
  980SOL    HW2 3840   1.275   2.711   4.988 -1.1240  0.7428  1.1311
  981SOL     OW 3841   5.217   1.320   4.179 -0.1769  0.2524  0.0758
  981SOL    HW1 3842   5.280   1.255   4.222  0.8081  0.6108 -0.7887
  981SOL    HW2 3843   5.254   1.349   4.091 -1.6458  0.3592 -0.5301
  982SOL     OW 3844   6.375   3.333   3.992 -0.3785  0.2022  0.0366
  982SOL    HW1 3845   6.460   3.295   3.954 -1.5610 -0.0971 -2.4775
  982SOL    HW2 3846   6.362   3.426   3.958 -2.3589 -0.7022 -1.8496
  983SOL     OW 3847   3.253   6.876   2.821  0.1963  0.3176  0.2128
  983SOL    HW1 3848   3.287   6.964   2.856 -1.2537  1.4799 -1.1626
  983SOL    HW2 3849   3.156   6.885   2.800 -0.0222 -1.7101  0.2396
  984SOL     OW 3850   2.744   5.948   1.164 -0.3153  0.4370 -0.5741
  984SOL    HW1 3851   2.832   5.949   1.210 -0.1722 -1.9009 -0.6853
  984SOL    HW2 3852   2.752   5.990   1.074 -0.0129  2.7119  0.4330
  985SOL     OW 3853   1.334   6.339   3.270  0.5671 -0.4989  0.2878
  985SOL    HW1 3854   1.286   6.321   3.356  2.7403 -3.0005  1.1188
  985SOL    HW2 3855   1.432   6.346   3.288  1.0240 -0.5780 -1.9332
  986SOL     OW 3856   3.897   3.109   6.357 -0.1068  0.1908 -0.0263
  986SOL    HW1 3857   3.904   3.186   6.294  0.2647 -0.1119 -0.3606
  986SOL    HW2 3858   3.838   3.039   6.316  1.5747 -0.7884 -0.8633
  987SOL     OW 3859   5.760   1.988   3.058  0.4778  0.3922 -0.8007
  987SOL    HW1 3860   5.776   1.919   3.129 -1.4542 -0.3399 -1.0123
  987SOL    HW2 3861   5.736   2.075   3.101 -1.7810 -0.3290 -0.4916
  988SOL     OW 3862   1.582   4.027   3.020  0.1641 -0.3319 -0.7215
  988SOL    HW1 3863   1.516   3.960   2.985  0.9971 -1.1527 -0.7586
  988SOL    HW2 3864   1.638   4.061   2.945  0.8340 -0.8322 -0.4539
  989SOL     OW 3865   0.270   5.069   4.915  0.2093 -0.2055 -0.1890
  989SOL    HW1 3866   0.208   4.990   4.904 -0.4936  0.5542 -2.1909
  989SOL    HW2 3867   0.317   5.086   4.829  2.3931 -0.0322  0.9760
  990SOL     OW 3868   2.044   2.821   2.478 -0.3068  1.1373  0.2744
  990SOL    HW1 3869   2.025   2.901   2.421  3.5696  1.6312 -0.6212
  990SOL    HW2 3870   2.094   2.850   2.560 -0.2682 -0.2190  0.7502
  991SOL     OW 3871   0.227   4.787   1.520  0.4875  0.2591 -0.1831
  991SOL    HW1 3872   0.322   4.754   1.521 -0.2838 -2.5388 -2.9228
  991SOL    HW2 3873   0.212   4.842   1.438 -0.0761  1.3607  0.6490
  992SOL     OW 3874   2.252   5.994   5.322  0.0263  0.0967 -0.0079
  992SOL    HW1 3875   2.192   5.989   5.241 -1.3945 -0.8197  1.0495
  992SOL    HW2 3876   2.235   6.079   5.371 -1.5125 -0.7696  1.0542
  993SOL     OW 3877   0.913   1.156   5.714  0.3201 -0.2139  0.1858
  993SOL    HW1 3878   0.967   1.085   5.669  0.0861 -0.0701 -0.3289
  993SOL    HW2 3879   0.865   1.117   5.793  0.2508 -0.6107 -0.0501
  994SOL     OW 3880   4.814   6.156   4.442  0.1612 -0.1181  0.1131
  994SOL    HW1 3881   4.728   6.117   4.407  1.9692 -3.9185 -0.5510
  994SOL    HW2 3882   4.864   6.086   4.492  3.9368  1.2089 -1.4571
  995SOL     OW 3883   6.132   6.808   3.312  0.0791 -0.3656  0.4439
  995SOL    HW1 3884   6.157   6.888   3.257 -1.4028  0.8920  1.4981
  995SOL    HW2 3885   6.079   6.838   3.391 -1.1312 -2.4626  0.4919
  996SOL     OW 3886   3.087   1.419   0.533  0.0841 -0.3634  0.1102
  996SOL    HW1 3887   3.043   1.507   0.520  0.6146 -0.0748  0.2172
  996SOL    HW2 3888   3.078   1.364   0.450  0.2875  0.0370 -0.1792
  997SOL     OW 3889   0.466   0.383   4.426  0.1132 -0.8045 -0.0780
  997SOL    HW1 3890   0.462   0.285   4.407 -0.1838 -1.0807  1.3011
  997SOL    HW2 3891   0.561   0.410   4.443  0.2314 -0.7833 -0.7426
  998SOL     OW 3892   3.075   0.300   5.455 -0.0933 -0.6522 -0.2361
  998SOL    HW1 3893   3.052   0.397   5.466  1.1093 -0.4395  0.7295
  998SOL    HW2 3894   3.056   0.271   5.361 -4.4262 -0.6327  0.4244
  999SOL     OW 3895   1.507   2.467   6.985  0.2176 -0.4437 -0.1188
  999SOL    HW1 3896   1.511   2.565   6.964  0.3527 -0.6372 -1.0249
  999SOL    HW2 3897   1.489   2.416   6.901 -1.7084 -1.0703  0.6333
 1000SOL     OW 3898   4.359   5.887   2.951  0.1020  0.3068  0.2036
 1000SOL    HW1 3899   4.309   5.972   2.933 -0.4761 -0.1641 -0.5167
 1000SOL    HW2 3900   4.306   5.809   2.916  1.3273 -0.2158 -0.5736
 1001SOL     OW 3901   4.537   5.958   0.982  0.5718 -0.4463 -0.2384
 1001SOL    HW1 3902   4.465   5.988   0.920 -1.5464 -0.8027  1.9100
 1001SOL    HW2 3903   4.604   6.033   0.993 -0.4812  0.6159 -0.8213
 1002SOL     OW 3904   0.000   4.339   6.095  0.0945 -0.4601  0.1150
 1002SOL    HW1 3905   0.100   4.343   6.088  0.0447  1.9585 -0.1904
 1002SOL    HW2 3906  -0.027   4.348   6.191  0.1542 -2.6708  0.3842
 1003SOL     OW 3907   5.445   1.729   0.599 -1.0147  0.4662  0.3275
 1003SOL    HW1 3908   5.430   1.686   0.510 -1.0332  0.0499  0.5305
 1003SOL    HW2 3909   5.479   1.823   0.585  1.4196 -0.4067 -0.1454
 1004SOL     OW 3910   6.635   5.633   1.646  0.9121  0.2649  0.1772
 1004SOL    HW1 3911   6.680   5.715   1.611 -0.9634  0.1627 -2.8968
 1004SOL    HW2 3912   6.647   5.558   1.580 -1.4737 -0.4841  0.5039
 1005SOL     OW 3913   6.778   6.520   2.978 -0.7777 -0.0929 -0.3809
 1005SOL    HW1 3914   6.772   6.614   3.012  1.0514 -1.2663  3.8969
 1005SOL    HW2 3915   6.868   6.506   2.937 -0.9767 -0.0484 -0.8358
 1006SOL     OW 3916   3.367   5.144   5.730 -0.1412 -0.4726 -0.1996
 1006SOL    HW1 3917   3.361   5.132   5.829  0.1909  1.8778  0.1548
 1006SOL    HW2 3918   3.353   5.240   5.707 -0.0580 -0.9429 -2.4398
 1007SOL     OW 3919   0.602   6.078   6.429  0.2210  0.1677  0.1585
 1007SOL    HW1 3920   0.556   6.057   6.343 -0.0983 -0.9072  0.5709
 1007SOL    HW2 3921   0.661   6.001   6.455  1.0352  0.8726  0.4335
 1008SOL     OW 3922   6.105   0.984   0.914  0.0986 -0.0845  0.6237
 1008SOL    HW1 3923   6.158   1.058   0.956  1.5836 -0.4960 -0.4213
 1008SOL    HW2 3924   6.084   1.009   0.819 -1.9171  0.1995  1.0975
 1009SOL     OW 3925   6.012   2.780   2.485  0.2336 -0.1334  0.6963
 1009SOL    HW1 3926   6.020   2.692   2.533  1.7783 -0.5690 -0.2642
 1009SOL    HW2 3927   6.103   2.818   2.470 -0.3170  0.8669 -0.2890
 1010SOL     OW 3928   1.135   3.831   2.608  0.1624  0.8431 -0.3392
 1010SOL    HW1 3929   1.148   3.743   2.655  0.9061  0.7785 -0.6591
 1010SOL    HW2 3930   1.114   3.902   2.676 -0.5284  0.4106 -0.0870
 1011SOL     OW 3931   3.792   4.101   2.965 -1.0668 -0.4906 -0.3823
 1011SOL    HW1 3932   3.836   4.184   2.932 -0.4317 -0.3362  0.8122
 1011SOL    HW2 3933   3.784   4.035   2.889  0.3980 -0.1704 -0.8437
 1012SOL     OW 3934   1.590   5.782   3.982  0.1416  0.2300 -0.2640
 1012SOL    HW1 3935   1.510   5.840   3.998 -0.5440  0.2066 -3.0901
 1012SOL    HW2 3936   1.576   5.694   4.027 -0.8319  0.6692  0.3352
 1013SOL     OW 3937   0.997   1.549   0.338  0.1957  0.6728 -0.0882
 1013SOL    HW1 3938   1.056   1.553   0.418 -1.3908 -0.6987  1.2153
 1013SOL    HW2 3939   0.915   1.496   0.359  1.3498 -3.0756 -3.6236
 1014SOL     OW 3940   1.463   1.303   4.043  0.3673 -0.1197 -0.1566
 1014SOL    HW1 3941   1.538   1.251   4.086  0.4921  0.9474  0.9586
 1014SOL    HW2 3942   1.387   1.310   4.106 -0.0949  0.0932 -0.7302
 1015SOL     OW 3943   3.910   5.377   1.376  0.3672 -0.2396 -0.7415
 1015SOL    HW1 3944   3.849   5.388   1.454  1.7306  0.4264  0.2465
 1015SOL    HW2 3945   3.918   5.279   1.354  1.4054 -0.6093  1.1271
 1016SOL     OW 3946   0.339   4.081   1.137 -0.5945 -0.7724  0.1708
 1016SOL    HW1 3947   0.371   4.066   1.231 -0.0296  0.8083  0.2526
 1016SOL    HW2 3948   0.241   4.065   1.133 -0.8677  0.4146  1.3587
 1017SOL     OW 3949   5.056   1.033   2.098 -0.3133 -0.0955  0.1458
 1017SOL    HW1 3950   4.961   1.002   2.091 -0.5912  0.4679  1.1810
 1017SOL    HW2 3951   5.057   1.133   2.109  0.4495  0.0050 -0.7680
 1018SOL     OW 3952   6.703   0.682   4.983  0.2411  0.3344  0.2206
 1018SOL    HW1 3953   6.678   0.586   4.974  0.2584  0.1947  1.4510
 1018SOL    HW2 3954   6.718   0.721   4.892  1.5601 -1.1747 -0.2580
 1019SOL     OW 3955   1.186   6.182   1.031  0.6009 -0.0102 -0.4036
 1019SOL    HW1 3956   1.216   6.227   1.115 -0.3079 -0.8806  0.4136
 1019SOL    HW2 3957   1.248   6.106   1.011  0.1415 -0.5448  0.1583
 1020SOL     OW 3958   4.051   3.282   2.723  0.1638  0.0495  0.8959
 1020SOL    HW1 3959   4.019   3.350   2.789 -1.3202 -0.9796  1.2863
 1020SOL    HW2 3960   4.020   3.191   2.751  1.6614 -0.7380  0.1077
 1021SOL     OW 3961   5.580   5.018   2.698 -0.4939 -0.4874 -0.0760
 1021SOL    HW1 3962   5.673   5.046   2.674 -0.5197 -0.5950 -0.3049
 1021SOL    HW2 3963   5.557   5.051   2.790 -1.0598  1.4901 -0.8990
 1022SOL     OW 3964   2.504   3.785   6.686  0.4193 -0.0597  0.1750
 1022SOL    HW1 3965   2.512   3.701   6.632  0.6770 -1.2520  2.0038
 1022SOL    HW2 3966   2.582   3.794   6.747 -0.0188  1.0933  0.6048
 1023SOL     OW 3967   4.075   0.946   6.961  0.0471 -0.0217 -0.0565
 1023SOL    HW1 3968   4.089   1.004   6.881 -0.9860 -1.3016 -1.2252
 1023SOL    HW2 3969   4.028   0.862   6.933  0.5096 -0.9327  1.7497
 1024SOL     OW 3970   6.606   1.030   2.985  0.6794 -0.0718 -0.3444
 1024SOL    HW1 3971   6.685   1.061   3.038 -0.5165  1.7221  0.4968
 1024SOL    HW2 3972   6.623   1.047   2.888  1.3762  0.1963 -0.1843
 1025SOL     OW 3973   0.433   6.570   3.452  0.2349  0.1241 -0.3200
 1025SOL    HW1 3974   0.438   6.636   3.527 -1.3267 -0.6621  0.5354
 1025SOL    HW2 3975   0.427   6.478   3.490 -2.4404 -0.1854 -1.2964
 1026SOL     OW 3976   5.283   3.726   4.854  0.1079  0.3392  0.4882
 1026SOL    HW1 3977   5.244   3.635   4.836 -0.7932  0.4177  1.8570
 1026SOL    HW2 3978   5.208   3.790   4.871  0.7462  0.3861  3.7665
 1027SOL     OW 3979   4.724   5.095   3.639  0.1406 -0.4510  0.1871
 1027SOL    HW1 3980   4.719   5.035   3.560  0.8177  1.9427 -1.7855
 1027SOL    HW2 3981   4.812   5.144   3.639 -0.7607  1.2766  1.1053
 1028SOL     OW 3982   2.619   3.473   5.528  0.2894 -0.2938 -0.0469
 1028SOL    HW1 3983   2.588   3.404   5.463 -2.8311  2.0773 -1.3284
 1028SOL    HW2 3984   2.642   3.557   5.480  0.8790  0.6145  1.7121
 1029SOL     OW 3985   3.785   2.183   5.619  0.0973  0.3129 -0.0825
 1029SOL    HW1 3986   3.852   2.119   5.581  0.0322  0.5411 -0.5979
 1029SOL    HW2 3987   3.736   2.139   5.695  0.2004 -0.1745 -0.2892
 1030SOL     OW 3988   3.174   1.266   0.773  0.4340 -0.0727 -0.7817
 1030SOL    HW1 3989   3.181   1.365   0.780 -1.1758 -0.0450  1.5345
 1030SOL    HW2 3990   3.106   1.242   0.704  0.5069  0.4245 -1.0334
 1031SOL     OW 3991   5.261   4.143   1.183 -0.3181 -0.3444 -0.6190
 1031SOL    HW1 3992   5.292   4.206   1.254 -0.1185  1.6449 -2.3976
 1031SOL    HW2 3993   5.182   4.091   1.216 -0.7582  1.1434  0.7541
 1032SOL     OW 3994   1.247   0.703   4.517  0.4333 -0.0744  0.4022
 1032SOL    HW1 3995   1.273   0.800   4.515 -1.9780  0.6205 -1.1650
 1032SOL    HW2 3996   1.293   0.654   4.443 -1.2062  0.7287 -1.1848
 1033SOL     OW 3997   5.882   4.845   4.649 -0.5560  0.1438  0.3451
 1033SOL    HW1 3998   5.968   4.806   4.617  0.0664  2.1595 -0.6732
 1033SOL    HW2 3999   5.888   4.945   4.645 -2.1134  0.3956  2.5596
 1034SOL     OW 4000   3.388   6.999   5.675 -0.1375  0.3628 -0.1026
 1034SOL    HW1 4001   3.294   6.966   5.687  0.0256  0.5976  2.4079
 1034SOL    HW2 4002   3.386   7.096   5.652 -0.5230  0.4847  0.4080
 1035SOL     OW 4003   0.851   4.754   1.727  0.8425 -0.1123  0.1288
 1035SOL    HW1 4004   0.874   4.659   1.705 -1.2855 -1.0603  1.6928
 1035SOL    HW2 4005   0.927   4.797   1.776  1.7974 -0.9916 -0.5361
 1036SOL     OW 4006   5.538   1.469   5.319 -0.0036  0.3995  0.3441
 1036SOL    HW1 4007   5.624   1.507   5.354  0.1632  0.0291  0.3449
 1036SOL    HW2 4008   5.555   1.379   5.278 -0.5297 -0.0887  1.1554
 1037SOL     OW 4009   1.984   4.851   5.421 -0.3988  0.0842  0.3104
 1037SOL    HW1 4010   1.990   4.940   5.466 -0.0167  0.2175  0.0016
 1037SOL    HW2 4011   2.077   4.816   5.404 -0.4423 -1.7515  3.1417
 1038SOL     OW 4012   2.329   5.633   0.297  0.4275 -0.1573  0.6513
 1038SOL    HW1 4013   2.240   5.642   0.343 -0.8532  0.2966 -1.7289
 1038SOL    HW2 4014   2.368   5.543   0.317 -1.5634 -1.1867  0.2015
 1039SOL     OW 4015   4.345   4.243   0.435  0.3079  0.0290  0.4497
 1039SOL    HW1 4016   4.287   4.296   0.497  0.9453  1.0896  0.1529
 1039SOL    HW2 4017   4.333   4.277   0.342  1.3519  0.2218  0.3773
 1040SOL     OW 4018   6.208   3.590   1.338 -0.0658  0.2847  0.4696
 1040SOL    HW1 4019   6.167   3.679   1.360 -0.9631 -0.2441  1.0299
 1040SOL    HW2 4020   6.166   3.520   1.396  2.0067 -0.2356  1.4073
 1041SOL     OW 4021   6.576   4.664   3.416  0.4104  0.1681 -0.0968
 1041SOL    HW1 4022   6.640   4.700   3.483  0.0214 -1.9015  1.5225
 1041SOL    HW2 4023   6.558   4.567   3.436  0.0026 -0.4584 -3.0217
 1042SOL     OW 4024   3.065   4.401   6.430  0.1788  0.3538 -0.5708
 1042SOL    HW1 4025   3.009   4.401   6.513 -0.0116 -0.2578 -0.6919
 1042SOL    HW2 4026   3.132   4.475   6.435  0.0094  0.4754  0.0209
 1043SOL     OW 4027   2.621   0.994   2.876  0.3177  0.7942 -0.2349
 1043SOL    HW1 4028   2.655   0.912   2.922 -0.5048  0.1264 -0.7674
 1043SOL    HW2 4029   2.531   0.974   2.837  0.2818  1.8401 -0.7065
 1044SOL     OW 4030   0.045   5.435   6.492 -0.2280 -0.0037  0.5683
 1044SOL    HW1 4031   0.100   5.516   6.510 -2.6724  1.7015  0.8183
 1044SOL    HW2 4032   0.031   5.426   6.393  0.4806 -0.4857  0.4977
 1045SOL     OW 4033   2.857   4.499   1.400 -0.4897 -0.2624  0.4303
 1045SOL    HW1 4034   2.852   4.539   1.491 -0.0886  1.0275 -0.0761
 1045SOL    HW2 4035   2.947   4.457   1.387 -0.4014 -0.1025  0.5117
 1046SOL     OW 4036   3.765   5.770   1.817  0.0526 -0.0104 -0.2640
 1046SOL    HW1 4037   3.847   5.827   1.824 -0.3000  0.5566 -0.6883
 1046SOL    HW2 4038   3.707   5.804   1.743 -0.3678 -0.6620 -0.2393
 1047SOL     OW 4039   5.018   6.262   0.766  0.1119 -0.3104  0.1845
 1047SOL    HW1 4040   4.993   6.229   0.857 -1.8305 -0.8256 -0.5021
 1047SOL    HW2 4041   5.030   6.361   0.769  0.6519 -0.3900  1.1056
 1048SOL     OW 4042   2.633   3.559   5.796 -0.0040 -0.0954  0.1397
 1048SOL    HW1 4043   2.550   3.571   5.851 -1.0816  0.1376 -1.4762
 1048SOL    HW2 4044   2.609   3.519   5.708  2.0111 -3.0697  0.7981
 1049SOL     OW 4045   5.467   0.102   3.283 -0.1220 -0.4639 -0.1138
 1049SOL    HW1 4046   5.415   0.022   3.252 -1.7017  0.5412 -0.1937
 1049SOL    HW2 4047   5.463   0.174   3.213 -1.5514  0.8770  1.2452
 1050SOL     OW 4048   5.852   1.976   2.568 -0.0229  0.7478  0.4704
 1050SOL    HW1 4049   5.808   2.027   2.642  0.3357  0.7313  0.6966
 1050SOL    HW2 4050   5.854   1.879   2.591 -2.0605  0.4031 -0.6243
 1051SOL     OW 4051   4.782   0.254   6.821  0.0191  0.4732  0.2634
 1051SOL    HW1 4052   4.847   0.254   6.897 -0.3808 -0.6401  0.6206
 1051SOL    HW2 4053   4.827   0.289   6.739  1.4324 -1.2970  0.2261
 1052SOL     OW 4054   3.788   5.901   5.787  0.1546  0.6220  0.0575
 1052SOL    HW1 4055   3.739   5.970   5.732 -0.2908 -0.8259 -1.4345
 1052SOL    HW2 4056   3.731   5.875   5.865 -0.1155  1.1707  0.0520
 1053SOL     OW 4057   4.533   1.222   1.066  0.1400  0.5770  0.3390
 1053SOL    HW1 4058   4.592   1.150   1.101 -2.0965 -1.8079 -0.4264
 1053SOL    HW2 4059   4.474   1.256   1.139  1.5945  2.1540  0.8404
 1054SOL     OW 4060   2.265   6.305   4.213  0.1113 -0.4036  0.0424
 1054SOL    HW1 4061   2.285   6.370   4.140  1.4940 -2.2165 -1.2805
 1054SOL    HW2 4062   2.338   6.307   4.281 -0.5147  0.3516  0.7020
 1055SOL     OW 4063   6.943   5.464   6.234 -0.0330 -0.4070  0.2741
 1055SOL    HW1 4064   6.968   5.466   6.137 -0.1370  0.0353  0.2552
 1055SOL    HW2 4065   6.877   5.391   6.250 -0.6035  0.0152 -0.1352
 1056SOL     OW 4066   1.565   2.638   5.174  0.2276  0.1803  0.3894
 1056SOL    HW1 4067   1.597   2.696   5.099 -1.7715 -1.3784 -1.8244
 1056SOL    HW2 4068   1.614   2.662   5.258  1.7804  2.7756 -1.1186
 1057SOL     OW 4069   2.297   6.707   0.646 -0.2436  0.6355 -0.0388
 1057SOL    HW1 4070   2.271   6.693   0.551  1.1873 -3.1171 -0.0680
 1057SOL    HW2 4071   2.215   6.704   0.704 -0.8585  0.0134 -0.9221
 1058SOL     OW 4072   6.041   0.330   4.392 -1.0759  0.3862  0.0551
 1058SOL    HW1 4073   6.015   0.336   4.296  0.6072  1.3939 -0.3771
 1058SOL    HW2 4074   6.068   0.420   4.425 -1.3903  0.0026  1.4175
 1059SOL     OW 4075   5.890   0.538   2.234 -0.4579 -0.4828  0.4865
 1059SOL    HW1 4076   5.790   0.538   2.234 -0.5294 -1.5255 -1.8113
 1059SOL    HW2 4077   5.923   0.609   2.172  0.1352 -1.5116 -0.4126
 1060SOL     OW 4078   4.575   4.714   1.841  0.2218  0.0307 -0.2253
 1060SOL    HW1 4079   4.625   4.725   1.754  1.5804  0.0476  0.5256
 1060SOL    HW2 4080   4.641   4.712   1.916 -0.9124 -0.4150  0.7752
 1061SOL     OW 4081   4.942   5.575   6.196  0.1114  0.7004 -0.0078
 1061SOL    HW1 4082   5.019   5.638   6.191  0.9694 -0.0612  2.2955
 1061SOL    HW2 4083   4.860   5.625   6.226  0.2371  1.1090 -0.3361
 1062SOL     OW 4084   5.674   1.386   3.033 -0.1953  0.0098  0.0445
 1062SOL    HW1 4085   5.713   1.444   3.105  0.1042 -1.4787  1.1288
 1062SOL    HW2 4086   5.596   1.335   3.070  0.3489 -1.2539 -0.4763
 1063SOL     OW 4087   5.457   4.496   2.984  0.4022  0.5921 -0.0292
 1063SOL    HW1 4088   5.484   4.400   2.971  0.3799  0.7220 -1.0869
 1063SOL    HW2 4089   5.370   4.499   3.034  0.3365  0.0556 -0.1016
 1064SOL     OW 4090   4.174   0.502   6.615  0.3971 -0.2170  0.2874
 1064SOL    HW1 4091   4.211   0.550   6.694 -0.5887  0.3608  0.4097
 1064SOL    HW2 4092   4.076   0.487   6.627  0.0400  0.7118 -1.2186
 1065SOL     OW 4093   4.732   0.045   2.873 -0.3317  0.1179  0.1247
 1065SOL    HW1 4094   4.802  -0.021   2.847 -0.8127 -0.6476  0.7285
 1065SOL    HW2 4095   4.648   0.026   2.822  0.0710  1.4498 -1.0993
 1066SOL     OW 4096   2.094   2.094   3.834  0.2350 -0.3094  0.0843
 1066SOL    HW1 4097   2.092   2.177   3.779 -2.3246  0.8404  1.7575
 1066SOL    HW2 4098   2.180   2.088   3.883  0.5615  1.2174 -0.2653
 1067SOL     OW 4099   0.666   0.379   5.633 -0.3363  0.1488 -0.0198
 1067SOL    HW1 4100   0.752   0.419   5.602  1.0806 -2.0358  0.8717
 1067SOL    HW2 4101   0.672   0.358   5.731 -1.6697 -0.5895 -0.0726
 1068SOL     OW 4102   0.161   4.484   6.604 -0.4210 -0.2663 -0.4218
 1068SOL    HW1 4103   0.069   4.492   6.642 -0.5454  0.5800 -0.8707
 1068SOL    HW2 4104   0.215   4.421   6.659 -1.1096 -0.3626  0.1505
 1069SOL     OW 4105   4.574   5.543   6.562  0.3886 -0.1583 -0.1769
 1069SOL    HW1 4106   4.617   5.582   6.480  2.7504 -2.1204  0.0155
 1069SOL    HW2 4107   4.624   5.573   6.643 -1.3269  0.9622  0.5315
 1070SOL     OW 4108   4.121   2.536   0.000 -0.2533 -0.7480  0.2025
 1070SOL    HW1 4109   4.127   2.630   0.032  0.7893 -0.9500  0.6728
 1070SOL    HW2 4110   4.027   2.515  -0.026 -1.1256 -0.4324  2.7906
 1071SOL     OW 4111   1.839   6.565   6.908 -0.2796 -0.1686 -0.4080
 1071SOL    HW1 4112   1.805   6.593   6.998 -2.5410 -0.8479 -0.9760
 1071SOL    HW2 4113   1.855   6.646   6.851  0.3224  0.2211  0.3038
 1072SOL     OW 4114   4.256   5.525   3.704 -0.1619 -0.1213  0.3402
 1072SOL    HW1 4115   4.331   5.501   3.766 -0.2946  1.5139  1.1935
 1072SOL    HW2 4116   4.208   5.441   3.676  1.5966 -1.1464  0.2290
 1073SOL     OW 4117   1.480   1.172   4.794 -0.3230 -0.0387 -1.0395
 1073SOL    HW1 4118   1.384   1.157   4.770 -0.5842 -0.0899  0.0067
 1073SOL    HW2 4119   1.490   1.173   4.893  0.5371  1.4408 -1.1131
 1074SOL     OW 4120   6.749   5.442   0.607 -0.3312  0.0257  0.3631
 1074SOL    HW1 4121   6.735   5.514   0.540 -0.2189  0.8517  1.2012
 1074SOL    HW2 4122   6.718   5.355   0.570  0.1920  0.3754 -0.9339
 1075SOL     OW 4123   6.339   0.966   2.094 -0.9449 -0.2828  0.5713
 1075SOL    HW1 4124   6.423   0.911   2.103 -1.8336 -1.6999  0.5692
 1075SOL    HW2 4125   6.278   0.922   2.028 -1.0595  1.5684 -0.6165
 1076SOL     OW 4126   4.909   4.823   5.910  0.0217 -0.1096  0.0842
 1076SOL    HW1 4127   4.959   4.814   5.824  2.4947  0.8931  1.3098
 1076SOL    HW2 4128   4.865   4.736   5.932  2.0386 -1.3943 -0.6426
 1077SOL     OW 4129   5.396   5.646   2.455  0.0744 -0.6347  0.3429
 1077SOL    HW1 4130   5.436   5.722   2.404 -0.6616 -0.4986 -0.0396
 1077SOL    HW2 4131   5.401   5.562   2.400 -1.8168 -0.2477 -0.5039
 1078SOL     OW 4132   2.711   6.951   3.890 -0.1887  0.4898 -0.3228
 1078SOL    HW1 4133   2.632   6.905   3.849  0.3725  0.9284 -1.9882
 1078SOL    HW2 4134   2.733   7.033   3.837 -0.6726  2.2850  2.1227
 1079SOL     OW 4135   1.429   0.315   6.858 -0.0548  0.6905 -0.3044
 1079SOL    HW1 4136   1.462   0.247   6.793 -1.4082  0.8623 -1.2343
 1079SOL    HW2 4137   1.406   0.271   6.945  2.2237  0.5298  0.2720
 1080SOL     OW 4138   1.576   6.096   0.470  0.2028 -0.0363  0.1197
 1080SOL    HW1 4139   1.506   6.167   0.463  2.7065  2.3907 -3.2022
 1080SOL    HW2 4140   1.582   6.047   0.383  0.6960 -2.2596  1.3296
 1081SOL     OW 4141   0.534   4.827   5.638  0.1676  0.1459 -0.0898
 1081SOL    HW1 4142   0.609   4.876   5.595 -1.1645  2.7894  0.3656
 1081SOL    HW2 4143   0.553   4.814   5.735  0.1492  0.5950 -0.0252
 1082SOL     OW 4144   0.433   0.250   4.687 -0.2739  0.2503  0.6781
 1082SOL    HW1 4145   0.399   0.157   4.703  1.2888 -0.2542  1.2468
 1082SOL    HW2 4146   0.410   0.279   4.595 -1.4304 -0.4053  0.7469
 1083SOL     OW 4147   0.163   0.390   6.063 -0.5236 -0.1271 -0.0618
 1083SOL    HW1 4148   0.257   0.426   6.065 -0.0361 -1.3946  1.3989
 1083SOL    HW2 4149   0.129   0.395   5.969  0.8420  0.7405 -0.5561
 1084SOL     OW 4150   2.813   2.392   6.182 -0.0817 -0.5674 -0.3913
 1084SOL    HW1 4151   2.760   2.438   6.111 -0.3816 -0.9221 -0.4028
 1084SOL    HW2 4152   2.905   2.373   6.148 -0.0347 -0.2010 -0.4721
 1085SOL     OW 4153   1.301   3.433   1.687  0.1921 -0.6704  0.2510
 1085SOL    HW1 4154   1.401   3.434   1.683  0.2054  0.4812  0.6281
 1085SOL    HW2 4155   1.268   3.524   1.710 -1.1055 -0.2403 -2.9157
 1086SOL     OW 4156   5.140   0.911   0.073  0.8252 -0.1368  0.5957
 1086SOL    HW1 4157   5.075   0.949   0.007  0.9555 -0.0976  0.4915
 1086SOL    HW2 4158   5.233   0.926   0.042  0.8816 -0.3877  0.6388
 1087SOL     OW 4159   6.806   2.494   5.943  0.2730 -0.8194 -0.4121
 1087SOL    HW1 4160   6.885   2.444   5.908  2.6061  1.7331  0.8294
 1087SOL    HW2 4161   6.794   2.579   5.892 -1.1581 -0.7583 -0.0307
 1088SOL     OW 4162   5.042   1.402   1.843  0.4657 -0.4439 -0.1685
 1088SOL    HW1 4163   5.094   1.369   1.764  2.4571 -1.1387  1.3319
 1088SOL    HW2 4164   5.106   1.430   1.915 -1.2789  0.0437  1.2631
 1089SOL     OW 4165   3.240   6.384   2.162 -0.1330  0.4160 -0.4940
 1089SOL    HW1 4166   3.307   6.310   2.169 -0.7527 -0.1829 -0.6882
 1089SOL    HW2 4167   3.284   6.467   2.129  0.6072  0.1737 -0.1330
 1090SOL     OW 4168   5.079   6.826   0.917  0.2399 -0.5605 -0.1479
 1090SOL    HW1 4169   4.991   6.850   0.958  0.4975  1.2815 -0.5531
 1090SOL    HW2 4170   5.135   6.776   0.983 -1.3148 -2.3512 -0.1075
 1091SOL     OW 4171   5.540   4.987   1.623  0.1067 -0.3939 -0.0335
 1091SOL    HW1 4172   5.632   4.950   1.633  0.1581 -0.6326 -1.1788
 1091SOL    HW2 4173   5.530   5.071   1.677  1.6981  0.8390 -1.5455
 1092SOL     OW 4174   2.796   6.197   5.552 -0.1486  0.3165 -0.3951
 1092SOL    HW1 4175   2.883   6.186   5.504 -0.6398  2.4319 -1.9485
 1092SOL    HW2 4176   2.749   6.109   5.557  0.0756 -0.1270 -3.6530
 1093SOL     OW 4177   5.998   4.917   2.273  0.2808 -0.1169 -0.4818
 1093SOL    HW1 4178   6.024   4.829   2.233  0.9117 -0.4816  0.6936
 1093SOL    HW2 4179   6.076   4.957   2.320 -0.2119  0.7110 -0.3429
 1094SOL     OW 4180   6.963   2.355   3.924  1.0434 -0.4447 -0.4921
 1094SOL    HW1 4181   7.034   2.392   3.983 -1.3675  4.3506 -0.0304
 1094SOL    HW2 4182   6.959   2.408   3.839 -1.1425 -1.2807 -0.9968
 1095SOL     OW 4183   1.318   5.368   1.148  0.7162 -0.1405  0.4441
 1095SOL    HW1 4184   1.393   5.321   1.102  1.0834  0.7098  0.1450
 1095SOL    HW2 4185   1.337   5.375   1.246  1.3659  0.6575  0.2742
 1096SOL     OW 4186   1.301   2.676   4.310 -0.2589 -0.4119 -0.0043
 1096SOL    HW1 4187   1.313   2.676   4.211  0.2045 -1.7438  0.0323
 1096SOL    HW2 4188   1.203   2.675   4.332 -0.3696 -1.4238 -0.4849
 1097SOL     OW 4189   4.061   0.265   3.339 -0.4051 -0.4207 -0.0338
 1097SOL    HW1 4190   4.037   0.265   3.436  0.6363 -0.9848  0.2311
 1097SOL    HW2 4191   3.982   0.233   3.285 -1.0574  0.1031  0.5901
 1098SOL     OW 4192   2.306   3.390   0.171 -0.2893  0.1337  0.6144
 1098SOL    HW1 4193   2.217   3.426   0.199 -1.1282 -2.0143  0.8891
 1098SOL    HW2 4194   2.296   3.296   0.141  1.8297  0.0236  0.1061
 1099SOL     OW 4195   5.143   0.271   3.389 -0.1357  0.2043  0.1292
 1099SOL    HW1 4196   5.225   0.328   3.380 -1.1891  1.7467 -0.0254
 1099SOL    HW2 4197   5.062   0.326   3.373 -1.3069 -0.9569  1.7230
 1100SOL     OW 4198   6.659   1.007   0.176  0.4654  0.0735  0.7696
 1100SOL    HW1 4199   6.569   1.012   0.133  0.5649  0.1979  0.5765
 1100SOL    HW2 4200   6.648   1.006   0.276  0.0710 -2.8138  0.7889
 1101SOL     OW 4201   5.211   4.997   6.691  0.5367 -0.1984  0.0489
 1101SOL    HW1 4202   5.253   4.929   6.631 -0.4219 -1.4601  0.7669
 1101SOL    HW2 4203   5.179   4.953   6.774 -0.2498  1.1229  0.4776
 1102SOL     OW 4204   2.723   4.904   1.707 -0.7790 -0.0833  0.2261
 1102SOL    HW1 4205   2.729   4.986   1.649  1.7130  1.0032  1.8402
 1102SOL    HW2 4206   2.777   4.830   1.666 -1.8458 -0.4734 -0.5096
 1103SOL     OW 4207   0.547   4.352   2.268  0.3470  0.3120 -0.1002
 1103SOL    HW1 4208   0.517   4.416   2.339  1.7342  1.6340 -0.6395
 1103SOL    HW2 4209   0.615   4.290   2.306 -0.9564 -0.8486  0.4089
 1104SOL     OW 4210   4.807   6.726   4.500 -0.0463  0.0204 -0.2156
 1104SOL    HW1 4211   4.727   6.692   4.550 -0.2154  0.0208 -0.4850
 1104SOL    HW2 4212   4.780   6.752   4.407  0.2455  0.1246 -0.2727
 1105SOL     OW 4213   3.792   6.895   3.595 -0.7316 -0.1906 -0.2657
 1105SOL    HW1 4214   3.711   6.930   3.549 -1.3949 -0.0999  0.9369
 1105SOL    HW2 4215   3.784   6.796   3.607 -1.0700 -0.0697  0.5967
 1106SOL     OW 4216   0.426   6.415   4.200  0.6142  1.1898  0.2103
 1106SOL    HW1 4217   0.494   6.376   4.262  0.3505  0.9908  0.3730
 1106SOL    HW2 4218   0.417   6.513   4.219  0.1078  1.0179  0.8877
 1107SOL     OW 4219   1.122   2.090   6.446 -0.0088  0.0298  0.2384
 1107SOL    HW1 4220   1.068   2.167   6.412  1.4233  0.6068 -0.8367
 1107SOL    HW2 4221   1.128   2.020   6.376  2.2073  0.8277 -0.4636
 1108SOL     OW 4222   1.812   1.303   3.907  0.2103 -0.1111  0.3067
 1108SOL    HW1 4223   1.734   1.328   3.851 -0.5699 -0.5444  1.1709
 1108SOL    HW2 4224   1.895   1.344   3.869 -0.3641  0.0094 -0.8607
 1109SOL     OW 4225   3.737   2.790   0.861  0.0941 -0.0856 -0.0434
 1109SOL    HW1 4226   3.800   2.848   0.913  0.6632 -2.0325  1.5781
 1109SOL    HW2 4227   3.699   2.720   0.922  0.2370 -2.0655 -2.1141
 1110SOL     OW 4228   3.439   0.299   3.979  0.1169 -0.1218  0.2280
 1110SOL    HW1 4229   3.472   0.208   4.006 -2.4840 -0.8615  1.2258
 1110SOL    HW2 4230   3.476   0.368   4.042  0.9909 -0.6677  0.3322
 1111SOL     OW 4231   6.735   3.638   6.346  0.4080  0.6906  0.0676
 1111SOL    HW1 4232   6.723   3.718   6.405  2.5188  0.5135  0.8366
 1111SOL    HW2 4233   6.805   3.656   6.278  2.8011 -1.2403  1.8487
 1112SOL     OW 4234   4.532   6.243   4.495  0.0562  0.3914  0.4652
 1112SOL    HW1 4235   4.459   6.193   4.449  0.3326  0.0506  0.3908
 1112SOL    HW2 4236   4.525   6.228   4.594  0.5362 -0.3461  0.3941
 1113SOL     OW 4237   2.781   5.530   6.526  0.1721 -0.1433 -0.3345
 1113SOL    HW1 4238   2.755   5.626   6.515 -1.8957 -0.8105 -1.8687
 1113SOL    HW2 4239   2.714   5.483   6.583  0.6372 -0.8867 -0.3825
 1114SOL     OW 4240   4.800   1.633   6.147 -0.5449 -0.1912 -0.3233
 1114SOL    HW1 4241   4.709   1.591   6.143 -1.2629  1.1243  1.0799
 1114SOL    HW2 4242   4.807   1.705   6.079  0.3556 -1.8491 -2.0855
 1115SOL     OW 4243   3.976   4.048   5.844  0.0635  1.0561  0.2571
 1115SOL    HW1 4244   3.921   4.050   5.760 -0.4116  2.5042  0.5731
 1115SOL    HW2 4245   4.020   3.959   5.852  0.6682  1.0902 -1.8943
 1116SOL     OW 4246   1.594   4.994   3.066  0.5685 -0.6761  0.2533
 1116SOL    HW1 4247   1.664   5.065   3.056  0.6259 -0.6465  0.8247
 1116SOL    HW2 4248   1.620   4.931   3.140 -0.3979 -0.1822  1.0444
 1117SOL     OW 4249   0.100   4.936   0.756 -0.0550  0.1728  0.1353
 1117SOL    HW1 4250   0.162   4.913   0.831 -1.8880 -2.1094  1.0534
 1117SOL    HW2 4251   0.150   4.930   0.669  1.3773  0.0095  0.9353
 1118SOL     OW 4252   0.189   0.930   5.363 -0.4502  0.6174 -0.2144
 1118SOL    HW1 4253   0.202   0.949   5.266  1.0549  1.1126  0.0715
 1118SOL    HW2 4254   0.097   0.960   5.391 -0.1528  2.3495 -1.0289
 1119SOL     OW 4255   2.007   2.427   6.879  0.4196  0.3920  0.2695
 1119SOL    HW1 4256   2.078   2.491   6.908  0.2004  0.4977  0.5766
 1119SOL    HW2 4257   2.025   2.337   6.918  1.0129  0.1293 -0.5777
 1120SOL     OW 4258   5.214   0.609   0.566 -0.0037  0.2203 -0.4412
 1120SOL    HW1 4259   5.307   0.582   0.591 -0.3837 -0.6793  0.0522
 1120SOL    HW2 4260   5.215   0.657   0.478  0.9148  0.1384 -0.4810
 1121SOL     OW 4261   2.286   5.271   5.891  0.3539  0.5976 -0.3169
 1121SOL    HW1 4262   2.236   5.190   5.921 -0.3592  2.0457  2.9116
 1121SOL    HW2 4263   2.363   5.287   5.952 -0.3255  3.0259  0.0172
 1122SOL     OW 4264   0.403   4.427   3.108 -0.2460  0.4808 -0.3577
 1122SOL    HW1 4265   0.426   4.522   3.087  0.1259  0.3842 -0.3906
 1122SOL    HW2 4266   0.305   4.420   3.128 -0.2668  0.8761 -0.3171
 1123SOL     OW 4267   6.515   0.645   3.249  0.7707 -0.1869  0.1746
 1123SOL    HW1 4268   6.484   0.740   3.255  0.8873 -0.2232  1.8512
 1123SOL    HW2 4269   6.615   0.642   3.255  0.6931 -0.4868  1.5588
 1124SOL     OW 4270   5.053   4.396   5.194  0.1116 -0.2128 -0.5343
 1124SOL    HW1 4271   5.019   4.312   5.237  0.3729 -0.0488 -0.0134
 1124SOL    HW2 4272   5.110   4.446   5.258 -1.0590  1.0046 -0.3923
 1125SOL     OW 4273   3.168   4.275   1.119  0.0811 -0.2370 -0.2408
 1125SOL    HW1 4274   3.094   4.308   1.061  0.3972  0.5382 -0.2235
 1125SOL    HW2 4275   3.228   4.214   1.067 -1.1472 -1.7384  0.0344
 1126SOL     OW 4276   2.132   6.247   6.060  0.5206  0.2315 -0.3817
 1126SOL    HW1 4277   2.210   6.185   6.066  0.4795  0.2550  0.6624
 1126SOL    HW2 4278   2.047   6.193   6.056  0.5754  0.2075 -1.3831
 1127SOL     OW 4279   5.334   6.005   5.396 -0.1995  0.2658 -0.3879
 1127SOL    HW1 4280   5.237   5.993   5.418  0.0054  0.7567  0.8907
 1127SOL    HW2 4281   5.344   6.030   5.300 -1.2063 -1.3752 -0.9455
 1128SOL     OW 4282   5.722   4.607   1.337  0.1000  0.3973 -0.2225
 1128SOL    HW1 4283   5.729   4.706   1.352  0.0754  0.3897 -0.1585
 1128SOL    HW2 4284   5.653   4.589   1.266 -0.2124  0.4038  0.0790
 1129SOL     OW 4285   5.506   2.776   2.703 -1.2119  0.1172 -0.3464
 1129SOL    HW1 4286   5.465   2.686   2.688  0.1922 -0.7330  0.5813
 1129SOL    HW2 4287   5.598   2.778   2.663 -1.3245  1.2486 -0.5875
 1130SOL     OW 4288   4.866   3.845   2.365  0.0851  0.0268 -0.0120
 1130SOL    HW1 4289   4.948   3.793   2.391  0.0651  0.0177  0.0329
 1130SOL    HW2 4290   4.809   3.790   2.305  0.1987  0.0991 -0.1862
 1131SOL     OW 4291   0.159   0.283   5.801 -0.3321 -0.6680  0.0130
 1131SOL    HW1 4292   0.205   0.286   5.712 -0.2957  0.0271  0.0509
 1131SOL    HW2 4293   0.061   0.293   5.789 -0.4004 -1.3473 -0.0064
 1132SOL     OW 4294   2.209   1.239   0.275  0.1009  0.0243 -0.3980
 1132SOL    HW1 4295   2.250   1.154   0.308 -0.0220  0.4066  0.8135
 1132SOL    HW2 4296   2.114   1.222   0.248  0.0733 -0.2252 -0.1460
 1133SOL     OW 4297   3.435   1.636   2.349  0.3009  0.0383 -0.2001
 1133SOL    HW1 4298   3.405   1.622   2.254  0.4743  0.2166 -0.2800
 1133SOL    HW2 4299   3.355   1.657   2.406  0.3875  1.6353 -0.6165
 1134SOL     OW 4300   0.199   6.596   3.747  0.3961 -0.1012 -0.4721
 1134SOL    HW1 4301   0.129   6.594   3.676 -0.3185  3.1589 -0.0455
 1134SOL    HW2 4302   0.156   6.575   3.836 -0.0478  1.4257 -0.2808
 1135SOL     OW 4303   0.952   4.654   6.603 -0.3313  0.3219  0.1660
 1135SOL    HW1 4304   0.968   4.565   6.646  0.7576  0.6614  0.5075
 1135SOL    HW2 4305   0.986   4.652   6.509  1.3105  0.8849  0.7235
 1136SOL     OW 4306   6.875   0.299   6.958 -0.0108  0.4250  0.2788
 1136SOL    HW1 4307   6.934   0.377   6.981  0.2464  0.1948  0.4067
 1136SOL    HW2 4308   6.798   0.296   7.021 -0.2797  0.8541 -0.0232
 1137SOL     OW 4309   0.008   1.734   6.941  0.1213  0.1280 -0.2603
 1137SOL    HW1 4310   0.039   1.644   6.968 -1.4294 -1.0011 -1.9728
 1137SOL    HW2 4311   0.042   1.755   6.849 -0.0931  1.0190 -0.1522
 1138SOL     OW 4312   3.959   0.793   1.820  0.0401  0.1200  0.0279
 1138SOL    HW1 4313   3.899   0.713   1.827 -1.4775  1.1751 -0.3131
 1138SOL    HW2 4314   4.054   0.763   1.822 -0.4718 -1.7944 -1.0696
 1139SOL     OW 4315   3.450   3.673   6.751  0.5439 -0.3538 -0.0024
 1139SOL    HW1 4316   3.475   3.748   6.689 -0.6176 -0.1152 -0.2127
 1139SOL    HW2 4317   3.455   3.586   6.703  0.2930 -0.2337 -0.2522
 1140SOL     OW 4318   6.039   5.080   3.819 -0.1508 -0.7020 -0.1667
 1140SOL    HW1 4319   6.046   4.999   3.878 -1.1122 -0.1927  0.6899
 1140SOL    HW2 4320   6.019   5.052   3.726  2.7189 -1.6189 -0.6249
 1141SOL     OW 4321   5.009   4.090   3.830  0.3143 -0.1005  0.0180
 1141SOL    HW1 4322   5.038   4.018   3.892  0.3477 -0.2343 -0.1504
 1141SOL    HW2 4323   5.025   4.061   3.735  0.3968  0.1569 -0.0482
 1142SOL     OW 4324   3.917   5.989   1.926  0.3998 -0.0039 -0.2025
 1142SOL    HW1 4325   3.960   6.044   1.854 -0.7465  1.0543 -0.1124
 1142SOL    HW2 4326   3.987   5.957   1.990  1.1686  0.9097 -0.5648
 1143SOL     OW 4327   5.957   3.672   6.358 -0.0176 -0.8266  0.0654
 1143SOL    HW1 4328   5.950   3.588   6.411  0.2165 -0.3475  0.8638
 1143SOL    HW2 4329   5.897   3.742   6.397  1.0698 -0.0880  0.4626
 1144SOL     OW 4330   4.866   5.488   0.929 -0.0362 -0.6688  0.6458
 1144SOL    HW1 4331   4.929   5.531   0.866 -0.4400  1.9694  1.8946
 1144SOL    HW2 4332   4.891   5.513   1.023 -1.7844 -1.1424  1.2727
 1145SOL     OW 4333   1.106   2.173   0.796 -0.0203 -0.0454 -0.3312
 1145SOL    HW1 4334   1.083   2.192   0.891 -2.8662 -1.3156 -0.6499
 1145SOL    HW2 4335   1.101   2.257   0.743 -2.4682  0.1142  0.0068
 1146SOL     OW 4336   5.224   3.587   2.784  0.3554 -0.0993 -0.1440
 1146SOL    HW1 4337   5.265   3.523   2.848  1.0083  2.4737  2.2001
 1146SOL    HW2 4338   5.266   3.576   2.694  1.4283 -1.9642  0.5434
 1147SOL     OW 4339   1.680   3.262   5.093  0.2719  0.2402 -0.1317
 1147SOL    HW1 4340   1.759   3.222   5.140  1.0465  1.8907  0.0815
 1147SOL    HW2 4341   1.597   3.244   5.146  0.1870 -2.8477 -1.1320
 1148SOL     OW 4342   5.648   2.559   5.857 -0.3547 -0.2733 -0.1697
 1148SOL    HW1 4343   5.640   2.607   5.944  2.1931  1.5990 -0.8568
 1148SOL    HW2 4344   5.618   2.618   5.783 -0.9275 -1.2315 -0.7204
 1149SOL     OW 4345   3.899   1.622   5.775  0.6308 -0.6084  0.5630
 1149SOL    HW1 4346   3.946   1.684   5.712  1.8068  0.2743  2.2275
 1149SOL    HW2 4347   3.946   1.534   5.777  1.2160 -0.2871  0.9782
 1150SOL     OW 4348   2.129   1.624   2.522 -0.3028 -0.6654  0.6278
 1150SOL    HW1 4349   2.050   1.652   2.576  0.0555  2.0403 -0.0993
 1150SOL    HW2 4350   2.212   1.666   2.559  0.1661 -0.0252 -1.0596
 1151SOL     OW 4351   0.119   0.378   3.141 -0.4310  0.5010  0.1086
 1151SOL    HW1 4352   0.052   0.335   3.080 -2.2244  2.5875  0.4785
 1151SOL    HW2 4353   0.204   0.394   3.091 -0.4510 -1.4356 -0.6321
 1152SOL     OW 4354   2.120   6.247   2.875 -0.2102  0.4905  0.3053
 1152SOL    HW1 4355   2.193   6.186   2.843 -2.4275 -1.7183 -0.9095
 1152SOL    HW2 4356   2.054   6.260   2.801 -1.7792  1.2511  1.7806
 1153SOL     OW 4357   0.236   4.552   5.113 -1.2675 -0.3154  0.6292
 1153SOL    HW1 4358   0.159   4.601   5.071 -1.6951 -0.8557  0.7738
 1153SOL    HW2 4359   0.292   4.617   5.164 -0.9173  0.3080 -0.5040
 1154SOL     OW 4360   0.781   6.641   5.041 -0.6604 -0.0154  0.4246
 1154SOL    HW1 4361   0.878   6.626   5.060 -0.3039 -0.5326 -1.5773
 1154SOL    HW2 4362   0.759   6.738   5.052  0.1964  0.1896  0.3944
 1155SOL     OW 4363   0.412   5.803   2.171  0.5469 -0.2665  0.0448
 1155SOL    HW1 4364   0.362   5.844   2.095  0.9689 -1.5287 -0.9581
 1155SOL    HW2 4365   0.369   5.715   2.195  1.5880 -0.8239 -0.0813
 1156SOL     OW 4366   0.001   6.526   5.853 -0.0508  0.4276  0.3068
 1156SOL    HW1 4367  -0.085   6.546   5.807  0.0794 -1.0809 -0.6858
 1156SOL    HW2 4368  -0.012   6.449   5.916  0.9751 -1.2502 -1.4209
 1157SOL     OW 4369   4.825   6.400   4.146  0.3719 -0.3708 -0.3966
 1157SOL    HW1 4370   4.752   6.425   4.210 -1.3951 -1.3148 -1.9588
 1157SOL    HW2 4371   4.903   6.362   4.197 -0.0628  0.9339  1.3338
 1158SOL     OW 4372   1.023   6.322   2.374 -0.6733 -0.1647  0.1289
 1158SOL    HW1 4373   0.924   6.333   2.382 -0.9790 -2.0737 -0.3432
 1158SOL    HW2 4374   1.053   6.348   2.283 -0.7432  0.3461  0.2493
 1159SOL     OW 4375   2.926   1.382   4.115 -0.3753  0.2868  0.1705
 1159SOL    HW1 4376   3.013   1.414   4.079  0.8053 -0.5058  2.1307
 1159SOL    HW2 4377   2.851   1.429   4.069  1.1193  2.0273 -0.6051
 1160SOL     OW 4378   0.844   2.032   5.124  0.3610  0.0283  0.7789
 1160SOL    HW1 4379   0.751   2.063   5.142  0.3084  1.5045 -1.5727
 1160SOL    HW2 4380   0.847   1.985   5.036  1.9807  0.7549  0.4177
 1161SOL     OW 4381   0.497   3.023   1.333  0.6952  0.5464 -0.1863
 1161SOL    HW1 4382   0.477   3.110   1.378 -0.7737 -0.1365  0.5147
 1161SOL    HW2 4383   0.466   3.027   1.238 -0.7441  0.2908  0.2561
 1162SOL     OW 4384   0.798   1.958   0.379 -0.4932 -0.4494 -0.1186
 1162SOL    HW1 4385   0.821   1.915   0.292 -0.6996  0.7239 -0.7802
 1162SOL    HW2 4386   0.862   2.032   0.398 -2.8028  2.0653 -1.3937
 1163SOL     OW 4387   6.390   1.655   5.248  0.2948  0.0172  0.5133
 1163SOL    HW1 4388   6.394   1.742   5.298  0.9854 -0.0504  0.5809
 1163SOL    HW2 4389   6.483   1.622   5.231  0.0613 -0.0054 -0.7601
 1164SOL     OW 4390   5.014   0.224   4.215 -0.1344  0.6045  0.3227
 1164SOL    HW1 4391   5.040   0.235   4.119  0.1283  1.2842  0.4659
 1164SOL    HW2 4392   5.087   0.177   4.264  1.0150  2.7279  0.7780
 1165SOL     OW 4393   2.411   6.550   3.354  0.0698  0.2703  0.9016
 1165SOL    HW1 4394   2.447   6.529   3.263  1.1721  2.8272  0.6752
 1165SOL    HW2 4395   2.315   6.523   3.359 -0.8969  2.5980 -2.0752
 1166SOL     OW 4396   0.047   4.600   2.587 -0.7040  0.1705  0.1720
 1166SOL    HW1 4397   0.109   4.550   2.527 -1.0160 -0.6445  0.5247
 1166SOL    HW2 4398   0.093   4.618   2.674 -1.7018 -2.5421  1.3684
 1167SOL     OW 4399   0.652   1.772   4.146 -0.6196  0.1839 -0.4267
 1167SOL    HW1 4400   0.616   1.704   4.082 -2.9793  0.6532  0.2923
 1167SOL    HW2 4401   0.728   1.821   4.104 -1.2426 -0.4282 -2.3475
 1168SOL     OW 4402   6.203   1.906   5.874 -0.0818  0.2897  0.2493
 1168SOL    HW1 4403   6.216   1.837   5.945  0.0930  0.3264  0.2545
 1168SOL    HW2 4404   6.112   1.946   5.883  0.6873  1.8364  1.8405
 1169SOL     OW 4405   0.878   3.618   5.087  0.0148  0.2733  0.1138
 1169SOL    HW1 4406   0.779   3.634   5.089 -0.0029  0.2403  1.8856
 1169SOL    HW2 4407   0.914   3.640   4.997 -1.6907 -0.2668 -0.7373
 1170SOL     OW 4408   1.824   1.929   4.774 -0.2828 -0.4828  0.8940
 1170SOL    HW1 4409   1.862   1.942   4.682 -0.0325  0.6662  1.1413
 1170SOL    HW2 4410   1.863   1.847   4.815  0.4433 -0.4026  0.3907
 1171SOL     OW 4411   3.724   3.467   2.139 -0.2053 -0.1172  0.0455
 1171SOL    HW1 4412   3.768   3.527   2.072  0.2109  0.4467  0.8082
 1171SOL    HW2 4413   3.750   3.372   2.121  0.7773  0.1379  0.0618
 1172SOL     OW 4414   2.613   0.989   5.131 -0.3687 -0.8954  0.1108
 1172SOL    HW1 4415   2.706   0.955   5.117  0.0165 -0.3555  1.1997
 1172SOL    HW2 4416   2.595   0.997   5.229 -1.0959  0.2454 -0.0933
 1173SOL     OW 4417   4.128   5.268   2.517 -0.2882  0.0861  0.5628
 1173SOL    HW1 4418   4.116   5.206   2.595  1.1807 -0.6585  0.2340
 1173SOL    HW2 4419   4.173   5.219   2.442  0.1144  1.3219 -0.0265
 1174SOL     OW 4420   2.320   5.506   2.438  0.1521  0.1888  0.1931
 1174SOL    HW1 4421   2.314   5.428   2.377  0.1451  0.9126 -0.7504
 1174SOL    HW2 4422   2.355   5.477   2.527  0.0683 -0.8903 -0.1211
 1175SOL     OW 4423   5.082   0.337   0.775 -0.2237  0.4862  0.5032
 1175SOL    HW1 4424   5.166   0.368   0.731 -0.0925  0.0535  0.4425
 1175SOL    HW2 4425   5.097   0.330   0.874 -0.2929  0.7392  0.5321
 1176SOL     OW 4426   0.002   3.537   0.301  0.4927  0.5722  0.3334
 1176SOL    HW1 4427  -0.067   3.524   0.373  0.2587  0.0616  0.0190
 1176SOL    HW2 4428   0.092   3.509   0.336  0.4127  0.5042  0.4877
 1177SOL     OW 4429   6.664   1.297   5.082  0.0087 -0.4403 -0.0433
 1177SOL    HW1 4430   6.613   1.331   5.161  0.3505 -1.3865  0.6017
 1177SOL    HW2 4431   6.750   1.256   5.112 -0.0684 -1.2470 -0.8523
 1178SOL     OW 4432   1.622   2.824   2.956  0.3795 -1.0667  0.0562
 1178SOL    HW1 4433   1.563   2.793   3.031  0.7781 -0.8064  0.4845
 1178SOL    HW2 4434   1.666   2.910   2.983  1.8411 -1.8382  0.1995
 1179SOL     OW 4435   6.967   3.455   1.536  0.2359 -0.7603 -0.2124
 1179SOL    HW1 4436   6.928   3.413   1.454  1.2747 -1.4105 -0.3969
 1179SOL    HW2 4437   7.041   3.397   1.571  2.3371  1.3015 -0.9839
 1180SOL     OW 4438   6.370   6.304   2.656  0.0022 -0.2586  0.2017
 1180SOL    HW1 4439   6.421   6.312   2.742  0.3192 -1.2311  0.1124
 1180SOL    HW2 4440   6.431   6.324   2.579  0.3209 -1.5610  0.0867
 1181SOL     OW 4441   1.905   1.159   1.436 -0.4186 -0.0072  0.9929
 1181SOL    HW1 4442   1.834   1.089   1.438  0.7836 -1.2743  1.3896
 1181SOL    HW2 4443   1.904   1.212   1.521 -1.5273  0.6730  0.5659
 1182SOL     OW 4444   0.235   6.628   6.247 -0.1593 -0.0829  0.3310
 1182SOL    HW1 4445   0.329   6.595   6.249 -0.0745  0.1593  0.3698
 1182SOL    HW2 4446   0.231   6.717   6.200 -0.2589  0.2405  0.9324
 1183SOL     OW 4447   3.958   1.283   0.360 -0.5650  0.3935 -0.5740
 1183SOL    HW1 4448   3.961   1.355   0.429  0.4011 -0.0519 -0.1303
 1183SOL    HW2 4449   3.880   1.297   0.299 -1.8284  0.4209  1.0060
 1184SOL     OW 4450   2.305   0.495   6.266 -0.2259  0.0318  0.5846
 1184SOL    HW1 4451   2.256   0.560   6.323  0.1354  0.5881  0.2728
 1184SOL    HW2 4452   2.253   0.410   6.260 -1.3730  0.7538 -0.1053
 1185SOL     OW 4453   2.159   6.105   1.238 -0.1927  0.4396 -0.7730
 1185SOL    HW1 4454   2.169   6.013   1.199 -2.3242  0.1670 -0.8121
 1185SOL    HW2 4455   2.097   6.159   1.181  2.1083  2.4393 -1.5273
 1186SOL     OW 4456   2.057   6.950   6.800  0.0675 -0.3311  0.1293
 1186SOL    HW1 4457   1.977   6.892   6.785 -0.7448  0.7366  0.2074
 1186SOL    HW2 4458   2.116   6.948   6.719  0.3230 -1.6595  0.3351
 1187SOL     OW 4459   6.200   6.540   3.864  0.3225  0.2449  0.3544
 1187SOL    HW1 4460   6.144   6.530   3.945  0.7901 -1.6561  0.4766
 1187SOL    HW2 4461   6.291   6.573   3.890  0.6621 -0.9183  0.7074
 1188SOL     OW 4462   4.521   4.503   6.384 -0.2506  0.0470  0.0795
 1188SOL    HW1 4463   4.569   4.580   6.343 -0.6256 -0.9321 -2.3443
 1188SOL    HW2 4464   4.428   4.498   6.348 -0.5818 -0.9074  1.0097
 1189SOL     OW 4465   4.198   1.186   3.873 -0.1333 -0.1090  0.3582
 1189SOL    HW1 4466   4.261   1.157   3.801  0.4065  0.4002  0.6205
 1189SOL    HW2 4467   4.199   1.286   3.880 -2.4518  0.0989 -0.9884
 1190SOL     OW 4468   6.167   0.603   6.404 -0.5381 -0.2567 -0.0007
 1190SOL    HW1 4469   6.160   0.702   6.396  0.6490 -0.2826 -1.8119
 1190SOL    HW2 4470   6.200   0.580   6.496  0.7790  1.1375 -0.0885
 1191SOL     OW 4471   4.170   4.943   6.638 -0.2475 -0.1586 -0.0782
 1191SOL    HW1 4472   4.253   4.981   6.597 -0.3892  1.7076  1.2381
 1191SOL    HW2 4473   4.195   4.877   6.709  0.1497  0.5833  0.4902
 1192SOL     OW 4474   4.632   6.318   0.372 -0.9171 -0.0620  0.5221
 1192SOL    HW1 4475   4.666   6.232   0.410 -0.5775 -1.0716 -1.9227
 1192SOL    HW2 4476   4.705   6.386   0.372 -0.7270 -0.2589  0.9616
 1193SOL     OW 4477   0.009   4.718   5.432  0.0462 -0.0619  0.3182
 1193SOL    HW1 4478  -0.032   4.682   5.515 -0.6098  1.3960  0.6623
 1193SOL    HW2 4479   0.052   4.806   5.452  0.4952 -0.0303 -0.7371
 1194SOL     OW 4480   0.557   6.963   4.821  0.3047  0.4730 -0.3343
 1194SOL    HW1 4481   0.636   6.930   4.769 -0.4909 -0.5287 -0.9587
 1194SOL    HW2 4482   0.516   6.887   4.872 -0.5313  0.8644 -0.3940
 1195SOL     OW 4483   2.480   0.066   3.994  0.1137 -0.6055  0.6261
 1195SOL    HW1 4484   2.545  -0.009   3.983 -0.2881 -0.8772  0.0539
 1195SOL    HW2 4485   2.482   0.125   3.914 -0.4448 -0.6976  0.5358
 1196SOL     OW 4486   6.807   3.278   6.786  0.3672 -0.0587  0.1400
 1196SOL    HW1 4487   6.786   3.306   6.692 -0.5480 -2.6101 -0.5216
 1196SOL    HW2 4488   6.745   3.324   6.849  0.4194  1.0565 -0.6028
 1197SOL     OW 4489   0.216   2.236   1.877 -0.7350  0.3187  0.4199
 1197SOL    HW1 4490   0.252   2.245   1.970  0.3768 -0.3822  0.0882
 1197SOL    HW2 4491   0.164   2.151   1.869 -2.1885  1.1390  0.7922
 1198SOL     OW 4492   6.862   6.648   0.713  0.8432  0.4251  0.2783
 1198SOL    HW1 4493   6.806   6.573   0.676  1.6730 -0.0706  0.0018
 1198SOL    HW2 4494   6.855   6.648   0.812 -1.4794  1.8240  0.2020
 1199SOL     OW 4495   1.520   5.608   1.054 -0.0060  0.3227  0.1403
 1199SOL    HW1 4496   1.433   5.574   1.019 -0.2325  1.9189 -0.9643
 1199SOL    HW2 4497   1.517   5.611   1.154 -0.9810 -0.2130  0.1384
 1200SOL     OW 4498   1.349   3.296   2.639 -0.2173 -0.5163  0.0385
 1200SOL    HW1 4499   1.424   3.357   2.665 -1.3426  0.5337  0.9723
 1200SOL    HW2 4500   1.277   3.349   2.596 -1.6381 -0.9808  1.7370
 1201SOL     OW 4501   0.719   4.979   6.541 -0.2613  0.3226 -0.6406
 1201SOL    HW1 4502   0.800   4.953   6.593 -0.0023 -1.9652 -2.0348
 1201SOL    HW2 4503   0.737   4.968   6.443 -2.6960 -1.8819 -0.9529
 1202SOL     OW 4504   4.521   3.285   1.718 -0.0558 -0.2441  0.0309
 1202SOL    HW1 4505   4.567   3.205   1.757  0.3599 -0.8832 -1.6746
 1202SOL    HW2 4506   4.422   3.273   1.724  0.0029 -1.0130 -0.4176
 1203SOL     OW 4507   5.626   6.789   1.116  0.2698 -0.1248 -0.0545
 1203SOL    HW1 4508   5.673   6.765   1.031  1.2101  0.6662  0.2289
 1203SOL    HW2 4509   5.618   6.888   1.123 -3.0130 -0.2154 -0.9128
 1204SOL     OW 4510   6.888   6.185   3.514  0.3010 -0.0508  0.1088
 1204SOL    HW1 4511   6.822   6.157   3.445 -1.4021  0.1172  1.6115
 1204SOL    HW2 4512   6.981   6.173   3.478 -0.4691  2.5839 -3.2202
 1205SOL     OW 4513   6.604   4.531   1.308  0.3424 -0.3103  0.1831
 1205SOL    HW1 4514   6.633   4.572   1.222 -0.0029  1.9711  1.0964
 1205SOL    HW2 4515   6.542   4.593   1.356 -2.5146 -3.1012  0.4103
 1206SOL     OW 4516   5.870   1.946   1.439  0.0893  0.3413 -0.7157
 1206SOL    HW1 4517   5.928   1.972   1.516 -0.8418 -2.6810  1.2069
 1206SOL    HW2 4518   5.789   2.005   1.438 -0.0649  0.2314  0.9332
 1207SOL     OW 4519   2.460   1.268   0.398  0.2771 -0.1569 -0.1078
 1207SOL    HW1 4520   2.376   1.284   0.347  0.2825  1.6496  0.3661
 1207SOL    HW2 4521   2.438   1.235   0.490  0.1007 -0.2860 -0.1988
 1208SOL     OW 4522   1.011   1.042   5.979  0.2430 -0.0621 -0.0490
 1208SOL    HW1 4523   1.075   1.114   6.007  0.2313  0.5781 -1.5506
 1208SOL    HW2 4524   0.918   1.079   5.979 -0.0846 -0.8106  1.5244
 1209SOL     OW 4525   3.599   0.979   0.356  0.3242 -0.1989  0.1397
 1209SOL    HW1 4526   3.655   1.000   0.277 -1.5173  0.4685 -1.0514
 1209SOL    HW2 4527   3.641   0.905   0.408  2.7637  0.9091 -0.1238
 1210SOL     OW 4528   1.897   4.054   0.509 -0.6317 -0.4326 -0.1890
 1210SOL    HW1 4529   1.938   3.982   0.453 -0.2209 -0.8340  0.6067
 1210SOL    HW2 4530   1.800   4.062   0.487 -0.3500 -0.1137 -1.4291
 1211SOL     OW 4531   5.713   3.350   0.943 -0.1271  0.8361  0.2528
 1211SOL    HW1 4532   5.709   3.307   1.033  0.9966  0.8834  0.3308
 1211SOL    HW2 4533   5.650   3.303   0.880  0.4186 -0.3496  0.5740
 1212SOL     OW 4534   1.815   2.087   5.172  0.0044 -0.6266 -0.1200
 1212SOL    HW1 4535   1.728   2.132   5.152 -0.5464 -0.9142  1.5085
 1212SOL    HW2 4536   1.890   2.145   5.139 -0.7699 -0.2123 -1.2244
 1213SOL     OW 4537   6.284   5.293   5.575  0.9477 -0.3515 -0.7823
 1213SOL    HW1 4538   6.219   5.244   5.518 -0.5738  1.0932 -0.3681
 1213SOL    HW2 4539   6.371   5.302   5.527 -0.5169  1.5602 -3.3051
 1214SOL     OW 4540   2.420   5.282   6.320  0.3845 -0.3048 -0.3786
 1214SOL    HW1 4541   2.510   5.265   6.361 -0.3085  0.9750  1.8660
 1214SOL    HW2 4542   2.361   5.203   6.337  0.0567  0.2662  1.3886
 1215SOL     OW 4543   0.030   1.079   2.982  0.7257  0.0516 -0.0312
 1215SOL    HW1 4544   0.094   1.069   3.059 -0.6911 -0.7473  1.0982
 1215SOL    HW2 4545  -0.059   1.107   3.016  0.4567  1.1925 -1.5874
 1216SOL     OW 4546   0.908   0.423   1.531 -0.6230 -0.2261 -0.3535
 1216SOL    HW1 4547   0.817   0.440   1.494 -0.5361  1.3294  0.0556
 1216SOL    HW2 4548   0.962   0.508   1.527  0.4466 -0.8434  0.4008
 1217SOL     OW 4549   6.962   2.719   3.964  0.2102  0.5574 -0.2931
 1217SOL    HW1 4550   6.936   2.814   3.949  0.7960  0.8579  0.4830
 1217SOL    HW2 4551   7.037   2.716   4.031  0.4090 -0.4274 -0.5523
 1218SOL     OW 4552   6.324   5.781   3.310 -0.5360  0.4949 -0.4579
 1218SOL    HW1 4553   6.356   5.713   3.243 -0.9527  0.4360 -0.5982
 1218SOL    HW2 4554   6.355   5.872   3.282 -0.6623  0.4643 -0.7021
 1219SOL     OW 4555   1.140   4.607   5.845 -0.4647  0.0292 -0.0949
 1219SOL    HW1 4556   1.145   4.655   5.932  1.9219  0.3666 -0.3491
 1219SOL    HW2 4557   1.081   4.527   5.854 -1.1451  0.6751  1.5012
 1220SOL     OW 4558   2.102   2.015   6.046 -0.3103 -0.4876 -0.0659
 1220SOL    HW1 4559   2.004   2.019   6.027 -0.3264  1.2289  0.1890
 1220SOL    HW2 4560   2.144   2.102   6.019  1.1957 -1.2867 -0.3952
 1221SOL     OW 4561   1.944   0.465   0.570  0.3145  0.0464 -0.0030
 1221SOL    HW1 4562   2.038   0.435   0.585  0.1436  0.0086  1.0663
 1221SOL    HW2 4563   1.944   0.554   0.524  0.8900  0.4188  0.7057
 1222SOL     OW 4564   3.500   4.859   3.897 -0.1561 -0.2484  0.4876
 1222SOL    HW1 4565   3.432   4.790   3.870  0.6421 -1.2731  1.0151
 1222SOL    HW2 4566   3.485   4.884   3.993 -0.5130  0.4127  0.2662
 1223SOL     OW 4567   3.301   6.313   4.747  0.8349 -0.0424 -0.3673
 1223SOL    HW1 4568   3.239   6.337   4.672 -0.0487  0.0998  0.3946
 1223SOL    HW2 4569   3.330   6.396   4.794 -0.5698 -0.2560  0.9624
 1224SOL     OW 4570   1.698   4.760   6.247  0.3978 -0.4683  0.0437
 1224SOL    HW1 4571   1.724   4.672   6.207  0.7446  0.1474 -1.1316
 1224SOL    HW2 4572   1.672   4.823   6.174 -0.4562  0.2160  0.9180
 1225SOL     OW 4573   2.698   1.278   1.475 -0.1711 -0.5420  0.3654
 1225SOL    HW1 4574   2.767   1.212   1.505  0.7011 -0.0856 -0.5661
 1225SOL    HW2 4575   2.732   1.371   1.489 -0.6424 -0.3084 -0.0130
 1226SOL     OW 4576   0.980   6.078   5.506  0.0106 -0.1164  0.1849
 1226SOL    HW1 4577   0.914   6.152   5.494 -1.0711 -0.8935  1.1163
 1226SOL    HW2 4578   0.973   6.014   5.430  0.6626  0.5056 -0.4125
 1227SOL     OW 4579   1.356   3.453   3.836  0.4134 -0.5863  0.0522
 1227SOL    HW1 4580   1.341   3.524   3.766  0.7980  0.0200  0.5739
 1227SOL    HW2 4581   1.295   3.471   3.914  1.4504 -0.0335  0.7610
 1228SOL     OW 4582   2.890   6.860   4.513 -0.2203  0.0795 -0.1806
 1228SOL    HW1 4583   2.798   6.890   4.536 -0.1546  0.6231 -0.6167
 1228SOL    HW2 4584   2.953   6.885   4.587 -0.5227 -0.8848  0.4281
 1229SOL     OW 4585   4.479   2.974   6.313 -0.2471 -0.2263  0.8497
 1229SOL    HW1 4586   4.447   3.015   6.398 -1.2856  0.5149  0.1329
 1229SOL    HW2 4587   4.403   2.969   6.248  0.7947  0.3814 -0.4661
 1230SOL     OW 4588   4.047   4.522   6.072  0.2386  0.1702  0.4176
 1230SOL    HW1 4589   4.081   4.596   6.014  1.3374 -0.8154 -0.2389
 1230SOL    HW2 4590   4.056   4.435   6.024 -2.7493 -0.2388  0.4359
 1231SOL     OW 4591   2.458   2.635   6.691 -0.1180  0.5702 -0.1714
 1231SOL    HW1 4592   2.548   2.669   6.664  0.7591 -0.8767  0.7147
 1231SOL    HW2 4593   2.386   2.687   6.645  1.1794  1.4071 -1.3244
 1232SOL     OW 4594   1.379   2.391   0.883 -0.0552  0.1826  0.0356
 1232SOL    HW1 4595   1.321   2.383   0.802 -1.3339 -2.9167  1.1250
 1232SOL    HW2 4596   1.475   2.390   0.855 -0.4584 -1.3670 -1.4566
 1233SOL     OW 4597   5.622   6.796   0.379  0.0316 -0.4674  0.5783
 1233SOL    HW1 4598   5.642   6.870   0.444 -1.0596 -0.5313  0.9964
 1233SOL    HW2 4599   5.564   6.727   0.423 -0.1263 -0.8727 -0.2448
 1234SOL     OW 4600   0.026   5.585   1.659 -0.2753 -0.0246  0.1252
 1234SOL    HW1 4601   0.039   5.680   1.632 -0.7900  0.5548  1.7941
 1234SOL    HW2 4602   0.016   5.528   1.577 -1.4870  1.5707 -0.9009
 1235SOL     OW 4603   2.722   6.569   3.782  0.1843  0.2937  0.2861
 1235SOL    HW1 4604   2.735   6.470   3.772  0.3716  0.2828  0.6544
 1235SOL    HW2 4605   2.763   6.600   3.867 -1.7949  0.3358  1.2661
 1236SOL     OW 4606   1.235   4.335   4.112  0.1960 -0.2535 -0.0898
 1236SOL    HW1 4607   1.212   4.399   4.039 -0.6426 -0.6990 -0.2305
 1236SOL    HW2 4608   1.319   4.364   4.157 -0.5283  1.3264  0.3029
 1237SOL     OW 4609   5.563   5.935   5.981  0.1606 -0.0249  0.4473
 1237SOL    HW1 4610   5.485   5.997   5.990 -0.8431 -1.2885  0.8631
 1237SOL    HW2 4611   5.645   5.980   6.016 -0.5552  1.0091  0.8786
 1238SOL     OW 4612   1.016   0.716   0.373 -0.4866 -0.2312  0.1005
 1238SOL    HW1 4613   1.014   0.616   0.360  1.1064 -0.1283 -1.2071
 1238SOL    HW2 4614   0.974   0.761   0.294  2.2105  0.1926 -1.1823
 1239SOL     OW 4615   4.290   1.624   5.605 -0.2758  0.7770 -0.6737
 1239SOL    HW1 4616   4.305   1.617   5.704  1.2532 -0.4172 -0.9590
 1239SOL    HW2 4617   4.372   1.660   5.561 -0.6456  0.5083 -1.6122
 1240SOL     OW 4618   2.714   5.694   0.278  0.4865 -0.0858  0.5477
 1240SOL    HW1 4619   2.665   5.781   0.263 -0.6263 -0.9082 -0.9056
 1240SOL    HW2 4620   2.697   5.634   0.200  4.3537 -0.2244 -0.3638
 1241SOL     OW 4621   0.364   0.983   0.246  0.3473  0.2985 -0.4962
 1241SOL    HW1 4622   0.312   1.049   0.193  0.5187  1.3989  0.6545
 1241SOL    HW2 4623   0.415   1.031   0.318 -0.1975 -1.1617  0.9196
 1242SOL     OW 4624   0.074   6.117   2.119  0.3012  0.3323  0.7720
 1242SOL    HW1 4625   0.084   6.199   2.174  1.4374 -0.2161  1.4356
 1242SOL    HW2 4626   0.116   6.039   2.167 -1.0842 -0.7253  0.3482
 1243SOL     OW 4627   6.389   2.384   6.636  0.7382 -0.2084  0.0816
 1243SOL    HW1 4628   6.427   2.304   6.590 -0.7044 -0.6572 -0.3892
 1243SOL    HW2 4629   6.435   2.466   6.604  0.3983 -0.6059 -1.4860
 1244SOL     OW 4630   6.056   5.521   4.462  0.3553 -0.2762  0.4074
 1244SOL    HW1 4631   6.065   5.574   4.377 -1.3231 -0.5642  0.0183
 1244SOL    HW2 4632   6.028   5.581   4.536  0.7879 -0.2084  0.5172
 1245SOL     OW 4633   3.266   6.144   6.872 -0.1232 -0.9586 -0.7596
 1245SOL    HW1 4634   3.213   6.062   6.894  0.3480 -1.1423 -0.2960
 1245SOL    HW2 4635   3.206   6.224   6.871 -0.2661 -1.0337  0.6154
 1246SOL     OW 4636   4.991   3.460   2.643  0.0063 -0.1787 -0.0964
 1246SOL    HW1 4637   4.982   3.363   2.620 -2.1727 -0.2299  0.6526
 1246SOL    HW2 4638   5.063   3.472   2.711  1.0498 -1.0867 -0.9960
 1247SOL     OW 4639   0.579   6.236   3.212 -0.1201  0.5555  0.3092
 1247SOL    HW1 4640   0.676   6.259   3.201  1.9302 -4.1979  4.3831
 1247SOL    HW2 4641   0.551   6.256   3.306 -1.4076 -2.6903  0.7446
 1248SOL     OW 4642   1.444   3.979   5.371 -0.4744  0.1088  0.4268
 1248SOL    HW1 4643   1.361   4.032   5.387 -0.8881 -0.3898 -0.0297
 1248SOL    HW2 4644   1.419   3.887   5.339  0.2238 -0.4746  1.5154
 1249SOL     OW 4645   3.153   1.735   2.448 -0.0903 -0.5848  0.2441
 1249SOL    HW1 4646   3.121   1.825   2.417  1.6701 -0.2889 -0.8311
 1249SOL    HW2 4647   3.077   1.670   2.445 -0.9544  0.4292 -0.7471
 1250SOL     OW 4648   6.593   3.871   4.762 -0.3761  0.0028  0.4720
 1250SOL    HW1 4649   6.577   3.776   4.790  0.4781 -1.0303 -2.1929
 1250SOL    HW2 4650   6.666   3.910   4.817 -0.9269 -0.7873  1.8002
 1251SOL     OW 4651   5.928   2.853   1.599 -0.3673  0.1713  0.1249
 1251SOL    HW1 4652   5.839   2.848   1.555 -0.8353  2.3920  0.7150
 1251SOL    HW2 4653   5.963   2.761   1.614 -2.9795 -0.7959  0.7636
 1252SOL     OW 4654   0.748   5.690   4.501 -0.0361 -0.0596  0.1577
 1252SOL    HW1 4655   0.695   5.657   4.423 -1.2123 -1.2356  1.3842
 1252SOL    HW2 4656   0.701   5.663   4.586  1.5439  0.5942  1.2783
 1253SOL     OW 4657   0.228   3.104   5.358 -0.0783  0.6985  0.4920
 1253SOL    HW1 4658   0.226   3.150   5.269  0.4765  1.4343  0.8562
 1253SOL    HW2 4659   0.177   3.157   5.425 -1.4433 -0.4017  0.3887
 1254SOL     OW 4660   3.012   5.221   4.580  0.6926  0.1491  0.1803
 1254SOL    HW1 4661   3.060   5.258   4.660 -0.6809  1.0098  0.6457
 1254SOL    HW2 4662   2.915   5.212   4.601  0.2973  0.3988 -1.4027
 1255SOL     OW 4663   0.168   5.831   0.898 -0.1229  1.0619  0.1952
 1255SOL    HW1 4664   0.107   5.909   0.912  1.1028  2.1069 -0.1037
 1255SOL    HW2 4665   0.176   5.778   0.982  0.2807  2.1997  0.8883
 1256SOL     OW 4666   3.440   0.375   2.206  0.1347  0.2475 -0.9518
 1256SOL    HW1 4667   3.503   0.298   2.193  0.3263  0.3596 -0.6933
 1256SOL    HW2 4668   3.350   0.351   2.170 -0.0597 -0.4506 -0.0314
 1257SOL     OW 4669   3.481   0.121   4.385 -0.0034  0.1398  0.2680
 1257SOL    HW1 4670   3.477   0.099   4.288  0.2768 -0.5179  0.4032
 1257SOL    HW2 4671   3.411   0.069   4.434  1.1576 -1.0686  0.6963
 1258SOL     OW 4672   0.889   2.048   1.035  0.0234 -0.9200  0.1526
 1258SOL    HW1 4673   0.896   2.147   1.050  0.1478 -0.7781 -0.7958
 1258SOL    HW2 4674   0.879   2.002   1.124 -0.1200 -0.0565  0.6018
 1259SOL     OW 4675   6.631   4.332   1.901  0.3294  0.5538  0.1031
 1259SOL    HW1 4676   6.621   4.301   1.806  0.3584 -0.7437  0.5056
 1259SOL    HW2 4677   6.687   4.266   1.952  1.5128  1.9610  0.6882
 1260SOL     OW 4678   6.716   2.421   5.295  0.2115 -0.0379 -0.4484
 1260SOL    HW1 4679   6.660   2.503   5.312  1.1406  0.5011  0.0949
 1260SOL    HW2 4680   6.685   2.347   5.355  0.6666  0.5448  0.5340
 1261SOL     OW 4681   0.400   1.396   1.861  0.8018  0.0960 -0.7245
 1261SOL    HW1 4682   0.493   1.433   1.867  0.0174  2.2974 -1.2218
 1261SOL    HW2 4683   0.358   1.396   1.952  1.0727 -0.3375 -0.5961
 1262SOL     OW 4684   6.889   2.608   2.813  0.0284  0.0110  0.1530
 1262SOL    HW1 4685   6.917   2.565   2.899  1.0510 -0.9292 -0.6223
 1262SOL    HW2 4686   6.935   2.563   2.737 -0.4983  1.1400 -0.8634
 1263SOL     OW 4687   1.242   6.845   2.784 -0.0144  0.3173 -0.1817
 1263SOL    HW1 4688   1.211   6.914   2.849 -1.7086 -1.0080  0.5028
 1263SOL    HW2 4689   1.259   6.759   2.832 -2.7987 -1.1569 -1.5733
 1264SOL     OW 4690   5.196   5.005   5.053  0.5979  0.1170  0.2635
 1264SOL    HW1 4691   5.107   5.049   5.048 -0.0746 -1.1922  0.4464
 1264SOL    HW2 4692   5.249   5.045   5.129  0.3163  1.1389 -0.0693
 1265SOL     OW 4693   5.390   6.805   0.696 -0.3173 -0.5779 -0.2629
 1265SOL    HW1 4694   5.292   6.826   0.688 -0.1548  0.5377  0.4109
 1265SOL    HW2 4695   5.418   6.747   0.620 -0.7423  2.0867 -2.6345
 1266SOL     OW 4696   2.132   6.530   3.122 -0.4118  0.2749  0.8105
 1266SOL    HW1 4697   2.229   6.549   3.112 -0.7927  2.8918  1.5254
 1266SOL    HW2 4698   2.118   6.467   3.198  0.6835 -0.0736  0.7429
 1267SOL     OW 4699   3.627   5.613   0.776 -0.6643  0.5674 -0.0300
 1267SOL    HW1 4700   3.640   5.543   0.847 -4.1112 -1.6383 -1.3121
 1267SOL    HW2 4701   3.553   5.674   0.803 -0.8541  0.7678 -0.9839
 1268SOL     OW 4702   6.602   1.251   4.445 -1.2969  0.1045  0.7559
 1268SOL    HW1 4703   6.669   1.176   4.442 -0.4260  0.8384  1.3480
 1268SOL    HW2 4704   6.524   1.227   4.388  0.3671  0.0713 -1.7000
 1269SOL     OW 4705   4.498   4.501   0.987  0.1305 -0.3117 -0.0774
 1269SOL    HW1 4706   4.562   4.547   1.049  0.6820 -1.8197  0.5238
 1269SOL    HW2 4707   4.504   4.542   0.896 -1.1105  2.3318  0.9399
 1270SOL     OW 4708   0.329   4.785   4.224  0.2978 -0.0271  0.2844
 1270SOL    HW1 4709   0.401   4.807   4.158  0.1759 -0.9548 -0.1852
 1270SOL    HW2 4710   0.256   4.735   4.177 -0.3540  0.3439  0.8876
 1271SOL     OW 4711   1.028   5.208   1.430 -0.9088 -0.4403 -0.6086
 1271SOL    HW1 4712   0.957   5.143   1.405 -0.0334 -1.5319 -0.3609
 1271SOL    HW2 4713   1.110   5.158   1.459 -1.2708  0.7206  2.7952
 1272SOL     OW 4714   4.724   1.087   4.073 -0.3265 -0.0021  0.2269
 1272SOL    HW1 4715   4.685   1.032   4.146 -0.3607  0.1080  0.2915
 1272SOL    HW2 4716   4.823   1.094   4.085 -0.4507  0.8286  0.8089
 1273SOL     OW 4717   4.028   2.190   0.761 -0.3302 -0.0675 -0.5990
 1273SOL    HW1 4718   4.005   2.222   0.669  0.2571  1.8910 -0.1026
 1273SOL    HW2 4719   3.957   2.220   0.826  0.3833  0.4998 -0.0698
 1274SOL     OW 4720   5.053   1.624   5.009 -0.4309  0.1872  0.0144
 1274SOL    HW1 4721   5.129   1.668   5.057 -0.4513 -1.0698  1.2694
 1274SOL    HW2 4722   5.030   1.539   5.055 -0.7624 -0.8745 -1.9927
 1275SOL     OW 4723   6.422   5.806   1.510  0.5086  0.3501  0.4122
 1275SOL    HW1 4724   6.428   5.796   1.610  0.5265 -1.9369  0.2296
 1275SOL    HW2 4725   6.506   5.847   1.476  0.9828  0.1025  1.2452
 1276SOL     OW 4726   4.744   5.055   4.494  0.1796  0.1827 -0.1873
 1276SOL    HW1 4727   4.689   4.996   4.436 -0.6270  1.3234 -0.6114
 1276SOL    HW2 4728   4.832   5.074   4.449 -0.9188  2.0610 -1.6818
 1277SOL     OW 4729   6.529   4.497   4.770 -0.2914  0.7270  0.0026
 1277SOL    HW1 4730   6.498   4.592   4.779  1.8810  1.5238 -0.2817
 1277SOL    HW2 4731   6.512   4.466   4.676  0.2316  1.3406 -0.3069
 1278SOL     OW 4732   1.104   3.672   1.562 -0.6491 -0.6869  0.0279
 1278SOL    HW1 4733   1.049   3.755   1.552 -0.4471 -0.5849 -0.2613
 1278SOL    HW2 4734   1.081   3.627   1.648  0.1732  0.3686  0.8315
 1279SOL     OW 4735   4.644   2.636   2.065  0.0899 -0.0474  0.7640
 1279SOL    HW1 4736   4.642   2.691   2.149  2.8132 -1.1888  1.6993
 1279SOL    HW2 4737   4.571   2.568   2.067 -1.3522  1.4498  1.0493
 1280SOL     OW 4738   0.328   0.772   1.207  0.2225 -0.4558  0.5647
 1280SOL    HW1 4739   0.343   0.677   1.177  0.1576 -1.1285  2.5492
 1280SOL    HW2 4740   0.235   0.799   1.184  0.2682 -0.8312 -0.1055
 1281SOL     OW 4741   2.025   4.484   4.932 -0.0911 -0.2608 -0.8550
 1281SOL    HW1 4742   2.061   4.396   4.961 -0.2968 -0.1755 -0.3296
 1281SOL    HW2 4743   1.952   4.513   4.994 -0.6739 -0.1628 -1.5630
 1282SOL     OW 4744   3.036   1.470   0.243 -0.3337  0.6692  0.3627
 1282SOL    HW1 4745   3.100   1.445   0.170 -0.0727 -0.1153  0.8443
 1282SOL    HW2 4746   2.942   1.461   0.210 -0.2089  1.7078 -0.3127
 1283SOL     OW 4747   6.926   5.590   0.325 -0.0099 -0.5640 -0.1050
 1283SOL    HW1 4748   7.005   5.609   0.382 -0.5621 -1.9557  1.1707
 1283SOL    HW2 4749   6.932   5.498   0.287 -0.4741 -0.2740 -0.9260
 1284SOL     OW 4750   3.326   6.633   2.085 -0.5342  0.5114 -0.6876
 1284SOL    HW1 4751   3.262   6.709   2.081  0.4828  1.5181  1.1392
 1284SOL    HW2 4752   3.388   6.645   2.162 -1.0569 -2.7557  0.4121
 1285SOL     OW 4753   2.816   6.988   2.616 -0.1447  0.0992  0.1243
 1285SOL    HW1 4754   2.757   6.992   2.536 -1.0974 -0.0512  0.7957
 1285SOL    HW2 4755   2.901   7.038   2.598 -0.4642  0.3030 -0.8704
 1286SOL     OW 4756   6.821   0.635   3.011 -0.2381  0.2088 -0.0023
 1286SOL    HW1 4757   6.805   0.564   3.078 -0.8230  0.7235  0.4122
 1286SOL    HW2 4758   6.846   0.594   2.923 -1.6070 -0.5343 -0.0594
 1287SOL     OW 4759   0.779   0.273   1.758 -0.2088  0.3967  0.9699
 1287SOL    HW1 4760   0.805   0.359   1.716  0.9164  1.7799  4.1762
 1287SOL    HW2 4761   0.860   0.215   1.769 -0.7541 -0.5985 -0.1163
 1288SOL     OW 4762   0.628   1.940   3.875 -0.2157  0.3999 -0.9405
 1288SOL    HW1 4763   0.551   1.994   3.843 -1.2904  0.1804  1.1035
 1288SOL    HW2 4764   0.711   1.996   3.876 -0.7658  1.2275 -1.3113
 1289SOL     OW 4765   4.077   1.795   3.324 -0.0274 -0.4678 -0.0475
 1289SOL    HW1 4766   4.082   1.889   3.357 -0.1572 -0.2374 -0.6812
 1289SOL    HW2 4767   3.984   1.775   3.294 -0.1936 -1.0545  0.8206
 1290SOL     OW 4768   0.722   4.940   4.262  0.2301 -0.4957 -0.8110
 1290SOL    HW1 4769   0.738   4.870   4.332 -1.2509  1.0412  1.1943
 1290SOL    HW2 4770   0.664   4.903   4.190  2.5323 -2.4031 -1.8155
 1291SOL     OW 4771   2.799   0.383   5.982  0.1334 -0.2669  0.9486
 1291SOL    HW1 4772   2.811   0.458   6.046  2.1682  0.2781  0.0097
 1291SOL    HW2 4773   2.709   0.390   5.938 -0.2113  0.8523  1.7997
 1292SOL     OW 4774   2.065   6.769   2.407 -0.1257  0.0464  0.2340
 1292SOL    HW1 4775   2.017   6.826   2.340  1.4331  1.0680 -0.0610
 1292SOL    HW2 4776   2.061   6.813   2.497  1.5574  0.9573 -0.1047
 1293SOL     OW 4777   1.365   2.438   3.821  0.5051 -0.0690 -0.5708
 1293SOL    HW1 4778   1.456   2.447   3.860  0.5114  1.2485 -0.8447
 1293SOL    HW2 4779   1.331   2.345   3.836  0.6830  0.2427  2.1576
 1294SOL     OW 4780   0.757   2.913   4.769  0.3412  0.4594 -0.1522
 1294SOL    HW1 4781   0.723   2.829   4.727 -0.7322  0.4053  0.8027
 1294SOL    HW2 4782   0.729   2.991   4.713  0.8753  0.2397 -0.7460
 1295SOL     OW 4783   4.803   0.280   6.110  0.5855 -0.0419  0.1492
 1295SOL    HW1 4784   4.861   0.351   6.150  0.4607 -0.7610  1.7192
 1295SOL    HW2 4785   4.738   0.322   6.047  0.8280  1.1787  0.6728
 1296SOL     OW 4786   3.809   3.084   1.542  0.2372  0.1889 -0.6367
 1296SOL    HW1 4787   3.812   3.129   1.453  1.2207  0.4519 -0.4799
 1296SOL    HW2 4788   3.890   3.026   1.553 -0.5725 -0.9535 -0.4745
 1297SOL     OW 4789   4.926   1.416   0.663  0.1856  0.9260 -0.1153
 1297SOL    HW1 4790   4.968   1.356   0.731 -1.4046 -0.6115 -0.4111
 1297SOL    HW2 4791   4.845   1.458   0.703  0.7332  2.1264 -0.2385
 1298SOL     OW 4792   5.768   5.955   1.628 -0.1702  0.3822 -0.8604
 1298SOL    HW1 4793   5.718   5.873   1.655  0.2867  0.2774 -0.3161
 1298SOL    HW2 4794   5.860   5.953   1.669 -0.7481  2.0095  0.6234
 1299SOL     OW 4795   4.860   5.181   2.136  0.0880  0.1541  0.6968
 1299SOL    HW1 4796   4.819   5.090   2.142  1.2557 -0.4411  0.0641
 1299SOL    HW2 4797   4.871   5.206   2.040 -2.8607  2.2424  0.7701
 1300SOL     OW 4798   6.637   5.472   1.141 -0.2790 -0.6530  0.5341
 1300SOL    HW1 4799   6.643   5.383   1.186  0.7756 -0.0977  1.5564
 1300SOL    HW2 4800   6.622   5.460   1.043  0.0479 -1.9516  0.6359
 1301SOL     OW 4801   5.469   3.544   0.394  0.1312  0.2833 -0.7740
 1301SOL    HW1 4802   5.435   3.630   0.356 -3.4307 -1.0634 -1.0129
 1301SOL    HW2 4803   5.419   3.468   0.353  2.2837 -1.8657  0.3510
 1302SOL     OW 4804   1.408   0.095   4.385 -0.5487 -0.4419  0.4071
 1302SOL    HW1 4805   1.471   0.031   4.429 -1.2000 -1.3498  0.0687
 1302SOL    HW2 4806   1.381   0.059   4.296 -0.7888  0.4049  0.1305
 1303SOL     OW 4807   0.642   0.881   3.429 -0.0874 -0.1140  0.0910
 1303SOL    HW1 4808   0.633   0.786   3.459  0.4492 -0.2688 -0.2253
 1303SOL    HW2 4809   0.733   0.895   3.389 -0.4499  0.3206 -0.6009
 1304SOL     OW 4810   0.114   0.421   1.866  0.6738  0.1970 -0.4383
 1304SOL    HW1 4811   0.116   0.324   1.887 -0.2082  0.3411  0.3981
 1304SOL    HW2 4812   0.107   0.474   1.951  1.5969  1.0197 -0.8499
 1305SOL     OW 4813   0.277   2.378   1.419 -0.1018 -0.2592  0.7526
 1305SOL    HW1 4814   0.195   2.332   1.384 -0.6195  0.8836  0.4259
 1305SOL    HW2 4815   0.346   2.381   1.346 -0.4674  0.4151  0.4228
 1306SOL     OW 4816   6.087   2.849   4.318 -0.0897  0.3290 -0.1968
 1306SOL    HW1 4817   6.005   2.809   4.278 -0.1692  0.2809  0.0132
 1306SOL    HW2 4818   6.146   2.776   4.353  1.1352  0.1867 -2.4002
 1307SOL     OW 4819   1.455   4.347   3.649 -0.2962  0.3024  0.0719
 1307SOL    HW1 4820   1.522   4.288   3.603 -0.8281 -0.5295  0.3591
 1307SOL    HW2 4821   1.504   4.411   3.709  0.2800  0.1515 -0.2219
 1308SOL     OW 4822   2.704   3.826   5.688 -0.5213 -0.0024 -0.3574
 1308SOL    HW1 4823   2.731   3.893   5.758  1.5481  0.0517 -1.1398
 1308SOL    HW2 4824   2.700   3.735   5.729 -0.2605  0.1577  0.0306
 1309SOL     OW 4825   0.923   4.708   6.180  0.3770 -0.1302 -0.3246
 1309SOL    HW1 4826   0.931   4.612   6.207 -0.3895  0.0913  0.7212
 1309SOL    HW2 4827   0.849   4.751   6.231  0.9737  1.1279 -0.4873
 1310SOL     OW 4828   2.308   2.030   1.442  0.1323 -0.9776 -0.1419
 1310SOL    HW1 4829   2.263   2.097   1.501 -0.5051 -0.0078 -1.6505
 1310SOL    HW2 4830   2.377   1.979   1.494 -0.9781 -0.7551  1.6028
 1311SOL     OW 4831   2.084   3.353   5.531 -0.2005 -0.7396  0.1371
 1311SOL    HW1 4832   2.164   3.369   5.473  0.2086 -0.6561  0.7152
 1311SOL    HW2 4833   2.100   3.394   5.621 -0.6309 -1.2854  0.4630
 1312SOL     OW 4834   0.746   6.242   5.127 -0.0628  0.0477  0.0313
 1312SOL    HW1 4835   0.686   6.317   5.153 -0.1408  0.4805 -1.3106
 1312SOL    HW2 4836   0.695   6.157   5.126 -0.7352  0.4437 -1.2988
 1313SOL     OW 4837   5.600   2.459   1.994  0.3488 -0.3387 -0.1323
 1313SOL    HW1 4838   5.590   2.517   2.075 -1.5515  0.0554 -0.6085
 1313SOL    HW2 4839   5.533   2.385   1.996  0.8181 -0.8136 -0.9584
 1314SOL     OW 4840   0.019   5.455   1.133  0.0460 -0.0345  0.1189
 1314SOL    HW1 4841  -0.038   5.450   1.051  1.1563 -0.4625 -0.6603
 1314SOL    HW2 4842   0.097   5.516   1.115 -0.3130  0.7965  1.2675
 1315SOL     OW 4843   5.059   3.838   3.987 -0.2980 -0.6755  0.3478
 1315SOL    HW1 4844   5.110   3.900   4.047  1.0446 -0.8586 -0.5607
 1315SOL    HW2 4845   5.015   3.767   4.041  2.8661 -2.2902  1.0076
 1316SOL     OW 4846   1.538   1.161   1.495 -0.0915 -0.0262 -0.0673
 1316SOL    HW1 4847   1.580   1.176   1.585  1.7248 -0.2981 -0.8186
 1316SOL    HW2 4848   1.586   1.086   1.449 -2.1289 -1.0697 -0.5942
 1317SOL     OW 4849   2.123   2.300   5.978 -0.3316  0.4537 -0.2695
 1317SOL    HW1 4850   2.028   2.326   5.994 -0.6925 -1.9504  2.3825
 1317SOL    HW2 4851   2.156   2.341   5.893 -3.8602  0.9996 -1.5096
 1318SOL     OW 4852   6.790   2.779   3.565  0.8080 -0.0346 -0.3728
 1318SOL    HW1 4853   6.869   2.732   3.604 -0.3041 -1.2532  0.5229
 1318SOL    HW2 4854   6.777   2.750   3.470  1.0085 -0.3901 -0.2938
 1319SOL     OW 4855   5.281   3.359   5.408 -0.0267  0.1537 -0.1023
 1319SOL    HW1 4856   5.307   3.353   5.312 -0.1342 -1.8936 -0.0565
 1319SOL    HW2 4857   5.352   3.406   5.460  1.0646 -0.6220 -0.8550
 1320SOL     OW 4858   5.422   4.926   2.493 -0.1102 -0.1768 -0.3494
 1320SOL    HW1 4859   5.474   4.957   2.574 -0.2572  0.2509 -0.4160
 1320SOL    HW2 4860   5.419   4.827   2.492 -0.0309 -0.1883  0.1284
 1321SOL     OW 4861   4.420   1.092   2.337  0.2739 -0.5352 -0.0564
 1321SOL    HW1 4862   4.511   1.060   2.364  0.7553  0.8410 -0.0140
 1321SOL    HW2 4863   4.411   1.189   2.356 -0.9129 -0.4654 -0.8552
 1322SOL     OW 4864   2.594   4.919   6.190  0.0402  0.2410 -0.0506
 1322SOL    HW1 4865   2.659   4.844   6.200  1.1012  1.4019  2.5745
 1322SOL    HW2 4866   2.513   4.902   6.246 -0.5694  0.2234 -0.9100
 1323SOL     OW 4867   5.487   0.679   5.259  0.3415  0.5763 -0.1789
 1323SOL    HW1 4868   5.398   0.681   5.213  0.4545  1.3338 -0.3815
 1323SOL    HW2 4869   5.540   0.603   5.224 -0.1013  0.3181 -0.3033
 1324SOL     OW 4870   3.418   2.957   4.472  0.0975  0.0743 -0.2709
 1324SOL    HW1 4871   3.370   3.045   4.474 -2.4668 -1.2130  2.2116
 1324SOL    HW2 4872   3.386   2.904   4.394 -1.2317 -0.0412  0.3173
 1325SOL     OW 4873   1.500   0.832   4.194  0.5072  0.0067  0.2806
 1325SOL    HW1 4874   1.445   0.912   4.168 -1.1428 -1.5818 -1.3191
 1325SOL    HW2 4875   1.578   0.863   4.249  0.5648  2.8350 -1.1952
 1326SOL     OW 4876   5.726   0.518   0.385  0.2767  0.3401 -0.3280
 1326SOL    HW1 4877   5.772   0.600   0.417  0.9706 -0.0143 -0.3975
 1326SOL    HW2 4878   5.788   0.466   0.327  0.1787 -0.7303  0.5054
 1327SOL     OW 4879   2.191   4.458   3.742  0.0135  0.2367  0.9150
 1327SOL    HW1 4880   2.140   4.396   3.801 -1.8490  0.1515 -0.6662
 1327SOL    HW2 4881   2.147   4.548   3.742  2.6783  1.6817  3.1789
 1328SOL     OW 4882   1.684   1.817   6.684  0.1339  0.4606  0.2398
 1328SOL    HW1 4883   1.595   1.822   6.638 -1.1408 -0.5085  2.4642
 1328SOL    HW2 4884   1.718   1.723   6.678 -0.3438  0.1684  1.7106
 1329SOL     OW 4885   1.676   3.206   1.411 -0.2031 -0.1758 -0.0891
 1329SOL    HW1 4886   1.599   3.243   1.358 -0.7125  1.3584  1.6370
 1329SOL    HW2 4887   1.642   3.140   1.477 -0.2321  1.2131  1.3412
 1330SOL     OW 4888   3.773   5.206   3.010 -0.5048  0.1206  0.1640
 1330SOL    HW1 4889   3.754   5.110   3.032  0.1714 -0.3729 -1.2006
 1330SOL    HW2 4890   3.720   5.232   2.929 -0.0526  0.6365  0.0313
 1331SOL     OW 4891   6.270   4.629   1.263 -0.6384 -0.2342  0.1298
 1331SOL    HW1 4892   6.352   4.654   1.211 -0.5574 -0.3460  0.2030
 1331SOL    HW2 4893   6.286   4.543   1.311 -1.2108 -0.8890 -0.8030
 1332SOL     OW 4894   5.882   5.052   5.782 -0.6178 -0.5402 -0.0840
 1332SOL    HW1 4895   5.950   5.064   5.855  0.1662 -1.8484 -0.5633
 1332SOL    HW2 4896   5.825   5.135   5.776  0.0063  0.0306  1.2627
 1333SOL     OW 4897   0.986   1.381   6.491 -0.5432  0.4614  0.1446
 1333SOL    HW1 4898   1.080   1.402   6.517 -0.7834 -0.9264  2.3636
 1333SOL    HW2 4899   0.986   1.309   6.422  0.0077  0.1082  0.5069
 1334SOL     OW 4900   4.101   1.461   5.483 -0.2925 -0.0771 -0.4905
 1334SOL    HW1 4901   4.121   1.457   5.385 -0.4401  1.1825 -0.5944
 1334SOL    HW2 4902   4.172   1.513   5.530  0.0502 -1.1136  0.1676
 1335SOL     OW 4903   2.227   4.738   1.578 -0.2587 -0.3198  0.5496
 1335SOL    HW1 4904   2.290   4.661   1.565  1.5261  1.2351 -0.6053
 1335SOL    HW2 4905   2.232   4.769   1.673  1.5921  0.4080  0.2684
 1336SOL     OW 4906   1.808   5.058   4.412  0.1174 -0.3119  0.2658
 1336SOL    HW1 4907   1.869   5.059   4.332  0.0864  0.0281  0.2438
 1336SOL    HW2 4908   1.808   5.149   4.454  1.9356 -1.0553  2.0203
 1337SOL     OW 4909   2.206   1.821   5.403  0.0688 -0.1831 -0.7715
 1337SOL    HW1 4910   2.281   1.773   5.448  1.1246  0.9790 -1.2367
 1337SOL    HW2 4911   2.228   1.919   5.397 -0.9657 -0.0078 -1.9672
 1338SOL     OW 4912   2.176   3.580   6.961  0.8311 -0.0548 -0.9027
 1338SOL    HW1 4913   2.092   3.615   7.001 -0.5289  0.4181 -3.9813
 1338SOL    HW2 4914   2.213   3.646   6.896  1.7988 -1.5938 -1.9782
 1339SOL     OW 4915   0.589   1.681   3.892  0.2167 -0.2898  0.3126
 1339SOL    HW1 4916   0.639   1.642   3.815  1.6027  2.0391 -0.0450
 1339SOL    HW2 4917   0.609   1.778   3.900 -3.5664  0.6310  0.7224
 1340SOL     OW 4918   1.590   6.582   3.016 -0.0602  0.1348  0.1194
 1340SOL    HW1 4919   1.617   6.612   3.107  0.8802  1.0167 -0.4363
 1340SOL    HW2 4920   1.564   6.485   3.019 -1.7990  0.5866  1.6625
 1341SOL     OW 4921   6.243   1.948   1.253  0.0583  0.0819 -0.3861
 1341SOL    HW1 4922   6.300   1.969   1.333 -0.9553  3.2265 -0.3476
 1341SOL    HW2 4923   6.302   1.933   1.173  1.0175  1.2650  0.0615
 1342SOL     OW 4924   3.686   4.101   3.990  0.2961  0.0615 -0.1000
 1342SOL    HW1 4925   3.598   4.055   3.996  0.9313 -1.2065 -0.2866
 1342SOL    HW2 4926   3.695   4.166   4.066 -0.9321  0.4760 -0.2868
 1343SOL     OW 4927   4.967   2.171   3.574  0.5217  0.7183 -0.0281
 1343SOL    HW1 4928   4.989   2.073   3.577  0.7509  0.7692 -0.0513
 1343SOL    HW2 4929   4.933   2.199   3.664 -0.5125  0.3954 -0.3068
 1344SOL     OW 4930   1.017   5.480   1.491 -0.6455  0.1438  0.5102
 1344SOL    HW1 4931   0.924   5.503   1.462 -0.8503 -1.8318 -0.6073
 1344SOL    HW2 4932   1.024   5.382   1.505  1.4026  0.1664  0.0556
 1345SOL     OW 4933   5.646   6.051   2.918 -0.3950  0.7077  0.1512
 1345SOL    HW1 4934   5.644   6.126   2.852 -0.3030  1.4159  0.9348
 1345SOL    HW2 4935   5.737   6.009   2.917 -0.0987  1.3276  0.4920
 1346SOL     OW 4936   4.080   6.088   4.076  0.0310  0.0211 -0.4979
 1346SOL    HW1 4937   4.179   6.084   4.087 -0.1537  0.2104  1.4424
 1346SOL    HW2 4938   4.055   6.041   3.991  1.8102  0.4951 -1.3355
 1347SOL     OW 4939   1.971   5.760   4.933 -0.0559 -0.3433  0.5418
 1347SOL    HW1 4940   1.914   5.842   4.924  0.8193  0.2454  0.2373
 1347SOL    HW2 4941   1.985   5.719   4.843 -0.2263 -0.6578  0.6543
 1348SOL     OW 4942   3.407   2.437   0.915 -0.1123  0.1585  0.1030
 1348SOL    HW1 4943   3.337   2.428   0.986 -0.3193 -2.0697 -0.3019
 1348SOL    HW2 4944   3.408   2.354   0.859  1.3246  1.0884 -1.3372
 1349SOL     OW 4945   5.353   4.210   3.847 -0.3226 -0.3800 -0.1476
 1349SOL    HW1 4946   5.270   4.235   3.896 -0.2416  0.2813 -0.3349
 1349SOL    HW2 4947   5.404   4.142   3.899 -1.4502 -1.4965 -0.4796
 1350SOL     OW 4948   0.397   4.172   7.004  0.0063 -0.2227  0.0082
 1350SOL    HW1 4949   0.361   4.092   6.956  0.5000 -0.6575  0.3571
 1350SOL    HW2 4950   0.495   4.162   7.017  0.1995  0.7694 -0.5708
 1351SOL     OW 4951   4.402   6.205   6.938 -0.6963  0.0365  0.2687
 1351SOL    HW1 4952   4.318   6.183   6.989 -1.8322 -2.3611 -2.3622
 1351SOL    HW2 4953   4.380   6.220   6.842  1.9073 -0.6589 -0.5163
 1352SOL     OW 4954   3.023   0.309   2.014 -0.2368  0.6589 -0.0775
 1352SOL    HW1 4955   2.936   0.357   2.020 -0.9439 -0.6684  3.9943
 1352SOL    HW2 4956   3.009   0.219   1.973 -1.1315 -0.0104  1.5965
 1353SOL     OW 4957   6.055   0.346   6.768  0.0016  0.1935 -0.2039
 1353SOL    HW1 4958   6.065   0.445   6.765 -0.1379  0.2347  0.5730
 1353SOL    HW2 4959   6.072   0.313   6.861 -1.2048 -0.3811 -0.1750
 1354SOL     OW 4960   3.304   5.255   6.901 -0.3006  0.0820  0.1303
 1354SOL    HW1 4961   3.247   5.201   6.839  0.9889 -0.1182 -0.9336
 1354SOL    HW2 4962   3.356   5.322   6.848  1.6802 -0.8341  0.8394
 1355SOL     OW 4963   5.256   2.047   3.714 -0.2765 -0.1692 -0.5808
 1355SOL    HW1 4964   5.189   2.002   3.655 -0.3650 -1.0570  0.1854
 1355SOL    HW2 4965   5.210   2.081   3.796  0.0660 -0.0503 -0.4375
 1356SOL     OW 4966   1.880   1.968   2.917 -0.6333  0.1579 -0.1212
 1356SOL    HW1 4967   1.810   1.955   2.847  0.1200 -2.3489 -0.5353
 1356SOL    HW2 4968   1.920   2.059   2.908 -1.8511  0.5808 -1.7296
 1357SOL     OW 4969   0.467   0.886   0.782 -0.4366 -0.3718  0.6320
 1357SOL    HW1 4970   0.491   0.862   0.876  0.8025  2.6798  1.2058
 1357SOL    HW2 4971   0.421   0.975   0.780  1.1398  0.5119 -1.7579
 1358SOL     OW 4972   6.687   2.031   6.882 -0.0706  0.0906  0.5919
 1358SOL    HW1 4973   6.787   2.028   6.880  0.0759  2.4703 -1.6109
 1358SOL    HW2 4974   6.651   1.944   6.915  2.6751 -1.7602 -0.9446
 1359SOL     OW 4975   2.043   3.463   3.000  0.7747  0.6629 -0.2975
 1359SOL    HW1 4976   2.065   3.490   2.907  1.7866  0.8362 -0.0181
 1359SOL    HW2 4977   2.029   3.545   3.056  0.8134  0.5734 -0.1546
 1360SOL     OW 4978   0.422   0.045   0.212 -0.4741 -0.5148  0.1662
 1360SOL    HW1 4979   0.476  -0.024   0.163  1.1185  1.5551 -1.2029
 1360SOL    HW2 4980   0.330   0.050   0.173  0.1359 -0.3245 -1.3118
 1361SOL     OW 4981   5.795   2.334   3.935  0.4638  0.2389 -0.2341
 1361SOL    HW1 4982   5.763   2.403   4.000 -0.1314  0.0969 -0.3651
 1361SOL    HW2 4983   5.720   2.270   3.915  0.4709  0.5997 -1.4753
 1362SOL     OW 4984   4.115   1.629   6.183 -0.3974 -0.4842 -0.0281
 1362SOL    HW1 4985   4.208   1.598   6.201 -0.8897 -1.8630  0.2889
 1362SOL    HW2 4986   4.117   1.718   6.137  1.0481 -0.2426  0.4601
 1363SOL     OW 4987   5.623   3.484   1.483 -0.4791  0.2891 -0.3813
 1363SOL    HW1 4988   5.532   3.523   1.496 -0.5059  0.4831 -1.1076
 1363SOL    HW2 4989   5.678   3.498   1.566 -1.3145 -0.4167  0.3151
 1364SOL     OW 4990   5.043   3.973   5.525  0.0030  0.1187  0.1807
 1364SOL    HW1 4991   5.074   3.893   5.473 -0.1114  1.0528 -1.4185
 1364SOL    HW2 4992   4.969   3.946   5.587 -1.2323 -0.7319 -1.5691
 1365SOL     OW 4993   1.630   2.132   4.356 -0.2413 -0.1417  0.1528
 1365SOL    HW1 4994   1.717   2.153   4.401 -0.8619  0.8420  0.9289
 1365SOL    HW2 4995   1.563   2.102   4.424 -0.7524 -0.0813 -0.3102
 1366SOL     OW 4996   6.578   2.983   1.348 -0.1555  0.0881 -0.4805
 1366SOL    HW1 4997   6.567   2.964   1.446 -2.2191 -1.2208 -0.8871
 1366SOL    HW2 4998   6.496   3.029   1.314 -0.3386 -1.2098 -1.9294
 1367SOL     OW 4999   2.121   3.987   1.158  0.4521  0.0888  0.3157
 1367SOL    HW1 5000   2.061   3.951   1.086 -0.6962  0.8591  0.8614
 1367SOL    HW2 5001   2.196   4.038   1.115  0.2227 -0.1238 -0.3606
 1368SOL     OW 5002   5.219   5.436   2.267 -0.3731  0.6696 -0.3897
 1368SOL    HW1 5003   5.130   5.480   2.252 -0.5722 -0.0696 -1.4539
 1368SOL    HW2 5004   5.206   5.339   2.287  0.0604  1.0549  2.0292
 1369SOL     OW 5005   0.601   2.628   5.395  0.1073 -0.3810  0.1247
 1369SOL    HW1 5006   0.602   2.713   5.447 -1.0180 -0.4299  0.2515
 1369SOL    HW2 5007   0.512   2.585   5.404  0.6222 -1.5089 -0.0577
 1370SOL     OW 5008   0.271   5.026   2.788 -0.6561  0.3515  0.1962
 1370SOL    HW1 5009   0.294   4.965   2.712  0.4345  2.6547 -1.4309
 1370SOL    HW2 5010   0.193   4.989   2.838 -2.2185 -0.6893 -2.7703
 1371SOL     OW 5011   3.792   6.632   4.699  0.4711 -0.4276  0.0717
 1371SOL    HW1 5012   3.813   6.646   4.602  0.8936  0.4708  0.2775
 1371SOL    HW2 5013   3.821   6.541   4.727 -1.9473 -1.6910 -1.2367
 1372SOL     OW 5014   5.016   2.732   0.567  0.0397  0.2842 -0.6602
 1372SOL    HW1 5015   4.943   2.701   0.627  0.7680  2.5093  1.5734
 1372SOL    HW2 5016   4.988   2.816   0.520  0.3098 -0.1856 -1.6946
 1373SOL     OW 5017   2.957   1.142   0.579 -0.2034  0.3118 -0.5085
 1373SOL    HW1 5018   2.991   1.052   0.551 -0.0673  0.2948 -0.2901
 1373SOL    HW2 5019   2.884   1.171   0.516 -0.7827 -0.2883 -0.1322
 1374SOL     OW 5020   3.305   1.419   4.861 -0.2421 -0.1590 -0.4595
 1374SOL    HW1 5021   3.319   1.353   4.934 -3.0344 -1.0019 -0.5675
 1374SOL    HW2 5022   3.341   1.383   4.775  0.8696 -0.2268  0.0272
 1375SOL     OW 5023   4.639   3.974   1.049 -0.1825  0.4322 -0.2931
 1375SOL    HW1 5024   4.688   3.922   0.979  0.7806 -0.3428  0.9063
 1375SOL    HW2 5025   4.599   4.056   1.008 -0.4918 -0.4876 -1.9347
 1376SOL     OW 5026   0.367   2.127   2.429 -0.6152 -0.5091 -0.0547
 1376SOL    HW1 5027   0.432   2.052   2.443  0.0846  0.0557 -0.2193
 1376SOL    HW2 5028   0.415   2.206   2.391 -1.0526  0.5068  1.3889
 1377SOL     OW 5029   1.922   3.860   3.436  0.4428 -0.0207  0.0450
 1377SOL    HW1 5030   1.947   3.955   3.420  1.0617 -0.1270  0.3449
 1377SOL    HW2 5031   1.858   3.830   3.365  1.1720  0.2664 -0.7545
 1378SOL     OW 5032   2.635   0.842   0.072 -0.4653  0.2645 -0.1484
 1378SOL    HW1 5033   2.687   0.803  -0.004 -2.1055  2.2153 -2.4472
 1378SOL    HW2 5034   2.698   0.880   0.140  1.0844 -3.1332  0.4897
 1379SOL     OW 5035   1.384   5.472   2.707 -0.2575 -0.0675  0.5715
 1379SOL    HW1 5036   1.388   5.457   2.806 -0.1153 -0.4195  0.5156
 1379SOL    HW2 5037   1.341   5.393   2.663  0.5194 -0.3345  0.2630
 1380SOL     OW 5038   3.322   2.056   5.068  0.3701  0.4720 -1.0861
 1380SOL    HW1 5039   3.347   2.080   4.975 -2.7171  2.3739 -1.5861
 1380SOL    HW2 5040   3.239   2.001   5.068  0.9321 -0.4704  0.5512
 1381SOL     OW 5041   3.350   2.907   5.125 -1.1003 -0.1461 -0.3800
 1381SOL    HW1 5042   3.325   2.829   5.182 -0.4974  0.5220  0.8602
 1381SOL    HW2 5043   3.437   2.888   5.079 -1.1972 -0.3958 -0.4589
 1382SOL     OW 5044   5.824   2.969   3.902  0.2731 -0.0481 -0.4455
 1382SOL    HW1 5045   5.882   3.034   3.951  0.2293 -0.0774 -0.3536
 1382SOL    HW2 5046   5.875   2.884   3.888  0.0247 -0.3166  0.2367
 1383SOL     OW 5047   5.589   1.718   2.543 -0.5368  0.2524 -0.2240
 1383SOL    HW1 5048   5.648   1.638   2.531 -0.6008  0.0426  0.7712
 1383SOL    HW2 5049   5.597   1.752   2.637 -2.5674 -0.2548  0.1807
 1384SOL     OW 5050   2.314   5.100   0.215  0.0331 -0.5855  0.0682
 1384SOL    HW1 5051   2.293   5.114   0.312  3.6476 -0.1231  0.9098
 1384SOL    HW2 5052   2.270   5.016   0.183 -2.4517  0.0168  1.6176
 1385SOL     OW 5053   4.868   0.815   6.372  0.1410  1.1081  0.2714
 1385SOL    HW1 5054   4.778   0.841   6.406 -1.2134 -0.8854 -1.5315
 1385SOL    HW2 5055   4.924   0.782   6.448 -1.6188 -0.1573  1.0994
 1386SOL     OW 5056   0.999   6.280   5.886  0.8266  0.5184  0.1418
 1386SOL    HW1 5057   1.017   6.263   5.983  2.6604 -0.9063 -0.3846
 1386SOL    HW2 5058   1.068   6.343   5.851  0.4040  0.7225 -0.3338
 1387SOL     OW 5059   3.413   2.093   4.421 -0.8172  0.6306 -0.1060
 1387SOL    HW1 5060   3.422   1.998   4.450  1.2078  0.2026 -1.8855
 1387SOL    HW2 5061   3.479   2.150   4.470  0.1758  0.5190 -1.2659
 1388SOL     OW 5062   4.847   3.405   6.941  0.5785 -0.2520 -0.3273
 1388SOL    HW1 5063   4.856   3.333   7.010  0.7001  1.0292  1.0436
 1388SOL    HW2 5064   4.835   3.363   6.851  1.1065 -1.9734  0.3599
 1389SOL     OW 5065   1.342   0.251   0.081 -0.8811 -0.1926 -0.4262
 1389SOL    HW1 5066   1.375   0.272   0.173 -1.3951  1.8900 -0.6569
 1389SOL    HW2 5067   1.242   0.253   0.080 -0.8853 -0.3731 -0.9811
 1390SOL     OW 5068   6.686   6.890   0.237  0.1674 -0.6081 -0.4430
 1390SOL    HW1 5069   6.652   6.799   0.214  1.3864 -1.2069  0.0534
 1390SOL    HW2 5070   6.785   6.893   0.225 -0.0333  1.2222 -2.2654
 1391SOL     OW 5071   3.202   0.635   2.959  0.3275 -0.4772 -0.4774
 1391SOL    HW1 5072   3.142   0.680   2.893 -0.8344 -1.5207 -0.1730
 1391SOL    HW2 5073   3.169   0.654   3.052  1.8457  0.8339 -0.1588
 1392SOL     OW 5074   2.265   6.753   2.058 -0.0283 -0.7329  0.8465
 1392SOL    HW1 5075   2.334   6.786   1.994  1.2251 -2.0899  1.4392
 1392SOL    HW2 5076   2.200   6.827   2.079  1.1505  0.5332  0.1754
 1393SOL     OW 5077   3.608   5.004   5.250  0.4921  0.4036 -0.9742
 1393SOL    HW1 5078   3.600   5.101   5.272 -1.3058  0.1508 -0.4222
 1393SOL    HW2 5079   3.524   4.972   5.207  1.1840 -0.8468 -1.4485
 1394SOL     OW 5080   6.470   0.148   1.643 -0.1335  0.4846  0.1570
 1394SOL    HW1 5081   6.397   0.092   1.604 -0.4541  0.1144  1.2552
 1394SOL    HW2 5082   6.444   0.179   1.734  0.1528  2.2228 -0.3189
 1395SOL     OW 5083   6.636   0.402   5.333 -0.0933 -0.1190  0.1880
 1395SOL    HW1 5084   6.597   0.385   5.243 -1.3268 -1.6091  0.9565
 1395SOL    HW2 5085   6.591   0.481   5.375 -0.8582 -0.5817  0.2476
 1396SOL     OW 5086   5.284   4.042   1.829 -0.0787 -0.5183  0.1606
 1396SOL    HW1 5087   5.212   4.043   1.898  0.6324  0.0542  0.9271
 1396SOL    HW2 5088   5.285   4.129   1.780 -0.1382 -0.6605 -0.0936
 1397SOL     OW 5089   3.262   3.361   2.442  0.2490 -0.3394  0.0680
 1397SOL    HW1 5090   3.231   3.414   2.521 -0.6379  0.0826 -0.5449
 1397SOL    HW2 5091   3.187   3.303   2.410  0.4491 -0.1604 -0.7499
 1398SOL     OW 5092   1.110   1.570   4.173  0.1401  0.3341  0.1849
 1398SOL    HW1 5093   1.073   1.490   4.126 -0.3292  0.3314  0.5574
 1398SOL    HW2 5094   1.041   1.608   4.234  0.1436  1.3998 -0.4532
 1399SOL     OW 5095   0.725   3.514   3.306 -0.4027  0.2474  0.2929
 1399SOL    HW1 5096   0.730   3.514   3.206  0.1965  0.6463  0.3148
 1399SOL    HW2 5097   0.815   3.488   3.343 -0.7499 -0.3516  0.7257
 1400SOL     OW 5098   4.885   4.125   0.566 -0.4746  0.1021 -0.3592
 1400SOL    HW1 5099   4.877   4.099   0.470 -0.4707  0.2279 -0.3931
 1400SOL    HW2 5100   4.981   4.145   0.587 -0.7495  2.1689 -0.8687
 1401SOL     OW 5101   4.688   1.116   1.446 -0.6482  0.0021  0.0291
 1401SOL    HW1 5102   4.648   1.208   1.445  1.0883  0.8090 -2.2025
 1401SOL    HW2 5103   4.712   1.089   1.353  1.7261 -1.4357  0.9801
 1402SOL     OW 5104   5.556   3.786   3.365  0.0396  0.4411 -0.1489
 1402SOL    HW1 5105   5.584   3.690   3.369  1.2410  0.7575 -0.6141
 1402SOL    HW2 5106   5.501   3.801   3.283  0.0818  0.2072 -0.2219
 1403SOL     OW 5107   3.593   2.865   4.661  0.6833  0.7562  0.6172
 1403SOL    HW1 5108   3.551   2.896   4.576 -1.5728 -1.7950  0.6528
 1403SOL    HW2 5109   3.683   2.825   4.641  0.4436  0.7345 -0.5032
 1404SOL     OW 5110   6.150   5.854   2.854 -0.3994  0.2567 -0.3620
 1404SOL    HW1 5111   6.239   5.887   2.885 -0.4057 -0.9342  1.0268
 1404SOL    HW2 5112   6.136   5.879   2.759  1.7197 -0.1220 -0.8144
 1405SOL     OW 5113   5.982   5.744   5.368 -0.0451 -0.3077 -0.2925
 1405SOL    HW1 5114   5.887   5.750   5.399 -0.0698 -0.7423 -0.2725
 1405SOL    HW2 5115   6.024   5.835   5.371  0.2584 -0.4614  1.9523
 1406SOL     OW 5116   6.244   3.089   3.813 -0.1989 -0.2603  0.2761
 1406SOL    HW1 5117   6.313   3.029   3.852 -2.6697 -2.8686  1.0018
 1406SOL    HW2 5118   6.224   3.163   3.878  0.6101 -0.5440  0.8608
 1407SOL     OW 5119   3.650   2.627   5.885  0.7515 -0.4030  0.3419
 1407SOL    HW1 5120   3.585   2.647   5.958  0.0089  1.6135 -0.8066
 1407SOL    HW2 5121   3.637   2.533   5.854 -0.7042 -0.4505  1.0128
 1408SOL     OW 5122   6.611   5.882   5.369  0.8396 -0.4958  0.1120
 1408SOL    HW1 5123   6.678   5.946   5.330  1.1644 -1.0463 -0.2423
 1408SOL    HW2 5124   6.579   5.918   5.457  0.7833  0.3066 -0.2275
 1409SOL     OW 5125   3.576   0.564   6.658  0.1510 -0.0075 -0.0587
 1409SOL    HW1 5126   3.526   0.487   6.698 -0.4499  0.0947 -0.5953
 1409SOL    HW2 5127   3.595   0.632   6.729  1.2660 -0.9329  0.5635
 1410SOL     OW 5128   3.471   5.850   3.786 -0.6444 -0.1062 -0.2345
 1410SOL    HW1 5129   3.550   5.872   3.730  0.1102 -1.4036  0.2771
 1410SOL    HW2 5130   3.404   5.924   3.780  1.4425  2.0200  0.9369
 1411SOL     OW 5131   3.183   3.310   2.973  0.5325 -0.2689 -0.1447
 1411SOL    HW1 5132   3.165   3.215   2.995 -0.5651 -1.5021 -5.1118
 1411SOL    HW2 5133   3.282   3.326   2.971  0.8519 -2.1093 -1.6796
 1412SOL     OW 5134   3.777   1.810   1.150  0.8508 -0.0016 -0.3668
 1412SOL    HW1 5135   3.688   1.791   1.109  1.7120 -0.2664 -2.2334
 1412SOL    HW2 5136   3.771   1.892   1.207 -0.2846  0.7580 -1.5298
 1413SOL     OW 5137   0.855   4.676   5.465 -0.4290 -0.4013  0.0780
 1413SOL    HW1 5138   0.762   4.653   5.494 -0.3697 -0.4140  0.2540
 1413SOL    HW2 5139   0.908   4.708   5.543  0.3192 -2.2829  0.3869
 1414SOL     OW 5140   4.883   2.380   5.851  0.2203  0.1518  0.8574
 1414SOL    HW1 5141   4.835   2.392   5.938 -0.8801 -0.8247  0.4257
 1414SOL    HW2 5142   4.863   2.288   5.815  3.4071 -0.8212  1.2196
 1415SOL     OW 5143   2.830   4.133   5.441 -0.4857  0.3412  0.2577
 1415SOL    HW1 5144   2.818   4.220   5.393  1.8596  0.9096  0.5592
 1415SOL    HW2 5145   2.813   4.146   5.538 -0.9920  0.2415  0.1839
 1416SOL     OW 5146   0.483   3.138   1.791  0.4400 -0.2213  0.3708
 1416SOL    HW1 5147   0.445   3.205   1.856  1.6392  0.9199 -0.0634
 1416SOL    HW2 5148   0.413   3.069   1.770  0.0951 -0.7931  3.0515
 1417SOL     OW 5149   2.829   3.976   5.872 -0.5853 -0.1555 -0.0792
 1417SOL    HW1 5150   2.746   3.960   5.925 -0.7651 -0.6599 -0.5043
 1417SOL    HW2 5151   2.909   3.953   5.928 -0.6231  1.8515  0.9040
 1418SOL     OW 5152   6.503   6.469   5.992  0.2800 -0.0960 -0.1405
 1418SOL    HW1 5153   6.414   6.465   6.038 -0.4845 -0.7999 -1.6262
 1418SOL    HW2 5154   6.524   6.380   5.951  1.3918  0.2373 -0.3350
 1419SOL     OW 5155   4.904   4.892   6.705  0.5628 -0.0823  0.1324
 1419SOL    HW1 5156   4.822   4.842   6.734 -0.3631  1.0665 -0.4537
 1419SOL    HW2 5157   4.966   4.901   6.783 -0.3713  0.0103  0.8864
 1420SOL     OW 5158   3.146   5.569   4.346  0.2379 -0.0661 -1.3021
 1420SOL    HW1 5159   3.129   5.636   4.274  1.5112  0.5453 -1.0564
 1420SOL    HW2 5160   3.091   5.488   4.329 -0.2729  0.4805 -2.3818
 1421SOL     OW 5161   2.141   3.205   3.070 -0.1071 -0.0361  0.2029
 1421SOL    HW1 5162   2.111   3.293   3.033 -0.3776  0.0250  0.5676
 1421SOL    HW2 5163   2.143   3.209   3.170 -1.6041 -0.9095  0.2911
 1422SOL     OW 5164   1.490   3.137   2.486  0.9677 -0.2576  0.3103
 1422SOL    HW1 5165   1.439   3.200   2.545 -1.0042 -0.7415 -0.7953
 1422SOL    HW2 5166   1.448   3.047   2.489  1.3828 -0.5201 -1.1135
 1423SOL     OW 5167   6.582   6.457   2.494  0.4687  0.6658  0.0173
 1423SOL    HW1 5168   6.665   6.452   2.439  0.8100 -0.4734  0.6058
 1423SOL    HW2 5169   6.542   6.549   2.486  1.4717  1.0566 -0.7090
 1424SOL     OW 5170   0.341   1.247   1.482  0.1745  1.0314 -0.4274
 1424SOL    HW1 5171   0.438   1.267   1.492 -0.2401  4.5656 -2.0205
 1424SOL    HW2 5172   0.329   1.171   1.417  1.7942 -0.4450  0.8879
 1425SOL     OW 5173   0.793   3.679   1.719 -0.2246  0.2619 -0.2515
 1425SOL    HW1 5174   0.806   3.730   1.634 -2.7265 -0.3053 -1.0565
 1425SOL    HW2 5175   0.761   3.740   1.790 -1.5977  0.1499 -0.7499
 1426SOL     OW 5176   5.782   3.094   0.575 -0.3779 -0.0914 -0.4102
 1426SOL    HW1 5177   5.784   3.112   0.477  1.0075 -0.2140 -0.4260
 1426SOL    HW2 5178   5.739   3.005   0.592  2.1657 -1.5744 -1.2138
 1427SOL     OW 5179   5.687   4.908   5.640 -0.0119 -0.1676  0.1820
 1427SOL    HW1 5180   5.627   4.967   5.586  0.6397  0.3335 -0.0092
 1427SOL    HW2 5181   5.750   4.965   5.693 -0.9214 -0.6314  1.8149
 1428SOL     OW 5182   3.352   0.452   1.298 -0.7865  0.1518  0.1373
 1428SOL    HW1 5183   3.284   0.522   1.277  0.8844  2.5226  2.0833
 1428SOL    HW2 5184   3.437   0.471   1.248 -0.0628 -0.0170  1.2769
 1429SOL     OW 5185   4.705   4.241   3.507  0.0219 -0.9916 -0.1778
 1429SOL    HW1 5186   4.656   4.227   3.593 -1.0022 -0.1751 -0.6003
 1429SOL    HW2 5187   4.792   4.193   3.510  0.4817 -0.1372  1.7284
 1430SOL     OW 5188   1.416   1.258   1.884 -0.0515 -0.4114  0.0510
 1430SOL    HW1 5189   1.324   1.238   1.918  0.1784 -2.9977 -0.6267
 1430SOL    HW2 5190   1.412   1.275   1.785  0.1041  0.3276  0.1691
 1431SOL     OW 5191   6.766   2.724   5.129 -0.2775 -0.1524  0.6094
 1431SOL    HW1 5192   6.765   2.734   5.029 -1.0347 -0.9432  0.5234
 1431SOL    HW2 5193   6.675   2.698   5.160  0.0772 -0.3961  1.4553
 1432SOL     OW 5194   1.401   4.500   1.107 -0.0846 -0.0238  0.0209
 1432SOL    HW1 5195   1.332   4.534   1.170  0.4004 -1.4803  1.3977
 1432SOL    HW2 5196   1.491   4.504   1.150  0.2960 -0.7862 -0.6671
 1433SOL     OW 5197   1.477   0.454   2.136  0.1593  0.1077  0.2767
 1433SOL    HW1 5198   1.452   0.478   2.042  1.3456  2.6932  0.5293
 1433SOL    HW2 5199   1.413   0.387   2.172 -2.2185  1.3648 -1.3532
 1434SOL     OW 5200   5.098   2.680   1.087 -0.5663 -0.0961  0.0567
 1434SOL    HW1 5201   5.060   2.772   1.073  1.7393  0.8832 -0.1237
 1434SOL    HW2 5202   5.147   2.651   1.005 -0.2887 -1.0082  0.5330
 1435SOL     OW 5203   1.751   5.007   3.321 -0.0112  0.3418 -0.0599
 1435SOL    HW1 5204   1.709   5.095   3.341 -0.9306 -0.1423  0.2451
 1435SOL    HW2 5205   1.833   4.995   3.376  0.7311  1.4485 -0.9030
 1436SOL     OW 5206   1.786   1.980   0.221 -0.2582 -0.9392  0.5245
 1436SOL    HW1 5207   1.822   2.073   0.230  0.1706 -1.0248 -0.2578
 1436SOL    HW2 5208   1.819   1.925   0.298  1.7043 -1.1342 -0.3794
 1437SOL     OW 5209   1.938   2.508   4.472  0.2681  0.4105 -0.1875
 1437SOL    HW1 5210   1.940   2.421   4.423  1.7003 -0.2218  0.9165
 1437SOL    HW2 5211   1.869   2.503   4.544  0.3743  0.1593 -0.1004
 1438SOL     OW 5212   6.928   3.719   5.859 -0.4792 -0.0851  0.3586
 1438SOL    HW1 5213   6.969   3.765   5.780  1.7664 -1.9561  0.3413
 1438SOL    HW2 5214   6.993   3.718   5.934 -0.2891 -3.3875  0.2746
 1439SOL     OW 5215   4.997   0.604   3.019  0.2990 -0.5297  0.0829
 1439SOL    HW1 5216   4.958   0.667   3.086 -0.9135 -3.0141  1.8853
 1439SOL    HW2 5217   5.074   0.648   2.973 -1.1955  2.6404  0.3256
 1440SOL     OW 5218   5.586   5.105   5.467 -0.2564 -0.0716 -0.5345
 1440SOL    HW1 5219   5.505   5.164   5.461 -1.3999 -1.5438 -0.3179
 1440SOL    HW2 5220   5.619   5.085   5.375 -1.0431 -0.6114 -0.7143
 1441SOL     OW 5221   6.975   0.258   2.974  0.0306 -0.0125  0.7019
 1441SOL    HW1 5222   7.014   0.196   2.905 -0.0822  0.8275 -0.1417
 1441SOL    HW2 5223   6.876   0.244   2.979  0.1681 -0.8077  1.4693
 1442SOL     OW 5224   5.457   3.003   6.726 -0.1575 -0.4420 -0.3631
 1442SOL    HW1 5225   5.374   3.055   6.744  0.1983  0.3570 -0.9849
 1442SOL    HW2 5226   5.435   2.921   6.672 -0.8140 -1.3331  1.1795
 1443SOL     OW 5227   1.010   6.351   5.225 -0.1346  0.2859  0.4233
 1443SOL    HW1 5228   0.928   6.322   5.176 -0.4617  0.1055  1.0753
 1443SOL    HW2 5229   0.985   6.386   5.315  0.4370  0.8933  0.3565
 1444SOL     OW 5230   5.136   6.975   4.627  0.4772  0.4266 -0.0791
 1444SOL    HW1 5231   5.176   6.932   4.545  0.6965 -0.7968  0.6475
 1444SOL    HW2 5232   5.053   7.025   4.601 -0.0984 -0.8960 -0.8838
 1445SOL     OW 5233   3.884   4.829   3.450  0.0722  0.0593  0.7357
 1445SOL    HW1 5234   3.817   4.832   3.524 -2.6835 -0.9869 -1.5335
 1445SOL    HW2 5235   3.945   4.750   3.465 -0.7457 -0.4345  1.6249
 1446SOL     OW 5236   1.399   6.365   4.703  0.0839 -0.0735 -0.0536
 1446SOL    HW1 5237   1.456   6.417   4.766 -2.1268  2.3459  0.1447
 1446SOL    HW2 5238   1.317   6.332   4.751 -0.5252 -0.2004 -1.1294
 1447SOL     OW 5239   1.926   1.654   4.016 -0.1695  0.1111 -0.3856
 1447SOL    HW1 5240   1.996   1.704   4.067 -0.4970  0.9667 -0.7515
 1447SOL    HW2 5241   1.939   1.669   3.918  0.7200 -1.8733 -0.6099
 1448SOL     OW 5242   5.447   5.798   1.606  0.4315 -0.1584 -0.2164
 1448SOL    HW1 5243   5.466   5.738   1.529  0.3234 -0.4329 -0.0289
 1448SOL    HW2 5244   5.428   5.890   1.572  0.9146 -0.1510 -0.4834
 1449SOL     OW 5245   6.590   4.299   3.671  0.2097  0.2637  0.1354
 1449SOL    HW1 5246   6.605   4.310   3.572 -2.7872 -1.8338 -0.7021
 1449SOL    HW2 5247   6.512   4.356   3.699  2.0821  2.2046  1.7954
 1450SOL     OW 5248   5.979   3.166   0.743 -0.1730 -0.3829 -0.8902
 1450SOL    HW1 5249   5.912   3.141   0.672 -0.4184  1.3609 -1.3112
 1450SOL    HW2 5250   5.931   3.203   0.822  0.2702  0.8334 -1.1736
 1451SOL     OW 5251   5.257   5.198   1.151  0.2759 -0.0958  0.5008
 1451SOL    HW1 5252   5.182   5.133   1.158 -1.2316  1.5941  0.7766
 1451SOL    HW2 5253   5.265   5.249   1.237  0.7074  0.8156 -0.0586
 1452SOL     OW 5254   5.278   4.835   6.452 -0.1972 -0.1245 -0.6263
 1452SOL    HW1 5255   5.318   4.750   6.487  1.3289  0.6014 -0.5246
 1452SOL    HW2 5256   5.341   4.878   6.388 -1.6586  0.1121 -1.9807
 1453SOL     OW 5257   1.096   4.084   4.933  0.1965 -0.1654 -0.5200
 1453SOL    HW1 5258   1.184   4.037   4.942 -0.0310 -0.4611  0.2076
 1453SOL    HW2 5259   1.111   4.173   4.890  1.1328  0.5498  1.1661
 1454SOL     OW 5260   1.125   5.286   2.068 -0.4115 -0.1136  0.3142
 1454SOL    HW1 5261   1.063   5.364   2.074  0.0166  0.2522 -0.0668
 1454SOL    HW2 5262   1.219   5.317   2.057 -0.4009 -0.6776 -1.4610
 1455SOL     OW 5263   4.893   6.208   2.824 -0.3383  0.6333 -0.7173
 1455SOL    HW1 5264   4.909   6.156   2.908 -1.4131  0.4395 -0.6180
 1455SOL    HW2 5265   4.981   6.233   2.784  0.2534  2.2747  1.3870
 1456SOL     OW 5266   1.473   4.395   1.750  0.0402 -0.0437  0.2903
 1456SOL    HW1 5267   1.567   4.428   1.746  0.4981 -1.4461 -1.3357
 1456SOL    HW2 5268   1.469   4.300   1.719 -1.8862 -0.0938  0.5530
 1457SOL     OW 5269   6.027   5.078   6.024  0.4315 -0.0798 -0.0812
 1457SOL    HW1 5270   5.989   5.102   6.113  0.0269 -0.8898 -0.0209
 1457SOL    HW2 5271   6.070   5.158   5.983 -0.6068  0.6605  0.2268
 1458SOL     OW 5272   1.289   1.426   2.941 -0.3477  0.2039  0.3782
 1458SOL    HW1 5273   1.247   1.493   2.880 -0.1838  0.1155  0.1705
 1458SOL    HW2 5274   1.381   1.404   2.909  0.0562  0.7660  1.1057
 1459SOL     OW 5275   0.154   3.500   5.284 -0.1468  0.3386 -0.2412
 1459SOL    HW1 5276   0.074   3.559   5.277 -0.3341  0.3755  1.6834
 1459SOL    HW2 5277   0.236   3.555   5.296 -0.2260  0.2541  0.7773
 1460SOL     OW 5278   5.467   5.453   0.702  0.3080  0.1869  0.2653
 1460SOL    HW1 5279   5.478   5.553   0.704  1.8149  0.0320  1.6245
 1460SOL    HW2 5280   5.552   5.410   0.731  0.1447 -1.5651 -1.6735
 1461SOL     OW 5281   1.805   6.001   5.019  0.1540 -0.5085 -0.2776
 1461SOL    HW1 5282   1.881   6.016   5.082 -0.1323  0.4143 -0.1408
 1461SOL    HW2 5283   1.722   5.978   5.071  0.0180 -0.1599 -0.3352
 1462SOL     OW 5284   6.605   1.375   4.082  0.5510 -0.4973  0.3935
 1462SOL    HW1 5285   6.594   1.284   4.122 -0.4127 -1.3287 -1.6187
 1462SOL    HW2 5286   6.594   1.369   3.983  1.5892  1.6561  0.0881
 1463SOL     OW 5287   1.632   2.342   0.783  0.3881 -0.2410 -0.3774
 1463SOL    HW1 5288   1.707   2.283   0.813  0.9447  0.0050 -1.2744
 1463SOL    HW2 5289   1.668   2.422   0.736 -0.4592 -0.7397 -1.9410
 1464SOL     OW 5290   3.192   4.806   6.361  0.1262  0.0980  0.2861
 1464SOL    HW1 5291   3.234   4.896   6.352 -1.2122  0.7642  0.5562
 1464SOL    HW2 5292   3.145   4.800   6.449  1.6137 -1.4885  1.0530
 1465SOL     OW 5293   4.963   0.720   4.347  0.3337 -0.2048  0.2079
 1465SOL    HW1 5294   4.881   0.719   4.291  0.3339 -0.2686  0.2096
 1465SOL    HW2 5295   5.001   0.628   4.354 -0.3877 -0.4415  1.3690
 1466SOL     OW 5296   1.149   5.156   4.245 -0.0331 -0.1407 -0.0556
 1466SOL    HW1 5297   1.220   5.100   4.202 -0.6958 -1.5043  0.5672
 1466SOL    HW2 5298   1.165   5.252   4.222  1.5933 -0.4758 -0.5108
 1467SOL     OW 5299   2.413   5.472   0.963  0.8372  0.6137 -0.0399
 1467SOL    HW1 5300   2.331   5.527   0.944 -0.5247 -0.3374  2.4999
 1467SOL    HW2 5301   2.421   5.400   0.894 -0.1452  1.0819 -0.6678
 1468SOL     OW 5302   2.632   1.492   5.651 -0.2313  0.1158  0.3776
 1468SOL    HW1 5303   2.635   1.431   5.571  1.1564  1.0310 -0.3117
 1468SOL    HW2 5304   2.725   1.512   5.681 -0.6436  1.9483  0.5283
 1469SOL     OW 5305   1.940   0.125   4.489 -0.4081  0.2331 -0.3864
 1469SOL    HW1 5306   2.031   0.165   4.473 -0.1512  0.3581  1.2511
 1469SOL    HW2 5307   1.948   0.025   4.490 -0.4890  0.2091 -1.2865
 1470SOL     OW 5308   5.575   3.284   0.131 -0.2617  0.5026 -0.3686
 1470SOL    HW1 5309   5.578   3.222   0.053  1.9148  1.2607 -0.9748
 1470SOL    HW2 5310   5.658   3.273   0.186 -0.2317  2.2076  0.0129
 1471SOL     OW 5311   1.821   1.361   5.610  0.3640  0.5297  0.6863
 1471SOL    HW1 5312   1.892   1.411   5.560  0.8833 -1.5976 -0.8356
 1471SOL    HW2 5313   1.740   1.352   5.553  1.1603 -2.4237 -0.1329
 1472SOL     OW 5314   1.706   3.089   6.971  0.2103  0.2220  0.5948
 1472SOL    HW1 5315   1.630   3.056   7.026  1.4118 -1.4220  1.3604
 1472SOL    HW2 5316   1.698   3.055   6.877  0.7967 -1.3094  1.0727
 1473SOL     OW 5317   6.433   3.932   5.856 -0.3149 -0.2380 -0.3153
 1473SOL    HW1 5318   6.399   3.973   5.941 -0.5554 -0.2554 -0.4037
 1473SOL    HW2 5319   6.507   3.868   5.877  0.6510  0.8643 -0.2387
 1474SOL     OW 5320   2.213   0.272   5.925 -0.2791  0.4683 -0.1888
 1474SOL    HW1 5321   2.281   0.252   5.854 -0.6447  0.1798 -0.4657
 1474SOL    HW2 5322   2.175   0.363   5.909  1.0704  1.2571  0.8164
 1475SOL     OW 5323   5.899   1.564   1.234 -0.4483  0.3077 -0.2262
 1475SOL    HW1 5324   5.808   1.596   1.207 -1.2733  0.5365  2.5232
 1475SOL    HW2 5325   5.943   1.633   1.292 -0.2727 -1.4574  1.8774
 1476SOL     OW 5326   0.123   1.861   1.890  0.0036 -0.2603 -0.2947
 1476SOL    HW1 5327   0.121   1.789   1.822  3.0493 -0.1861 -0.5856
 1476SOL    HW2 5328   0.069   1.940   1.858 -3.3857 -2.2320  0.0379
 1477SOL     OW 5329   6.612   1.990   5.575 -0.1501  0.6623 -0.4838
 1477SOL    HW1 5330   6.690   1.928   5.566  0.1360  0.9622 -0.1225
 1477SOL    HW2 5331   6.572   1.980   5.666  1.3868  2.6927  0.4968
 1478SOL     OW 5332   2.292   3.001   0.150  0.5224 -0.2133 -0.0955
 1478SOL    HW1 5333   2.229   3.070   0.184  0.2241  0.0163 -1.0684
 1478SOL    HW2 5334   2.381   3.043   0.131 -0.5893  0.8361 -4.0053
 1479SOL     OW 5335   1.197   4.137   0.583  0.2405  0.0083 -0.3106
 1479SOL    HW1 5336   1.204   4.042   0.551 -0.7196  0.2450 -1.3140
 1479SOL    HW2 5337   1.169   4.195   0.506 -1.8341  0.6679  0.8669
 1480SOL     OW 5338   1.840   2.092   5.441 -0.2975  0.6119  0.1684
 1480SOL    HW1 5339   1.745   2.071   5.465  0.4789 -2.6577  0.9463
 1480SOL    HW2 5340   1.855   2.072   5.344  0.0320 -1.0596  0.5268
 1481SOL     OW 5341   2.022   6.951   5.530 -0.2683  0.2803  0.3526
 1481SOL    HW1 5342   2.067   6.903   5.455  2.8206 -0.6067  2.5681
 1481SOL    HW2 5343   2.042   7.049   5.525  0.9931  0.0597  0.6050
 1482SOL     OW 5344   5.080   3.378   0.204 -0.2168  0.0652 -0.4956
 1482SOL    HW1 5345   5.072   3.460   0.261 -1.6816 -1.0845  1.0892
 1482SOL    HW2 5346   4.989   3.338   0.190  0.5938 -2.4746  0.7063
 1483SOL     OW 5347   5.787   3.826   0.719 -0.1765 -0.0271  0.1122
 1483SOL    HW1 5348   5.850   3.895   0.682  1.0606 -0.6291  1.0446
 1483SOL    HW2 5349   5.699   3.870   0.738 -0.5270  0.5440 -2.4419
 1484SOL     OW 5350   7.009   1.404   6.144  0.1894  0.2812  0.2757
 1484SOL    HW1 5351   7.062   1.370   6.220  0.8764  0.9353  0.1024
 1484SOL    HW2 5352   6.991   1.502   6.156 -0.1167  0.2873 -0.1595
 1485SOL     OW 5353   0.590   6.731   2.789 -0.1353  0.2736  0.0083
 1485SOL    HW1 5354   0.582   6.759   2.885 -0.8327 -2.1048  0.7248
 1485SOL    HW2 5355   0.499   6.712   2.752  0.1019  1.4270 -1.2550
 1486SOL     OW 5356   0.140   6.145   3.457 -0.1767 -0.0239  0.0357
 1486SOL    HW1 5357   0.218   6.188   3.500  0.1731 -0.8703  0.2697
 1486SOL    HW2 5358   0.113   6.064   3.509 -0.1403 -0.7065 -0.9659
 1487SOL     OW 5359   4.558   1.494   4.291 -0.4023  0.4218  0.1213
 1487SOL    HW1 5360   4.541   1.584   4.331 -0.9099 -0.8454  2.9589
 1487SOL    HW2 5361   4.634   1.450   4.339  0.3540 -0.3991 -1.7414
 1488SOL     OW 5362   5.599   1.777   2.827  0.3241 -0.1822 -0.2993
 1488SOL    HW1 5363   5.619   1.741   2.917 -1.9603  0.2695  0.4586
 1488SOL    HW2 5364   5.643   1.867   2.816 -1.4416  0.9714  1.4356
 1489SOL     OW 5365   3.857   1.434   4.864  0.2652  0.2760  0.0382
 1489SOL    HW1 5366   3.780   1.373   4.850 -0.7865  1.4230  0.6483
 1489SOL    HW2 5367   3.831   1.527   4.837  1.4061  0.6968  0.3282
 1490SOL     OW 5368   4.106   5.371   6.532  0.2851 -0.2360 -0.3468
 1490SOL    HW1 5369   4.193   5.323   6.536  0.1120 -0.4708  2.2265
 1490SOL    HW2 5370   4.032   5.304   6.522  0.3008 -0.1871 -0.7726
 1491SOL     OW 5371   5.936   6.223   3.463  0.3475 -0.1495  0.0546
 1491SOL    HW1 5372   6.031   6.215   3.432  1.4665  3.5813  1.9601
 1491SOL    HW2 5373   5.927   6.186   3.555 -0.2733 -1.1736 -0.4035
 1492SOL     OW 5374   5.781   1.144   0.559  0.0859  0.1194  0.4885
 1492SOL    HW1 5375   5.705   1.088   0.589 -0.8304  0.3382 -1.2642
 1492SOL    HW2 5376   5.797   1.219   0.624 -1.8187  0.6152  0.4252
 1493SOL     OW 5377   4.933   3.174   1.318 -0.3504  0.2477  0.4156
 1493SOL    HW1 5378   4.882   3.121   1.250  1.1723  1.5898 -1.8679
 1493SOL    HW2 5379   5.014   3.123   1.346 -0.4687  0.1072  0.5055
 1494SOL     OW 5380   1.040   6.919   1.395 -0.2790  0.2597  0.5706
 1494SOL    HW1 5381   1.127   6.888   1.356 -1.0717  0.1745 -1.2217
 1494SOL    HW2 5382   0.988   6.840   1.427  0.7887  0.3947  2.8647
 1495SOL     OW 5383   0.267   5.517   6.178  0.4838 -0.0656 -0.6700
 1495SOL    HW1 5384   0.240   5.608   6.208  1.4176  0.1979 -0.5901
 1495SOL    HW2 5385   0.342   5.484   6.235  1.1766 -0.2444 -1.6521
 1496SOL     OW 5386   6.656   5.963   5.683  0.1341  0.1328  0.1433
 1496SOL    HW1 5387   6.753   5.975   5.661 -0.5125  1.5088 -2.3045
 1496SOL    HW2 5388   6.648   5.907   5.765  2.9795 -0.2680  0.2677
 1497SOL     OW 5389   4.754   4.703   5.471 -0.3984 -0.0452  0.0442
 1497SOL    HW1 5390   4.759   4.741   5.379 -0.1910  1.0932  0.5158
 1497SOL    HW2 5391   4.766   4.603   5.466 -1.8727 -0.1888 -1.2864
 1498SOL     OW 5392   5.813   1.211   2.314  0.5044  0.5631 -0.1656
 1498SOL    HW1 5393   5.809   1.121   2.271  0.0926  0.4212  0.1653
 1498SOL    HW2 5394   5.905   1.249   2.302  0.4155  0.5063 -1.1132
 1499SOL     OW 5395   1.357   4.506   3.131 -0.6795  0.6332  0.0040
 1499SOL    HW1 5396   1.257   4.513   3.136 -1.1521 -2.8647 -1.4137
 1499SOL    HW2 5397   1.385   4.510   3.035  0.2534 -0.6179  0.1982
 1500SOL     OW 5398   5.537   6.564   5.306 -0.0178 -0.6390 -0.1527
 1500SOL    HW1 5399   5.554   6.660   5.330 -0.1579 -0.3298 -1.2347
 1500SOL    HW2 5400   5.615   6.508   5.333 -0.1156 -0.2934  0.8748
 1501SOL     OW 5401   3.369   3.472   1.502  0.3145  0.8033  0.2625
 1501SOL    HW1 5402   3.455   3.461   1.452  0.1847  1.2649 -0.0681
 1501SOL    HW2 5403   3.363   3.402   1.573  0.9086  0.6933  0.2117
 1502SOL     OW 5404   0.815   5.468   5.513 -0.5110  0.0764 -0.1990
 1502SOL    HW1 5405   0.732   5.453   5.459 -0.8150  1.3732 -0.1248
 1502SOL    HW2 5406   0.843   5.563   5.504  2.2842 -0.8023 -2.0559
 1503SOL     OW 5407   1.231   2.843   0.564 -0.2855  0.4431  0.3693
 1503SOL    HW1 5408   1.168   2.897   0.621  0.0855  0.7599  0.4784
 1503SOL    HW2 5409   1.280   2.778   0.622 -0.2374  0.4552  0.3415
 1504SOL     OW 5410   3.344   0.404   0.385 -0.2718 -0.7107  0.1754
 1504SOL    HW1 5411   3.411   0.389   0.313 -1.6371 -0.7575 -1.1515
 1504SOL    HW2 5412   3.265   0.345   0.370 -1.0562  0.0687  1.0827
 1505SOL     OW 5413   0.617   1.266   0.648  0.4943 -0.0979 -0.1059
 1505SOL    HW1 5414   0.703   1.251   0.696 -0.4805 -0.0957  1.7326
 1505SOL    HW2 5415   0.565   1.337   0.695 -1.0148 -0.8982 -0.5192
 1506SOL     OW 5416   4.600   2.150   2.373 -0.8640 -0.2052  0.0058
 1506SOL    HW1 5417   4.638   2.236   2.341  0.6191 -0.9722 -0.3568
 1506SOL    HW2 5418   4.565   2.162   2.467  2.2352  0.0412  1.2334
 1507SOL     OW 5419   0.231   3.846   1.388 -0.2122 -0.4650  0.5921
 1507SOL    HW1 5420   0.238   3.812   1.295 -3.3738  1.8083 -0.6500
 1507SOL    HW2 5421   0.322   3.852   1.428  1.2625 -1.5187 -2.3128
 1508SOL     OW 5422   1.102   3.586   6.533 -0.4073  0.6668 -0.0178
 1508SOL    HW1 5423   1.112   3.519   6.460 -1.9666  0.9133 -0.4771
 1508SOL    HW2 5424   1.056   3.668   6.499  1.6336  2.1246  0.4801
 1509SOL     OW 5425   1.577   2.387   2.252  0.3640 -0.2271  0.4357
 1509SOL    HW1 5426   1.662   2.358   2.207  0.8291  0.6725  0.6983
 1509SOL    HW2 5427   1.540   2.466   2.204  0.2679  0.0547  0.9649
 1510SOL     OW 5428   3.952   0.444   6.743 -0.3129 -0.6157  0.1695
 1510SOL    HW1 5429   3.978   0.364   6.797  0.4205 -0.1509  0.5133
 1510SOL    HW2 5430   3.857   0.469   6.764 -0.1830 -0.7167  0.9062
 1511SOL     OW 5431   4.913   3.371   3.622  0.1667 -0.4816 -0.0456
 1511SOL    HW1 5432   4.962   3.293   3.581 -1.5313 -1.2549 -0.6813
 1511SOL    HW2 5433   4.900   3.442   3.554  3.2370  1.2266  0.9556
 1512SOL     OW 5434   2.003   2.212   2.849 -0.0416 -0.5645 -0.3064
 1512SOL    HW1 5435   2.090   2.234   2.893  0.3532 -1.2725 -0.7120
 1512SOL    HW2 5436   1.933   2.277   2.878  0.8969  0.7330 -0.8749
 1513SOL     OW 5437   0.707   1.536   2.944 -0.0463 -0.2477 -0.5907
 1513SOL    HW1 5438   0.623   1.558   2.992 -0.5117 -0.6347 -1.2148
 1513SOL    HW2 5439   0.786   1.563   3.000 -0.5729  1.5947 -0.7013
 1514SOL     OW 5440   4.887   5.990   1.412  0.6877  0.4780  0.3217
 1514SOL    HW1 5441   4.870   6.088   1.424  0.0831  0.3069  0.9018
 1514SOL    HW2 5442   4.822   5.953   1.345  1.0089  0.4932 -0.0052
 1515SOL     OW 5443   5.436   1.316   3.973 -0.2167  0.2036 -0.2055
 1515SOL    HW1 5444   5.419   1.225   3.936 -2.2057  0.8615 -1.0582
 1515SOL    HW2 5445   5.364   1.378   3.943  0.5760  1.8543  1.1243
 1516SOL     OW 5446   1.172   0.801   1.347 -0.6244 -0.0628 -0.1881
 1516SOL    HW1 5447   1.136   0.730   1.286  2.1541 -1.4026 -0.4345
 1516SOL    HW2 5448   1.217   0.872   1.292 -1.8731  1.0417  0.1601
 1517SOL     OW 5449   4.750   2.399   3.378 -0.2932 -0.0649  0.1693
 1517SOL    HW1 5450   4.657   2.436   3.377  0.2416  1.5837 -2.7824
 1517SOL    HW2 5451   4.812   2.466   3.337  1.7988 -2.0316 -0.0575
 1518SOL     OW 5452   4.279   3.706   1.277  0.1685  0.5966 -0.1742
 1518SOL    HW1 5453   4.355   3.705   1.212 -0.1494  0.3827 -0.5442
 1518SOL    HW2 5454   4.296   3.777   1.346  0.9514  0.2155  0.0476
 1519SOL     OW 5455   1.161   2.353   3.140 -0.2463  1.0067 -0.0996
 1519SOL    HW1 5456   1.252   2.395   3.131 -0.7905  2.0352 -1.0520
 1519SOL    HW2 5457   1.112   2.397   3.215  0.2039  0.1047  0.7475
 1520SOL     OW 5458   4.445   5.277   6.601  0.2438  0.4876 -0.4159
 1520SOL    HW1 5459   4.483   5.221   6.528 -1.9216  0.4661 -1.6093
 1520SOL    HW2 5460   4.459   5.374   6.580  0.2088  0.4668 -0.5394
 1521SOL     OW 5461   2.765   4.318   0.184 -0.1285 -0.4905  0.5825
 1521SOL    HW1 5462   2.695   4.249   0.164 -0.8896  0.7364 -1.2130
 1521SOL    HW2 5463   2.851   4.292   0.141  0.0189 -1.0654  1.2084
 1522SOL     OW 5464   0.523   0.993   4.784  0.3822 -0.3304 -0.5236
 1522SOL    HW1 5465   0.485   1.075   4.742  0.9766 -0.7837 -2.0247
 1522SOL    HW2 5466   0.478   0.912   4.745  1.5279 -0.7921 -0.9251
 1523SOL     OW 5467   6.078   0.413   1.285 -0.3416  0.7282  0.0861
 1523SOL    HW1 5468   6.035   0.356   1.354  0.5537 -0.0306  0.0405
 1523SOL    HW2 5469   6.086   0.362   1.199  0.6857  0.8096  0.1136
 1524SOL     OW 5470   1.021   0.347   5.614  0.1830  0.4741 -0.2193
 1524SOL    HW1 5471   1.038   0.353   5.712 -0.6587  0.3526 -0.0610
 1524SOL    HW2 5472   0.990   0.436   5.580 -1.8352 -0.0799  0.0882
 1525SOL     OW 5473   2.856   5.402   1.722  0.0566  0.0119  0.2604
 1525SOL    HW1 5474   2.806   5.404   1.635 -0.4393 -1.8300  0.4460
 1525SOL    HW2 5475   2.818   5.471   1.784 -1.3365 -0.3890 -0.1011
 1526SOL     OW 5476   0.064   2.796   4.359 -0.0150 -0.2194  0.7809
 1526SOL    HW1 5477   0.115   2.838   4.434 -0.1458 -0.4870  1.0182
 1526SOL    HW2 5478   0.008   2.865   4.314  0.6978  0.1215  0.3992
 1527SOL     OW 5479   3.404   2.117   4.802 -0.8146 -0.0852  0.0548
 1527SOL    HW1 5480   3.317   2.167   4.798  0.0973  1.6648  0.9939
 1527SOL    HW2 5481   3.468   2.158   4.737  0.3730  0.8803  1.7652
 1528SOL     OW 5482   5.235   2.767   3.446  0.0075  0.1266 -0.5895
 1528SOL    HW1 5483   5.263   2.804   3.534 -1.6677  1.7585 -0.6940
 1528SOL    HW2 5484   5.175   2.688   3.460  2.2940 -1.6903 -0.3623
 1529SOL     OW 5485   1.526   0.098   0.411 -0.0216 -0.0441 -0.0265
 1529SOL    HW1 5486   1.609   0.126   0.459  0.4821 -1.2589 -0.1389
 1529SOL    HW2 5487   1.545   0.086   0.314 -0.6416  0.8549 -0.2675
 1530SOL     OW 5488   5.436   5.749   6.196 -0.2024 -0.3169  0.5331
 1530SOL    HW1 5489   5.496   5.826   6.177  1.7629 -2.1052 -1.1077
 1530SOL    HW2 5490   5.467   5.701   6.278  2.3996 -2.6888 -1.6454
 1531SOL     OW 5491   1.141   3.764   3.988 -0.1841  0.0619 -1.0812
 1531SOL    HW1 5492   1.130   3.750   3.890  3.2194  0.9756 -1.7250
 1531SOL    HW2 5493   1.222   3.820   4.005  1.0671 -2.4219  2.3596
 1532SOL     OW 5494   0.049   2.297   3.004  0.0672  0.5091 -0.0629
 1532SOL    HW1 5495   0.088   2.288   2.912 -0.3854 -1.2149 -0.1222
 1532SOL    HW2 5496   0.123   2.304   3.071  0.4195  0.6062 -0.4573
 1533SOL     OW 5497   1.681   6.780   1.832  0.2146  0.4318  0.1309
 1533SOL    HW1 5498   1.780   6.768   1.824  0.3321 -0.4271  2.2052
 1533SOL    HW2 5499   1.635   6.693   1.813  0.0887  0.0853  1.8501
 1534SOL     OW 5500   4.691   4.223   2.895 -0.1457  0.6709 -0.4284
 1534SOL    HW1 5501   4.736   4.146   2.940 -1.0870 -0.1756 -0.9034
 1534SOL    HW2 5502   4.700   4.214   2.796 -2.5596 -0.3195 -0.6145
 1535SOL     OW 5503   6.348   6.773   2.693  0.5268 -0.0546 -0.0937
 1535SOL    HW1 5504   6.430   6.744   2.742 -0.6459 -0.7804  1.5453
 1535SOL    HW2 5505   6.349   6.734   2.600  2.2616  0.4226 -0.3145
 1536SOL     OW 5506   0.917   4.252   0.989  0.0709  0.1563  0.3047
 1536SOL    HW1 5507   0.858   4.307   0.929 -0.9100  0.4010  1.4506
 1536SOL    HW2 5508   1.002   4.230   0.941 -1.4477 -1.3305 -1.9132
 1537SOL     OW 5509   0.441   4.599   0.281  0.6696 -0.2793  0.5423
 1537SOL    HW1 5510   0.381   4.580   0.203  1.5165  1.0884 -0.4962
 1537SOL    HW2 5511   0.534   4.569   0.259  0.8279 -0.2761  1.1995
 1538SOL     OW 5512   6.835   3.365   1.322  0.2724 -0.9875  0.1960
 1538SOL    HW1 5513   6.793   3.452   1.295 -0.1454 -0.9298  0.9996
 1538SOL    HW2 5514   6.821   3.297   1.250  1.2429 -0.1995 -0.7797
 1539SOL     OW 5515   0.574   5.285   2.041 -0.1859 -0.2037  0.6466
 1539SOL    HW1 5516   0.618   5.325   2.121  0.9920  1.1065 -0.6118
 1539SOL    HW2 5517   0.476   5.303   2.045  0.1810  2.1000  0.5593
 1540SOL     OW 5518   3.659   3.275   1.696 -0.6358  0.2090  0.4550
 1540SOL    HW1 5519   3.709   3.196   1.661 -0.7886 -0.6371  2.0806
 1540SOL    HW2 5520   3.654   3.345   1.625  1.8897 -0.1192 -0.1213
 1541SOL     OW 5521   0.590   0.805   1.941 -0.0684 -0.0808 -0.4632
 1541SOL    HW1 5522   0.643   0.887   1.964 -0.7159  0.1639  0.1933
 1541SOL    HW2 5523   0.572   0.803   1.843 -1.3193  1.3701 -0.2971
 1542SOL     OW 5524   5.069   2.241   2.136  0.8067 -0.2208 -0.5583
 1542SOL    HW1 5525   5.072   2.218   2.233  0.8334  0.0204 -0.5022
 1542SOL    HW2 5526   5.089   2.159   2.082  2.4250  0.0126 -0.3341
 1543SOL     OW 5527   5.028   3.287   2.275  0.5531  0.6337 -0.7187
 1543SOL    HW1 5528   5.106   3.250   2.325  1.3706  1.3690 -1.4045
 1543SOL    HW2 5529   4.962   3.214   2.257  0.8462  0.1004  0.2951
 1544SOL     OW 5530   1.576   2.378   6.590 -0.8534 -0.6812  0.4301
 1544SOL    HW1 5531   1.636   2.299   6.579 -1.6335 -1.4795  1.7279
 1544SOL    HW2 5532   1.521   2.368   6.672 -3.1762 -0.2319 -0.9692
 1545SOL     OW 5533   3.120   0.681   5.547  0.1608  0.1874 -0.5635
 1545SOL    HW1 5534   3.111   0.775   5.579  1.2508  0.0747  0.1265
 1545SOL    HW2 5535   3.156   0.624   5.621  1.5053 -0.3297 -1.5637
 1546SOL     OW 5536   0.593   0.583   4.187 -0.1138  0.7509 -0.6074
 1546SOL    HW1 5537   0.571   0.620   4.277  0.2591 -1.1036  0.2947
 1546SOL    HW2 5538   0.509   0.569   4.136 -0.6659 -1.2086  0.7320
 1547SOL     OW 5539   0.334   4.601   4.434 -0.1601 -0.0668  0.0499
 1547SOL    HW1 5540   0.329   4.665   4.357 -1.5264  1.0399  0.9996
 1547SOL    HW2 5541   0.342   4.653   4.519 -3.9276 -0.9461  1.0996
 1548SOL     OW 5542   3.009   6.728   3.608 -0.1117 -0.5088 -0.4423
 1548SOL    HW1 5543   2.936   6.678   3.563  0.4955 -0.9159 -1.0040
 1548SOL    HW2 5544   2.989   6.737   3.706 -0.8212 -0.7564 -0.5620
 1549SOL     OW 5545   0.011   6.435   3.407  0.1149 -0.0322 -0.6566
 1549SOL    HW1 5546  -0.055   6.489   3.460 -0.3657  0.4275 -1.6959
 1549SOL    HW2 5547   0.029   6.349   3.454 -0.4004  0.3085  0.1824
 1550SOL     OW 5548   0.883   5.723   5.475  0.1700 -0.3077  0.8262
 1550SOL    HW1 5549   0.853   5.814   5.449  0.9016 -0.2106  0.2798
 1550SOL    HW2 5550   0.983   5.716   5.464  0.2593 -0.8431  1.8721
 1551SOL     OW 5551   2.088   5.006   0.786  0.6643  0.0883 -0.1109
 1551SOL    HW1 5552   2.006   4.963   0.750  1.0728 -0.1337 -0.7958
 1551SOL    HW2 5553   2.161   4.938   0.792  0.7583  0.2502  0.6258
 1552SOL     OW 5554   0.285   2.246   1.037 -0.2659  0.1216  0.2487
 1552SOL    HW1 5555   0.206   2.193   1.069 -0.9677  1.6087  1.0587
 1552SOL    HW2 5556   0.256   2.337   1.010  1.1216  0.5700  0.1852
 1553SOL     OW 5557   3.726   3.689   0.446 -0.2188 -0.2305 -0.1553
 1553SOL    HW1 5558   3.769   3.729   0.527 -0.3685  1.9330 -1.0932
 1553SOL    HW2 5559   3.760   3.735   0.364 -1.2199 -1.3396 -1.2209
 1554SOL     OW 5560   5.865   2.479   3.517  0.7644  0.2484 -0.0092
 1554SOL    HW1 5561   5.828   2.392   3.485  1.4141 -0.5385  1.2983
 1554SOL    HW2 5562   5.918   2.465   3.601  2.0638  1.6888 -0.5217
 1555SOL     OW 5563   2.453   1.085   0.093 -0.0042  0.1126  0.2988
 1555SOL    HW1 5564   2.528   1.019   0.087  0.1773  0.3516 -0.1017
 1555SOL    HW2 5565   2.438   1.111   0.188  0.3571 -0.0086  0.3894
 1556SOL     OW 5566   0.603   0.988   3.886 -0.4471 -0.2610  0.1871
 1556SOL    HW1 5567   0.669   1.063   3.894 -1.3558  0.8223 -1.7403
 1556SOL    HW2 5568   0.648   0.910   3.842  0.1927 -0.4617  1.1585
 1557SOL     OW 5569   1.479   4.973   0.406  0.0090  0.5587 -0.1156
 1557SOL    HW1 5570   1.420   4.971   0.325  0.3726  1.0185 -0.3963
 1557SOL    HW2 5571   1.459   5.054   0.460 -1.1620 -0.4108  0.9759
 1558SOL     OW 5572   0.179   5.266   0.794  0.4649  1.0114  0.7118
 1558SOL    HW1 5573   0.274   5.294   0.781  0.1115  2.2347  0.7035
 1558SOL    HW2 5574   0.136   5.249   0.706  0.3370  1.6132  0.6573
 1559SOL     OW 5575   2.165   4.708   6.276  0.4090 -0.6324  0.5114
 1559SOL    HW1 5576   2.130   4.617   6.297  3.6330 -1.9166  0.8248
 1559SOL    HW2 5577   2.145   4.770   6.351  0.3159 -1.7295  1.4154
 1560SOL     OW 5578   5.038   4.018   2.093 -0.0837  0.1291  0.1415
 1560SOL    HW1 5579   5.107   4.047   2.160  1.4903  2.4618 -2.2659
 1560SOL    HW2 5580   5.055   3.923   2.066  1.3456  0.2318  0.6088
 1561SOL     OW 5581   6.560   0.717   1.989  0.0622  0.0694 -0.2000
 1561SOL    HW1 5582   6.604   0.755   2.070 -0.4338 -0.3008  0.2495
 1561SOL    HW2 5583   6.618   0.733   1.909  1.2910 -0.8773  0.4591
 1562SOL     OW 5584   6.706   6.838   5.667 -0.4652  0.3633 -0.1542
 1562SOL    HW1 5585   6.795   6.841   5.713  0.6817  1.3022 -2.2782
 1562SOL    HW2 5586   6.660   6.752   5.688  1.7640 -0.9707 -0.4333
 1563SOL     OW 5587   4.053   2.776   0.089  0.8504  0.3268 -0.2797
 1563SOL    HW1 5588   4.056   2.846   0.160 -1.1127  1.0150 -0.8188
 1563SOL    HW2 5589   3.960   2.769   0.052  1.3581 -1.4420 -1.3739
 1564SOL     OW 5590   5.377   6.477   3.384 -0.0299 -0.2491  0.3247
 1564SOL    HW1 5591   5.281   6.503   3.395 -0.6177 -1.7917 -0.7840
 1564SOL    HW2 5592   5.388   6.426   3.299  1.5358 -1.2308  1.0726
 1565SOL     OW 5593   1.842   5.642   3.194 -0.2501  0.5826  0.3746
 1565SOL    HW1 5594   1.791   5.710   3.247  0.4809  1.1388  0.3896
 1565SOL    HW2 5595   1.787   5.612   3.116 -0.3617  1.6611  0.0151
 1566SOL     OW 5596   5.595   4.178   2.437 -0.3372  0.1498 -0.0102
 1566SOL    HW1 5597   5.683   4.165   2.483 -0.9556 -0.0361  1.1567
 1566SOL    HW2 5598   5.526   4.120   2.481 -0.7003 -0.9992 -1.9857
 1567SOL     OW 5599   6.583   3.605   1.975  0.1603 -0.0689  0.3020
 1567SOL    HW1 5600   6.641   3.544   1.921 -0.2518 -0.3195  0.1393
 1567SOL    HW2 5601   6.509   3.640   1.918 -1.0279 -1.3314  0.9964
 1568SOL     OW 5602   3.096   0.751   3.180  0.1253  0.1428  0.6447
 1568SOL    HW1 5603   3.157   0.751   3.260  0.9852  0.6405  0.0014
 1568SOL    HW2 5604   3.082   0.845   3.149  1.9367 -0.1845 -1.3768
 1569SOL     OW 5605   3.135   4.721   6.635  0.0196 -0.1381 -0.1772
 1569SOL    HW1 5606   3.065   4.791   6.647  0.7991  0.5338  0.5884
 1569SOL    HW2 5607   3.155   4.679   6.724 -1.1077 -2.0195 -0.7567
 1570SOL     OW 5608   2.933   5.660   5.652  0.5786 -0.0317  0.1524
 1570SOL    HW1 5609   2.863   5.717   5.694  0.7758 -0.5179  1.1675
 1570SOL    HW2 5610   2.891   5.576   5.617  0.4502  0.2732 -0.4352
 1571SOL     OW 5611   1.230   5.438   4.452 -0.2294 -0.5843  0.1324
 1571SOL    HW1 5612   1.229   5.342   4.481  1.0600 -0.2996  1.2322
 1571SOL    HW2 5613   1.322   5.474   4.461 -0.4280  0.4173 -1.5145
 1572SOL     OW 5614   5.864   1.413   0.702  0.1115 -0.2585 -0.3547
 1572SOL    HW1 5615   5.827   1.486   0.759 -0.6052 -0.1096 -0.9937
 1572SOL    HW2 5616   5.954   1.385   0.737 -0.5294 -0.5391  1.1683
 1573SOL     OW 5617   0.760   2.539   2.257  0.2758 -0.0117 -0.0095
 1573SOL    HW1 5618   0.722   2.595   2.184  0.4269  0.5828  0.3646
 1573SOL    HW2 5619   0.848   2.501   2.227  0.1096 -0.1606 -0.3125
 1574SOL     OW 5620   2.141   3.035   2.230 -0.1667 -0.1841 -0.2443
 1574SOL    HW1 5621   2.111   3.108   2.169 -1.0668  1.4738  2.0423
 1574SOL    HW2 5622   2.178   3.075   2.313  1.2640 -2.3580  0.2408
 1575SOL     OW 5623   0.681   5.782   2.225 -0.0772 -0.3006 -0.2102
 1575SOL    HW1 5624   0.585   5.760   2.208  0.1466  0.0787 -2.2169
 1575SOL    HW2 5625   0.715   5.842   2.153  2.0624 -1.5357 -0.3187
 1576SOL     OW 5626   6.940   3.510   6.216  0.2502 -0.0910  0.0102
 1576SOL    HW1 5627   6.995   3.493   6.134 -0.8833  0.4691 -0.8736
 1576SOL    HW2 5628   6.926   3.423   6.265  0.4700 -0.5195 -0.6763
 1577SOL     OW 5629   6.289   3.449   5.613  0.8155 -0.7438  0.9773
 1577SOL    HW1 5630   6.280   3.542   5.649 -0.1784 -1.2462  2.1373
 1577SOL    HW2 5631   6.351   3.449   5.535  0.7231  0.9106  0.8581
 1578SOL     OW 5632   0.854   2.606   5.262  0.0569  0.4133  0.3555
 1578SOL    HW1 5633   0.781   2.620   5.329 -0.7331  1.4008 -0.6523
 1578SOL    HW2 5634   0.869   2.508   5.249 -0.3367  0.2082  1.3768
 1579SOL     OW 5635   3.944   4.588   5.640 -0.4495 -0.0351  0.2332
 1579SOL    HW1 5636   3.917   4.556   5.549 -0.7080 -1.3101  0.7305
 1579SOL    HW2 5637   3.874   4.562   5.706 -0.1093  0.6008  0.8527
 1580SOL     OW 5638   6.016   2.154   3.943  0.2421  0.1384 -0.3083
 1580SOL    HW1 5639   5.938   2.212   3.919  0.4929  0.5818 -0.0754
 1580SOL    HW2 5640   5.997   2.060   3.917 -0.4924  0.1901  0.0165
 1581SOL     OW 5641   5.667   6.064   2.101  0.1141  0.1379  0.7070
 1581SOL    HW1 5642   5.718   5.991   2.055  0.3738 -0.6864  2.2502
 1581SOL    HW2 5643   5.688   6.063   2.199 -1.6295  0.8257  1.1169
 1582SOL     OW 5644   2.186   4.837   6.577  0.4640  0.3846  0.0675
 1582SOL    HW1 5645   2.165   4.922   6.626 -3.3550 -1.4003  1.9639
 1582SOL    HW2 5646   2.260   4.789   6.624  1.6315  1.8610 -0.1553
 1583SOL     OW 5647   6.605   1.045   0.454  0.2637  0.3121  0.8611
 1583SOL    HW1 5648   6.664   0.981   0.503  0.0174 -1.7928 -1.3658
 1583SOL    HW2 5649   6.521   1.059   0.505  0.5192 -0.8208  1.6266
 1584SOL     OW 5650   2.884   1.319   5.125  0.1662  0.2816 -0.3299
 1584SOL    HW1 5651   2.954   1.305   5.055 -0.0676  1.8646 -0.9171
 1584SOL    HW2 5652   2.794   1.321   5.081 -0.1458 -0.3555  0.2520
 1585SOL     OW 5653   0.526   4.110   5.905 -0.1700 -0.0385  0.1675
 1585SOL    HW1 5654   0.465   4.148   5.836  0.8232 -0.8779 -1.2120
 1585SOL    HW2 5655   0.606   4.169   5.915 -0.0820 -0.1762  0.2738
 1586SOL     OW 5656   6.422   0.239   3.669  0.6602  0.2193  0.0257
 1586SOL    HW1 5657   6.369   0.157   3.648 -0.2232  0.4931  1.0883
 1586SOL    HW2 5658   6.453   0.281   3.583 -1.1277  0.2117 -0.6798
 1587SOL     OW 5659   4.132   5.164   0.389  0.0107 -0.3360  0.4374
 1587SOL    HW1 5660   4.178   5.203   0.468 -0.0729  0.2989  0.1773
 1587SOL    HW2 5661   4.048   5.118   0.418  0.8721 -1.6618  0.9384
 1588SOL     OW 5662   6.649   2.285   0.540 -0.2194 -0.7647 -0.1649
 1588SOL    HW1 5663   6.693   2.337   0.467 -0.8141 -1.3743 -0.9886
 1588SOL    HW2 5664   6.561   2.327   0.562 -0.6288 -1.3014 -0.7210
 1589SOL     OW 5665   2.973   1.632   5.337 -0.3652  0.6605  0.3917
 1589SOL    HW1 5666   2.886   1.610   5.293 -0.1604 -0.2295  0.4197
 1589SOL    HW2 5667   2.957   1.696   5.412 -1.4097 -1.5317  2.1599
 1590SOL     OW 5668   6.013   6.222   2.104  0.1629 -0.6351 -0.1026
 1590SOL    HW1 5669   6.010   6.244   2.006  1.2827 -1.6487 -0.3858
 1590SOL    HW2 5670   6.000   6.123   2.116 -1.6439 -0.3229  0.9134
 1591SOL     OW 5671   2.955   5.753   4.221  0.4522 -0.3133  0.1151
 1591SOL    HW1 5672   2.957   5.713   4.130  1.4297 -0.3361  0.1415
 1591SOL    HW2 5673   2.959   5.853   4.214  1.7824 -0.3520  0.1605
 1592SOL     OW 5674   6.856   1.427   4.720  0.0124 -0.0291  0.2310
 1592SOL    HW1 5675   6.868   1.436   4.819  1.3291 -0.2719  0.1098
 1592SOL    HW2 5676   6.758   1.429   4.698 -0.4283 -1.9921  1.7277
 1593SOL     OW 5677   1.314   1.774   0.161  0.3102  0.3501 -0.2408
 1593SOL    HW1 5678   1.388   1.772   0.228  0.5034  2.3640 -0.3352
 1593SOL    HW2 5679   1.339   1.718   0.082 -0.4229 -3.0627  1.7708
 1594SOL     OW 5680   3.248   4.626   1.312  0.2275 -0.2510 -0.1620
 1594SOL    HW1 5681   3.241   4.710   1.257  0.7320 -0.7259 -0.9834
 1594SOL    HW2 5682   3.194   4.636   1.395  0.7096  1.0943  0.0181
 1595SOL     OW 5683   4.602   5.460   3.134 -0.3339 -0.5734 -0.4969
 1595SOL    HW1 5684   4.521   5.517   3.122  0.3303  0.9100  1.5251
 1595SOL    HW2 5685   4.595   5.379   3.075 -2.8194 -0.0440 -1.0443
 1596SOL     OW 5686   6.117   3.233   5.586  0.3295 -0.2668  0.7249
 1596SOL    HW1 5687   6.133   3.209   5.490  1.3648  0.4169  0.7077
 1596SOL    HW2 5688   6.178   3.307   5.612 -0.2542 -0.1429  1.8004
 1597SOL     OW 5689   6.457   6.194   0.123 -0.0385  0.1067 -0.1889
 1597SOL    HW1 5690   6.521   6.227   0.192 -0.0719 -0.1687 -0.0286
 1597SOL    HW2 5691   6.365   6.189   0.161 -0.0642 -0.0038 -0.2634
 1598SOL     OW 5692   1.285   0.366   6.137  0.1373  0.1653  0.3787
 1598SOL    HW1 5693   1.321   0.430   6.205 -0.6968 -0.3306  1.3257
 1598SOL    HW2 5694   1.282   0.274   6.178 -0.8470 -0.0509 -0.1638
 1599SOL     OW 5695   0.181   1.557   6.689 -0.1454 -0.4974 -0.0761
 1599SOL    HW1 5696   0.141   1.644   6.660  1.6884  0.4700  0.1340
 1599SOL    HW2 5697   0.262   1.537   6.634  0.3638 -1.2690  0.9178
 1600SOL     OW 5698   5.575   3.052   4.633 -0.5158 -0.0887 -0.0693
 1600SOL    HW1 5699   5.650   3.018   4.690 -0.3434 -0.9262 -0.7822
 1600SOL    HW2 5700   5.526   3.124   4.683  0.1932 -0.1645  0.7671
 1601SOL     OW 5701   6.533   1.685   4.017 -0.2734  0.1653  0.5807
 1601SOL    HW1 5702   6.439   1.662   3.991 -0.4140  0.2623  0.9960
 1601SOL    HW2 5703   6.573   1.607   4.066 -0.4626  0.4741  1.2407
 1602SOL     OW 5704   4.835   5.954   0.426  0.0602 -0.1759  0.1558
 1602SOL    HW1 5705   4.839   5.999   0.515  1.1507  0.6937 -0.3109
 1602SOL    HW2 5706   4.753   5.896   0.421 -2.1203  2.6744  0.3401
 1603SOL     OW 5707   0.107   0.617   2.044 -0.6242 -0.0399 -0.2425
 1603SOL    HW1 5708   0.173   0.663   1.985 -3.2981  1.8713 -1.9511
 1603SOL    HW2 5709   0.128   0.638   2.140  0.4442  1.6695 -0.8014
 1604SOL     OW 5710   1.215   4.666   1.765  0.4215  0.7580 -0.3661
 1604SOL    HW1 5711   1.237   4.758   1.797 -1.4966  0.6130  1.5943
 1604SOL    HW2 5712   1.204   4.605   1.843 -1.1795 -0.4487 -1.4629
 1605SOL     OW 5713   3.529   2.921   5.369  0.5681  0.3393 -0.1963
 1605SOL    HW1 5714   3.569   2.991   5.429 -1.5212  0.4590  1.1946
 1605SOL    HW2 5715   3.461   2.964   5.310  2.0157  0.0661 -2.1439
 1606SOL     OW 5716   3.804   5.987   3.153 -0.3133 -0.3528 -0.3388
 1606SOL    HW1 5717   3.790   6.086   3.144  0.1531 -0.3483 -1.1328
 1606SOL    HW2 5718   3.900   5.967   3.168 -0.3715 -0.6957 -0.3986
 1607SOL     OW 5719   0.625   4.787   4.990 -0.0491 -0.3715 -0.0598
 1607SOL    HW1 5720   0.712   4.794   5.040  0.0245  0.7736 -0.3138
 1607SOL    HW2 5721   0.643   4.799   4.892 -0.2142 -2.4192 -0.3794
 1608SOL     OW 5722   1.210   2.334   5.078  0.1389 -0.4250 -0.5919
 1608SOL    HW1 5723   1.305   2.363   5.064 -0.2987  0.9610 -0.7287
 1608SOL    HW2 5724   1.148   2.396   5.032 -0.9026 -0.7354  0.3445
 1609SOL     OW 5725   2.134   6.872   5.301 -0.6167  0.1716  0.2461
 1609SOL    HW1 5726   2.201   6.946   5.292 -1.6939  1.0684 -0.6010
 1609SOL    HW2 5727   2.182   6.785   5.309  0.7189  1.0098  2.2335
 1610SOL     OW 5728   6.230   1.253   5.285 -0.1531  0.1745 -0.6674
 1610SOL    HW1 5729   6.219   1.183   5.356 -0.1810  1.5555  0.7661
 1610SOL    HW2 5730   6.325   1.285   5.285 -0.5927  1.5666  0.1536
 1611SOL     OW 5731   5.232   6.294   5.259  0.9508 -0.2825 -0.2594
 1611SOL    HW1 5732   5.312   6.344   5.226  2.0993 -1.4388  0.6780
 1611SOL    HW2 5733   5.153   6.356   5.261  2.2083  1.3894  0.4413
 1612SOL     OW 5734   6.285   2.959   2.769 -0.4490 -0.2750  0.0587
 1612SOL    HW1 5735   6.284   3.041   2.712 -2.4615 -1.1864 -1.3219
 1612SOL    HW2 5736   6.379   2.928   2.780  0.0248 -0.5518 -3.5473
 1613SOL     OW 5737   5.843   0.739   5.721  0.6342 -0.3920  1.4068
 1613SOL    HW1 5738   5.917   0.777   5.776  1.8728 -2.1319  1.0410
 1613SOL    HW2 5739   5.759   0.736   5.775  0.6231  2.1563  1.6439
 1614SOL     OW 5740   0.360   3.717   1.631 -0.6130 -0.0791 -0.4905
 1614SOL    HW1 5741   0.414   3.748   1.552 -1.4135  0.1624 -0.9501
 1614SOL    HW2 5742   0.385   3.623   1.653  0.4307  0.2182 -0.3124
 1615SOL     OW 5743   4.673   1.875   5.730  0.4361  0.2316  0.4015
 1615SOL    HW1 5744   4.751   1.885   5.668  0.6490  1.8696  0.8800
 1615SOL    HW2 5745   4.626   1.963   5.739 -0.6765 -0.4108  1.1600
 1616SOL     OW 5746   1.573   0.810   2.188  0.2705 -0.1041  1.3478
 1616SOL    HW1 5747   1.529   0.769   2.269 -1.4172  0.4790  0.7658
 1616SOL    HW2 5748   1.502   0.842   2.125  1.5702  0.5122  0.1708
 1617SOL     OW 5749   1.673   6.279   5.337  0.5986 -0.0463  0.0495
 1617SOL    HW1 5750   1.769   6.257   5.356  1.1136  0.9506 -1.2601
 1617SOL    HW2 5751   1.656   6.272   5.239 -0.6434 -0.0634  0.2506
 1618SOL     OW 5752   5.215   4.974   0.211 -0.2494 -0.1877 -0.3921
 1618SOL    HW1 5753   5.214   5.026   0.125 -0.2976 -1.9129 -1.5032
 1618SOL    HW2 5754   5.162   5.022   0.280  0.5260  1.6984 -1.0398
 1619SOL     OW 5755   4.753   6.139   2.089 -0.2251 -0.6756  0.9634
 1619SOL    HW1 5756   4.671   6.150   2.032 -0.2868  0.0477  1.1813
 1619SOL    HW2 5757   4.804   6.059   2.058 -0.5932 -0.6668  0.3056
 1620SOL     OW 5758   4.645   4.377   6.778 -0.3184  0.5787 -0.3996
 1620SOL    HW1 5759   4.687   4.464   6.755 -0.0688  1.6880  3.4632
 1620SOL    HW2 5760   4.715   4.312   6.806 -0.7358  0.7977  1.2940
 1621SOL     OW 5761   5.979   2.093   0.177  0.1259 -0.2543  0.4253
 1621SOL    HW1 5762   5.923   2.033   0.235  0.9862 -1.6105 -0.0879
 1621SOL    HW2 5763   6.027   2.037   0.110  1.0578  1.0318  0.0006
 1622SOL     OW 5764   3.309   0.257   5.637  0.5713 -0.0209 -0.0819
 1622SOL    HW1 5765   3.244   0.252   5.561  0.0203  1.7378  0.2185
 1622SOL    HW2 5766   3.299   0.345   5.683  0.9288 -0.9931  2.0018
 1623SOL     OW 5767   2.966   6.168   2.684  0.6200  0.2081  0.5332
 1623SOL    HW1 5768   2.980   6.265   2.663 -0.7561  0.7124  1.8121
 1623SOL    HW2 5769   2.910   6.126   2.612  1.1430  0.3704  0.0229
 1624SOL     OW 5770   6.718   3.290   3.049 -0.1814  0.4749  0.9473
 1624SOL    HW1 5771   6.754   3.258   3.136 -0.1960  1.3058  1.2678
 1624SOL    HW2 5772   6.724   3.216   2.981  1.1036  0.2433  1.2764
 1625SOL     OW 5773   6.628   3.782   2.740  0.3879 -0.0056 -0.7209
 1625SOL    HW1 5774   6.630   3.682   2.730  0.3161 -0.0745 -0.0811
 1625SOL    HW2 5775   6.601   3.823   2.654 -0.4427 -0.5849 -0.7503
 1626SOL     OW 5776   6.006   2.724   3.874  0.0237 -0.0118  0.3864
 1626SOL    HW1 5777   6.002   2.651   3.805  1.6124 -0.8900  1.1534
 1626SOL    HW2 5778   6.021   2.683   3.964 -0.5642  1.1977  1.0479
 1627SOL     OW 5779   5.285   0.165   6.231  0.2288 -0.4365 -0.7830
 1627SOL    HW1 5780   5.201   0.156   6.285 -0.6663  0.9607 -1.8509
 1627SOL    HW2 5781   5.289   0.092   6.163  0.7496 -1.4873  0.3423
 1628SOL     OW 5782   2.158   2.901   3.488  0.5467  0.0785  0.6803
 1628SOL    HW1 5783   2.164   2.971   3.560  2.1359  0.8283 -0.1183
 1628SOL    HW2 5784   2.133   2.944   3.401  0.5560 -0.5060  0.3838
 1629SOL     OW 5785   2.443   5.628   5.040  0.0265  1.1030 -0.2987
 1629SOL    HW1 5786   2.510   5.702   5.042  0.1801  1.0108 -1.4134
 1629SOL    HW2 5787   2.419   5.607   4.945 -0.9930  0.6026  0.0525
 1630SOL     OW 5788   3.171   0.447   5.173 -0.1214  0.2258 -0.4970
 1630SOL    HW1 5789   3.268   0.449   5.198 -0.5209 -0.6862  1.2098
 1630SOL    HW2 5790   3.121   0.512   5.230 -0.9780 -1.5532  0.8490
 1631SOL     OW 5791   6.433   5.041   4.329 -0.7663  0.1163 -0.1627
 1631SOL    HW1 5792   6.477   4.963   4.286 -0.7876 -0.0499  0.1162
 1631SOL    HW2 5793   6.499   5.115   4.340 -0.8862  0.3474 -0.9460
 1632SOL     OW 5794   5.298   4.358   1.778  0.3072  0.2177  0.4702
 1632SOL    HW1 5795   5.243   4.363   1.695 -0.5280 -5.0048  0.4163
 1632SOL    HW2 5796   5.393   4.378   1.756 -0.2519  1.3027 -1.1668
 1633SOL     OW 5797   4.212   1.188   0.269 -0.0374  0.0680  0.2001
 1633SOL    HW1 5798   4.131   1.196   0.328  0.4820  0.0285  0.9274
 1633SOL    HW2 5799   4.188   1.217   0.177 -1.1135 -0.7263  0.1970
 1634SOL     OW 5800   6.431   1.549   6.136 -0.5704  0.6239 -0.0865
 1634SOL    HW1 5801   6.455   1.625   6.196 -0.7051  2.3811 -2.1515
 1634SOL    HW2 5802   6.505   1.482   6.137  0.1845  1.4408  0.7070
 1635SOL     OW 5803   6.828   4.068   2.460  0.3006  0.1858  0.1878
 1635SOL    HW1 5804   6.869   3.984   2.424  0.0597 -0.3182  1.0584
 1635SOL    HW2 5805   6.884   4.103   2.535 -0.9129 -0.6120  1.5157
 1636SOL     OW 5806   6.242   6.415   2.451 -0.1662  0.4074  0.0025
 1636SOL    HW1 5807   6.293   6.359   2.516  2.3498  2.5250 -0.0003
 1636SOL    HW2 5808   6.253   6.378   2.359 -0.1806 -0.1729  0.2296
 1637SOL     OW 5809   1.979   4.240   1.087 -0.3886  0.2212  0.4412
 1637SOL    HW1 5810   2.054   4.197   1.138 -0.9075  0.6199  1.5820
 1637SOL    HW2 5811   1.993   4.339   1.087 -0.0673  0.1889 -0.7556
 1638SOL     OW 5812   3.487   5.659   1.845  0.5639  0.6024  0.0473
 1638SOL    HW1 5813   3.546   5.738   1.826  1.4929  0.5240  2.3143
 1638SOL    HW2 5814   3.407   5.688   1.897 -0.6860  0.4597 -1.7038
 1639SOL     OW 5815   6.529   5.498   5.059 -0.3954  0.4482  0.7650
 1639SOL    HW1 5816   6.529   5.553   4.976  0.4447  1.1566  1.2217
 1639SOL    HW2 5817   6.591   5.539   5.127 -0.9498 -0.1981  1.6854
 1640SOL     OW 5818   3.226   6.867   3.537 -0.0499 -0.1774  0.6571
 1640SOL    HW1 5819   3.151   6.810   3.570  0.0642 -0.0715  1.1111
 1640SOL    HW2 5820   3.209   6.894   3.442 -0.4202 -0.4263  0.6528
 1641SOL     OW 5821   6.926   3.268   6.354  0.4869  0.1321  0.3816
 1641SOL    HW1 5822   7.007   3.209   6.356  1.5745  1.5504  1.9798
 1641SOL    HW2 5823   6.853   3.227   6.407 -0.2299 -1.5813 -1.7932
 1642SOL     OW 5824   2.381   0.772   2.173  0.2636  0.1988  0.3286
 1642SOL    HW1 5825   2.299   0.767   2.229  0.5563  1.1606  0.8521
 1642SOL    HW2 5826   2.437   0.690   2.188  0.5870  0.6642  1.8424
 1643SOL     OW 5827   1.689   5.249   6.689 -0.3183 -0.3234 -0.2955
 1643SOL    HW1 5828   1.665   5.244   6.786  0.3595 -0.5594 -0.1325
 1643SOL    HW2 5829   1.682   5.344   6.658  1.9189  0.2271  0.6568
 1644SOL     OW 5830   2.806   1.053   3.990 -0.4073 -0.6209 -0.7084
 1644SOL    HW1 5831   2.749   1.054   4.072 -0.7970 -1.2321 -0.9644
 1644SOL    HW2 5832   2.785   1.134   3.934 -0.9114 -0.7555 -0.7229
 1645SOL     OW 5833   1.383   2.712   3.652 -0.1251 -0.2513 -0.5025
 1645SOL    HW1 5834   1.328   2.693   3.571 -0.6394 -0.4920 -0.1044
 1645SOL    HW2 5835   1.445   2.635   3.669 -0.1533 -0.2863 -0.5588
 1646SOL     OW 5836   3.259   0.564   1.820  0.6123  0.0449  0.1387
 1646SOL    HW1 5837   3.334   0.620   1.786  1.1328  0.3203  1.6392
 1646SOL    HW2 5838   3.295   0.491   1.878 -0.2498 -0.0675  0.5601
 1647SOL     OW 5839   4.740   0.157   5.559 -0.4412 -0.0822  0.5389
 1647SOL    HW1 5840   4.803   0.110   5.498  0.0044 -0.2797  1.1389
 1647SOL    HW2 5841   4.716   0.097   5.635  1.3602  1.1313  2.1624
 1648SOL     OW 5842   5.873   2.287   4.562 -0.4148 -0.1165  0.3828
 1648SOL    HW1 5843   5.939   2.213   4.551 -0.8234 -0.5040  0.5275
 1648SOL    HW2 5844   5.814   2.268   4.641  0.2547  0.9471  1.1829
 1649SOL     OW 5845   1.841   2.116   4.540 -0.7243 -0.7091  0.3365
 1649SOL    HW1 5846   1.792   2.157   4.617  2.7273  2.9408  0.9490
 1649SOL    HW2 5847   1.938   2.106   4.564 -0.1145 -2.6678 -2.4583
 1650SOL     OW 5848   0.233   4.032   6.078  0.3975 -0.1807  0.6711
 1650SOL    HW1 5849   0.319   4.037   6.130  0.8621 -1.5851  0.0925
 1650SOL    HW2 5850   0.252   4.047   5.981 -0.1079  0.0274  0.6000
 1651SOL     OW 5851   6.050   2.563   2.657 -0.2779 -0.2467 -0.2112
 1651SOL    HW1 5852   6.060   2.648   2.708 -1.4390  0.7082 -1.4705
 1651SOL    HW2 5853   6.043   2.486   2.720 -0.7583  0.7759  1.0195
 1652SOL     OW 5854   4.891   2.146   6.128 -0.3055  0.6452 -0.5075
 1652SOL    HW1 5855   4.897   2.245   6.111 -0.0952  0.8711  0.7439
 1652SOL    HW2 5856   4.839   2.131   6.212  1.0953 -0.2122  0.2479
 1653SOL     OW 5857   0.537   1.836   6.138  0.1315 -0.4554 -0.2577
 1653SOL    HW1 5858   0.451   1.848   6.088  0.2879  3.3886  0.1377
 1653SOL    HW2 5859   0.614   1.850   6.077  0.4585 -1.6248 -0.1313
 1654SOL     OW 5860   0.827   5.402   2.214 -0.4412 -0.1253  0.3131
 1654SOL    HW1 5861   0.846   5.304   2.225 -0.2557 -0.1822 -0.4253
 1654SOL    HW2 5862   0.870   5.453   2.288 -1.7717 -0.7217  1.5642
 1655SOL     OW 5863   2.511   4.635   5.756 -0.4418 -0.2994 -0.2994
 1655SOL    HW1 5864   2.501   4.735   5.758 -2.0076 -0.4268 -0.4311
 1655SOL    HW2 5865   2.429   4.593   5.796  0.6578 -1.5199  0.7562
 1656SOL     OW 5866   6.474   3.690   6.820  0.1524  0.3699  0.5459
 1656SOL    HW1 5867   6.504   3.665   6.912  1.7691  0.2206  0.0042
 1656SOL    HW2 5868   6.432   3.610   6.776  2.0592 -0.4457  0.1149
 1657SOL     OW 5869   3.852   4.942   5.112 -0.0553  0.0160 -0.5123
 1657SOL    HW1 5870   3.875   4.846   5.127 -0.2568  0.0033 -0.2791
 1657SOL    HW2 5871   3.765   4.963   5.156 -0.6794 -0.0222 -1.7027
 1658SOL     OW 5872   5.777   6.037   2.348 -0.8064 -0.0235  0.3835
 1658SOL    HW1 5873   5.745   5.961   2.405 -0.6505 -0.2202  0.2145
 1658SOL    HW2 5874   5.850   6.086   2.396  0.3158 -1.0586 -0.2151
 1659SOL     OW 5875   3.720   4.482   5.765 -0.1927 -0.0350 -0.0403
 1659SOL    HW1 5876   3.692   4.391   5.797  0.3993 -0.6405 -1.1840
 1659SOL    HW2 5877   3.662   4.509   5.688 -0.2827  0.5198  0.2151
 1660SOL     OW 5878   1.815   2.958   3.692  0.3838  0.0124 -0.2860
 1660SOL    HW1 5879   1.803   2.910   3.779  1.6336 -0.2375 -0.2325
 1660SOL    HW2 5880   1.735   2.942   3.634 -0.4119  0.0832  0.7642
 1661SOL     OW 5881   1.598   2.059   0.701  0.1168  0.3464  0.0725
 1661SOL    HW1 5882   1.505   2.023   0.709  0.9217 -1.7933  0.4508
 1661SOL    HW2 5883   1.596   2.159   0.704 -2.2725  0.3872 -1.3633
 1662SOL     OW 5884   0.541   4.420   6.954 -0.4332 -0.6234  0.5210
 1662SOL    HW1 5885   0.605   4.452   6.884  0.8225 -1.1179  1.4095
 1662SOL    HW2 5886   0.527   4.322   6.944  0.2385 -0.8092  1.3287
 1663SOL     OW 5887   3.312   3.807   3.270 -0.4178  0.3848 -0.2089
 1663SOL    HW1 5888   3.389   3.869   3.279 -0.5826  0.6698 -0.7277
 1663SOL    HW2 5889   3.338   3.729   3.213  0.6657 -1.4866  2.6009
 1664SOL     OW 5890   0.083   6.138   4.118  0.3875  0.3553 -0.4213
 1664SOL    HW1 5891   0.100   6.236   4.116  1.2163  0.2406  0.1940
 1664SOL    HW2 5892   0.086   6.101   4.025 -2.3093  1.2606 -0.9408
 1665SOL     OW 5893   0.787   0.273   5.234 -0.4458 -0.2422 -0.4223
 1665SOL    HW1 5894   0.749   0.277   5.142 -0.3751 -0.5967 -0.4678
 1665SOL    HW2 5895   0.787   0.365   5.274 -1.6686 -0.2800 -0.2972
 1666SOL     OW 5896   0.607   5.178   5.226 -0.0910  0.5761 -0.2069
 1666SOL    HW1 5897   0.643   5.218   5.141  1.3918 -1.3236 -0.5323
 1666SOL    HW2 5898   0.543   5.105   5.204 -0.2217  0.5326  0.3115
 1667SOL     OW 5899   6.490   5.262   1.470  0.0631 -0.0564  0.9559
 1667SOL    HW1 5900   6.462   5.212   1.388  0.4767  1.9232 -0.4796
 1667SOL    HW2 5901   6.409   5.288   1.522 -0.6127  1.9872 -0.9424
 1668SOL     OW 5902   1.387   0.346   0.334 -0.0407 -0.0629  0.6227
 1668SOL    HW1 5903   1.288   0.349   0.347 -0.5213 -2.6028 -1.5445
 1668SOL    HW2 5904   1.431   0.305   0.414 -0.8012  0.4745  1.3233
 1669SOL     OW 5905   1.838   4.598   5.100  0.8166 -0.2758  0.1586
 1669SOL    HW1 5906   1.830   4.640   5.010  3.3565  0.7338  0.3245
 1669SOL    HW2 5907   1.805   4.662   5.170 -0.8623 -0.9420  0.0386
 1670SOL     OW 5908   6.286   1.239   1.985 -0.5552  0.2331  0.1339
 1670SOL    HW1 5909   6.249   1.152   2.016 -0.2290 -0.3346 -1.0408
 1670SOL    HW2 5910   6.352   1.273   2.052  0.3427 -1.1056 -0.0357
 1671SOL     OW 5911   4.742   2.152   0.872  0.6366  0.2430 -0.4511
 1671SOL    HW1 5912   4.731   2.095   0.953  0.9854 -1.5585 -1.6217
 1671SOL    HW2 5913   4.666   2.216   0.866 -0.3932 -0.8782  0.2936
 1672SOL     OW 5914   1.799   3.781   6.129  0.0264 -0.1191 -0.4924
 1672SOL    HW1 5915   1.730   3.851   6.149  1.5795  1.2566  0.3105
 1672SOL    HW2 5916   1.817   3.728   6.212  0.8504  0.3944 -0.3333
 1673SOL     OW 5917   3.620   3.339   0.148 -0.2292  0.5316  0.4808
 1673SOL    HW1 5918   3.635   3.435   0.125  0.7185  0.9311  2.5374
 1673SOL    HW2 5919   3.541   3.331   0.209 -1.9082 -0.3502 -1.6655
 1674SOL     OW 5920   4.514   1.110   4.773  0.3623 -0.0380 -0.3867
 1674SOL    HW1 5921   4.523   1.169   4.693 -1.2114  0.3206 -0.3221
 1674SOL    HW2 5922   4.454   1.033   4.752  0.9842 -0.6608  0.0645
 1675SOL     OW 5923   3.285   6.141   1.184 -0.4805 -0.1591 -0.0426
 1675SOL    HW1 5924   3.222   6.101   1.251 -1.1643 -1.0882 -1.2030
 1675SOL    HW2 5925   3.276   6.092   1.097  0.5511  0.8786 -0.7523
 1676SOL     OW 5926   3.230   5.892   3.442  0.0364  0.6006 -0.3783
 1676SOL    HW1 5927   3.254   5.911   3.537 -1.4847  0.8667 -0.0059
 1676SOL    HW2 5928   3.144   5.840   3.440  0.6299 -0.3705 -1.5899
 1677SOL     OW 5929   2.302   4.224   1.138 -0.2540  0.2298 -0.6177
 1677SOL    HW1 5930   2.382   4.196   1.084 -0.1061  0.2898 -0.4284
 1677SOL    HW2 5931   2.331   4.252   1.229 -0.6185 -0.8702 -0.1538
 1678SOL     OW 5932   4.870   4.517   4.572  0.0360  0.2221  0.2273
 1678SOL    HW1 5933   4.795   4.462   4.536  1.3672 -0.8731 -0.9626
 1678SOL    HW2 5934   4.920   4.464   4.641  0.3156  0.5720  0.2947
 1679SOL     OW 5935   4.585   2.065   4.049 -0.8126  0.3716 -0.9702
 1679SOL    HW1 5936   4.500   2.030   4.009 -2.9833  0.7250  2.8438
 1679SOL    HW2 5937   4.639   1.988   4.084 -0.0503  0.2266 -2.3994
 1680SOL     OW 5938   5.044   5.445   6.847  0.1758 -0.0042  0.3911
 1680SOL    HW1 5939   5.070   5.427   6.752  1.1407  0.0909  0.6281
 1680SOL    HW2 5940   5.126   5.463   6.901 -0.2546 -1.3056  1.5135
 1681SOL     OW 5941   1.049   1.395   1.755 -0.1943 -0.0534  0.7124
 1681SOL    HW1 5942   1.137   1.396   1.708 -0.5819  0.5889 -0.0265
 1681SOL    HW2 5943   1.035   1.483   1.802 -0.6135  0.0087  0.4807
 1682SOL     OW 5944   1.616   5.180   6.318  0.5264  0.1341 -0.4473
 1682SOL    HW1 5945   1.616   5.145   6.225  0.8130 -1.1798  0.0141
 1682SOL    HW2 5946   1.710   5.184   6.352  0.3498 -0.4477  0.1403
 1683SOL     OW 5947   5.089   6.156   2.528  0.5223 -0.4440 -0.4976
 1683SOL    HW1 5948   5.005   6.145   2.475  0.8106 -1.0590 -0.8351
 1683SOL    HW2 5949   5.077   6.231   2.594 -0.3707 -0.6878 -0.3674
 1684SOL     OW 5950   5.721   2.053   0.032 -0.4093  0.1174 -0.4682
 1684SOL    HW1 5951   5.798   2.092   0.083 -0.0184 -0.0560 -0.9227
 1684SOL    HW2 5952   5.723   1.953   0.040 -1.5878  0.1733  0.9563
 1685SOL     OW 5953   1.385   5.930   0.047  0.3704 -0.0892 -0.4039
 1685SOL    HW1 5954   1.396   5.860  -0.023 -0.8923 -1.6756  0.9057
 1685SOL    HW2 5955   1.293   5.926   0.085  0.7014  1.3934  0.6642
 1686SOL     OW 5956   1.708   3.813   2.296  0.1899 -0.1351 -0.0298
 1686SOL    HW1 5957   1.790   3.831   2.351  0.6049  1.1345 -1.0099
 1686SOL    HW2 5958   1.732   3.814   2.199 -0.8454 -0.6017 -0.3026
 1687SOL     OW 5959   6.596   5.006   5.454 -0.1101 -0.1549 -0.3982
 1687SOL    HW1 5960   6.528   4.939   5.485 -0.2865 -0.8443 -2.1345
 1687SOL    HW2 5961   6.668   4.959   5.404  1.6375  0.5850  1.3030
 1688SOL     OW 5962   4.241   0.256   2.519  0.0614  0.9520  0.1087
 1688SOL    HW1 5963   4.305   0.223   2.588  0.6233 -0.4639 -1.0185
 1688SOL    HW2 5964   4.285   0.329   2.466  1.3637 -0.8643 -1.4962
 1689SOL     OW 5965   3.113   1.402   2.207 -0.1639  0.4887  0.7574
 1689SOL    HW1 5966   3.205   1.440   2.197  0.7278 -1.5941  0.4175
 1689SOL    HW2 5967   3.086   1.403   2.304  0.7638 -0.0383  1.0304
 1690SOL     OW 5968   3.584   6.850   0.920  0.1719  0.2545  0.6829
 1690SOL    HW1 5969   3.640   6.780   0.877  0.8172  1.1378  0.0547
 1690SOL    HW2 5970   3.524   6.807   0.988 -0.1908 -1.0417 -0.4002
 1691SOL     OW 5971   6.159   0.142   5.513 -0.2046 -0.1497  0.3044
 1691SOL    HW1 5972   6.110   0.127   5.599  0.8556  1.5165  1.2423
 1691SOL    HW2 5973   6.240   0.198   5.529 -0.1411  0.4849 -1.8314
 1692SOL     OW 5974   4.382   5.203   0.282 -0.0815  0.1451 -0.2044
 1692SOL    HW1 5975   4.392   5.273   0.212 -0.7955 -0.4995 -0.9638
 1692SOL    HW2 5976   4.286   5.174   0.287  0.0588 -0.2145  0.6518
 1693SOL     OW 5977   4.420   6.134   6.436  0.2613 -0.2886  0.1468
 1693SOL    HW1 5978   4.482   6.193   6.487  2.5678 -1.8433 -0.6849
 1693SOL    HW2 5979   4.366   6.078   6.499  1.2704 -0.4170  0.9211
 1694SOL     OW 5980   6.378   5.545   3.510 -0.3841  0.0410 -0.0407
 1694SOL    HW1 5981   6.377   5.635   3.464  0.7229  0.4816  0.7520
 1694SOL    HW2 5982   6.420   5.555   3.600 -1.6287 -1.0066  0.6772
 1695SOL     OW 5983   5.234   6.200   0.379  0.1001  0.3335 -0.0756
 1695SOL    HW1 5984   5.154   6.158   0.337  0.0350  0.6558 -0.2810
 1695SOL    HW2 5985   5.230   6.189   0.478  0.1395 -0.2318 -0.1361
 1696SOL     OW 5986   3.184   2.824   0.838 -0.1662 -0.2378  0.4751
 1696SOL    HW1 5987   3.249   2.813   0.913 -1.5520 -1.2922  1.5702
 1696SOL    HW2 5988   3.168   2.735   0.795 -1.8005 -0.2335  1.0366
 1697SOL     OW 5989   5.676   6.409   3.049  0.0710  0.0786 -0.0005
 1697SOL    HW1 5990   5.686   6.311   3.065  0.2152  0.1853  0.5600
 1697SOL    HW2 5991   5.693   6.429   2.952 -1.0355 -0.5970 -0.3542
 1698SOL     OW 5992   3.820   1.978   2.375 -0.0464  0.0492 -0.0976
 1698SOL    HW1 5993   3.752   1.920   2.419  0.6235  0.4937  1.5958
 1698SOL    HW2 5994   3.776   2.034   2.305 -1.0808 -0.9027 -0.2394
 1699SOL     OW 5995   1.561   2.467   2.713  0.2181  1.0017  0.0842
 1699SOL    HW1 5996   1.614   2.417   2.645  0.5004  1.3134  0.0687
 1699SOL    HW2 5997   1.557   2.415   2.798  1.8555  1.6503  0.5818
 1700SOL     OW 5998   3.168   3.445   2.709  0.0054 -0.1067 -0.1683
 1700SOL    HW1 5999   3.186   3.413   2.802  1.1491  1.0920  0.0553
 1700SOL    HW2 6000   3.159   3.545   2.709 -0.9033 -0.1685 -1.2136
 1701SOL     OW 6001   1.461   0.644   2.354  0.2092  0.1754 -0.4717
 1701SOL    HW1 6002   1.458   0.563   2.296 -0.2937  0.1394 -0.4068
 1701SOL    HW2 6003   1.480   0.617   2.448  0.3682  0.1639 -0.5082
 1702SOL     OW 6004   1.332   2.012   0.712  0.1912  0.3637 -0.3090
 1702SOL    HW1 6005   1.261   2.071   0.751 -0.1897  0.0246 -0.4788
 1702SOL    HW2 6006   1.350   2.040   0.618  0.7083  0.8206 -0.0879
 1703SOL     OW 6007   6.399   5.149   6.722 -0.1493  0.0308 -0.0927
 1703SOL    HW1 6008   6.416   5.233   6.670  0.8024 -0.0877  0.0038
 1703SOL    HW2 6009   6.475   5.134   6.786 -0.2888 -0.9233 -0.1407
 1704SOL     OW 6010   3.816   4.665   1.707 -0.0739  0.4431 -0.0502
 1704SOL    HW1 6011   3.754   4.726   1.756 -1.6149 -2.1535  1.4572
 1704SOL    HW2 6012   3.765   4.616   1.637  0.8101 -0.1466 -0.2873
 1705SOL     OW 6013   5.494   2.406   4.281 -0.3539 -0.1211 -0.3054
 1705SOL    HW1 6014   5.450   2.368   4.362 -0.4263  0.1609 -0.2114
 1705SOL    HW2 6015   5.440   2.482   4.245 -0.6788 -0.6827 -1.0268
 1706SOL     OW 6016   2.830   5.818   5.349 -0.2325  0.1394 -0.0157
 1706SOL    HW1 6017   2.779   5.732   5.354 -0.5413  0.2746 -0.6872
 1706SOL    HW2 6018   2.872   5.825   5.259  0.7453  0.1629  0.4350
 1707SOL     OW 6019   2.498   2.986   0.322 -0.2512 -0.3685 -0.4191
 1707SOL    HW1 6020   2.409   2.958   0.287 -0.7356 -1.1736  1.3652
 1707SOL    HW2 6021   2.511   2.951   0.414  1.1312  1.3487  0.1062
 1708SOL     OW 6022   3.042   1.390   6.561 -0.3099 -0.0550 -0.2653
 1708SOL    HW1 6023   3.092   1.306   6.581 -1.1154 -0.9240 -1.7566
 1708SOL    HW2 6024   2.965   1.370   6.500 -0.6567  1.7349 -0.4791
 1709SOL     OW 6025   0.219   6.076   6.968  0.9270 -0.5734 -0.1721
 1709SOL    HW1 6026   0.177   6.012   7.032 -0.1521  0.3408  0.0598
 1709SOL    HW2 6027   0.306   6.108   7.006  1.1941 -1.4422 -0.0263
 1710SOL     OW 6028   1.703   6.787   0.739 -0.1529 -0.4568  0.3232
 1710SOL    HW1 6029   1.637   6.851   0.777 -1.7631 -1.7254 -0.2264
 1710SOL    HW2 6030   1.685   6.695   0.774  1.4079 -0.8179  0.2428
 1711SOL     OW 6031   0.518   5.554   6.865 -0.1057 -0.3684  0.1482
 1711SOL    HW1 6032   0.554   5.558   6.772 -0.8715  2.4317 -0.1219
 1711SOL    HW2 6033   0.580   5.600   6.928 -1.5580  1.6575  0.2096
 1712SOL     OW 6034   0.289   3.838   2.151  0.0407  0.5696  0.1237
 1712SOL    HW1 6035   0.284   3.811   2.247  1.1874 -1.6504 -0.3788
 1712SOL    HW2 6036   0.384   3.854   2.125 -0.2308  0.9351 -0.7175
 1713SOL     OW 6037   6.764   1.543   1.266  0.3628  0.0579 -0.2159
 1713SOL    HW1 6038   6.833   1.599   1.313  2.2697 -1.1170 -1.4775
 1713SOL    HW2 6039   6.739   1.466   1.325  0.0070  0.5692  0.3094
 1714SOL     OW 6040   2.754   5.145   5.399  0.0052 -0.1886  0.3338
 1714SOL    HW1 6041   2.825   5.092   5.351 -0.0274 -0.2277  0.3292
 1714SOL    HW2 6042   2.739   5.105   5.489 -0.1046 -0.2594  0.2840
 1715SOL     OW 6043   1.516   0.408   1.639  0.4807 -0.3134 -0.8435
 1715SOL    HW1 6044   1.601   0.436   1.595 -1.3833  3.2020 -2.5987
 1715SOL    HW2 6045   1.443   0.401   1.570 -1.0618 -1.6974  0.8017
 1716SOL     OW 6046   2.731   2.450   3.423 -0.2415 -0.3001 -0.3009
 1716SOL    HW1 6047   2.703   2.427   3.329 -0.6513 -1.7191  0.1404
 1716SOL    HW2 6048   2.753   2.366   3.472  0.7311  0.4965  0.6529
 1717SOL     OW 6049   0.894   0.778   5.827  0.1916  0.1841  0.1563
 1717SOL    HW1 6050   0.866   0.755   5.920  1.1184 -2.3367 -0.1177
 1717SOL    HW2 6051   0.970   0.844   5.830 -0.2027  0.6075  1.1361
 1718SOL     OW 6052   0.258   1.649   6.026  0.3723  0.2677  0.2003
 1718SOL    HW1 6053   0.230   1.634   5.932  0.5274  1.4614 -0.0448
 1718SOL    HW2 6054   0.268   1.560   6.072  0.9124 -0.3482 -1.0687
 1719SOL     OW 6055   6.539   4.548   6.901 -0.8020  0.0743 -0.4302
 1719SOL    HW1 6056   6.482   4.483   6.952  0.0647  0.1667  0.7096
 1719SOL    HW2 6057   6.636   4.529   6.919 -0.3958 -0.5468 -2.9048
 1720SOL     OW 6058   6.961   6.498   1.977 -0.3285 -0.6619 -0.0402
 1720SOL    HW1 6059   6.983   6.446   2.060  0.6627 -0.2887 -0.0572
 1720SOL    HW2 6060   7.028   6.570   1.964 -0.0905 -1.1132 -1.5203
 1721SOL     OW 6061   6.764   1.770   0.415  0.0363 -0.2045  0.4960
 1721SOL    HW1 6062   6.672   1.796   0.386 -0.2646 -0.2734  1.3793
 1721SOL    HW2 6063   6.813   1.730   0.337 -0.6469 -0.0915 -0.0010
 1722SOL     OW 6064   5.968   5.628   5.113 -0.1905  0.0015  0.1462
 1722SOL    HW1 6065   5.889   5.668   5.066  1.3218  0.2669 -2.3260
 1722SOL    HW2 6066   5.978   5.670   5.203 -1.6175  1.4942 -0.3425
 1723SOL     OW 6067   2.656   5.217   0.759 -0.7263  0.3508  0.6755
 1723SOL    HW1 6068   2.590   5.186   0.828  0.1482  0.3370  1.5292
 1723SOL    HW2 6069   2.683   5.311   0.778  0.4579 -0.0496  1.1335
 1724SOL     OW 6070   6.792   3.033   5.265  0.6470  0.1904 -0.1404
 1724SOL    HW1 6071   6.726   2.972   5.309  1.1936  0.6809  1.4225
 1724SOL    HW2 6072   6.787   3.021   5.165 -0.8483 -0.7289  0.0110
 1725SOL     OW 6073   6.729   4.125   3.874 -0.0089  0.1457 -0.0514
 1725SOL    HW1 6074   6.668   4.151   3.948  0.2224  0.1760  0.1287
 1725SOL    HW2 6075   6.704   4.176   3.791  1.0268  1.6772  0.5429
 1726SOL     OW 6076   1.656   3.352   6.069 -0.2408  0.4339 -0.2421
 1726SOL    HW1 6077   1.737   3.378   6.016  1.6662 -2.2875  1.0985
 1726SOL    HW2 6078   1.584   3.322   6.006  1.4893 -1.4533 -1.4719
 1727SOL     OW 6079   6.043   4.374   5.264 -0.0703  0.6591  0.0035
 1727SOL    HW1 6080   6.122   4.369   5.203  1.5568  0.2751  2.0480
 1727SOL    HW2 6081   6.073   4.364   5.359 -2.7036 -0.5299  0.7994
 1728SOL     OW 6082   2.098   0.186   5.472  0.0109  0.3342  0.2703
 1728SOL    HW1 6083   2.158   0.209   5.548  0.8854 -0.5034 -0.1438
 1728SOL    HW2 6084   2.143   0.209   5.386  1.5008 -3.7908 -0.2678
 1729SOL     OW 6085   6.740   5.936   1.200  0.3657 -0.9116 -0.1192
 1729SOL    HW1 6086   6.770   5.842   1.180  0.3848 -0.9167 -0.0681
 1729SOL    HW2 6087   6.640   5.938   1.206  0.4357 -1.3756  2.0151
 1730SOL     OW 6088   3.494   5.180   4.583  0.5988 -0.0150 -0.4212
 1730SOL    HW1 6089   3.588   5.151   4.604  0.1353  0.2900  2.4537
 1730SOL    HW2 6090   3.487   5.279   4.591  0.1166  0.0113 -1.0988
 1731SOL     OW 6091   6.318   2.956   6.528 -1.2528  0.0547 -0.0549
 1731SOL    HW1 6092   6.332   3.044   6.573 -2.1441 -0.9488  2.3738
 1731SOL    HW2 6093   6.222   2.929   6.538 -1.2128 -0.7851 -1.6183
 1732SOL     OW 6094   3.209   5.426   6.155 -0.8129  0.3988 -0.0312
 1732SOL    HW1 6095   3.204   5.412   6.056 -0.0887 -0.2524  0.0139
 1732SOL    HW2 6096   3.305   5.433   6.183 -0.9707 -0.4453  0.7585
 1733SOL     OW 6097   1.717   2.918   6.745 -0.6135 -0.6809  0.3947
 1733SOL    HW1 6098   1.630   2.870   6.736 -1.5762  0.9467  0.4435
 1733SOL    HW2 6099   1.730   2.979   6.667  0.5047 -0.9298  0.3740
 1734SOL     OW 6100   4.612   1.535   5.227 -0.9963  0.1966  0.5134
 1734SOL    HW1 6101   4.574   1.587   5.150 -1.1709  0.2947  0.6637
 1734SOL    HW2 6102   4.612   1.438   5.205  0.8345  0.3765 -0.4211
 1735SOL     OW 6103   1.516   0.642   3.775  0.1453  0.2299  0.0400
 1735SOL    HW1 6104   1.453   0.564   3.778 -0.1025  0.4239 -0.0651
 1735SOL    HW2 6105   1.559   0.654   3.864  0.6523 -0.4106 -0.1146
 1736SOL     OW 6106   5.238   3.437   2.158 -0.3382 -0.5001  0.4600
 1736SOL    HW1 6107   5.163   3.401   2.214 -0.8282 -2.0229 -1.0855
 1736SOL    HW2 6108   5.281   3.514   2.206 -5.3773  3.2671 -0.1842
 1737SOL     OW 6109   3.426   1.627   6.672 -0.2944 -0.4146  0.0349
 1737SOL    HW1 6110   3.421   1.687   6.593  0.9568 -2.1554 -1.4318
 1737SOL    HW2 6111   3.495   1.660   6.736  0.1007 -0.0777 -0.5630
 1738SOL     OW 6112   1.572   3.799   0.199  0.1260 -0.1032 -0.3363
 1738SOL    HW1 6113   1.594   3.796   0.101 -0.0266 -1.6632 -0.3473
 1738SOL    HW2 6114   1.620   3.725   0.245 -2.3578 -1.4428  0.2175
 1739SOL     OW 6115   3.320   3.280   4.451 -0.1076 -0.5283 -0.2270
 1739SOL    HW1 6116   3.393   3.305   4.515  2.0217 -2.1679 -1.8546
 1739SOL    HW2 6117   3.325   3.338   4.370 -1.0821 -0.2109 -0.0737
 1740SOL     OW 6118   1.002   5.800   0.685 -0.3331  0.6839 -0.6261
 1740SOL    HW1 6119   1.043   5.850   0.609 -2.0009  0.5592 -1.6510
 1740SOL    HW2 6120   0.913   5.840   0.707 -0.3989 -0.0240  0.4797
 1741SOL     OW 6121   3.156   0.863   3.829  0.5730 -0.0114  0.1737
 1741SOL    HW1 6122   3.066   0.862   3.870  0.4019  3.0399  0.1301
 1741SOL    HW2 6123   3.151   0.825   3.737 -1.2037  2.0292 -0.6563
 1742SOL     OW 6124   4.493   0.432   7.002 -0.6130 -0.1710 -0.0879
 1742SOL    HW1 6125   4.467   0.338   7.027  0.8666 -0.4508  0.4727
 1742SOL    HW2 6126   4.583   0.453   7.040 -0.0378  0.7923 -1.8721
 1743SOL     OW 6127   2.653   1.972   4.493 -0.0471 -0.1230 -0.3575
 1743SOL    HW1 6128   2.715   1.969   4.414 -0.5520 -0.2037 -0.7593
 1743SOL    HW2 6129   2.706   1.965   4.577  0.5268  0.2310 -0.6801
 1744SOL     OW 6130   1.562   4.998   5.300 -0.7663  0.4246 -0.5287
 1744SOL    HW1 6131   1.486   5.049   5.260 -0.0625  0.3704 -2.0003
 1744SOL    HW2 6132   1.636   5.061   5.324 -1.6577  0.6259  1.9562
 1745SOL     OW 6133   1.521   2.519   4.801  0.1838 -0.4413  0.4653
 1745SOL    HW1 6134   1.604   2.573   4.816 -0.1470 -0.2426  1.6847
 1745SOL    HW2 6135   1.482   2.543   4.713  0.4245  0.8160  0.6795
 1746SOL     OW 6136   0.738   5.641   1.550 -0.0038  0.0126  0.3191
 1746SOL    HW1 6137   0.667   5.587   1.596 -1.2282  0.5296 -0.9172
 1746SOL    HW2 6138   0.725   5.636   1.451 -0.2626  2.6817  0.1410
 1747SOL     OW 6139   4.969   2.410   2.587  0.2156 -0.0095 -0.1106
 1747SOL    HW1 6140   4.996   2.500   2.552 -1.3874  0.1239 -1.1066
 1747SOL    HW2 6141   4.900   2.420   2.658  0.1787 -0.4509 -0.0802
 1748SOL     OW 6142   4.737   4.947   2.157  0.3604 -0.1230  0.3353
 1748SOL    HW1 6143   4.641   4.975   2.150 -0.3023 -2.5671 -1.5104
 1748SOL    HW2 6144   4.746   4.872   2.222  0.9982 -0.0667  0.3185
 1749SOL     OW 6145   3.345   4.944   4.918 -1.1817  0.1905  0.1043
 1749SOL    HW1 6146   3.365   4.877   4.989 -0.6996  2.0996  1.8703
 1749SOL    HW2 6147   3.324   4.897   4.833  0.2347 -2.1720  0.9574
 1750SOL     OW 6148   5.899   5.358   6.045  0.1131 -0.5458 -0.1885
 1750SOL    HW1 6149   5.869   5.315   6.130 -0.0144  0.5041  0.2999
 1750SOL    HW2 6150   5.905   5.457   6.057 -2.8948  0.0045 -2.2411
 1751SOL     OW 6151   5.394   2.324   2.303 -0.9100 -0.1059  0.1712
 1751SOL    HW1 6152   5.454   2.247   2.325 -2.6106 -1.8808 -1.0080
 1751SOL    HW2 6153   5.351   2.308   2.214 -1.0637  2.4251 -0.2882
 1752SOL     OW 6154   2.235   1.072   5.922 -0.3760 -0.3857  0.2224
 1752SOL    HW1 6155   2.329   1.078   5.956 -0.7358 -3.8602  2.2522
 1752SOL    HW2 6156   2.176   1.131   5.977  0.2786  0.3662  0.1470
 1753SOL     OW 6157   2.504   0.854   1.130  0.3141  0.6942 -0.4397
 1753SOL    HW1 6158   2.451   0.771   1.144 -0.0591  1.0575  0.3126
 1753SOL    HW2 6159   2.460   0.911   1.060  0.0154  0.7396 -0.2127
 1754SOL     OW 6160   5.883   0.976   3.162 -0.8458  0.1201  0.0722
 1754SOL    HW1 6161   5.920   0.887   3.139  3.7547  1.1845  2.2434
 1754SOL    HW2 6162   5.815   0.967   3.235 -1.8099 -1.6244 -0.9779
 1755SOL     OW 6163   3.002   6.051   4.806  0.6805  0.1621  0.4869
 1755SOL    HW1 6164   2.973   5.963   4.843 -0.2047  0.8878  1.5899
 1755SOL    HW2 6165   3.097   6.068   4.832  0.5741 -0.0769  1.0669
 1756SOL     OW 6166   6.107   1.746   5.303  0.3412  0.5087 -0.3551
 1756SOL    HW1 6167   6.194   1.714   5.266  0.5927  0.4659  0.2620
 1756SOL    HW2 6168   6.086   1.697   5.388  0.0890  1.0402 -0.1016
 1757SOL     OW 6169   6.681   4.414   2.566  0.4931 -0.2014 -0.4064
 1757SOL    HW1 6170   6.622   4.337   2.591 -0.8246  1.1126  0.6810
 1757SOL    HW2 6171   6.750   4.383   2.500 -1.1742 -1.8660 -1.4662
 1758SOL     OW 6172   5.097   3.749   3.313 -0.5381 -0.5686 -0.3231
 1758SOL    HW1 6173   5.181   3.719   3.357  0.1741 -1.0610 -1.9692
 1758SOL    HW2 6174   5.104   3.847   3.292 -0.8730 -0.3355  0.5704
 1759SOL     OW 6175   0.570   1.432   4.549 -0.0649 -0.0900 -1.2140
 1759SOL    HW1 6176   0.523   1.520   4.541 -0.4517 -0.2147 -0.3879
 1759SOL    HW2 6177   0.643   1.439   4.618 -0.2621 -0.4775 -0.9576
 1760SOL     OW 6178   4.040   1.264   1.344  0.0694 -0.7675  0.2269
 1760SOL    HW1 6179   4.108   1.210   1.393  1.2625  0.1300 -0.3719
 1760SOL    HW2 6180   3.956   1.267   1.397  0.1256 -2.7688  0.4994
 1761SOL     OW 6181   1.886   5.103   6.325 -0.0841 -0.5291 -0.0174
 1761SOL    HW1 6182   1.884   5.029   6.392  0.6123 -1.5187 -1.0736
 1761SOL    HW2 6183   1.934   5.074   6.243  0.3403  1.1438 -0.4138
 1762SOL     OW 6184   2.754   2.077   1.157 -0.6859  0.1179  0.6609
 1762SOL    HW1 6185   2.747   2.072   1.257 -0.3498  0.8079  0.7251
 1762SOL    HW2 6186   2.848   2.057   1.129 -0.3290  1.7329  0.6293
 1763SOL     OW 6187   1.119   1.750   3.093  0.3399  0.1345 -0.4065
 1763SOL    HW1 6188   1.090   1.843   3.074  1.2708  0.5033 -0.0686
 1763SOL    HW2 6189   1.214   1.750   3.126 -0.9933 -0.3961  4.1185
 1764SOL     OW 6190   4.841   7.000   2.483  0.5677  0.2346 -0.4671
 1764SOL    HW1 6191   4.814   6.965   2.393  0.5146 -1.3706  0.1448
 1764SOL    HW2 6192   4.765   7.051   2.523  0.4050  0.4926 -1.0858
 1765SOL     OW 6193   2.081   5.760   3.517 -0.0497 -0.4813  0.5544
 1765SOL    HW1 6194   2.069   5.712   3.431 -1.6087  0.1035  0.4212
 1765SOL    HW2 6195   2.115   5.696   3.586  0.0805 -1.2253 -0.1847
 1766SOL     OW 6196   1.419   6.904   6.787 -0.0624 -0.4957 -0.4461
 1766SOL    HW1 6197   1.323   6.885   6.767 -0.4420 -0.7528  1.4827
 1766SOL    HW2 6198   1.465   6.820   6.815  0.1080  0.0504  0.9685
 1767SOL     OW 6199   5.472   4.736   0.356 -0.3322  0.1799  1.0356
 1767SOL    HW1 6200   5.502   4.794   0.432  2.1145  1.5371 -0.8269
 1767SOL    HW2 6201   5.456   4.793   0.275  0.1473 -1.5239 -0.3126
 1768SOL     OW 6202   0.088   2.079   0.176  0.7312  0.6091 -0.0694
 1768SOL    HW1 6203   0.115   2.008   0.241  0.8402 -0.8676 -1.6687
 1768SOL    HW2 6204   0.096   2.169   0.220 -0.4891 -0.3851  2.3802
 1769SOL     OW 6205   0.195   6.123   1.167  0.1595  0.0723  0.3955
 1769SOL    HW1 6206   0.276   6.067   1.146  1.2468  2.2236 -1.7145
 1769SOL    HW2 6207   0.117   6.089   1.116  0.6115  0.0094 -0.2668
 1770SOL     OW 6208   3.812   1.647   4.147 -0.2652  0.1070 -0.2655
 1770SOL    HW1 6209   3.717   1.630   4.119 -0.3623 -1.0420  0.7228
 1770SOL    HW2 6210   3.814   1.724   4.211 -0.5017  0.2044 -0.3699
 1771SOL     OW 6211   2.240   0.966   4.626  0.7499 -0.0725  0.2627
 1771SOL    HW1 6212   2.295   1.024   4.566 -0.3701  0.3940 -0.3418
 1771SOL    HW2 6213   2.235   0.874   4.587  2.6499 -0.6596  1.2988
 1772SOL     OW 6214   4.621   1.766   1.860  0.3139 -0.5218  0.4365
 1772SOL    HW1 6215   4.694   1.698   1.850 -0.9710 -2.1020  1.2440
 1772SOL    HW2 6216   4.591   1.797   1.770  0.5858 -1.4324  0.0241
 1773SOL     OW 6217   5.969   1.857   5.588 -0.0982  0.1071 -0.4579
 1773SOL    HW1 6218   5.976   1.874   5.490 -1.0703 -1.1994 -0.7867
 1773SOL    HW2 6219   6.046   1.799   5.617 -0.3342 -0.2990 -0.6424
 1774SOL     OW 6220   4.129   6.750   4.182 -0.1125  0.1442 -0.1169
 1774SOL    HW1 6221   4.127   6.666   4.237  2.8877  0.4786  0.6779
 1774SOL    HW2 6222   4.086   6.824   4.233  1.1413  0.0600  1.1193
 1775SOL     OW 6223   5.362   4.755   5.892 -0.0990 -0.6368  0.3649
 1775SOL    HW1 6224   5.349   4.714   5.802 -0.5446 -1.4852  0.8007
 1775SOL    HW2 6225   5.413   4.841   5.883 -2.9839  1.0932 -1.1074
 1776SOL     OW 6226   4.179   1.783   5.178 -0.4788 -0.1262 -0.2504
 1776SOL    HW1 6227   4.265   1.788   5.228 -1.5573  0.5680  1.6450
 1776SOL    HW2 6228   4.190   1.823   5.087  1.9315 -2.7663 -1.2551
 1777SOL     OW 6229   1.043   5.370   5.214 -0.1907 -0.1754 -0.0676
 1777SOL    HW1 6230   1.045   5.372   5.314 -0.9833 -1.1370 -0.0188
 1777SOL    HW2 6231   1.089   5.287   5.182 -2.6858 -1.5450 -0.3588
 1778SOL     OW 6232   0.824   4.354   3.106 -0.0413 -0.4399  0.1152
 1778SOL    HW1 6233   0.866   4.303   3.181  0.8679  1.1603  0.7355
 1778SOL    HW2 6234   0.764   4.293   3.054 -0.4001 -1.6677  1.8939
 1779SOL     OW 6235   5.272   1.721   3.858 -0.2725  0.2421  0.6923
 1779SOL    HW1 6236   5.186   1.758   3.824 -0.3987  0.2431  1.0072
 1779SOL    HW2 6237   5.300   1.770   3.941 -0.8449 -0.8573  1.5726
 1780SOL     OW 6238   2.015   1.569   6.596  0.3707 -0.3936  0.4933
 1780SOL    HW1 6239   1.924   1.589   6.559  0.8810 -0.9380 -1.1016
 1780SOL    HW2 6240   2.005   1.519   6.682 -0.8502  2.1645  1.9828
 1781SOL     OW 6241   1.901   1.344   5.857  0.0735 -0.3452  0.1157
 1781SOL    HW1 6242   1.839   1.381   5.926 -0.5541 -1.1728  0.0140
 1781SOL    HW2 6243   1.864   1.362   5.766  0.7848  0.5442 -0.0095
 1782SOL     OW 6244   5.782   3.863   6.934 -0.2238  0.3400  0.0962
 1782SOL    HW1 6245   5.746   3.848   7.026  1.1063  0.7267  0.7110
 1782SOL    HW2 6246   5.708   3.888   6.872 -1.3858 -1.4068  0.6997
 1783SOL     OW 6247   5.418   2.617   3.323  0.1045  0.1966 -0.5328
 1783SOL    HW1 6248   5.366   2.689   3.369  0.8294  0.3166  0.1141
 1783SOL    HW2 6249   5.434   2.542   3.387  3.5564  1.5535  0.4153
 1784SOL     OW 6250   0.436   1.723   2.090 -0.1222 -0.2973  0.1453
 1784SOL    HW1 6251   0.438   1.680   2.180 -0.4216  0.9037  0.7480
 1784SOL    HW2 6252   0.372   1.800   2.092  0.2984  0.0924 -0.9345
 1785SOL     OW 6253   1.596   6.763   3.735 -0.2549  0.1028  0.0787
 1785SOL    HW1 6254   1.579   6.665   3.746  1.1251 -0.3200 -1.2393
 1785SOL    HW2 6255   1.692   6.782   3.756 -0.7533  1.3814  1.3796
 1786SOL     OW 6256   6.371   0.883   6.316  0.3823  0.2358  0.4476
 1786SOL    HW1 6257   6.330   0.852   6.402  0.6452  0.8989  0.8166
 1786SOL    HW2 6258   6.378   0.806   6.253  0.5168 -0.3320  1.1480
 1787SOL     OW 6259   2.438   2.651   2.037  0.1098 -0.2178  0.0705
 1787SOL    HW1 6260   2.369   2.689   1.975  0.4480  1.9968  0.9659
 1787SOL    HW2 6261   2.400   2.570   2.082 -1.4401  0.1853 -0.4268
 1788SOL     OW 6262   3.054   2.522   0.844  0.3331  0.0453 -0.0467
 1788SOL    HW1 6263   3.016   2.531   0.936 -1.0449  1.7597 -0.7152
 1788SOL    HW2 6264   3.148   2.488   0.850 -0.2372 -1.3716  1.8666
 1789SOL     OW 6265   2.310   5.135   4.194 -0.3500 -0.1044 -0.5672
 1789SOL    HW1 6266   2.285   5.170   4.104 -2.3746  2.3070  0.8061
 1789SOL    HW2 6267   2.315   5.210   4.260  2.8778 -1.5280  1.0605
 1790SOL     OW 6268   1.363   1.633   4.330 -0.0429 -0.0338  0.9646
 1790SOL    HW1 6269   1.406   1.716   4.364  0.2167  0.4033 -0.3760
 1790SOL    HW2 6270   1.264   1.647   4.321  0.2405  0.9652 -1.4002
 1791SOL     OW 6271   6.619   2.608   2.860 -0.0977 -0.1521 -0.0535
 1791SOL    HW1 6272   6.601   2.527   2.804  0.7244 -0.7901  0.5827
 1791SOL    HW2 6273   6.711   2.642   2.842 -0.0368 -0.0185  0.4924
 1792SOL     OW 6274   4.857   0.982   0.653 -0.4373 -0.0083 -0.4783
 1792SOL    HW1 6275   4.912   1.064   0.673  1.5588 -1.3007 -0.4324
 1792SOL    HW2 6276   4.870   0.955   0.558 -0.4077 -0.7327 -0.2763
 1793SOL     OW 6277   1.070   3.748   5.728  0.2315 -0.1480  0.2899
 1793SOL    HW1 6278   1.132   3.676   5.758  0.3777  0.1207  0.6359
 1793SOL    HW2 6279   1.031   3.795   5.808  0.1690  0.1846  0.0675
 1794SOL     OW 6280   1.057   2.036   3.097 -0.1534  0.2684  0.0017
 1794SOL    HW1 6281   1.094   2.066   3.185  0.6710 -0.4225 -0.0864
 1794SOL    HW2 6282   1.049   2.114   3.036  2.4307  0.3241 -0.4086
 1795SOL     OW 6283   0.288   6.724   1.163  0.4257 -0.4631  0.4185
 1795SOL    HW1 6284   0.243   6.758   1.246 -0.6390 -1.2451  0.1681
 1795SOL    HW2 6285   0.247   6.638   1.135 -0.1342  0.4382 -1.6905
 1796SOL     OW 6286   5.913   2.687   4.216 -0.3098  0.0088  0.0156
 1796SOL    HW1 6287   5.833   2.639   4.183  1.1734 -1.9207 -0.9698
 1796SOL    HW2 6288   5.995   2.634   4.195  1.3120  2.2323  0.3192
 1797SOL     OW 6289   5.575   0.291   3.435 -0.3111  0.3151 -0.0952
 1797SOL    HW1 6290   5.534   0.205   3.404  0.0775  1.0599 -3.0079
 1797SOL    HW2 6291   5.528   0.368   3.392  1.1859  1.4081  0.1355
 1798SOL     OW 6292   3.760   0.115   4.148  0.6456  0.1068  0.0807
 1798SOL    HW1 6293   3.759   0.210   4.115  0.5977  0.3034  0.6287
 1798SOL    HW2 6294   3.749   0.053   4.071  0.2772  0.5602 -0.2439
 1799SOL     OW 6295   6.151   1.032   3.715  0.4966  0.2136  0.0985
 1799SOL    HW1 6296   6.124   0.977   3.794 -1.0836 -1.8184 -1.7362
 1799SOL    HW2 6297   6.247   1.012   3.692 -0.0494 -1.9657 -0.5507
 1800SOL     OW 6298   3.886   6.912   5.968 -0.3340 -0.1428  0.0369
 1800SOL    HW1 6299   3.843   6.956   6.047  2.0556  1.6953  0.4335
 1800SOL    HW2 6300   3.872   6.969   5.887  0.1652 -0.2193 -0.1060
 1801SOL     OW 6301   5.122   0.362   0.430 -0.1915  0.2157 -0.1534
 1801SOL    HW1 6302   5.153   0.433   0.493  2.2748 -0.6403 -0.2648
 1801SOL    HW2 6303   5.188   0.353   0.355 -0.7004 -1.7995 -0.4269
 1802SOL     OW 6304   2.199   4.906   0.051  0.4511  0.2051  0.2820
 1802SOL    HW1 6305   2.144   4.971  -0.001 -0.5956  0.2526  1.4003
 1802SOL    HW2 6306   2.163   4.813   0.037  2.6068 -0.3703 -2.1886
 1803SOL     OW 6307   2.391   2.429   2.867 -0.1861  0.5097  0.0339
 1803SOL    HW1 6308   2.447   2.454   2.946  0.2786  1.0715 -0.4624
 1803SOL    HW2 6309   2.358   2.513   2.822 -0.0271  0.2092 -0.6605
 1804SOL     OW 6310   4.694   1.201   5.641 -0.1044 -0.1080  0.3204
 1804SOL    HW1 6311   4.668   1.276   5.580 -1.3713 -1.1855 -0.5078
 1804SOL    HW2 6312   4.746   1.238   5.719 -0.6409  1.6020 -0.0878
 1805SOL     OW 6313   4.312   5.367   1.328  0.1051 -0.4390  0.0197
 1805SOL    HW1 6314   4.295   5.318   1.414  0.8514 -1.4937 -0.4114
 1805SOL    HW2 6315   4.233   5.356   1.267 -0.4947  0.4481  0.6161
 1806SOL     OW 6316   6.382   4.036   2.127  0.3386  0.0744 -0.5098
 1806SOL    HW1 6317   6.417   4.038   2.033 -0.0264  0.0902 -0.6498
 1806SOL    HW2 6318   6.372   4.129   2.161  1.8746  0.0433  0.0898
 1807SOL     OW 6319   3.805   2.225   6.134 -0.3469 -0.7985  0.6943
 1807SOL    HW1 6320   3.819   2.170   6.052 -0.3047 -1.0007  0.8377
 1807SOL    HW2 6321   3.713   2.263   6.133 -0.3252 -0.7468  0.5220
 1808SOL     OW 6322   1.287   1.758   0.740  0.2445  0.1812 -0.7724
 1808SOL    HW1 6323   1.362   1.703   0.777  1.1759  0.7499 -1.7676
 1808SOL    HW2 6324   1.315   1.854   0.734  0.3439  0.0667 -3.3641
 1809SOL     OW 6325   0.911   4.982   2.598 -0.8388  0.2621 -0.4403
 1809SOL    HW1 6326   0.896   4.987   2.697  0.4688  1.3129 -0.2656
 1809SOL    HW2 6327   0.999   4.940   2.580 -1.2587 -0.3209 -1.1897
 1810SOL     OW 6328   5.570   2.884   4.027 -0.2333 -0.1223  0.0448
 1810SOL    HW1 6329   5.642   2.942   3.988  0.7935 -2.2365 -1.3833
 1810SOL    HW2 6330   5.568   2.895   4.126  1.0304  1.1106 -0.0381
 1811SOL     OW 6331   4.896   5.162   6.345  0.0427  0.1189 -0.4533
 1811SOL    HW1 6332   4.830   5.170   6.270  0.6787  0.2608 -1.0167
 1811SOL    HW2 6333   4.904   5.066   6.372 -1.3201  0.2438  0.4987
 1812SOL     OW 6334   7.014   5.704   0.728  0.2730  1.0159  0.1527
 1812SOL    HW1 6335   7.105   5.718   0.768  0.8020  1.2244 -1.0713
 1812SOL    HW2 6336   7.022   5.700   0.628 -1.1698  1.9764 -0.0397
 1813SOL     OW 6337   5.213   4.144   5.750 -0.2096  0.0271 -0.6539
 1813SOL    HW1 6338   5.133   4.205   5.749  0.1573  0.5841  0.8978
 1813SOL    HW2 6339   5.197   4.068   5.687 -2.0536  0.0301 -0.2762
 1814SOL     OW 6340   3.682   6.756   0.333  0.1874  0.1485 -0.5733
 1814SOL    HW1 6341   3.658   6.778   0.428  0.8364  2.7528 -0.9507
 1814SOL    HW2 6342   3.678   6.657   0.320  2.5337 -0.5829  2.8839
 1815SOL     OW 6343   4.431   6.110   2.172  0.1899  0.0227 -0.7999
 1815SOL    HW1 6344   4.454   6.033   2.232 -0.1886  0.6192  0.1424
 1815SOL    HW2 6345   4.445   6.196   2.222 -0.8506  0.5139 -1.3185
 1816SOL     OW 6346   3.251   1.383   2.695 -0.0411 -0.0660  0.4637
 1816SOL    HW1 6347   3.156   1.408   2.713  0.6778  2.7194  0.7781
 1816SOL    HW2 6348   3.294   1.352   2.780  0.2497  2.1218  1.1707
 1817SOL     OW 6349   2.034   6.202   4.935 -0.3169 -0.2618  0.1232
 1817SOL    HW1 6350   1.989   6.274   4.987  1.4646 -0.4445  2.0357
 1817SOL    HW2 6351   2.057   6.126   4.996 -0.5219 -1.6859 -1.4833
 1818SOL     OW 6352   0.939   2.947   2.974  0.0288 -0.5777 -0.3906
 1818SOL    HW1 6353   0.887   2.963   3.058 -0.1663 -0.6233 -0.5017
 1818SOL    HW2 6354   0.914   3.015   2.905  0.2312 -0.5054 -0.3912
 1819SOL     OW 6355   6.608   1.941   4.079  0.2997 -0.2441  0.3378
 1819SOL    HW1 6356   6.584   1.846   4.056  0.4752 -0.5983  1.5388
 1819SOL    HW2 6357   6.651   1.985   4.001  0.2693 -1.1818 -0.2145
 1820SOL     OW 6358   6.470   3.222   6.451  1.1509 -0.3043  0.4722
 1820SOL    HW1 6359   6.566   3.237   6.476  1.5149 -2.3912  0.5273
 1820SOL    HW2 6360   6.460   3.230   6.352  1.1038  1.1172  0.5689
 1821SOL     OW 6361   6.353   6.359   4.144  0.4120  0.1097 -0.1408
 1821SOL    HW1 6362   6.367   6.420   4.066 -0.9370 -0.0796 -0.5575
 1821SOL    HW2 6363   6.369   6.409   4.229 -0.5307  1.0252 -0.4801
 1822SOL     OW 6364   1.124   1.327   2.523 -0.1366  0.1813  0.0499
 1822SOL    HW1 6365   1.173   1.397   2.471  1.1412 -1.4577 -1.0389
 1822SOL    HW2 6366   1.188   1.278   2.582 -1.0364 -0.0098  0.8928
 1823SOL     OW 6367   2.059   3.785   3.784 -0.4669 -0.1348 -0.3233
 1823SOL    HW1 6368   2.097   3.710   3.731 -0.1983 -0.5295  0.4129
 1823SOL    HW2 6369   1.961   3.794   3.765 -0.7611 -1.4531  0.4770
 1824SOL     OW 6370   1.186   6.112   5.321 -0.0039  0.3478  0.1704
 1824SOL    HW1 6371   1.137   6.117   5.234  1.1031  0.4072 -0.4717
 1824SOL    HW2 6372   1.134   6.161   5.391 -0.4339  1.1774 -0.6976
 1825SOL     OW 6373   1.654   2.843   4.797 -0.1030  0.5363  0.2692
 1825SOL    HW1 6374   1.672   2.811   4.704  0.4998  2.0490 -0.1723
 1825SOL    HW2 6375   1.678   2.772   4.863  0.7401 -0.0633 -0.6609
 1826SOL     OW 6376   4.066   6.033   2.548  0.7817  0.3724  0.1433
 1826SOL    HW1 6377   4.040   6.010   2.454  3.4944  0.0446 -0.6349
 1826SOL    HW2 6378   4.118   5.956   2.587  0.3375  0.8102  1.6521
 1827SOL     OW 6379   4.228   0.110   3.011 -0.0730 -0.3924  0.4060
 1827SOL    HW1 6380   4.254   0.196   3.054  0.9617 -0.3388 -0.2923
 1827SOL    HW2 6381   4.289   0.037   3.043 -0.7054 -0.7983  0.7056
 1828SOL     OW 6382   3.131   1.804   6.195 -0.2287  0.7023 -0.6125
 1828SOL    HW1 6383   3.087   1.726   6.238 -0.6225  1.8005  1.0904
 1828SOL    HW2 6384   3.175   1.775   6.109  0.6209 -1.6176  0.5122
 1829SOL     OW 6385   1.999   0.077   0.183  0.4770  0.4350  0.0980
 1829SOL    HW1 6386   1.940   0.023   0.123 -0.2771  0.4237  0.8264
 1829SOL    HW2 6387   2.005   0.034   0.272  0.1343  1.3557  0.5876
 1830SOL     OW 6388   5.492   2.651   4.491 -0.3909  0.3410 -0.0587
 1830SOL    HW1 6389   5.534   2.564   4.463 -0.5373  0.7941 -1.8541
 1830SOL    HW2 6390   5.562   2.723   4.490 -0.6212  0.5650 -0.2958
 1831SOL     OW 6391   4.355   5.604   5.555 -0.2781 -0.2958  0.2750
 1831SOL    HW1 6392   4.452   5.620   5.575 -0.6249  2.2333  0.3046
 1831SOL    HW2 6393   4.335   5.637   5.463 -1.2390 -0.2185  0.5066
 1832SOL     OW 6394   5.775   1.601   5.349  0.5317 -0.0384 -0.0156
 1832SOL    HW1 6395   5.798   1.622   5.254 -0.1112  2.8847  0.4034
 1832SOL    HW2 6396   5.857   1.569   5.396  1.0935 -0.5336 -1.2773
 1833SOL     OW 6397   6.539   6.645   6.246  0.1302  0.3733  0.4724
 1833SOL    HW1 6398   6.571   6.679   6.335 -0.5539 -0.2107  0.9585
 1833SOL    HW2 6399   6.465   6.579   6.261  0.3201 -0.0756 -0.5156
 1834SOL     OW 6400   5.627   5.669   0.616 -0.4753 -0.2076  0.3599
 1834SOL    HW1 6401   5.579   5.757   0.616  1.7622  1.1129  1.8045
 1834SOL    HW2 6402   5.696   5.668   0.543 -1.0710 -1.1452 -0.2121
 1835SOL     OW 6403   1.206   4.246   2.019  0.3008 -0.3056  0.1325
 1835SOL    HW1 6404   1.290   4.193   2.005 -0.0822 -1.2500  1.1839
 1835SOL    HW2 6405   1.130   4.201   1.972  0.2035 -0.0130  0.0118
 1836SOL     OW 6406   0.098   6.917   0.605 -0.3369 -0.0186  0.4882
 1836SOL    HW1 6407   0.132   6.885   0.694  0.1026 -0.0569  0.3099
 1836SOL    HW2 6408   0.011   6.965   0.618 -0.7581 -0.8425  0.8250
 1837SOL     OW 6409   2.197   0.784   0.898  0.5861 -0.1619 -0.3940
 1837SOL    HW1 6410   2.119   0.819   0.847  1.3764  1.7246 -0.3794
 1837SOL    HW2 6411   2.172   0.769   0.993 -0.5117 -2.3540 -0.9711
 1838SOL     OW 6412   6.246   3.586   3.532  0.5123  0.2713 -0.3673
 1838SOL    HW1 6413   6.164   3.609   3.479  0.1846 -0.8942 -0.3885
 1838SOL    HW2 6414   6.326   3.588   3.472  0.8748  3.3728  0.0361
 1839SOL     OW 6415   1.081   5.317   3.200 -0.1614 -0.9210  0.3762
 1839SOL    HW1 6416   0.988   5.326   3.166 -0.1251 -1.7593  0.0168
 1839SOL    HW2 6417   1.091   5.368   3.285 -0.3729  0.9029 -0.6350
 1840SOL     OW 6418   2.828   0.682   1.487  0.2124  0.4931  0.1019
 1840SOL    HW1 6419   2.758   0.612   1.473  0.8008 -1.2024  4.2320
 1840SOL    HW2 6420   2.784   0.771   1.498 -1.0572 -0.1004  0.0348
 1841SOL     OW 6421   3.375   3.796   0.428  0.3117 -0.6345 -0.5167
 1841SOL    HW1 6422   3.469   3.810   0.398  0.9157 -1.6540  0.7968
 1841SOL    HW2 6423   3.357   3.850   0.511  0.1503 -1.3981 -0.0407
 1842SOL     OW 6424   6.349   0.161   1.879 -0.5658  0.4069  0.8883
 1842SOL    HW1 6425   6.312   0.173   1.971 -1.2470  0.5599  0.6009
 1842SOL    HW2 6426   6.399   0.075   1.874  0.0084  0.6878  1.5692
 1843SOL     OW 6427   1.132   0.983   1.613 -0.7402  0.9162 -0.3529
 1843SOL    HW1 6428   1.048   0.974   1.559 -0.2867  0.2796 -0.9740
 1843SOL    HW2 6429   1.203   0.925   1.573 -0.2636  0.7676  0.6844
 1844SOL     OW 6430   3.723   4.727   5.925 -0.0107 -0.3360 -0.6023
 1844SOL    HW1 6431   3.727   4.656   5.856  0.6128 -0.0399 -0.8739
 1844SOL    HW2 6432   3.691   4.688   6.012  1.5185 -1.2133 -0.4077
 1845SOL     OW 6433   1.677   6.822   5.033 -0.7240 -0.3972 -0.0959
 1845SOL    HW1 6434   1.679   6.727   5.004  1.1026 -0.5193  0.3410
 1845SOL    HW2 6435   1.748   6.838   5.102  0.0258  1.6150 -1.2444
 1846SOL     OW 6436   3.576   6.767   3.014  0.4999 -0.4235  0.2352
 1846SOL    HW1 6437   3.671   6.769   2.984  0.5626 -0.5651  0.4244
 1846SOL    HW2 6438   3.559   6.838   3.082 -0.0148  0.9152 -1.2206
 1847SOL     OW 6439   3.841   5.448   5.160 -0.4313 -0.6883  0.1306
 1847SOL    HW1 6440   3.879   5.410   5.076 -0.1750  1.8601 -0.9966
 1847SOL    HW2 6441   3.914   5.458   5.228  0.1094  0.4013 -0.5871
 1848SOL     OW 6442   1.225   6.094   6.716  0.1597 -0.3541  0.2284
 1848SOL    HW1 6443   1.127   6.082   6.707 -0.0417  0.8034  0.7392
 1848SOL    HW2 6444   1.262   6.133   6.631  0.0950 -0.2682  0.2399
 1849SOL     OW 6445   1.219   2.750   6.468  0.2828 -0.2775 -0.4635
 1849SOL    HW1 6446   1.145   2.706   6.520 -0.2851  1.8212  0.6195
 1849SOL    HW2 6447   1.295   2.686   6.459 -1.2950 -2.2256 -0.8885
 1850SOL     OW 6448   5.732   5.923   3.757  0.5041 -0.3375  0.2377
 1850SOL    HW1 6449   5.718   5.882   3.666 -1.3820  0.5189  0.0961
 1850SOL    HW2 6450   5.798   5.868   3.808 -0.1472 -2.1838 -0.8025
 1851SOL     OW 6451   3.258   5.021   5.502 -0.4109  0.1558  0.3502
 1851SOL    HW1 6452   3.308   5.069   5.573  0.3372  1.4367 -0.9860
 1851SOL    HW2 6453   3.297   4.930   5.488  0.5586  0.5680  0.3641
 1852SOL     OW 6454   4.736   1.330   3.677 -0.0394  0.5319  0.5877
 1852SOL    HW1 6455   4.710   1.263   3.608  0.9927  0.7109  0.0013
 1852SOL    HW2 6456   4.654   1.375   3.713 -0.5339  1.9880 -2.0971
 1853SOL     OW 6457   0.694   5.562   6.652  0.3525 -0.1843 -0.5096
 1853SOL    HW1 6458   0.685   5.466   6.627  0.4289 -0.0185 -1.1787
 1853SOL    HW2 6459   0.776   5.574   6.708  1.3281 -0.2320 -1.8880
 1854SOL     OW 6460   6.987   5.384   1.839 -0.1161 -0.0931  0.2405
 1854SOL    HW1 6461   7.006   5.467   1.786 -0.5580 -1.3955 -2.1425
 1854SOL    HW2 6462   6.897   5.348   1.813 -0.4679 -0.6655  2.1450
 1855SOL     OW 6463   0.720   0.131   6.428  0.3353  0.1672 -0.1123
 1855SOL    HW1 6464   0.754   0.225   6.415  0.7317  0.2470  1.3070
 1855SOL    HW2 6465   0.722   0.109   6.525  1.0714 -1.6349 -0.5044
 1856SOL     OW 6466   0.696   3.839   4.250  0.2391 -0.3877 -0.6400
 1856SOL    HW1 6467   0.747   3.825   4.165 -1.1870  0.4019 -1.6634
 1856SOL    HW2 6468   0.599   3.855   4.229 -0.0879  0.1604  1.1148
 1857SOL     OW 6469   1.039   2.424   2.263  0.0703 -0.3721 -0.1265
 1857SOL    HW1 6470   1.013   2.461   2.352 -0.5127  0.2625 -0.5503
 1857SOL    HW2 6471   1.134   2.392   2.267  0.3507  0.4742  0.4810
 1858SOL     OW 6472   1.103   2.973   6.923 -0.1789  0.8050 -0.5251
 1858SOL    HW1 6473   1.086   3.072   6.924 -1.6499  0.5886  0.1501
 1858SOL    HW2 6474   1.033   2.928   6.979 -0.9227 -0.8284 -2.6334
 1859SOL     OW 6475   0.143   2.410   2.742  0.0137  0.0221  0.4237
 1859SOL    HW1 6476   0.175   2.470   2.815  0.3390 -2.6749  2.6889
 1859SOL    HW2 6477   0.182   2.439   2.655 -1.1798  3.9861  1.0097
 1860SOL     OW 6478   3.583   0.570   1.223 -0.1410 -0.2005 -0.3643
 1860SOL    HW1 6479   3.649   0.496   1.234 -0.2791 -0.1330  1.0819
 1860SOL    HW2 6480   3.629   0.658   1.234  0.1490  0.0011 -2.7170
 1861SOL     OW 6481   4.229   1.934   4.921  0.6055  0.3881  0.1422
 1861SOL    HW1 6482   4.199   2.013   4.974  0.8338  1.2072 -0.9050
 1861SOL    HW2 6483   4.328   1.936   4.912  0.8301 -1.2293  1.9368
 1862SOL     OW 6484   1.797   0.086   6.640  0.0484 -0.0928  0.0997
 1862SOL    HW1 6485   1.821   0.058   6.547  2.7566 -0.0582  0.7163
 1862SOL    HW2 6486   1.863   0.154   6.672 -2.0231  1.4283  1.3589
 1863SOL     OW 6487   5.596   4.233   1.033  0.4330 -0.2437  0.0873
 1863SOL    HW1 6488   5.547   4.148   1.054 -1.0615  0.7596  0.8745
 1863SOL    HW2 6489   5.598   4.247   0.934  0.0790 -0.8617 -0.0108
 1864SOL     OW 6490   5.579   1.894   3.427  0.1596  0.2543 -0.2082
 1864SOL    HW1 6491   5.560   1.853   3.517 -0.9060  0.1420 -0.4720
 1864SOL    HW2 6492   5.513   1.968   3.410  0.7332  0.6655 -0.6480
 1865SOL     OW 6493   6.876   0.100   2.638 -0.0300 -0.5156 -0.4633
 1865SOL    HW1 6494   6.971   0.078   2.660  0.3350  1.7822  0.5800
 1865SOL    HW2 6495   6.870   0.134   2.544  0.8034  2.1443  0.3430
 1866SOL     OW 6496   2.400   4.877   2.276 -0.2378  0.0858 -0.2166
 1866SOL    HW1 6497   2.373   4.782   2.262  0.1198 -0.1847  0.7774
 1866SOL    HW2 6498   2.396   4.927   2.190  1.1925 -1.2583 -1.1181
 1867SOL     OW 6499   1.117   0.421   0.395 -0.0155  0.2032 -0.4257
 1867SOL    HW1 6500   1.051   0.407   0.321 -0.9215 -1.3576  0.6220
 1867SOL    HW2 6501   1.084   0.377   0.478  1.8100  0.3960  0.4571
 1868SOL     OW 6502   6.064   1.395   6.910 -0.0270  0.0781  0.0654
 1868SOL    HW1 6503   6.107   1.485   6.922  0.4117  0.0093 -0.9130
 1868SOL    HW2 6504   5.964   1.407   6.904 -0.3019  0.1637  3.0602
 1869SOL     OW 6505   2.330   0.151   1.493  0.0273 -0.1947  0.1610
 1869SOL    HW1 6506   2.429   0.138   1.485 -0.1523 -0.7812 -1.3495
 1869SOL    HW2 6507   2.283   0.064   1.480 -0.7375  0.2543 -0.1425
 1870SOL     OW 6508   5.756   4.860   0.026 -0.2245  0.0247 -0.1511
 1870SOL    HW1 6509   5.692   4.808  -0.031 -0.8607  2.0123 -1.3504
 1870SOL    HW2 6510   5.847   4.856  -0.015 -0.4200  0.4016 -0.6402
 1871SOL     OW 6511   5.661   1.585   0.183 -0.5454  0.1164 -0.5659
 1871SOL    HW1 6512   5.740   1.556   0.237  0.1899 -0.6158 -1.9522
 1871SOL    HW2 6513   5.577   1.572   0.236  0.2124  0.4455  0.7583
 1872SOL     OW 6514   5.794   0.981   4.552 -0.6814 -0.2876 -0.0292
 1872SOL    HW1 6515   5.703   0.940   4.548 -0.5504 -0.5159 -0.6431
 1872SOL    HW2 6516   5.797   1.046   4.628 -0.4479 -2.4718  1.9457
 1873SOL     OW 6517   0.437   1.130   0.501 -0.5086  0.1756  0.8100
 1873SOL    HW1 6518   0.521   1.162   0.546 -0.1802  1.1100 -0.4137
 1873SOL    HW2 6519   0.377   1.087   0.569  1.0217 -0.6818  1.6867
 1874SOL     OW 6520   5.242   0.668   0.306 -0.4050  0.6464 -0.1786
 1874SOL    HW1 6521   5.208   0.735   0.240 -2.7873 -1.5919 -1.4254
 1874SOL    HW2 6522   5.324   0.624   0.269  0.5327  2.0472  0.1634
 1875SOL     OW 6523   4.114   6.933   3.731  0.0027  0.6201 -0.0337
 1875SOL    HW1 6524   4.077   6.916   3.640 -0.0144 -1.2973  0.3016
 1875SOL    HW2 6525   4.058   7.002   3.777 -2.3499 -1.1181 -0.0942
 1876SOL     OW 6526   0.804   0.909   4.810  1.0073  0.3088  0.6383
 1876SOL    HW1 6527   0.785   0.997   4.765  3.0977  1.2684  1.5155
 1876SOL    HW2 6528   0.721   0.877   4.856 -0.1824  1.0834 -0.8487
 1877SOL     OW 6529   1.528   5.003   5.765  0.1130  0.6616  0.2894
 1877SOL    HW1 6530   1.483   4.939   5.827 -0.0904  0.5295  0.0041
 1877SOL    HW2 6531   1.611   5.038   5.809  0.6041 -0.3180  0.1952
 1878SOL     OW 6532   0.015   3.316   0.976  0.4067  0.2894  0.1828
 1878SOL    HW1 6533   0.023   3.280   0.883 -1.8124  4.4727 -1.9570
 1878SOL    HW2 6534  -0.068   3.281   1.019  1.1538 -1.2428  0.4285
 1879SOL     OW 6535   1.760   3.436   2.932 -0.4135 -0.4490 -0.0353
 1879SOL    HW1 6536   1.809   3.388   3.005 -1.6721 -1.2130  0.3396
 1879SOL    HW2 6537   1.819   3.506   2.893  1.1846 -1.7444 -0.0260
 1880SOL     OW 6538   2.671   4.312   6.708  0.1680 -0.0373  0.2022
 1880SOL    HW1 6539   2.765   4.346   6.700 -0.4752  1.5728 -1.4098
 1880SOL    HW2 6540   2.638   4.285   6.618 -1.3781  0.8259  0.4714
 1881SOL     OW 6541   2.854   4.038   1.687  0.5900  0.7816 -0.4243
 1881SOL    HW1 6542   2.931   3.983   1.721 -1.2642 -0.3076  2.3280
 1881SOL    HW2 6543   2.789   3.979   1.640  0.5065  1.3579 -1.0397
 1882SOL     OW 6544   2.504   4.682   0.265  0.7076 -0.3268 -0.6835
 1882SOL    HW1 6545   2.587   4.627   0.250  2.3777  1.9026 -0.1811
 1882SOL    HW2 6546   2.460   4.701   0.177  0.3043 -2.1031 -0.8958
 1883SOL     OW 6547   5.721   1.220   3.815 -0.5179  0.0538 -0.2294
 1883SOL    HW1 6548   5.696   1.316   3.804 -0.3452  0.0046 -1.1808
 1883SOL    HW2 6549   5.794   1.197   3.750  0.0181 -0.5124  0.5612
 1884SOL     OW 6550   4.098   4.794   0.509  0.2162  0.0241 -0.2387
 1884SOL    HW1 6551   4.013   4.846   0.521  1.4683  1.7084  2.4670
 1884SOL    HW2 6552   4.078   4.706   0.466 -2.8800  0.3990  0.1972
 1885SOL     OW 6553   3.625   1.254   6.825  0.0533 -0.0446  0.7441
 1885SOL    HW1 6554   3.528   1.246   6.848 -0.4813  1.0522 -0.9122
 1885SOL    HW2 6555   3.662   1.164   6.803 -1.0846 -0.2716 -0.3625
 1886SOL     OW 6556   2.947   4.061   6.672  0.3365  0.1740 -0.1851
 1886SOL    HW1 6557   2.942   4.036   6.769  1.6843  0.1688 -0.0999
 1886SOL    HW2 6558   2.886   4.138   6.655  0.5575  0.5894  0.8126
 1887SOL     OW 6559   4.401   1.843   6.291 -0.4179  0.2751 -0.4098
 1887SOL    HW1 6560   4.381   1.748   6.313  0.8594 -0.2892 -1.5611
 1887SOL    HW2 6561   4.410   1.896   6.376 -1.0086 -0.6420  0.2398
 1888SOL     OW 6562   0.713   0.780   5.081  0.3243  0.1402  0.0523
 1888SOL    HW1 6563   0.636   0.841   5.099 -0.2759 -1.0716  2.0016
 1888SOL    HW2 6564   0.799   0.830   5.094 -0.1461  0.5518  2.0153
 1889SOL     OW 6565   1.783   4.544   3.999  0.2473 -0.1662  0.1141
 1889SOL    HW1 6566   1.798   4.643   3.992 -1.2468  0.1741  1.0720
 1889SOL    HW2 6567   1.869   4.498   4.020  0.9023  0.9730  0.0049
 1890SOL     OW 6568   3.048   6.247   0.800  0.4110  0.0468  0.4223
 1890SOL    HW1 6569   3.036   6.299   0.716 -1.8092 -0.7791  0.1747
 1890SOL    HW2 6570   3.075   6.153   0.778  2.5873  0.5264  0.7985
 1891SOL     OW 6571   3.025   6.507   5.273 -0.2975  0.0526  0.4690
 1891SOL    HW1 6572   3.122   6.496   5.296  0.5276 -0.7018 -2.8118
 1891SOL    HW2 6573   2.999   6.602   5.285  0.6533  0.1687  1.9260
 1892SOL     OW 6574   6.592   1.651   4.465  0.2881  0.2429 -0.0493
 1892SOL    HW1 6575   6.553   1.588   4.399 -1.0269  0.1917  0.7310
 1892SOL    HW2 6576   6.521   1.714   4.497  1.4631  1.8953 -0.5196
 1893SOL     OW 6577   3.411   5.716   2.578 -0.1474 -0.0498  0.1062
 1893SOL    HW1 6578   3.489   5.741   2.635 -2.0370 -2.4145  4.2121
 1893SOL    HW2 6579   3.439   5.647   2.512  1.9438  2.0361 -1.3149
 1894SOL     OW 6580   6.351   1.175   6.503  0.5960 -0.4825  0.0424
 1894SOL    HW1 6581   6.340   1.093   6.559 -0.0651 -1.0386 -0.8792
 1894SOL    HW2 6582   6.279   1.241   6.527  1.1313 -0.1539  0.7863
 1895SOL     OW 6583   5.874   0.352   0.216  0.2169 -0.6403 -0.5536
 1895SOL    HW1 6584   5.800   0.284   0.222  1.6235 -2.1674  3.3409
 1895SOL    HW2 6585   5.962   0.306   0.229  1.3730  1.7008  0.6214
 1896SOL     OW 6586   5.978   5.415   0.708  0.2739  0.2845  0.1430
 1896SOL    HW1 6587   6.015   5.470   0.783  1.3412  1.5140 -1.2238
 1896SOL    HW2 6588   6.011   5.452   0.621 -0.7135 -1.2675 -0.9259
 1897SOL     OW 6589   3.290   6.820   5.297  0.5551 -0.4186 -0.4091
 1897SOL    HW1 6590   3.302   6.852   5.203  0.2219  0.0016 -0.3116
 1897SOL    HW2 6591   3.359   6.863   5.355  0.0732  0.1773 -0.2682
 1898SOL     OW 6592   4.630   4.687   6.224 -0.1524  0.1086 -0.1381
 1898SOL    HW1 6593   4.708   4.749   6.212 -1.6823  1.9705 -0.9551
 1898SOL    HW2 6594   4.583   4.675   6.137 -0.7080 -1.1164  0.3051
 1899SOL     OW 6595   6.934   4.443   1.038  0.1482  0.0151 -0.0093
 1899SOL    HW1 6596   6.839   4.458   1.011 -0.4146 -0.2825  1.6767
 1899SOL    HW2 6597   6.946   4.348   1.067  0.6802  0.3192  0.8176
 1900SOL     OW 6598   4.826   1.098   2.650  0.0399  0.3303  0.4261
 1900SOL    HW1 6599   4.881   1.124   2.730  1.6558 -1.2641 -0.0894
 1900SOL    HW2 6600   4.828   1.172   2.584 -0.3705  1.2201  1.3811
 1901SOL     OW 6601   6.875   1.563   4.985  0.3314  0.0471 -0.1191
 1901SOL    HW1 6602   6.851   1.544   5.081 -0.2196 -0.3512 -0.3296
 1901SOL    HW2 6603   6.902   1.658   4.976 -0.5034  0.3332  0.2675
 1902SOL     OW 6604   1.809   4.830   2.904 -0.0343  0.1686 -0.3527
 1902SOL    HW1 6605   1.730   4.869   2.856 -0.3480 -2.0331 -1.7781
 1902SOL    HW2 6606   1.778   4.764   2.972  0.5272  1.3842  1.1401
 1903SOL     OW 6607   0.297   1.944   1.647  0.3473  0.1648 -0.0266
 1903SOL    HW1 6608   0.361   2.003   1.696 -0.2048 -0.6551  1.7441
 1903SOL    HW2 6609   0.309   1.850   1.677  0.7040 -0.5726 -2.2652
 1904SOL     OW 6610   1.111   5.461   4.186 -0.2326 -1.0293  0.1045
 1904SOL    HW1 6611   1.149   5.462   4.278 -0.8861 -0.4233  0.3784
 1904SOL    HW2 6612   1.014   5.487   4.189 -1.1173 -3.8869 -0.3867
 1905SOL     OW 6613   6.010   0.397   5.551 -0.0380 -0.2274  0.3688
 1905SOL    HW1 6614   5.933   0.392   5.487 -0.9624  1.1365  1.3452
 1905SOL    HW2 6615   6.014   0.313   5.605 -0.4341 -0.5797 -0.1418
 1906SOL     OW 6616   0.733   4.656   4.162  0.3969  0.0947 -0.2473
 1906SOL    HW1 6617   0.831   4.637   4.166  0.9667  2.1197 -2.1257
 1906SOL    HW2 6618   0.696   4.663   4.254  2.0445 -0.5431  0.5032
 1907SOL     OW 6619   5.355   6.063   6.342 -0.0984  0.0034 -0.0959
 1907SOL    HW1 6620   5.327   6.072   6.247 -2.5536  0.4380  0.5879
 1907SOL    HW2 6621   5.360   6.153   6.385  0.9139 -0.1923  0.2236
 1908SOL     OW 6622   4.989   6.624   2.875  0.3509  0.0907 -1.2957
 1908SOL    HW1 6623   5.009   6.688   2.801 -1.5695  0.4480 -1.5519
 1908SOL    HW2 6624   4.906   6.573   2.854 -0.9099  1.0015  1.0680
 1909SOL     OW 6625   5.791   6.685   1.319  0.1961  0.2248  0.3512
 1909SOL    HW1 6626   5.808   6.587   1.321 -0.5388  0.0122 -1.4681
 1909SOL    HW2 6627   5.725   6.706   1.246  0.4322  2.0829  0.6181
 1910SOL     OW 6628   5.877   3.431   3.513 -0.1539  0.0486 -0.6081
 1910SOL    HW1 6629   5.953   3.381   3.554 -0.6839  0.2175  0.6255
 1910SOL    HW2 6630   5.793   3.408   3.562 -0.5368  1.5236 -0.5453
 1911SOL     OW 6631   4.506   4.897   3.389  0.4419  0.2512 -0.0612
 1911SOL    HW1 6632   4.605   4.911   3.393  0.8607 -2.3613  0.5720
 1911SOL    HW2 6633   4.470   4.885   3.481 -0.2867  0.1722 -0.3457
 1912SOL     OW 6634   2.054   4.819   2.813 -0.2204  0.9051  0.0321
 1912SOL    HW1 6635   1.958   4.814   2.842 -0.2632  1.6869  0.0441
 1912SOL    HW2 6636   2.101   4.734   2.839 -1.5076 -0.6047 -2.1958
 1913SOL     OW 6637   1.567   4.705   0.237  0.5224 -0.5784  0.0672
 1913SOL    HW1 6638   1.620   4.763   0.298 -2.8399  2.1347  0.7695
 1913SOL    HW2 6639   1.560   4.748   0.147  1.1463 -1.9350 -0.6644
 1914SOL     OW 6640   4.879   6.607   3.974  0.4526  0.1565  0.2403
 1914SOL    HW1 6641   4.868   6.525   4.030  1.0835 -0.9862 -1.2543
 1914SOL    HW2 6642   4.949   6.592   3.905  0.4812  1.9163 -0.1791
 1915SOL     OW 6643   5.821   0.896   6.779 -0.3307 -0.6846  0.1079
 1915SOL    HW1 6644   5.770   0.969   6.823 -0.6399 -0.8350 -0.0037
 1915SOL    HW2 6645   5.896   0.936   6.725  0.6854 -0.5484  1.5632
 1916SOL     OW 6646   5.618   1.057   6.841  0.1229  0.3233 -0.4138
 1916SOL    HW1 6647   5.619   1.116   6.760  0.9317 -0.1635 -0.7727
 1916SOL    HW2 6648   5.524   1.036   6.866 -0.1436  0.7663 -1.0145
 1917SOL     OW 6649   1.770   0.301   4.370 -0.5414 -0.0617 -0.0583
 1917SOL    HW1 6650   1.786   0.388   4.417 -2.5690 -0.0112  0.6158
 1917SOL    HW2 6651   1.826   0.229   4.414  2.5602  1.1132 -1.7474
 1918SOL     OW 6652   1.885   6.431   2.478  0.6360 -0.2259  0.3101
 1918SOL    HW1 6653   1.885   6.490   2.397  1.1218 -0.9121 -0.2017
 1918SOL    HW2 6654   1.938   6.474   2.551  0.1051  0.4475  0.3148
 1919SOL     OW 6655   6.539   2.206   1.502  0.0616  0.4753  0.3476
 1919SOL    HW1 6656   6.534   2.250   1.592  0.8100 -0.7436  1.0287
 1919SOL    HW2 6657   6.473   2.130   1.499 -0.1293  0.6613 -0.2227
 1920SOL     OW 6658   1.878   7.014   3.595  0.5083 -0.5328 -0.2133
 1920SOL    HW1 6659   1.878   6.992   3.497  1.3443 -1.3960 -0.0410
 1920SOL    HW2 6660   1.932   7.096   3.611 -0.2796  0.0601 -0.5578
 1921SOL     OW 6661   3.980   0.096   5.462  0.1706  0.1847  0.3274
 1921SOL    HW1 6662   3.885   0.082   5.434 -0.4114 -0.0037  2.2349
 1921SOL    HW2 6663   3.985   0.172   5.527  1.0940 -0.6824  1.3084
 1922SOL     OW 6664   3.141   1.146   5.452 -0.1362  0.5030 -0.5702
 1922SOL    HW1 6665   3.047   1.124   5.426 -1.1300  0.2831  2.7177
 1922SOL    HW2 6666   3.149   1.244   5.471  0.1197  0.4094 -0.1848
 1923SOL     OW 6667   3.506   6.625   1.105 -0.1018 -0.2457  0.2529
 1923SOL    HW1 6668   3.484   6.533   1.074 -1.5295  0.3760 -0.6555
 1923SOL    HW2 6669   3.487   6.634   1.203  0.3537 -0.9953  0.4141
 1924SOL     OW 6670   6.630   2.907   4.665 -0.4083  0.3640 -0.3016
 1924SOL    HW1 6671   6.602   2.889   4.571  1.6250  1.1660 -1.1042
 1924SOL    HW2 6672   6.622   3.005   4.685  2.2551  0.7673 -0.8018
 1925SOL     OW 6673   2.840   4.992   2.472 -0.6304 -0.2833 -0.5204
 1925SOL    HW1 6674   2.897   4.938   2.410  0.2788 -1.5571  1.3229
 1925SOL    HW2 6675   2.890   5.072   2.504 -0.1442 -0.9169  0.3852
 1926SOL     OW 6676   5.549   4.377   2.166 -0.0971 -0.4510  0.2040
 1926SOL    HW1 6677   5.564   4.475   2.175  0.1613 -0.4748  0.0425
 1926SOL    HW2 6678   5.564   4.332   2.254  0.2565 -0.4062  0.1679
 1927SOL     OW 6679   5.531   5.299   3.599  0.7987  0.1464 -0.2131
 1927SOL    HW1 6680   5.456   5.364   3.601  0.2051 -0.4233 -1.9701
 1927SOL    HW2 6681   5.514   5.226   3.666  0.8324  1.0862  0.8398
 1928SOL     OW 6682   3.408   6.639   0.195 -0.3291 -0.6039 -0.0805
 1928SOL    HW1 6683   3.501   6.601   0.193  0.0717  0.2867  0.6158
 1928SOL    HW2 6684   3.361   6.617   0.110  0.5956 -0.8946 -0.5330
 1929SOL     OW 6685   3.833   1.397   5.451  0.3500  0.5289  0.3862
 1929SOL    HW1 6686   3.821   1.298   5.452 -0.5843  0.6279  0.8027
 1929SOL    HW2 6687   3.925   1.421   5.482  0.7804 -0.2216 -0.2848
 1930SOL     OW 6688   1.686   0.867   6.317  0.7055 -0.2750  0.0148
 1930SOL    HW1 6689   1.696   0.946   6.256  1.3211  0.6449  1.2658
 1930SOL    HW2 6690   1.665   0.899   6.410  0.2724 -1.6220  0.4030
 1931SOL     OW 6691   5.077   3.049   6.440 -0.3265  0.1304 -0.0485
 1931SOL    HW1 6692   5.111   3.137   6.472  1.6506 -0.8449  0.6818
 1931SOL    HW2 6693   5.154   2.988   6.419 -1.6260 -1.5610 -0.1510
 1932SOL     OW 6694   7.014   1.944   4.032  0.3887  0.6287  0.6243
 1932SOL    HW1 6695   6.982   1.932   3.938  1.2578  0.4516  0.3397
 1932SOL    HW2 6696   7.019   1.855   4.077  2.4886  0.3763 -0.0243
 1933SOL     OW 6697   1.805   4.653   0.025  0.5370 -0.1941 -0.5552
 1933SOL    HW1 6698   1.753   4.611   0.099  1.6100 -1.1877 -0.3347
 1933SOL    HW2 6699   1.746   4.662  -0.056  0.3794 -2.7558 -0.8222
 1934SOL     OW 6700   3.793   2.979   4.465 -0.6110  0.3470 -0.2150
 1934SOL    HW1 6701   3.869   3.009   4.407  0.1670 -0.1107  0.5511
 1934SOL    HW2 6702   3.785   3.039   4.544 -1.0086  0.3601 -0.2644
 1935SOL     OW 6703   0.248   0.096   6.073 -0.0266  0.7432  0.0413
 1935SOL    HW1 6704   0.192   0.176   6.094  0.4101  1.0022  0.2272
 1935SOL    HW2 6705   0.342   0.112   6.102 -0.2021 -0.3467  1.3602
 1936SOL     OW 6706   1.905   6.845   2.102 -0.5053  0.0507  0.2618
 1936SOL    HW1 6707   1.817   6.888   2.082  0.5349  1.8569 -0.6904
 1936SOL    HW2 6708   1.974   6.916   2.116  0.9933 -1.3342  0.1508
 1937SOL     OW 6709   0.155   4.290   2.052  0.0789 -0.1483  0.5124
 1937SOL    HW1 6710   0.137   4.243   2.138  1.1141 -2.5558 -0.5004
 1937SOL    HW2 6711   0.211   4.371   2.069  0.1536 -0.5041  2.1082
 1938SOL     OW 6712   1.843   5.951   1.061  0.1078 -0.1994  0.3384
 1938SOL    HW1 6713   1.804   5.938   0.970 -0.5221  1.7600  0.2754
 1938SOL    HW2 6714   1.907   6.028   1.058  1.6633 -1.4113  1.1297
 1939SOL     OW 6715   4.161   2.480   1.661 -0.7696  0.3161 -0.4839
 1939SOL    HW1 6716   4.194   2.389   1.637  0.3194  0.4540  0.3513
 1939SOL    HW2 6717   4.062   2.479   1.671 -0.8674 -0.5472 -1.3863
 1940SOL     OW 6718   4.540   2.420   6.301  0.1069 -0.8988  0.0069
 1940SOL    HW1 6719   4.464   2.421   6.235  0.4518  1.0994 -0.4029
 1940SOL    HW2 6720   4.534   2.500   6.361  0.6888 -1.8642  1.4195
 1941SOL     OW 6721   6.682   0.528   6.249 -0.2780  0.2092 -0.1973
 1941SOL    HW1 6722   6.732   0.613   6.265  0.6397  0.1716 -2.4449
 1941SOL    HW2 6723   6.746   0.453   6.238 -0.9724 -0.3583 -0.4147
 1942SOL     OW 6724   2.292   4.450   5.774  0.2734 -0.2840  0.0526
 1942SOL    HW1 6725   2.380   4.404   5.768  1.3157  1.4404  1.0984
 1942SOL    HW2 6726   2.233   4.422   5.698  1.7600 -1.3876 -0.7214
 1943SOL     OW 6727   0.913   0.138   1.302 -0.3630 -0.4819 -0.2835
 1943SOL    HW1 6728   0.832   0.126   1.359 -0.7738 -0.3499 -0.8286
 1943SOL    HW2 6729   0.989   0.085   1.340  0.5314  2.5560  2.5887
 1944SOL     OW 6730   6.049   1.117   6.884 -0.1430  0.3106  0.6816
 1944SOL    HW1 6731   6.064   1.216   6.877 -1.0605  0.3519 -1.5442
 1944SOL    HW2 6732   5.960   1.100   6.927 -0.6202  0.5392 -0.1717
 1945SOL     OW 6733   3.365   2.460   1.352 -0.2556 -0.5827  0.1729
 1945SOL    HW1 6734   3.402   2.553   1.361 -0.5436 -0.1361 -2.4522
 1945SOL    HW2 6735   3.295   2.446   1.421  0.4486  0.8059  1.2355
 1946SOL     OW 6736   4.325   0.901   5.108 -0.6295  0.6225 -0.0083
 1946SOL    HW1 6737   4.306   0.873   5.202  1.0347  1.7905  0.7302
 1946SOL    HW2 6738   4.257   0.969   5.080 -1.3890 -0.0414  0.1780
 1947SOL     OW 6739   6.348   2.369   2.858 -0.3156 -0.1379  0.0516
 1947SOL    HW1 6740   6.360   2.328   2.949  1.6123 -0.6826 -0.4111
 1947SOL    HW2 6741   6.254   2.402   2.849 -0.6148 -0.2703  2.1593
 1948SOL     OW 6742   6.238   6.399   4.708 -0.2896 -0.3042  0.2372
 1948SOL    HW1 6743   6.150   6.406   4.755  0.3607 -2.5443  1.9700
 1948SOL    HW2 6744   6.261   6.303   4.694  1.4045  0.2456 -1.1911
 1949SOL     OW 6745   5.713   1.662   4.757 -0.1619 -0.1173 -0.7582
 1949SOL    HW1 6746   5.727   1.731   4.686 -0.7914 -0.7166 -1.4786
 1949SOL    HW2 6747   5.753   1.575   4.728 -0.2473 -0.3178 -0.2878
 1950SOL     OW 6748   5.098   6.291   4.202 -0.1583  0.0425 -0.1896
 1950SOL    HW1 6749   5.095   6.213   4.138 -0.3364  0.7304 -1.0431
 1950SOL    HW2 6750   5.144   6.263   4.286  0.4720 -0.7824 -0.7832
 1951SOL     OW 6751   1.369   5.202   5.202  0.5384 -0.2403  0.3480
 1951SOL    HW1 6752   1.328   5.124   5.153 -0.0188  1.0578 -1.3791
 1951SOL    HW2 6753   1.379   5.279   5.138  0.7537  1.2162  2.0721
 1952SOL     OW 6754   5.994   3.719   2.197  0.0643  0.4432  0.1817
 1952SOL    HW1 6755   6.067   3.710   2.265  1.4612  0.7993 -1.2143
 1952SOL    HW2 6756   6.028   3.768   2.118 -2.0827  1.7610 -0.0129
 1953SOL     OW 6757   5.849   5.073   1.802 -0.0769 -0.5161  0.3474
 1953SOL    HW1 6758   5.822   5.094   1.896 -0.2450 -0.2315  0.2349
 1953SOL    HW2 6759   5.913   5.143   1.769  0.0230 -0.6443  0.2665
 1954SOL     OW 6760   6.637   0.414   1.083 -0.3827 -0.4253  0.1587
 1954SOL    HW1 6761   6.714   0.443   1.026 -0.5757  0.3842  0.2936
 1954SOL    HW2 6762   6.619   0.484   1.152 -0.3642 -1.2424  1.0088
 1955SOL     OW 6763   1.345   1.698   5.553 -0.3761 -0.3707  0.5307
 1955SOL    HW1 6764   1.391   1.774   5.508  0.2484 -2.2082 -2.1966
 1955SOL    HW2 6765   1.401   1.667   5.631  0.6759  0.3100  0.0700
 1956SOL     OW 6766   5.711   3.542   4.163  0.0858 -0.1516  0.2687
 1956SOL    HW1 6767   5.649   3.545   4.241 -0.8122 -0.3716 -0.4161
 1956SOL    HW2 6768   5.724   3.447   4.135 -1.7616  0.0348 -1.4858
 1957SOL     OW 6769   4.316   2.037   3.418 -0.1804  0.3603 -0.6927
 1957SOL    HW1 6770   4.400   2.020   3.469  0.1805  0.3999 -1.2662
 1957SOL    HW2 6771   4.337   2.091   3.337 -0.7093  0.0743 -1.0238
 1958SOL     OW 6772   1.430   1.946   1.261 -0.1894 -0.0573 -0.1321
 1958SOL    HW1 6773   1.417   1.951   1.162 -3.3675  1.9262  0.2264
 1958SOL    HW2 6774   1.511   1.998   1.287  0.9061 -0.9043 -1.6349
 1959SOL     OW 6775   0.943   3.583   6.763 -0.0623  0.3892 -0.7507
 1959SOL    HW1 6776   1.016   3.584   6.694  0.1643  0.1954 -0.5164
 1959SOL    HW2 6777   0.963   3.653   6.832 -1.1535  1.7632 -1.7595
 1960SOL     OW 6778   5.529   5.951   6.559 -0.1867 -0.1716 -0.0236
 1960SOL    HW1 6779   5.606   6.012   6.541 -0.1845 -0.2934 -0.4360
 1960SOL    HW2 6780   5.455   5.971   6.495 -0.3485 -0.3180  0.1166
 1961SOL     OW 6781   0.033   4.539   1.420 -0.0773  0.1915 -0.0867
 1961SOL    HW1 6782   0.021   4.605   1.346  0.8596 -1.8503 -2.1933
 1961SOL    HW2 6783   0.126   4.503   1.417 -0.2383 -0.4463  1.7015
 1962SOL     OW 6784   3.547   4.927   2.825 -0.5408  0.2858 -0.6634
 1962SOL    HW1 6785   3.475   4.892   2.765  0.4239 -0.6219 -1.3253
 1962SOL    HW2 6786   3.637   4.907   2.785  0.1281 -0.3139  1.0667
 1963SOL     OW 6787   3.666   4.193   1.853  0.1300 -0.0672  0.4399
 1963SOL    HW1 6788   3.615   4.248   1.787 -0.6243 -0.1366  0.9557
 1963SOL    HW2 6789   3.621   4.198   1.942 -0.6213 -2.4079  0.2481
 1964SOL     OW 6790   2.023   2.983   6.028  0.2319 -0.7213  0.0643
 1964SOL    HW1 6791   2.074   3.069   6.030  1.7750 -1.5225 -2.0442
 1964SOL    HW2 6792   1.951   2.989   5.958  0.3926 -1.1611 -0.1401
 1965SOL     OW 6793   0.479   3.575   5.392  0.2011  0.2860 -0.2364
 1965SOL    HW1 6794   0.480   3.479   5.418  0.4797 -0.2106 -1.9662
 1965SOL    HW2 6795   0.572   3.612   5.395  0.1823  0.3307 -0.1903
 1966SOL     OW 6796   0.041   0.274   1.083 -0.0134 -0.6369 -0.0780
 1966SOL    HW1 6797   0.118   0.211   1.080 -0.8011 -1.6105 -0.3129
 1966SOL    HW2 6798  -0.041   0.229   1.047 -0.6617  0.4311  0.0049
 1967SOL     OW 6799   0.465   5.711   4.772  0.2815  0.5709  0.2986
 1967SOL    HW1 6800   0.438   5.797   4.816  0.7594  0.5381  0.6549
 1967SOL    HW2 6801   0.542   5.671   4.821  1.7998  1.2717 -1.4160
 1968SOL     OW 6802   1.629   6.564   3.288  0.1813  0.2855  0.8829
 1968SOL    HW1 6803   1.701   6.610   3.341  0.1048 -0.2892  1.5055
 1968SOL    HW2 6804   1.627   6.467   3.313 -0.4292  0.1826  0.4434
 1969SOL     OW 6805   1.445   3.515   0.610  0.0845  0.2571 -0.2751
 1969SOL    HW1 6806   1.497   3.447   0.662  1.8296  1.9054  0.2537
 1969SOL    HW2 6807   1.428   3.481   0.517  2.7914 -0.1149 -0.7122
 1970SOL     OW 6808   5.351   1.757   1.395 -0.6597 -0.1615 -0.6642
 1970SOL    HW1 6809   5.256   1.744   1.422 -0.6330  2.0580  0.6943
 1970SOL    HW2 6810   5.377   1.852   1.407  2.2059 -0.9808  0.6371
 1971SOL     OW 6811   1.429   2.505   1.519  0.1995  0.1812  0.2326
 1971SOL    HW1 6812   1.520   2.540   1.546  0.4760 -0.0868 -0.3469
 1971SOL    HW2 6813   1.440   2.421   1.467 -0.4809 -0.9456  1.8394
 1972SOL     OW 6814   5.474   3.783   4.627 -0.1261  0.6039  0.0079
 1972SOL    HW1 6815   5.484   3.878   4.597  2.6730  0.6973  0.9765
 1972SOL    HW2 6816   5.475   3.778   4.727 -0.0633 -0.4636 -0.0281
 1973SOL     OW 6817   0.198   6.702   5.911 -0.3953  0.1260 -0.7001
 1973SOL    HW1 6818   0.190   6.759   5.992  2.9458  0.3652 -0.3890
 1973SOL    HW2 6819   0.123   6.635   5.909 -1.8243  1.5684  1.3204
 1974SOL     OW 6820   6.750   5.143   3.588 -0.1239  0.2151 -0.5621
 1974SOL    HW1 6821   6.663   5.186   3.608  0.0735  1.5606 -2.3620
 1974SOL    HW2 6822   6.738   5.075   3.516  0.1281 -0.4476  0.0098
 1975SOL     OW 6823   0.882   0.548   3.694 -0.0763  0.1454 -0.0679
 1975SOL    HW1 6824   0.977   0.571   3.717 -0.4000  2.3294 -0.7227
 1975SOL    HW2 6825   0.847   0.613   3.627 -2.1331 -0.4869  0.3208
 1976SOL     OW 6826   4.803   5.650   4.949  0.3437 -0.0373  0.1759
 1976SOL    HW1 6827   4.829   5.601   5.032 -0.3768  0.0489  0.4591
 1976SOL    HW2 6828   4.719   5.611   4.912 -0.5325  1.3167  0.6987
 1977SOL     OW 6829   5.607   5.748   5.789 -0.1733  0.4807  0.2767
 1977SOL    HW1 6830   5.608   5.828   5.849 -1.5343 -0.0146  1.0047
 1977SOL    HW2 6831   5.541   5.764   5.715  1.3568  1.0144 -1.0425
 1978SOL     OW 6832   0.937   5.109   5.807 -0.0632  0.4259  0.2159
 1978SOL    HW1 6833   0.851   5.147   5.842 -1.0676 -2.9912  1.9631
 1978SOL    HW2 6834   0.991   5.073   5.882  1.3119 -0.4957 -1.1521
 1979SOL     OW 6835   2.904   1.016   1.872  0.2033 -0.6762 -0.2389
 1979SOL    HW1 6836   2.955   1.080   1.929  0.1255 -0.4090 -0.4634
 1979SOL    HW2 6837   2.848   0.957   1.930 -0.8395  0.4114 -0.0728
 1980SOL     OW 6838   3.783   1.583   1.793 -0.0622  0.5808 -0.1529
 1980SOL    HW1 6839   3.789   1.663   1.853 -1.2821  0.2595  0.4343
 1980SOL    HW2 6840   3.801   1.610   1.699 -0.9409  1.6585 -0.0350
 1981SOL     OW 6841   6.043   3.284   2.296 -0.4402  0.4482  0.6291
 1981SOL    HW1 6842   6.048   3.216   2.369 -0.7228  0.2623  0.4799
 1981SOL    HW2 6843   6.135   3.313   2.271 -0.3281  0.2882  0.8492
 1982SOL     OW 6844   3.037   5.238   2.264  0.3078  0.5706  0.0105
 1982SOL    HW1 6845   3.003   5.153   2.224 -0.0206  1.0306 -0.7007
 1982SOL    HW2 6846   2.982   5.263   2.343 -0.0520  0.5046 -0.2183
 1983SOL     OW 6847   5.010   6.035   3.311 -0.0747 -0.1604 -0.2422
 1983SOL    HW1 6848   5.020   6.134   3.308  0.4435 -0.1502  1.1255
 1983SOL    HW2 6849   4.914   6.011   3.326 -0.3989  0.0757 -1.7722
 1984SOL     OW 6850   3.165   4.640   5.264 -0.2509 -0.3656  0.0435
 1984SOL    HW1 6851   3.228   4.564   5.279  0.9587  0.8728  1.7003
 1984SOL    HW2 6852   3.073   4.606   5.248  0.6308 -2.2096 -1.4397
 1985SOL     OW 6853   3.864   7.018   4.580  0.3849 -0.1878 -0.0201
 1985SOL    HW1 6854   3.844   7.115   4.566 -0.5461 -0.3111  0.3373
 1985SOL    HW2 6855   3.814   6.964   4.512 -1.5748 -0.5823  1.6364
 1986SOL     OW 6856   6.853   5.571   5.071  0.1991  0.1099  0.1282
 1986SOL    HW1 6857   6.869   5.481   5.111  0.5712 -0.8441 -2.0006
 1986SOL    HW2 6858   6.802   5.628   5.135  1.3259 -1.0543  2.1596
 1987SOL     OW 6859   3.387   5.975   0.182 -0.3580 -0.4593  0.3467
 1987SOL    HW1 6860   3.484   5.951   0.172 -0.0132  1.0667 -0.3202
 1987SOL    HW2 6861   3.342   5.967   0.093 -0.8827 -1.2574  0.6762
 1988SOL     OW 6862   4.463   2.154   4.924 -0.8858  0.2612  0.3932
 1988SOL    HW1 6863   4.471   2.213   5.004  4.1175 -1.3566  1.3861
 1988SOL    HW2 6864   4.519   2.191   4.850 -0.8217 -1.2397 -0.3425
 1989SOL     OW 6865   3.098   2.018   1.742 -0.0887 -0.1269 -0.3897
 1989SOL    HW1 6866   3.177   2.030   1.802  0.8944  1.1551 -1.8483
 1989SOL    HW2 6867   3.022   2.072   1.777  1.2526  2.7275 -1.5269
 1990SOL     OW 6868   2.096   5.575   1.060  0.3177  0.2174  0.5559
 1990SOL    HW1 6869   2.012   5.622   1.088  1.3347  1.2740  1.9841
 1990SOL    HW2 6870   2.093   5.480   1.088 -0.2497  0.3506  0.9562
 1991SOL     OW 6871   5.461   2.011   4.454 -0.5611  0.4119  0.4860
 1991SOL    HW1 6872   5.409   1.926   4.447  2.6988 -1.7835  0.5704
 1991SOL    HW2 6873   5.519   2.008   4.536  2.0165  1.1839 -1.1740
 1992SOL     OW 6874   3.908   3.010   4.027  0.6251  0.3793  0.3556
 1992SOL    HW1 6875   3.941   2.940   4.091 -0.5444  0.0095  0.5857
 1992SOL    HW2 6876   3.809   2.998   4.014  0.9050  0.1119 -1.9162
 1993SOL     OW 6877   3.161   3.427   5.054 -0.3843 -0.1207 -0.2144
 1993SOL    HW1 6878   3.094   3.498   5.032  0.2819  0.8004  0.6494
 1993SOL    HW2 6879   3.122   3.363   5.120 -0.7365 -0.1620 -0.4557
 1994SOL     OW 6880   4.969   0.396   2.853  0.1783 -0.1947 -0.4930
 1994SOL    HW1 6881   5.033   0.397   2.777  0.0587  2.0149 -0.6231
 1994SOL    HW2 6882   4.981   0.479   2.908 -1.1710 -0.7372  0.6817
 1995SOL     OW 6883   6.707   4.885   6.031 -0.4206 -0.1279  0.3617
 1995SOL    HW1 6884   6.619   4.912   5.991 -0.2298 -1.3893 -0.9857
 1995SOL    HW2 6885   6.703   4.898   6.130 -2.5925 -1.3038  0.5043
 1996SOL     OW 6886   4.749   3.633   6.560 -0.6127 -0.5199 -0.2829
 1996SOL    HW1 6887   4.688   3.586   6.625 -0.5786 -1.2419 -0.7606
 1996SOL    HW2 6888   4.755   3.730   6.584  1.4464 -1.1894  2.4338
 1997SOL     OW 6889   4.363   6.734   3.988 -0.4567  0.3829 -0.3977
 1997SOL    HW1 6890   4.432   6.729   4.061 -0.3335  2.4972 -0.3139
 1997SOL    HW2 6891   4.272   6.739   4.029 -0.4163  1.1077 -0.3826
 1998SOL     OW 6892   0.256   2.170   3.535  0.3054 -0.7783 -0.0328
 1998SOL    HW1 6893   0.260   2.100   3.463 -0.5502 -0.1072 -0.7526
 1998SOL    HW2 6894   0.161   2.194   3.553  0.5977  0.3086  0.0920
 1999SOL     OW 6895   6.494   5.229   6.414  0.2319 -0.3026  0.0389
 1999SOL    HW1 6896   6.525   5.297   6.480 -0.4099 -1.1437  1.2228
 1999SOL    HW2 6897   6.398   5.244   6.392  0.2265 -0.5181 -0.0940
 2000SOL     OW 6898   5.134   4.229   3.102  0.1438 -0.2698  0.4605
 2000SOL    HW1 6899   5.113   4.152   3.042  0.5909 -0.4243  0.5066
 2000SOL    HW2 6900   5.101   4.210   3.194  0.4506 -0.4944  0.5222
 2001SOL     OW 6901   0.536   0.113   0.777  0.1161 -0.3272  0.3979
 2001SOL    HW1 6902   0.604   0.156   0.717  0.6215 -0.8151  0.6064
 2001SOL    HW2 6903   0.463   0.178   0.797 -0.4752 -0.4029 -1.3810
 2002SOL     OW 6904   6.509   2.614   6.891 -0.0408 -0.4988  0.3552
 2002SOL    HW1 6905   6.449   2.676   6.940 -0.2600 -0.1594 -0.3254
 2002SOL    HW2 6906   6.459   2.572   6.815  0.8096  0.5025 -0.8043
 2003SOL     OW 6907   5.231   6.508   1.877 -0.2889 -0.4435 -0.4923
 2003SOL    HW1 6908   5.192   6.571   1.944  0.9478  1.7482 -1.7301
 2003SOL    HW2 6909   5.311   6.462   1.916  0.3069  0.6686 -0.3741
 2004SOL     OW 6910   1.534   4.870   0.792 -0.2358 -0.1801 -0.1970
 2004SOL    HW1 6911   1.606   4.847   0.858 -1.0831  0.6508  1.0622
 2004SOL    HW2 6912   1.571   4.929   0.721  0.2799  0.4295  0.5653
 2005SOL     OW 6913   3.017   2.062   2.722 -0.1405 -0.2747  0.2384
 2005SOL    HW1 6914   2.925   2.024   2.731  0.1972 -1.2701 -0.3002
 2005SOL    HW2 6915   3.048   2.094   2.811 -0.4477 -1.3196  0.7437
 2006SOL     OW 6916   4.735   3.655   6.965 -0.0112 -0.5743 -0.2897
 2006SOL    HW1 6917   4.636   3.668   6.965  0.0160 -0.2769  0.6317
 2006SOL    HW2 6918   4.756   3.560   6.944 -0.5157 -0.7477 -0.0390
 2007SOL     OW 6919   0.392   5.876   3.921 -0.4446 -0.1001 -0.9444
 2007SOL    HW1 6920   0.442   5.893   4.006 -1.0853  0.0780 -0.5921
 2007SOL    HW2 6921   0.438   5.923   3.845  0.0267 -0.1031 -0.6644
 2008SOL     OW 6922   4.609   3.508   5.721  0.1214 -0.3102  0.1086
 2008SOL    HW1 6923   4.625   3.422   5.770  0.3290  0.5672  1.6735
 2008SOL    HW2 6924   4.677   3.518   5.648 -0.1379 -1.6247 -0.3416
 2009SOL     OW 6925   1.812   6.877   3.383 -0.0745 -0.2155  0.2675
 2009SOL    HW1 6926   1.855   6.789   3.404  0.8130  0.3338  0.7748
 2009SOL    HW2 6927   1.851   6.914   3.299 -0.0005 -0.0101  0.3918
 2010SOL     OW 6928   0.366   3.051   2.507  0.9963 -0.3926  0.0881
 2010SOL    HW1 6929   0.291   3.049   2.574  1.0938 -0.0046  0.2123
 2010SOL    HW2 6930   0.409   3.141   2.508  1.0615 -0.4125 -0.4298
 2011SOL     OW 6931   4.009   2.178   5.911 -0.0732 -0.5661 -0.1647
 2011SOL    HW1 6932   4.073   2.179   5.834  0.5049  0.2988  0.3069
 2011SOL    HW2 6933   3.987   2.084   5.935  1.6408 -0.9275  0.1392
 2012SOL     OW 6934   0.242   5.339   3.062 -0.0830 -0.2160  0.0981
 2012SOL    HW1 6935   0.152   5.359   3.101 -0.2273 -0.5828 -0.0442
 2012SOL    HW2 6936   0.235   5.334   2.963  0.8599  3.9438 -0.3866
 2013SOL     OW 6937   2.644   2.667   1.125  0.7783  0.3724 -0.0124
 2013SOL    HW1 6938   2.619   2.752   1.171  0.0487 -1.2407  2.7880
 2013SOL    HW2 6939   2.744   2.662   1.116  0.8870  1.1003  0.6647
 2014SOL     OW 6940   4.172   0.476   2.738 -0.6591  0.4224 -0.1320
 2014SOL    HW1 6941   4.201   0.569   2.719  0.3738  0.3373  0.8800
 2014SOL    HW2 6942   4.252   0.417   2.747 -1.2880 -0.5224 -0.5311
 2015SOL     OW 6943   4.682   2.060   6.953  0.2863  0.0448  0.4428
 2015SOL    HW1 6944   4.710   1.965   6.966  0.8386  0.2025  0.4227
 2015SOL    HW2 6945   4.654   2.100   7.041  0.4478 -0.0126  0.5199
 2016SOL     OW 6946   4.066   1.707   2.361  0.1305  0.7092  0.2697
 2016SOL    HW1 6947   3.996   1.678   2.295  0.1489 -0.7262  0.8521
 2016SOL    HW2 6948   4.028   1.778   2.421 -0.4334  0.7982 -0.1855
 2017SOL     OW 6949   2.677   6.907   6.879  0.3632  0.2648 -0.3200
 2017SOL    HW1 6950   2.703   6.863   6.793 -1.7151 -1.9098  0.0798
 2017SOL    HW2 6951   2.609   6.979   6.861 -0.2835 -0.3822 -0.4806
 2018SOL     OW 6952   6.931   4.749   0.819  0.0727 -0.0486  0.1329
 2018SOL    HW1 6953   6.998   4.675   0.827  0.0423  0.1007  2.5494
 2018SOL    HW2 6954   6.976   4.831   0.786  0.8330 -0.2867  0.5480
 2019SOL     OW 6955   2.624   0.113   1.389  0.3492  0.5377 -0.0769
 2019SOL    HW1 6956   2.592   0.120   1.294  1.7731  0.1341 -0.6176
 2019SOL    HW2 6957   2.715   0.070   1.390 -0.6385 -1.6806  1.6603
 2020SOL     OW 6958   4.358   3.929   0.453 -0.2294  0.0978 -0.6528
 2020SOL    HW1 6959   4.341   3.873   0.534  1.1953  1.1731  0.4351
 2020SOL    HW2 6960   4.382   4.022   0.481 -1.9430  1.1531 -2.3933
 2021SOL     OW 6961   5.488   1.208   2.616 -0.1825  0.2754  0.0186
 2021SOL    HW1 6962   5.508   1.123   2.665  1.8971 -0.2481 -1.5727
 2021SOL    HW2 6963   5.549   1.281   2.649  1.7600 -0.2673 -2.1024
 2022SOL     OW 6964   6.341   2.075   4.093  0.1151 -0.0387 -0.4679
 2022SOL    HW1 6965   6.296   2.020   4.023  0.5118 -0.3994 -0.4444
 2022SOL    HW2 6966   6.440   2.070   4.082  0.1541  1.7693 -1.2966
 2023SOL     OW 6967   2.513   0.784   4.543  0.1738 -1.0284  0.0279
 2023SOL    HW1 6968   2.421   0.747   4.529  0.4656 -1.8319  0.2238
 2023SOL    HW2 6969   2.557   0.799   4.454 -0.3087 -0.2005 -0.0844
 2024SOL     OW 6970   5.977   5.560   4.182  0.2850  0.6648  0.3294
 2024SOL    HW1 6971   6.034   5.617   4.123  1.4130 -0.6820  0.0828
 2024SOL    HW2 6972   6.019   5.470   4.194 -0.9609  0.1939  1.5109
 2025SOL     OW 6973   1.303   0.857   4.871 -0.3444 -0.3019  0.9380
 2025SOL    HW1 6974   1.204   0.847   4.860 -0.3536 -0.0353  0.7826
 2025SOL    HW2 6975   1.349   0.831   4.786 -0.1735 -2.0500  1.5365
 2026SOL     OW 6976   1.225   1.607   2.486 -0.1075 -0.0237  0.0813
 2026SOL    HW1 6977   1.197   1.674   2.555  0.9744  1.9144 -1.2622
 2026SOL    HW2 6978   1.320   1.580   2.501 -0.0219  0.0240 -0.3537
 2027SOL     OW 6979   0.271   3.714   4.758  0.2033  0.1016 -0.1130
 2027SOL    HW1 6980   0.191   3.705   4.817 -0.0917 -2.0168 -0.7551
 2027SOL    HW2 6981   0.246   3.689   4.664  1.5157 -0.2299 -0.3921
 2028SOL     OW 6982   1.303   6.926   5.655 -0.2548 -1.1222  0.0412
 2028SOL    HW1 6983   1.338   6.854   5.595  0.4465 -1.0757  0.3903
 2028SOL    HW2 6984   1.291   7.010   5.602  1.4142 -0.7705  0.1924
 2029SOL     OW 6985   2.537   1.256   2.791 -0.0941 -0.6772  0.5313
 2029SOL    HW1 6986   2.610   1.195   2.760 -0.3119 -1.2801  1.2052
 2029SOL    HW2 6987   2.451   1.232   2.746  0.1812  0.2835 -0.5654
 2030SOL     OW 6988   6.158   1.081   1.543  0.0132 -0.1207 -0.2327
 2030SOL    HW1 6989   6.128   1.114   1.633  0.0177 -1.5317  0.3149
 2030SOL    HW2 6990   6.079   1.063   1.486 -0.0139  0.1697 -0.2888
 2031SOL     OW 6991   1.367   1.192   1.300  0.0800  0.2959 -0.0088
 2031SOL    HW1 6992   1.380   1.112   1.242 -0.9606  0.2197 -0.1527
 2031SOL    HW2 6993   1.435   1.191   1.374  0.1825 -0.6222 -0.1025
 2032SOL     OW 6994   3.114   3.414   6.931 -0.1615  0.1736 -0.1096
 2032SOL    HW1 6995   3.174   3.335   6.942 -0.6082 -0.3195 -1.1031
 2032SOL    HW2 6996   3.026   3.396   6.973  0.0542  0.5202  0.4989
 2033SOL     OW 6997   3.858   6.049   5.148 -0.2796  0.0806 -0.2572
 2033SOL    HW1 6998   3.784   6.009   5.093  0.4364 -0.2563 -1.0036
 2033SOL    HW2 6999   3.839   6.036   5.245 -1.3892  0.3448 -0.4275
 2034SOL     OW 7000   2.852   2.230   4.547  0.1771  0.1705 -0.8862
 2034SOL    HW1 7001   2.943   2.193   4.528  0.2169 -0.1796 -0.0705
 2034SOL    HW2 7002   2.800   2.163   4.600 -0.2309  0.7461 -0.5500
 2035SOL     OW 7003   0.272   0.821   0.594  0.1560 -0.2866  0.2246
 2035SOL    HW1 7004   0.354   0.824   0.650 -0.5205 -0.7095  1.2755
 2035SOL    HW2 7005   0.286   0.760   0.516  0.6039 -0.8956  0.7753
 2036SOL     OW 7006   1.262   3.994   1.549 -0.0395  0.3056  0.1603
 2036SOL    HW1 7007   1.228   4.028   1.461 -1.4098 -2.4146 -0.4945
 2036SOL    HW2 7008   1.186   3.989   1.614  0.2773 -0.6659  0.4689
 2037SOL     OW 7009   2.205   3.569   0.685 -0.0962 -0.4728  0.3503
 2037SOL    HW1 7010   2.219   3.668   0.690 -4.0818  0.3077 -0.5758
 2037SOL    HW2 7011   2.214   3.538   0.591  1.5729 -1.1361  0.6990
 2038SOL     OW 7012   6.434   3.055   1.602 -0.4815 -0.0895  0.0618
 2038SOL    HW1 7013   6.451   3.058   1.701 -0.5036  0.0498  0.0610
 2038SOL    HW2 7014   6.337   3.069   1.585 -0.0954  2.9354 -0.1436
 2039SOL     OW 7015   1.088   0.633   0.881 -0.0959 -0.2262 -0.0884
 2039SOL    HW1 7016   0.988   0.626   0.885 -0.0953 -0.5153 -0.5374
 2039SOL    HW2 7017   1.115   0.680   0.797  0.1387  0.0601  0.1452
 2040SOL     OW 7018   6.580   5.215   5.067  0.3245 -0.5971 -0.3251
 2040SOL    HW1 7019   6.555   5.310   5.045  0.9691 -0.5297 -0.8088
 2040SOL    HW2 7020   6.512   5.176   5.129 -0.4936 -0.1468 -0.9230
 2041SOL     OW 7021   4.908   1.860   4.340  0.7606 -0.0645 -0.4627
 2041SOL    HW1 7022   4.949   1.878   4.429  1.5384  0.1439 -0.8545
 2041SOL    HW2 7023   4.889   1.762   4.331 -1.3506  0.1566  0.7668
 2042SOL     OW 7024   5.937   6.178   2.507 -0.0439  0.2753 -0.1594
 2042SOL    HW1 7025   5.886   6.249   2.459  1.2864  0.7600 -0.8922
 2042SOL    HW2 7026   5.995   6.220   2.577  1.1397 -0.0141 -0.9466
 2043SOL     OW 7027   6.333   2.223   4.681  0.0290 -0.2817  0.4316
 2043SOL    HW1 7028   6.380   2.153   4.735  2.0933  0.3786 -0.4066
 2043SOL    HW2 7029   6.327   2.193   4.585 -1.1199 -0.2530  0.4750
 2044SOL     OW 7030   5.364   6.693   1.208 -0.0633  0.4053  0.0999
 2044SOL    HW1 7031   5.308   6.750   1.266  0.4279  0.7628  0.2286
 2044SOL    HW2 7032   5.436   6.748   1.166 -0.4336  0.1636 -0.8801
 2045SOL     OW 7033   1.104   1.634   2.829 -0.4333 -0.2942 -0.1359
 2045SOL    HW1 7034   1.106   1.721   2.779 -0.6259 -0.3513 -0.2456
 2045SOL    HW2 7035   1.076   1.650   2.924  0.3080 -0.1359  0.0611
 2046SOL     OW 7036   4.007   0.134   6.884  0.0132  0.0759 -0.5665
 2046SOL    HW1 7037   3.939   0.076   6.839 -0.1622 -1.1536  1.1822
 2046SOL    HW2 7038   4.095   0.124   6.836 -0.3814 -0.4304 -1.2120
 2047SOL     OW 7039   4.504   7.007   4.692 -0.0461 -0.3245 -0.0493
 2047SOL    HW1 7040   4.454   7.094   4.690 -0.4122 -0.5333 -1.2345
 2047SOL    HW2 7041   4.444   6.935   4.727 -0.4350 -0.4691 -0.9606
 2048SOL     OW 7042   4.125   3.340   3.120 -0.3608 -0.2851 -0.3704
 2048SOL    HW1 7043   4.078   3.265   3.166  1.0612 -0.6009  0.6251
 2048SOL    HW2 7044   4.181   3.304   3.046 -2.3641  0.1879 -2.2419
 2049SOL     OW 7045   6.797   2.821   2.569  0.3834  0.4011  0.1912
 2049SOL    HW1 7046   6.790   2.729   2.530 -0.1521 -0.1636  1.5581
 2049SOL    HW2 7047   6.710   2.869   2.555  0.0527  0.0584  0.9717
 2050SOL     OW 7048   6.111   2.503   2.354 -0.0491  0.5616  0.0826
 2050SOL    HW1 7049   6.025   2.498   2.303 -0.0845 -0.3618  0.2124
 2050SOL    HW2 7050   6.112   2.433   2.425  0.5785  0.9317  0.4483
 2051SOL     OW 7051   0.732   1.093   6.524  0.3354  0.4278  0.1844
 2051SOL    HW1 7052   0.831   1.095   6.537  0.5159 -0.3442 -0.9346
 2051SOL    HW2 7053   0.705   1.005   6.486 -0.7632  0.7150  0.2581
 2052SOL     OW 7054   5.597   4.010   6.108  0.3689 -0.1968 -0.4820
 2052SOL    HW1 7055   5.661   4.082   6.136 -1.0246  0.0179  2.4864
 2052SOL    HW2 7056   5.517   4.052   6.064 -0.9617  0.3130  2.2345
 2053SOL     OW 7057   6.623   1.390   6.164  0.1345 -0.2419 -0.3515
 2053SOL    HW1 7058   6.682   1.331   6.110 -1.7157 -2.6229  0.0373
 2053SOL    HW2 7059   6.567   1.334   6.226 -1.6387  1.9459  0.1784
 2054SOL     OW 7060   6.916   5.567   2.919 -0.1848  0.0352  0.1939
 2054SOL    HW1 7061   6.858   5.550   2.840 -0.8774  0.6821  0.5618
 2054SOL    HW2 7062   7.006   5.598   2.888 -0.2166 -0.3973 -0.3522
 2055SOL     OW 7063   2.389   6.150   2.794  0.1666  0.5815  0.1503
 2055SOL    HW1 7064   2.392   6.112   2.702 -1.0658 -0.2605  0.4363
 2055SOL    HW2 7065   2.481   6.181   2.821  0.6040  0.5190 -1.2062
 2056SOL     OW 7066   4.270   1.640   2.526 -0.0993  0.0340  1.5837
 2056SOL    HW1 7067   4.194   1.652   2.463 -1.0926 -1.7188  2.3704
 2056SOL    HW2 7068   4.333   1.718   2.519  0.0881 -0.3015 -1.8508
 2057SOL     OW 7069   1.875   3.926   1.348 -0.3396 -0.1910  0.1210
 2057SOL    HW1 7070   1.834   3.911   1.258 -2.1165 -2.0301  1.1494
 2057SOL    HW2 7071   1.939   3.852   1.368  1.0797  0.9219 -0.1130
 2058SOL     OW 7072   0.382   2.400   4.659 -0.1380  0.2368  0.6061
 2058SOL    HW1 7073   0.353   2.416   4.753 -0.8240  1.0326  0.2724
 2058SOL    HW2 7074   0.482   2.396   4.655 -0.1234 -0.3919  1.4507
 2059SOL     OW 7075   0.482   1.151   1.746  0.4293  0.1974 -0.2030
 2059SOL    HW1 7076   0.500   1.168   1.649 -2.7910 -0.7320 -1.0816
 2059SOL    HW2 7077   0.451   1.236   1.789 -0.7522  0.0371 -0.7043
 2060SOL     OW 7078   3.723   3.216   3.044  0.2803 -0.4828  0.0472
 2060SOL    HW1 7079   3.779   3.225   2.961  1.2944  0.4721  0.8093
 2060SOL    HW2 7080   3.719   3.119   3.070  2.3447 -0.5169  0.4435
 2061SOL     OW 7081   1.637   3.240   4.090  0.1175 -0.0604 -0.7877
 2061SOL    HW1 7082   1.734   3.261   4.078  0.1970 -0.9864 -1.8969
 2061SOL    HW2 7083   1.582   3.317   4.057  0.4530 -0.0717 -1.3841
 2062SOL     OW 7084   6.934   0.042   1.757 -0.2266  0.6093  0.7186
 2062SOL    HW1 7085   7.017   0.076   1.712  0.4452  0.5430  1.8374
 2062SOL    HW2 7086   6.956  -0.044   1.805 -1.2159  0.0380  0.1695
 2063SOL     OW 7087   5.287   1.772   4.119 -0.4993 -0.2651 -0.1823
 2063SOL    HW1 7088   5.294   1.802   4.214  2.7103 -1.2066  0.0122
 2063SOL    HW2 7089   5.300   1.673   4.115 -1.1165 -0.3126 -1.5847
 2064SOL     OW 7090   2.992   0.165   5.008 -0.1825  0.0817  0.2198
 2064SOL    HW1 7091   2.926   0.239   4.991  1.4313  1.4924 -0.1934
 2064SOL    HW2 7092   3.083   0.194   4.977  0.3450 -2.4784 -0.9114
 2065SOL     OW 7093   6.657   5.732   6.731  0.0623  0.2649 -0.0455
 2065SOL    HW1 7094   6.561   5.755   6.716 -0.1725 -1.2246 -1.0510
 2065SOL    HW2 7095   6.674   5.719   6.829 -1.0337 -0.5137  0.0541
 2066SOL     OW 7096   1.580   0.693   6.114 -0.1117 -0.0442  0.4735
 2066SOL    HW1 7097   1.591   0.597   6.138  1.1182 -0.1952 -0.5897
 2066SOL    HW2 7098   1.637   0.749   6.174  0.4142 -0.1318  0.0636
 2067SOL     OW 7099   0.442   3.846   1.868 -0.4841 -0.4817  0.1621
 2067SOL    HW1 7100   0.410   3.820   1.777  0.0926  0.5626 -0.3563
 2067SOL    HW2 7101   0.431   3.945   1.880  0.0935 -0.5091  0.9689
 2068SOL     OW 7102   1.206   1.679   1.099 -0.1963  0.7375  0.0820
 2068SOL    HW1 7103   1.295   1.639   1.075 -0.4753  0.4753 -0.5397
 2068SOL    HW2 7104   1.162   1.624   1.170  0.9256  1.8794  1.7502
 2069SOL     OW 7105   6.614   4.084   1.245 -0.0095  0.4742 -0.2343
 2069SOL    HW1 7106   6.649   4.105   1.336  1.7868 -1.2035 -0.4704
 2069SOL    HW2 7107   6.548   4.154   1.217  0.1762  1.5704  1.9108
 2070SOL     OW 7108   6.390   0.758   4.428  0.1215  0.0725 -0.2099
 2070SOL    HW1 7109   6.312   0.768   4.488  0.3700 -0.1376  0.1518
 2070SOL    HW2 7110   6.474   0.784   4.476  0.3547 -0.3653 -0.3658
 2071SOL     OW 7111   6.443   3.516   6.556 -0.4899 -0.1496 -0.3805
 2071SOL    HW1 7112   6.344   3.520   6.537 -0.2135 -0.3172 -2.0387
 2071SOL    HW2 7113   6.483   3.606   6.540  0.2115 -0.9095 -3.7100
 2072SOL     OW 7114   1.125   5.672   0.409 -0.0622 -0.3751 -0.2672
 2072SOL    HW1 7115   1.042   5.701   0.457  0.5659 -2.0056  1.9408
 2072SOL    HW2 7116   1.191   5.748   0.409 -1.4339  0.9187 -1.9936
 2073SOL     OW 7117   5.266   4.226   0.917 -0.4917 -0.2824 -0.1233
 2073SOL    HW1 7118   5.255   4.198   1.012 -1.0804 -2.0714 -0.6806
 2073SOL    HW2 7119   5.281   4.324   0.913  0.0475 -0.2426  1.8471
 2074SOL     OW 7120   5.371   6.460   3.079  0.2818 -0.1972  0.1288
 2074SOL    HW1 7121   5.358   6.558   3.061 -1.1526 -0.1754  1.1649
 2074SOL    HW2 7122   5.468   6.443   3.097  1.0437  0.5386 -2.7292
 2075SOL     OW 7123   1.589   3.023   1.639  0.3489 -1.0918 -0.2949
 2075SOL    HW1 7124   1.500   2.981   1.657  0.8189 -1.0533  2.6596
 2075SOL    HW2 7125   1.656   2.952   1.619 -0.1031 -1.1965 -1.5272
 2076SOL     OW 7126   2.538   4.676   2.123  0.2852  0.2317  0.3348
 2076SOL    HW1 7127   2.620   4.622   2.105  0.8779  0.9606  0.8004
 2076SOL    HW2 7128   2.529   4.749   2.055 -0.6011 -0.5236 -0.3884
 2077SOL     OW 7129   4.885   6.331   5.442  0.0662 -0.1684  0.6345
 2077SOL    HW1 7130   4.930   6.386   5.372 -0.4134  1.2999  1.4259
 2077SOL    HW2 7131   4.868   6.239   5.407 -0.1025  0.4969 -1.1436
 2078SOL     OW 7132   4.842   1.492   2.588  0.5408 -0.3175  0.3495
 2078SOL    HW1 7133   4.809   1.440   2.666 -0.9272  1.2870  0.8661
 2078SOL    HW2 7134   4.942   1.484   2.582  0.6157 -0.9613  1.9997
 2079SOL     OW 7135   4.246   3.302   6.158 -0.2848 -0.1167  0.4147
 2079SOL    HW1 7136   4.345   3.304   6.171  0.0974 -1.7669 -1.7134
 2079SOL    HW2 7137   4.222   3.351   6.074 -1.1976 -0.2880  0.5628
 2080SOL     OW 7138   1.955   0.815   6.362 -0.1509  0.7358 -0.8671
 2080SOL    HW1 7139   1.983   0.836   6.268 -1.0607  0.7411 -1.1417
 2080SOL    HW2 7140   1.858   0.837   6.374 -0.2563 -0.0759 -0.1722
 2081SOL     OW 7141   4.834   2.238   3.152  0.0657 -0.5516 -0.1589
 2081SOL    HW1 7142   4.848   2.311   3.086  0.6153  0.4259  0.9987
 2081SOL    HW2 7143   4.790   2.276   3.234  0.1970 -1.5536  0.3874
 2082SOL     OW 7144   1.943   2.559   3.735  0.0513  0.1602 -0.9746
 2082SOL    HW1 7145   1.865   2.602   3.782 -0.4223 -0.8399 -0.8181
 2082SOL    HW2 7146   2.008   2.629   3.708 -0.2111  0.8785  0.1790
 2083SOL     OW 7147   4.634   1.322   6.443  0.0491 -0.3206 -0.4731
 2083SOL    HW1 7148   4.565   1.378   6.488 -1.2199 -2.1014 -0.0597
 2083SOL    HW2 7149   4.589   1.243   6.400  1.4855  0.1087 -2.9527
 2084SOL     OW 7150   4.122   6.284   5.955  0.1830  0.5067 -0.4799
 2084SOL    HW1 7151   4.092   6.292   6.050 -0.5637  4.2633 -0.8559
 2084SOL    HW2 7152   4.220   6.268   5.952  0.0514 -0.7559  0.8730
 2085SOL     OW 7153   6.072   0.149   6.953 -0.2953  0.5204  0.4014
 2085SOL    HW1 7154   6.003   0.087   6.916 -0.1481 -0.4652  1.7071
 2085SOL    HW2 7155   6.160   0.130   6.910 -0.4864  0.5988 -0.0243
 2086SOL     OW 7156   2.261   2.495   4.492  0.4709 -0.7187  0.1533
 2086SOL    HW1 7157   2.261   2.451   4.582  0.3488 -0.9706  0.0312
 2086SOL    HW2 7158   2.167   2.502   4.459  0.4815 -0.2781  0.2127
 2087SOL     OW 7159   2.876   2.838   0.854 -0.1013 -0.1523  0.4704
 2087SOL    HW1 7160   2.854   2.786   0.771  0.2236  0.1346  0.2000
 2087SOL    HW2 7161   2.969   2.875   0.846  0.3743 -1.0783  1.4626
 2088SOL     OW 7162   1.070   5.400   5.900  0.5628  0.2390 -0.0371
 2088SOL    HW1 7163   1.129   5.480   5.890 -1.4381  1.8909  0.8278
 2088SOL    HW2 7164   0.994   5.421   5.961 -0.5204 -2.0598 -0.4747
 2089SOL     OW 7165   0.067   2.862   6.377  0.4938  0.2533 -0.6050
 2089SOL    HW1 7166  -0.000   2.799   6.416  0.7155 -0.7987 -1.8284
 2089SOL    HW2 7167   0.030   2.901   6.292  1.6296 -0.8030 -1.6144
 2090SOL     OW 7168   2.850   3.428   2.411 -0.2633 -0.4203  0.3201
 2090SOL    HW1 7169   2.757   3.464   2.423  0.4541  2.1576 -0.9702
 2090SOL    HW2 7170   2.916   3.499   2.437  1.2864  0.1411 -4.1653
 2091SOL     OW 7171   6.669   4.468   1.013  0.6312  0.1338 -0.1114
 2091SOL    HW1 7172   6.643   4.379   1.050  1.4126 -1.0286 -2.1482
 2091SOL    HW2 7173   6.587   4.522   0.996 -0.0382 -1.0258 -0.7114
 2092SOL     OW 7174   1.480   3.347   1.255  0.2751  0.7105 -0.4236
 2092SOL    HW1 7175   1.459   3.444   1.259  1.1663  0.8741  1.1851
 2092SOL    HW2 7176   1.554   3.331   1.190  1.1294  1.3385  0.3685
 2093SOL     OW 7177   3.531   6.264   3.946  0.1029 -0.4241  0.1925
 2093SOL    HW1 7178   3.596   6.188   3.945  0.3105 -0.3149  1.8935
 2093SOL    HW2 7179   3.530   6.306   4.037 -2.7013 -0.7119  0.3869
 2094SOL     OW 7180   4.663   4.516   3.533 -0.0801 -0.5611 -0.8006
 2094SOL    HW1 7181   4.682   4.419   3.549 -0.5543 -0.5203  0.0536
 2094SOL    HW2 7182   4.657   4.533   3.434  1.4021 -1.1177 -1.0117
 2095SOL     OW 7183   0.792   3.010   2.287  0.5899  0.0136  0.6482
 2095SOL    HW1 7184   0.791   3.105   2.318  0.3288  0.2614 -0.0958
 2095SOL    HW2 7185   0.739   3.002   2.202  0.0941 -0.9096  1.0355
 2096SOL     OW 7186   0.566   6.144   6.853  0.5010  0.2031 -0.6426
 2096SOL    HW1 7187   0.633   6.210   6.817  0.6962  0.6198  0.4555
 2096SOL    HW2 7188   0.573   6.059   6.802  1.9860  0.1825 -0.4574
 2097SOL     OW 7189   1.575   1.172   6.835 -0.3056 -0.5973  0.8891
 2097SOL    HW1 7190   1.548   1.107   6.763 -1.1444  0.8495 -0.1551
 2097SOL    HW2 7191   1.506   1.174   6.906 -0.4791 -0.5605  0.7204
 2098SOL     OW 7192   1.735   2.690   4.601 -0.0389  0.0404  0.9189
 2098SOL    HW1 7193   1.819   2.739   4.577 -0.0825 -0.0035  0.6783
 2098SOL    HW2 7194   1.679   2.678   4.519 -0.2868  0.0835  1.0836
 2099SOL     OW 7195   2.621   2.309   5.341  0.2817 -0.0140 -0.2075
 2099SOL    HW1 7196   2.557   2.327   5.266 -0.3382 -3.1712 -0.5778
 2099SOL    HW2 7197   2.695   2.251   5.308  1.3127  0.4746  1.1321
 2100SOL     OW 7198   4.871   2.084   1.484  0.3640  0.1718  0.2206
 2100SOL    HW1 7199   4.870   1.989   1.453 -0.9875  0.8031 -1.8782
 2100SOL    HW2 7200   4.811   2.094   1.564  0.4816 -0.7227  0.4262
 2101SOL     OW 7201   1.675   1.653   4.744 -0.5847 -0.4906  0.5825
 2101SOL    HW1 7202   1.664   1.698   4.655 -0.4199 -0.7863  0.4089
 2101SOL    HW2 7203   1.688   1.555   4.730  0.9017 -0.3512  0.8368
 2102SOL     OW 7204   1.055   2.148   0.459  0.9822  0.5692  0.2061
 2102SOL    HW1 7205   1.045   2.230   0.516  0.6641 -0.0956  1.1207
 2102SOL    HW2 7206   1.109   2.079   0.508  0.8300  0.0410 -0.3555
 2103SOL     OW 7207   4.067   4.892   4.952 -0.2705  0.1773  0.1525
 2103SOL    HW1 7208   4.000   4.906   5.025 -0.3286  1.4207 -0.1102
 2103SOL    HW2 7209   4.021   4.854   4.871 -0.4730  0.1254  0.2908
 2104SOL     OW 7210   7.019   2.990   0.148 -0.2256  0.7209 -0.0805
 2104SOL    HW1 7211   7.009   2.908   0.091 -0.4627  0.3266  0.5145
 2104SOL    HW2 7212   6.985   3.070   0.098  0.1147  0.4745 -0.7090
 2105SOL     OW 7213   3.643   0.535   0.344 -0.1769  0.1186 -0.2545
 2105SOL    HW1 7214   3.588   0.607   0.387  1.0869  1.1244 -0.2625
 2105SOL    HW2 7215   3.649   0.456   0.406 -0.1459  0.6993  0.4917
 2106SOL     OW 7216   3.609   5.347   0.905  0.5696 -0.0704 -0.1121
 2106SOL    HW1 7217   3.526   5.293   0.898 -0.1797  1.0814 -0.4098
 2106SOL    HW2 7218   3.654   5.329   0.993 -0.9890  0.6488  0.8788
 2107SOL     OW 7219   3.372   1.662   4.982  0.2063  0.5214  0.1046
 2107SOL    HW1 7220   3.282   1.699   4.956  0.1363  0.2769 -0.0079
 2107SOL    HW2 7221   3.384   1.572   4.940  0.2373  0.2702  0.6481
 2108SOL     OW 7222   4.071   1.389   1.758 -0.3899  0.2497  0.0108
 2108SOL    HW1 7223   4.092   1.312   1.820  1.8337  0.2436 -0.6376
 2108SOL    HW2 7224   3.990   1.367   1.704 -0.2781 -1.2989  0.4063
 2109SOL     OW 7225   5.550   1.380   1.837 -0.0472 -0.0681 -0.1776
 2109SOL    HW1 7226   5.637   1.376   1.788  0.2502  0.2127  0.3202
 2109SOL    HW2 7227   5.486   1.315   1.797  0.1116  0.3275 -1.0881
 2110SOL     OW 7228   1.149   1.494   6.220 -0.1964 -0.3580  0.6325
 2110SOL    HW1 7229   1.224   1.436   6.252 -0.0800 -0.4409  0.2202
 2110SOL    HW2 7230   1.072   1.488   6.284 -0.6692 -1.9679 -0.0400
 2111SOL     OW 7231   0.587   0.692   6.121  0.0561  0.2067  0.7095
 2111SOL    HW1 7232   0.545   0.767   6.172 -1.1311 -1.1240  1.7881
 2111SOL    HW2 7233   0.687   0.698   6.129  0.0814  2.5359 -0.5751
 2112SOL     OW 7234   6.189   2.384   1.436  0.2494  0.6202 -0.1286
 2112SOL    HW1 7235   6.125   2.328   1.488  0.4043  0.3793 -0.1988
 2112SOL    HW2 7236   6.264   2.414   1.495  0.0355  0.9606 -0.0290
 2113SOL     OW 7237   5.385   5.720   0.308  0.2628  0.5252  0.1809
 2113SOL    HW1 7238   5.322   5.772   0.365 -0.8696  1.3824 -1.7411
 2113SOL    HW2 7239   5.444   5.784   0.257  0.7374 -0.1769 -0.1699
 2114SOL     OW 7240   3.614   0.945   3.945  0.7642  1.1883  0.4916
 2114SOL    HW1 7241   3.654   0.944   4.037  2.1733  1.4382 -0.0910
 2114SOL    HW2 7242   3.667   1.007   3.887  0.9766 -0.3040 -0.9594
 2115SOL     OW 7243   3.688   0.029   1.627 -0.2572  0.1089  0.5441
 2115SOL    HW1 7244   3.648   0.105   1.677 -0.1868  0.1583  0.5259
 2115SOL    HW2 7245   3.690  -0.052   1.685 -2.4879 -0.5279 -0.1916
 2116SOL     OW 7246   4.416   2.293   3.732 -0.6552 -0.0862  0.0717
 2116SOL    HW1 7247   4.369   2.328   3.651  1.2861  1.4876 -0.4441
 2116SOL    HW2 7248   4.474   2.216   3.706 -2.9025 -2.1573  0.7423
 2117SOL     OW 7249   3.387   3.575   3.899  0.2140 -0.2768 -0.2894
 2117SOL    HW1 7250   3.469   3.623   3.867 -0.4012  0.8283 -0.2461
 2117SOL    HW2 7251   3.333   3.636   3.957 -0.3321 -1.1991  0.1903
 2118SOL     OW 7252   3.194   3.068   6.313 -0.3467 -0.4472 -0.0306
 2118SOL    HW1 7253   3.219   3.044   6.219 -0.7198 -0.6988 -0.0645
 2118SOL    HW2 7254   3.134   2.998   6.351 -0.6517 -0.0657  0.2019
 2119SOL     OW 7255   2.107   6.760   1.116 -0.1682  0.1719 -0.4325
 2119SOL    HW1 7256   2.141   6.720   1.031 -1.4620 -0.8087 -0.5179
 2119SOL    HW2 7257   2.154   6.719   1.194  1.2990  1.3487 -0.6435
 2120SOL     OW 7258   6.854   2.744   6.523 -0.3904  0.3514 -0.2068
 2120SOL    HW1 7259   6.761   2.766   6.553 -0.2605  1.1127 -0.3338
 2120SOL    HW2 7260   6.907   2.712   6.601 -0.9154 -0.6441 -0.2452
 2121SOL     OW 7261   2.641   5.718   6.995  0.0730  0.1461 -0.3202
 2121SOL    HW1 7262   2.656   5.728   6.897  0.6721  1.0826 -0.1499
 2121SOL    HW2 7263   2.561   5.773   7.022  0.4144  0.5762 -0.1617
 2122SOL     OW 7264   2.816   4.958   6.412  0.4984 -0.3451 -0.3315
 2122SOL    HW1 7265   2.825   4.881   6.348  0.0073  0.5033 -1.4563
 2122SOL    HW2 7266   2.814   5.044   6.360 -1.5036  0.2874  0.6906
 2123SOL     OW 7267   0.344   3.230   6.253 -0.5914 -0.2468  0.6421
 2123SOL    HW1 7268   0.433   3.268   6.227 -1.0915  0.3957 -0.1917
 2123SOL    HW2 7269   0.326   3.251   6.349 -0.3783  0.7103  0.4851
 2124SOL     OW 7270   0.429   6.120   2.984 -0.6290  0.3018  0.8183
 2124SOL    HW1 7271   0.333   6.101   3.005 -0.1660  0.2990  3.0901
 2124SOL    HW2 7272   0.465   6.188   3.048  0.9401  0.1844  0.1035
 2125SOL     OW 7273   2.795   6.635   0.507  0.0077 -0.0904 -0.7476
 2125SOL    HW1 7274   2.699   6.661   0.492  0.1860  0.5472 -0.8040
 2125SOL    HW2 7275   2.852   6.678   0.437  0.2208 -1.2860 -1.3324
 2126SOL     OW 7276   0.954   3.918   3.748 -0.3766  0.3915 -0.1544
 2126SOL    HW1 7277   1.006   3.987   3.799  1.1596 -0.3640 -0.6594
 2126SOL    HW2 7278   0.874   3.962   3.706  1.8555  2.4966 -2.5590
 2127SOL     OW 7279   1.774   3.265   0.260 -0.5535 -0.3613 -0.4481
 2127SOL    HW1 7280   1.762   3.167   0.243 -2.7963 -0.0703 -0.9985
 2127SOL    HW2 7281   1.690   3.313   0.234 -0.0803  1.5323  1.2561
 2128SOL     OW 7282   3.743   4.042   3.476 -0.7766  0.3479 -0.3594
 2128SOL    HW1 7283   3.716   4.071   3.568  2.1074 -1.9205  1.3623
 2128SOL    HW2 7284   3.828   4.088   3.450  0.0410 -1.2013 -0.5541
 2129SOL     OW 7285   2.155   3.909   2.406  0.3410 -0.9245  0.3481
 2129SOL    HW1 7286   2.189   3.953   2.489 -1.1877  1.0009  0.0195
 2129SOL    HW2 7287   2.111   3.977   2.348 -3.6572 -3.0831  0.5091
 2130SOL     OW 7288   5.534   0.577   1.273  0.1859  0.0258 -0.0461
 2130SOL    HW1 7289   5.465   0.649   1.288  1.4229  0.9805  1.3074
 2130SOL    HW2 7290   5.489   0.496   1.236 -1.3637  1.2540 -1.0255
 2131SOL     OW 7291   0.554   2.781   1.057 -0.3431 -0.0901 -0.3085
 2131SOL    HW1 7292   0.521   2.747   1.145 -0.4837 -0.2504 -0.4228
 2131SOL    HW2 7293   0.525   2.718   0.984 -0.1245 -0.0227 -0.4541
 2132SOL     OW 7294   2.142   2.940   0.917 -0.0708  0.1767 -0.6643
 2132SOL    HW1 7295   2.215   2.943   0.985 -0.4688 -0.7157 -0.1865
 2132SOL    HW2 7296   2.165   3.003   0.842 -0.0532  1.8715  0.6866
 2133SOL     OW 7297   1.756   0.489   0.774  0.1462  0.1623  0.2187
 2133SOL    HW1 7298   1.814   0.481   0.692 -2.6281 -0.6272 -1.8413
 2133SOL    HW2 7299   1.758   0.403   0.825 -0.0653 -0.2673 -0.4815
 2134SOL     OW 7300   1.835   0.638   5.996 -0.2010  0.4151 -0.2935
 2134SOL    HW1 7301   1.758   0.580   6.024  0.1297  0.5872  1.0414
 2134SOL    HW2 7302   1.816   0.677   5.906 -2.4949  1.8247  0.6961
 2135SOL     OW 7303   5.983   1.761   4.248  0.2302 -0.0784 -0.3808
 2135SOL    HW1 7304   6.016   1.855   4.237 -1.7520  0.7921  0.5660
 2135SOL    HW2 7305   6.024   1.721   4.330 -0.6634  0.8081  0.5178
 2136SOL     OW 7306   6.598   0.868   5.666  0.1998  0.0297 -0.2780
 2136SOL    HW1 7307   6.505   0.884   5.698 -0.1518 -0.1886 -1.1654
 2136SOL    HW2 7308   6.600   0.866   5.566  1.0573 -0.5548 -0.2667
 2137SOL     OW 7309   1.784   6.111   3.314  0.3693 -0.1956  0.0842
 2137SOL    HW1 7310   1.799   6.095   3.216  2.8543 -0.4104  0.4237
 2137SOL    HW2 7311   1.872   6.128   3.358 -0.6862 -0.2558  2.3337
 2138SOL     OW 7312   3.016   1.406   1.256 -0.2049 -0.0715 -0.0081
 2138SOL    HW1 7313   3.021   1.433   1.160 -0.4663  1.0577  0.2827
 2138SOL    HW2 7314   2.950   1.332   1.266  0.2770 -0.6266 -0.7779
 2139SOL     OW 7315   1.524   2.209   0.199 -0.1144 -0.2138 -0.1200
 2139SOL    HW1 7316   1.570   2.213   0.111 -1.1753  1.8981 -0.6503
 2139SOL    HW2 7317   1.557   2.284   0.257 -0.2867 -0.8665  0.8439
 2140SOL     OW 7318   3.678   5.952   0.009  0.2028  0.2869 -0.7047
 2140SOL    HW1 7319   3.696   6.006   0.091  0.3175 -0.2507 -0.3764
 2140SOL    HW2 7320   3.764   5.937  -0.040  0.1294  0.6381 -0.9486
 2141SOL     OW 7321   1.527   5.961   5.125  0.6318 -0.2506  0.6507
 2141SOL    HW1 7322   1.465   5.915   5.189  0.5877 -0.2161  0.6326
 2141SOL    HW2 7323   1.515   6.060   5.133  0.0084 -0.2605 -0.0199
 2142SOL     OW 7324   2.578   2.178   0.903 -0.1717 -0.0205 -0.1117
 2142SOL    HW1 7325   2.580   2.142   0.996  0.8086 -0.0317 -0.1205
 2142SOL    HW2 7326   2.565   2.278   0.906 -0.7612 -0.1012  0.0076
 2143SOL     OW 7327   5.731   0.971   1.627 -0.5175 -0.1731 -0.0454
 2143SOL    HW1 7328   5.784   0.901   1.580 -1.4460 -1.3449  0.5969
 2143SOL    HW2 7329   5.659   1.005   1.567  0.4542  0.8724 -0.6532
 2144SOL     OW 7330   5.685   5.862   4.068  1.0462 -0.5537  0.0403
 2144SOL    HW1 7331   5.753   5.819   4.009  1.2923  0.4092 -0.3919
 2144SOL    HW2 7332   5.718   5.951   4.098 -0.4330  0.3901 -1.0055
 2145SOL     OW 7333   4.739   5.357   0.207 -0.3662  0.0431 -0.5522
 2145SOL    HW1 7334   4.701   5.408   0.284 -0.9286  0.4481 -1.0836
 2145SOL    HW2 7335   4.704   5.263   0.208  3.0884 -1.4164  2.2427
 2146SOL     OW 7336   0.615   6.641   1.561 -0.3828  0.1179 -0.0573
 2146SOL    HW1 7337   0.670   6.574   1.512  0.1875  1.3030 -1.1233
 2146SOL    HW2 7338   0.664   6.729   1.562 -1.5227  0.7673  0.4412
 2147SOL     OW 7339   4.388   5.143   5.224  0.2744  1.1647 -0.3120
 2147SOL    HW1 7340   4.343   5.231   5.209 -1.2396  0.5316  0.3955
 2147SOL    HW2 7341   4.321   5.074   5.251  1.5758  0.0364  0.2035
 2148SOL     OW 7342   6.653   1.086   2.736 -0.6881 -0.1491 -0.5233
 2148SOL    HW1 7343   6.636   1.039   2.649 -0.8159 -1.0496 -0.0331
 2148SOL    HW2 7344   6.720   1.158   2.723 -0.6379 -0.3405 -1.3552
 2149SOL     OW 7345   4.926   3.570   0.927 -0.0413  0.3156  0.0136
 2149SOL    HW1 7346   4.974   3.615   1.003 -0.6924 -0.3714  0.8500
 2149SOL    HW2 7347   4.966   3.600   0.841  1.0911  0.6903  0.6405
 2150SOL     OW 7348   0.770   5.358   1.832 -0.1392  0.6335 -0.3998
 2150SOL    HW1 7349   0.695   5.337   1.896 -1.3048  2.2008 -1.1814
 2150SOL    HW2 7350   0.789   5.456   1.834  2.3729  0.2091  0.2258
 2151SOL     OW 7351   3.598   0.347   3.368 -0.0497  0.3298 -0.1563
 2151SOL    HW1 7352   3.615   0.417   3.300  2.8833  0.7594  0.8669
 2151SOL    HW2 7353   3.642   0.261   3.340  1.5231  0.6091  1.2313
 2152SOL     OW 7354   3.004   3.644   2.533 -0.3936  0.2322  0.2259
 2152SOL    HW1 7355   3.095   3.674   2.561  0.5152 -2.0555 -0.1317
 2152SOL    HW2 7356   2.967   3.708   2.466  1.0438  1.0514  0.1809
 2153SOL     OW 7357   1.372   6.614   2.848  0.5368  0.2737 -0.1767
 2153SOL    HW1 7358   1.416   6.625   2.759  0.0799  2.7287 -0.1865
 2153SOL    HW2 7359   1.441   6.620   2.920  0.6275  0.9231 -0.3063
 2154SOL     OW 7360   5.298   3.598   2.364 -0.0665 -0.4985 -0.3161
 2154SOL    HW1 7361   5.341   3.683   2.335  0.0138 -0.8975 -1.4168
 2154SOL    HW2 7362   5.323   3.578   2.459 -0.4908  0.9484  0.1279
 2155SOL     OW 7363   2.522   6.635   4.558 -0.7536 -0.3015  0.0517
 2155SOL    HW1 7364   2.571   6.600   4.478  1.7471  0.6520  1.0434
 2155SOL    HW2 7365   2.433   6.591   4.565 -0.7566 -0.9412 -2.8103
 2156SOL     OW 7366   3.113   5.679   4.585  0.2461  0.0553  0.2022
 2156SOL    HW1 7367   3.124   5.634   4.497 -1.1517  0.8451 -0.4036
 2156SOL    HW2 7368   3.162   5.627   4.655  1.4126 -0.5608 -1.0239
 2157SOL     OW 7369   4.494   1.110   6.910 -0.1325 -0.4431  0.0042
 2157SOL    HW1 7370   4.439   1.056   6.974  1.5291 -2.0887  0.1593
 2157SOL    HW2 7371   4.576   1.143   6.958 -0.3127  0.8355 -0.5411
 2158SOL     OW 7372   0.707   6.810   4.488  0.6241  0.0123  0.0932
 2158SOL    HW1 7373   0.772   6.772   4.553  1.6976 -0.4390 -1.2073
 2158SOL    HW2 7374   0.675   6.739   4.426 -0.2831  0.4547  0.0300
 2159SOL     OW 7375   3.129   0.187   0.998 -0.4964  0.0418  0.2188
 2159SOL    HW1 7376   3.172   0.169   0.909 -1.3831 -0.6443 -0.0820
 2159SOL    HW2 7377   3.079   0.106   1.027 -5.3770  2.0507 -1.5940
 2160SOL     OW 7378   1.820   1.537   2.629 -0.0856  0.2893 -0.4055
 2160SOL    HW1 7379   1.850   1.519   2.535  0.3589  0.7417 -0.3531
 2160SOL    HW2 7380   1.856   1.466   2.690  0.6927  0.7045 -0.3775
 2161SOL     OW 7381   4.343   1.240   6.730  0.0989 -0.2856  0.5584
 2161SOL    HW1 7382   4.362   1.182   6.651  0.8138 -0.6603  0.9848
 2161SOL    HW2 7383   4.396   1.206   6.808  0.1776  0.6838  0.9308
 2162SOL     OW 7384   6.134   5.103   6.797 -0.1405 -0.8364  0.3010
 2162SOL    HW1 7385   6.125   5.003   6.806 -0.5045 -0.8432 -0.1205
 2162SOL    HW2 7386   6.225   5.125   6.761 -0.8592 -1.1687 -1.8650
 2163SOL     OW 7387   0.955   3.166   5.411  0.0858 -0.0004 -0.3836
 2163SOL    HW1 7388   0.927   3.248   5.361 -1.7105  0.4134  1.2045
 2163SOL    HW2 7389   0.910   3.085   5.372  0.4392  0.0015 -0.8061
 2164SOL     OW 7390   5.400   0.863   5.016 -0.2971 -0.0356 -0.5606
 2164SOL    HW1 7391   5.483   0.873   4.960 -0.5456 -0.0377 -0.9294
 2164SOL    HW2 7392   5.328   0.923   4.981  0.1801  1.5384  1.0153
 2165SOL     OW 7393   3.171   0.946   1.801  0.3394 -0.2520  0.4149
 2165SOL    HW1 7394   3.241   0.985   1.861  1.5629 -0.3140 -0.9328
 2165SOL    HW2 7395   3.085   0.997   1.813  0.6660  0.0089  1.8757
 2166SOL     OW 7396   2.916   3.818   0.828 -0.1276 -0.3443  0.1289
 2166SOL    HW1 7397   2.871   3.814   0.917 -0.5049 -1.7602 -0.1009
 2166SOL    HW2 7398   2.930   3.725   0.793 -2.6214  0.1596 -2.6069
 2167SOL     OW 7399   4.385   1.579   4.073  0.5808  0.4215 -0.1455
 2167SOL    HW1 7400   4.347   1.671   4.086 -0.7882 -0.2319  0.6492
 2167SOL    HW2 7401   4.441   1.555   4.153 -0.6277 -0.1660  0.5398
 2168SOL     OW 7402   1.169   3.664   3.305 -0.0530 -0.6284 -0.2645
 2168SOL    HW1 7403   1.135   3.642   3.214 -1.0920 -0.1546 -0.0138
 2168SOL    HW2 7404   1.134   3.753   3.333  1.7543  0.0696 -0.1213
 2169SOL     OW 7405   1.702   6.084   3.669 -0.1187  0.1046 -0.0848
 2169SOL    HW1 7406   1.785   6.139   3.666  0.6207 -1.0041 -0.8448
 2169SOL    HW2 7407   1.716   6.006   3.730  0.1473 -1.1947 -1.7465
 2170SOL     OW 7408   4.518   0.794   4.693 -0.1001  0.5963 -0.2302
 2170SOL    HW1 7409   4.486   0.739   4.770 -1.1122  1.0389 -0.3215
 2170SOL    HW2 7410   4.492   0.750   4.607  2.1793 -0.5929 -0.3901
 2171SOL     OW 7411   4.875   6.068   5.364 -0.5414  0.1312  0.6565
 2171SOL    HW1 7412   4.867   5.981   5.411 -2.6853  1.5599  3.2559
 2171SOL    HW2 7413   4.832   6.062   5.274  1.0287 -1.9173 -0.0172
 2172SOL     OW 7414   6.357   0.389   1.378 -0.4995  0.5457 -0.4583
 2172SOL    HW1 7415   6.262   0.419   1.389 -0.0071  2.4662 -1.1243
 2172SOL    HW2 7416   6.409   0.459   1.331  0.7123 -1.4892 -2.3404
 2173SOL     OW 7417   4.203   5.776   2.567  0.4459  0.0589  0.0037
 2173SOL    HW1 7418   4.239   5.688   2.596  0.8696  0.9618  2.4713
 2173SOL    HW2 7419   4.105   5.768   2.550  0.1733 -0.6242  1.6783
 2174SOL     OW 7420   0.334   4.365   4.614 -0.1300  0.3396  0.0569
 2174SOL    HW1 7421   0.314   4.443   4.555  0.9244  1.4870  1.1361
 2174SOL    HW2 7422   0.249   4.329   4.653 -0.5930  1.3850  0.0493
 2175SOL     OW 7423   4.803   3.805   5.282  0.4750  0.2877  0.0865
 2175SOL    HW1 7424   4.734   3.736   5.262  1.4479 -1.2277  1.6888
 2175SOL    HW2 7425   4.885   3.761   5.319  1.4836  2.2342  0.3235
 2176SOL     OW 7426   2.658   5.009   0.146 -0.0319  0.2576  0.0806
 2176SOL    HW1 7427   2.739   4.961   0.179  0.1841  0.6143  0.0679
 2176SOL    HW2 7428   2.664   5.020   0.047  0.0316  0.5295  0.1160
 2177SOL     OW 7429   5.478   0.632   0.603 -0.3052 -0.1306  0.0151
 2177SOL    HW1 7430   5.469   0.732   0.594  0.0260 -0.0245  0.8258
 2177SOL    HW2 7431   5.572   0.605   0.584 -0.2982 -0.2439  0.2141
 2178SOL     OW 7432   6.088   4.677   1.784 -0.4158 -0.1084 -0.1162
 2178SOL    HW1 7433   6.046   4.587   1.797  0.9875 -0.6810  0.6954
 2178SOL    HW2 7434   6.133   4.679   1.695  2.1984 -1.3878  1.0758
 2179SOL     OW 7435   5.320   0.115   2.174 -0.2792  0.3871 -0.2012
 2179SOL    HW1 7436   5.371   0.172   2.237  1.7949 -1.3418 -0.1971
 2179SOL    HW2 7437   5.352   0.131   2.081  0.6151 -0.9664 -0.1596
 2180SOL     OW 7438   4.344   6.918   3.138  0.3259 -0.7074 -0.7692
 2180SOL    HW1 7439   4.328   6.913   3.237 -0.3928  1.1320 -0.7591
 2180SOL    HW2 7440   4.435   6.956   3.121 -0.4716  1.3535 -0.7510
 2181SOL     OW 7441   6.364   4.790   5.412 -0.4369  0.0553 -0.4961
 2181SOL    HW1 7442   6.392   4.737   5.333 -1.0751  0.6465 -1.1388
 2181SOL    HW2 7443   6.265   4.804   5.410 -0.5468 -0.3703  0.6974
 2182SOL     OW 7444   2.833   2.622   1.446  0.5835 -0.5470  0.3451
 2182SOL    HW1 7445   2.850   2.720   1.433  0.0057 -0.5817 -0.9170
 2182SOL    HW2 7446   2.780   2.608   1.529 -0.0128  0.2981  0.1215
 2183SOL     OW 7447   3.069   5.507   6.797  0.2422 -0.6780  0.0885
 2183SOL    HW1 7448   3.009   5.443   6.749  0.5524 -0.6802 -0.2991
 2183SOL    HW2 7449   3.060   5.493   6.896 -0.8958 -0.2273  0.0699
 2184SOL     OW 7450   2.054   4.009   5.167  0.1386 -0.1015 -0.0106
 2184SOL    HW1 7451   1.978   3.956   5.131 -0.8982 -0.3851  2.3817
 2184SOL    HW2 7452   2.141   3.972   5.133 -0.7080 -0.6916 -1.6157
 2185SOL     OW 7453   5.120   6.595   3.337  0.1352  0.3118  0.3296
 2185SOL    HW1 7454   5.062   6.572   3.259 -1.9564  1.4418  1.4719
 2185SOL    HW2 7455   5.171   6.679   3.317  1.4805 -0.6981 -0.6861
 2186SOL     OW 7456   1.260   3.184   1.271  0.3345  1.3087  0.3066
 2186SOL    HW1 7457   1.290   3.089   1.286 -0.5602  0.8721 -0.6236
 2186SOL    HW2 7458   1.338   3.238   1.238  0.3949  0.4278 -1.0725
 2187SOL     OW 7459   1.587   2.962   3.555 -0.5355  0.3352  0.4806
 2187SOL    HW1 7460   1.580   2.955   3.455 -1.4059  0.9562  0.4846
 2187SOL    HW2 7461   1.512   2.911   3.597 -0.3722  0.3630  0.8020
 2188SOL     OW 7462   0.371   1.262   3.037 -0.8309  0.1036 -0.1875
 2188SOL    HW1 7463   0.361   1.357   3.009 -1.7570 -0.4940 -2.0515
 2188SOL    HW2 7464   0.294   1.209   3.003 -1.9171 -0.8486  3.3137
 2189SOL     OW 7465   2.359   3.370   6.863  0.0786 -0.2874  0.4490
 2189SOL    HW1 7466   2.445   3.418   6.850  0.0803 -0.3342  0.2871
 2189SOL    HW2 7467   2.296   3.427   6.916  0.9617 -1.0955  2.4686
 2190SOL     OW 7468   0.947   3.725   0.820 -0.2089 -0.1284 -0.4824
 2190SOL    HW1 7469   0.945   3.729   0.721 -1.6938 -0.0456 -0.4818
 2190SOL    HW2 7470   0.901   3.641   0.851  3.1612 -1.9427  0.1117
 2191SOL     OW 7471   1.109   0.255   3.001  0.2736 -0.4955 -0.7076
 2191SOL    HW1 7472   1.129   0.346   2.965 -1.3080 -0.5359 -1.7936
 2191SOL    HW2 7473   1.012   0.249   3.025  0.4031 -1.8186 -0.4213
 2192SOL     OW 7474   6.315   6.946   5.166 -0.1213  0.0849  0.4019
 2192SOL    HW1 7475   6.316   7.025   5.104  0.1145  0.0505  0.3611
 2192SOL    HW2 7476   6.407   6.907   5.172 -0.4444 -0.8631 -0.4474
 2193SOL     OW 7477   3.822   6.975   6.625  0.7215 -0.0663  0.1399
 2193SOL    HW1 7478   3.878   6.892   6.621  0.5192 -0.1570 -1.9342
 2193SOL    HW2 7479   3.747   6.961   6.691 -0.7840 -2.5708 -1.8796
 2194SOL     OW 7480   4.615   0.817   4.325  0.5768  0.2550 -0.2042
 2194SOL    HW1 7481   4.684   0.774   4.267  0.4704  1.5893 -1.3704
 2194SOL    HW2 7482   4.651   0.903   4.361  0.0788  0.1932  0.4535
 2195SOL     OW 7483   6.187   2.609   0.963 -0.0736 -0.3415 -0.0807
 2195SOL    HW1 7484   6.102   2.564   0.937 -0.8611  0.8637  0.3021
 2195SOL    HW2 7485   6.215   2.579   1.054 -0.0488 -0.7741 -0.2269
 2196SOL     OW 7486   2.352   3.339   1.026  0.0004 -0.8815  0.7983
 2196SOL    HW1 7487   2.424   3.391   1.072  0.9604 -0.7046 -0.8589
 2196SOL    HW2 7488   2.267   3.393   1.026  0.0780 -0.7192  1.9565
 2197SOL     OW 7489   2.232   4.834   1.830  0.7588 -0.4154  0.3262
 2197SOL    HW1 7490   2.332   4.831   1.829  0.7634 -3.0680  1.1351
 2197SOL    HW2 7491   2.200   4.863   1.920  0.7624  1.1242 -0.1452
 2198SOL     OW 7492   0.054   0.764   1.244 -0.1749  0.3809 -0.3371
 2198SOL    HW1 7493  -0.009   0.811   1.306  0.9924  1.4651  0.0543
 2198SOL    HW2 7494   0.024   0.669   1.233 -0.7123  0.2914  1.4914
 2199SOL     OW 7495   6.967   4.651   6.323  0.3854  0.2577  0.1952
 2199SOL    HW1 7496   6.951   4.681   6.416  0.2257 -1.4547  0.7534
 2199SOL    HW2 7497   6.880   4.631   6.278  0.5210 -0.3982  0.2078
 2200SOL     OW 7498   4.711   4.324   4.760 -0.2628  0.4633  0.2128
 2200SOL    HW1 7499   4.708   4.236   4.807  2.1902 -2.3125 -4.0958
 2200SOL    HW2 7500   4.744   4.395   4.822  1.8809 -2.5991  2.8769
 2201SOL     OW 7501   4.762   2.698   3.465  0.3729 -0.3752 -0.4124
 2201SOL    HW1 7502   4.664   2.684   3.476  0.2963  0.0006 -0.6165
 2201SOL    HW2 7503   4.811   2.625   3.513  0.0029 -0.4091 -0.0794
 2202SOL     OW 7504   2.684   6.425   2.636  0.0651  0.1179 -0.2204
 2202SOL    HW1 7505   2.697   6.372   2.553 -1.0120 -3.1606  1.5053
 2202SOL    HW2 7506   2.587   6.448   2.646  0.3498  1.5236 -0.3585
 2203SOL     OW 7507   2.389   6.165   0.140 -0.6883 -0.4746  0.2149
 2203SOL    HW1 7508   2.378   6.260   0.166 -1.5579 -0.2518 -0.8598
 2203SOL    HW2 7509   2.313   6.111   0.175 -0.9467 -0.4947 -0.3577
 2204SOL     OW 7510   1.300   3.701   2.034  0.4485 -0.2475  0.1999
 2204SOL    HW1 7511   1.348   3.788   2.032  0.7011 -0.3911 -0.0074
 2204SOL    HW2 7512   1.359   3.630   2.074  0.2030 -0.2985  0.4762
 2205SOL     OW 7513   3.158   0.332   2.961  0.1054  0.4222 -0.0533
 2205SOL    HW1 7514   3.181   0.430   2.963 -0.8622  0.6536  1.6230
 2205SOL    HW2 7515   3.071   0.318   3.006 -0.6380 -1.0407 -1.8238
 2206SOL     OW 7516   6.868   3.665   2.138  0.5003  0.1639 -0.2927
 2206SOL    HW1 7517   6.883   3.637   2.043  0.0617 -0.9594 -0.0462
 2206SOL    HW2 7518   6.792   3.613   2.176  1.9121 -0.8479  1.2735
 2207SOL     OW 7519   3.285   1.048   4.328  0.1170 -0.0906  0.1533
 2207SOL    HW1 7520   3.270   1.066   4.425 -2.3707 -0.7138 -0.0609
 2207SOL    HW2 7521   3.309   0.952   4.315 -0.5398 -0.2483  0.0789
 2208SOL     OW 7522   6.892   0.078   0.627 -0.4438  0.7209  0.0786
 2208SOL    HW1 7523   6.864   0.063   0.532  1.8054  0.3309 -0.5724
 2208SOL    HW2 7524   6.897   0.176   0.645  1.5079  0.8696 -1.0165
 2209SOL     OW 7525   0.204   2.873   6.624 -0.6922 -1.1293 -0.3686
 2209SOL    HW1 7526   0.134   2.861   6.554 -0.1227 -0.6119 -1.0408
 2209SOL    HW2 7527   0.220   2.785   6.670 -2.0594 -1.1532  0.0747
 2210SOL     OW 7528   3.706   2.740   0.584 -0.6040 -0.7768  0.1862
 2210SOL    HW1 7529   3.782   2.737   0.519 -1.1906 -0.2308 -0.5496
 2210SOL    HW2 7530   3.735   2.784   0.669 -0.1679 -0.3364 -0.1866
 2211SOL     OW 7531   5.748   5.422   4.113  0.1895  0.0325  0.0205
 2211SOL    HW1 7532   5.812   5.499   4.115 -0.0270  0.2519 -0.8454
 2211SOL    HW2 7533   5.676   5.441   4.046 -0.5396 -0.4026  0.6580
 2212SOL     OW 7534   2.569   5.136   4.411 -1.2484  0.0023  0.5694
 2212SOL    HW1 7535   2.638   5.134   4.484 -1.5531 -3.3670  0.9283
 2212SOL    HW2 7536   2.502   5.064   4.427 -3.5837  1.6825 -1.0361
 2213SOL     OW 7537   5.844   0.658   1.827  0.4673 -0.4867  0.8468
 2213SOL    HW1 7538   5.786   0.577   1.816 -0.8162  0.6915 -2.4470
 2213SOL    HW2 7539   5.936   0.638   1.791  0.2213 -0.5853  0.2597
 2214SOL     OW 7540   3.221   6.525   2.712  0.4415 -0.2782 -0.5402
 2214SOL    HW1 7541   3.126   6.506   2.734  0.2580  0.1841 -0.9296
 2214SOL    HW2 7542   3.271   6.549   2.796  0.0564  0.1630 -0.4358
 2215SOL     OW 7543   0.993   3.408   0.904 -0.0704 -0.6109  0.0951
 2215SOL    HW1 7544   0.979   3.415   0.805  2.8022 -2.0270 -0.5157
 2215SOL    HW2 7545   0.984   3.313   0.933 -1.4032 -0.1406  1.3293
 2216SOL     OW 7546   4.827   0.074   6.268  0.1711  0.2710  0.0037
 2216SOL    HW1 7547   4.813   0.137   6.192 -0.4096  0.6179  0.3917
 2216SOL    HW2 7548   4.749   0.079   6.331  0.9727  0.5559  1.0092
 2217SOL     OW 7549   1.449   2.252   2.455  0.6099  0.3772 -0.6647
 2217SOL    HW1 7550   1.501   2.316   2.397  2.0633 -0.6301 -0.5263
 2217SOL    HW2 7551   1.389   2.197   2.398 -0.6947  1.8483 -0.7842
 2218SOL     OW 7552   6.315   2.536   6.278 -0.2184 -0.5312  0.0075
 2218SOL    HW1 7553   6.381   2.568   6.209 -0.0722  2.9046  1.5329
 2218SOL    HW2 7554   6.228   2.584   6.266 -0.9306 -1.5584  0.8591
 2219SOL     OW 7555   2.020   2.283   5.515 -0.4648  0.2088 -0.1015
 2219SOL    HW1 7556   1.967   2.216   5.463 -1.0696 -0.4341  1.3097
 2219SOL    HW2 7557   2.078   2.335   5.452 -1.8831  0.1292 -1.5396
 2220SOL     OW 7558   3.901   4.480   5.388  0.0652 -0.9402 -0.6156
 2220SOL    HW1 7559   3.832   4.413   5.360  0.5004 -0.8851 -1.8854
 2220SOL    HW2 7560   3.993   4.443   5.371  0.3366 -0.5532 -0.0428
 2221SOL     OW 7561   2.780   1.925   2.772  0.1356  0.2188 -0.1343
 2221SOL    HW1 7562   2.701   1.867   2.753  1.7215 -2.4486  0.7416
 2221SOL    HW2 7563   2.760   1.985   2.849 -1.3824  0.4480 -0.6784
 2222SOL     OW 7564   5.436   5.394   2.099 -0.0555 -0.0987 -0.2434
 2222SOL    HW1 7565   5.370   5.420   2.170 -0.0450 -2.3276  0.6800
 2222SOL    HW2 7566   5.529   5.402   2.135 -0.0278 -0.7746 -0.1503
 2223SOL     OW 7567   2.550   0.560   1.723  0.4240  0.3995 -0.1755
 2223SOL    HW1 7568   2.646   0.576   1.749  1.0845 -0.6251 -1.8104
 2223SOL    HW2 7569   2.510   0.644   1.687  0.3685  1.0923  1.4177
 2224SOL     OW 7570   0.048   5.318   0.543 -0.5261 -1.0072 -0.0505
 2224SOL    HW1 7571   0.099   5.356   0.465 -2.0155  0.0781 -0.5517
 2224SOL    HW2 7572  -0.050   5.335   0.530 -0.7687  0.1807  2.5433
 2225SOL     OW 7573   3.616   5.116   1.093  0.1068  0.3866 -0.1651
 2225SOL    HW1 7574   3.671   5.127   1.175 -0.0406  1.9644 -0.2481
 2225SOL    HW2 7575   3.519   5.114   1.117  0.0238  1.6103 -0.3396
 2226SOL     OW 7576   5.477   1.936   6.392  0.1774 -0.4062 -1.2760
 2226SOL    HW1 7577   5.488   1.890   6.303  0.5003 -2.2000 -0.3652
 2226SOL    HW2 7578   5.470   2.034   6.378  0.1451 -0.6439 -3.2943
 2227SOL     OW 7579   1.127   4.647   2.252 -0.2473 -0.4170 -0.2148
 2227SOL    HW1 7580   1.085   4.684   2.336 -0.7079  2.2974 -1.5108
 2227SOL    HW2 7581   1.187   4.571   2.275  0.7837  1.1297  2.7907
 2228SOL     OW 7582   2.402   5.575   6.298 -0.1140 -0.2481  0.3846
 2228SOL    HW1 7583   2.464   5.622   6.235 -1.3043 -0.2614 -0.8521
 2228SOL    HW2 7584   2.432   5.481   6.312  1.6911  0.5088  2.0412
 2229SOL     OW 7585   3.814   0.283   1.779 -0.0477 -0.2274 -0.0914
 2229SOL    HW1 7586   3.718   0.287   1.805  0.1512  1.7990  0.4456
 2229SOL    HW2 7587   3.833   0.354   1.711  1.4029  0.4564  0.9956
 2230SOL     OW 7588   4.155   6.712   6.845 -0.2836 -0.8504 -0.4333
 2230SOL    HW1 7589   4.188   6.652   6.918 -2.3240  1.0209  2.2312
 2230SOL    HW2 7590   4.231   6.764   6.808  0.6063 -0.5115  1.7193
 2231SOL     OW 7591   1.530   6.683   0.126  0.6059 -0.0202 -0.7636
 2231SOL    HW1 7592   1.624   6.653   0.110  0.7087  0.7255 -1.6249
 2231SOL    HW2 7593   1.530   6.780   0.151 -0.0669  0.5521 -2.7990
 2232SOL     OW 7594   6.321   3.304   2.262 -0.5933  0.0208  0.3402
 2232SOL    HW1 7595   6.315   3.248   2.180  0.0725 -0.2505  0.4687
 2232SOL    HW2 7596   6.389   3.265   2.324  1.3080  1.9952 -0.3919
 2233SOL     OW 7597   3.742   5.682   6.193  0.2060 -0.1902 -0.2067
 2233SOL    HW1 7598   3.810   5.700   6.122  0.1128  0.1125 -0.2232
 2233SOL    HW2 7599   3.741   5.585   6.215  1.5781 -0.0167  0.7260
 2234SOL     OW 7600   1.777   4.171   0.809  0.0247  0.8228  0.1051
 2234SOL    HW1 7601   1.767   4.127   0.899 -0.6087  0.8934  0.0749
 2234SOL    HW2 7602   1.751   4.267   0.816 -0.5326  0.7061 -0.2602
 2235SOL     OW 7603   0.984   4.378   2.124  0.6910 -0.4165  0.1383
 2235SOL    HW1 7604   0.963   4.427   2.039 -0.5798 -1.0906  0.0358
 2235SOL    HW2 7605   1.078   4.344   2.120  0.4699 -0.9606 -1.2886
 2236SOL     OW 7606   1.448   4.442   0.142 -0.2307 -0.0422 -0.5196
 2236SOL    HW1 7607   1.436   4.386   0.224 -0.7626  0.3030 -0.3460
 2236SOL    HW2 7608   1.465   4.537   0.170  2.9459 -0.4601 -0.7663
 2237SOL     OW 7609   2.148   3.784   4.635  0.8077 -0.1908 -0.2799
 2237SOL    HW1 7610   2.190   3.706   4.681  2.0676  0.6298  0.0032
 2237SOL    HW2 7611   2.136   3.859   4.701  0.4302  0.1610 -0.7437
 2238SOL     OW 7612   6.442   4.618   5.218  0.1276 -0.6575  0.4276
 2238SOL    HW1 7613   6.422   4.680   5.143 -1.7448 -1.3865  0.2501
 2238SOL    HW2 7614   6.519   4.559   5.194  0.5586  0.1661 -0.2539
 2239SOL     OW 7615   5.933   2.713   0.516  0.1715  0.0879  1.1313
 2239SOL    HW1 7616   5.881   2.765   0.449  0.0866  0.1860  1.2712
 2239SOL    HW2 7617   5.989   2.775   0.571  2.7617 -0.2197 -0.9466
 2240SOL     OW 7618   0.172   6.822   0.023 -0.2060 -0.0942  0.0150
 2240SOL    HW1 7619   0.178   6.737  -0.029  2.4239  0.9081 -1.4971
 2240SOL    HW2 7620   0.212   6.808   0.114  1.1515 -0.2341 -0.5919
 2241SOL     OW 7621   1.356   0.756   6.576  0.6813 -0.4759  0.3052
 2241SOL    HW1 7622   1.329   0.686   6.642 -0.4490 -2.3064 -1.9489
 2241SOL    HW2 7623   1.448   0.737   6.543  0.1360 -1.3432 -0.7789
 2242SOL     OW 7624   0.427   5.584   5.715 -0.5104  0.1476  0.5108
 2242SOL    HW1 7625   0.412   5.497   5.667 -3.3619 -0.1359  1.7031
 2242SOL    HW2 7626   0.510   5.576   5.772 -1.6930 -2.5725  2.0737
 2243SOL     OW 7627   1.488   5.250   0.532  0.0398 -0.1506 -0.4327
 2243SOL    HW1 7628   1.550   5.319   0.569 -0.3901 -0.0223  0.0608
 2243SOL    HW2 7629   1.393   5.279   0.545 -0.1449 -0.8218 -0.2450
 2244SOL     OW 7630   1.268   2.620   3.441 -0.4160  0.3402 -0.3497
 2244SOL    HW1 7631   1.193   2.556   3.458 -1.0780  0.8724 -1.2200
 2244SOL    HW2 7632   1.236   2.695   3.383  0.3809  1.4181  0.5704
 2245SOL     OW 7633   6.539   4.139   4.512  0.4295  0.1241  0.2721
 2245SOL    HW1 7634   6.611   4.108   4.574  0.5187  1.0979  0.6718
 2245SOL    HW2 7635   6.491   4.059   4.474  0.9259 -0.5031  0.9369
 2246SOL     OW 7636   1.539   3.692   5.841 -0.0892 -0.0302  0.4269
 2246SOL    HW1 7637   1.506   3.686   5.746 -0.1104  0.5329  0.3993
 2246SOL    HW2 7638   1.639   3.682   5.841 -0.0366  0.4731  0.2933
 2247SOL     OW 7639   4.063   6.133   4.404  0.2529  0.0768  0.6107
 2247SOL    HW1 7640   4.025   6.136   4.312  0.1611 -0.4859  0.6248
 2247SOL    HW2 7641   3.988   6.120   4.470  0.4971 -1.8800  0.5754
 2248SOL     OW 7642   6.953   4.175   3.236  0.2741  0.0318 -0.1671
 2248SOL    HW1 7643   7.006   4.100   3.197  0.9931 -0.3396  1.4157
 2248SOL    HW2 7644   6.973   4.259   3.187  2.2523 -0.1303  0.2699
 2249SOL     OW 7645   1.669   2.434   4.099 -0.3132 -0.1308  0.0822
 2249SOL    HW1 7646   1.670   2.518   4.153 -0.3661  0.9009 -1.4323
 2249SOL    HW2 7647   1.729   2.366   4.141 -0.7139  0.4434  1.6533
 2250SOL     OW 7648   6.184   0.292   4.821 -0.3033  0.2903  0.3539
 2250SOL    HW1 7649   6.120   0.288   4.898 -0.8965  0.1163 -0.1457
 2250SOL    HW2 7650   6.174   0.210   4.764 -1.0085  1.1530 -0.8075
 2251SOL     OW 7651   4.479   1.713   5.968  0.2097 -0.1165  0.0248
 2251SOL    HW1 7652   4.419   1.733   6.046  1.0678  0.8053  0.4792
 2251SOL    HW2 7653   4.533   1.795   5.946  0.8298 -0.7264 -0.7795
 2252SOL     OW 7654   0.738   0.133   6.704 -0.4692 -0.2531  0.2201
 2252SOL    HW1 7655   0.766   0.211   6.759  0.8115 -0.6168  0.1066
 2252SOL    HW2 7656   0.688   0.067   6.761 -0.2499 -0.0474  0.6492
 2253SOL     OW 7657   2.841   2.349   4.202 -0.0946  0.3395  0.0393
 2253SOL    HW1 7658   2.848   2.401   4.287  0.7985 -2.0946  1.5654
 2253SOL    HW2 7659   2.910   2.276   4.201 -1.1328 -0.7296 -2.0386
 2254SOL     OW 7660   0.990   2.409   0.302  0.1141  0.4220 -0.1950
 2254SOL    HW1 7661   1.013   2.497   0.260 -3.8821  0.5348 -2.5948
 2254SOL    HW2 7662   1.013   2.411   0.399  2.1902  3.2172 -0.6362
 2255SOL     OW 7663   4.277   3.848   6.971 -0.0334  0.0678 -0.6190
 2255SOL    HW1 7664   4.227   3.916   7.024 -0.7522 -0.2628 -0.8561
 2255SOL    HW2 7665   4.228   3.760   6.975  0.5204 -0.2560 -0.8709
 2256SOL     OW 7666   2.093   1.467   0.476 -0.3213  0.0903  0.2746
 2256SOL    HW1 7667   2.134   1.402   0.412 -0.2940 -0.2907  0.6756
 2256SOL    HW2 7668   2.039   1.535   0.425  0.3820  0.2904 -0.2087
 2257SOL     OW 7669   2.738   6.624   1.415 -0.7953  0.6865 -0.7771
 2257SOL    HW1 7670   2.788   6.649   1.498  0.9211 -0.5446 -1.3872
 2257SOL    HW2 7671   2.757   6.691   1.343 -2.8728  2.1765 -0.0385
 2258SOL     OW 7672   2.169   3.266   3.605 -0.3122 -0.1433  0.4039
 2258SOL    HW1 7673   2.143   3.189   3.662  0.6784 -0.3418  0.5994
 2258SOL    HW2 7674   2.225   3.330   3.658  1.2941 -0.7200 -0.5114
 2259SOL     OW 7675   2.006   1.701   5.239  0.0897  0.2673 -0.0522
 2259SOL    HW1 7676   2.047   1.752   5.315 -1.6915  1.4847  0.1685
 2259SOL    HW2 7677   2.074   1.686   5.168  1.4859  0.1686  1.2604
 2260SOL     OW 7678   0.089   3.041   1.124 -0.4897 -0.2058 -0.1302
 2260SOL    HW1 7679   0.157   3.008   1.190 -1.6990  0.9462  1.8045
 2260SOL    HW2 7680   0.113   3.133   1.095 -0.8097 -0.0949 -0.0462
 2261SOL     OW 7681   1.112   1.878   6.238  0.0864 -0.1822  0.3186
 2261SOL    HW1 7682   1.198   1.882   6.188  1.0400  1.4303  1.9610
 2261SOL    HW2 7683   1.036   1.904   6.178  1.1514  1.4420 -0.3735
 2262SOL     OW 7684   5.151   1.613   3.341  0.1748  0.3709 -0.1060
 2262SOL    HW1 7685   5.136   1.514   3.346 -0.0601  0.4670  1.5787
 2262SOL    HW2 7686   5.063   1.659   3.324  0.4354  0.2675 -1.9935
 2263SOL     OW 7687   5.786   4.021   3.101 -0.0752 -0.0265  0.0278
 2263SOL    HW1 7688   5.709   4.061   3.152 -0.7513 -0.7809 -0.3747
 2263SOL    HW2 7689   5.836   4.094   3.054 -0.7225  0.4485  0.0570
 2264SOL     OW 7690   2.649   5.524   2.357  0.1055  0.1069 -1.0023
 2264SOL    HW1 7691   2.618   5.496   2.448  1.0992  0.4029 -0.5668
 2264SOL    HW2 7692   2.645   5.623   2.350  1.9854  0.2495 -0.5314
 2265SOL     OW 7693   6.754   6.102   5.277  0.3970  0.1454 -0.2895
 2265SOL    HW1 7694   6.713   6.191   5.296  0.0754 -0.1550  0.4985
 2265SOL    HW2 7695   6.853   6.110   5.272  0.3785  0.5195 -0.0568
 2266SOL     OW 7696   6.238   6.938   1.133  0.0864 -0.1563  0.0782
 2266SOL    HW1 7697   6.259   7.007   1.202  0.1576 -0.4258  0.3269
 2266SOL    HW2 7698   6.168   6.875   1.169 -0.9824  0.5804 -0.6419
 2267SOL     OW 7699   4.182   0.526   3.283  0.6871  0.5344 -0.3193
 2267SOL    HW1 7700   4.268   0.525   3.335  0.1727  0.3046  0.5455
 2267SOL    HW2 7701   4.131   0.442   3.301  0.8204  0.1261 -1.7711
 2268SOL     OW 7702   3.085   5.708   2.023 -0.6279 -0.0125  0.2284
 2268SOL    HW1 7703   3.017   5.690   2.094 -0.3936 -0.8058  0.2530
 2268SOL    HW2 7704   3.138   5.626   2.005 -0.8917  0.0893 -1.1065
 2269SOL     OW 7705   3.732   1.747   1.547  0.2436 -0.4354  0.1868
 2269SOL    HW1 7706   3.798   1.818   1.521 -0.5197 -0.4356 -1.9994
 2269SOL    HW2 7707   3.642   1.789   1.560  0.2686 -0.6971  1.2606
 2270SOL     OW 7708   2.019   1.761   5.646  0.4686 -0.1201  0.0582
 2270SOL    HW1 7709   2.023   1.856   5.614 -0.3020  0.7496  2.3098
 2270SOL    HW2 7710   2.102   1.738   5.696  0.5792 -0.5738 -0.3295
 2271SOL     OW 7711   5.171   6.213   6.863  0.1492  0.0149 -0.3724
 2271SOL    HW1 7712   5.110   6.208   6.783 -1.5438 -2.4130  0.9171
 2271SOL    HW2 7713   5.256   6.165   6.843 -0.5394 -1.1752 -0.5477
 2272SOL     OW 7714   3.256   0.520   5.745 -0.4191  0.9038  0.5269
 2272SOL    HW1 7715   3.342   0.514   5.796  0.5854 -1.0993 -1.2506
 2272SOL    HW2 7716   3.179   0.511   5.808  0.7332  0.0875  1.8730
 2273SOL     OW 7717   1.763   0.164   6.370  0.1945 -0.2395 -0.6743
 2273SOL    HW1 7718   1.670   0.200   6.363  0.2167 -0.0838 -0.1744
 2273SOL    HW2 7719   1.827   0.230   6.331  0.1346 -0.1906 -0.6902
 2274SOL     OW 7720   5.387   3.770   2.153  0.2812 -0.4047  0.1750
 2274SOL    HW1 7721   5.459   3.714   2.113  0.9221 -0.4297  1.3143
 2274SOL    HW2 7722   5.420   3.863   2.166  1.4959 -1.2009  4.0362
 2275SOL     OW 7723   4.453   6.820   1.741 -0.2603  0.3841  0.0322
 2275SOL    HW1 7724   4.495   6.836   1.830 -0.3603  0.6196  0.0369
 2275SOL    HW2 7725   4.388   6.893   1.721 -0.6803  0.0180  0.0318
 2276SOL     OW 7726   4.122   3.620   7.004 -0.6076  0.1403  0.0763
 2276SOL    HW1 7727   4.077   3.586   6.922  1.1049 -1.3516 -0.2918
 2276SOL    HW2 7728   4.053   3.657   7.067 -2.1152 -0.3005 -1.2639
 2277SOL     OW 7729   2.466   1.381   1.393  0.0055 -0.3393 -0.1199
 2277SOL    HW1 7730   2.552   1.345   1.431  0.7593 -2.1635 -3.2310
 2277SOL    HW2 7731   2.400   1.306   1.382 -0.9015  0.4921 -0.5323
 2278SOL     OW 7732   2.983   0.164   6.716  0.1947  0.0292 -0.1044
 2278SOL    HW1 7733   2.967   0.134   6.810  1.8680 -1.1769 -0.1505
 2278SOL    HW2 7734   3.005   0.261   6.715 -0.2127  0.1317  0.7035
 2279SOL     OW 7735   4.574   4.895   6.606 -0.0914  0.2237  0.2206
 2279SOL    HW1 7736   4.626   4.824   6.559 -3.2780 -2.5356  0.5508
 2279SOL    HW2 7737   4.558   4.972   6.544 -1.1200 -1.7259 -2.0432
 2280SOL     OW 7738   6.626   3.164   6.189  0.4516  0.1618  0.2518
 2280SOL    HW1 7739   6.720   3.178   6.220  0.1937  2.6016  0.1524
 2280SOL    HW2 7740   6.587   3.084   6.235  2.7547 -1.3509 -0.2335
 2281SOL     OW 7741   1.950   6.871   4.568 -0.1820 -0.3703 -0.4639
 2281SOL    HW1 7742   2.027   6.809   4.587  0.4127  0.2535 -0.7863
 2281SOL    HW2 7743   1.869   6.817   4.546  0.9119 -1.1081 -3.0933
 2282SOL     OW 7744   6.888   3.930   4.944  0.1228  0.5310  1.0007
 2282SOL    HW1 7745   6.983   3.929   4.975  0.5957 -0.3846 -0.3982
 2282SOL    HW2 7746   6.836   3.862   4.996  0.6238 -0.1359  0.6437
 2283SOL     OW 7747   4.827   6.142   2.397 -0.3669  0.0036 -0.3833
 2283SOL    HW1 7748   4.760   6.132   2.470 -0.1087 -0.2126 -0.1715
 2283SOL    HW2 7749   4.793   6.099   2.313 -1.2503  1.4292 -0.7880
 2284SOL     OW 7750   2.710   5.761   0.560  0.4004 -0.6130 -0.3026
 2284SOL    HW1 7751   2.676   5.831   0.496  1.5086  0.1995 -0.0268
 2284SOL    HW2 7752   2.646   5.751   0.636  0.7209  0.8941  0.2049
 2285SOL     OW 7753   1.341   5.480   1.414 -0.5608  0.4918 -0.0445
 2285SOL    HW1 7754   1.245   5.505   1.406 -0.9299 -1.1938 -1.5508
 2285SOL    HW2 7755   1.375   5.508   1.504 -1.7926  3.1350 -0.2947
 2286SOL     OW 7756   4.775   4.450   2.716  0.7363  0.5653 -0.2142
 2286SOL    HW1 7757   4.685   4.467   2.755 -0.1472 -1.8574 -1.0168
 2286SOL    HW2 7758   4.778   4.358   2.677  3.4144  0.7536 -0.6674
 2287SOL     OW 7759   0.336   3.651   3.591 -0.0973 -0.2149  0.4052
 2287SOL    HW1 7760   0.346   3.729   3.653 -2.5189 -0.5007  1.2655
 2287SOL    HW2 7761   0.276   3.676   3.516  0.9869 -0.5821 -0.6186
 2288SOL     OW 7762   0.414   5.061   4.105 -0.2285  0.0321 -0.2543
 2288SOL    HW1 7763   0.328   5.039   4.058  0.9331 -0.1991 -2.3769
 2288SOL    HW2 7764   0.483   4.992   4.083  0.5108  0.1669  1.4837
 2289SOL     OW 7765   5.510   0.570   0.240  0.1309  0.0079  0.5527
 2289SOL    HW1 7766   5.585   0.545   0.302  0.5195  1.0852  0.5270
 2289SOL    HW2 7767   5.505   0.503   0.166  1.3917  0.1862  0.2837
 2290SOL     OW 7768   5.283   5.305   1.694  0.1981 -0.1542  0.1207
 2290SOL    HW1 7769   5.372   5.266   1.719  0.9781  0.6049 -1.3235
 2290SOL    HW2 7770   5.262   5.380   1.756  0.4691 -0.4624  0.5972
 2291SOL     OW 7771   5.960   6.793   0.974  0.0916 -0.0984 -0.4826
 2291SOL    HW1 7772   5.995   6.836   0.890  0.7335 -0.9712 -0.6736
 2291SOL    HW2 7773   5.923   6.703   0.951  1.9289 -1.1272  0.4413
 2292SOL     OW 7774   3.300   5.664   5.164 -0.3519 -0.0152  0.0229
 2292SOL    HW1 7775   3.395   5.692   5.182  0.3339 -1.0419 -1.7922
 2292SOL    HW2 7776   3.299   5.575   5.119 -2.1030  0.6228 -1.2963
 2293SOL     OW 7777   2.965   4.950   4.222  0.0564 -0.0016 -0.7532
 2293SOL    HW1 7778   2.938   4.908   4.309 -1.2440  0.2384 -1.0168
 2293SOL    HW2 7779   2.905   5.027   4.202  1.0446  0.6417 -1.3408
 2294SOL     OW 7780   0.080   6.538   4.999 -0.3928  0.6604 -0.4525
 2294SOL    HW1 7781   0.154   6.542   4.931 -1.2100 -0.8093 -1.4796
 2294SOL    HW2 7782   0.078   6.448   5.041 -1.5502  0.7119 -0.3702
 2295SOL     OW 7783   0.520   0.946   2.699 -0.2153 -0.0535 -0.1659
 2295SOL    HW1 7784   0.500   0.971   2.604  0.6410 -0.4866 -0.4651
 2295SOL    HW2 7785   0.494   0.850   2.713 -0.2717 -0.0103  0.0256
 2296SOL     OW 7786   4.630   6.103   5.822 -0.0930  0.0473  0.0171
 2296SOL    HW1 7787   4.698   6.147   5.879  0.2603  1.3142 -1.3316
 2296SOL    HW2 7788   4.654   6.114   5.726 -1.1407 -1.2497 -0.4288
 2297SOL     OW 7789   5.168   4.360   6.609  0.7682  0.6316 -0.2250
 2297SOL    HW1 7790   5.209   4.446   6.578 -1.0036  1.5195 -0.2257
 2297SOL    HW2 7791   5.124   4.315   6.532 -1.4642  1.5927  0.3913
 2298SOL     OW 7792   2.736   4.756   0.714  0.5969 -0.0540 -1.0185
 2298SOL    HW1 7793   2.649   4.711   0.736 -0.6931  1.7062 -2.2558
 2298SOL    HW2 7794   2.803   4.734   0.785 -0.8040 -1.5337 -0.0642
 2299SOL     OW 7795   4.062   5.047   3.345 -0.2439 -0.1791 -0.3903
 2299SOL    HW1 7796   4.030   4.956   3.370 -0.8493  0.4039  1.1207
 2299SOL    HW2 7797   3.985   5.111   3.346  0.3670  0.5761 -0.1694
 2300SOL     OW 7798   3.980   0.111   3.114  0.2945  0.4283 -0.2712
 2300SOL    HW1 7799   3.967   0.014   3.092  0.9326 -0.0186  1.2272
 2300SOL    HW2 7800   4.075   0.137   3.096  0.1280  0.7805 -0.6559
 2301SOL     OW 7801   5.391   5.829   5.635 -0.2154  0.4451 -0.1545
 2301SOL    HW1 7802   5.391   5.883   5.551  0.4286  1.3336  0.3984
 2301SOL    HW2 7803   5.319   5.760   5.631 -2.5997  2.7880  0.0131
 2302SOL     OW 7804   3.612   0.786   3.177  0.5558  0.1535 -0.1365
 2302SOL    HW1 7805   3.629   0.833   3.090  2.3373 -0.4777 -0.1805
 2302SOL    HW2 7806   3.688   0.804   3.240  0.1717 -0.8433  0.6361
 2303SOL     OW 7807   2.984   3.372   5.619  0.5133 -0.0532  0.1498
 2303SOL    HW1 7808   3.032   3.422   5.547  2.1972 -1.2224  0.4034
 2303SOL    HW2 7809   2.966   3.278   5.589  0.5911 -0.3434  0.9775
 2304SOL     OW 7810   0.682   4.507   6.748 -0.2363 -0.4183 -0.3029
 2304SOL    HW1 7811   0.776   4.526   6.776  0.0484  0.4281 -1.7423
 2304SOL    HW2 7812   0.652   4.576   6.683 -2.2735 -0.0349  0.9745
 2305SOL     OW 7813   2.256   0.639   3.419 -0.1832  0.0507  0.4612
 2305SOL    HW1 7814   2.260   0.715   3.354 -1.2075 -0.0256  0.2918
 2305SOL    HW2 7815   2.349   0.606   3.438  0.1175 -0.6080 -1.7966
 2306SOL     OW 7816   5.703   2.199   0.685 -0.0061  0.4134 -0.2479
 2306SOL    HW1 7817   5.641   2.276   0.702 -0.5071  0.5424 -2.3773
 2306SOL    HW2 7818   5.762   2.186   0.764 -0.3464  2.5719  0.4322
 2307SOL     OW 7819   0.301   3.924   6.898  0.2211  0.1236 -0.1754
 2307SOL    HW1 7820   0.219   3.881   6.860  0.1155  0.1491  0.0217
 2307SOL    HW2 7821   0.371   3.933   6.827  0.9479 -2.0838  0.1731
 2308SOL     OW 7822   1.195   1.116   4.686  0.1840  0.5518 -0.1415
 2308SOL    HW1 7823   1.241   1.028   4.689  1.2743  1.1400  1.7298
 2308SOL    HW2 7824   1.100   1.103   4.658  0.2235 -1.2484  0.4616
 2309SOL     OW 7825   5.639   0.070   2.112 -0.0794 -0.1689  0.5048
 2309SOL    HW1 7826   5.595   0.130   2.179  1.4228  1.5309  0.0391
 2309SOL    HW2 7827   5.713   0.019   2.157 -0.9584 -1.2404  0.7626
 2310SOL     OW 7828   1.969   3.804   0.941  0.5903 -0.1244  0.2882
 2310SOL    HW1 7829   1.880   3.848   0.959  1.0429  0.8614  0.1951
 2310SOL    HW2 7830   1.974   3.779   0.844  0.5798  0.2393  0.1882
 2311SOL     OW 7831   0.175   6.652   5.403  0.1360 -0.3321  0.2185
 2311SOL    HW1 7832   0.148   6.654   5.500  0.2910  1.7768  0.2649
 2311SOL    HW2 7833   0.121   6.720   5.353 -0.8439 -2.2570 -1.4696
 2312SOL     OW 7834   3.585   5.265   5.200  0.5227 -0.3067  0.2438
 2312SOL    HW1 7835   3.551   5.322   5.275 -0.4016 -0.0797 -0.3395
 2312SOL    HW2 7836   3.672   5.303   5.166  0.5746  0.0022  0.7132
 2313SOL     OW 7837   0.611   0.807   5.601 -0.4444 -0.0928 -0.6066
 2313SOL    HW1 7838   0.664   0.878   5.556  0.9328 -0.0187  1.0018
 2313SOL    HW2 7839   0.609   0.824   5.700 -0.5330 -1.9804 -0.2351
 2314SOL     OW 7840   1.188   5.186   0.265 -0.0895 -0.0604 -0.5242
 2314SOL    HW1 7841   1.214   5.131   0.185  2.2796  1.2574 -0.7404
 2314SOL    HW2 7842   1.175   5.126   0.344  2.4488 -0.9999 -0.7351
 2315SOL     OW 7843   1.695   1.661   0.569  0.4758  0.1843  0.4660
 2315SOL    HW1 7844   1.766   1.591   0.570  0.8138  0.5251  0.3401
 2315SOL    HW2 7845   1.734   1.749   0.594  0.5540  0.8101 -1.7049
 2316SOL     OW 7846   4.911   2.958   6.031 -0.6796  0.4823  0.0943
 2316SOL    HW1 7847   4.827   2.941   6.083 -0.6840  0.7534  0.1795
 2316SOL    HW2 7848   4.984   2.899   6.064 -0.1579  1.9318  1.6971
 2317SOL     OW 7849   2.587   5.747   0.795 -0.1570 -0.5162 -0.7181
 2317SOL    HW1 7850   2.488   5.760   0.806 -0.3141 -2.0572 -0.0514
 2317SOL    HW2 7851   2.635   5.815   0.851 -0.8878 -1.1430  0.7490
 2318SOL     OW 7852   3.794   0.890   3.352 -0.3295  0.2078  0.0110
 2318SOL    HW1 7853   3.787   0.985   3.321 -2.2069  0.0028 -0.2750
 2318SOL    HW2 7854   3.890   0.870   3.374 -0.0065  2.4641  1.0299
 2319SOL     OW 7855   2.494   1.747   5.309  0.0085  0.0051 -0.5113
 2319SOL    HW1 7856   2.429   1.672   5.326  0.9435 -0.7374 -0.1143
 2319SOL    HW2 7857   2.443   1.830   5.285 -1.0832 -0.5707 -0.2789
 2320SOL     OW 7858   0.931   0.549   4.005 -0.0834  1.0591 -0.2623
 2320SOL    HW1 7859   0.885   0.575   3.920 -1.1934 -2.4498 -0.8836
 2320SOL    HW2 7860   1.022   0.514   3.985 -0.6643 -0.5867 -0.2062
 2321SOL     OW 7861   3.714   5.471   2.352 -0.4351  0.3857 -0.1624
 2321SOL    HW1 7862   3.728   5.566   2.322  0.3203  0.4613  0.4133
 2321SOL    HW2 7863   3.635   5.466   2.413 -0.5383  0.6208 -0.2747
 2322SOL     OW 7864   4.525   0.052   6.279  0.2723 -0.4125 -0.2455
 2322SOL    HW1 7865   4.442  -0.000   6.257  0.0247  0.2186 -0.8451
 2322SOL    HW2 7866   4.511   0.102   6.364  0.4403 -1.1465  0.2313
 2323SOL     OW 7867   4.390   6.562   0.614  0.0798  0.0565 -0.1876
 2323SOL    HW1 7868   4.363   6.509   0.534  1.3649 -0.1947 -0.4761
 2323SOL    HW2 7869   4.442   6.643   0.584 -1.1746  1.0819  0.2899
 2324SOL     OW 7870   3.244   2.077   0.561  0.5328 -1.0085  0.6465
 2324SOL    HW1 7871   3.148   2.102   0.569  0.4753 -0.9559 -0.1846
 2324SOL    HW2 7872   3.268   2.065   0.465  1.3759 -0.9543  0.8417
 2325SOL     OW 7873   5.862   6.055   4.432  0.1101 -0.3577  0.1476
 2325SOL    HW1 7874   5.917   6.025   4.354 -0.3587 -1.9907  0.4151
 2325SOL    HW2 7875   5.769   6.074   4.402  0.1248 -0.2298  0.1807
 2326SOL     OW 7876   5.642   3.947   5.326 -0.1468 -0.9277 -0.7852
 2326SOL    HW1 7877   5.737   3.952   5.356 -0.7928 -1.6219  1.5929
 2326SOL    HW2 7878   5.632   3.996   5.239  1.9792  0.9381 -0.0878
 2327SOL     OW 7879   1.087   2.536   2.577  0.5361  0.1555  0.1591
 2327SOL    HW1 7880   1.091   2.624   2.530 -2.6852  0.1867 -0.3169
 2327SOL    HW2 7881   0.991   2.508   2.586  1.3854 -2.6702  1.5342
 2328SOL     OW 7882   5.516   5.641   6.437 -0.5564  0.0053 -0.4153
 2328SOL    HW1 7883   5.612   5.663   6.425 -0.5055 -0.9368 -2.0709
 2328SOL    HW2 7884   5.494   5.639   6.534  0.2115  3.7578 -0.0120
 2329SOL     OW 7885   2.560   4.581   0.839 -0.2505 -0.2447 -0.0091
 2329SOL    HW1 7886   2.465   4.553   0.825 -0.1779 -0.3828 -0.2367
 2329SOL    HW2 7887   2.563   4.659   0.902 -0.4218 -1.0405  1.0097
 2330SOL     OW 7888   5.524   4.414   3.740 -0.4022  0.2326 -0.1530
 2330SOL    HW1 7889   5.473   4.336   3.777 -0.9556  0.7906  0.2753
 2330SOL    HW2 7890   5.618   4.386   3.720 -0.9934 -0.9625 -1.4341
 2331SOL     OW 7891   0.437   0.477   3.713  0.3847 -0.0168  0.4242
 2331SOL    HW1 7892   0.384   0.508   3.634  1.7481 -0.8397 -0.8582
 2331SOL    HW2 7893   0.490   0.554   3.749 -0.6170  0.4802  0.8567
 2332SOL     OW 7894   3.280   5.220   5.329  0.0369  0.5351  0.0590
 2332SOL    HW1 7895   3.276   5.132   5.376  0.0894  1.1763  1.3118
 2332SOL    HW2 7896   3.372   5.234   5.292  0.2191  0.3441  0.4278
 2333SOL     OW 7897   5.447   4.782   5.209  0.3950 -0.4546 -0.6420
 2333SOL    HW1 7898   5.441   4.761   5.111  1.4020  0.9776 -1.0378
 2333SOL    HW2 7899   5.510   4.719   5.253 -0.3770 -1.3731 -0.8126
 2334SOL     OW 7900   3.277   1.663   3.101 -0.1938  0.0565 -0.1435
 2334SOL    HW1 7901   3.349   1.596   3.088 -0.7877 -0.6814  0.3234
 2334SOL    HW2 7902   3.239   1.689   3.012  1.1361  1.0223 -0.4602
 2335SOL     OW 7903   5.560   3.303   3.212 -0.3790 -0.2387  0.1221
 2335SOL    HW1 7904   5.504   3.352   3.145 -0.0711  0.9696  0.7196
 2335SOL    HW2 7905   5.520   3.213   3.228 -2.3905  0.7066  0.7960
 2336SOL     OW 7906   4.294   1.564   4.979 -0.2785 -0.1248 -0.2505
 2336SOL    HW1 7907   4.201   1.599   4.989  0.3280  1.3902  0.2763
 2336SOL    HW2 7908   4.326   1.580   4.886  1.0267  3.5482  0.6602
 2337SOL     OW 7909   0.859   4.342   4.864 -0.1849  0.5283 -0.4854
 2337SOL    HW1 7910   0.942   4.315   4.816  0.2511  2.1021 -0.6719
 2337SOL    HW2 7911   0.861   4.306   4.957  0.4348  0.0733 -0.6720
 2338SOL     OW 7912   6.629   3.393   4.169 -0.1024  0.0418 -0.3054
 2338SOL    HW1 7913   6.626   3.369   4.072  0.2469  0.2903 -0.3806
 2338SOL    HW2 7914   6.574   3.475   4.184  0.5807  0.5448 -0.4632
 2339SOL     OW 7915   4.629   2.162   0.175 -0.3003 -0.5326 -0.7251
 2339SOL    HW1 7916   4.533   2.158   0.147  0.0854  0.0184 -2.2384
 2339SOL    HW2 7917   4.656   2.257   0.189 -0.0383 -0.7012 -0.0730
 2340SOL     OW 7918   1.377   4.001   6.340 -0.0850 -0.4414  0.4848
 2340SOL    HW1 7919   1.367   4.101   6.342  0.5211 -0.3325 -0.6030
 2340SOL    HW2 7920   1.391   3.967   6.432 -2.6334  0.1993  1.1735
 2341SOL     OW 7921   5.051   1.851   1.619  0.0015 -0.3599 -0.2630
 2341SOL    HW1 7922   4.961   1.807   1.608  0.3406 -0.9859 -0.5663
 2341SOL    HW2 7923   5.042   1.929   1.681 -0.3846 -1.5392  1.2353
 2342SOL     OW 7924   2.287   2.747   2.849  0.1225  0.2973  0.0718
 2342SOL    HW1 7925   2.323   2.757   2.942 -0.2922 -2.8464  0.7059
 2342SOL    HW2 7926   2.212   2.681   2.850 -0.5719  0.9707 -2.3673
 2343SOL     OW 7927   1.380   0.019   2.622 -0.3016  0.2004 -0.6571
 2343SOL    HW1 7928   1.300   0.079   2.617 -0.9661 -0.5447  0.5487
 2343SOL    HW2 7929   1.356  -0.064   2.673  1.8012  0.9409  1.7682
 2344SOL     OW 7930   4.312   3.922   0.976  0.2428  0.7176 -0.1582
 2344SOL    HW1 7931   4.370   3.851   1.015 -1.1116 -0.6869 -0.5964
 2344SOL    HW2 7932   4.357   3.960   0.895  1.0366  0.4442  0.1429
 2345SOL     OW 7933   3.780   4.425   0.534  0.5541  0.5430  0.7066
 2345SOL    HW1 7934   3.795   4.332   0.566  0.1125  0.1400 -0.2054
 2345SOL    HW2 7935   3.695   4.461   0.574 -0.6443 -0.3984 -0.8598
 2346SOL     OW 7936   1.102   2.072   5.226  0.1436  0.0244  0.1285
 2346SOL    HW1 7937   1.006   2.054   5.204  0.6259 -0.9162 -1.3367
 2346SOL    HW2 7938   1.117   2.171   5.228 -0.9678  0.1975  0.9823
 2347SOL     OW 7939   4.013   1.441   4.128  0.5627  0.0883 -1.0405
 2347SOL    HW1 7940   3.972   1.352   4.110 -0.7991  0.1163  1.4240
 2347SOL    HW2 7941   3.941   1.511   4.129  1.2452  0.7929 -0.5199
 2348SOL     OW 7942   4.519   3.298   6.263 -0.2005  0.0549 -0.2426
 2348SOL    HW1 7943   4.583   3.264   6.194 -1.8006 -0.9185 -1.3039
 2348SOL    HW2 7944   4.538   3.253   6.350  1.3263  0.6953 -0.2124
 2349SOL     OW 7945   2.504   5.594   5.920  0.1701 -0.2053 -0.2749
 2349SOL    HW1 7946   2.423   5.653   5.912  0.0087 -0.4728 -0.6177
 2349SOL    HW2 7947   2.478   5.507   5.962  0.3313 -0.1918 -0.1446
 2350SOL     OW 7948   4.601   5.107   5.743 -0.1103  0.2627 -0.8189
 2350SOL    HW1 7949   4.527   5.174   5.750 -0.4210 -0.1566 -0.1345
 2350SOL    HW2 7950   4.653   5.125   5.659 -0.5719  0.9733 -0.9618
 2351SOL     OW 7951   5.858   0.185   3.409 -0.6671 -0.2043 -0.3603
 2351SOL    HW1 7952   5.917   0.261   3.381  1.2977 -1.8252 -0.8857
 2351SOL    HW2 7953   5.762   0.213   3.405 -0.0058  3.4300  3.0709
 2352SOL     OW 7954   6.668   1.175   1.184 -0.8635 -0.3657  0.0084
 2352SOL    HW1 7955   6.573   1.171   1.154 -0.6946  0.0105 -0.5900
 2352SOL    HW2 7956   6.728   1.161   1.106 -0.3920  2.0122 -0.1151
 2353SOL     OW 7957   4.208   3.133   7.011  0.0164  0.6710 -0.0653
 2353SOL    HW1 7958   4.239   3.051   7.059 -0.0998  0.0921 -0.9416
 2353SOL    HW2 7959   4.185   3.109   6.916 -2.6857  1.1561  0.3892
 2354SOL     OW 7960   4.729   5.532   4.409  0.4250 -0.0147 -0.0584
 2354SOL    HW1 7961   4.828   5.532   4.414  0.4229 -0.2094 -0.0123
 2354SOL    HW2 7962   4.693   5.451   4.455  0.2540 -0.0543 -0.2625
 2355SOL     OW 7963   6.014   4.852   2.677 -0.3397  0.0630  0.2186
 2355SOL    HW1 7964   6.031   4.766   2.726  3.4050  1.0399  0.9381
 2355SOL    HW2 7965   6.049   4.845   2.584  0.3221  0.9112  0.3967
 2356SOL     OW 7966   1.910   0.378   4.134  0.1406  0.2610  0.2955
 2356SOL    HW1 7967   1.874   0.471   4.139 -0.0354  0.1749  0.6234
 2356SOL    HW2 7968   1.856   0.317   4.192  0.4179  0.0045  0.2918
 2357SOL     OW 7969   1.362   0.858   6.175 -0.3614 -0.2521 -0.4479
 2357SOL    HW1 7970   1.444   0.801   6.169  1.7005  2.3997  0.3416
 2357SOL    HW2 7971   1.288   0.817   6.121  1.2446 -3.0865 -0.6563
 2358SOL     OW 7972   2.371   6.534   6.322 -0.0161  0.5791  0.2191
 2358SOL    HW1 7973   2.443   6.585   6.275  0.7539 -0.0869  0.6443
 2358SOL    HW2 7974   2.289   6.533   6.266  0.7610  0.1179 -0.9564
 2359SOL     OW 7975   3.722   1.914   4.520 -0.1182 -0.1527 -0.8875
 2359SOL    HW1 7976   3.777   1.835   4.546  1.1562  0.8323 -0.5064
 2359SOL    HW2 7977   3.680   1.897   4.430 -3.3656 -2.9915  0.9205
 2360SOL     OW 7978   3.836   3.436   0.370  0.2079  0.1162 -0.1486
 2360SOL    HW1 7979   3.777   3.389   0.303 -1.4031 -0.1100  1.3571
 2360SOL    HW2 7980   3.784   3.508   0.415  0.7945 -0.6640  1.8640
 2361SOL     OW 7981   4.743   0.999   1.883  0.1667  0.1853 -0.3214
 2361SOL    HW1 7982   4.766   1.096   1.889 -2.0665  0.7626 -0.0739
 2361SOL    HW2 7983   4.749   0.957   1.974  0.4859  0.2528 -0.3118
 2362SOL     OW 7984   0.624   2.994   6.911 -0.0533 -0.1606  0.0316
 2362SOL    HW1 7985   0.665   3.046   6.986  0.7967 -0.1349 -0.4355
 2362SOL    HW2 7986   0.614   3.053   6.831 -0.9317 -0.1941  0.1111
 2363SOL     OW 7987   6.822   1.900   4.977  0.8328  0.1589 -0.4331
 2363SOL    HW1 7988   6.809   1.868   4.883  1.5025  1.6962 -1.0714
 2363SOL    HW2 7989   6.733   1.908   5.022  0.4978 -0.4888 -0.9561
 2364SOL     OW 7990   2.326   4.721   3.943  0.0771 -0.1798  0.0678
 2364SOL    HW1 7991   2.335   4.794   4.011  2.1620 -0.0861 -0.2436
 2364SOL    HW2 7992   2.402   4.657   3.953 -0.7366 -1.3195 -0.8435
 2365SOL     OW 7993   2.416   2.883   5.744 -0.0957 -0.5708  0.7976
 2365SOL    HW1 7994   2.503   2.918   5.779 -0.1829 -0.2250  0.6745
 2365SOL    HW2 7995   2.434   2.812   5.676  0.1024 -0.1047  0.3600
 2366SOL     OW 7996   2.295   5.612   5.595 -0.1323 -0.3920 -0.2759
 2366SOL    HW1 7997   2.204   5.654   5.586 -0.7948 -1.7955 -0.4172
 2366SOL    HW2 7998   2.360   5.660   5.536 -0.9795  0.0812 -0.8491
 2367SOL     OW 7999   4.633   0.274   3.396  0.1714 -0.1971  0.1396
 2367SOL    HW1 8000   4.667   0.184   3.370 -2.8461 -1.2314 -0.6239
 2367SOL    HW2 8001   4.649   0.339   3.322 -1.3376 -1.2034 -1.1367
 2368SOL     OW 8002   2.988   0.423   2.712 -0.2626  0.1278  0.1511
 2368SOL    HW1 8003   3.022   0.449   2.622 -2.5573 -0.2665 -0.8847
 2368SOL    HW2 8004   3.049   0.354   2.751  1.8680  1.6961 -0.1723
 2369SOL     OW 8005   0.715   0.952   4.235 -0.2247  0.4919 -0.5858
 2369SOL    HW1 8006   0.771   0.904   4.302  0.2426  1.9661  0.1221
 2369SOL    HW2 8007   0.618   0.936   4.253 -0.0898 -1.5639 -1.4331
 2370SOL     OW 8008   5.661   2.370   0.182 -0.3641  0.0631 -0.2359
 2370SOL    HW1 8009   5.587   2.376   0.115 -0.7862  1.9378  0.3306
 2370SOL    HW2 8010   5.625   2.378   0.274  0.2246 -2.4636  0.2945
 2371SOL     OW 8011   4.097   3.744   2.790  0.5007  0.3219  0.1126
 2371SOL    HW1 8012   4.094   3.644   2.787  1.2698  0.2819  0.5041
 2371SOL    HW2 8013   4.027   3.777   2.853  0.2825  0.0274  0.0269
 2372SOL     OW 8014   6.753   4.258   5.500  0.3120  0.2161  0.5072
 2372SOL    HW1 8015   6.778   4.166   5.530  0.7262  0.1905  0.1074
 2372SOL    HW2 8016   6.833   4.317   5.507  0.4651  0.1788 -0.6374
 2373SOL     OW 8017   6.547   1.142   2.024  0.4315  0.1476  0.0991
 2373SOL    HW1 8018   6.606   1.083   1.970  0.9626  1.0147 -0.3007
 2373SOL    HW2 8019   6.452   1.128   1.996  0.7787  1.4135 -1.9677
 2374SOL     OW 8020   0.480   5.779   5.546  0.1233 -0.2702  0.7186
 2374SOL    HW1 8021   0.423   5.860   5.561  0.2108 -0.0995  0.1445
 2374SOL    HW2 8022   0.455   5.708   5.612 -0.8038 -0.2259  0.4303
 2375SOL     OW 8023   5.045   6.011   0.271  0.2120  0.6551 -0.2342
 2375SOL    HW1 8024   5.070   5.916   0.250 -0.2827  0.7275 -1.2264
 2375SOL    HW2 8025   4.971   6.011   0.338  0.8494  0.3699  0.4814
 2376SOL     OW 8026   3.929   4.974   4.110 -0.4592  0.1770 -0.4988
 2376SOL    HW1 8027   3.945   4.896   4.050 -0.7666 -1.9095  1.9426
 2376SOL    HW2 8028   3.889   5.050   4.057  0.3450 -1.0742 -3.0597
 2377SOL     OW 8029   2.647   4.989   0.584 -0.6704  0.0874  0.2340
 2377SOL    HW1 8030   2.686   4.901   0.612 -1.3786 -0.9628 -1.8813
 2377SOL    HW2 8031   2.669   5.058   0.653  1.3988 -1.3392  1.1255
 2378SOL     OW 8032   0.541   4.236   4.186  0.5016  0.2445  0.0602
 2378SOL    HW1 8033   0.496   4.185   4.113 -0.7746  2.9968 -1.1915
 2378SOL    HW2 8034   0.504   4.206   4.274 -0.5896 -0.5944 -0.6558
 2379SOL     OW 8035   3.909   0.074   2.291  0.0919  0.0152  0.1920
 2379SOL    HW1 8036   3.979   0.028   2.344 -0.9319 -1.1332  0.5955
 2379SOL    HW2 8037   3.929   0.065   2.193  1.5671  1.4723  0.3075
 2380SOL     OW 8038   4.453   5.945   1.656  0.0680  0.5849  0.7001
 2380SOL    HW1 8039   4.441   5.931   1.558  0.9059 -0.5564  0.7426
 2380SOL    HW2 8040   4.481   6.039   1.673  0.5092  0.6338 -0.2207
 2381SOL     OW 8041   1.667   6.009   6.582 -0.2860 -0.4185 -0.4597
 2381SOL    HW1 8042   1.584   6.055   6.550 -0.5783 -0.3003  0.4413
 2381SOL    HW2 8043   1.652   5.910   6.581 -0.9256 -0.3530  0.9616
 2382SOL     OW 8044   4.153   1.597   1.083 -0.1570 -0.1303 -0.0666
 2382SOL    HW1 8045   4.253   1.595   1.081 -0.1400 -1.0619  1.0689
 2382SOL    HW2 8046   4.122   1.671   1.142 -0.1560  0.5977 -0.9654
 2383SOL     OW 8047   6.580   2.147   0.925  0.2494  0.2007  0.6952
 2383SOL    HW1 8048   6.611   2.106   0.839 -0.9254 -0.2317  0.4533
 2383SOL    HW2 8049   6.510   2.216   0.906  1.7894  1.9720  1.1464
 2384SOL     OW 8050   0.005   4.687   1.152 -0.2708 -0.0284  0.0701
 2384SOL    HW1 8051  -0.007   4.598   1.107 -0.9093  0.1070 -0.0326
 2384SOL    HW2 8052  -0.084   4.730   1.165 -0.0734  0.0998  1.1324
 2385SOL     OW 8053   0.318   0.659   0.263  0.3231  0.1075  0.1081
 2385SOL    HW1 8054   0.375   0.622   0.336 -1.1261  1.2167  1.8673
 2385SOL    HW2 8055   0.329   0.758   0.257  1.4675 -0.0789 -2.1759
 2386SOL     OW 8056   6.005   1.488   0.497  0.3915 -0.2575  0.5080
 2386SOL    HW1 8057   5.942   1.460   0.569 -0.0194 -1.0709 -0.1536
 2386SOL    HW2 8058   5.954   1.509   0.414  0.9256 -0.1252  0.2038
 2387SOL     OW 8059   5.537   0.989   5.509  0.8184 -0.2377  0.2811
 2387SOL    HW1 8060   5.585   1.077   5.516  3.1335 -1.2191 -1.9404
 2387SOL    HW2 8061   5.519   0.968   5.413 -0.2466 -1.9384  0.8147
 2388SOL     OW 8062   2.178   0.756   2.383  0.5352  0.1601  0.0274
 2388SOL    HW1 8063   2.114   0.832   2.393  1.7369  1.5387 -2.0509
 2388SOL    HW2 8064   2.129   0.669   2.393 -1.3382  1.1680 -0.0241
 2389SOL     OW 8065   0.462   3.712   6.128  0.3667 -0.1031 -0.2283
 2389SOL    HW1 8066   0.492   3.636   6.070  1.8539 -0.5676  1.0913
 2389SOL    HW2 8067   0.428   3.677   6.215  0.4845  0.7129  0.1559
 2390SOL     OW 8068   5.536   6.708   3.411  1.0458  0.5710 -0.2241
 2390SOL    HW1 8069   5.462   6.640   3.414  0.2972  1.2015 -2.3862
 2390SOL    HW2 8070   5.615   6.669   3.363  0.6742  1.1278 -1.3232
 2391SOL     OW 8071   2.225   0.232   6.680  0.7543 -0.0205 -0.1564
 2391SOL    HW1 8072   2.309   0.278   6.652  0.2667 -0.7930 -3.2324
 2391SOL    HW2 8073   2.241   0.133   6.685  0.1141 -0.1482 -0.5054
 2392SOL     OW 8074   0.659   3.970   5.533  0.1961  0.1547 -0.2490
 2392SOL    HW1 8075   0.681   4.066   5.550 -0.9813  0.4565 -0.3231
 2392SOL    HW2 8076   0.559   3.960   5.526  0.1414 -1.4249  1.9147
 2393SOL     OW 8077   0.715   4.317   6.064 -0.2083 -0.0384  0.1846
 2393SOL    HW1 8078   0.652   4.283   6.134  2.3703 -0.3270  2.5485
 2393SOL    HW2 8079   0.799   4.263   6.066  0.3031  0.4747 -2.6735
 2394SOL     OW 8080   4.693   4.107   6.358 -0.2938  0.0365 -0.0749
 2394SOL    HW1 8081   4.729   4.035   6.299  0.3368  0.1002  0.2251
 2394SOL    HW2 8082   4.730   4.096   6.450 -1.4202 -0.1755  0.3682
 2395SOL     OW 8083   6.995   3.567   1.022  0.5026 -0.1298  0.3115
 2395SOL    HW1 8084   6.917   3.575   0.961  1.5715  2.5028 -0.8422
 2395SOL    HW2 8085   7.038   3.478   1.010 -1.2027 -0.9054 -0.3597
 2396SOL     OW 8086   0.781   4.934   5.639  0.4279  0.2983 -0.0963
 2396SOL    HW1 8087   0.788   5.006   5.708  1.7810 -0.5047  0.6555
 2396SOL    HW2 8088   0.866   4.882   5.637  0.3302  0.1562 -2.2466
 2397SOL     OW 8089   5.064   1.022   3.124  0.4119 -0.0758  0.3048
 2397SOL    HW1 8090   4.972   1.044   3.156  0.5165 -0.2904  0.7672
 2397SOL    HW2 8091   5.123   1.005   3.203  0.7874 -0.1788  0.0032
 2398SOL     OW 8092   2.806   4.730   4.705 -0.4672  0.0805  0.0701
 2398SOL    HW1 8093   2.806   4.657   4.773 -0.6660 -1.5128 -1.5456
 2398SOL    HW2 8094   2.884   4.791   4.721 -0.1588 -0.6140  1.3267
 2399SOL     OW 8095   2.941   6.776   4.829 -0.2750  0.3828 -0.0849
 2399SOL    HW1 8096   3.020   6.720   4.804  0.4348  1.1012  0.4879
 2399SOL    HW2 8097   2.860   6.742   4.782  0.2284 -0.8158 -0.1341
 2400SOL     OW 8098   3.278   4.298   1.699  0.1440  0.2893  0.0796
 2400SOL    HW1 8099   3.308   4.208   1.665 -0.1325  0.7784 -1.5674
 2400SOL    HW2 8100   3.193   4.286   1.751 -0.5831 -0.3113 -1.1691
 2401SOL     OW 8101   1.262   6.914   3.756 -0.4212  0.7276 -0.2918
 2401SOL    HW1 8102   1.174   6.949   3.788  0.0520  1.6105  0.0768
 2401SOL    HW2 8103   1.254   6.889   3.660 -1.5759 -0.9761  0.2010
 2402SOL     OW 8104   4.825   5.445   2.593 -0.0718  0.1179 -0.0091
 2402SOL    HW1 8105   4.786   5.394   2.516 -2.8364  0.1906  1.2417
 2402SOL    HW2 8106   4.884   5.517   2.557  0.2173 -1.0016 -1.9764
 2403SOL     OW 8107   0.498   0.214   1.722 -0.3672 -0.2665 -0.4936
 2403SOL    HW1 8108   0.581   0.170   1.759 -0.3476  0.5471  0.4715
 2403SOL    HW2 8109   0.525   0.286   1.658 -0.4070 -2.3447 -3.0391
 2404SOL     OW 8110   6.992   0.722   4.660 -0.1781  0.1414 -0.7053
 2404SOL    HW1 8111   6.921   0.656   4.686  0.9614 -0.5369  0.8560
 2404SOL    HW2 8112   6.971   0.760   4.570 -1.6450 -1.2428 -0.9989
 2405SOL     OW 8113   5.155   2.364   6.979 -0.0954  0.2986 -0.6113
 2405SOL    HW1 8114   5.114   2.300   7.044 -1.2262 -0.2709 -1.8191
 2405SOL    HW2 8115   5.181   2.314   6.896  1.4476  0.9751 -0.5759
 2406SOL     OW 8116   3.624   5.892   6.595  0.0288 -0.5143  0.1410
 2406SOL    HW1 8117   3.718   5.866   6.617 -0.1911 -1.5540 -0.0555
 2406SOL    HW2 8118   3.584   5.942   6.672  0.8888  0.3514  0.0289
 2407SOL     OW 8119   4.796   3.499   1.651 -0.0378  0.3497 -0.1669
 2407SOL    HW1 8120   4.858   3.563   1.604 -0.8739 -0.4067 -2.4392
 2407SOL    HW2 8121   4.811   3.407   1.616 -0.0261 -0.4565  1.8556
 2408SOL     OW 8122   3.360   2.890   4.211 -0.4672  0.1262  0.2976
 2408SOL    HW1 8123   3.376   2.829   4.134  0.4979  2.1731 -1.2332
 2408SOL    HW2 8124   3.301   2.965   4.183 -0.4358  0.7111  1.6849
 2409SOL     OW 8125   6.173   2.085   6.578  0.4983 -0.2266 -0.1959
 2409SOL    HW1 8126   6.219   2.074   6.666 -1.9075 -0.7107  1.1141
 2409SOL    HW2 8127   6.174   2.182   6.552  0.9768 -0.0231  0.5344
 2410SOL     OW 8128   2.674   4.365   0.933 -0.6153  0.4619  0.2207
 2410SOL    HW1 8129   2.625   4.449   0.908  0.0437  0.6533 -0.4544
 2410SOL    HW2 8130   2.652   4.340   1.027 -1.8055  0.6913  0.0229
 2411SOL     OW 8131   4.902   0.310   3.109 -0.1184  0.0521  0.5739
 2411SOL    HW1 8132   4.953   0.225   3.102  0.1995  0.2441  0.5304
 2411SOL    HW2 8133   4.891   0.350   3.017 -2.1164 -1.0064  0.2771
 2412SOL     OW 8134   0.073   5.544   4.559  0.1972 -0.4029 -0.4754
 2412SOL    HW1 8135   0.084   5.553   4.658 -0.9782  0.5378 -0.4137
 2412SOL    HW2 8136   0.075   5.447   4.534 -1.3177 -0.7751  0.7042
 2413SOL     OW 8137   1.398   1.840   4.943  0.3000  0.3844  0.6138
 2413SOL    HW1 8138   1.478   1.780   4.945 -0.0707 -0.1050  1.0497
 2413SOL    HW2 8139   1.321   1.791   4.901  0.7384  1.5153 -1.6699
 2414SOL     OW 8140   0.869   1.605   4.326  0.9535 -0.0172 -0.2447
 2414SOL    HW1 8141   0.829   1.673   4.266  0.2470 -0.5979 -0.4422
 2414SOL    HW2 8142   0.827   1.516   4.309  1.1844 -0.3147  0.6716
 2415SOL     OW 8143   5.858   4.099   4.990 -0.2319  0.2413 -0.3069
 2415SOL    HW1 8144   5.948   4.059   5.010 -1.1090 -1.2787  0.8421
 2415SOL    HW2 8145   5.831   4.158   5.066 -1.6921 -2.1420  1.1706
 2416SOL     OW 8146   3.046   0.047   3.647 -0.5112  0.5356  0.2220
 2416SOL    HW1 8147   3.120  -0.020   3.640 -0.3408  0.8413 -1.2344
 2416SOL    HW2 8148   2.976   0.027   3.579 -1.1149  1.0475  0.6821
 2417SOL     OW 8149   6.705   3.376   0.337  0.2944 -0.0255  0.4739
 2417SOL    HW1 8150   6.761   3.419   0.408  1.0508 -1.1848  0.6101
 2417SOL    HW2 8151   6.727   3.279   0.332 -0.9237 -0.2799 -0.2535
 2418SOL     OW 8152   3.074   3.616   4.286  0.2943  0.2423 -0.5107
 2418SOL    HW1 8153   3.031   3.535   4.327  1.1439  0.4892  0.9298
 2418SOL    HW2 8154   3.076   3.690   4.352  1.9476  0.5857 -0.8926
 2419SOL     OW 8155   1.630   5.765   2.411  0.2649  0.0186 -0.1851
 2419SOL    HW1 8156   1.587   5.821   2.340 -0.6158  0.7119  0.8743
 2419SOL    HW2 8157   1.589   5.674   2.411  0.8607 -0.2659 -1.1097
 2420SOL     OW 8158   1.870   1.737   1.705  0.4950  0.0336 -0.0757
 2420SOL    HW1 8159   1.946   1.683   1.668 -0.8336 -1.5012 -0.7147
 2420SOL    HW2 8160   1.859   1.717   1.802  1.2302  0.6903  0.1545
 2421SOL     OW 8161   1.199   6.129   2.884  0.0707  0.2000  0.3058
 2421SOL    HW1 8162   1.190   6.228   2.872 -1.2861  0.1527  0.7398
 2421SOL    HW2 8163   1.201   6.107   2.981  1.5795 -0.1204  0.2157
 2422SOL     OW 8164   6.134   0.894   3.941  0.4594  0.7299 -0.2769
 2422SOL    HW1 8165   6.083   0.808   3.931 -0.6820  1.1719  1.3445
 2422SOL    HW2 8166   6.208   0.881   4.007  0.3395  0.9592 -0.0961
 2423SOL     OW 8167   5.693   0.431   2.707  0.3388  0.3265 -0.0908
 2423SOL    HW1 8168   5.624   0.381   2.655  1.4951  0.7251 -2.1122
 2423SOL    HW2 8169   5.784   0.407   2.672  1.3657 -0.7180  2.9175
 2424SOL     OW 8170   0.474   6.416   2.789  0.5689  0.4727  0.0372
 2424SOL    HW1 8171   0.516   6.457   2.870 -1.5232 -0.1256  1.5101
 2424SOL    HW2 8172   0.514   6.326   2.772  0.7687  0.4432  0.6515
 2425SOL     OW 8173   1.709   0.169   0.832  0.1431  1.1263  0.0835
 2425SOL    HW1 8174   1.781   0.196   0.895 -0.3003  1.9698  0.2489
 2425SOL    HW2 8175   1.746   0.168   0.738  1.0026 -0.8737  0.3810
 2426SOL     OW 8176   1.073   0.119   5.976 -0.1217 -0.1649  0.2695
 2426SOL    HW1 8177   1.127   0.153   6.053 -1.6686  2.6504  0.2364
 2426SOL    HW2 8178   0.975   0.132   5.996 -0.5627  1.0677 -2.2764
 2427SOL     OW 8179   2.581   6.077   3.723 -0.0687 -0.3338 -0.2183
 2427SOL    HW1 8180   2.672   6.090   3.683  1.1749 -1.1714  2.1586
 2427SOL    HW2 8181   2.548   5.985   3.699 -0.2795 -0.0572 -1.0227
 2428SOL     OW 8182   0.199   6.836   2.565  0.0577 -0.5567 -0.0981
 2428SOL    HW1 8183   0.223   6.784   2.483 -0.9805 -1.3309  0.0775
 2428SOL    HW2 8184   0.105   6.816   2.592 -0.8669  2.3920 -0.7583
 2429SOL     OW 8185   0.635   2.270   6.740  0.4925 -0.1539  0.2047
 2429SOL    HW1 8186   0.588   2.200   6.686 -0.5899  1.4027 -0.9756
 2429SOL    HW2 8187   0.569   2.339   6.769  1.8884  1.7803 -0.9597
 2430SOL     OW 8188   1.168   3.291   2.919 -0.9732 -0.5955  0.1074
 2430SOL    HW1 8189   1.179   3.239   3.003 -0.0435  1.3661  1.2748
 2430SOL    HW2 8190   1.248   3.276   2.860 -0.7105 -0.5007  0.4341
 2431SOL     OW 8191   4.253   2.498   5.696  0.0951  0.0581  0.1886
 2431SOL    HW1 8192   4.176   2.438   5.676  0.7592 -1.0130  0.8079
 2431SOL    HW2 8193   4.219   2.591   5.710 -0.9051 -0.0835 -1.1206
 2432SOL     OW 8194   5.289   1.527   5.261  0.0877 -0.2584 -0.2925
 2432SOL    HW1 8195   5.371   1.480   5.293 -0.9864 -2.3414 -0.4552
 2432SOL    HW2 8196   5.271   1.607   5.320  2.2314  0.2915 -0.3123
 2433SOL     OW 8197   5.901   1.084   4.931 -0.6011 -0.1164  0.3621
 2433SOL    HW1 8198   5.993   1.058   4.902 -0.8803 -0.4999 -0.1717
 2433SOL    HW2 8199   5.904   1.114   5.027  0.1770  0.4204  0.1736
 2434SOL     OW 8200   1.698   4.661   5.865 -0.4163  0.2879  0.2867
 2434SOL    HW1 8201   1.760   4.658   5.943  0.0533  0.5248 -0.0718
 2434SOL    HW2 8202   1.750   4.672   5.781 -1.0197  3.9627  0.2141
 2435SOL     OW 8203   3.952   5.775   6.005  0.2772  0.1340 -0.2515
 2435SOL    HW1 8204   4.021   5.741   5.941  1.3999  0.7410  0.5930
 2435SOL    HW2 8205   3.944   5.875   5.994 -0.6116  0.0441 -0.4665
 2436SOL     OW 8206   1.966   2.747   6.662 -0.5478 -0.8576 -0.3880
 2436SOL    HW1 8207   1.950   2.818   6.731 -1.6823 -0.0979 -1.3783
 2436SOL    HW2 8208   1.878   2.721   6.621  0.1522 -0.7591 -2.0319
 2437SOL     OW 8209   6.167   1.654   6.946 -0.3058  0.6713  0.1055
 2437SOL    HW1 8210   6.084   1.707   6.930 -0.8712 -0.2396 -0.0492
 2437SOL    HW2 8211   6.209   1.683   7.032 -1.4478  0.3232  0.7992
 2438SOL     OW 8212   4.413   2.464   2.495  0.0743  0.1268  0.4590
 2438SOL    HW1 8213   4.451   2.468   2.588 -0.0594  2.0520  0.4592
 2438SOL    HW2 8214   4.314   2.473   2.500  0.1677  1.5713  0.0737
 2439SOL     OW 8215   0.830   5.441   3.524 -0.3398 -0.5124  0.3588
 2439SOL    HW1 8216   0.738   5.449   3.561 -0.7150 -0.2825 -0.5943
 2439SOL    HW2 8217   0.825   5.422   3.426  0.6239  0.2415  0.1439
 2440SOL     OW 8218   6.121   0.591   3.163 -0.0196 -0.3316 -0.3743
 2440SOL    HW1 8219   6.153   0.496   3.157  0.0501 -0.3226 -0.1667
 2440SOL    HW2 8220   6.031   0.599   3.120  1.4472  0.2227 -3.7005
 2441SOL     OW 8221   3.550   5.167   6.638  0.2807  0.3399  0.0531
 2441SOL    HW1 8222   3.635   5.185   6.688 -0.2392  0.2100  1.0113
 2441SOL    HW2 8223   3.526   5.070   6.648  0.7760  0.0374 -1.4356
 2442SOL     OW 8224   3.623   2.015   5.128  0.2491 -0.0843 -0.2906
 2442SOL    HW1 8225   3.627   2.090   5.195 -1.8605 -0.1864 -0.0051
 2442SOL    HW2 8226   3.532   2.012   5.086  0.6757 -1.7606 -1.1739
 2443SOL     OW 8227   0.133   3.914   5.027  0.2669 -0.2181 -0.1266
 2443SOL    HW1 8228   0.191   3.874   5.097 -0.0173 -0.9289 -0.2915
 2443SOL    HW2 8229   0.179   3.994   4.987  1.3027 -1.0047 -0.5395
 2444SOL     OW 8230   3.659   4.148   3.701 -0.5527  0.3301 -0.1077
 2444SOL    HW1 8231   3.560   4.146   3.684 -0.6760 -1.6578  0.5419
 2444SOL    HW2 8232   3.675   4.139   3.799  0.2707 -0.7341 -0.3233
 2445SOL     OW 8233   0.288   5.932   1.944  0.2869 -0.2094 -0.1175
 2445SOL    HW1 8234   0.232   5.849   1.940  1.6398 -1.3179  1.8953
 2445SOL    HW2 8235   0.336   5.944   1.857 -0.2168 -1.3346 -0.5744
 2446SOL     OW 8236   4.794   3.915   6.188 -0.0604  0.1182  0.2920
 2446SOL    HW1 8237   4.885   3.875   6.188 -0.1265 -0.0364 -0.4061
 2446SOL    HW2 8238   4.729   3.851   6.148  0.0880  1.4429 -2.2891
 2447SOL     OW 8239   0.850   5.019   1.309 -0.4827 -0.3736 -0.0739
 2447SOL    HW1 8240   0.793   4.960   1.252 -0.4746 -0.8420  0.3989
 2447SOL    HW2 8241   0.790   5.080   1.361 -0.4760  0.3469 -0.8800
 2448SOL     OW 8242   1.512   1.974   6.319 -0.6282  0.1039  0.1882
 2448SOL    HW1 8243   1.529   1.881   6.350  1.5122  0.2948 -0.2841
 2448SOL    HW2 8244   1.478   2.029   6.395 -0.1979 -0.6328  0.9265
 2449SOL     OW 8245   1.544   6.256   5.092  0.2169 -0.3688  0.0586
 2449SOL    HW1 8246   1.563   6.231   4.997  0.4473  0.2027 -0.0459
 2449SOL    HW2 8247   1.454   6.299   5.098  0.6032  0.4777 -0.0592
 2450SOL     OW 8248   6.209   1.752   5.625 -0.5944 -0.0978  0.5336
 2450SOL    HW1 8249   6.216   1.801   5.712  0.3240 -1.4789  1.2676
 2450SOL    HW2 8250   6.293   1.765   5.572 -0.5190 -0.5273  0.5457
 2451SOL     OW 8251   5.971   6.663   5.022 -0.4593 -0.0710  0.5902
 2451SOL    HW1 8252   5.910   6.586   5.006  1.0224 -1.6518  2.1914
 2451SOL    HW2 8253   5.920   6.737   5.068 -1.3637 -1.0499  1.2094
 2452SOL     OW 8254   1.217   0.294   6.575 -0.4955  0.2183  0.2585
 2452SOL    HW1 8255   1.255   0.383   6.599 -1.2502  1.0060 -1.3101
 2452SOL    HW2 8256   1.119   0.303   6.556 -0.4110 -0.7464 -0.7611
 2453SOL     OW 8257   2.437   1.605   4.834  0.1489 -0.7116  0.3057
 2453SOL    HW1 8258   2.462   1.614   4.738  0.0408 -1.2504  0.2246
 2453SOL    HW2 8259   2.505   1.549   4.881 -0.5932 -1.7150  0.2075
 2454SOL     OW 8260   4.537   6.696   0.259  0.1784 -0.3714  0.1919
 2454SOL    HW1 8261   4.487   6.618   0.297 -0.4381  0.6913  1.6400
 2454SOL    HW2 8262   4.529   6.696   0.159 -0.3494 -1.7850  0.2182
 2455SOL     OW 8263   1.170   2.586   1.263 -0.7494 -0.1942 -0.2860
 2455SOL    HW1 8264   1.141   2.649   1.336 -3.6963  0.6093 -1.9663
 2455SOL    HW2 8265   1.122   2.499   1.274  0.9414 -1.0927  0.2543
 2456SOL     OW 8266   5.160   4.936   5.844  0.1553  0.3299  0.2632
 2456SOL    HW1 8267   5.210   4.851   5.860  0.3840  0.3456 -0.3656
 2456SOL    HW2 8268   5.096   4.951   5.920  0.4812 -0.1316  0.6407
 2457SOL     OW 8269   1.483   3.653   1.284  0.5812  0.1433 -0.2995
 2457SOL    HW1 8270   1.445   3.697   1.203 -0.4124  0.1948  0.1794
 2457SOL    HW2 8271   1.430   3.679   1.364  0.7866 -0.8861  0.1843
 2458SOL     OW 8272   6.528   5.887   6.448  0.3397 -0.0012 -0.6454
 2458SOL    HW1 8273   6.583   5.968   6.467  0.1195  0.0258 -0.0885
 2458SOL    HW2 8274   6.586   5.806   6.449  0.5740  0.1520 -1.2787
 2459SOL     OW 8275   0.285   5.591   6.594 -0.1868  0.2834 -0.5790
 2459SOL    HW1 8276   0.314   5.511   6.646 -1.7321  0.0617  0.0090
 2459SOL    HW2 8277   0.365   5.638   6.558  0.7684 -1.5058 -0.9266
 2460SOL     OW 8278   5.122   6.342   3.649  0.0154  0.0183 -0.4786
 2460SOL    HW1 8279   5.029   6.309   3.659  0.0420  0.1836  0.4213
 2460SOL    HW2 8280   5.131   6.431   3.694  0.7905 -0.3525  0.1377
 2461SOL     OW 8281   3.156   0.344   4.604 -0.1772  0.4085  0.7540
 2461SOL    HW1 8282   3.144   0.373   4.699 -0.1505  1.0842  0.5534
 2461SOL    HW2 8283   3.243   0.379   4.569 -0.6712  1.0612  0.1553
 2462SOL     OW 8284   6.854   1.260   3.348  0.4944 -0.7834 -0.4527
 2462SOL    HW1 8285   6.843   1.271   3.446  2.2107  2.1489 -0.4836
 2462SOL    HW2 8286   6.944   1.220   3.329  0.0234 -1.6823 -0.8486
 2463SOL     OW 8287   1.934   1.859   2.582 -0.8055  0.1095 -0.3604
 2463SOL    HW1 8288   1.970   1.880   2.491 -0.3703  0.2138 -0.1665
 2463SOL    HW2 8289   1.972   1.923   2.649 -2.3750  1.0866 -0.3428
 2464SOL     OW 8290   6.085   4.152   6.773 -0.0198 -0.0778  0.2286
 2464SOL    HW1 8291   6.180   4.167   6.800 -0.3385  0.2641  1.2032
 2464SOL    HW2 8292   6.047   4.075   6.824 -0.6689  0.6520  0.8763
 2465SOL     OW 8293   2.936   2.319   6.566  1.0007  0.1615  0.8399
 2465SOL    HW1 8294   2.855   2.261   6.554  0.7610  0.8036 -1.0847
 2465SOL    HW2 8295   3.005   2.270   6.619  0.3998 -1.4759  0.1695
 2466SOL     OW 8296   4.087   5.629   5.813  0.1281  0.2440  0.1980
 2466SOL    HW1 8297   4.008   5.568   5.807 -1.9917  2.7471  1.0141
 2466SOL    HW2 8298   4.140   5.623   5.729 -1.4157 -0.8900 -0.7523
 2467SOL     OW 8299   4.405   0.949   0.705 -0.5056 -0.7088  0.1670
 2467SOL    HW1 8300   4.396   0.937   0.606 -0.8279  1.1788 -0.0786
 2467SOL    HW2 8301   4.335   1.012   0.737  0.5908 -0.0299  1.3323
 2468SOL     OW 8302   5.756   1.478   2.446 -0.7771 -0.4234 -0.0989
 2468SOL    HW1 8303   5.840   1.493   2.497  0.7394  0.4249 -2.6654
 2468SOL    HW2 8304   5.717   1.389   2.470  0.3712 -0.4627  1.7532
 2469SOL     OW 8305   4.668   3.580   1.063 -0.0204  0.2706 -0.4851
 2469SOL    HW1 8306   4.672   3.515   1.138  0.3081 -0.7549 -1.3538
 2469SOL    HW2 8307   4.760   3.591   1.024 -0.0872  1.2089 -0.3956
 2470SOL     OW 8308   4.371   0.111   6.933 -0.1780 -0.0076 -0.5664
 2470SOL    HW1 8309   4.302   0.111   6.860 -0.4128  0.1693 -0.3435
 2470SOL    HW2 8310   4.459   0.082   6.895 -0.5400 -0.9799 -0.6970
 2471SOL     OW 8311   3.975   6.014   2.302  0.2322  0.1235 -0.4613
 2471SOL    HW1 8312   3.892   5.963   2.279 -0.4312  0.0236  1.9159
 2471SOL    HW2 8313   4.048   5.989   2.239 -1.3082 -0.3858 -2.1165
 2472SOL     OW 8314   1.830   5.570   4.531 -0.3448 -0.2318  0.2202
 2472SOL    HW1 8315   1.899   5.588   4.601 -0.8352 -1.9923  1.2261
 2472SOL    HW2 8316   1.859   5.610   4.445  1.0397  0.6407  1.0511
 2473SOL     OW 8317   3.493   0.541   4.169  0.4915 -0.9104 -0.3174
 2473SOL    HW1 8318   3.434   0.612   4.131 -0.2689 -1.2064  0.2995
 2473SOL    HW2 8319   3.586   0.578   4.180  0.1188 -0.0177 -0.0414
 2474SOL     OW 8320   0.957   4.565   2.949  0.2243 -0.5784  0.6256
 2474SOL    HW1 8321   0.882   4.623   2.919  1.0045  0.2921  0.3261
 2474SOL    HW2 8322   0.920   4.489   3.003 -0.7117  0.9695  2.2952
 2475SOL     OW 8323   3.928   0.133   6.471 -0.3218 -0.5281 -0.0499
 2475SOL    HW1 8324   3.901   0.072   6.545  1.2829 -0.8346  0.3188
 2475SOL    HW2 8325   3.926   0.228   6.503 -2.1274 -0.4140 -0.4124
 2476SOL     OW 8326   0.968   6.821   5.537 -0.1684  0.1746  0.3886
 2476SOL    HW1 8327   0.994   6.749   5.602  0.3920  0.4381  0.4621
 2476SOL    HW2 8328   1.013   6.906   5.562 -0.6492  0.4988  0.1663
 2477SOL     OW 8329   3.437   1.833   4.476 -0.5630  0.0516  0.3630
 2477SOL    HW1 8330   3.411   1.744   4.438 -0.8280 -0.0380  0.7485
 2477SOL    HW2 8331   3.434   1.829   4.576  0.6818  0.1099  0.4227
 2478SOL     OW 8332   4.760   5.843   4.322 -0.7171 -0.1128 -0.5576
 2478SOL    HW1 8333   4.768   5.893   4.236 -2.3601  0.2144 -0.5537
 2478SOL    HW2 8334   4.726   5.751   4.305 -0.8039 -0.1343 -0.2861
 2479SOL     OW 8335   6.776   4.158   2.897  0.2150  0.5577  0.0055
 2479SOL    HW1 8336   6.689   4.125   2.861  0.1854 -0.9531  1.3907
 2479SOL    HW2 8337   6.764   4.192   2.990  1.0511  0.6562  0.0886
 2480SOL     OW 8338   0.529   3.968   2.509  0.1572 -0.7579  0.4420
 2480SOL    HW1 8339   0.531   3.964   2.409  1.5291 -1.2848  0.4747
 2480SOL    HW2 8340   0.518   3.876   2.546 -0.6570 -0.5340  0.7853
 2481SOL     OW 8341   2.710   3.801   6.865 -0.3321 -0.1592  0.1742
 2481SOL    HW1 8342   2.735   3.898   6.871  1.2847 -0.4397 -1.1192
 2481SOL    HW2 8343   2.783   3.746   6.904  0.3705 -0.9583 -2.0942
 2482SOL     OW 8344   2.155   3.524   5.808  0.3598 -0.3833 -0.0426
 2482SOL    HW1 8345   2.202   3.437   5.826  0.6485 -0.0698  0.7494
 2482SOL    HW2 8346   2.223   3.595   5.789  0.3272  0.3315  2.1991
 2483SOL     OW 8347   6.237   5.282   3.568 -0.2370 -0.2774 -0.5859
 2483SOL    HW1 8348   6.284   5.311   3.651  0.6971 -1.8319 -0.5474
 2483SOL    HW2 8349   6.147   5.327   3.563  0.1658  0.7053  0.6658
 2484SOL     OW 8350   2.002   6.581   4.325  0.2305 -0.4384 -0.7208
 2484SOL    HW1 8351   2.098   6.553   4.335 -0.1948 -1.1372  2.5770
 2484SOL    HW2 8352   1.944   6.518   4.376 -1.7798  1.1133 -0.9875
 2485SOL     OW 8353   4.309   0.130   3.435 -0.1723  0.8002 -0.6091
 2485SOL    HW1 8354   4.308   0.032   3.452  0.8304  0.6093 -1.5539
 2485SOL    HW2 8355   4.227   0.156   3.384 -0.1134  0.3280 -0.9539
 2486SOL     OW 8356   2.546   0.990   2.103 -0.7196 -0.1833  0.0114
 2486SOL    HW1 8357   2.492   1.069   2.074 -0.3974 -0.1287 -0.4404
 2486SOL    HW2 8358   2.489   0.908   2.103 -1.0586  0.0450  0.4954
 2487SOL     OW 8359   5.956   4.232   2.126  0.2916 -0.0530  0.3250
 2487SOL    HW1 8360   5.878   4.257   2.069  0.2748  1.6602  1.0409
 2487SOL    HW2 8361   5.933   4.152   2.181 -0.0190 -1.1598 -1.3595
 2488SOL     OW 8362   6.148   2.080   4.853 -0.1966 -0.3582  0.1496
 2488SOL    HW1 8363   6.049   2.066   4.851 -0.3946  0.9165 -0.0059
 2488SOL    HW2 8364   6.176   2.130   4.771  0.5683 -0.6096  0.2460
 2489SOL     OW 8365   1.821   2.441   5.653 -0.7821 -0.3250 -1.1856
 2489SOL    HW1 8366   1.866   2.366   5.605 -0.9900 -0.4325 -1.2126
 2489SOL    HW2 8367   1.800   2.514   5.588  0.8707  0.4572 -0.8864
 2490SOL     OW 8368   5.612   2.486   6.483  0.4185 -0.0830 -0.0903
 2490SOL    HW1 8369   5.519   2.487   6.521  1.2029  1.4166  1.9319
 2490SOL    HW2 8370   5.655   2.398   6.504  0.2880  0.1320  1.1377
 2491SOL     OW 8371   3.451   5.615   1.557 -0.2427 -0.1628 -0.0158
 2491SOL    HW1 8372   3.401   5.655   1.480  1.3755 -0.6168 -1.3431
 2491SOL    HW2 8373   3.389   5.607   1.636 -1.5031  1.7978 -0.7289
 2492SOL     OW 8374   3.013   3.262   6.574 -0.0277  0.3895 -0.5264
 2492SOL    HW1 8375   3.063   3.212   6.645 -1.9407  0.5487  1.0306
 2492SOL    HW2 8376   2.917   3.232   6.574 -0.7903  2.6200 -0.9060
 2493SOL     OW 8377   7.010   2.797   6.962 -0.3499 -0.0728  0.1352
 2493SOL    HW1 8378   7.040   2.712   6.919  1.3779  1.7784 -2.6589
 2493SOL    HW2 8379   6.910   2.800   6.964 -0.4494 -1.7380 -0.5710
 2494SOL     OW 8380   5.214   0.457   4.876  0.3371 -0.3553 -0.0634
 2494SOL    HW1 8381   5.288   0.521   4.898  0.4118 -0.5191  0.1605
 2494SOL    HW2 8382   5.157   0.443   4.957  0.2504 -0.4827 -0.1457
 2495SOL     OW 8383   0.212   6.997   4.069  0.2920  0.5530 -0.1347
 2495SOL    HW1 8384   0.227   6.974   4.165 -1.4057  2.0072  0.5237
 2495SOL    HW2 8385   0.116   7.019   4.055  0.9069  2.4768 -1.7042
 2496SOL     OW 8386   0.009   6.258   0.589  0.1163  0.1245 -0.1238
 2496SOL    HW1 8387   0.029   6.281   0.684  0.3961  0.5399 -0.2805
 2496SOL    HW2 8388   0.085   6.206   0.550 -0.6317 -1.3625  0.3129
 2497SOL     OW 8389   2.521   3.704   0.651  0.4501 -0.2894  0.6734
 2497SOL    HW1 8390   2.445   3.645   0.624  0.8675 -0.5453  0.0575
 2497SOL    HW2 8391   2.588   3.708   0.578  0.6289  0.6189  0.8764
 2498SOL     OW 8392   3.270   1.989   3.910 -0.5970 -0.7621  0.0897
 2498SOL    HW1 8393   3.265   2.041   3.995  0.8761 -0.0756 -0.2077
 2498SOL    HW2 8394   3.199   2.021   3.847  0.7421  1.4888 -0.3711
 2499SOL     OW 8395   4.439   0.324   2.042 -0.3753 -0.0023  0.0224
 2499SOL    HW1 8396   4.523   0.272   2.026  0.6699  1.8406 -0.8853
 2499SOL    HW2 8397   4.432   0.397   1.974 -2.1987  0.5214  0.7276
 2500SOL     OW 8398   6.581   1.681   0.984  0.5520 -0.2217  0.0507
 2500SOL    HW1 8399   6.678   1.662   0.965  1.1255  1.4077  1.1388
 2500SOL    HW2 8400   6.545   1.609   1.043  1.0053 -1.0058 -0.6007
 2501SOL     OW 8401   5.466   2.736   3.094  0.2761 -0.1800 -0.0433
 2501SOL    HW1 8402   5.457   2.715   3.192 -0.4196  1.4340  0.2628
 2501SOL    HW2 8403   5.377   2.764   3.058  0.1626 -2.2943 -1.5600
 2502SOL     OW 8404   2.150   4.464   1.795  0.1168  0.4462 -0.5219
 2502SOL    HW1 8405   2.125   4.560   1.805  1.0382  0.7289 -0.8325
 2502SOL    HW2 8406   2.130   4.433   1.702 -0.0217  0.3894 -0.4728
 2503SOL     OW 8407   0.847   3.838   1.493 -0.1886  0.3352 -0.1186
 2503SOL    HW1 8408   0.820   3.848   1.397  1.0373 -0.6473 -0.5977
 2503SOL    HW2 8409   0.820   3.920   1.543 -1.0633  0.7767 -1.2387
 2504SOL     OW 8410   2.648   0.277   1.615 -0.2052  0.2410  0.3613
 2504SOL    HW1 8411   2.649   0.216   1.536  1.1027  2.5301 -1.5197
 2504SOL    HW2 8412   2.569   0.339   1.610 -0.2774  0.2178  1.0234
 2505SOL     OW 8413   3.357   6.741   1.608 -0.9040  0.5159  0.0995
 2505SOL    HW1 8414   3.358   6.666   1.674 -2.2435  1.2025  0.9309
 2505SOL    HW2 8415   3.294   6.718   1.534 -0.6305  0.4455 -0.1144
 2506SOL     OW 8416   0.961   3.548   2.301 -0.4331  0.4285  0.8168
 2506SOL    HW1 8417   0.929   3.567   2.208  0.8728  1.9087  0.6407
 2506SOL    HW2 8418   0.926   3.459   2.330 -1.4376  0.2460 -0.8177
 2507SOL     OW 8419   3.891   1.934   5.950  0.1010 -0.5077  0.0187
 2507SOL    HW1 8420   3.960   1.866   5.921 -2.1960 -1.5250 -3.8513
 2507SOL    HW2 8421   3.818   1.888   5.999 -0.2959 -0.4189 -0.4820
 2508SOL     OW 8422   3.281   6.536   0.757 -0.4518  0.5488 -0.1136
 2508SOL    HW1 8423   3.186   6.563   0.773  0.0244  2.4170 -0.1161
 2508SOL    HW2 8424   3.327   6.523   0.845 -0.0092  2.5131  0.0024
 2509SOL     OW 8425   6.943   3.056   3.105  0.1278 -0.3425  0.1069
 2509SOL    HW1 8426   6.977   2.962   3.103  0.5456 -0.2739  2.3007
 2509SOL    HW2 8427   6.935   3.087   3.199 -0.2860  1.7506 -0.5664
 2510SOL     OW 8428   6.897   2.964   4.241  0.2341  0.2349  0.1073
 2510SOL    HW1 8429   6.807   2.961   4.286  0.6273 -1.2104  0.8595
 2510SOL    HW2 8430   6.884   2.970   4.142 -0.6857  0.3890  0.2239
 2511SOL     OW 8431   5.303   0.448   2.761  0.3255  0.9468  0.2206
 2511SOL    HW1 8432   5.245   0.380   2.715 -0.6980  0.3378  2.2878
 2511SOL    HW2 8433   5.325   0.521   2.697 -0.5093 -0.1418 -1.3955
 2512SOL     OW 8434   3.436   3.762   5.324  0.3756 -0.1546 -0.2122
 2512SOL    HW1 8435   3.375   3.826   5.276 -0.3798 -0.4851  0.3010
 2512SOL    HW2 8436   3.407   3.668   5.305  0.5350 -0.3054  0.2824
 2513SOL     OW 8437   1.672   1.583   2.118 -0.2035  0.3667 -0.3905
 2513SOL    HW1 8438   1.727   1.604   2.198 -0.9953  0.3973  0.1497
 2513SOL    HW2 8439   1.600   1.651   2.107  0.6050  1.0537 -1.8176
 2514SOL     OW 8440   2.066   6.193   3.414  0.0579  0.3484  0.2452
 2514SOL    HW1 8441   2.089   6.163   3.322 -0.9368 -0.8912  0.3672
 2514SOL    HW2 8442   2.096   6.123   3.480 -0.8749  0.3469  0.6841
 2515SOL     OW 8443   3.666   5.245   2.179  0.4170  0.3053  0.2973
 2515SOL    HW1 8444   3.579   5.239   2.228  0.8757 -0.2222  1.0743
 2515SOL    HW2 8445   3.706   5.335   2.191  0.7709  0.0221  1.3448
 2516SOL     OW 8446   6.805   4.487   5.975  0.0104 -0.3660  0.2391
 2516SOL    HW1 8447   6.755   4.425   5.915 -0.3347  0.5779 -0.4639
 2516SOL    HW2 8448   6.864   4.434   6.036 -0.9624 -1.4251  0.2838
 2517SOL     OW 8449   6.333   3.194   6.689  0.6158  0.0798  0.2186
 2517SOL    HW1 8450   6.341   3.258   6.765 -0.6076  0.6746 -0.1248
 2517SOL    HW2 8451   6.364   3.238   6.605 -2.2841  1.1161 -0.4431
 2518SOL     OW 8452   6.214   1.294   4.730  0.0460  0.0070 -0.4608
 2518SOL    HW1 8453   6.185   1.214   4.784 -0.2708 -0.3810 -1.1969
 2518SOL    HW2 8454   6.166   1.295   4.643 -1.2605  1.9246  0.1908
 2519SOL     OW 8455   0.517   5.861   1.697 -0.1427 -0.3648  0.2257
 2519SOL    HW1 8456   0.531   5.762   1.704  1.1802 -0.1259  1.5049
 2519SOL    HW2 8457   0.580   5.899   1.628 -0.2637 -0.3393  0.1287
 2520SOL     OW 8458   3.454   1.598   4.161  0.5198 -0.4006  0.2688
 2520SOL    HW1 8459   3.494   1.527   4.218  0.6434 -0.3427  0.2542
 2520SOL    HW2 8460   3.355   1.600   4.175  0.6691  0.3428  1.3017
 2521SOL     OW 8461   0.253   0.670   2.307 -0.0940 -0.1102 -0.4066
 2521SOL    HW1 8462   0.353   0.660   2.313 -0.0908  0.1027 -0.1059
 2521SOL    HW2 8463   0.214   0.669   2.399 -0.4313 -0.7997 -0.5500
 2522SOL     OW 8464   3.807   5.327   3.239  0.0511  0.2343 -0.1564
 2522SOL    HW1 8465   3.786   5.273   3.158 -0.3616  0.0473  0.0702
 2522SOL    HW2 8466   3.788   5.273   3.321  0.7728  0.3040  0.0664
 2523SOL     OW 8467   2.246   5.526   2.084 -0.1294 -0.1567  0.0484
 2523SOL    HW1 8468   2.239   5.532   1.985  2.0250  1.4046 -0.0765
 2523SOL    HW2 8469   2.237   5.617   2.124  0.1659 -0.6055  1.1946
 2524SOL     OW 8470   4.643   0.163   2.544 -0.0357 -0.4612  0.1619
 2524SOL    HW1 8471   4.589   0.131   2.622 -0.1836 -0.7079 -0.0417
 2524SOL    HW2 8472   4.665   0.260   2.557 -1.8337  0.0802 -0.4644
 2525SOL     OW 8473   2.222   2.775   6.588  0.0844 -0.2468  0.0708
 2525SOL    HW1 8474   2.134   2.757   6.632 -0.5608 -0.7637 -1.3691
 2525SOL    HW2 8475   2.232   2.717   6.507  1.9907 -0.5678  0.4818
 2526SOL     OW 8476   4.338   0.606   0.259  0.0896  0.1195  0.2559
 2526SOL    HW1 8477   4.300   0.616   0.168 -0.8461 -1.2939  0.4632
 2526SOL    HW2 8478   4.328   0.511   0.290 -0.4135  0.7415  2.1680
 2527SOL     OW 8479   0.668   4.021   1.611  0.2257  0.3106 -0.0030
 2527SOL    HW1 8480   0.631   4.026   1.704  1.7957  1.2036  0.6171
 2527SOL    HW2 8481   0.729   4.099   1.595 -0.7472  0.6927 -2.1367
 2528SOL     OW 8482   0.769   3.979   5.104  0.2438 -0.2431 -0.3563
 2528SOL    HW1 8483   0.803   3.917   5.034 -2.5228 -1.8882 -0.4044
 2528SOL    HW2 8484   0.788   4.074   5.078  2.8925 -0.9391 -1.2260
 2529SOL     OW 8485   6.131   3.130   4.350 -0.1070  0.3299 -0.0534
 2529SOL    HW1 8486   6.122   3.031   4.363  0.4425  0.0559 -1.4928
 2529SOL    HW2 8487   6.066   3.160   4.280  0.3636  0.8233 -0.2845
 2530SOL     OW 8488   4.598   0.017   3.117  0.2561  0.2535  0.3538
 2530SOL    HW1 8489   4.620   0.057   3.027 -3.3576  1.4657 -0.1448
 2530SOL    HW2 8490   4.667   0.046   3.183  4.3886 -2.5071 -2.2647
 2531SOL     OW 8491   4.737   4.149   6.873  0.1287 -0.2400 -0.4883
 2531SOL    HW1 8492   4.684   4.074   6.832  0.0767 -0.4753  0.0059
 2531SOL    HW2 8493   4.722   4.151   6.972  1.0933 -0.3450 -0.3301
 2532SOL     OW 8494   5.706   6.710   0.873 -0.6335  1.0415 -0.3107
 2532SOL    HW1 8495   5.629   6.672   0.821 -0.3418  2.0751 -1.5676
 2532SOL    HW2 8496   5.727   6.801   0.837  0.8435  0.9817  0.3699
 2533SOL     OW 8497   4.688   0.605   2.980 -0.5389  0.2327 -0.0149
 2533SOL    HW1 8498   4.643   0.642   2.898 -1.9603  1.6227  1.3413
 2533SOL    HW2 8499   4.786   0.623   2.974 -0.7089  0.9270 -1.1042
 2534SOL     OW 8500   3.334   7.004   1.184 -0.3068 -0.0229 -0.5850
 2534SOL    HW1 8501   3.371   6.967   1.269  1.3795 -0.2674 -1.3917
 2534SOL    HW2 8502   3.273   6.937   1.142 -0.2069 -0.3768 -0.1712
 2535SOL     OW 8503   5.875   6.399   5.850 -0.4018 -0.2902  0.2768
 2535SOL    HW1 8504   5.944   6.449   5.903 -0.9119 -0.0738  0.7532
 2535SOL    HW2 8505   5.919   6.323   5.801  1.2239  2.8211 -3.7173
 2536SOL     OW 8506   0.052   2.007   1.484 -0.1431 -0.3139  0.2157
 2536SOL    HW1 8507   0.133   1.985   1.537  2.6734  0.2110 -3.4524
 2536SOL    HW2 8508   0.031   1.931   1.422 -0.7562  0.6004 -0.7388
 2537SOL     OW 8509   5.021   3.185   4.343  0.1495 -0.4768  0.1705
 2537SOL    HW1 8510   4.975   3.233   4.417  2.0121 -0.9400  1.7071
 2537SOL    HW2 8511   5.110   3.229   4.325 -0.3468 -0.2263 -1.9812
 2538SOL     OW 8512   1.586   6.868   2.501  0.1393  0.5666  0.3307
 2538SOL    HW1 8513   1.531   6.937   2.549  0.6123  0.7772  0.5815
 2538SOL    HW2 8514   1.659   6.914   2.450 -1.5882  0.5439 -2.3571
 2539SOL     OW 8515   4.838   1.571   2.330 -0.0917 -0.2995  0.4857
 2539SOL    HW1 8516   4.835   1.538   2.425 -0.4105 -1.0792  0.2132
 2539SOL    HW2 8517   4.783   1.510   2.272  0.2255  0.0828 -0.2248
 2540SOL     OW 8518   1.056   2.625   4.043  0.4172  0.3327  0.2773
 2540SOL    HW1 8519   1.009   2.700   3.996  0.7647  0.3290 -0.0821
 2540SOL    HW2 8520   0.989   2.564   4.084  0.1376  1.2991  1.3085
 2541SOL     OW 8521   0.199   0.750   1.535 -0.5082  0.2907 -0.3276
 2541SOL    HW1 8522   0.131   0.677   1.525  0.9598 -1.1453 -0.2860
 2541SOL    HW2 8523   0.203   0.804   1.451 -0.0047 -1.1685 -1.2757
 2542SOL     OW 8524   5.699   3.580   0.529  0.5156 -0.2823  0.1730
 2542SOL    HW1 8525   5.608   3.561   0.494  0.3222  1.5884 -0.4341
 2542SOL    HW2 8526   5.696   3.588   0.629  0.0115 -0.2120  0.1526
 2543SOL     OW 8527   3.351   5.348   3.280 -0.1982 -0.6873  0.0478
 2543SOL    HW1 8528   3.262   5.313   3.309 -2.1715  3.1391 -0.7635
 2543SOL    HW2 8529   3.376   5.426   3.337  1.1098  0.2275 -1.6778
 2544SOL     OW 8530   4.159   3.141   5.303  0.3115  0.8043  0.1610
 2544SOL    HW1 8531   4.177   3.208   5.230  2.0133 -0.7513 -0.9285
 2544SOL    HW2 8532   4.067   3.104   5.292  0.0878  1.5051 -0.4214
 2545SOL     OW 8533   6.102   0.639   4.188 -0.2581  0.1995  0.1048
 2545SOL    HW1 8534   6.044   0.699   4.243  0.3732  1.5779 -0.6889
 2545SOL    HW2 8535   6.180   0.690   4.153 -0.3294 -0.7737 -1.6019
 2546SOL     OW 8536   4.447   5.786   3.195  0.3671 -0.4085  0.0179
 2546SOL    HW1 8537   4.412   5.835   3.115 -0.9038 -1.1403  0.0994
 2546SOL    HW2 8538   4.434   5.688   3.182  1.9580 -0.6755  0.2936
 2547SOL     OW 8539   2.596   1.354   1.749 -0.0061 -0.2411  0.2492
 2547SOL    HW1 8540   2.610   1.270   1.698  1.4752 -0.1642  0.4695
 2547SOL    HW2 8541   2.678   1.412   1.741 -1.2433  1.5175 -0.4953
 2548SOL     OW 8542   0.981   2.985   0.677 -0.3135  0.6446  0.2382
 2548SOL    HW1 8543   0.897   2.947   0.715  1.1780 -2.4303  0.8599
 2548SOL    HW2 8544   1.004   3.070   0.724 -2.4491  0.9392  0.8416
 2549SOL     OW 8545   4.237   5.559   0.579  0.4674  0.6073  0.2172
 2549SOL    HW1 8546   4.226   5.609   0.494  0.2468  1.3512  0.6750
 2549SOL    HW2 8547   4.323   5.586   0.623  2.1683 -2.0121 -1.2310
 2550SOL     OW 8548   2.776   2.438   1.254 -0.0082  0.3172  0.0780
 2550SOL    HW1 8549   2.679   2.435   1.277  0.2566 -1.6059  1.1881
 2550SOL    HW2 8550   2.819   2.514   1.303 -1.0640  1.7287 -1.0997
 2551SOL     OW 8551   5.261   4.048   6.008  0.1956 -0.1576 -0.5720
 2551SOL    HW1 8552   5.262   3.950   5.989 -1.9483 -0.2637 -0.4247
 2551SOL    HW2 8553   5.268   4.099   5.922 -0.6850 -0.5021 -0.8637
 2552SOL     OW 8554   0.297   1.945   3.404  0.1287  1.2316  0.0372
 2552SOL    HW1 8555   0.363   1.918   3.333 -0.8751 -0.1069 -0.4299
 2552SOL    HW2 8556   0.323   1.902   3.490 -1.8132 -2.0820 -0.8356
 2553SOL     OW 8557   3.677   1.676   3.208 -0.3709  0.3631 -0.0428
 2553SOL    HW1 8558   3.767   1.657   3.170  0.2621  1.7225  0.6925
 2553SOL    HW2 8559   3.686   1.735   3.288 -1.7665 -1.1268  1.3042
 2554SOL     OW 8560   1.269   1.485   5.156  0.1579  0.3014 -0.1949
 2554SOL    HW1 8561   1.217   1.549   5.212 -0.1433 -0.8558  0.9080
 2554SOL    HW2 8562   1.207   1.413   5.123  0.4002  0.7884 -1.7609
 2555SOL     OW 8563   0.751   5.185   6.855  0.3969 -0.4210 -0.2893
 2555SOL    HW1 8564   0.683   5.113   6.864  1.9121 -1.8899 -0.2199
 2555SOL    HW2 8565   0.766   5.203   6.757  0.3639 -0.5276 -0.3148
 2556SOL     OW 8566   6.774   4.862   2.529  0.2695 -0.1988  0.9277
 2556SOL    HW1 8567   6.840   4.791   2.557  1.0140  0.6384  1.3558
 2556SOL    HW2 8568   6.721   4.891   2.609 -1.2074 -1.4392  0.4297
 2557SOL     OW 8569   5.317   6.097   2.282 -0.4354 -0.2723 -0.2456
 2557SOL    HW1 8570   5.352   6.182   2.322 -0.2382  0.5247 -1.9727
 2557SOL    HW2 8571   5.223   6.082   2.313 -0.5029  0.6355  0.0340
 2558SOL     OW 8572   6.219   2.092   6.084  0.3022  0.2529 -0.1292
 2558SOL    HW1 8573   6.224   2.012   6.024  1.5921  0.0999  0.1367
 2558SOL    HW2 8574   6.308   2.106   6.128 -0.4025  0.7673  1.2191
 2559SOL     OW 8575   0.384   1.363   3.314 -0.5327  0.1599 -0.2243
 2559SOL    HW1 8576   0.480   1.341   3.330 -1.0642 -1.5407  0.9618
 2559SOL    HW2 8577   0.358   1.335   3.222 -0.1536 -0.3306 -0.1856
 2560SOL     OW 8578   6.438   5.448   0.173 -0.5278 -0.4708 -0.9243
 2560SOL    HW1 8579   6.357   5.501   0.198 -0.7298 -0.8548 -0.7517
 2560SOL    HW2 8580   6.472   5.399   0.254  0.7681  0.8569 -0.6233
 2561SOL     OW 8581   6.958   2.599   3.696  0.1841  0.3162 -0.0206
 2561SOL    HW1 8582   6.933   2.655   3.775  1.3186 -2.0959  2.1806
 2561SOL    HW2 8583   7.053   2.617   3.671  0.3589 -0.1519  0.2930
 2562SOL     OW 8584   0.122   0.723   3.209 -0.0946 -0.2142 -0.2701
 2562SOL    HW1 8585   0.067   0.705   3.291  1.6036  0.1856  1.0275
 2562SOL    HW2 8586   0.184   0.645   3.193 -0.5999 -0.4110 -1.3637
 2563SOL     OW 8587   4.087   3.357   0.094  0.0001 -0.1600  0.4147
 2563SOL    HW1 8588   4.114   3.450   0.067 -0.7434 -0.4734 -1.6432
 2563SOL    HW2 8589   4.141   3.291   0.042 -2.1367 -0.8151 -1.1136
 2564SOL     OW 8590   0.529   5.618   5.335  0.0947 -0.3039  0.1774
 2564SOL    HW1 8591   0.523   5.525   5.371 -1.0171  0.1399  1.1888
 2564SOL    HW2 8592   0.523   5.684   5.410 -1.4548  0.6343 -0.7210
 2565SOL     OW 8593   4.572   4.530   1.464 -0.2100 -0.2071  0.0568
 2565SOL    HW1 8594   4.625   4.451   1.432  1.0204  1.2546 -1.7314
 2565SOL    HW2 8595   4.632   4.595   1.509 -0.7839  0.6638 -0.3879
 2566SOL     OW 8596   6.158   6.197   6.608  0.3488  0.0047 -0.3739
 2566SOL    HW1 8597   6.166   6.210   6.509 -2.7093  0.4821 -0.6669
 2566SOL    HW2 8598   6.163   6.286   6.654 -1.3154  0.1762 -0.4607
 2567SOL     OW 8599   5.907   6.882   4.213  0.2149  0.1252  0.8203
 2567SOL    HW1 8600   5.973   6.885   4.139 -0.7483  0.9952 -0.0343
 2567SOL    HW2 8601   5.921   6.961   4.273  0.7952 -0.4116  1.4042
 2568SOL     OW 8602   1.679   2.948   5.202 -0.2002  0.3365 -0.9171
 2568SOL    HW1 8603   1.752   2.998   5.248  1.2687 -2.1193 -0.4016
 2568SOL    HW2 8604   1.613   2.915   5.269 -2.0284  2.7176 -1.3975
 2569SOL     OW 8605   1.998   6.768   0.217  0.1192  0.0770  0.2264
 2569SOL    HW1 8606   2.026   6.757   0.312  1.6613  0.9068 -0.1042
 2569SOL    HW2 8607   2.074   6.746   0.156 -0.7238 -0.0664 -0.8239
 2570SOL     OW 8608   4.736   3.533   5.498  0.2526  0.0557  0.1606
 2570SOL    HW1 8609   4.738   3.629   5.470  1.0382  0.2903  0.9618
 2570SOL    HW2 8610   4.738   3.474   5.418 -0.7579  0.7074 -0.3587
 2571SOL     OW 8611   5.979   3.484   1.042  0.2563 -0.0673  0.6260
 2571SOL    HW1 8612   6.051   3.426   1.081 -0.2062 -1.2158 -0.1506
 2571SOL    HW2 8613   5.898   3.428   1.027 -0.3474  0.9092  0.2371
 2572SOL     OW 8614   3.642   4.262   1.507 -0.1435 -0.5703 -0.9472
 2572SOL    HW1 8615   3.556   4.237   1.463 -0.5530  0.5227 -0.8017
 2572SOL    HW2 8616   3.623   4.313   1.591  0.6236  1.0737 -1.7142
 2573SOL     OW 8617   3.368   5.146   6.000  0.3187 -0.4334 -0.1494
 2573SOL    HW1 8618   3.286   5.097   6.029 -0.2516  1.2310  1.2144
 2573SOL    HW2 8619   3.449   5.089   6.016 -0.3614 -1.1045  1.0002
 2574SOL     OW 8620   3.422   0.887   1.093  0.3153  0.0577  0.2145
 2574SOL    HW1 8621   3.504   0.851   1.049  0.0536 -0.5784  0.2490
 2574SOL    HW2 8622   3.384   0.960   1.037 -0.0157 -0.7414 -0.6168
 2575SOL     OW 8623   4.899   4.378   3.282 -0.2865  0.0049  0.1026
 2575SOL    HW1 8624   4.982   4.401   3.332  0.9035  1.7590 -2.4256
 2575SOL    HW2 8625   4.832   4.337   3.344  1.9130 -0.1734  2.5187
 2576SOL     OW 8626   2.805   2.995   6.457 -0.3704  1.2963 -0.4220
 2576SOL    HW1 8627   2.801   3.048   6.373 -0.4752  0.6344 -0.8368
 2576SOL    HW2 8628   2.788   3.056   6.535 -0.3706  1.8924 -0.8772
 2577SOL     OW 8629   0.805   6.494   2.028 -0.8246  0.0798 -0.0346
 2577SOL    HW1 8630   0.808   6.394   2.034  0.4958  0.1069  0.0876
 2577SOL    HW2 8631   0.856   6.533   2.104 -1.3896  0.8591 -0.0472
 2578SOL     OW 8632   6.919   5.306   3.423 -0.3283 -0.3442 -0.2140
 2578SOL    HW1 8633   6.824   5.336   3.427 -0.1755  0.1449 -0.2133
 2578SOL    HW2 8634   6.923   5.208   3.441 -0.8882 -0.4757 -0.7504
 2579SOL     OW 8635   5.463   5.817   2.259  0.5125  0.5259  0.3385
 2579SOL    HW1 8636   5.439   5.914   2.253  1.6346  0.8316  0.5072
 2579SOL    HW2 8637   5.387   5.762   2.227 -0.0143  1.4756 -0.0941
 2580SOL     OW 8638   4.508   5.863   3.457  0.4449  0.2399 -0.1848
 2580SOL    HW1 8639   4.432   5.850   3.521  0.6416  0.1384  0.0256
 2580SOL    HW2 8640   4.474   5.852   3.363  0.7868 -2.9094 -0.0314
 2581SOL     OW 8641   3.457   2.737   6.530 -0.3658 -0.5629  0.3314
 2581SOL    HW1 8642   3.426   2.830   6.512 -0.8282 -0.7707  0.0210
 2581SOL    HW2 8643   3.492   2.730   6.623 -0.4076 -0.0986  0.3812
 2582SOL     OW 8644   6.952   1.391   1.978 -0.2451  0.3126  0.1998
 2582SOL    HW1 8645   6.900   1.384   2.064  1.8298 -1.8609  1.3916
 2582SOL    HW2 8646   7.024   1.459   1.989  0.9565 -0.9959  0.7967
 2583SOL     OW 8647   4.396   5.681   4.068 -0.0559  0.3846 -0.5114
 2583SOL    HW1 8648   4.414   5.650   4.161 -2.5931 -0.5981 -0.2689
 2583SOL    HW2 8649   4.429   5.612   4.003  2.3860  1.3989 -0.4727
 2584SOL     OW 8650   5.018   4.505   2.094 -0.3890 -0.2874 -0.5503
 2584SOL    HW1 8651   4.991   4.476   2.186  0.2178  0.9147  0.0294
 2584SOL    HW2 8652   5.109   4.469   2.073  0.4921  1.3749  0.2880
 2585SOL     OW 8653   1.486   1.915   5.760  0.2255  0.0640 -0.4602
 2585SOL    HW1 8654   1.554   1.848   5.790 -1.9539 -2.2371 -0.3390
 2585SOL    HW2 8655   1.395   1.882   5.783 -1.0163  2.7866 -1.0902
 2586SOL     OW 8656   0.420   3.502   1.153 -0.6952  0.0521 -0.2215
 2586SOL    HW1 8657   0.420   3.498   1.253 -0.5734  0.5428 -0.2028
 2586SOL    HW2 8658   0.367   3.581   1.123  0.4442  0.7193 -0.5148
 2587SOL     OW 8659   6.959   1.608   2.971 -0.3272  0.7260  0.5069
 2587SOL    HW1 8660   6.921   1.603   2.879 -0.6658  2.0508  0.5587
 2587SOL    HW2 8661   7.042   1.663   2.970 -0.1026  0.4013  0.9312
 2588SOL     OW 8662   4.339   6.067   1.916  0.1685  0.6250  0.6423
 2588SOL    HW1 8663   4.322   5.970   1.901  0.5630  0.7727 -0.8826
 2588SOL    HW2 8664   4.353   6.083   2.014 -2.3390 -0.4317  1.2565
 2589SOL     OW 8665   2.825   5.630   5.026  0.2200  0.1824  0.2458
 2589SOL    HW1 8666   2.858   5.575   4.949 -1.2611 -1.4672  0.6993
 2589SOL    HW2 8667   2.856   5.588   5.112 -1.6898 -0.5524  0.6278
 2590SOL     OW 8668   3.323   6.740   6.152 -0.5011  0.1714 -0.0385
 2590SOL    HW1 8669   3.307   6.774   6.245 -0.9372  0.9917 -0.4016
 2590SOL    HW2 8670   3.236   6.733   6.104 -0.0742  2.4686 -1.2922
 2591SOL     OW 8671   6.134   2.291   6.247 -0.1271 -0.6236  0.1053
 2591SOL    HW1 8672   6.208   2.358   6.237 -1.2223  0.5221 -0.6116
 2591SOL    HW2 8673   6.157   2.208   6.196  0.9509 -0.5613  0.4506
 2592SOL     OW 8674   6.671   5.196   6.053 -0.0113  0.1552 -0.1273
 2592SOL    HW1 8675   6.649   5.243   5.967 -0.3912 -0.3513 -0.3084
 2592SOL    HW2 8676   6.706   5.105   6.034  0.2953  0.1921  0.2444
 2593SOL     OW 8677   6.115   3.598   2.828 -0.3124  0.4509 -0.0875
 2593SOL    HW1 8678   6.182   3.646   2.885  1.8901 -2.8916  0.4475
 2593SOL    HW2 8679   6.044   3.559   2.886 -0.7644  1.0423 -0.2365
 2594SOL     OW 8680   6.082   4.291   1.243 -0.1392 -0.0365  0.1126
 2594SOL    HW1 8681   5.984   4.293   1.263 -0.3812  3.5139 -0.8153
 2594SOL    HW2 8682   6.096   4.314   1.146  1.6582  0.4695  0.4659
 2595SOL     OW 8683   3.587   3.831   6.962 -0.4946 -0.2246 -0.3080
 2595SOL    HW1 8684   3.521   3.781   6.905 -0.6640 -1.3268  0.8022
 2595SOL    HW2 8685   3.568   3.929   6.958 -1.9045 -0.4858 -0.3806
 2596SOL     OW 8686   6.161   3.523   3.169 -0.0129  0.1240 -0.3860
 2596SOL    HW1 8687   6.125   3.614   3.187 -0.2681  0.6041 -2.9095
 2596SOL    HW2 8688   6.089   3.455   3.184 -0.0833  0.4031  0.6322
 2597SOL     OW 8689   2.467   2.140   0.561  0.1839 -0.2567 -0.0874
 2597SOL    HW1 8690   2.486   2.229   0.604 -0.3864 -0.0690 -0.2165
 2597SOL    HW2 8691   2.441   2.074   0.631  0.5163 -0.2973 -0.0013
 2598SOL     OW 8692   2.951   5.186   3.937 -0.0133  0.3880  0.4587
 2598SOL    HW1 8693   2.893   5.253   3.984  1.0479  0.8295  1.1871
 2598SOL    HW2 8694   2.976   5.113   4.000 -0.6146 -0.3611 -0.1460
 2599SOL     OW 8695   0.812   4.036   6.760 -0.3065  0.4739 -0.6700
 2599SOL    HW1 8696   0.902   3.997   6.743 -0.8726 -0.2165 -2.2558
 2599SOL    HW2 8697   0.782   4.086   6.679 -1.4798  0.4413 -0.2680
 2600SOL     OW 8698   2.758   6.125   6.705  0.5852  0.1610 -0.3813
 2600SOL    HW1 8699   2.680   6.130   6.768  1.3383  0.7559  0.5326
 2600SOL    HW2 8700   2.728   6.086   6.618 -0.7021  0.2694 -0.0074
 2601SOL     OW 8701   6.201   1.902   0.810 -0.2802  0.2170 -0.4627
 2601SOL    HW1 8702   6.268   1.841   0.768 -0.1980 -0.3072  0.4025
 2601SOL    HW2 8703   6.156   1.957   0.739 -0.0815 -0.5737 -1.2128
 2602SOL     OW 8704   3.761   0.494   6.958 -0.6190 -0.2265 -0.3326
 2602SOL    HW1 8705   3.847   0.519   7.002 -0.6150 -1.2316  0.2571
 2602SOL    HW2 8706   3.702   0.448   7.024 -2.2857  1.8463 -0.2680
 2603SOL     OW 8707   0.219   2.429   0.384 -0.0085 -0.7469 -0.6337
 2603SOL    HW1 8708   0.159   2.415   0.305 -1.1418 -0.8906  0.2354
 2603SOL    HW2 8709   0.293   2.491   0.358 -3.4696  4.0628 -0.4048
 2604SOL     OW 8710   6.209   4.971   4.179 -0.8102 -0.5000  0.7202
 2604SOL    HW1 8711   6.284   4.992   4.242  0.0925 -2.0581  0.1887
 2604SOL    HW2 8712   6.130   5.028   4.203 -0.0706 -0.1294  2.4424
 2605SOL     OW 8713   2.511   0.509   5.152 -0.3067  0.0194  0.3628
 2605SOL    HW1 8714   2.453   0.577   5.107 -1.0914 -1.1735 -0.5183
 2605SOL    HW2 8715   2.605   0.540   5.153 -0.5233  0.7611 -0.7655
 2606SOL     OW 8716   3.532   4.409   1.717  0.2900  0.2865  0.5941
 2606SOL    HW1 8717   3.435   4.406   1.693  0.3422  0.3930  0.3615
 2606SOL    HW2 8718   3.557   4.502   1.744  0.2908  0.2236  0.8160
 2607SOL     OW 8719   5.512   5.850   2.716 -0.3917 -0.5620 -1.0492
 2607SOL    HW1 8720   5.564   5.900   2.785 -0.2941 -2.7446  0.5598
 2607SOL    HW2 8721   5.422   5.893   2.705 -0.7273 -0.5826  1.0848
 2608SOL     OW 8722   2.301   1.816   3.482 -0.5113  0.1114  0.4409
 2608SOL    HW1 8723   2.210   1.784   3.456 -0.1274 -0.3314 -0.4219
 2608SOL    HW2 8724   2.326   1.895   3.425  0.6293 -1.3023 -1.1308
 2609SOL     OW 8725   6.242   1.594   1.566 -0.1068 -0.5317  0.0801
 2609SOL    HW1 8726   6.281   1.502   1.566 -1.4530 -1.1838  2.8539
 2609SOL    HW2 8727   6.305   1.657   1.612 -0.5280 -0.7464  0.9692
 2610SOL     OW 8728   3.369   3.796   1.561 -0.2027 -0.0956 -0.0405
 2610SOL    HW1 8729   3.428   3.769   1.638  0.4474  1.0617 -0.1035
 2610SOL    HW2 8730   3.292   3.733   1.554 -2.4794  1.8450  4.0246
 2611SOL     OW 8731   0.152   6.533   4.557 -0.2465 -0.1854 -0.0519
 2611SOL    HW1 8732   0.068   6.584   4.537 -0.9439 -0.7051  1.3736
 2611SOL    HW2 8733   0.149   6.444   4.512  0.6264  0.6772 -1.9131
 2612SOL     OW 8734   3.540   6.129   0.837 -0.0714 -0.0108  0.0108
 2612SOL    HW1 8735   3.569   6.054   0.777  0.4852 -0.1831  0.5005
 2612SOL    HW2 8736   3.447   6.157   0.811  0.8152  1.1654 -2.1743
 2613SOL     OW 8737   6.883   4.839   2.280 -0.0496 -0.1123 -0.5007
 2613SOL    HW1 8738   6.964   4.888   2.314 -0.5795  0.6325 -0.2862
 2613SOL    HW2 8739   6.807   4.851   2.344 -0.1267 -1.4479 -0.3185
 2614SOL     OW 8740   0.828   6.905   2.348  0.2443  1.1155 -0.2221
 2614SOL    HW1 8741   0.742   6.862   2.375  0.5532  1.2607  1.0529
 2614SOL    HW2 8742   0.866   6.955   2.426  3.5255 -2.2513  0.6340
 2615SOL     OW 8743   0.299   2.939   1.740 -0.2941  0.1375  0.1714
 2615SOL    HW1 8744   0.316   2.843   1.716  2.8823  1.0254 -1.7185
 2615SOL    HW2 8745   0.215   2.970   1.696 -1.9927 -1.9490  1.6718
 2616SOL     OW 8746   0.879   4.977   0.403 -0.0028  0.1365 -0.6622
 2616SOL    HW1 8747   0.835   4.959   0.491 -1.3802 -1.2026 -1.5873
 2616SOL    HW2 8748   0.978   4.965   0.412 -0.1367 -0.0689  0.6769
 2617SOL     OW 8749   3.522   1.761   1.042  0.6681 -0.2751 -0.0126
 2617SOL    HW1 8750   3.445   1.810   1.083 -0.5562 -1.6883 -0.5352
 2617SOL    HW2 8751   3.532   1.788   0.946  0.7140 -0.2054  0.0121
 2618SOL     OW 8752   6.221   5.129   0.155  0.3868  0.0316 -0.0027
 2618SOL    HW1 8753   6.199   5.052   0.096 -0.4970 -0.1321  0.5231
 2618SOL    HW2 8754   6.300   5.106   0.212 -0.5198 -0.9147  0.9166
 2619SOL     OW 8755   2.795   6.581   3.510  0.0812 -0.3404 -0.4645
 2619SOL    HW1 8756   2.748   6.642   3.447 -0.4467 -0.4632 -0.1915
 2619SOL    HW2 8757   2.747   6.578   3.598  0.9170 -0.0180  0.0202
 2620SOL     OW 8758   4.563   6.863   2.024 -0.2948 -0.1649 -0.3437
 2620SOL    HW1 8759   4.572   6.820   2.114  0.0175  2.2550  0.8565
 2620SOL    HW2 8760   4.654   6.887   1.990 -0.5161  0.4792 -0.4917
 2621SOL     OW 8761   6.638   0.052   3.812  0.3808 -0.1371 -0.3248
 2621SOL    HW1 8762   6.615   0.065   3.909 -0.0699 -1.6761 -0.1942
 2621SOL    HW2 8763   6.604   0.130   3.759  0.6171  0.7188  0.7427
 2622SOL     OW 8764   4.379   1.186   2.698 -0.1205  0.3405 -0.4045
 2622SOL    HW1 8765   4.421   1.276   2.685 -0.5727  0.5259 -0.6205
 2622SOL    HW2 8766   4.374   1.138   2.610  0.8657 -0.2377 -0.1545
 2623SOL     OW 8767   4.484   3.761   1.087  0.5602  0.5620  0.1191
 2623SOL    HW1 8768   4.536   3.846   1.076  0.3738  0.4877 -1.6590
 2623SOL    HW2 8769   4.543   3.683   1.065  0.5689  0.2532  1.1888
 2624SOL     OW 8770   6.969   5.050   3.709 -0.2744 -0.2611 -0.0618
 2624SOL    HW1 8771   6.901   5.108   3.665  0.1705  0.5350  0.2847
 2624SOL    HW2 8772   7.055   5.101   3.719 -0.0746 -0.7588  0.8447
 2625SOL     OW 8773   3.179   3.929   0.859 -0.7364 -0.4504  0.6190
 2625SOL    HW1 8774   3.194   3.916   0.957 -0.7318 -2.8743  0.3736
 2625SOL    HW2 8775   3.095   3.881   0.832 -0.1136 -0.8166 -0.7431
 2626SOL     OW 8776   4.115   2.185   0.181  0.3987 -0.3121 -0.0418
 2626SOL    HW1 8777   4.045   2.182   0.110 -0.8359  2.3121  0.9152
 2626SOL    HW2 8778   4.093   2.118   0.252 -1.3967  0.6210  0.3616
 2627SOL     OW 8779   3.761   5.281   0.649  0.6678 -0.0907 -0.6037
 2627SOL    HW1 8780   3.691   5.328   0.702  0.8270 -1.2408  0.6806
 2627SOL    HW2 8781   3.738   5.286   0.551  0.3648  2.0507 -0.4539
 2628SOL     OW 8782   3.799   6.587   0.019  0.1381 -0.3233  0.2839
 2628SOL    HW1 8783   3.856   6.641   0.080 -0.8107 -0.5064  1.3470
 2628SOL    HW2 8784   3.854   6.556  -0.059  0.7778  1.9055 -0.2216
 2629SOL     OW 8785   5.286   2.944   1.199 -0.2264 -0.2095 -0.0508
 2629SOL    HW1 8786   5.333   2.997   1.128  2.4653 -0.5088  1.3696
 2629SOL    HW2 8787   5.256   2.856   1.161  3.0722 -1.3065 -0.4384
 2630SOL     OW 8788   5.021   5.129   0.884  0.9022 -0.0760 -0.2330
 2630SOL    HW1 8789   5.086   5.203   0.868  0.5800  0.2209 -0.1864
 2630SOL    HW2 8790   4.937   5.148   0.833  0.7463 -0.3129 -0.0626
 2631SOL     OW 8791   3.708   3.437   3.805 -0.1212 -0.1257 -0.6022
 2631SOL    HW1 8792   3.686   3.440   3.707 -1.2878 -1.4605 -0.4275
 2631SOL    HW2 8793   3.668   3.354   3.844  1.2558 -0.1614  0.7960
 2632SOL     OW 8794   3.547   1.126   5.567  0.0892 -0.1379 -0.2943
 2632SOL    HW1 8795   3.487   1.205   5.550  0.9062  0.4446 -0.5481
 2632SOL    HW2 8796   3.612   1.117   5.492  1.6134  0.4637  0.8738
 2633SOL     OW 8797   2.156   6.864   5.740  0.1073 -0.1679 -0.3930
 2633SOL    HW1 8798   2.222   6.814   5.684  0.4461  1.0779 -1.1465
 2633SOL    HW2 8799   2.083   6.900   5.681  1.0984  2.1851 -0.2745
 2634SOL     OW 8800   2.395   6.152   1.011  0.0200 -0.1523  0.3689
 2634SOL    HW1 8801   2.481   6.117   0.974  0.0525 -1.5788  1.6967
 2634SOL    HW2 8802   2.414   6.212   1.088 -0.1033  1.8194 -1.0513
 2635SOL     OW 8803   6.618   0.545   3.617  0.0563  0.2665 -0.2679
 2635SOL    HW1 8804   6.550   0.498   3.560  0.4038  0.3931 -0.8013
 2635SOL    HW2 8805   6.588   0.639   3.634 -0.7976 -0.2253  1.0756
 2636SOL     OW 8806   0.972   2.569   2.013 -0.5218  0.0686 -0.4094
 2636SOL    HW1 8807   1.022   2.512   2.078 -0.6191 -0.5097 -0.8290
 2636SOL    HW2 8808   0.959   2.660   2.051 -1.0889 -0.4282  0.6236
 2637SOL     OW 8809   0.179   3.615   2.629  0.0876 -0.2264 -0.3169
 2637SOL    HW1 8810   0.130   3.701   2.646 -0.9424 -1.1930  2.0791
 2637SOL    HW2 8811   0.118   3.538   2.646  1.0373 -1.4886 -2.2714
 2638SOL     OW 8812   5.492   2.790   1.718  0.5515  0.0214 -0.3147
 2638SOL    HW1 8813   5.409   2.757   1.672  0.4546  1.4620 -1.2332
 2638SOL    HW2 8814   5.491   2.760   1.814 -0.8732 -0.2526 -0.3936
 2639SOL     OW 8815   5.892   1.241   2.007 -0.1205  0.2076  0.0033
 2639SOL    HW1 8816   5.958   1.270   2.077 -0.8362 -0.2186  0.8855
 2639SOL    HW2 8817   5.808   1.294   2.018 -0.3337 -0.0499 -0.3669
 2640SOL     OW 8818   2.346   0.879   6.643  0.4940 -0.6223 -0.3124
 2640SOL    HW1 8819   2.407   0.945   6.599  1.0705 -1.0145 -0.1026
 2640SOL    HW2 8820   2.397   0.797   6.668 -0.1332 -0.9851 -0.1962
 2641SOL     OW 8821   2.792   0.443   1.972  0.8033  0.5007 -0.4118
 2641SOL    HW1 8822   2.729   0.371   1.944  1.2037 -0.5917  1.3965
 2641SOL    HW2 8823   2.798   0.511   1.898 -1.5293  0.0367 -1.1322
 2642SOL     OW 8824   0.318   3.804   1.113  0.2196 -0.3538  0.2139
 2642SOL    HW1 8825   0.334   3.771   1.020 -1.7443 -0.1160 -0.2658
 2642SOL    HW2 8826   0.328   3.904   1.114 -2.0123 -0.0588 -0.3632
 2643SOL     OW 8827   2.524   3.485   1.226  0.4687  0.6150  0.2459
 2643SOL    HW1 8828   2.623   3.499   1.218  0.6078 -0.8572 -1.2457
 2643SOL    HW2 8829   2.503   3.445   1.315  1.3148  0.1904  0.2664
 2644SOL     OW 8830   3.136   0.057   3.190  0.0257  0.3278 -0.3476
 2644SOL    HW1 8831   3.230   0.087   3.202  0.1728  0.2943 -1.3711
 2644SOL    HW2 8832   3.075   0.136   3.187 -0.4101  0.3158  3.3078
 2645SOL     OW 8833   3.325   2.107   4.172  0.0863  0.3869  0.0004
 2645SOL    HW1 8834   3.346   2.108   4.270  0.9806 -2.8078 -0.0456
 2645SOL    HW2 8835   3.410   2.095   4.120 -0.4285  1.5698 -1.1837
 2646SOL     OW 8836   4.710   0.999   3.134 -0.3202 -0.1642 -0.4191
 2646SOL    HW1 8837   4.697   1.029   3.039 -2.3685 -0.6551 -0.3430
 2646SOL    HW2 8838   4.706   1.079   3.194 -0.5283 -0.0170 -0.6264
 2647SOL     OW 8839   2.832   5.929   2.247 -0.1485 -0.0310 -0.4464
 2647SOL    HW1 8840   2.900   5.982   2.197 -0.0181  0.9903  0.7472
 2647SOL    HW2 8841   2.860   5.833   2.251  1.1021  0.3234 -0.1923
 2648SOL     OW 8842   4.748   2.314   2.018 -0.1281 -0.2340  0.2383
 2648SOL    HW1 8843   4.778   2.220   2.034 -0.0058  0.0761  1.9726
 2648SOL    HW2 8844   4.795   2.351   1.939  1.0182 -1.1032  0.4921
 2649SOL     OW 8845   2.645   6.067   5.005  0.0991  0.2785  0.7033
 2649SOL    HW1 8846   2.647   6.119   4.920  1.6095  0.2333  0.6830
 2649SOL    HW2 8847   2.643   6.130   5.083 -2.6033  0.3377  0.6946
 2650SOL     OW 8848   4.646   3.145   6.504 -0.2326 -0.5653  0.3046
 2650SOL    HW1 8849   4.706   3.065   6.501  0.3941 -0.1268 -3.0786
 2650SOL    HW2 8850   4.552   3.115   6.520  0.3553 -1.5941  2.2111
 2651SOL     OW 8851   1.203   0.157   3.748 -0.2261 -0.0586  0.1733
 2651SOL    HW1 8852   1.280   0.112   3.702  0.3517  1.1501 -0.0685
 2651SOL    HW2 8853   1.119   0.140   3.697 -0.0184 -0.8454  0.0822
 2652SOL     OW 8854   0.974   5.462   2.426 -0.1287 -0.9310  0.3569
 2652SOL    HW1 8855   0.955   5.440   2.522 -0.5698 -0.1657  0.4548
 2652SOL    HW2 8856   1.070   5.443   2.406 -0.3024 -2.1417  0.6422
 2653SOL     OW 8857   6.862   1.732   6.377  0.0048 -0.3981  0.4160
 2653SOL    HW1 8858   6.862   1.644   6.425 -1.1914 -1.0569 -0.7404
 2653SOL    HW2 8859   6.829   1.804   6.438 -1.0188 -1.1311  0.7425
 2654SOL     OW 8860   1.992   6.681   2.942 -0.5720  0.0297 -0.3785
 2654SOL    HW1 8861   1.933   6.613   2.898 -1.0241  0.3630 -0.2932
 2654SOL    HW2 8862   2.064   6.634   2.995 -0.6633 -0.3757 -0.6100
 2655SOL     OW 8863   5.123   4.266   4.162  0.2559  0.7133 -0.0207
 2655SOL    HW1 8864   5.063   4.322   4.220 -0.9742 -0.5607 -0.0187
 2655SOL    HW2 8865   5.119   4.300   4.068 -1.3389 -0.0033 -0.2324
 2656SOL     OW 8866   5.817   6.153   0.124 -0.3826 -0.0119 -0.3296
 2656SOL    HW1 8867   5.846   6.241   0.088 -0.6960  0.7414  1.1687
 2656SOL    HW2 8868   5.895   6.107   0.167 -0.0080 -0.9069 -1.9029
 2657SOL     OW 8869   2.116   3.399   4.571  0.0283 -0.3150  0.4001
 2657SOL    HW1 8870   2.110   3.471   4.501  1.2444 -0.9331 -0.3731
 2657SOL    HW2 8871   2.144   3.440   4.658  0.7125  0.1577 -0.0309
 2658SOL     OW 8872   1.298   0.529   3.916  0.1460 -0.0640  0.1765
 2658SOL    HW1 8873   1.315   0.461   3.987 -1.1112  0.2499  0.8196
 2658SOL    HW2 8874   1.238   0.490   3.846  0.3373  0.0213 -0.0336
 2659SOL     OW 8875   6.454   1.481   2.280  0.5326 -0.7747  0.3595
 2659SOL    HW1 8876   6.385   1.542   2.319  0.9734 -1.1980  1.8691
 2659SOL    HW2 8877   6.411   1.392   2.260 -0.0462 -0.1082 -1.5943
 2660SOL     OW 8878   3.944   2.790   5.997  0.0236  0.3178 -0.0795
 2660SOL    HW1 8879   3.903   2.701   5.975 -2.4690  0.8656  1.8919
 2660SOL    HW2 8880   3.949   2.846   5.915 -0.0951 -0.9822 -1.0046
 2661SOL     OW 8881   4.048   1.778   1.266 -0.0580 -0.2629  0.2345
 2661SOL    HW1 8882   3.956   1.763   1.303  0.5287  0.0810  1.9330
 2661SOL    HW2 8883   4.054   1.871   1.230 -0.9350 -0.9210 -1.7270
 2662SOL     OW 8884   5.655   6.996   3.427 -0.2561  0.2270 -0.1921
 2662SOL    HW1 8885   5.616   6.909   3.458 -0.9248 -0.4945 -2.8556
 2662SOL    HW2 8886   5.585   7.050   3.381  0.6737  1.2324 -0.4815
 2663SOL     OW 8887   2.779   2.462   0.096 -0.6752  0.1375  0.2570
 2663SOL    HW1 8888   2.709   2.464   0.025  0.2589  0.3849 -0.6690
 2663SOL    HW2 8889   2.869   2.454   0.054 -0.1313 -0.0469  1.4299
 2664SOL     OW 8890   3.234   5.247   2.961  0.7089 -0.3702 -0.3683
 2664SOL    HW1 8891   3.302   5.320   2.957  1.1070 -0.5807  1.5444
 2664SOL    HW2 8892   3.280   5.158   2.958  0.2095 -0.6056 -2.9600
 2665SOL     OW 8893   5.428   3.244   2.172 -0.3302 -0.6614  0.6032
 2665SOL    HW1 8894   5.361   3.316   2.153  3.0791  2.6281 -0.1799
 2665SOL    HW2 8895   5.432   3.181   2.095 -1.0058  0.3541 -0.2867
 2666SOL     OW 8896   5.838   5.856   6.214  0.1831  0.1569  0.3892
 2666SOL    HW1 8897   5.825   5.868   6.313 -0.3780 -0.3387  0.3811
 2666SOL    HW2 8898   5.869   5.763   6.195 -2.1440 -0.6023 -0.0792
 2667SOL     OW 8899   1.461   2.272   1.738  0.3688  0.3026 -0.0991
 2667SOL    HW1 8900   1.367   2.286   1.706  0.4837  0.3857 -0.4008
 2667SOL    HW2 8901   1.499   2.359   1.770  0.4702  0.3408 -0.3221
 2668SOL     OW 8902   5.347   6.481   4.786 -0.1747  0.0496 -0.1377
 2668SOL    HW1 8903   5.252   6.474   4.815 -0.3721 -0.8525 -0.9905
 2668SOL    HW2 8904   5.383   6.571   4.812 -1.2476  0.3911  0.1966
 2669SOL     OW 8905   5.050   3.738   6.240  0.1681  0.0955  0.4004
 2669SOL    HW1 8906   5.053   3.799   6.320  1.0107  0.8028 -0.1533
 2669SOL    HW2 8907   5.138   3.693   6.229 -0.1853 -0.5775  0.3009
 2670SOL     OW 8908   6.817   0.433   6.543  0.4726  0.2607  0.6401
 2670SOL    HW1 8909   6.771   0.362   6.597 -1.2263  1.7019  1.1518
 2670SOL    HW2 8910   6.890   0.391   6.489 -0.0554 -1.7697  1.4222
 2671SOL     OW 8911   4.890   2.843   3.284  0.4797 -0.5935  0.5567
 2671SOL    HW1 8912   4.832   2.784   3.339  0.9019  0.2277  1.9275
 2671SOL    HW2 8913   4.862   2.939   3.297  1.5535 -0.2608  0.5219
 2672SOL     OW 8914   2.250   4.795   3.553  0.4437  0.3250  0.2544
 2672SOL    HW1 8915   2.339   4.751   3.561  0.6049  0.9792  3.6869
 2672SOL    HW2 8916   2.260   4.886   3.514  0.7631 -0.6937 -2.2305
 2673SOL     OW 8917   0.089   3.974   1.971 -0.6057  0.2560  0.2590
 2673SOL    HW1 8918  -0.001   3.980   2.014 -0.6419 -2.2555  0.6943
 2673SOL    HW2 8919   0.157   3.953   2.041 -0.2995 -1.5580 -0.5261
 2674SOL     OW 8920   6.581   4.288   6.054 -0.1381 -0.2435  0.2480
 2674SOL    HW1 8921   6.628   4.303   5.967  1.3593 -3.1114  0.4391
 2674SOL    HW2 8922   6.494   4.337   6.053  0.7739  1.5206 -1.9806
 2675SOL     OW 8923   6.295   6.913   3.843 -0.2311  0.2247 -0.1895
 2675SOL    HW1 8924   6.369   6.847   3.831  0.5683  1.1899 -0.7905
 2675SOL    HW2 8925   6.309   6.963   3.928 -1.9096 -1.6580  1.2838
 2676SOL     OW 8926   2.431   6.486   2.554 -0.2867 -0.3093  0.3343
 2676SOL    HW1 8927   2.420   6.456   2.459 -0.0537 -1.7787  0.7433
 2676SOL    HW2 8928   2.410   6.584   2.561 -1.1691 -0.3743 -1.0608
 2677SOL     OW 8929   4.277   3.851   5.645 -0.2034 -0.3185  0.6470
 2677SOL    HW1 8930   4.192   3.828   5.693 -2.4456  1.8303 -1.9438
 2677SOL    HW2 8931   4.311   3.939   5.678 -0.8036  0.3390 -0.4213
 2678SOL     OW 8932   0.108   4.012   3.097  0.0564 -0.3993 -0.0653
 2678SOL    HW1 8933   0.187   4.057   3.055  0.4205 -0.1024  0.9134
 2678SOL    HW2 8934   0.123   3.914   3.099 -0.6786 -0.6090 -2.0829
 2679SOL     OW 8935   6.856   2.862   6.166 -0.0249  0.0451 -0.3867
 2679SOL    HW1 8936   6.830   2.768   6.187  1.1399 -0.2991 -0.4004
 2679SOL    HW2 8937   6.774   2.916   6.148 -0.7440 -0.8279  0.1717
 2680SOL     OW 8938   5.714   4.863   4.918 -0.1943 -0.1489 -0.3501
 2680SOL    HW1 8939   5.636   4.801   4.915 -1.8709  1.8249  0.1031
 2680SOL    HW2 8940   5.749   4.878   4.826  1.0058 -2.5868 -0.3656
 2681SOL     OW 8941   1.946   0.367   6.323 -0.3507  0.0196 -0.1421
 2681SOL    HW1 8942   2.017   0.316   6.274 -0.3580 -2.5445  2.2474
 2681SOL    HW2 8943   1.983   0.455   6.353  1.4531 -0.7527  0.0319
 2682SOL     OW 8944   2.397   2.114   3.465  0.0424  0.1088  0.2151
 2682SOL    HW1 8945   2.404   2.147   3.559  0.7631  1.2874 -0.2196
 2682SOL    HW2 8946   2.331   2.170   3.415  0.8093  0.5006 -0.3756
 2683SOL     OW 8947   1.618   0.664   4.024 -0.0662 -0.7147  0.5734
 2683SOL    HW1 8948   1.575   0.742   4.069  3.1042  0.4285  1.9000
 2683SOL    HW2 8949   1.622   0.587   4.087  1.2000 -0.2883  1.0312
 2684SOL     OW 8950   1.612   1.679   5.014  0.6468  0.1938 -0.1328
 2684SOL    HW1 8951   1.655   1.764   5.045 -0.1298  0.0711  1.3860
 2684SOL    HW2 8952   1.634   1.663   4.918  2.3304  1.1495  0.0600
 2685SOL     OW 8953   3.535   1.828   0.763 -0.3646 -0.0940  0.0300
 2685SOL    HW1 8954   3.525   1.729   0.770  1.2740 -0.4054 -1.4677
 2685SOL    HW2 8955   3.473   1.863   0.693 -0.7195 -0.0861  0.3426
 2686SOL     OW 8956   2.691   3.027   5.314  0.7255 -0.1369  0.1416
 2686SOL    HW1 8957   2.606   3.019   5.261  1.3367 -0.3985 -0.8386
 2686SOL    HW2 8958   2.728   2.936   5.330 -1.3786 -0.4684  4.3958
 2687SOL     OW 8959   1.774   3.233   5.753  0.6999 -0.1338  0.1184
 2687SOL    HW1 8960   1.753   3.295   5.677  0.0546  0.1580  0.5308
 2687SOL    HW2 8961   1.831   3.281   5.820  3.2936 -1.0816 -1.2602
 2688SOL     OW 8962   1.165   1.946   1.006  0.2715  0.2313  0.1119
 2688SOL    HW1 8963   1.178   1.863   1.061  1.1339  0.3157  0.0444
 2688SOL    HW2 8964   1.067   1.965   0.998 -0.0226 -1.4410 -0.8494
 2689SOL     OW 8965   0.864   1.692   6.554  0.3317  0.3146 -0.2908
 2689SOL    HW1 8966   0.794   1.678   6.624  0.8837  0.3763  0.2878
 2689SOL    HW2 8967   0.821   1.702   6.464 -0.5880  2.8751  0.3599
 2690SOL     OW 8968   1.466   0.829   1.269 -0.3436 -0.0384  0.0812
 2690SOL    HW1 8969   1.425   0.890   1.200  0.8469 -0.2347 -0.8237
 2690SOL    HW2 8970   1.410   0.832   1.352 -2.2322 -0.3377 -1.1015
 2691SOL     OW 8971   6.618   0.772   2.319  0.7180  0.2082 -0.3222
 2691SOL    HW1 8972   6.624   0.674   2.302  1.0776  0.3148 -0.8348
 2691SOL    HW2 8973   6.666   0.822   2.247  1.6061  0.7097  0.5732
 2692SOL     OW 8974   1.769   0.445   5.657 -0.8064  0.1315  0.2036
 2692SOL    HW1 8975   1.672   0.425   5.670 -0.6780 -0.2366  0.6399
 2692SOL    HW2 8976   1.780   0.536   5.617 -1.3568 -0.1271 -0.5642
 2693SOL     OW 8977   1.531   5.358   4.290 -0.0152  0.0965 -0.0238
 2693SOL    HW1 8978   1.512   5.403   4.377  0.5146 -0.9044  0.6321
 2693SOL    HW2 8979   1.497   5.264   4.293  1.1272 -0.3537 -0.4152
 2694SOL     OW 8980   1.086   2.743   3.714  0.3773 -0.4111 -0.1727
 2694SOL    HW1 8981   1.069   2.837   3.745 -2.3998 -1.2161  1.0499
 2694SOL    HW2 8982   1.159   2.744   3.645  1.8541  2.3434  1.2379
 2695SOL     OW 8983   2.937   6.038   2.923  0.0803 -0.1699 -0.1454
 2695SOL    HW1 8984   2.971   5.946   2.904  1.1945  0.5581 -1.9223
 2695SOL    HW2 8985   2.923   6.088   2.837  0.8564  1.7715  0.7732
 2696SOL     OW 8986   3.568   0.399   4.790 -0.9391  0.6206 -0.3307
 2696SOL    HW1 8987   3.513   0.342   4.851 -1.4324  0.6931 -0.6927
 2696SOL    HW2 8988   3.539   0.383   4.695 -0.4535  0.7957 -0.5100
 2697SOL     OW 8989   5.931   5.279   4.504 -0.1343  0.5100  0.2998
 2697SOL    HW1 8990   6.004   5.347   4.493  0.5545  0.0141  1.5860
 2697SOL    HW2 8991   5.847   5.312   4.459  0.5717  1.5685 -0.2788
 2698SOL     OW 8992   1.762   4.917   0.391  0.2279  0.2629 -0.3486
 2698SOL    HW1 8993   1.677   4.969   0.396  0.4053  0.4595  1.4433
 2698SOL    HW2 8994   1.807   4.919   0.480  0.8081 -2.0392 -0.5272
 2699SOL     OW 8995   5.181   6.851   1.322  0.1164 -0.6960  0.0931
 2699SOL    HW1 8996   5.156   6.945   1.302 -0.1944 -0.5122  1.2709
 2699SOL    HW2 8997   5.102   6.792   1.309 -0.4595 -0.3897  1.9499
 2700SOL     OW 8998   4.222   5.165   0.659 -0.2593  0.1063  0.4216
 2700SOL    HW1 8999   4.128   5.173   0.694  0.4779  0.1497  2.5579
 2700SOL    HW2 9000   4.282   5.224   0.713  0.7269  1.6610 -2.2220
 2701SOL     OW 9001   6.556   0.904   6.076 -0.1555 -0.2895 -0.1113
 2701SOL    HW1 9002   6.483   0.947   6.023 -0.5844  1.4084  1.7620
 2701SOL    HW2 9003   6.520   0.824   6.124 -0.4164 -0.2990 -0.3199
 2702SOL     OW 9004   1.159   5.827   2.210  0.4032 -0.0377 -0.0892
 2702SOL    HW1 9005   1.220   5.812   2.287  0.2547  0.3961  0.1165
 2702SOL    HW2 9006   1.072   5.781   2.227  1.0259 -1.5762 -0.8621
 2703SOL     OW 9007   3.607   3.904   6.427 -0.3164  0.1566  0.3212
 2703SOL    HW1 9008   3.651   3.920   6.338  0.4404  0.4400  0.7365
 2703SOL    HW2 9009   3.529   3.843   6.415  0.0560 -0.1809 -0.4736
 2704SOL     OW 9010   4.386   3.603   5.595 -0.1012  0.1109  0.3758
 2704SOL    HW1 9011   4.472   3.586   5.643 -0.6980  0.7423  1.7315
 2704SOL    HW2 9012   4.359   3.698   5.608 -0.3531  0.2647 -1.1443
 2705SOL     OW 9013   2.063   1.396   6.799  0.0614 -0.3801 -0.3588
 2705SOL    HW1 9014   2.030   1.316   6.749 -0.4905 -2.0178  2.3510
 2705SOL    HW2 9015   2.162   1.392   6.807 -0.0117 -1.1802  0.2866
 2706SOL     OW 9016   3.036   2.859   6.424 -0.5381 -0.2621  0.6440
 2706SOL    HW1 9017   3.015   2.766   6.454 -0.7048 -0.0967  1.0490
 2706SOL    HW2 9018   2.957   2.918   6.440 -0.9622 -0.3535 -0.9650
 2707SOL     OW 9019   6.595   1.253   3.251 -0.0362 -0.0845 -0.0218
 2707SOL    HW1 9020   6.671   1.204   3.293  2.2717  1.5977 -1.9422
 2707SOL    HW2 9021   6.569   1.330   3.309  1.3141  0.6654 -0.3751
 2708SOL     OW 9022   4.953   5.186   1.485  0.2679 -0.5438 -0.4287
 2708SOL    HW1 9023   4.931   5.094   1.516 -0.8204 -0.0992  0.1852
 2708SOL    HW2 9024   4.907   5.253   1.544 -0.4954  0.3588 -1.9811
 2709SOL     OW 9025   2.187   5.534   4.884  0.0864 -0.1261 -0.3097
 2709SOL    HW1 9026   2.138   5.504   4.965 -1.2798 -0.9760 -1.4050
 2709SOL    HW2 9027   2.153   5.623   4.855  0.5596  0.1681  0.0203
 2710SOL     OW 9028   5.052   1.391   1.333  0.2488  0.5260  0.0359
 2710SOL    HW1 9029   5.005   1.374   1.421  0.8201 -0.7221  0.1216
 2710SOL    HW2 9030   5.148   1.365   1.341  0.4806  1.1196 -0.7475
 2711SOL     OW 9031   6.080   0.637   1.148 -0.2414  0.0853  0.0924
 2711SOL    HW1 9032   6.094   0.552   1.198 -1.4259 -2.4906 -3.5104
 2711SOL    HW2 9033   5.982   0.647   1.127  0.3429 -0.2535 -3.3845
 2712SOL     OW 9034   5.230   1.454   3.908  0.3945 -0.1052  0.3684
 2712SOL    HW1 9035   5.141   1.413   3.889  0.9288 -0.7283 -0.8933
 2712SOL    HW2 9036   5.230   1.549   3.877  0.1883 -0.1298  0.2903
 2713SOL     OW 9037   5.313   3.327   6.214 -0.5142 -0.0877  0.0970
 2713SOL    HW1 9038   5.299   3.228   6.208  1.5640 -0.4429  0.2330
 2713SOL    HW2 9039   5.348   3.350   6.305 -1.9359  0.9315  0.4141
 2714SOL     OW 9040   4.626   6.371   3.331  0.1629  0.3897 -0.3632
 2714SOL    HW1 9041   4.555   6.336   3.392  1.2142 -1.3452 -0.0801
 2714SOL    HW2 9042   4.596   6.361   3.236  0.0627 -0.4581 -0.2500
 2715SOL     OW 9043   6.131   0.054   2.870 -0.1952  0.2512  0.6019
 2715SOL    HW1 9044   6.148  -0.006   2.792  0.2271  1.6983 -0.4712
 2715SOL    HW2 9045   6.195   0.032   2.944  1.0032  0.3867 -0.3670
 2716SOL     OW 9046   0.889   6.795   6.996  0.0160 -0.0925  0.7262
 2716SOL    HW1 9047   0.986   6.811   6.977  0.6743 -2.5992  1.6484
 2716SOL    HW2 9048   0.871   6.810   7.093 -0.7993  1.4500  0.3589
 2717SOL     OW 9049   0.659   3.321   0.052 -0.7574  0.6151  0.3498
 2717SOL    HW1 9050   0.697   3.323  -0.040 -1.3348  2.0818  0.1326
 2717SOL    HW2 9051   0.559   3.324   0.048 -0.7784  1.2105  1.0248
 2718SOL     OW 9052   2.016   2.626   4.891 -0.2760 -0.0711  0.0968
 2718SOL    HW1 9053   2.050   2.614   4.798 -0.5846  1.1166 -0.1881
 2718SOL    HW2 9054   2.028   2.721   4.920  1.0516 -0.6967  1.7879
 2719SOL     OW 9055   2.828   6.992   1.666  0.1176 -0.3055 -0.2643
 2719SOL    HW1 9056   2.745   6.937   1.660 -0.3432  0.2544  0.8034
 2719SOL    HW2 9057   2.831   7.057   1.591 -0.1635 -0.6502 -0.5753
 2720SOL     OW 9058   6.206   5.917   6.695  0.0984 -0.1655  0.6081
 2720SOL    HW1 9059   6.118   5.901   6.741 -0.7218 -0.4025 -0.9607
 2720SOL    HW2 9060   6.203   6.006   6.649  1.1080  0.3168  1.4278
 2721SOL     OW 9061   1.778   6.688   5.907  0.2517 -0.0918  0.0710
 2721SOL    HW1 9062   1.700   6.629   5.884 -0.1860  0.5965 -0.2309
 2721SOL    HW2 9063   1.796   6.751   5.831  1.1796 -0.3201  0.0912
 2722SOL     OW 9064   3.953   1.893   4.267  0.1283 -0.2842  0.3689
 2722SOL    HW1 9065   4.036   1.949   4.278 -0.4398  0.4794  0.8912
 2722SOL    HW2 9066   3.878   1.936   4.318 -0.6780 -0.7749 -0.3977
 2723SOL     OW 9067   0.766   3.518   5.821 -0.0133  0.2444 -0.0107
 2723SOL    HW1 9068   0.800   3.505   5.728 -0.4688  0.6263 -0.2320
 2723SOL    HW2 9069   0.840   3.553   5.879 -0.0428  1.1856 -0.5182
 2724SOL     OW 9070   3.933   6.311   4.154 -0.1279  0.0454 -0.1350
 2724SOL    HW1 9071   3.855   6.269   4.200 -1.9545  1.3906 -1.8211
 2724SOL    HW2 9072   3.992   6.240   4.116 -1.6896 -1.0249 -0.6477
 2725SOL     OW 9073   6.332   4.787   2.345 -0.1249 -0.6475 -0.5136
 2725SOL    HW1 9074   6.399   4.787   2.271 -0.1231 -0.5058 -0.5136
 2725SOL    HW2 9075   6.246   4.748   2.312  0.3376 -1.9974 -0.1526
 2726SOL     OW 9076   0.403   2.332   1.657  0.0608 -0.0382 -0.9402
 2726SOL    HW1 9077   0.347   2.364   1.733  1.9464  3.0145 -0.6521
 2726SOL    HW2 9078   0.353   2.344   1.571 -0.0759  1.9105 -0.6321
 2727SOL     OW 9079   4.833   6.650   1.036 -0.2617 -0.1477 -0.0381
 2727SOL    HW1 9080   4.891   6.603   1.103 -1.8618  0.9003  2.1966
 2727SOL    HW2 9081   4.842   6.749   1.049 -2.6531  0.0412  0.5282
 2728SOL     OW 9082   2.314   3.196   5.283 -0.0826 -0.3962  0.0000
 2728SOL    HW1 9083   2.370   3.134   5.229 -0.6874 -0.8063 -0.1570
 2728SOL    HW2 9084   2.291   3.153   5.370 -1.8873 -1.0861 -0.7740
 2729SOL     OW 9085   4.713   3.060   1.167  0.6032  0.4223 -0.3911
 2729SOL    HW1 9086   4.721   3.090   1.072 -1.0017  0.9452 -0.3973
 2729SOL    HW2 9087   4.622   3.085   1.202  0.7421 -0.7918  0.9155
 2730SOL     OW 9088   1.909   6.525   6.382  0.3562  0.1239 -0.7826
 2730SOL    HW1 9089   1.861   6.438   6.371 -0.0136  0.2225 -0.0080
 2730SOL    HW2 9090   1.885   6.586   6.306 -0.0753 -0.1311 -0.8563
 2731SOL     OW 9091   1.161   0.792   6.021 -0.4299  0.1504 -0.1332
 2731SOL    HW1 9092   1.104   0.871   6.043 -0.3048  0.6636 -1.5398
 2731SOL    HW2 9093   1.117   0.709   6.055 -0.9040  0.7542  0.7621
 2732SOL     OW 9094   3.956   5.473   4.499  0.2405 -0.1345 -0.6796
 2732SOL    HW1 9095   4.006   5.558   4.517  0.6525 -0.5952  0.4616
 2732SOL    HW2 9096   3.865   5.495   4.464 -1.0897  0.9962  3.0159
 2733SOL     OW 9097   1.719   1.519   4.113  0.5250  0.7886  1.0455
 2733SOL    HW1 9098   1.670   1.497   4.029  1.8595  1.7637 -0.0336
 2733SOL    HW2 9099   1.813   1.545   4.091  0.9101  1.0542  2.8454
 2734SOL     OW 9100   6.221   0.649   5.167  0.2473 -1.1447  0.2492
 2734SOL    HW1 9101   6.167   0.627   5.086 -0.3893  1.3690 -0.0812
 2734SOL    HW2 9102   6.206   0.580   5.238 -0.5366 -2.4381 -1.1332
 2735SOL     OW 9103   3.332   3.655   5.574 -0.2131 -0.5633  0.0870
 2735SOL    HW1 9104   3.399   3.711   5.525 -0.3929 -1.0741 -0.7627
 2735SOL    HW2 9105   3.277   3.714   5.634  0.6612 -0.0692  0.4331
 2736SOL     OW 9106   2.536   2.142   2.641  0.7758  0.6057 -0.2951
 2736SOL    HW1 9107   2.572   2.220   2.692  2.0779 -0.0398 -0.1788
 2736SOL    HW2 9108   2.500   2.074   2.706 -0.2261  1.0260 -0.3900
 2737SOL     OW 9109   5.661   4.733   6.250  0.4798 -0.3935  0.0052
 2737SOL    HW1 9110   5.589   4.774   6.194  0.6736  0.2195  0.1984
 2737SOL    HW2 9111   5.630   4.644   6.283 -0.1014 -0.2355 -0.0944
 2738SOL     OW 9112   4.049   5.146   3.015 -0.5003  0.1292 -0.4208
 2738SOL    HW1 9113   3.965   5.201   3.010  0.3096  1.4496 -0.0367
 2738SOL    HW2 9114   4.051   5.098   3.102  0.0846  1.7366  0.4964
 2739SOL     OW 9115   0.747   2.059   2.932  0.3862 -0.0412 -0.1106
 2739SOL    HW1 9116   0.798   2.137   2.970 -3.7052  2.3614  1.1098
 2739SOL    HW2 9117   0.729   1.993   3.004  0.0639  0.1326 -0.0306
 2740SOL     OW 9118   3.350   3.323   3.273  0.2314 -0.1545 -0.0241
 2740SOL    HW1 9119   3.294   3.391   3.227 -0.0503  0.0487  0.6140
 2740SOL    HW2 9120   3.407   3.275   3.205 -2.2159 -1.8559 -1.0158
 2741SOL     OW 9121   6.352   0.577   1.872  0.3509  0.0358  0.1935
 2741SOL    HW1 9122   6.402   0.546   1.791  1.7642 -1.2862  1.4985
 2741SOL    HW2 9123   6.405   0.648   1.919 -0.6090  1.0261 -0.1901
 2742SOL     OW 9124   2.902   3.004   6.763 -0.2258  0.1850 -0.3182
 2742SOL    HW1 9125   2.895   2.911   6.799  0.0987  0.2135 -0.1768
 2742SOL    HW2 9126   2.999   3.030   6.755 -0.2740  0.0568 -1.5336
 2743SOL     OW 9127   4.315   1.036   3.646  0.4613  0.0245 -0.0502
 2743SOL    HW1 9128   4.318   0.961   3.712  2.1432  0.0842 -0.0080
 2743SOL    HW2 9129   4.311   0.999   3.554 -0.6557 -0.0770  0.0307
 2744SOL     OW 9130   1.396   4.165   6.706  0.5953 -0.1002  0.2953
 2744SOL    HW1 9131   1.385   4.199   6.799 -0.3207 -0.7405  0.4342
 2744SOL    HW2 9132   1.425   4.070   6.708  2.3137  0.3721 -0.0954
 2745SOL     OW 9133   0.889   0.378   3.164 -0.2189 -0.0522 -0.5426
 2745SOL    HW1 9134   0.922   0.389   3.258  0.8086  1.0501 -0.9997
 2745SOL    HW2 9135   0.818   0.447   3.146  0.7729  0.8760 -1.0566
 2746SOL     OW 9136   2.672   5.473   2.809 -0.7866  0.4916  0.3834
 2746SOL    HW1 9137   2.595   5.482   2.746  0.0855 -0.5058 -0.8915
 2746SOL    HW2 9138   2.686   5.376   2.830  1.6730  0.3252 -1.5247
 2747SOL     OW 9139   0.254   2.663   3.065  0.0351 -0.0835  0.2043
 2747SOL    HW1 9140   0.346   2.624   3.057  0.6320  0.6585  2.5421
 2747SOL    HW2 9141   0.202   2.610   3.132 -1.2219 -0.4200 -1.0154
 2748SOL     OW 9142   1.744   2.725   5.962 -0.4308 -0.3057 -0.5972
 2748SOL    HW1 9143   1.745   2.824   5.948 -1.3308 -0.5114 -2.2971
 2748SOL    HW2 9144   1.838   2.691   5.962  0.0551  0.7653  2.0959
 2749SOL     OW 9145   1.553   1.684   6.032 -0.7753 -0.1864  0.0443
 2749SOL    HW1 9146   1.514   1.597   6.001 -0.8552 -0.2641  0.3609
 2749SOL    HW2 9147   1.595   1.671   6.122  3.0655 -1.0020 -1.6682
 2750SOL     OW 9148   0.477   1.555   0.279  0.4923  0.1918  0.1557
 2750SOL    HW1 9149   0.440   1.564   0.186  0.7839  0.9472  0.1014
 2750SOL    HW2 9150   0.422   1.489   0.331  0.3842 -0.3126 -0.5782
 2751SOL     OW 9151   0.837   6.371   4.406  0.2798  0.4594 -0.1320
 2751SOL    HW1 9152   0.872   6.415   4.324 -0.0038  1.1182  0.0977
 2751SOL    HW2 9153   0.786   6.437   4.461 -2.4252 -0.7044 -1.0436
 2752SOL     OW 9154   0.716   4.900   6.868 -0.1801 -0.0745 -0.0463
 2752SOL    HW1 9155   0.661   4.827   6.827  0.4864 -1.3899  1.3276
 2752SOL    HW2 9156   0.809   4.896   6.831  0.7324 -1.9412  2.1942
 2753SOL     OW 9157   5.104   1.676   0.957 -0.0362 -0.9734 -1.0173
 2753SOL    HW1 9158   5.137   1.767   0.985 -0.8134 -1.4693  1.8110
 2753SOL    HW2 9159   5.133   1.658   0.863 -1.6383  3.0272 -2.4748
 2754SOL     OW 9160   3.115   5.128   2.680 -0.2044  0.2641 -0.1935
 2754SOL    HW1 9161   3.107   5.030   2.698  0.6595  0.0974 -0.7006
 2754SOL    HW2 9162   3.169   5.171   2.753 -0.3940  0.3287 -0.0903
 2755SOL     OW 9163   1.078   6.921   5.817 -0.2542 -0.1109 -0.4992
 2755SOL    HW1 9164   1.064   7.005   5.868 -1.6696  0.5239 -1.8608
 2755SOL    HW2 9165   1.174   6.914   5.789  0.2976  0.0608  1.2528
 2756SOL     OW 9166   5.878   4.242   3.002  0.0688  0.2467  0.3090
 2756SOL    HW1 9167   5.810   4.313   3.025  0.5500  0.8102  0.0061
 2756SOL    HW2 9168   5.926   4.268   2.919  2.2678  1.0187  1.7440
 2757SOL     OW 9169   0.427   2.554   0.317 -0.1287  0.0576 -0.2282
 2757SOL    HW1 9170   0.490   2.586   0.388 -0.9053  1.4922 -0.1250
 2757SOL    HW2 9171   0.443   2.606   0.233 -0.3195 -0.4639 -0.5862
 2758SOL     OW 9172   2.387   1.648   1.432  0.8833 -0.2949  0.3011
 2758SOL    HW1 9173   2.408   1.550   1.432  0.5526 -0.3737 -0.2515
 2758SOL    HW2 9174   2.350   1.674   1.342  3.0154  0.7806 -0.3414
 2759SOL     OW 9175   2.517   5.490   6.656  0.1534  0.4109  0.4463
 2759SOL    HW1 9176   2.484   5.583   6.638  0.4337  0.3086 -0.6523
 2759SOL    HW2 9177   2.440   5.426   6.655 -0.0496  0.6204  1.2703
 2760SOL     OW 9178   3.080   3.325   0.301  0.1298  0.3669  0.4409
 2760SOL    HW1 9179   3.145   3.398   0.321 -0.1784  0.6407  0.4699
 2760SOL    HW2 9180   3.097   3.247   0.362  0.4815  0.4041  0.3869
 2761SOL     OW 9181   5.850   3.683   2.652 -0.2798 -0.8346  0.7805
 2761SOL    HW1 9182   5.811   3.675   2.560 -1.7902  2.6735  0.9641
 2761SOL    HW2 9183   5.939   3.637   2.654 -0.1673 -1.0054 -2.4253
 2762SOL     OW 9184   6.489   4.701   0.672 -0.1039  0.3862  0.5087
 2762SOL    HW1 9185   6.507   4.789   0.627 -0.7100 -0.5920 -1.7830
 2762SOL    HW2 9186   6.576   4.656   0.691  0.1619  0.6389 -0.0789
 2763SOL     OW 9187   0.975   5.298   4.794 -0.0233 -0.1963 -0.0208
 2763SOL    HW1 9188   0.966   5.379   4.735  0.4971  0.2683  0.5218
 2763SOL    HW2 9189   1.025   5.227   4.745 -0.3505 -0.1369 -0.4498
 2764SOL     OW 9190   0.910   0.453   4.875 -0.0753 -0.3103 -0.4615
 2764SOL    HW1 9191   0.946   0.483   4.787  0.1419 -0.8427 -0.5570
 2764SOL    HW2 9192   0.986   0.437   4.938 -0.2031 -0.3934 -0.3276
 2765SOL     OW 9193   6.468   3.546   3.357  0.3554 -0.2231  0.1236
 2765SOL    HW1 9194   6.494   3.560   3.452 -0.7344  1.2654  0.2432
 2765SOL    HW2 9195   6.540   3.580   3.297  1.3931 -1.8708  0.3702
 2766SOL     OW 9196   5.095   0.067   5.078  0.0129 -0.2036 -0.2325
 2766SOL    HW1 9197   5.031   0.140   5.052  1.1713  0.8464 -0.2573
 2766SOL    HW2 9198   5.164   0.104   5.139  0.8560 -1.1945 -0.5580
 2767SOL     OW 9199   3.515   1.514   3.064 -0.3799  0.3525  0.0041
 2767SOL    HW1 9200   3.558   1.523   2.974  0.5941 -2.3934  0.0755
 2767SOL    HW2 9201   3.569   1.564   3.132  0.0228  0.7930 -0.6328
 2768SOL     OW 9202   3.952   0.789   3.708  0.1581  0.6600 -0.0606
 2768SOL    HW1 9203   3.868   0.823   3.665 -0.1190 -0.2879 -0.2871
 2768SOL    HW2 9204   3.968   0.838   3.793 -0.2425  1.3351 -0.3620
 2769SOL     OW 9205   5.013   2.912   0.946 -0.0754 -0.0511 -0.1033
 2769SOL    HW1 9206   5.067   2.986   0.906  1.1331 -0.2399  1.1044
 2769SOL    HW2 9207   4.918   2.919   0.916 -0.0829  2.2346  0.3439
 2770SOL     OW 9208   6.988   5.544   4.004 -0.0868  0.1404  0.1524
 2770SOL    HW1 9209   7.068   5.604   4.012 -0.7381  1.1702 -0.8539
 2770SOL    HW2 9210   6.976   5.494   4.090  3.4528 -2.4560 -0.6093
 2771SOL     OW 9211   4.726   6.443   2.886  0.6611 -0.0439 -0.0273
 2771SOL    HW1 9212   4.637   6.403   2.903  0.8434 -0.2778  0.4009
 2771SOL    HW2 9213   4.796   6.371   2.886  0.7925  0.0749 -0.8298
 2772SOL     OW 9214   4.886   3.144   5.102 -0.1392  0.8721  0.7079
 2772SOL    HW1 9215   4.984   3.136   5.119  0.3024  2.4483 -0.8674
 2772SOL    HW2 9216   4.844   3.053   5.107  1.9155 -0.3145 -1.4685
 2773SOL     OW 9217   4.879   4.451   5.001  0.2173 -0.2640  0.1188
 2773SOL    HW1 9218   4.780   4.459   5.006  0.2725  1.4430 -0.5368
 2773SOL    HW2 9219   4.916   4.438   5.093 -0.5845 -0.3251  0.4415
 2774SOL     OW 9220   3.401   2.912   2.292 -0.2809 -0.0539  0.2273
 2774SOL    HW1 9221   3.380   2.919   2.195  0.7508  0.0628  0.0087
 2774SOL    HW2 9222   3.395   2.816   2.320  0.7858 -0.2843 -0.2807
 2775SOL     OW 9223   3.589   0.253   5.202  0.7183 -0.4844 -0.0398
 2775SOL    HW1 9224   3.567   0.349   5.215 -0.8858 -0.9350  0.9483
 2775SOL    HW2 9225   3.678   0.244   5.156  0.7697  1.4394 -0.3860
 2776SOL     OW 9226   1.756   0.344   0.156  0.1395 -0.7927  0.1887
 2776SOL    HW1 9227   1.696   0.416   0.191  1.7896  0.9216 -0.3551
 2776SOL    HW2 9228   1.851   0.371   0.168  0.8493 -1.1124 -3.4034
 2777SOL     OW 9229   3.657   6.715   5.217  0.2475  0.2159  0.7815
 2777SOL    HW1 9230   3.667   6.808   5.183 -2.7711  1.4353  2.7989
 2777SOL    HW2 9231   3.674   6.712   5.316  0.6604 -1.4682  0.7042
 2778SOL     OW 9232   4.463   6.218   4.808 -0.3576  0.2608  0.0592
 2778SOL    HW1 9233   4.364   6.230   4.819 -0.2205  0.8927  0.6451
 2778SOL    HW2 9234   4.493   6.140   4.863 -0.5788 -0.1518 -0.3943
 2779SOL     OW 9235   6.734   0.816   0.573  0.3534  0.4108  0.2639
 2779SOL    HW1 9236   6.689   0.779   0.654  0.2881 -0.7936 -0.2934
 2779SOL    HW2 9237   6.784   0.743   0.526  0.4361  1.0877 -0.7424
 2780SOL     OW 9238   6.162   1.759   2.648  0.2488  0.3770  0.4667
 2780SOL    HW1 9239   6.211   1.842   2.621 -0.9171  1.1658  0.7156
 2780SOL    HW2 9240   6.068   1.782   2.672  0.2422 -0.8354  1.7150
 2781SOL     OW 9241   0.935   0.942   5.109  0.1034 -0.3765  0.1103
 2781SOL    HW1 9242   1.000   0.907   5.042 -1.0218 -1.8879 -0.2316
 2781SOL    HW2 9243   0.886   1.021   5.070  0.5920 -0.2313 -0.2183
 2782SOL     OW 9244   2.973   6.899   5.063 -0.3206  0.1018 -0.0570
 2782SOL    HW1 9245   3.066   6.917   5.031 -0.5086  0.0565 -0.6446
 2782SOL    HW2 9246   2.927   6.838   4.998 -1.5060  1.8838 -0.9488
 2783SOL     OW 9247   1.815   4.374   6.682  0.1238  0.1333  0.3227
 2783SOL    HW1 9248   1.869   4.305   6.633 -1.5227  0.5692 -2.3490
 2783SOL    HW2 9249   1.720   4.368   6.652 -0.3834  2.4893  1.2653
 2784SOL     OW 9250   2.282   6.547   4.606  0.0339 -0.0558  0.1322
 2784SOL    HW1 9251   2.204   6.484   4.608 -1.1336  1.3136 -0.2957
 2784SOL    HW2 9252   2.305   6.574   4.699 -1.0462  0.7161  0.2048
 2785SOL     OW 9253   5.902   5.298   3.431 -0.5757  0.6887  0.1423
 2785SOL    HW1 9254   5.970   5.251   3.374 -0.2699 -1.4266  2.0864
 2785SOL    HW2 9255   5.948   5.367   3.487 -0.2141  0.1144  0.5659
 2786SOL     OW 9256   5.838   4.464   5.574 -0.1966 -0.0912  0.4127
 2786SOL    HW1 9257   5.856   4.375   5.532 -1.6192  0.3058 -1.1569
 2786SOL    HW2 9258   5.761   4.508   5.527 -0.3085  1.4545  1.9371
 2787SOL     OW 9259   5.620   4.438   5.787  0.1788  0.1779 -0.0949
 2787SOL    HW1 9260   5.684   4.369   5.753  1.3890  0.7500  0.9699
 2787SOL    HW2 9261   5.661   4.529   5.782 -0.7554  0.6305  0.1091
 2788SOL     OW 9262   0.625   3.820   7.022  0.3393  0.6065 -0.3961
 2788SOL    HW1 9263   0.580   3.854   6.940 -1.2847 -0.7237 -0.0905
 2788SOL    HW2 9264   0.661   3.729   7.005 -0.9710 -0.1405  0.6495
 2789SOL     OW 9265   3.944   0.733   6.809 -0.0896 -0.3694 -0.6851
 2789SOL    HW1 9266   3.900   0.742   6.720 -0.2350 -0.8188 -0.6626
 2789SOL    HW2 9267   3.939   0.637   6.839 -2.4616  0.2230  1.0571
 2790SOL     OW 9268   5.001   5.513   1.973 -0.3355  0.0651 -0.2618
 2790SOL    HW1 9269   4.961   5.421   1.977 -0.8965  0.1874 -2.0936
 2790SOL    HW2 9270   5.098   5.506   1.952  0.6594 -0.2012  3.5376
 2791SOL     OW 9271   6.619   0.595   1.282 -0.4355 -0.1640 -0.0016
 2791SOL    HW1 9272   6.617   0.677   1.225 -0.9767 -0.9678 -1.1839
 2791SOL    HW2 9273   6.584   0.616   1.373 -0.7539  0.8623 -0.3519
 2792SOL     OW 9274   4.584   1.407   1.750  0.5952 -0.0857 -0.0008
 2792SOL    HW1 9275   4.603   1.408   1.652 -0.1296 -1.5617 -0.1855
 2792SOL    HW2 9276   4.553   1.316   1.777  1.3079  0.1410  1.7159
 2793SOL     OW 9277   2.864   2.279   5.084 -0.2212 -0.1397 -0.5468
 2793SOL    HW1 9278   2.963   2.268   5.074 -0.1202 -1.8257  1.6555
 2793SOL    HW2 9279   2.827   2.316   4.999  2.1255 -0.5077 -1.8361
 2794SOL     OW 9280   2.200   2.957   2.678 -0.4557 -0.4020  0.1936
 2794SOL    HW1 9281   2.117   2.983   2.728 -1.0973  0.8487 -1.4306
 2794SOL    HW2 9282   2.248   2.885   2.728 -0.9540  0.8788  2.6758
 2795SOL     OW 9283   6.648   6.337   5.307  0.0416 -0.5571 -0.6318
 2795SOL    HW1 9284   6.552   6.362   5.295 -0.0741 -1.4039 -1.5503
 2795SOL    HW2 9285   6.679   6.365   5.398 -0.0677  2.9772 -1.5157
 2796SOL     OW 9286   5.300   4.782   4.936  0.6865 -0.4806 -0.0626
 2796SOL    HW1 9287   5.245   4.700   4.949  0.6665 -0.1691  2.3538
 2796SOL    HW2 9288   5.257   4.859   4.983  0.3090  1.1817 -2.8750
 2797SOL     OW 9289   0.455   0.094   2.411  0.0944 -0.8681 -0.3000
 2797SOL    HW1 9290   0.548   0.123   2.433  0.0395 -0.3733 -0.7053
 2797SOL    HW2 9291   0.402   0.173   2.379 -1.0224 -0.7399  1.7030
 2798SOL     OW 9292   4.466   2.500   1.165  0.1860  0.0042 -0.3148
 2798SOL    HW1 9293   4.492   2.588   1.124 -1.5065  0.3637 -0.6900
 2798SOL    HW2 9294   4.437   2.515   1.260 -0.2266 -0.1278 -0.4202
 2799SOL     OW 9295   4.988   0.100   5.893 -0.1152 -0.1660 -0.3001
 2799SOL    HW1 9296   4.929   0.153   5.954 -0.9543  0.0615 -1.2757
 2799SOL    HW2 9297   4.934   0.027   5.852  0.6512 -0.8231 -0.1505
 2800SOL     OW 9298   6.669   3.958   0.620 -0.6155  0.2066  0.7085
 2800SOL    HW1 9299   6.582   4.006   0.632 -0.0176  1.7147 -0.6734
 2800SOL    HW2 9300   6.651   3.862   0.599 -1.8762  0.1054  2.0297
 2801SOL     OW 9301   5.637   5.421   3.022  0.3551 -0.7544 -0.6637
 2801SOL    HW1 9302   5.668   5.418   2.927 -0.1901 -3.8516 -0.8655
 2801SOL    HW2 9303   5.715   5.437   3.082  0.4249  3.5440 -1.5820
 2802SOL     OW 9304   4.130   0.318   1.145  0.4854 -0.2317  0.3895
 2802SOL    HW1 9305   4.104   0.245   1.082  1.6382 -1.1399  0.9304
 2802SOL    HW2 9306   4.212   0.364   1.110  0.8848 -0.4680  1.0050
 2803SOL     OW 9307   5.849   6.709   2.112 -0.5072  0.0760 -0.2296
 2803SOL    HW1 9308   5.767   6.716   2.055 -1.2611 -1.8554  0.5361
 2803SOL    HW2 9309   5.893   6.798   2.118 -2.9089  1.3274 -0.1080
 2804SOL     OW 9310   0.228   2.539   6.467 -0.3895 -0.3872 -0.5712
 2804SOL    HW1 9311   0.269   2.454   6.434  0.0071 -0.3378 -0.2057
 2804SOL    HW2 9312   0.189   2.589   6.390  1.3645  0.1944 -1.1260
 2805SOL     OW 9313   1.981   4.575   6.767 -0.4382 -0.2715  0.2919
 2805SOL    HW1 9314   1.984   4.636   6.688  1.2041  0.6588  1.0296
 2805SOL    HW2 9315   1.906   4.510   6.755 -1.5738  1.1877 -1.0204
 2806SOL     OW 9316   0.903   5.573   6.822 -0.4038 -0.4898  0.2037
 2806SOL    HW1 9317   0.997   5.606   6.816 -1.0050  1.4279  0.3873
 2806SOL    HW2 9318   0.895   5.509   6.898  0.6446 -0.2280  0.5499
 2807SOL     OW 9319   6.501   5.045   2.050 -0.0774 -0.3229 -0.1731
 2807SOL    HW1 9320   6.576   4.987   2.083  0.2509  0.3582  0.2941
 2807SOL    HW2 9321   6.413   5.006   2.077  0.1647 -0.2352  0.7452
 2808SOL     OW 9322   5.111   0.088   1.187  0.3518 -0.5826 -0.3811
 2808SOL    HW1 9323   5.168   0.098   1.106 -0.4816  0.2653 -0.8759
 2808SOL    HW2 9324   5.071   0.177   1.211  1.1600 -0.6601  1.3923
 2809SOL     OW 9325   0.733   0.644   0.518  0.3867 -0.7976  0.6343
 2809SOL    HW1 9326   0.730   0.725   0.458 -1.2579 -1.7119 -0.6154
 2809SOL    HW2 9327   0.791   0.574   0.476 -0.2862 -1.2172  0.3900
 2810SOL     OW 9328   4.795   6.740   5.308  0.3174 -0.0870 -0.2792
 2810SOL    HW1 9329   4.864   6.776   5.244 -1.2321  0.3767 -1.7563
 2810SOL    HW2 9330   4.797   6.793   5.392  1.8984 -0.2224 -0.1912
 2811SOL     OW 9331   5.192   1.638   0.699 -0.3854 -0.0322 -0.3807
 2811SOL    HW1 9332   5.283   1.678   0.685  0.8278 -1.7654  1.9133
 2811SOL    HW2 9333   5.155   1.608   0.611  1.3313  0.5506 -1.3441
 2812SOL     OW 9334   0.166   4.946   3.415  0.0058  0.0526  0.1300
 2812SOL    HW1 9335   0.252   4.983   3.450 -0.1632  1.0989 -0.5186
 2812SOL    HW2 9336   0.126   4.885   3.483 -0.0057  1.5439  1.5338
 2813SOL     OW 9337   0.079   0.022   4.668  0.5678  0.2845  0.0872
 2813SOL    HW1 9338   0.071   0.087   4.592  0.3325  1.7129  1.2904
 2813SOL    HW2 9339   0.175   0.012   4.694  0.4164  4.5389  3.4104
 2814SOL     OW 9340   3.804   3.138   2.559 -0.5869  0.7162  0.2516
 2814SOL    HW1 9341   3.829   3.049   2.597 -0.9509  0.5330  0.0650
 2814SOL    HW2 9342   3.784   3.202   2.634  1.3111  1.1469  0.4582
 2815SOL     OW 9343   3.695   6.388   6.680  0.3101  0.0566  0.2482
 2815SOL    HW1 9344   3.660   6.352   6.767 -0.8141  0.4738 -0.0162
 2815SOL    HW2 9345   3.618   6.422   6.625  0.8987 -0.9124 -1.2494
 2816SOL     OW 9346   4.319   3.719   5.287 -0.1762 -0.1765 -0.2353
 2816SOL    HW1 9347   4.388   3.790   5.301  0.9116 -1.2803  0.2448
 2816SOL    HW2 9348   4.362   3.629   5.300 -1.4094 -0.9339 -1.2312
 2817SOL     OW 9349   2.749   0.830   1.986 -0.6016  0.0502  0.0014
 2817SOL    HW1 9350   2.665   0.874   2.018 -0.4060 -0.7235  1.6897
 2817SOL    HW2 9351   2.764   0.745   2.038 -0.5045 -1.5775 -2.5311
 2818SOL     OW 9352   3.374   3.523   5.198 -0.2120  0.3945 -0.5258
 2818SOL    HW1 9353   3.299   3.501   5.135 -2.6548  0.8946  1.9970
 2818SOL    HW2 9354   3.433   3.443   5.208 -0.8936 -0.3259 -1.9732
 2819SOL     OW 9355   2.026   1.988   0.701  0.2948 -0.1943  0.4218
 2819SOL    HW1 9356   2.102   1.925   0.686 -0.0348 -0.8879  1.4802
 2819SOL    HW2 9357   2.059   2.069   0.750  0.7082  0.4458 -0.8843
 2820SOL     OW 9358   0.181   4.110   4.003 -0.2911 -0.0358 -0.5418
 2820SOL    HW1 9359   0.146   4.089   4.094 -2.3877  2.7851 -0.5658
 2820SOL    HW2 9360   0.122   4.067   3.935 -0.4575  0.2288 -0.5659
 2821SOL     OW 9361   1.395   2.747   1.812 -0.7989 -0.2254  0.2218
 2821SOL    HW1 9362   1.401   2.823   1.876 -1.6751 -0.1698  0.2529
 2821SOL    HW2 9363   1.365   2.780   1.723 -2.4444 -0.6696  0.5692
 2822SOL     OW 9364   6.749   2.145   1.129  0.0374 -0.2545 -0.1328
 2822SOL    HW1 9365   6.695   2.151   1.045  0.0351  1.1192 -0.0483
 2822SOL    HW2 9366   6.803   2.060   1.128 -1.4577 -1.2289 -0.5998
 2823SOL     OW 9367   2.545   2.465   0.933 -0.4798 -0.2903  0.2634
 2823SOL    HW1 9368   2.598   2.513   1.004 -0.2380  1.1112 -0.8046
 2823SOL    HW2 9369   2.451   2.454   0.964  0.1977 -2.1480  1.8870
 2824SOL     OW 9370   4.665   2.699   0.348 -0.0847 -0.3468  0.4370
 2824SOL    HW1 9371   4.652   2.601   0.360 -0.5895 -0.5415 -1.3226
 2824SOL    HW2 9372   4.652   2.746   0.435 -0.7320 -1.7480  1.1243
 2825SOL     OW 9373   2.775   4.076   0.913  0.7604  0.1665 -0.0194
 2825SOL    HW1 9374   2.786   4.175   0.900  1.3947  0.1097  0.0596
 2825SOL    HW2 9375   2.795   4.029   0.828  0.4886  0.1019 -0.0481
 2826SOL     OW 9376   4.314   6.723   2.433  0.0290  0.4236 -0.0674
 2826SOL    HW1 9377   4.330   6.720   2.334 -0.8701 -0.1552 -0.2059
 2826SOL    HW2 9378   4.276   6.636   2.463 -0.4200  0.8677  0.6623
 2827SOL     OW 9379   4.719   5.726   6.316 -0.3681  0.1356  0.1589
 2827SOL    HW1 9380   4.791   5.789   6.345 -1.4424  0.5810  2.0295
 2827SOL    HW2 9381   4.636   5.779   6.296 -0.3359 -0.4070 -1.5858
 2828SOL     OW 9382   5.612   6.428   0.561 -0.4585 -0.4329 -0.6209
 2828SOL    HW1 9383   5.704   6.460   0.539 -0.4828 -0.5161 -0.8389
 2828SOL    HW2 9384   5.601   6.333   0.533  0.1062 -1.1415  1.3601
 2829SOL     OW 9385   1.980   2.319   5.172 -0.2392  0.5060 -0.2850
 2829SOL    HW1 9386   2.001   2.370   5.089 -1.1942 -0.6048 -1.2445
 2829SOL    HW2 9387   1.899   2.358   5.216 -1.6140 -0.7348 -1.5901
 2830SOL     OW 9388   5.652   2.127   1.338 -0.4329  0.7137  0.3172
 2830SOL    HW1 9389   5.621   2.109   1.244 -1.0248  1.9659  0.2539
 2830SOL    HW2 9390   5.742   2.171   1.335 -0.1135  0.0712  0.3723
 2831SOL     OW 9391   6.028   2.211   3.185 -0.0090  0.0076  0.2671
 2831SOL    HW1 9392   5.980   2.293   3.152  0.8297  0.7778  0.9123
 2831SOL    HW2 9393   5.976   2.169   3.259 -0.7766 -0.4410 -0.5095
 2832SOL     OW 9394   3.939   4.022   3.862  0.3065 -0.1342 -0.1072
 2832SOL    HW1 9395   3.850   4.057   3.891 -0.9350 -1.3274 -2.2583
 2832SOL    HW2 9396   3.987   3.983   3.941 -1.1167  0.3873  1.0555
 2833SOL     OW 9397   3.577   1.512   3.836 -0.4190  0.1747  0.6171
 2833SOL    HW1 9398   3.540   1.515   3.743  0.7937 -1.2500  0.0440
 2833SOL    HW2 9399   3.535   1.584   3.891 -1.1089  1.1000 -1.0468
 2834SOL     OW 9400   5.072   6.601   3.765 -0.0121  0.2415  0.1886
 2834SOL    HW1 9401   5.152   6.659   3.753  0.2890 -0.3365 -0.6775
 2834SOL    HW2 9402   4.996   6.636   3.710 -0.4415  0.9235  1.1898
 2835SOL     OW 9403   0.900   4.667   0.011 -0.7061 -0.0196 -0.3700
 2835SOL    HW1 9404   0.922   4.756   0.053 -2.3263 -0.0788  0.6762
 2835SOL    HW2 9405   0.828   4.623   0.063  0.0282 -1.9574 -0.9163
 2836SOL     OW 9406   2.773   5.775   6.723  0.0696 -0.0663 -0.0182
 2836SOL    HW1 9407   2.856   5.726   6.694  0.2082  0.7103 -0.9853
 2836SOL    HW2 9408   2.756   5.851   6.661 -1.3795 -0.2027  0.1750
 2837SOL     OW 9409   6.921   0.251   2.405 -0.1053  0.0193 -0.8793
 2837SOL    HW1 9410   6.909   0.244   2.306 -1.1979  0.4318 -0.7852
 2837SOL    HW2 9411   6.866   0.327   2.440 -0.7628 -0.9336  0.2237
 2838SOL     OW 9412   0.624   2.132   0.115 -0.8254 -0.0995 -0.3374
 2838SOL    HW1 9413   0.663   2.178   0.035 -1.7309  1.7765  0.2285
 2838SOL    HW2 9414   0.684   2.148   0.194 -0.8406 -0.4147 -0.2630
 2839SOL     OW 9415   6.390   7.014   3.373  0.5141  0.2607 -0.5276
 2839SOL    HW1 9416   6.318   7.014   3.443 -1.5047  0.6757 -2.5051
 2839SOL    HW2 9417   6.423   6.921   3.361 -0.1865 -0.0667 -0.0504
 2840SOL     OW 9418   3.279   4.897   3.584 -0.2754  0.0129 -0.3150
 2840SOL    HW1 9419   3.201   4.911   3.645 -0.5068 -0.3958 -0.5121
 2840SOL    HW2 9420   3.252   4.838   3.508 -0.1210  0.8922 -1.0769
 2841SOL     OW 9421   4.360   3.200   1.198  0.5787 -0.0087  0.2702
 2841SOL    HW1 9422   4.369   3.107   1.161  0.9534  0.7840 -1.7400
 2841SOL    HW2 9423   4.278   3.205   1.256  0.4942 -1.5560  0.3236
 2842SOL     OW 9424   1.826   5.907   0.782  0.5172 -0.0253  0.3859
 2842SOL    HW1 9425   1.777   5.891   0.697 -0.2986  1.5074  0.5284
 2842SOL    HW2 9426   1.899   5.975   0.767  0.4505  0.1608  0.8715
 2843SOL     OW 9427   0.869   0.517   4.265  0.5385 -0.1802 -0.0764
 2843SOL    HW1 9428   0.771   0.536   4.272  0.3525 -0.4050 -1.7031
 2843SOL    HW2 9429   0.897   0.525   4.169  2.0091 -0.6227  0.3056
 2844SOL     OW 9430   2.995   3.771   6.633 -0.3493 -0.0374 -0.3565
 2844SOL    HW1 9431   3.002   3.869   6.653  2.6700  0.0831 -1.3836
 2844SOL    HW2 9432   3.021   3.719   6.715 -0.3896  0.0705 -0.2751
 2845SOL     OW 9433   4.020   1.216   4.428 -0.0179 -0.1403 -0.0265
 2845SOL    HW1 9434   3.977   1.209   4.338 -3.3046  0.1133  1.3792
 2845SOL    HW2 9435   4.049   1.310   4.443 -1.4959  0.3520 -0.0425
 2846SOL     OW 9436   0.874   1.249   0.771 -0.0715 -0.1000 -0.1162
 2846SOL    HW1 9437   0.951   1.243   0.709 -0.4098  1.5123 -0.7351
 2846SOL    HW2 9438   0.887   1.185   0.847  0.8419 -1.3575 -1.2807
 2847SOL     OW 9439   2.249   5.910   2.847  0.1741 -0.3360  1.0692
 2847SOL    HW1 9440   2.274   5.830   2.902  0.9014  0.0273  1.2685
 2847SOL    HW2 9441   2.320   5.980   2.854 -0.2271  0.1410  0.5088
 2848SOL     OW 9442   4.984   0.813   5.971  0.8216  0.1444  0.3117
 2848SOL    HW1 9443   4.978   0.743   6.042  2.0748  0.0018  0.2875
 2848SOL    HW2 9444   5.079   0.838   5.956  0.5979  0.0890 -1.4101
 2849SOL     OW 9445   5.614   0.492   1.891  0.1151 -0.1543 -0.4877
 2849SOL    HW1 9446   5.663   0.404   1.888  0.2195 -0.0797 -1.5293
 2849SOL    HW2 9447   5.589   0.513   1.985  0.6505 -0.9946 -0.1416
 2850SOL     OW 9448   4.523   0.133   1.750 -0.5632  0.6952  0.0535
 2850SOL    HW1 9449   4.581   0.141   1.669 -0.9810  1.2089 -0.2037
 2850SOL    HW2 9450   4.579   0.131   1.832 -0.0622 -0.8158 -0.2803
 2851SOL     OW 9451   1.754   4.966   4.657  0.0838 -0.2728 -0.0308
 2851SOL    HW1 9452   1.788   5.011   4.575  0.2489  1.2768  0.8459
 2851SOL    HW2 9453   1.680   4.903   4.633  1.6774 -1.6327 -1.6319
 2852SOL     OW 9454   5.477   4.204   5.729  0.5827 -0.6770 -0.0277
 2852SOL    HW1 9455   5.380   4.194   5.705  0.9895  0.9286 -2.8211
 2852SOL    HW2 9456   5.501   4.301   5.729  1.9492 -0.9677  1.9250
 2853SOL     OW 9457   0.421   0.216   3.338 -0.0221 -0.0697  0.0731
 2853SOL    HW1 9458   0.402   0.136   3.282  0.2284 -0.6050  0.7473
 2853SOL    HW2 9459   0.346   0.282   3.328  0.7682  0.5723 -2.1445
 2854SOL     OW 9460   5.383   5.095   2.039 -0.0302  0.3501  0.2034
 2854SOL    HW1 9461   5.304   5.107   1.979 -0.1450 -1.7636 -0.1577
 2854SOL    HW2 9462   5.382   5.166   2.109 -1.4221  1.2471 -0.6616
 2855SOL     OW 9463   6.099   6.592   0.671 -0.0726 -0.1625  0.1838
 2855SOL    HW1 9464   6.178   6.565   0.725  0.2105 -1.2758 -0.7642
 2855SOL    HW2 9465   6.105   6.689   0.649  1.4797 -0.4299 -0.6311
 2856SOL     OW 9466   4.034   2.201   3.346  0.5153  0.6633 -0.0098
 2856SOL    HW1 9467   4.105   2.184   3.415  0.3326 -1.0245 -0.2014
 2856SOL    HW2 9468   4.064   2.275   3.285  1.9452  0.2313  0.1332
 2857SOL     OW 9469   6.548   6.566   1.754 -0.4947  0.1171  0.6046
 2857SOL    HW1 9470   6.451   6.544   1.765 -0.9010  0.3219 -2.0410
 2857SOL    HW2 9471   6.563   6.662   1.779 -0.8971  0.0112  1.2866
 2858SOL     OW 9472   5.345   1.772   3.211 -0.0020 -0.4717  0.2168
 2858SOL    HW1 9473   5.279   1.725   3.271  1.9110 -1.4143  1.6844
 2858SOL    HW2 9474   5.367   1.861   3.249  1.3393 -1.1376  1.0525
 2859SOL     OW 9475   0.623   2.541   0.073  0.0493  0.7045  0.1043
 2859SOL    HW1 9476   0.703   2.486   0.094 -0.7355  0.1014  1.6796
 2859SOL    HW2 9477   0.569   2.497   0.002  0.7556  0.7788 -0.4858
 2860SOL     OW 9478   3.225   6.709   1.139 -0.4708  0.0502 -0.1973
 2860SOL    HW1 9479   3.262   6.760   1.061  0.7719 -1.2633 -0.5002
 2860SOL    HW2 9480   3.239   6.611   1.125  2.4848 -0.1540  2.9290
 2861SOL     OW 9481   1.331   4.934   4.528 -0.2892  0.0830 -0.1620
 2861SOL    HW1 9482   1.356   4.937   4.625 -1.9088 -0.2532  0.2847
 2861SOL    HW2 9483   1.312   4.840   4.501 -0.1397  0.2148 -0.7427
 2862SOL     OW 9484   6.211   1.966   1.863  0.0238 -0.5588 -0.0333
 2862SOL    HW1 9485   6.247   2.059   1.868  1.7126 -1.0158 -2.3329
 2862SOL    HW2 9486   6.282   1.901   1.888 -0.3455 -1.3202 -0.9056
 2863SOL     OW 9487   6.416   4.660   6.188 -0.3465 -0.0112  0.1205
 2863SOL    HW1 9488   6.365   4.706   6.260 -0.2733 -0.1039  0.2301
 2863SOL    HW2 9489   6.376   4.683   6.099 -0.7148 -0.2580  0.2226
 2864SOL     OW 9490   4.891   2.404   0.248  0.2594  0.2722 -0.1746
 2864SOL    HW1 9491   4.885   2.473   0.176 -0.4669  0.6553  0.2300
 2864SOL    HW2 9492   4.803   2.358   0.257 -0.0498  1.0592  1.2417
 2865SOL     OW 9493   4.668   1.443   0.995 -0.0891 -0.1619  0.3808
 2865SOL    HW1 9494   4.762   1.459   1.028 -0.1400 -0.7842  0.8478
 2865SOL    HW2 9495   4.636   1.355   1.029 -0.5091 -0.3804 -0.5622
 2866SOL     OW 9496   2.807   1.229   3.461 -0.4832 -0.2608  0.2458
 2866SOL    HW1 9497   2.850   1.244   3.372 -0.0109 -0.5659  0.4201
 2866SOL    HW2 9498   2.818   1.133   3.488 -0.7518 -0.2040  0.5668
 2867SOL     OW 9499   2.093   3.266   2.099 -0.8003 -0.2461  0.1338
 2867SOL    HW1 9500   2.144   3.351   2.086 -1.4522  0.1066 -0.1604
 2867SOL    HW2 9501   2.039   3.247   2.018  0.7504 -1.9399 -0.5740
 2868SOL     OW 9502   1.572   6.484   6.568  0.8177  0.3852  0.1930
 2868SOL    HW1 9503   1.564   6.538   6.484 -1.4443  1.3671  0.9507
 2868SOL    HW2 9504   1.594   6.544   6.644  0.7016 -0.1431  0.6507
 2869SOL     OW 9505   3.688   3.378   2.741 -0.3030  0.1770 -0.0861
 2869SOL    HW1 9506   3.589   3.371   2.752 -0.4328 -0.0066 -1.2489
 2869SOL    HW2 9507   3.713   3.472   2.720 -0.1593  0.3396  0.7820
 2870SOL     OW 9508   0.130   3.513   3.040  0.7335 -0.3293 -0.7822
 2870SOL    HW1 9509   0.204   3.461   3.084 -1.5281 -2.9462  0.2459
 2870SOL    HW2 9510   0.076   3.451   2.984 -2.4267  0.7388  0.8723
 2871SOL     OW 9511   0.211   6.062   4.855  0.0001  0.9549  0.4886
 2871SOL    HW1 9512   0.154   5.987   4.889 -0.1379 -0.6517 -2.8976
 2871SOL    HW2 9513   0.153   6.141   4.834  0.1267  2.1039  3.9134
 2872SOL     OW 9514   2.954   5.765   0.348  0.4253 -0.2724  1.0651
 2872SOL    HW1 9515   2.968   5.850   0.297  0.4724 -1.4116 -0.9216
 2872SOL    HW2 9516   2.858   5.737   0.340  0.6045 -0.8670  0.9451
 2873SOL     OW 9517   6.635   4.619   5.571 -0.1331  0.1900 -0.3889
 2873SOL    HW1 9518   6.553   4.624   5.628  1.0391  2.2274  1.2548
 2873SOL    HW2 9519   6.607   4.605   5.475 -2.2955 -0.5495  0.2816
 2874SOL     OW 9520   6.914   4.624   0.085  0.0706 -0.9101  0.4155
 2874SOL    HW1 9521   6.842   4.565   0.048  0.3046 -1.0403  0.1636
 2874SOL    HW2 9522   6.970   4.659   0.010  0.6251 -1.2757  0.6506
 2875SOL     OW 9523   6.767   2.649   4.143  0.0193 -0.8722 -0.5634
 2875SOL    HW1 9524   6.832   2.668   4.069  1.0762 -0.3307  0.4757
 2875SOL    HW2 9525   6.806   2.677   4.230 -1.9823  0.3520  0.0146
 2876SOL     OW 9526   2.126   6.982   1.408  0.6190 -0.2215 -0.4778
 2876SOL    HW1 9527   2.101   6.925   1.486  0.5512 -0.7321 -0.8663
 2876SOL    HW2 9528   2.046   7.035   1.379 -0.0987 -1.8966 -1.7549
 2877SOL     OW 9529   3.833   0.482   1.600 -0.3164  0.2322 -0.2857
 2877SOL    HW1 9530   3.783   0.418   1.542  0.9222 -1.7289  0.6956
 2877SOL    HW2 9531   3.928   0.490   1.567 -0.1141  0.5633  0.3636
 2878SOL     OW 9532   2.148   1.531   2.875  0.0144 -0.1451  0.5579
 2878SOL    HW1 9533   2.207   1.450   2.886  1.4562  0.6637 -0.7932
 2878SOL    HW2 9534   2.202   1.614   2.890 -1.2539  0.6117  1.1185
 2879SOL     OW 9535   1.289   4.830   5.437  0.5585 -0.5630 -0.1278
 2879SOL    HW1 9536   1.274   4.732   5.427  1.6227 -0.9028  1.3556
 2879SOL    HW2 9537   1.207   4.879   5.406  0.3567 -1.8341 -1.7835
 2880SOL     OW 9538   0.577   2.652   1.554  0.4671  0.2720  0.6185
 2880SOL    HW1 9539   0.641   2.583   1.590  2.0283  1.5211  0.3650
 2880SOL    HW2 9540   0.621   2.741   1.555 -1.6920  1.3968  1.4358
 2881SOL     OW 9541   5.073   3.551   6.873  0.5721 -0.1604  0.2869
 2881SOL    HW1 9542   4.994   3.505   6.913  0.8669 -0.4378  0.5530
 2881SOL    HW2 9543   5.156   3.498   6.891  0.9691  0.6274  0.8874
 2882SOL     OW 9544   2.322   1.746   5.032 -0.4744 -0.1213  1.0125
 2882SOL    HW1 9545   2.225   1.741   5.007 -0.2079 -1.4641  0.1382
 2882SOL    HW2 9546   2.377   1.705   4.959  0.9151  2.0710  0.7272
 2883SOL     OW 9547   2.513   5.478   1.664 -0.1036 -0.1241 -0.2962
 2883SOL    HW1 9548   2.494   5.492   1.567 -0.7437 -0.4106 -0.2168
 2883SOL    HW2 9549   2.483   5.558   1.716  1.0621  0.4195 -0.4226
 2884SOL     OW 9550   5.129   1.415   2.455  0.3235  0.3111  0.1106
 2884SOL    HW1 9551   5.202   1.483   2.450 -0.3127  1.0247  0.3578
 2884SOL    HW2 9552   5.150   1.339   2.394  0.6311  1.1272 -0.8231
 2885SOL     OW 9553   3.619   4.599   6.176 -0.0520  0.2977  0.1512
 2885SOL    HW1 9554   3.538   4.617   6.232  0.3346  0.0648  0.7898
 2885SOL    HW2 9555   3.593   4.539   6.100 -0.8089  1.4777 -0.5656
 2886SOL     OW 9556   1.858   6.579   2.229 -0.1829 -0.1746  0.5537
 2886SOL    HW1 9557   1.785   6.533   2.179 -0.7196 -0.6648  1.7299
 2886SOL    HW2 9558   1.906   6.642   2.169 -1.0141 -0.4879 -0.4657
 2887SOL     OW 9559   6.495   3.606   4.146  0.5504  0.1476  0.2534
 2887SOL    HW1 9560   6.533   3.687   4.101 -2.8849  1.6762 -0.1573
 2887SOL    HW2 9561   6.473   3.627   4.241 -0.0336 -0.4092  0.2485
 2888SOL     OW 9562   0.624   4.800   4.680 -0.4157 -0.1838 -0.1696
 2888SOL    HW1 9563   0.536   4.758   4.701 -0.2233  0.2204  1.5830
 2888SOL    HW2 9564   0.645   4.787   4.583 -0.8684 -3.1670  0.0450
 2889SOL     OW 9565   2.081   4.080   0.766  0.5286  0.1837  0.2178
 2889SOL    HW1 9566   2.061   4.128   0.851  0.7622  1.1354 -0.2604
 2889SOL    HW2 9567   2.006   4.093   0.701  0.4405 -0.3754  0.2033
 2890SOL     OW 9568   5.609   6.734   2.852 -0.4802 -0.5025  0.6189
 2890SOL    HW1 9569   5.604   6.706   2.756 -1.3415 -2.3811  1.1684
 2890SOL    HW2 9570   5.688   6.691   2.895  0.5546  1.2035  0.5462
 2891SOL     OW 9571   2.568   0.684   3.426  0.0315  0.5967  0.0605
 2891SOL    HW1 9572   2.592   0.764   3.371 -1.1586  0.7538 -0.2693
 2891SOL    HW2 9573   2.639   0.668   3.494 -0.8544  3.5466  1.8857
 2892SOL     OW 9574   5.070   2.228   2.878  0.2552 -0.1448 -0.0952
 2892SOL    HW1 9575   5.158   2.271   2.899  1.0370 -1.6046 -0.2313
 2892SOL    HW2 9576   5.051   2.156   2.944 -0.5382 -0.2731 -0.4455
 2893SOL     OW 9577   5.589   6.575   6.061  0.1198 -0.1696 -0.1150
 2893SOL    HW1 9578   5.531   6.513   6.115  1.9771 -0.4301  1.6993
 2893SOL    HW2 9579   5.571   6.669   6.089  2.1635 -0.3854  2.2408
 2894SOL     OW 9580   1.592   0.885   0.435 -0.0363 -0.1151  0.0904
 2894SOL    HW1 9581   1.515   0.948   0.435 -0.4276 -0.5736 -0.9470
 2894SOL    HW2 9582   1.665   0.921   0.377  0.4864  0.2534  0.9629
 2895SOL     OW 9583   0.071   4.901   2.935 -0.7648 -0.5814 -0.8270
 2895SOL    HW1 9584   0.036   4.938   3.021 -0.5540  1.4435 -1.5735
 2895SOL    HW2 9585  -0.005   4.873   2.877 -0.9729 -0.4342 -0.6277
 2896SOL     OW 9586   1.100   7.012   4.078  0.3302  0.3025  0.1542
 2896SOL    HW1 9587   1.027   7.029   4.144  1.7277  0.8302  1.6375
 2896SOL    HW2 9588   1.061   6.973   3.994 -1.5804  0.2474  1.0121
 2897SOL     OW 9589   1.994   4.606   2.021 -0.0324 -0.3694 -0.3269
 2897SOL    HW1 9590   1.915   4.655   2.059  0.9121 -0.0794  1.3968
 2897SOL    HW2 9591   1.998   4.514   2.060 -1.4024 -1.6562 -3.0229
 2898SOL     OW 9592   2.137   6.430   3.675  0.2064  0.4353  0.0475
 2898SOL    HW1 9593   2.066   6.496   3.698  2.0548  2.3119  0.7167
 2898SOL    HW2 9594   2.199   6.419   3.753  1.0260 -0.6510 -0.7274
 2899SOL     OW 9595   4.202   2.169   1.873  0.3314 -0.1469  0.0153
 2899SOL    HW1 9596   4.249   2.170   1.785  0.9126 -1.3711  0.2844
 2899SOL    HW2 9597   4.110   2.205   1.862 -0.2453 -1.9166 -1.5141
 2900SOL     OW 9598   6.788   1.591   0.822 -0.2701 -0.4778  0.2496
 2900SOL    HW1 9599   6.804   1.547   0.734 -0.9779 -1.3006  0.5261
 2900SOL    HW2 9600   6.847   1.672   0.829 -1.7530  0.9225 -1.9080
 2901SOL     OW 9601   6.420   2.699   2.103  0.0247 -0.3479  0.4478
 2901SOL    HW1 9602   6.332   2.658   2.079  0.3361 -1.8361  1.6920
 2901SOL    HW2 9603   6.448   2.667   2.193  0.3830  2.5707  1.4800
 2902SOL     OW 9604   4.943   1.816   6.811 -0.6851 -0.0554  0.0369
 2902SOL    HW1 9605   4.908   1.792   6.720 -0.1036 -1.2209  0.1014
 2902SOL    HW2 9606   4.874   1.794   6.879 -1.5076  1.7157 -0.1684
 2903SOL     OW 9607   1.817   0.869   3.721 -0.3461 -0.2158  0.2592
 2903SOL    HW1 9608   1.730   0.869   3.670 -0.2175  2.7697 -0.1766
 2903SOL    HW2 9609   1.800   0.843   3.816 -1.8051  0.5035  0.2274
 2904SOL     OW 9610   6.477   6.944   5.803  0.1321  0.3121  0.2983
 2904SOL    HW1 9611   6.533   6.908   5.728 -1.8361 -0.6180 -0.7836
 2904SOL    HW2 9612   6.503   6.899   5.888 -0.6837 -2.0915 -0.6296
 2905SOL     OW 9613   2.622   6.919   4.551  0.1799  0.0397 -0.0108
 2905SOL    HW1 9614   2.571   6.835   4.536 -0.4014  0.4813 -0.5580
 2905SOL    HW2 9615   2.567   6.997   4.520  0.6973  0.6206  0.5153
 2906SOL     OW 9616   1.907   2.939   1.993  0.4804  0.1082 -0.1456
 2906SOL    HW1 9617   1.812   2.909   1.989 -0.6674  3.1974  0.8598
 2906SOL    HW2 9618   1.957   2.883   2.059 -1.5586  0.4243  1.8126
 2907SOL     OW 9619   6.308   0.856   6.603 -0.1942  0.7328  0.0713
 2907SOL    HW1 9620   6.406   0.870   6.619 -0.1597 -0.2153  0.7204
 2907SOL    HW2 9621   6.281   0.765   6.634 -1.2677  0.9420 -0.1980
 2908SOL     OW 9622   3.855   1.140   3.276  0.0327  0.6078 -0.2809
 2908SOL    HW1 9623   3.857   1.240   3.273  0.3370  0.5863 -1.0828
 2908SOL    HW2 9624   3.928   1.104   3.217 -1.2939 -0.0945 -1.5458
 2909SOL     OW 9625   3.290   6.534   5.229 -1.0780 -0.1012 -0.2380
 2909SOL    HW1 9626   3.281   6.629   5.260 -1.6461 -0.2243 -0.0105
 2909SOL    HW2 9627   3.381   6.500   5.251 -1.4493 -0.1803  1.3169
 2910SOL     OW 9628   6.178   1.343   6.630 -0.3061  0.1673  0.6009
 2910SOL    HW1 9629   6.145   1.353   6.723 -0.2873 -0.4392  0.6751
 2910SOL    HW2 9630   6.213   1.431   6.597 -3.5873  1.3787 -0.1022
 2911SOL     OW 9631   6.969   6.236   5.047  1.0846 -0.3099  0.2456
 2911SOL    HW1 9632   6.942   6.151   5.003  1.5034 -0.3663  0.0959
 2911SOL    HW2 9633   6.910   6.310   5.016  2.0443 -0.1342 -1.2391
 2912SOL     OW 9634   0.480   2.058   6.615 -0.3304 -0.3247  0.4028
 2912SOL    HW1 9635   0.517   2.033   6.525 -0.9104 -0.5413  0.2203
 2912SOL    HW2 9636   0.504   1.988   6.681  0.1380 -0.1429  0.4327
 2913SOL     OW 9637   1.492   5.677   3.745 -0.0179  0.1996 -0.4155
 2913SOL    HW1 9638   1.451   5.586   3.740  0.2799  0.1263 -2.0326
 2913SOL    HW2 9639   1.505   5.703   3.841 -1.9173 -0.6325  0.1164
 2914SOL     OW 9640   2.958   3.688   3.613  0.0068  0.4811 -0.0200
 2914SOL    HW1 9641   2.963   3.735   3.701 -0.3669  1.1578 -0.3566
 2914SOL    HW2 9642   2.986   3.750   3.540 -3.1521  1.1507 -0.8007
 2915SOL     OW 9643   5.147   1.674   6.493 -0.6339 -0.0182 -0.0376
 2915SOL    HW1 9644   5.127   1.755   6.436  0.4287 -0.8423 -1.6699
 2915SOL    HW2 9645   5.175   1.599   6.434  0.2455 -1.0241  1.6052
 2916SOL     OW 9646   6.115   0.191   0.505  0.1171 -0.3505 -0.1287
 2916SOL    HW1 9647   6.107   0.246   0.422 -1.8261 -0.0951  0.1862
 2916SOL    HW2 9648   6.124   0.252   0.584  0.1288 -0.5520  0.0246
 2917SOL     OW 9649   1.919   1.973   1.242  0.0248  0.5564 -0.0794
 2917SOL    HW1 9650   1.838   2.003   1.192 -0.9399 -0.5941  0.7460
 2917SOL    HW2 9651   1.979   1.921   1.181 -1.2418 -1.0271 -0.0319
 2918SOL     OW 9652   0.259   5.902   1.652 -0.5048 -0.1130  0.0056
 2918SOL    HW1 9653   0.332   5.835   1.666 -1.6803 -2.0463 -2.3815
 2918SOL    HW2 9654   0.300   5.990   1.628  1.0426 -0.5141  0.9773
 2919SOL     OW 9655   6.876   0.246   0.289  0.0348  0.1418  0.1161
 2919SOL    HW1 9656   6.916   0.154   0.288  2.1244  0.9843 -0.8148
 2919SOL    HW2 9657   6.946   0.311   0.320 -1.2014  1.5126  0.0870
 2920SOL     OW 9658   1.293   5.590   2.053 -0.1710 -0.4591 -0.5129
 2920SOL    HW1 9659   1.335   5.674   2.089  2.2019 -2.0479  0.6854
 2920SOL    HW2 9660   1.194   5.601   2.051 -0.2555  1.0837  3.2326
 2921SOL     OW 9661   1.640   0.568   5.304  0.0984 -0.2196 -0.2175
 2921SOL    HW1 9662   1.575   0.504   5.345 -0.2668 -0.1833 -0.7450
 2921SOL    HW2 9663   1.698   0.606   5.376 -0.1094 -0.6533  0.1839
 2922SOL     OW 9664   1.498   5.688   3.456  0.1418  0.1731  0.5131
 2922SOL    HW1 9665   1.530   5.648   3.542  0.0192  0.9437  0.9213
 2922SOL    HW2 9666   1.556   5.766   3.432 -1.1374  1.3256  1.0427
 2923SOL     OW 9667   4.156   3.171   6.431 -0.7010  0.1219 -0.3211
 2923SOL    HW1 9668   4.205   3.189   6.346  0.3407  2.1719  0.6154
 2923SOL    HW2 9669   4.071   3.122   6.412 -1.2148  1.7753 -2.7324
 2924SOL     OW 9670   0.087   4.789   3.643  0.0019  0.3242 -0.3044
 2924SOL    HW1 9671   0.178   4.787   3.684  0.7889  0.2130 -1.9779
 2924SOL    HW2 9672   0.041   4.874   3.668  0.6804  0.5317  0.2830
 2925SOL     OW 9673   3.152   1.008   4.614 -0.1147 -0.1200  0.6525
 2925SOL    HW1 9674   3.064   1.040   4.581 -0.9667 -2.6449  0.1955
 2925SOL    HW2 9675   3.145   0.986   4.712 -0.3689 -1.3343  0.3845
 2926SOL     OW 9676   6.755   5.789   5.896 -0.0000  0.1574 -0.2329
 2926SOL    HW1 9677   6.757   5.843   5.980  1.9643  1.0093 -0.7743
 2926SOL    HW2 9678   6.810   5.706   5.908  1.1205  0.7745 -0.9593
 2927SOL     OW 9679   2.481   0.273   6.160  0.2457 -0.3082 -0.1611
 2927SOL    HW1 9680   2.515   0.301   6.071 -1.9073  1.1105 -0.6069
 2927SOL    HW2 9681   2.446   0.352   6.210 -2.3124 -1.5606  0.2297
 2928SOL     OW 9682   2.857   3.556   6.474 -1.1332 -0.0292  0.4712
 2928SOL    HW1 9683   2.919   3.524   6.402 -2.0245 -0.4055 -0.1415
 2928SOL    HW2 9684   2.906   3.619   6.535 -0.2887  0.0700 -0.2971
 2929SOL     OW 9685   3.412   0.194   3.473  0.3651  0.0030 -0.0430
 2929SOL    HW1 9686   3.478   0.269   3.470 -2.9639  3.3306  1.3733
 2929SOL    HW2 9687   3.377   0.185   3.567 -1.5159 -1.2372 -0.8188
 2930SOL     OW 9688   2.591   1.369   5.165 -0.0077  0.1374  0.4884
 2930SOL    HW1 9689   2.510   1.418   5.195  0.0342 -0.7857  2.2019
 2930SOL    HW2 9690   2.567   1.274   5.146  0.6169 -0.0825  0.7806
 2931SOL     OW 9691   4.624   3.308   0.102  0.4736 -0.7072  0.2821
 2931SOL    HW1 9692   4.544   3.313   0.041  1.0705 -1.1380 -0.5586
 2931SOL    HW2 9693   4.639   3.397   0.145  0.9664  0.0818 -1.4256
 2932SOL     OW 9694   0.555   5.911   3.132 -0.7107 -0.0644  0.3740
 2932SOL    HW1 9695   0.604   5.971   3.195 -0.8095 -0.0459  0.4329
 2932SOL    HW2 9696   0.517   5.966   3.057 -0.0358 -0.1685 -0.0572
 2933SOL     OW 9697   5.595   6.713   6.647 -0.1842 -0.7040 -0.3759
 2933SOL    HW1 9698   5.511   6.765   6.661  1.0187  0.8279  1.7377
 2933SOL    HW2 9699   5.615   6.708   6.550 -1.4257  1.0141 -0.7693
 2934SOL     OW 9700   5.334   0.115   3.893 -0.0801  0.1817 -0.0319
 2934SOL    HW1 9701   5.416   0.131   3.838 -0.4795  0.1376 -0.6525
 2934SOL    HW2 9702   5.354   0.045   3.962  0.0945 -0.6591 -0.9142
 2935SOL     OW 9703   3.519   6.125   6.341  0.0838 -1.1080 -0.1584
 2935SOL    HW1 9704   3.549   6.033   6.316  3.1987 -0.1331 -0.4621
 2935SOL    HW2 9705   3.541   6.189   6.267 -0.0608  0.1962  0.8752
 2936SOL     OW 9706   1.918   6.368   5.138 -0.1223 -0.1700  0.0963
 2936SOL    HW1 9707   1.966   6.449   5.172 -1.1659  0.9329 -0.9411
 2936SOL    HW2 9708   1.895   6.308   5.214  2.1636 -0.3596  0.7063
 2937SOL     OW 9709   5.398   3.087   0.429 -0.0377 -0.4706  0.2462
 2937SOL    HW1 9710   5.384   3.036   0.514 -0.1837  0.0130  0.5131
 2937SOL    HW2 9711   5.314   3.136   0.405  1.2718  3.1730  2.3248
 2938SOL     OW 9712   5.768   6.076   6.499  0.0556 -0.0234 -0.5631
 2938SOL    HW1 9713   5.837   6.108   6.434  0.5788  0.1184  0.0441
 2938SOL    HW2 9714   5.782   6.122   6.587 -0.0674 -0.8757 -0.0861
 2939SOL     OW 9715   2.432   6.611   6.584  0.2130 -0.1321  0.3038
 2939SOL    HW1 9716   2.344   6.651   6.610 -0.8422 -3.2844  2.1946
 2939SOL    HW2 9717   2.429   6.582   6.489 -0.7139 -0.0120  0.2843
 2940SOL     OW 9718   6.915   1.065   6.175  0.1132  0.1302 -0.0114
 2940SOL    HW1 9719   6.856   1.115   6.113 -1.3237 -0.7725  0.5680
 2940SOL    HW2 9720   6.933   0.974   6.138  0.7211  0.2177  0.0610
 2941SOL     OW 9721   4.402   2.484   1.802 -0.1411 -0.3238 -0.4284
 2941SOL    HW1 9722   4.422   2.462   1.897 -0.4228  3.0939  0.5339
 2941SOL    HW2 9723   4.304   2.472   1.786 -0.3072  0.3109  0.0900
 2942SOL     OW 9724   1.609   1.135   2.784  0.1001  0.0983  0.5349
 2942SOL    HW1 9725   1.654   1.080   2.714  0.4887  0.0053  0.8536
 2942SOL    HW2 9726   1.614   1.088   2.872 -0.7304  0.0347  0.5518
 2943SOL     OW 9727   4.422   0.134   0.160  0.3016  0.5602 -0.1034
 2943SOL    HW1 9728   4.391   0.127   0.066  0.3649 -1.7125 -0.0225
 2943SOL    HW2 9729   4.519   0.158   0.162  0.3875  0.2720 -0.6496
 2944SOL     OW 9730   4.176   5.896   4.695  0.1958  0.0454  0.3096
 2944SOL    HW1 9731   4.241   5.821   4.682  1.7609  1.2126  1.0808
 2944SOL    HW2 9732   4.130   5.886   4.783 -0.1589 -0.4092  0.0738
 2945SOL     OW 9733   3.302   5.582   5.558 -0.4146 -0.1658  0.2919
 2945SOL    HW1 9734   3.333   5.676   5.574 -0.7169 -0.1516  0.8244
 2945SOL    HW2 9735   3.285   5.537   5.646 -1.0994 -0.4401  0.0293
 2946SOL     OW 9736   3.461   2.924   2.598 -0.4944 -0.1303  0.2506
 2946SOL    HW1 9737   3.457   3.022   2.577 -2.0712 -0.0413  0.8363
 2946SOL    HW2 9738   3.435   2.910   2.693  1.7515 -0.9619  0.7997
 2947SOL     OW 9739   0.249   0.103   0.470 -0.4896 -0.0527 -0.0890
 2947SOL    HW1 9740   0.341   0.066   0.478 -0.8548 -1.1008 -0.5001
 2947SOL    HW2 9741   0.186   0.046   0.523 -1.0620  0.0197 -0.6752
 2948SOL     OW 9742   1.213   4.700   4.881  0.7725  0.1057  0.7249
 2948SOL    HW1 9743   1.284   4.629   4.886 -0.3527 -1.5537 -3.3602
 2948SOL    HW2 9744   1.145   4.683   4.953  1.5381 -1.7766  1.0801
 2949SOL     OW 9745   4.052   0.399   4.862 -0.2000 -0.2212  0.4778
 2949SOL    HW1 9746   3.983   0.392   4.790 -0.1222 -0.3864  0.4172
 2949SOL    HW2 9747   4.039   0.325   4.928 -0.9442  0.5591  1.2365
 2950SOL     OW 9748   6.434   5.593   3.781 -0.0017  0.5333 -0.0654
 2950SOL    HW1 9749   6.369   5.522   3.808  0.8612  0.0914  0.9598
 2950SOL    HW2 9750   6.459   5.647   3.862  0.6113  0.9423 -0.5176
 2951SOL     OW 9751   1.437   1.897   2.331 -0.0887  0.7649  0.2250
 2951SOL    HW1 9752   1.466   1.865   2.241 -0.4070 -1.1739  0.7862
 2951SOL    HW2 9753   1.514   1.896   2.394 -0.2608  0.4276  0.4303
 2952SOL     OW 9754   1.170   3.547   0.577 -0.2545 -0.5711 -0.1717
 2952SOL    HW1 9755   1.258   3.556   0.624  0.2001 -0.9036 -0.9552
 2952SOL    HW2 9756   1.107   3.616   0.614  0.1674 -0.6513  0.7459
 2953SOL     OW 9757   5.079   5.616   2.832  0.5516 -0.4782  0.3975
 2953SOL    HW1 9758   5.084   5.711   2.799  1.5670 -0.7656 -0.3566
 2953SOL    HW2 9759   4.990   5.599   2.873  0.0366  0.5481 -0.2619
 2954SOL     OW 9760   1.935   2.353   4.180  0.1736  0.0365  0.2896
 2954SOL    HW1 9761   1.989   2.270   4.194  1.3256  0.7836  0.4310
 2954SOL    HW2 9762   1.991   2.421   4.133 -0.9925  0.4885 -0.5003
 2955SOL     OW 9763   4.107   0.206   4.408  0.3840  0.1050 -0.2718
 2955SOL    HW1 9764   4.083   0.120   4.362  1.6204  0.7717 -2.2381
 2955SOL    HW2 9765   4.036   0.274   4.390 -0.8424 -0.5744  1.6828
 2956SOL     OW 9766   5.947   2.555   4.471  0.4187 -0.2595  0.3035
 2956SOL    HW1 9767   5.948   2.524   4.376  1.4283  0.6025  0.0169
 2956SOL    HW2 9768   5.919   2.480   4.530 -0.9264 -0.6179 -0.7328
 2957SOL     OW 9769   3.061   0.052   5.293  0.5493 -0.1029  0.0027
 2957SOL    HW1 9770   3.160   0.056   5.307  0.4058  0.1756  1.0218
 2957SOL    HW2 9771   3.037   0.095   5.206  1.2499  0.5103  0.1127
 2958SOL     OW 9772   4.617   4.359   4.516 -0.0181 -0.4628  0.4268
 2958SOL    HW1 9773   4.629   4.273   4.467  2.9524 -0.7208  1.4003
 2958SOL    HW2 9774   4.633   4.343   4.614  1.7084  1.3260  0.4968
 2959SOL     OW 9775   1.922   4.157   3.399 -0.1049  0.3840 -0.4014
 2959SOL    HW1 9776   1.955   4.186   3.489  0.3813  1.0639 -0.7890
 2959SOL    HW2 9777   1.912   4.237   3.340 -0.3303 -0.0691 -0.9811
 2960SOL     OW 9778   4.739   4.678   4.758 -0.8050 -0.1709 -0.4909
 2960SOL    HW1 9779   4.802   4.631   4.696  0.8329  0.8102  0.3605
 2960SOL    HW2 9780   4.646   4.647   4.741 -0.0891 -1.7775 -1.7061
 2961SOL     OW 9781   2.688   2.234   5.722  0.0132 -0.0374  0.3394
 2961SOL    HW1 9782   2.610   2.221   5.783  1.1532  0.5619  2.0150
 2961SOL    HW2 9783   2.666   2.303   5.653 -1.0714 -0.1847  0.5290
 2962SOL     OW 9784   5.513   2.367   3.947  0.0919  0.3158 -0.1819
 2962SOL    HW1 9785   5.505   2.466   3.936  0.1212  0.4339  0.7655
 2962SOL    HW2 9786   5.456   2.337   4.023  0.1776 -0.3835 -0.3859
 2963SOL     OW 9787   0.420   5.083   3.796  0.6750 -0.1843 -0.2696
 2963SOL    HW1 9788   0.505   5.063   3.844  0.5818  1.5757  0.7053
 2963SOL    HW2 9789   0.396   5.179   3.809 -1.3209 -0.5693 -0.7572
 2964SOL     OW 9790   3.927   2.988   5.812  0.2522 -0.1744  0.0732
 2964SOL    HW1 9791   3.885   3.064   5.861  0.5964  0.6628 -0.8974
 2964SOL    HW2 9792   4.001   3.022   5.755  0.5627 -1.2771 -0.2094
 2965SOL     OW 9793   3.859   1.650   4.525 -0.4822  0.2913 -0.1266
 2965SOL    HW1 9794   3.831   1.572   4.582 -1.0287  1.3952  1.1652
 2965SOL    HW2 9795   3.903   1.616   4.442 -0.4925 -1.3945  0.5135
 2966SOL     OW 9796   4.867   0.770   3.197  0.0494  0.2081  0.2963
 2966SOL    HW1 9797   4.904   0.791   3.287 -1.4727 -0.2222  1.0568
 2966SOL    HW2 9798   4.821   0.851   3.160  0.0465  0.1807  0.2401
 2967SOL     OW 9799   4.282   2.248   2.148  0.1719 -0.1448 -0.9521
 2967SOL    HW1 9800   4.249   2.225   2.057  1.0201  0.3514 -1.3991
 2967SOL    HW2 9801   4.236   2.191   2.216  1.5566 -2.5274 -1.9144
 2968SOL     OW 9802   4.839   2.100   5.854  0.5232  0.1758 -0.5585
 2968SOL    HW1 9803   4.742   2.111   5.831  0.3935 -1.9212 -1.2093
 2968SOL    HW2 9804   4.849   2.101   5.954 -0.0874  0.8864 -0.4933
 2969SOL     OW 9805   1.564   0.696   3.436  0.7503 -0.0532 -0.0108
 2969SOL    HW1 9806   1.509   0.633   3.490  0.8423  0.8982  1.2286
 2969SOL    HW2 9807   1.643   0.647   3.399  1.0976 -0.5844  1.3494
 2970SOL     OW 9808   0.132   1.164   2.540 -0.0632 -0.4369  0.7083
 2970SOL    HW1 9809   0.033   1.153   2.539 -0.0107 -1.6327  2.5289
 2970SOL    HW2 9810   0.173   1.106   2.470 -0.6743  0.9785 -0.8736
 2971SOL     OW 9811   1.975   1.523   2.119  0.0265  0.0929 -0.0873
 2971SOL    HW1 9812   2.066   1.520   2.159  0.1848  0.6132 -0.4032
 2971SOL    HW2 9813   1.969   1.454   2.046 -1.1225 -2.8436  2.5403
 2972SOL     OW 9814   1.391   0.597   4.298 -0.4568 -0.2779  0.5256
 2972SOL    HW1 9815   1.361   0.520   4.242 -0.2101  0.7704 -1.1086
 2972SOL    HW2 9816   1.396   0.679   4.242 -1.9466  1.2504  2.4909
 2973SOL     OW 9817   6.419   5.546   6.234 -0.2048  0.4276 -0.4877
 2973SOL    HW1 9818   6.430   5.529   6.136  0.1668  0.1760 -0.4054
 2973SOL    HW2 9819   6.392   5.461   6.279  0.8275  0.2463 -0.1961
 2974SOL     OW 9820   6.197   6.519   0.252 -0.6281 -0.0823 -0.2952
 2974SOL    HW1 9821   6.259   6.594   0.275  1.9121 -2.1594  0.1508
 2974SOL    HW2 9822   6.175   6.523   0.155  0.3708  0.6395 -0.5147
 2975SOL     OW 9823   4.967   4.183   5.307 -0.3918  0.8633 -0.2867
 2975SOL    HW1 9824   4.890   4.151   5.362 -0.1677  0.4287 -0.2237
 2975SOL    HW2 9825   5.019   4.105   5.274  0.7444  1.1858  0.6937
 2976SOL     OW 9826   4.354   0.619   6.776 -0.6965 -0.3863 -0.3116
 2976SOL    HW1 9827   4.399   0.693   6.725 -1.7558  0.1293 -0.5305
 2976SOL    HW2 9828   4.408   0.597   6.858  0.7474 -0.8676 -1.3666
 2977SOL     OW 9829   5.814   3.918   3.471  0.0140 -0.1844 -0.0182
 2977SOL    HW1 9830   5.721   3.881   3.478 -0.0154  0.0694  0.9391
 2977SOL    HW2 9831   5.811   4.008   3.427 -0.1136 -0.4542 -0.5805
 2978SOL     OW 9832   3.438   5.748   5.811 -0.2918  0.1098 -0.6373
 2978SOL    HW1 9833   3.346   5.717   5.837 -0.0098 -0.7281 -0.6051
 2978SOL    HW2 9834   3.475   5.805   5.884 -0.1746 -0.8451  0.0759
 2979SOL     OW 9835   5.930   6.562   3.476 -0.3874 -0.3266 -0.0436
 2979SOL    HW1 9836   5.985   6.521   3.403 -1.1242 -2.3884  0.4869
 2979SOL    HW2 9837   5.839   6.585   3.441  0.5734  2.7226 -0.8201
 2980SOL     OW 9838   6.302   1.064   6.905  0.0291 -0.2877 -0.1900
 2980SOL    HW1 9839   6.340   1.013   6.982  1.9931  2.4833  0.8337
 2980SOL    HW2 9840   6.204   1.077   6.919 -0.0284 -1.6155  0.7675
 2981SOL     OW 9841   2.491   1.915   3.667  0.3116 -0.0318 -0.2056
 2981SOL    HW1 9842   2.507   2.012   3.647  0.0930  0.1851  0.5996
 2981SOL    HW2 9843   2.404   1.887   3.627  0.0072  0.3215  0.1939
 2982SOL     OW 9844   5.259   5.868   0.518 -0.0247  0.1102 -0.0570
 2982SOL    HW1 9845   5.218   5.793   0.570 -2.1984  1.8307  0.8715
 2982SOL    HW2 9846   5.248   5.953   0.568  0.6051  1.3616 -1.9481
 2983SOL     OW 9847   1.786   5.373   5.854  0.0467  0.3043  0.3038
 2983SOL    HW1 9848   1.841   5.455   5.869 -0.7383  1.1326 -1.1735
 2983SOL    HW2 9849   1.699   5.382   5.903  0.4862 -0.2607  1.2292
 2984SOL     OW 9850   0.261   5.411   6.916 -0.1973 -0.1202  1.1525
 2984SOL    HW1 9851   0.259   5.498   6.965 -1.3005  0.5850 -0.0584
 2984SOL    HW2 9852   0.344   5.405   6.862 -2.0292  2.3590 -2.3379
 2985SOL     OW 9853   4.288   4.252   0.829 -0.1971 -0.5263 -0.4863
 2985SOL    HW1 9854   4.271   4.319   0.756  2.1517 -1.0122 -1.5777
 2985SOL    HW2 9855   4.214   4.256   0.895 -1.4991  1.2364 -1.9353
 2986SOL     OW 9856   3.547   3.760   3.494  0.5786 -0.4679 -0.2741
 2986SOL    HW1 9857   3.625   3.717   3.448  0.1979 -3.3699  1.5004
 2986SOL    HW2 9858   3.463   3.713   3.468  0.2475 -1.5520  2.4281
 2987SOL     OW 9859   5.517   3.980   1.117  0.6116 -0.6955 -0.0448
 2987SOL    HW1 9860   5.417   3.981   1.129  0.4506 -0.4218 -1.3008
 2987SOL    HW2 9861   5.560   3.985   1.207 -0.5068 -0.5375  0.5124
 2988SOL     OW 9862   0.049   3.199   4.246 -0.4545  0.7259 -0.0356
 2988SOL    HW1 9863   0.014   3.288   4.215  0.1291  1.4952  1.4202
 2988SOL    HW2 9864  -0.022   3.130   4.233 -1.4326  1.6747  0.0555
 2989SOL     OW 9865   1.768   3.787   3.636  0.2444  0.1317 -0.0993
 2989SOL    HW1 9866   1.821   3.830   3.563  1.0133  0.4927  0.6563
 2989SOL    HW2 9867   1.763   3.688   3.620 -1.3759  0.4302 -1.7421
 2990SOL     OW 9868   3.368   1.026   3.176 -0.1662  0.4783 -0.1595
 2990SOL    HW1 9869   3.439   1.088   3.142  1.3253 -1.1124 -0.0462
 2990SOL    HW2 9870   3.410   0.942   3.209 -1.8851  0.4566  2.2400
 2991SOL     OW 9871   5.845   6.654   2.990  0.3424 -0.4752 -0.5437
 2991SOL    HW1 9872   5.837   6.554   2.987  0.1054 -0.4407 -1.2883
 2991SOL    HW2 9873   5.940   6.680   2.976  0.5719 -0.6209  0.6230
 2992SOL     OW 9874   5.544   3.775   4.893  0.6435 -0.2344  0.2405
 2992SOL    HW1 9875   5.448   3.750   4.902  0.5284  0.4525  0.9882
 2992SOL    HW2 9876   5.568   3.845   4.961  2.1450 -1.7242  1.3225
 2993SOL     OW 9877   0.885   3.674   0.304  0.0389  1.1695 -0.1368
 2993SOL    HW1 9878   0.815   3.603   0.296 -1.2523  2.4508 -0.8032
 2993SOL    HW2 9879   0.974   3.637   0.278 -0.3677 -0.5006  0.7033
 2994SOL     OW 9880   1.328   4.667   5.189 -0.4896  0.3016 -0.2220
 2994SOL    HW1 9881   1.405   4.700   5.135 -0.3885  0.6424  0.1298
 2994SOL    HW2 9882   1.257   4.738   5.193  0.5568  1.3159  2.2088
 2995SOL     OW 9883   5.756   2.678   1.863  0.2924 -0.2636 -0.6500
 2995SOL    HW1 9884   5.708   2.610   1.919  0.5187 -1.5008 -1.9094
 2995SOL    HW2 9885   5.689   2.731   1.811  0.1329  0.2970  0.1027
 2996SOL     OW 9886   1.193   4.343   3.763  0.0084 -0.1515  0.0747
 2996SOL    HW1 9887   1.279   4.322   3.716  1.1636 -2.6510  2.9821
 2996SOL    HW2 9888   1.168   4.438   3.745  2.6797  0.3050 -1.8720
 2997SOL     OW 9889   5.715   3.433   4.441  0.0316  0.6071  0.0343
 2997SOL    HW1 9890   5.695   3.531   4.443 -2.3480  0.1895  0.1707
 2997SOL    HW2 9891   5.669   3.388   4.517  2.4172 -0.4542  0.9227
 2998SOL     OW 9892   5.518   3.281   1.321  0.2407 -0.0887  0.5795
 2998SOL    HW1 9893   5.596   3.236   1.276  0.5067  0.5740  0.3692
 2998SOL    HW2 9894   5.550   3.363   1.368 -0.2201 -0.1989  1.0962
 2999SOL     OW 9895   1.844   5.359   3.226  0.5783  0.3742  0.2116
 2999SOL    HW1 9896   1.917   5.428   3.232  0.1177  0.8425  0.5398
 2999SOL    HW2 9897   1.850   5.313   3.137  1.3046  0.3663  0.2539
 3000SOL     OW 9898   5.639   6.155   0.304  0.0037  0.6805  0.1518
 3000SOL    HW1 9899   5.655   6.091   0.379  0.0519  0.0571 -0.3832
 3000SOL    HW2 9900   5.723   6.167   0.251 -0.6374 -0.8209 -1.2860
 3001SOL     OW 9901   3.109   1.127   6.574  0.4701 -0.5749  0.0318
 3001SOL    HW1 9902   3.071   1.034   6.568 -0.3858 -0.1882 -0.8073
 3001SOL    HW2 9903   3.206   1.125   6.548  0.3634 -1.1823 -0.3385
 3002SOL     OW 9904   5.429   5.340   6.564 -0.3869  0.4507 -0.0819
 3002SOL    HW1 9905   5.452   5.437   6.559 -2.4827  0.9927 -0.4095
 3002SOL    HW2 9906   5.335   5.330   6.597 -0.4760 -1.4399 -0.7787
 3003SOL     OW 9907   1.442   5.952   3.676 -0.0485  0.0844 -0.2402
 3003SOL    HW1 9908   1.523   5.999   3.642  0.0445 -1.1231 -1.7579
 3003SOL    HW2 9909   1.462   5.855   3.691 -0.7664  0.0979  0.9887
 3004SOL     OW 9910   5.308   2.633   0.615  0.3000 -0.2274  0.9833
 3004SOL    HW1 9911   5.256   2.659   0.534  0.6071 -0.3681  0.7404
 3004SOL    HW2 9912   5.363   2.551   0.596 -1.6789 -1.9212  2.1314
 3005SOL     OW 9913   4.417   4.657   6.594 -0.2185 -0.8081 -0.7524
 3005SOL    HW1 9914   4.472   4.590   6.545 -0.3577 -0.9001 -0.7840
 3005SOL    HW2 9915   4.473   4.737   6.615 -0.4869 -0.1935 -2.2299
 3006SOL     OW 9916   2.064   1.559   0.840  0.2766  0.5426  0.1692
 3006SOL    HW1 9917   2.029   1.467   0.824 -0.9740  1.2032 -1.1392
 3006SOL    HW2 9918   2.009   1.604   0.909  0.3624  0.5876  0.2073
 3007SOL     OW 9919   2.551   6.757   5.861  0.0311 -0.3328 -0.2203
 3007SOL    HW1 9920   2.514   6.831   5.918  1.0090 -0.6779  0.8789
 3007SOL    HW2 9921   2.510   6.670   5.888  0.7191 -0.5403  0.1502
 3008SOL     OW 9922   0.637   4.579   6.166  0.3435 -0.1910 -0.6221
 3008SOL    HW1 9923   0.540   4.600   6.151  0.2770 -0.8899 -1.2735
 3008SOL    HW2 9924   0.664   4.505   6.104  0.9437 -0.9226  0.4827
 3009SOL     OW 9925   6.419   6.664   3.253  0.2027  0.2585  0.4862
 3009SOL    HW1 9926   6.349   6.617   3.307  1.1526  0.6292  2.0802
 3009SOL    HW2 9927   6.418   6.628   3.159 -0.5790 -1.3550  1.0738
 3010SOL     OW 9928   2.748   2.036   5.057 -0.3026  0.1020  0.2956
 3010SOL    HW1 9929   2.797   2.122   5.043 -0.7196  0.0685 -1.7380
 3010SOL    HW2 9930   2.659   2.054   5.098  0.1316  0.4886  1.0850
 3011SOL     OW 9931   1.949   0.665   2.772 -0.5234 -0.6023  0.4543
 3011SOL    HW1 9932   1.942   0.596   2.700  2.1857 -0.4549 -0.0588
 3011SOL    HW2 9933   2.004   0.629   2.847  1.9896  1.2793 -0.3447
 3012SOL     OW 9934   3.448   1.849   4.734  0.3221  0.1043  0.2181
 3012SOL    HW1 9935   3.424   1.805   4.820  0.6678  0.6195  0.5795
 3012SOL    HW2 9936   3.439   1.948   4.742 -1.8777  0.0742 -1.0344
 3013SOL     OW 9937   2.103   0.961   0.062  0.3662  0.4141  0.2496
 3013SOL    HW1 9938   2.091   0.972   0.160  0.6488 -1.3979  0.5162
 3013SOL    HW2 9939   2.201   0.967   0.039  0.4029 -0.2136  0.2327
 3014SOL     OW 9940   6.982   0.769   2.439  0.0330  0.7041 -0.4236
 3014SOL    HW1 9941   6.962   0.846   2.378  0.1153 -0.3909 -1.8894
 3014SOL    HW2 9942   6.918   0.694   2.419  1.7105 -0.6339 -1.0185
 3015SOL     OW 9943   0.902   0.773   2.441  0.0136  0.2117 -0.0773
 3015SOL    HW1 9944   0.911   0.692   2.499  2.1008 -0.8351 -1.7431
 3015SOL    HW2 9945   0.985   0.829   2.450 -0.8968  1.5596  0.1272
 3016SOL     OW 9946   6.099   0.169   6.532 -0.1701  0.2224 -0.1035
 3016SOL    HW1 9947   6.106   0.205   6.625 -0.5607  1.4650 -0.5312
 3016SOL    HW2 9948   6.186   0.182   6.485  0.2695 -1.1039  0.3122
 3017SOL     OW 9949   4.468   4.458   6.977  0.4800 -0.3159 -0.6019
 3017SOL    HW1 9950   4.386   4.473   6.921 -0.2006 -1.3749  0.0832
 3017SOL    HW2 9951   4.531   4.397   6.928  0.0237 -0.9909 -0.3582
 3018SOL     OW 9952   0.629   4.560   3.259 -0.3596 -0.1024 -0.6686
 3018SOL    HW1 9953   0.613   4.491   3.189 -0.9925 -1.3811  0.6765
 3018SOL    HW2 9954   0.606   4.523   3.349  1.9683  0.9273  0.4390
 3019SOL     OW 9955   1.667   3.326   1.061  0.4011 -0.2872  0.0537
 3019SOL    HW1 9956   1.757   3.284   1.070  0.9643  0.9137  0.2110
 3019SOL    HW2 9957   1.677   3.422   1.035 -0.7412  0.4136  1.9342
 3020SOL     OW 9958   3.863   1.194   6.047  0.1207  0.8479  0.0475
 3020SOL    HW1 9959   3.824   1.281   6.017  0.4762  1.7463  2.0313
 3020SOL    HW2 9960   3.940   1.212   6.109  0.0080 -0.8828  0.7376
 3021SOL     OW 9961   6.607   5.300   5.800 -0.7246  0.0442 -0.4646
 3021SOL    HW1 9962   6.653   5.330   5.717  1.2906 -1.4675  0.0404
 3021SOL    HW2 9963   6.557   5.216   5.782 -3.1221  1.4598 -0.9053
 3022SOL     OW 9964   3.171   2.694   6.183 -0.6530 -0.4077  0.1309
 3022SOL    HW1 9965   3.214   2.626   6.242  0.1735  1.2456  1.5380
 3022SOL    HW2 9966   3.101   2.743   6.234 -0.5642  0.4482 -0.5427
 3023SOL     OW 9967   5.142   4.039   3.308 -0.0278  0.0213 -0.1176
 3023SOL    HW1 9968   5.225   4.034   3.252  1.3347 -0.9434  1.8652
 3023SOL    HW2 9969   5.154   4.107   3.379  0.1604 -1.8459  1.7507
 3024SOL     OW 9970   0.446   0.358   5.218 -0.0644 -0.0075 -0.0722
 3024SOL    HW1 9971   0.389   0.416   5.277  0.3627  0.1784  0.1633
 3024SOL    HW2 9972   0.480   0.280   5.271 -1.0781 -0.7761 -0.5277
 3025SOL     OW 9973   4.816   2.510   5.278 -0.2014 -0.2618 -0.8578
 3025SOL    HW1 9974   4.912   2.488   5.259  0.1239  1.3222 -1.1359
 3025SOL    HW2 9975   4.762   2.498   5.195  0.2424  1.3296 -1.4151
 3026SOL     OW 9976   1.646   4.466   2.386  0.2538  0.0095  0.3026
 3026SOL    HW1 9977   1.588   4.496   2.311  0.5320 -1.2556 -0.4431
 3026SOL    HW2 9978   1.729   4.423   2.349  0.9370  0.3906  1.3392
 3027SOL     OW 9979   6.366   1.055   4.546  0.0370  0.3840  0.4414
 3027SOL    HW1 9980   6.380   1.153   4.534  0.3423  0.3067  0.1659
 3027SOL    HW2 9981   6.369   1.032   4.643 -0.1692  0.6656  0.5155
 3028SOL     OW 9982   2.316   1.814   1.107 -0.3231 -0.0099 -0.5126
 3028SOL    HW1 9983   2.374   1.741   1.070 -0.4517 -0.9330  1.0210
 3028SOL    HW2 9984   2.373   1.895   1.126  0.4124 -0.7615  0.5851
 3029SOL     OW 9985   6.230   6.795   5.940 -0.7381  0.4972 -0.6835
 3029SOL    HW1 9986   6.242   6.809   6.038  1.2041  0.8835 -0.9174
 3029SOL    HW2 9987   6.319   6.772   5.899 -1.8198 -1.4483 -2.0941
 3030SOL     OW 9988   2.083   6.674   5.945  0.4081  0.0581 -0.3649
 3030SOL    HW1 9989   2.106   6.751   5.884 -1.3240  0.0613 -1.0620
 3030SOL    HW2 9990   1.984   6.658   5.943  0.1126  0.6262  3.1687
 3031SOL     OW 9991   2.572   1.693   4.358 -0.2073  0.1731  0.0963
 3031SOL    HW1 9992   2.480   1.662   4.336 -0.7280  1.3441  0.5617
 3031SOL    HW2 9993   2.588   1.782   4.315  0.5970  0.1194  0.2737
 3032SOL     OW 9994   2.758   0.361   6.347  0.1507  0.7236 -0.3078
 3032SOL    HW1 9995   2.790   0.289   6.286  1.5698  0.8405  0.2692
 3032SOL    HW2 9996   2.728   0.440   6.293 -2.0165 -0.4540 -0.9872
 3033SOL     OW 9997   5.780   3.255   2.939  0.3169  0.1058  0.1588
 3033SOL    HW1 9998   5.692   3.215   2.965 -0.0286  1.7121  1.7406
 3033SOL    HW2 9999   5.853   3.190   2.957 -0.3860 -0.5419  0.7496
 3034SOL     OW10000   4.502   5.949   1.356  0.3378 -0.3551 -0.2197
 3034SOL    HW110001   4.456   6.033   1.329  1.6979  0.2522 -0.7470
 3034SOL    HW210002   4.519   5.893   1.275 -0.4785 -1.1102  0.1162
 3035SOL     OW10003   5.574   0.797   4.536 -1.1267  0.5650 -0.3499
 3035SOL    HW110004   5.516   0.758   4.465 -0.1375  1.2076 -1.5473
 3035SOL    HW210005   5.530   0.878   4.574 -1.1143  0.9360 -1.1104
 3036SOL     OW10006   4.012   1.002   3.107 -0.2288 -0.3031 -0.1530
 3036SOL    HW110007   4.023   0.905   3.126 -0.5516 -0.3464 -0.1864
 3036SOL    HW210008   3.974   1.015   3.015  0.1493 -0.1321 -0.2903
 3037SOL     OW10009   0.323   2.708   4.826 -0.1193 -0.0027 -0.4318
 3037SOL    HW110010   0.341   2.721   4.729  1.6258 -2.4232 -0.5458
 3037SOL    HW210011   0.263   2.629   4.839  0.6220 -0.4611  0.4388
 3038SOL     OW10012   5.645   2.847   0.590 -1.2456  0.1840 -0.1925
 3038SOL    HW110013   5.691   2.798   0.664  0.6527  2.3974  0.1978
 3038SOL    HW210014   5.658   2.798   0.504  2.9570  1.1674 -0.3094
 3039SOL     OW10015   0.202   1.965   6.465 -0.1180  0.3188 -0.2081
 3039SOL    HW110016   0.241   1.886   6.418  2.4397 -0.2892  2.6045
 3039SOL    HW210017   0.263   1.993   6.540 -1.9918  3.6353  0.2913
 3040SOL     OW10018   0.579   4.494   4.032 -0.0927 -0.4695  0.1422
 3040SOL    HW110019   0.650   4.548   4.078 -1.4716  0.2765  1.4876
 3040SOL    HW210020   0.577   4.402   4.072 -0.0803 -0.3947  0.3186
 3041SOL     OW10021   0.228   5.667   3.825 -0.3814 -0.1269 -0.6617
 3041SOL    HW110022   0.294   5.736   3.856  2.1540 -2.7356  0.2210
 3041SOL    HW210023   0.209   5.680   3.728  1.4888  0.7489 -0.9589
 3042SOL     OW10024   3.284   6.831   6.814 -0.0761  0.1002 -0.1801
 3042SOL    HW110025   3.203   6.773   6.821 -0.0686 -0.1079 -1.5267
 3042SOL    HW210026   3.315   6.834   6.719  1.0880  0.7418  0.1931
 3043SOL     OW10027   0.074   4.884   5.701 -0.6552 -0.7830  0.0779
 3043SOL    HW110028  -0.020   4.851   5.697 -0.4169 -1.9055  2.3257
 3043SOL    HW210029   0.121   4.841   5.778  1.5568  0.1555 -0.6733
 3044SOL     OW10030   0.970   0.351   0.919  0.2440 -0.3409  0.1426
 3044SOL    HW110031   1.021   0.373   1.002  1.4772 -0.8298 -0.4605
 3044SOL    HW210032   1.021   0.382   0.839 -0.0948 -1.4122 -0.5098
 3045SOL     OW10033   5.347   2.298   0.883  0.4695  0.0128 -0.3471
 3045SOL    HW110034   5.268   2.285   0.943 -0.3258  1.8358 -0.9401
 3045SOL    HW210035   5.425   2.249   0.921 -0.2616  0.2931  1.6537
 3046SOL     OW10036   6.761   4.829   5.055 -0.6015 -0.2482  0.8462
 3046SOL    HW110037   6.706   4.890   4.998 -0.5164  0.2876  1.3270
 3046SOL    HW210038   6.790   4.750   5.002 -0.9529 -0.0067  0.2944
 3047SOL     OW10039   5.043   5.046   1.139 -0.3325 -0.0550 -0.6179
 3047SOL    HW110040   5.026   4.958   1.183  0.3586  0.6859  1.2436
 3047SOL    HW210041   5.003   5.046   1.048  1.1526 -2.9158 -1.3956
 3048SOL     OW10042   4.752   4.066   5.797 -0.4251  0.5212 -0.2159
 3048SOL    HW110043   4.729   3.970   5.778  0.5521  0.2452 -0.0739
 3048SOL    HW210044   4.835   4.070   5.853 -0.3574  1.4547 -0.3645
 3049SOL     OW10045   4.803   4.183   4.410  0.1412 -0.4888  0.7868
 3049SOL    HW110046   4.773   4.117   4.342 -1.4294 -0.4786  1.4233
 3049SOL    HW210047   4.836   4.136   4.491  1.6108 -0.4928  0.2271
 3050SOL     OW10048   2.543   1.311   6.681 -0.4235  0.4548  0.0986
 3050SOL    HW110049   2.630   1.345   6.717 -0.1280 -0.1102 -0.0701
 3050SOL    HW210050   2.468   1.347   6.737 -0.0302  0.3270  0.7197
 3051SOL     OW10051   1.173   6.064   4.314  1.0634 -0.2501 -0.6588
 3051SOL    HW110052   1.082   6.030   4.289  1.8362 -4.6389  1.5865
 3051SOL    HW210053   1.171   6.098   4.408  1.3923  1.8337 -1.3387
 3052SOL     OW10054   5.617   6.301   4.056  0.0110 -0.3804 -0.2141
 3052SOL    HW110055   5.564   6.304   4.140  0.3606 -1.6568  0.0771
 3052SOL    HW210056   5.573   6.239   3.990 -0.7908  1.3434 -1.3803
 3053SOL     OW10057   3.143   1.777   0.368  0.3222 -0.3323  0.2428
 3053SOL    HW110058   3.096   1.710   0.310 -0.4947 -0.0582  0.5821
 3053SOL    HW210059   3.133   1.868   0.328 -2.8402  0.3573  2.2708
 3054SOL     OW10060   4.804   5.443   6.953  0.2112 -0.1030  0.1981
 3054SOL    HW110061   4.896   5.474   6.930 -0.3771  3.5337  1.9564
 3054SOL    HW210062   4.795   5.432   7.052 -1.0139 -1.2811 -0.0148
 3055SOL     OW10063   4.838   5.763   0.732 -0.4955 -0.1153 -0.0616
 3055SOL    HW110064   4.855   5.679   0.680  1.6167  1.2244 -1.7047
 3055SOL    HW210065   4.801   5.833   0.671  1.6620  1.3715  0.2417
 3056SOL     OW10066   1.716   0.950   1.971 -0.3652 -0.7363 -0.0454
 3056SOL    HW110067   1.698   0.852   1.982  0.9580 -0.9547  0.2598
 3056SOL    HW210068   1.678   0.999   2.049 -0.3860 -1.0905  0.1738
 3057SOL     OW10069   0.199   1.313   5.944  0.0496  0.4227  0.1681
 3057SOL    HW110070   0.257   1.328   6.024 -1.0413 -2.0224  1.5396
 3057SOL    HW210071   0.105   1.341   5.966 -0.5654 -1.6557  0.3441
 3058SOL     OW10072   6.787   4.505   2.813  0.5502  0.1589 -0.0065
 3058SOL    HW110073   6.874   4.551   2.795 -0.1801  1.2625 -0.8380
 3058SOL    HW210074   6.742   4.484   2.726 -0.0214 -0.4026  0.4123
 3059SOL     OW10075   6.494   1.830   0.424  0.5202  0.2200  0.0236
 3059SOL    HW110076   6.511   1.902   0.491 -0.3116  0.8384 -0.4056
 3059SOL    HW210077   6.472   1.745   0.471  0.4994  0.5099  0.5409
 3060SOL     OW10078   3.810   0.301   2.372 -0.2718  0.1240  0.1432
 3060SOL    HW110079   3.849   0.214   2.341  1.6039  2.0287 -3.5294
 3060SOL    HW210080   3.861   0.334   2.451  0.4197 -1.0740  0.2240
 3061SOL     OW10081   0.574   0.049   2.165  0.1330  0.0973  0.1451
 3061SOL    HW110082   0.666   0.083   2.185  0.9425 -2.3535  1.0178
 3061SOL    HW210083   0.520   0.049   2.249  0.0067 -0.2868  0.0684
 3062SOL     OW10084   0.081   5.801   3.098 -0.2440 -0.3058  0.7745
 3062SOL    HW110085   0.115   5.733   3.163  1.4026  0.0754  0.3704
 3062SOL    HW210086   0.158   5.837   3.045 -1.2244  1.1097  0.2543
 3063SOL     OW10087   3.471   6.240   5.983  0.2628  0.4843 -0.5466
 3063SOL    HW110088   3.477   6.330   6.026  0.8110  1.3091 -2.2731
 3063SOL    HW210089   3.403   6.185   6.032 -0.4777  2.0090  0.2247
 3064SOL     OW10090   1.522   5.880   4.493  0.2116 -0.8050  1.0671
 3064SOL    HW110091   1.487   5.973   4.509  1.9903  0.3754 -1.3035
 3064SOL    HW210092   1.466   5.835   4.423 -0.6441 -1.5767  2.2068
 3065SOL     OW10093   6.761   2.611   1.239  0.0115  0.4270  0.3717
 3065SOL    HW110094   6.849   2.605   1.191 -0.6436  1.7353 -1.0673
 3065SOL    HW210095   6.694   2.658   1.181 -0.8835  1.9785  2.5198
 3066SOL     OW10096   1.429   5.247   5.866  0.2965 -0.1487  0.1216
 3066SOL    HW110097   1.488   5.168   5.845 -0.1827 -0.5254  0.1763
 3066SOL    HW210098   1.348   5.244   5.809 -0.2860 -0.3437  0.9350
 3067SOL     OW10099   0.030   6.060   0.291 -0.2682 -0.0177  0.3286
 3067SOL    HW110100   0.053   6.154   0.267 -1.8281  0.2493 -0.2801
 3067SOL    HW210101  -0.040   6.026   0.228 -0.9072 -1.0150  1.5248
 3068SOL     OW10102   1.672   3.580   0.962 -0.2093 -0.1376 -0.1220
 3068SOL    HW110103   1.758   3.577   1.012 -0.5818 -0.7335  0.4947
 3068SOL    HW210104   1.663   3.669   0.916  0.8535 -0.1794 -0.4193
 3069SOL     OW10105   4.740   1.776   6.993 -0.2577 -0.2015 -0.2618
 3069SOL    HW110106   4.754   1.783   7.092 -0.3474  1.7454 -0.3573
 3069SOL    HW210107   4.702   1.685   6.971 -1.6055 -0.1591  1.6445
 3070SOL     OW10108   6.976   6.209   5.551  0.4335  0.2204 -0.1743
 3070SOL    HW110109   6.959   6.117   5.585  1.1085  0.9500  2.3384
 3070SOL    HW210110   7.025   6.204   5.464  0.6601 -1.7749  0.0317
 3071SOL     OW10111   0.041   6.879   5.313  0.6144  0.1576 -0.0108
 3071SOL    HW110112   0.072   6.925   5.230 -1.5957 -0.2898 -1.1655
 3071SOL    HW210113   0.043   6.942   5.390 -0.8233  1.7604 -1.2180
 3072SOL     OW10114   4.727   0.099   1.573  0.1818 -0.4117  0.3412
 3072SOL    HW110115   4.762   0.069   1.485 -0.3592 -0.6241  0.1924
 3072SOL    HW210116   4.798   0.150   1.622  1.4449 -2.6078  0.9714
 3073SOL     OW10117   4.849   3.560   6.293 -0.3818 -0.2331 -0.2009
 3073SOL    HW110118   4.820   3.590   6.385 -0.2296  1.3455 -0.6362
 3073SOL    HW210119   4.936   3.604   6.270  0.0598 -1.3692 -0.7335
 3074SOL     OW10120   3.555   6.961   3.462 -0.2086  0.1370 -0.2491
 3074SOL    HW110121   3.498   6.887   3.496  1.0427 -0.8525 -0.1970
 3074SOL    HW210122   3.521   7.049   3.496 -1.0243 -0.5189  0.6697
 3075SOL     OW10123   4.888   0.071   4.547  0.2648 -0.2358 -0.8192
 3075SOL    HW110124   4.836   0.101   4.466  0.2284 -0.0529 -0.7295
 3075SOL    HW210125   4.925   0.151   4.594 -2.0441 -0.0902  0.9132
 3076SOL     OW10126   4.586   0.654   0.368 -0.4137  0.6495  0.7294
 3076SOL    HW110127   4.498   0.695   0.346 -1.1789 -0.4993  1.5283
 3076SOL    HW210128   4.573   0.559   0.397  1.4043 -0.8088 -2.6602
 3077SOL     OW10129   2.869   2.272   3.941  0.6189  0.5103  0.3994
 3077SOL    HW110130   2.916   2.335   4.002  0.6722  0.1032  0.7846
 3077SOL    HW210131   2.814   2.208   3.995  1.8894 -0.8626  0.1551
 3078SOL     OW10132   1.535   1.825   5.376  0.2162  0.4999 -0.0094
 3078SOL    HW110133   1.616   1.769   5.362 -0.6278 -1.1604  1.4073
 3078SOL    HW210134   1.506   1.863   5.288  2.1582  0.6690 -0.6276
 3079SOL     OW10135   4.028   4.533   0.468 -0.1106  1.2021 -0.2942
 3079SOL    HW110136   3.940   4.492   0.491  0.9696 -1.5898 -0.7158
 3079SOL    HW210137   4.043   4.526   0.369  2.4526 -2.8685  0.1533
 3080SOL     OW10138   4.810   2.195   1.248  0.0675 -0.8715 -0.0674
 3080SOL    HW110139   4.810   2.101   1.212  1.0721 -1.6939  1.8834
 3080SOL    HW210140   4.857   2.196   1.337 -0.0695  1.4727  0.0378
 3081SOL     OW10141   3.463   3.216   4.849 -0.6061 -0.0415 -0.2209
 3081SOL    HW110142   3.393   3.286   4.859 -1.0759 -0.6008  0.4378
 3081SOL    HW210143   3.422   3.125   4.853  0.1960 -0.3905  0.6749
 3082SOL     OW10144   4.756   0.244   1.901  0.4191 -0.3143 -0.0558
 3082SOL    HW110145   4.853   0.268   1.905 -0.0975  2.0089  0.2053
 3082SOL    HW210146   4.725   0.216   1.991  1.0493 -2.1723 -0.3695
 3083SOL     OW10147   5.953   1.287   1.208 -0.1628  0.2748 -0.1896
 3083SOL    HW110148   5.861   1.268   1.173 -0.2806  2.0405 -0.9167
 3083SOL    HW210149   5.964   1.385   1.222  2.1602  0.3108 -1.7530
 3084SOL     OW10150   4.890   3.852   6.886  0.2473  0.5113 -0.0239
 3084SOL    HW110151   4.970   3.867   6.943  0.0447  0.1726  0.3529
 3084SOL    HW210152   4.827   3.789   6.932 -1.1170  2.1985  0.5740
 3085SOL     OW10153   2.559   3.754   0.912 -0.6908 -0.8995  0.2536
 3085SOL    HW110154   2.549   3.734   0.815 -0.7043  0.0659  0.0501
 3085SOL    HW210155   2.469   3.777   0.950 -0.4228  0.4646  0.0919
 3086SOL     OW10156   3.727   0.125   3.265  0.1407 -0.1818  0.2787
 3086SOL    HW110157   3.694   0.031   3.275 -1.9948  0.4971  0.0881
 3086SOL    HW210158   3.803   0.127   3.200  0.5815 -1.8347  0.7061
 3087SOL     OW10159   1.865   2.233   1.717  0.3846 -0.4268  0.2467
 3087SOL    HW110160   1.942   2.263   1.774  0.3217 -1.6171  1.0069
 3087SOL    HW210161   1.850   2.135   1.731 -1.3845 -0.1941  0.2441
 3088SOL     OW10162   3.877   4.105   4.620  0.3931  0.2973 -0.1298
 3088SOL    HW110163   3.852   4.171   4.550  0.5720 -0.4207 -0.8866
 3088SOL    HW210164   3.933   4.033   4.580 -1.6384 -1.5550  0.1157
 3089SOL     OW10165   4.857   5.344   4.723  0.0874  0.2994 -0.4704
 3089SOL    HW110166   4.765   5.305   4.722  0.3628 -0.3606 -0.8426
 3089SOL    HW210167   4.923   5.274   4.694  0.4971  1.3124 -2.0955
 3090SOL     OW10168   5.946   1.866   3.906 -0.0274 -0.4791 -0.3526
 3090SOL    HW110169   5.909   1.831   3.820 -0.9296  0.7875 -0.5105
 3090SOL    HW210170   5.890   1.834   3.982 -0.5446  0.1758 -0.4498
 3091SOL     OW10171   6.370   5.270   2.768 -0.4732 -0.3633 -0.4386
 3091SOL    HW110172   6.414   5.230   2.688  0.0434 -0.0169 -0.3337
 3091SOL    HW210173   6.282   5.310   2.741  1.4664  3.4724 -1.7758
 3092SOL     OW10174   5.175   5.911   4.434  0.2773 -0.5732 -0.3479
 3092SOL    HW110175   5.209   5.835   4.490  0.7771 -0.7891 -0.9377
 3092SOL    HW210176   5.252   5.960   4.394 -0.0372 -2.0417 -3.0074
 3093SOL     OW10177   3.815   2.273   0.927  0.2991 -0.6486 -0.6243
 3093SOL    HW110178   3.733   2.271   0.983  1.5220  1.4365  1.3917
 3093SOL    HW210179   3.844   2.367   0.913  1.8332 -1.2873 -2.1323
 3094SOL     OW10180   6.094   6.978   5.304 -0.7670  0.1262  0.4423
 3094SOL    HW110181   6.179   6.960   5.254 -1.5583  0.4947 -1.1200
 3094SOL    HW210182   6.114   7.031   5.386  0.5397 -0.0684  0.2728
 3095SOL     OW10183   2.730   5.937   6.462 -0.1083  0.3925  0.2513
 3095SOL    HW110184   2.825   5.953   6.436  0.1733 -2.9571 -1.3140
 3095SOL    HW210185   2.672   5.941   6.380 -0.6961 -1.2727  0.5477
 3096SOL     OW10186   5.971   4.528   5.995 -0.6358 -0.0937 -0.1561
 3096SOL    HW110187   6.033   4.574   5.930 -1.2760 -0.6471 -1.1797
 3096SOL    HW210188   5.878   4.528   5.958 -0.7792 -1.5644  0.1591
 3097SOL     OW10189   1.436   0.161   1.250 -0.5758 -0.5129 -0.5169
 3097SOL    HW110190   1.452   0.205   1.162  1.3271  0.1693  0.1091
 3097SOL    HW210191   1.395   0.228   1.313  0.3190 -0.2411 -0.2011
 3098SOL     OW10192   2.528   1.886   4.147 -0.1168  0.0115 -0.1710
 3098SOL    HW110193   2.482   1.832   4.076  1.1730 -2.3417  0.6663
 3098SOL    HW210194   2.460   1.936   4.201 -1.3670 -0.6769 -1.0588
 3099SOL     OW10195   5.033   3.316   3.152  0.3105  0.3107 -0.5978
 3099SOL    HW110196   5.079   3.251   3.091  0.2555 -0.2480 -0.0615
 3099SOL    HW210197   5.101   3.378   3.191  0.3359  0.7214 -1.2779
 3100SOL     OW10198   1.894   0.923   2.823  0.0224 -0.8148  0.1363
 3100SOL    HW110199   1.918   0.827   2.807  0.5201 -0.4710 -1.3605
 3100SOL    HW210200   1.868   0.965   2.736  1.6464  0.9044  0.4256
 3101SOL     OW10201   5.288   5.887   5.006  0.3633 -0.2304  0.1111
 3101SOL    HW110202   5.341   5.970   5.022  0.7791 -0.2096 -1.2541
 3101SOL    HW210203   5.193   5.904   5.031  0.2414  0.9918 -1.0452
 3102SOL     OW10204   3.189   3.675   6.834 -0.2948  0.5460  0.2264
 3102SOL    HW110205   3.276   3.685   6.787 -0.7458 -0.1793 -0.8153
 3102SOL    HW210206   3.164   3.578   6.838 -1.9233  0.8507 -1.2039
 3103SOL     OW10207   1.367   0.364   2.429 -0.0962 -0.0525  0.0059
 3103SOL    HW110208   1.449   0.306   2.429  0.2174  0.3608  1.1899
 3103SOL    HW210209   1.302   0.329   2.362  0.5908 -1.0507 -0.1685
 3104SOL     OW10210   4.189   1.110   5.881 -0.0202  0.1537  0.6480
 3104SOL    HW110211   4.278   1.125   5.839  0.3990 -1.8631  0.6862
 3104SOL    HW210212   4.120   1.094   5.810 -0.7509  3.1366  0.5391
 3105SOL     OW10213   4.615   5.912   5.399 -0.3824  0.1956 -0.0154
 3105SOL    HW110214   4.636   5.877   5.308 -1.4923 -0.6940  0.0410
 3105SOL    HW210215   4.699   5.920   5.452  0.0607 -1.1716 -0.4772
 3106SOL     OW10216   2.824   1.077   2.688  0.0109 -0.3179 -0.1033
 3106SOL    HW110217   2.796   1.069   2.592 -1.1626  0.3683  0.1645
 3106SOL    HW210218   2.763   1.024   2.746  2.0573 -2.6097  0.1088
 3107SOL     OW10219   0.782   1.815   0.155 -0.8242 -0.3962 -0.3325
 3107SOL    HW110220   0.732   1.811   0.068 -2.7064  1.1543  0.5970
 3107SOL    HW210221   0.848   1.740   0.159 -1.3401 -1.0670 -2.6806
 3108SOL     OW10222   0.120   2.623   6.126 -0.1718  0.2113  0.3843
 3108SOL    HW110223   0.193   2.656   6.066  0.7688 -0.7732  0.9364
 3108SOL    HW210224   0.032   2.661   6.097  0.3046  0.0524 -1.3610
 3109SOL     OW10225   6.563   2.194   5.381  0.0994 -0.1556 -0.0879
 3109SOL    HW110226   6.476   2.223   5.421 -1.7342 -1.3860 -2.8666
 3109SOL    HW210227   6.611   2.134   5.445 -1.5263 -0.1718  1.1796
 3110SOL     OW10228   6.081   1.618   6.341 -0.3699 -0.1997 -0.1760
 3110SOL    HW110229   6.093   1.670   6.425  0.3232  0.2455 -0.5423
 3110SOL    HW210230   5.996   1.566   6.346  0.4643 -1.4630  1.4608
 3111SOL     OW10231   6.804   2.284   2.899  0.0132 -0.2160 -0.2365
 3111SOL    HW110232   6.815   2.200   2.845  1.9716 -0.3062  0.2391
 3111SOL    HW210233   6.882   2.294   2.960 -1.4986  0.5839  1.6461
 3112SOL     OW10234   5.771   0.508   1.417 -0.5170  0.2500 -0.0303
 3112SOL    HW110235   5.782   0.409   1.411  0.0506  0.3329 -0.4564
 3112SOL    HW210236   5.696   0.538   1.359  0.8852  0.3310 -1.9095
 3113SOL     OW10237   0.785   3.602   2.699  0.2891  0.4109  0.3498
 3113SOL    HW110238   0.821   3.618   2.791  0.4122  1.0391  0.1953
 3113SOL    HW210239   0.686   3.616   2.700  0.4248  1.4352  0.1669
 3114SOL     OW10240   0.225   2.894   1.355  0.0554 -0.1178  0.0469
 3114SOL    HW110241   0.318   2.928   1.341 -0.4586  0.2118 -3.4778
 3114SOL    HW210242   0.228   2.795   1.368  0.9154 -0.0648  0.3134
 3115SOL     OW10243   5.721   4.502   3.039  0.6119  0.4947  0.1454
 3115SOL    HW110244   5.627   4.515   3.008  1.0375  0.4204 -1.2509
 3115SOL    HW210245   5.774   4.585   3.020  0.3786  1.3283  2.8085
 3116SOL     OW10246   4.007   6.430   3.893 -0.1416  0.5041 -0.1892
 3116SOL    HW110247   4.044   6.448   3.984 -0.2505 -3.0124  0.7019
 3116SOL    HW210248   4.004   6.515   3.840 -0.2407  2.7221  3.1039
 3117SOL     OW10249   3.676   5.690   4.150 -0.2757  0.1327  0.0227
 3117SOL    HW110250   3.751   5.662   4.090 -0.6767  0.5209 -0.6817
 3117SOL    HW210251   3.589   5.679   4.102 -0.6998 -0.6039  0.9416
 3118SOL     OW10252   1.120   5.756   1.217  0.0563 -0.6143 -0.2608
 3118SOL    HW110253   1.096   5.673   1.268 -0.2407  0.3181  1.1761
 3118SOL    HW210254   1.128   5.734   1.120 -1.8853 -1.9569 -0.1800
 3119SOL     OW10255   6.359   0.713   2.489  0.1331 -0.2390 -0.4122
 3119SOL    HW110256   6.273   0.712   2.438  0.1069  1.5924 -0.4752
 3119SOL    HW210257   6.436   0.706   2.426  0.0727  0.8395 -0.6216
 3120SOL     OW10258   1.219   3.054   4.093  0.0699 -0.0950  0.1690
 3120SOL    HW110259   1.182   3.071   4.002  1.7219  0.2736 -0.4542
 3120SOL    HW210260   1.143   3.049   4.159 -1.2005 -1.0420 -1.2977
 3121SOL     OW10261   1.579   1.127   5.663 -0.6832 -0.5010  0.2648
 3121SOL    HW110262   1.591   1.159   5.569 -0.3852 -1.5237 -0.0534
 3121SOL    HW210263   1.493   1.077   5.672 -0.8363 -0.1838  0.6028
 3122SOL     OW10264   3.572   6.425   4.199  0.1785  0.1116  0.2652
 3122SOL    HW110265   3.632   6.464   4.129  1.8603 -1.0535  0.9769
 3122SOL    HW210266   3.525   6.499   4.248  2.1574  1.1916  0.6390
 3123SOL     OW10267   0.418   5.086   0.004  0.1361  0.0691  0.1652
 3123SOL    HW110268   0.336   5.131   0.041 -0.5813 -1.1644  0.1083
 3123SOL    HW210269   0.476   5.056   0.079 -0.3731 -0.7007  0.2585
 3124SOL     OW10270   2.284   4.930   2.930  0.0349  0.2410 -0.3566
 3124SOL    HW110271   2.358   4.877   2.888 -0.2166  0.2854 -0.8584
 3124SOL    HW210272   2.196   4.898   2.895 -0.4666 -1.9422  2.4920
 3125SOL     OW10273   1.344   4.502   1.968 -0.0275  0.1915 -0.0471
 3125SOL    HW110274   1.407   4.486   1.892 -1.1496 -2.2664 -0.5690
 3125SOL    HW210275   1.273   4.432   1.968 -0.4648  0.4837  2.8875
 3126SOL     OW10276   4.931   5.450   1.629 -0.1836  0.0279 -0.1056
 3126SOL    HW110277   4.930   5.545   1.660 -0.8723 -0.2871  0.8982
 3126SOL    HW210278   5.025   5.417   1.624  0.0857  0.8514 -0.8028
 3127SOL     OW10279   3.930   6.455   1.243 -1.0521  0.0238  0.2125
 3127SOL    HW110280   3.872   6.376   1.223  0.5834 -0.9044 -1.1865
 3127SOL    HW210281   3.890   6.537   1.203 -1.5657 -0.5436 -0.4669
 3128SOL     OW10282   6.576   4.889   2.708  0.1050  0.2373 -0.4926
 3128SOL    HW110283   6.511   4.820   2.676  0.7805 -0.8600  0.4319
 3128SOL    HW210284   6.537   4.940   2.784  0.0718  0.0490 -0.3846
 3129SOL     OW10285   2.026   5.073   6.956  0.0056 -0.8018  0.4028
 3129SOL    HW110286   1.992   5.096   6.865 -0.1681 -0.9612  0.4267
 3129SOL    HW210287   1.950   5.042   7.014 -0.0749  0.3513  0.9468
 3130SOL     OW10288   1.543   2.736   6.913 -0.4479  0.1471  0.1231
 3130SOL    HW110289   1.462   2.747   6.856  0.1951  0.8602 -0.6756
 3130SOL    HW210290   1.567   2.824   6.954  0.3077  0.0882 -0.1763
 3131SOL     OW10291   3.049   6.205   5.404 -0.5488 -0.0112  0.0292
 3131SOL    HW110292   3.089   6.123   5.445 -1.0180  0.4062  1.3815
 3131SOL    HW210293   3.121   6.257   5.357 -0.0924 -0.7726 -0.1325
 3132SOL     OW10294   5.742   4.761   2.698 -1.0641 -0.3744  0.0615
 3132SOL    HW110295   5.666   4.825   2.695  0.1731  1.2281  1.2216
 3132SOL    HW210296   5.827   4.809   2.678 -0.0965 -1.6408  0.9511
 3133SOL     OW10297   0.009   0.218   5.329  0.6007  0.1900  0.2489
 3133SOL    HW110298  -0.007   0.153   5.403  0.2434  0.0111  0.0180
 3133SOL    HW210299   0.054   0.172   5.253  0.6554  0.2905  0.2208
 3134SOL     OW10300   5.516   3.795   6.254  0.8068  0.2755 -0.0957
 3134SOL    HW110301   5.528   3.864   6.183  0.9420  0.3644  0.0117
 3134SOL    HW210302   5.561   3.827   6.338 -2.2264  1.7817  1.1003
 3135SOL     OW10303   0.818   2.711   4.953  0.4020  0.8238 -0.3570
 3135SOL    HW110304   0.781   2.727   5.044 -1.7266  0.3507 -1.0677
 3135SOL    HW210305   0.845   2.799   4.912 -0.5456  1.2899 -0.0143
 3136SOL     OW10306   4.748   5.984   3.390 -0.2119  0.4867  0.3634
 3136SOL    HW110307   4.657   5.949   3.415  0.4333 -0.2685  1.8237
 3136SOL    HW210308   4.777   6.051   3.458  0.2759  0.8228 -0.1734
 3137SOL     OW10309   2.895   1.479   5.722  0.2949 -0.0634 -0.8605
 3137SOL    HW110310   2.957   1.488   5.645  0.9356  1.6489 -0.1827
 3137SOL    HW210311   2.923   1.401   5.778  2.0200  0.8021 -0.4410
 3138SOL     OW10312   3.295   6.005   3.687  0.9678  0.0773  0.4991
 3138SOL    HW110313   3.207   5.966   3.714  1.2435 -0.2720  0.8946
 3138SOL    HW210314   3.291   6.105   3.697  0.7729  0.0246  0.9826
 3139SOL     OW10315   5.125   1.016   6.646 -0.1721 -0.6683 -0.0717
 3139SOL    HW110316   5.221   0.988   6.647  0.5542  1.6485  0.5836
 3139SOL    HW210317   5.113   1.093   6.584 -1.3151 -0.0543  0.8576
 3140SOL     OW10318   4.603   0.306   2.858  0.6210 -0.2318  0.1388
 3140SOL    HW110319   4.646   0.371   2.795 -0.5621  0.3297 -0.1109
 3140SOL    HW210320   4.674   0.246   2.897  1.7488  1.2538  0.4616
 3141SOL     OW10321   1.364   2.128   0.993 -0.3681  0.5155 -0.6889
 3141SOL    HW110322   1.287   2.065   0.982 -2.2691  2.3764  1.0048
 3141SOL    HW210323   1.357   2.200   0.924  0.7523 -0.0598 -1.4462
 3142SOL     OW10324   0.704   0.558   2.782 -0.4083  0.1999  0.4314
 3142SOL    HW110325   0.696   0.469   2.736  0.5792  1.3125 -2.1034
 3142SOL    HW210326   0.795   0.596   2.764 -1.3551  2.4249  0.0352
 3143SOL     OW10327   6.448   6.915   4.894 -0.9441 -0.2735  0.2180
 3143SOL    HW110328   6.414   6.832   4.939 -0.4788 -0.4269  0.2950
 3143SOL    HW210329   6.431   6.908   4.796 -0.7254 -0.5517  0.1980
 3144SOL     OW10330   1.381   2.987   6.428 -0.0294  0.1482  0.3063
 3144SOL    HW110331   1.441   2.970   6.350 -0.9317  1.8081 -0.8061
 3144SOL    HW210332   1.317   2.911   6.438 -0.7589  0.4882 -1.4245
 3145SOL     OW10333   1.862   0.441   5.178  0.2736  0.4698 -0.3700
 3145SOL    HW110334   1.891   0.403   5.266  0.2344 -0.0475 -0.5826
 3145SOL    HW210335   1.797   0.516   5.195 -2.0613 -1.5210 -0.0076
 3146SOL     OW10336   4.401   2.570   0.150  0.3824 -0.8317  0.5146
 3146SOL    HW110337   4.358   2.545   0.063  0.8164  0.9190 -0.2477
 3146SOL    HW210338   4.492   2.530   0.155  0.5832 -0.4739 -0.1186
 3147SOL     OW10339   0.444   4.094   0.887  0.6416  0.1563 -0.4729
 3147SOL    HW110340   0.378   4.042   0.832  0.8763  0.2286 -0.8283
 3147SOL    HW210341   0.426   4.079   0.984  0.7260 -0.6116 -0.5726
 3148SOL     OW10342   5.678   5.840   6.747  0.1048 -0.6164 -0.0251
 3148SOL    HW110343   5.607   5.875   6.685  1.2586  1.6251 -0.1730
 3148SOL    HW210344   5.672   5.889   6.834  2.7695  1.2497 -0.7776
 3149SOL     OW10345   0.701   2.630   4.705 -0.2714  0.6284 -0.3324
 3149SOL    HW110346   0.725   2.646   4.800  2.3418  1.8509 -1.0965
 3149SOL    HW210347   0.675   2.534   4.692  0.9472  0.0303  1.3184
 3150SOL     OW10348   3.399   2.123   2.430  0.0671  0.0129 -0.5028
 3150SOL    HW110349   3.489   2.098   2.468  0.4151  1.1492 -0.5485
 3150SOL    HW210350   3.409   2.204   2.373 -1.1377  0.6502  0.1590
 3151SOL     OW10351   1.545   4.963   0.001  0.5636 -0.2348  0.0705
 3151SOL    HW110352   1.642   4.973   0.022  0.0497  1.9999  1.9222
 3151SOL    HW210353   1.518   5.033  -0.065 -0.0901  0.3514  0.9300
 3152SOL     OW10354   1.142   2.412   5.799 -0.1051  0.0780  0.5391
 3152SOL    HW110355   1.132   2.473   5.720  2.1103 -2.4354 -1.9177
 3152SOL    HW210356   1.067   2.347   5.801 -1.9799  2.1280  2.6344
 3153SOL     OW10357   3.500   5.414   6.785 -0.0945 -0.1474  0.1001
 3153SOL    HW110358   3.567   5.344   6.760 -0.2786 -0.3269  0.1023
 3153SOL    HW210359   3.526   5.501   6.743  0.6823  0.0255  0.9155
 3154SOL     OW10360   6.658   4.492   0.245 -0.7506 -0.6432  0.1244
 3154SOL    HW110361   6.664   4.475   0.343  2.5254  1.6385  0.4874
 3154SOL    HW210362   6.641   4.406   0.197  0.9682 -2.4345  2.4902
 3155SOL     OW10363   5.836   4.482   3.456  0.0313  0.2182  0.1207
 3155SOL    HW110364   5.755   4.518   3.411 -1.3281 -0.3410  1.9892
 3155SOL    HW210365   5.851   4.387   3.428  1.1460  0.8650 -1.5989
 3156SOL     OW10366   4.725   2.490   2.705 -0.0394 -0.5037 -0.6855
 3156SOL    HW110367   4.718   2.574   2.651 -0.1433 -1.5372 -2.3492
 3156SOL    HW210368   4.634   2.457   2.729 -0.0280  1.6385  3.0097
 3157SOL     OW10369   3.522   3.691   5.030 -0.1190  0.2024 -0.1787
 3157SOL    HW110370   3.526   3.632   4.949 -0.1446 -0.6609  0.4289
 3157SOL    HW210371   3.467   3.646   5.100  0.3130  0.7193  0.4961
 3158SOL     OW10372   0.666   1.696   0.414 -0.0989  0.5297 -0.1912
 3158SOL    HW110373   0.606   1.643   0.354 -0.9045  2.5740 -1.2807
 3158SOL    HW210374   0.698   1.777   0.366  1.3768  0.8960  1.3037
 3159SOL     OW10375   5.299   4.169   6.809 -0.4256  0.2648  0.1599
 3159SOL    HW110376   5.227   4.132   6.868 -1.2641  0.6885 -0.5714
 3159SOL    HW210377   5.258   4.229   6.740  0.3990 -0.9648 -1.4643
 3160SOL     OW10378   1.939   2.577   1.040  0.2399  0.4470  0.5559
 3160SOL    HW110379   2.028   2.623   1.039  1.5910 -1.9587 -1.4010
 3160SOL    HW210380   1.941   2.501   1.105 -0.5026  0.5395  0.7002
 3161SOL     OW10381   5.488   7.021   1.262  0.3547  0.2795 -0.9000
 3161SOL    HW110382   5.468   7.119   1.261  1.0137  0.4202 -1.8043
 3161SOL    HW210383   5.467   6.984   1.352  1.5126  1.5610 -0.0542
 3162SOL     OW10384   3.319   0.970   6.962  0.2817  0.4379 -0.5935
 3162SOL    HW110385   3.356   0.895   7.017  0.4624 -0.5411 -1.9748
 3162SOL    HW210386   3.225   0.988   6.989  0.9466  1.2971  1.3054
 3163SOL     OW10387   3.452   2.827   5.760  0.0730  0.4715 -0.4792
 3163SOL    HW110388   3.494   2.918   5.763 -0.8668  0.9990 -2.1293
 3163SOL    HW210389   3.515   2.763   5.714 -0.0555  0.7687 -1.0823
 3164SOL     OW10390   6.321   6.743   1.441  0.3116  0.0381  0.2805
 3164SOL    HW110391   6.361   6.832   1.464 -0.3613  0.7032 -1.0535
 3164SOL    HW210392   6.222   6.746   1.456 -0.0239  0.2112 -1.7218
 3165SOL     OW10393   0.055   6.919   2.011  0.0192  0.1355 -0.0546
 3165SOL    HW110394   0.043   6.890   2.105 -0.8773 -1.5494 -0.6447
 3165SOL    HW210395   0.035   6.843   1.949  2.3016  0.6513 -1.5774
 3166SOL     OW10396   5.233   5.291   3.632  0.0348 -0.0975 -0.2156
 3166SOL    HW110397   5.184   5.342   3.562  0.0608 -0.0301 -0.1849
 3166SOL    HW210398   5.256   5.200   3.597 -1.2203 -0.6032  0.2077
 3167SOL     OW10399   6.136   0.429   5.826 -0.0857  0.1072  0.0972
 3167SOL    HW110400   6.051   0.402   5.870 -0.5952  1.5788  0.0865
 3167SOL    HW210401   6.117   0.500   5.758  1.2799  1.2950  0.9037
 3168SOL     OW10402   0.184   2.144   3.975  0.2328 -0.3293  0.3218
 3168SOL    HW110403   0.105   2.086   3.997  0.7329 -0.5841  1.5075
 3168SOL    HW210404   0.154   2.239   3.966 -0.5333 -0.6718 -1.2774
 3169SOL     OW10405   0.793   1.456   4.732 -0.7066  0.0908  0.2089
 3169SOL    HW110406   0.847   1.486   4.811  0.3347 -0.6504 -0.1890
 3169SOL    HW210407   0.855   1.428   4.658 -1.6298 -1.4562 -0.0243
 3170SOL     OW10408   1.282   0.913   3.701  0.2203 -0.1185 -0.0552
 3170SOL    HW110409   1.265   0.881   3.794  1.1864 -0.4793  0.0108
 3170SOL    HW210410   1.266   0.838   3.636  0.1466 -0.0431 -0.1248
 3171SOL     OW10411   1.314   6.604   3.866 -0.8431  0.1910 -0.4105
 3171SOL    HW110412   1.312   6.701   3.842  1.5616  0.5914  0.7674
 3171SOL    HW210413   1.400   6.564   3.836 -0.9428 -1.0980  0.9297
 3172SOL     OW10414   3.977   1.016   0.427 -1.0456  0.2976  0.1429
 3172SOL    HW110415   3.990   0.976   0.337  3.3278 -0.2419  0.7777
 3172SOL    HW210416   3.955   1.113   0.418  1.3676  0.7718 -1.6255
 3173SOL     OW10417   5.505   2.834   4.953  0.1351  0.0119  0.4698
 3173SOL    HW110418   5.542   2.821   4.861 -0.1536 -0.9720  0.4893
 3173SOL    HW210419   5.414   2.875   4.947  0.7643  1.4742  0.3886
 3174SOL     OW10420   0.738   6.678   3.539 -0.4653 -0.2805  0.1377
 3174SOL    HW110421   0.664   6.667   3.605 -1.3678  0.4797 -0.7254
 3174SOL    HW210422   0.713   6.634   3.453  0.8364 -1.5438  0.3649
 3175SOL     OW10423   4.834   4.438   3.030 -0.1180  0.1190 -0.2193
 3175SOL    HW110424   4.850   4.405   3.123 -1.2815  2.2380  0.8069
 3175SOL    HW210425   4.777   4.373   2.981 -0.9309 -0.2450  1.1511
 3176SOL     OW10426   4.337   5.968   6.030 -0.2884 -0.2987  0.1611
 3176SOL    HW110427   4.340   6.067   6.018 -0.0759 -0.1447  1.4062
 3176SOL    HW210428   4.286   5.927   5.954  0.1477  0.6945 -0.6865
 3177SOL     OW10429   5.736   1.802   4.085  0.0189  0.0587 -0.0872
 3177SOL    HW110430   5.667   1.730   4.099 -0.2157  0.2079 -0.4662
 3177SOL    HW210431   5.797   1.805   4.164 -0.5132  0.0358  0.3324
 3178SOL     OW10432   3.901   1.595   0.994  0.0346  0.6683 -0.6189
 3178SOL    HW110433   3.996   1.586   1.022 -0.2113 -2.6384 -0.5140
 3178SOL    HW210434   3.844   1.613   1.074  0.1844 -1.1178 -0.0856
 3179SOL     OW10435   2.214   6.441   5.890  0.1735 -0.0836  0.5898
 3179SOL    HW110436   2.182   6.362   5.944  1.4532 -0.4193  0.8923
 3179SOL    HW210437   2.155   6.520   5.908  0.3219 -0.3080  2.1833
 3180SOL     OW10438   2.094   5.955   5.788 -0.2599  0.3681  0.0922
 3180SOL    HW110439   2.037   5.920   5.863  0.7427  0.1351  0.7742
 3180SOL    HW210440   2.177   5.996   5.826  1.5230 -2.0096 -0.9278
 3181SOL     OW10441   0.308   2.938   3.071 -0.5145  0.5747 -0.3737
 3181SOL    HW110442   0.285   2.841   3.063 -0.4044  0.6208 -1.4357
 3181SOL    HW210443   0.403   2.952   3.041 -0.8493  1.1400 -1.2199
 3182SOL     OW10444   0.407   2.633   2.251  0.5074  0.4111 -0.2217
 3182SOL    HW110445   0.423   2.671   2.160 -0.1374  1.4345  0.0701
 3182SOL    HW210446   0.453   2.691   2.319 -1.5251  1.4641  0.3408
 3183SOL     OW10447   2.523   4.050   0.696  0.3951  1.1121  0.3134
 3183SOL    HW110448   2.513   4.054   0.796 -0.8733 -0.7628  0.2979
 3183SOL    HW210449   2.611   4.007   0.674 -0.3982 -0.7819  0.6854
 3184SOL     OW10450   0.534   2.109   4.549 -0.2766 -0.2174  0.4460
 3184SOL    HW110451   0.620   2.112   4.498 -0.6343 -0.3251 -0.1757
 3184SOL    HW210452   0.480   2.031   4.517 -1.2811  0.7403 -0.2812
 3185SOL     OW10453   1.930   2.931   4.567  0.2441  0.2518  0.1995
 3185SOL    HW110454   2.004   2.869   4.592  0.1726 -0.7885 -1.9094
 3185SOL    HW210455   1.908   2.919   4.470 -2.3321  0.9026  0.6219
 3186SOL     OW10456   2.373   1.877   1.789  0.5683  0.2272  0.7750
 3186SOL    HW110457   2.352   1.799   1.848 -2.5145  0.4046  0.0866
 3186SOL    HW210458   2.298   1.943   1.792  1.7216  1.7496 -0.9726
 3187SOL     OW10459   0.308   0.772   6.512 -0.0427  0.0410  0.0316
 3187SOL    HW110460   0.233   0.742   6.453 -2.6394  1.7043  2.2089
 3187SOL    HW210461   0.318   0.707   6.588  0.4004  0.0820  0.0098
 3188SOL     OW10462   5.430   6.299   0.760 -0.3783 -0.2513 -0.3753
 3188SOL    HW110463   5.488   6.363   0.709 -0.2099  1.9801  2.3616
 3188SOL    HW210464   5.484   6.253   0.830 -1.3991  0.0516  0.6439
 3189SOL     OW10465   1.178   3.314   6.666  0.2553 -0.6059 -0.2288
 3189SOL    HW110466   1.134   3.319   6.577 -0.7499  0.0795  0.2868
 3189SOL    HW210467   1.230   3.397   6.683 -0.4810 -0.2392  0.2801
 3190SOL     OW10468   2.657   4.557   6.389  0.4308 -0.1077  0.0443
 3190SOL    HW110469   2.689   4.489   6.322  0.3086 -1.2232  1.0815
 3190SOL    HW210470   2.568   4.529   6.424  0.7935  0.0861  1.1619
 3191SOL     OW10471   6.902   1.332   0.200 -0.4641 -0.3620  0.2892
 3191SOL    HW110472   6.874   1.279   0.120  2.0588 -0.2911 -0.7264
 3191SOL    HW210473   6.929   1.425   0.171 -0.0762 -0.1485  1.2899
 3192SOL     OW10474   5.682   4.487   4.021 -0.4888 -0.0760 -0.4028
 3192SOL    HW110475   5.633   4.560   3.973  0.2280  1.0695  0.5649
 3192SOL    HW210476   5.673   4.500   4.119 -1.1802 -1.8839 -0.1779
 3193SOL     OW10477   6.253   2.478   4.633  0.0358 -0.0018  0.2998
 3193SOL    HW110478   6.177   2.481   4.569  1.0294  0.1031 -0.9323
 3193SOL    HW210479   6.268   2.383   4.662  0.9744 -0.4285 -1.4336
 3194SOL     OW10480   0.702   2.858   1.825  0.1122  0.0720  0.3317
 3194SOL    HW110481   0.796   2.856   1.792  0.5754  0.8038  1.5505
 3194SOL    HW210482   0.645   2.912   1.763  0.7498  0.6133  0.2158
 3195SOL     OW10483   2.488   2.374   5.096 -0.0488  0.3904  0.3928
 3195SOL    HW110484   2.485   2.310   5.019 -0.1908  0.6239  0.2021
 3195SOL    HW210485   2.467   2.466   5.063 -1.0062  0.3534  0.8613
 3196SOL     OW10486   6.539   2.936   2.557  0.2841 -0.0979  0.3304
 3196SOL    HW110487   6.466   2.868   2.561  1.3917 -1.3017  0.7038
 3196SOL    HW210488   6.519   3.002   2.485 -1.5101  0.0218  0.8886
 3197SOL     OW10489   4.705   2.034   1.974 -0.0423  0.4863  0.2096
 3197SOL    HW110490   4.684   1.941   1.944 -0.0114  0.3602  0.5725
 3197SOL    HW210491   4.740   2.032   2.068  1.0260  0.7486 -0.1655
 3198SOL     OW10492   3.968   3.927   3.602 -0.0223 -0.2096  0.0036
 3198SOL    HW110493   3.877   3.943   3.563  0.4227 -0.1439 -1.0420
 3198SOL    HW210494   3.979   3.983   3.684 -1.9113 -2.2154  1.7551
 3199SOL     OW10495   1.855   0.594   1.934  0.1224 -0.5652 -0.1920
 3199SOL    HW110496   1.881   0.498   1.925  0.1107 -0.5596 -0.2893
 3199SOL    HW210497   1.917   0.650   1.879  0.6057 -0.4417  0.4628
 3200SOL     OW10498   6.869   4.333   2.131  0.1188  0.2058 -0.3452
 3200SOL    HW110499   6.954   4.355   2.083  0.8124  0.0887  0.7916
 3200SOL    HW210500   6.876   4.364   2.226 -0.4319 -1.3707  0.2336
 3201SOL     OW10501   1.452   0.901   1.571  0.0872  0.1727  0.4268
 3201SOL    HW110502   1.459   0.999   1.587  0.4313  0.1956  0.1431
 3201SOL    HW210503   1.501   0.851   1.643 -0.5134  0.1843  0.8586
 3202SOL     OW10504   4.556   6.700   4.186  0.1134  0.0165 -0.2258
 3202SOL    HW110505   4.640   6.753   4.175  0.9870 -1.1410  0.5282
 3202SOL    HW210506   4.580   6.604   4.202 -1.3775 -0.4134 -0.4582
 3203SOL     OW10507   5.569   3.908   3.622 -0.3239  0.0240  1.0376
 3203SOL    HW110508   5.487   3.948   3.661  0.4097  1.5758  1.0807
 3203SOL    HW210509   5.551   3.879   3.528 -0.7918  0.8353  0.8681
 3204SOL     OW10510   4.570   5.210   5.428 -0.5484 -0.0390  0.1120
 3204SOL    HW110511   4.508   5.167   5.364  0.5703  0.1285 -1.1229
 3204SOL    HW210512   4.527   5.292   5.467 -1.8379 -1.0123  0.8232
 3205SOL     OW10513   0.844   5.081   5.354 -0.2961  0.3443 -0.5154
 3205SOL    HW110514   0.771   5.131   5.307 -1.5933  0.7981  1.8182
 3205SOL    HW210515   0.807   5.040   5.438  2.3194  1.4470  1.3179
 3206SOL     OW10516   0.504   3.980   6.150 -0.4507  0.3512  0.4680
 3206SOL    HW110517   0.481   3.882   6.151  0.7547  0.0484  1.7919
 3206SOL    HW210518   0.541   4.004   6.061  0.0380 -0.6148  0.3930
 3207SOL     OW10519   4.207   5.759   1.207  0.4643  0.2898 -0.8505
 3207SOL    HW110520   4.161   5.675   1.178 -0.3416  0.9464 -1.5291
 3207SOL    HW210521   4.294   5.736   1.251 -0.8200 -1.0375  1.1392
 3208SOL     OW10522   4.169   5.491   3.413  0.1582  0.6928  0.4609
 3208SOL    HW110523   4.192   5.394   3.402 -0.5982  0.5057  0.4866
 3208SOL    HW210524   4.238   5.547   3.367  0.4558  0.1327  0.2136
 3209SOL     OW10525   3.441   6.769   4.710  0.0716  0.3432 -0.0475
 3209SOL    HW110526   3.515   6.714   4.673 -0.9384 -0.5506 -0.8123
 3209SOL    HW210527   3.474   6.862   4.729  1.6143 -0.3063  0.5810
 3210SOL     OW10528   7.006   1.081   1.866  0.7112 -0.4382  0.2741
 3210SOL    HW110529   7.075   1.050   1.801  0.1876  2.3711 -1.7696
 3210SOL    HW210530   7.051   1.107   1.952  1.9455 -0.3275 -0.3843
 3211SOL     OW10531   5.190   3.423   1.653 -0.4481  0.7263 -0.1221
 3211SOL    HW110532   5.110   3.420   1.592 -0.0015  1.5417 -0.7572
 3211SOL    HW210533   5.160   3.403   1.747 -1.2096 -0.1333 -0.5241
 3212SOL     OW10534   2.439   5.004   2.020  0.7284  0.5182 -0.3219
 3212SOL    HW110535   2.468   4.938   1.951 -0.8225 -0.4138 -0.1152
 3212SOL    HW210536   2.441   5.096   1.981  0.7196  0.1013 -1.3241
 3213SOL     OW10537   2.766   1.480   0.573  0.0092  0.2956 -0.5606
 3213SOL    HW110538   2.707   1.442   0.644  2.0114  0.0642  1.0540
 3213SOL    HW210539   2.803   1.568   0.604  1.7052 -0.2857 -0.8560
 3214SOL     OW10540   5.792   4.165   1.500 -0.2460 -0.5026  0.4099
 3214SOL    HW110541   5.722   4.182   1.569  0.5791  0.4548  1.0316
 3214SOL    HW210542   5.792   4.240   1.434  0.7473 -0.0679  0.8922
 3215SOL     OW10543   6.553   3.619   0.056  0.0971 -0.2242 -0.2433
 3215SOL    HW110544   6.525   3.553   0.126 -0.1213 -0.2514 -0.3542
 3215SOL    HW210545   6.596   3.698   0.099 -1.2746  0.4082  0.0419
 3216SOL     OW10546   4.427   0.763   4.071 -0.2905 -0.1400 -0.4128
 3216SOL    HW110547   4.493   0.733   4.139  0.6815 -2.1211 -2.1170
 3216SOL    HW210548   4.385   0.849   4.100  0.9959 -0.2678  2.0222
 3217SOL     OW10549   3.303   0.064   6.957 -0.0175  0.1385 -0.4179
 3217SOL    HW110550   3.224   0.108   7.000 -0.7067  1.0927 -2.5475
 3217SOL    HW210551   3.280  -0.029   6.931 -0.6419  0.5781 -1.4858
 3218SOL     OW10552   3.876   3.555   1.640 -0.2643 -0.3502  0.4442
 3218SOL    HW110553   3.814   3.593   1.709  1.5763  2.8921  0.5498
 3218SOL    HW210554   3.834   3.565   1.550 -0.3701  0.9442  0.6046
 3219SOL     OW10555   0.813   5.353   4.024 -0.2829 -0.0815  0.1560
 3219SOL    HW110556   0.863   5.342   3.938  3.2322  0.0751  2.0078
 3219SOL    HW210557   0.812   5.267   4.074  0.3502  0.5168  1.2389
 3220SOL     OW10558   4.960   4.632   1.663  0.0136 -0.2358  0.4616
 3220SOL    HW110559   5.034   4.689   1.701 -0.5268 -0.2425  1.5649
 3220SOL    HW210560   4.957   4.545   1.713 -0.3930 -0.4614  0.0466
 3221SOL     OW10561   0.554   2.320   2.318 -0.2461  0.4904  0.1265
 3221SOL    HW110562   0.543   2.412   2.280 -1.3807  1.7463  3.2004
 3221SOL    HW210563   0.607   2.325   2.403  0.7965 -1.9367 -0.2901
 3222SOL     OW10564   4.582   2.709   1.508  0.4781 -0.0771 -0.1276
 3222SOL    HW110565   4.572   2.756   1.596  0.1496  0.1821 -0.3055
 3222SOL    HW210566   4.495   2.709   1.459  0.6382 -0.2988 -0.4183
 3223SOL     OW10567   3.654   5.160   6.390  0.7169 -0.2145 -0.0466
 3223SOL    HW110568   3.614   5.075   6.356 -1.7447  1.1868 -0.9551
 3223SOL    HW210569   3.610   5.185   6.477  2.3850 -0.5057  0.9235
 3224SOL     OW10570   3.022   3.944   1.336  0.0581  0.4077  0.1477
 3224SOL    HW110571   3.028   4.011   1.410 -0.2032  1.4927 -0.7827
 3224SOL    HW210572   2.939   3.960   1.283  0.3183 -0.2560 -0.4748
 3225SOL     OW10573   4.743   2.922   5.150  0.3414  0.5532  0.2368
 3225SOL    HW110574   4.700   2.868   5.078 -0.6229 -0.2440  1.3690
 3225SOL    HW210575   4.775   2.861   5.223 -1.7788  1.4901  2.0766
 3226SOL     OW10576   2.516   0.172   3.723  0.3048 -1.3621 -0.4123
 3226SOL    HW110577   2.588   0.225   3.679  0.0771 -0.9885 -0.3419
 3226SOL    HW210578   2.473   0.112   3.655 -1.6645  0.9363 -1.3647
 3227SOL     OW10579   6.435   3.875   4.527  0.1312  0.4610 -0.1592
 3227SOL    HW110580   6.352   3.824   4.547  0.5354 -0.1356  0.0391
 3227SOL    HW210581   6.497   3.870   4.606  0.6121  0.3771 -0.5408
 3228SOL     OW10582   2.935   1.389   4.558  0.1695 -0.2675 -0.2007
 3228SOL    HW110583   2.969   1.475   4.521  3.5140 -0.8537  1.1420
 3228SOL    HW210584   2.878   1.407   4.638  0.1578  0.6856 -0.4086
 3229SOL     OW10585   2.894   0.142   2.869 -0.0810  0.4433  0.0007
 3229SOL    HW110586   2.878   0.069   2.802 -1.0268  0.6404 -0.0046
 3229SOL    HW210587   2.972   0.118   2.926  2.4015  1.3817 -2.7113
 3230SOL     OW10588   0.070   2.227   1.317 -0.2385 -0.2597  0.2637
 3230SOL    HW110589   0.068   2.146   1.375  0.4089 -0.1679  0.4206
 3230SOL    HW210590  -0.008   2.285   1.337  0.8592  0.6106  2.2585
 3231SOL     OW10591   6.230   2.630   0.134  0.4271  0.0286 -0.1098
 3231SOL    HW110592   6.216   2.588   0.044 -0.8421  2.0043 -0.9024
 3231SOL    HW210593   6.143   2.631   0.183  1.0622 -0.8111  1.0687
 3232SOL     OW10594   4.374   6.460   0.366  0.2561  0.2061 -0.3350
 3232SOL    HW110595   4.443   6.393   0.339  0.8872  1.2085 -1.2991
 3232SOL    HW210596   4.284   6.430   0.335  0.2743 -0.9563  0.6503
 3233SOL     OW10597   5.020   1.059   6.904 -0.4548  0.6420 -0.6464
 3233SOL    HW110598   5.015   1.156   6.927  1.4091  0.2592  1.7921
 3233SOL    HW210599   5.057   1.048   6.812 -1.0199  2.2104 -1.0950
 3234SOL     OW10600   4.946   2.822   2.056 -0.0867  0.3370  0.2593
 3234SOL    HW110601   4.915   2.752   1.992  1.1277  1.0236 -1.1433
 3234SOL    HW210602   4.887   2.903   2.047  1.2811  1.1936 -1.5326
 3235SOL     OW10603   4.944   6.848   5.124 -0.6699 -0.4970 -1.1107
 3235SOL    HW110604   5.020   6.905   5.092 -0.3768 -1.1718 -1.6456
 3235SOL    HW210605   4.873   6.844   5.054 -1.3878  0.4333 -0.4637
 3236SOL     OW10606   4.645   6.805   5.025 -0.0711 -0.4764  0.4925
 3236SOL    HW110607   4.695   6.851   4.952 -0.2397 -1.4598 -0.2725
 3236SOL    HW210608   4.637   6.865   5.104  1.1552  0.1778  0.1348
 3237SOL     OW10609   5.487   2.025   1.537 -0.0327  0.0349 -0.1389
 3237SOL    HW110610   5.389   2.039   1.522  0.2938  1.6355 -1.0804
 3237SOL    HW210611   5.538   2.068   1.463  1.3811 -1.3506 -0.0091
 3238SOL     OW10612   6.425   0.329   0.916  0.3991  0.2264  0.3902
 3238SOL    HW110613   6.494   0.355   0.984  1.1341 -1.3536  0.3040
 3238SOL    HW210614   6.351   0.278   0.960  0.1328  0.4746  0.2332
 3239SOL     OW10615   1.870   3.502   2.076 -0.0934  0.2072 -0.0117
 3239SOL    HW110616   1.955   3.543   2.043  0.1169 -1.1596 -1.3086
 3239SOL    HW210617   1.794   3.532   2.018  0.0958 -1.3239 -1.1059
 3240SOL     OW10618   1.171   7.006   3.018  0.0900  0.0574  0.3119
 3240SOL    HW110619   1.124   6.972   3.099 -1.3864 -0.3573 -0.6710
 3240SOL    HW210620   1.137   7.097   2.995 -0.7304 -0.4945 -0.7532
 3241SOL     OW10621   4.600   5.698   2.493  0.1004  0.2495 -0.6995
 3241SOL    HW110622   4.544   5.779   2.509  1.5830  1.1813 -0.0807
 3241SOL    HW210623   4.696   5.724   2.485  0.5522 -1.3905 -1.0642
 3242SOL     OW10624   2.752   3.402   1.806 -0.8116 -0.3853  0.2039
 3242SOL    HW110625   2.705   3.435   1.724  0.7261  1.0219 -0.1527
 3242SOL    HW210626   2.849   3.424   1.800 -0.5900 -0.6630  2.2044
 3243SOL     OW10627   4.157   3.771   5.060  0.1723  0.0883  0.2989
 3243SOL    HW110628   4.124   3.858   5.096  0.5420  1.0546 -1.5867
 3243SOL    HW210629   4.211   3.724   5.130 -1.2190  0.6641  1.8292
 3244SOL     OW10630   3.489   3.607   3.132 -0.0311 -0.3610  0.4772
 3244SOL    HW110631   3.448   3.524   3.094 -1.0209  0.0603  0.6060
 3244SOL    HW210632   3.566   3.581   3.191  0.7748 -1.0816 -0.8340
 3245SOL     OW10633   6.000   5.808   2.372  0.5474  0.9911  0.5229
 3245SOL    HW110634   5.914   5.797   2.421  0.4234  1.2394  0.3636
 3245SOL    HW210635   6.022   5.723   2.324  1.2643  0.3562  1.9362
 3246SOL     OW10636   1.899   1.986   1.616 -0.5686 -0.4422  0.3094
 3246SOL    HW110637   1.885   1.894   1.651  1.7074 -0.8703  0.2735
 3246SOL    HW210638   1.974   1.985   1.550 -1.9897  1.0781 -1.4169
 3247SOL     OW10639   2.382   1.981   5.674 -0.6022  0.1218 -0.4560
 3247SOL    HW110640   2.463   2.014   5.626  1.8765  0.1952  3.3223
 3247SOL    HW210641   2.313   2.054   5.677  0.5490  1.2705 -0.9330
 3248SOL     OW10642   1.169   1.555   1.513  0.5125  0.4732  0.5689
 3248SOL    HW110643   1.262   1.540   1.547 -0.0638 -2.5247  1.1380
 3248SOL    HW210644   1.154   1.498   1.432 -1.2140 -0.0936  1.2491
 3249SOL     OW10645   3.110   2.037   2.300  0.5628 -0.0615 -0.0952
 3249SOL    HW110646   3.113   2.066   2.204  0.4574  0.3220  0.0159
 3249SOL    HW210647   3.201   2.045   2.340  0.6309 -0.3310 -0.1933
 3250SOL     OW10648   6.377   2.504   3.306  0.0397 -0.0081 -0.2963
 3250SOL    HW110649   6.285   2.500   3.266 -0.7217  0.9180  1.2564
 3250SOL    HW210650   6.414   2.411   3.315 -1.0832 -0.4666 -0.2268
 3251SOL     OW10651   0.397   4.700   3.249 -0.5238 -0.3247  0.1685
 3251SOL    HW110652   0.481   4.649   3.229 -0.4043 -0.6616  1.4299
 3251SOL    HW210653   0.379   4.765   3.175 -1.0113 -2.5772 -1.8492
 3252SOL     OW10654   6.751   6.487   5.066  0.5047  0.3727  0.1490
 3252SOL    HW110655   6.822   6.549   5.099 -0.3571  1.0057  0.8422
 3252SOL    HW210656   6.722   6.427   5.140 -2.0200  2.3392  0.8903
 3253SOL     OW10657   4.668   0.177   0.408 -0.1848  0.3885  0.0213
 3253SOL    HW110658   4.756   0.200   0.449  0.7653  0.6305 -2.0288
 3253SOL    HW210659   4.677   0.172   0.309 -1.8579 -2.2939 -0.1152
 3254SOL     OW10660   3.140   5.816   1.682 -1.1149 -0.2478 -0.0239
 3254SOL    HW110661   3.205   5.786   1.752 -1.4585  2.7462  1.7716
 3254SOL    HW210662   3.047   5.801   1.714 -1.3348 -1.4122 -1.1271
 3255SOL     OW10663   5.960   1.146   5.877 -0.0411  0.5039 -0.0788
 3255SOL    HW110664   5.865   1.140   5.847  0.0032  1.3103 -0.4126
 3255SOL    HW210665   5.973   1.091   5.959 -1.1343  1.4678  0.7715
 3256SOL     OW10666   4.557   4.389   0.476  0.0673  0.2358 -0.0316
 3256SOL    HW110667   4.474   4.336   0.457  0.0278  0.5923 -0.9036
 3256SOL    HW210668   4.621   4.334   0.528 -0.9023  0.1025  1.0651
 3257SOL     OW10669   6.949   6.102   2.828 -0.1061  0.0262 -0.0877
 3257SOL    HW110670   6.950   6.171   2.755  0.7020 -0.6855 -0.7651
 3257SOL    HW210671   7.027   6.117   2.889 -0.9591  0.8235  0.8661
 3258SOL     OW10672   2.660   6.222   1.666 -0.7023 -0.2181  0.2960
 3258SOL    HW110673   2.562   6.236   1.651 -0.8139 -0.5305  0.7199
 3258SOL    HW210674   2.684   6.250   1.759 -0.1700  0.9270 -0.1637
 3259SOL     OW10675   2.149   6.636   0.886 -0.0644  0.7499 -0.4679
 3259SOL    HW110676   2.077   6.595   0.830 -0.2677  1.3717 -0.6702
 3259SOL    HW210677   2.187   6.567   0.947  0.1888  0.0638 -1.3947
 3260SOL     OW10678   6.889   1.338   4.412 -0.1611 -0.2089 -0.4576
 3260SOL    HW110679   6.905   1.430   4.449  2.5814 -0.4231 -0.8445
 3260SOL    HW210680   6.792   1.315   4.419 -0.4435  1.4038  2.6739
 3261SOL     OW10681   0.996   0.552   4.629  0.0162 -0.3353  0.2866
 3261SOL    HW110682   1.058   0.604   4.570 -2.0687  1.2012 -0.6698
 3261SOL    HW210683   0.982   0.460   4.591  0.2735 -0.0488 -0.5079
 3262SOL     OW10684   6.565   6.209   5.855  0.4806 -0.3056  0.2256
 3262SOL    HW110685   6.512   6.180   5.775 -0.4294  2.8932 -0.4716
 3262SOL    HW210686   6.557   6.140   5.927 -3.0495 -0.9439 -0.5753
 3263SOL     OW10687   2.163   5.897   2.592  0.5567  0.5393 -0.4962
 3263SOL    HW110688   2.064   5.882   2.587  0.5991  0.2077 -0.3594
 3263SOL    HW210689   2.195   5.882   2.686  0.7599  0.4934 -0.5712
 3264SOL     OW10690   4.324   5.749   5.247  0.2849  0.4253 -0.0759
 3264SOL    HW110691   4.369   5.664   5.223  2.6977  0.7872  2.6242
 3264SOL    HW210692   4.374   5.826   5.207 -0.9288  0.6978 -1.1467
 3265SOL     OW10693   5.280   4.711   1.264 -0.1077  0.1019 -0.1311
 3265SOL    HW110694   5.241   4.627   1.225  0.7968 -0.1290 -0.5833
 3265SOL    HW210695   5.208   4.765   1.307 -0.2766 -2.6473  3.5420
 3266SOL     OW10696   5.995   0.187   5.745 -0.3651  0.3009  0.2276
 3266SOL    HW110697   6.079   0.227   5.782  0.6627 -0.5889 -1.0651
 3266SOL    HW210698   5.919   0.204   5.809  0.5836  1.8983  0.9950
 3267SOL     OW10699   5.182   0.438   2.486 -0.1650  0.7624 -0.1815
 3267SOL    HW110700   5.110   0.437   2.417  0.4542  2.5981 -0.9219
 3267SOL    HW210701   5.268   0.464   2.444  1.3019 -2.5284  0.4443
 3268SOL     OW10702   0.400   0.516   2.539 -0.0521  0.4071  0.1990
 3268SOL    HW110703   0.460   0.595   2.529  1.2734 -0.4315  1.1269
 3268SOL    HW210704   0.412   0.454   2.462  0.5183  0.1027  0.5239
 3269SOL     OW10705   3.221   6.895   0.936 -0.0722 -0.0869 -0.1406
 3269SOL    HW110706   3.279   6.941   0.869  0.7762  0.4631  0.9449
 3269SOL    HW210707   3.153   6.959   0.971  1.9574  0.8875  2.3753
 3270SOL     OW10708   4.450   5.927   5.684 -0.4979  0.0340  0.0501
 3270SOL    HW110709   4.508   5.988   5.738 -2.2460  0.0999  1.9692
 3270SOL    HW210710   4.484   5.833   5.691 -0.6574  0.0494  1.2831
 3271SOL     OW10711   4.024   0.647   2.330 -0.3356  0.0620  0.1257
 3271SOL    HW110712   4.001   0.684   2.239 -1.0024 -1.3284 -0.2942
 3271SOL    HW210713   4.122   0.658   2.346 -0.5149  2.0688  0.0653
 3272SOL     OW10714   2.190   5.882   6.641 -0.1355 -0.2311 -0.2364
 3272SOL    HW110715   2.217   5.924   6.728 -0.4001 -0.2093 -0.1650
 3272SOL    HW210716   2.259   5.815   6.615  0.1813  0.0947 -0.2457
 3273SOL     OW10717   2.441   5.128   2.755 -0.0356 -0.3136  0.1839
 3273SOL    HW110718   2.468   5.032   2.757 -0.5053 -0.4738 -0.8974
 3273SOL    HW210719   2.355   5.140   2.805  0.8963 -0.1354  1.8506
 3274SOL     OW10720   6.686   6.781   4.528  0.1028 -0.1388  0.0602
 3274SOL    HW110721   6.745   6.862   4.520  1.2854 -0.8966  0.7245
 3274SOL    HW210722   6.627   6.791   4.608 -0.8038  0.6886 -0.6856
 3275SOL     OW10723   4.011   3.388   3.795 -0.4211 -0.3816  0.4878
 3275SOL    HW110724   3.916   3.416   3.811 -0.6727 -0.7035 -0.3727
 3275SOL    HW210725   4.061   3.465   3.754 -0.6503 -0.6026 -0.2288
 3276SOL     OW10726   0.359   1.863   5.835 -0.2305 -0.2789 -0.2455
 3276SOL    HW110727   0.287   1.796   5.855 -0.3681  0.2205  1.0407
 3276SOL    HW210728   0.339   1.909   5.749 -0.8161 -0.9769 -0.4942
 3277SOL     OW10729   4.837   0.204   3.736  0.1256  0.4043  0.6534
 3277SOL    HW110730   4.853   0.134   3.667 -0.9087  0.4238  0.3791
 3277SOL    HW210731   4.861   0.294   3.699  2.1697  0.1612  1.2534
 3278SOL     OW10732   1.180   6.243   4.829 -0.3296 -0.4579  0.1774
 3278SOL    HW110733   1.086   6.275   4.833 -0.1206  0.1001  0.7611
 3278SOL    HW210734   1.182   6.143   4.825 -0.9515 -0.4554 -0.1774
 3279SOL     OW10735   2.639   4.296   1.502 -0.6200  0.1823  0.2069
 3279SOL    HW110736   2.729   4.321   1.537 -0.2730 -0.3353 -0.2949
 3279SOL    HW210737   2.597   4.228   1.561  0.0361 -0.8159 -0.4450
 3280SOL     OW10738   6.341   4.634   6.750  0.0372 -0.1827 -0.3128
 3280SOL    HW110739   6.338   4.732   6.733 -3.2078  0.2283  1.8445
 3280SOL    HW210740   6.428   4.611   6.795  0.0624  2.0562  0.9283
 3281SOL     OW10741   0.503   3.434   3.784 -0.1363  0.0783 -0.1630
 3281SOL    HW110742   0.411   3.463   3.810 -0.6901 -0.3806 -1.5596
 3281SOL    HW210743   0.552   3.511   3.744 -1.0710 -0.4222 -2.4307
 3282SOL     OW10744   6.246   5.809   4.169 -0.5000 -0.2439  0.0270
 3282SOL    HW110745   6.314   5.880   4.183 -0.2565 -0.9252  2.9054
 3282SOL    HW210746   6.288   5.729   4.125  0.5464 -0.5577  1.5334
 3283SOL     OW10747   4.651   6.420   4.847 -0.3818  0.0364 -0.3640
 3283SOL    HW110748   4.731   6.373   4.884  0.3159  0.0477 -1.7993
 3283SOL    HW210749   4.578   6.353   4.832 -0.8008  0.0818  1.2802
 3284SOL     OW10750   2.395   3.739   5.304 -0.1912  0.3966 -0.0263
 3284SOL    HW110751   2.426   3.770   5.393 -0.3439  1.5507 -0.3535
 3284SOL    HW210752   2.414   3.810   5.236 -0.8011 -0.1295 -0.7616
 3285SOL     OW10753   3.473   6.387   0.945 -0.3394 -0.2786 -0.0542
 3285SOL    HW110754   3.499   6.428   0.858  0.0090 -0.7778 -0.1909
 3285SOL    HW210755   3.521   6.300   0.956 -0.6078 -0.3584  0.5022
 3286SOL     OW10756   6.148   4.582   6.363  0.0671 -0.4110 -0.1120
 3286SOL    HW110757   6.216   4.557   6.432 -0.4825 -1.5831  0.0267
 3286SOL    HW210758   6.136   4.506   6.299  0.8587  0.8005 -1.7706
 3287SOL     OW10759   0.065   5.579   0.051  0.5168 -0.3763  0.1015
 3287SOL    HW110760   0.147   5.634   0.035 -0.1796  0.1772 -1.8600
 3287SOL    HW210761   0.020   5.610   0.134  2.2506 -0.6813  1.2191
 3288SOL     OW10762   1.890   6.770   0.511  0.1601  0.1560  0.1683
 3288SOL    HW110763   1.927   6.682   0.538  1.4631  0.7856  0.4876
 3288SOL    HW210764   1.794   6.776   0.541 -1.2153 -2.5864 -3.0931
 3289SOL     OW10765   6.781   0.827   2.109 -0.4406 -0.5464  0.6820
 3289SOL    HW110766   6.756   0.900   2.045 -0.8018 -0.9790  0.3196
 3289SOL    HW210767   6.820   0.751   2.058 -1.4043 -1.1980  0.8851
 3290SOL     OW10768   1.193   0.606   3.196 -0.1410  0.2059  0.3420
 3290SOL    HW110769   1.268   0.560   3.244  0.0992  0.7589  0.5046
 3290SOL    HW210770   1.187   0.701   3.227 -1.8773 -0.2198  1.4229
 3291SOL     OW10771   4.725   1.579   3.922 -0.2297  0.7512  0.4552
 3291SOL    HW110772   4.651   1.512   3.930  1.2502 -0.9460  0.5757
 3291SOL    HW210773   4.731   1.611   3.827 -1.5271  1.4484  0.5830
 3292SOL     OW10774   2.818   1.667   2.281  0.5715  0.0054  0.5477
 3292SOL    HW110775   2.814   1.568   2.268 -0.1293  0.1870 -0.8531
 3292SOL    HW210776   2.828   1.688   2.378 -0.8445 -1.4079  1.0287
 3293SOL     OW10777   6.052   6.296   5.384 -0.2052 -0.0307 -0.3106
 3293SOL    HW110778   6.098   6.364   5.441 -3.0550  1.1308  0.8328
 3293SOL    HW210779   6.085   6.302   5.290 -0.5064  3.1832 -0.3031
 3294SOL     OW10780   6.605   2.338   3.106 -0.2451 -0.0324  0.1329
 3294SOL    HW110781   6.514   2.298   3.105  0.0776 -0.8121  0.3385
 3294SOL    HW210782   6.638   2.351   3.013 -0.1201 -0.8502  0.0481
 3295SOL     OW10783   4.091   1.651   1.855  0.8802 -0.1343 -0.2071
 3295SOL    HW110784   4.135   1.654   1.944  1.4531 -1.9973 -0.3818
 3295SOL    HW210785   4.056   1.559   1.838 -3.0306  1.1479 -0.1519
 3296SOL     OW10786   6.843   5.301   5.129  0.5577  0.7095  0.0329
 3296SOL    HW110787   6.756   5.252   5.124  1.3091 -0.6540 -0.0874
 3296SOL    HW210788   6.907   5.261   5.064  1.1908  1.9037 -0.1007
 3297SOL     OW10789   3.926   5.056   0.499 -0.3520 -0.3426 -0.0425
 3297SOL    HW110790   3.877   5.137   0.532  0.4804 -0.2784  1.0876
 3297SOL    HW210791   3.866   4.976   0.506 -0.3658 -0.2423  1.1660
 3298SOL     OW10792   0.919   6.249   4.895  0.2464 -0.3001  0.4661
 3298SOL    HW110793   0.848   6.279   4.959 -0.0554 -0.8133  0.3737
 3298SOL    HW210794   0.878   6.196   4.822  1.0474 -3.5915  2.2131
 3299SOL     OW10795   2.253   2.639   5.244 -0.4502 -0.0912  0.0957
 3299SOL    HW110796   2.213   2.728   5.262 -0.1281 -0.3749  2.5231
 3299SOL    HW210797   2.255   2.622   5.145 -4.4921  0.7302 -0.2790
 3300SOL     OW10798   3.389   5.146   1.771  0.2969  0.4667  0.3892
 3300SOL    HW110799   3.307   5.096   1.745  0.2073  0.8925 -0.1802
 3300SOL    HW210800   3.365   5.242   1.790  0.8242  0.8704 -0.9007
 3301SOL     OW10801   4.786   2.397   6.147 -0.6765  0.0480 -0.0113
 3301SOL    HW110802   4.712   2.368   6.208 -1.1944  0.6172 -0.3605
 3301SOL    HW210803   4.782   2.496   6.135 -0.2259  0.0050 -0.5131
 3302SOL     OW10804   1.740   1.475   0.304  0.5437 -0.2201  0.4605
 3302SOL    HW110805   1.787   1.408   0.363 -0.1694 -0.0758  1.2141
 3302SOL    HW210806   1.757   1.567   0.338 -1.4362 -0.2364  1.6473
 3303SOL     OW10807   2.578   4.545   1.808 -0.1133 -0.0571 -0.0673
 3303SOL    HW110808   2.668   4.555   1.849 -0.2414  3.1994 -0.2924
 3303SOL    HW210809   2.520   4.490   1.868  1.4635 -0.6352  0.9973
 3304SOL     OW10810   2.613   6.260   4.801  0.3937  0.9033 -0.1128
 3304SOL    HW110811   2.613   6.293   4.706 -0.5840 -0.6051 -0.6882
 3304SOL    HW210812   2.527   6.287   4.845  1.5203  3.0106  0.9202
 3305SOL     OW10813   5.710   2.253   3.491  0.0574 -0.2820 -0.0564
 3305SOL    HW110814   5.671   2.224   3.404  1.0058 -0.1644 -0.5376
 3305SOL    HW210815   5.637   2.266   3.558 -1.1292  3.1146 -1.7997
 3306SOL     OW10816   0.223   6.042   4.351  0.2594  0.1895  0.6266
 3306SOL    HW110817   0.162   6.069   4.277 -0.7484 -2.5528  0.3418
 3306SOL    HW210818   0.260   5.951   4.333  0.2061 -0.4656  3.3387
 3307SOL     OW10819   0.633   5.953   5.152 -0.3263 -0.1051 -0.6510
 3307SOL    HW110820   0.652   5.855   5.145 -1.5929 -0.3614 -0.7702
 3307SOL    HW210821   0.534   5.967   5.158 -0.0907  0.9398  2.8238
 3308SOL     OW10822   4.329   2.901   1.163  0.3704  0.1051 -0.5038
 3308SOL    HW110823   4.393   2.843   1.112  0.9504  1.4818 -1.3957
 3308SOL    HW210824   4.238   2.860   1.162  1.4286 -2.7172  2.1026
 3309SOL     OW10825   4.763   4.026   1.302  0.0281  0.1543  0.1145
 3309SOL    HW110826   4.692   4.041   1.233 -0.3764  1.0047  0.6936
 3309SOL    HW210827   4.720   4.019   1.392  0.5797 -0.5942  0.3260
 3310SOL     OW10828   3.574   5.198   7.000  0.3466 -0.3566 -0.4998
 3310SOL    HW110829   3.647   5.219   6.935  0.4719 -3.1220 -1.3767
 3310SOL    HW210830   3.487   5.189   6.952 -0.0828  0.2742  0.1404
 3311SOL     OW10831   5.026   5.249   2.757 -0.9447  0.1091 -0.3688
 3311SOL    HW110832   4.999   5.202   2.673 -3.3349  1.8357 -0.6800
 3311SOL    HW210833   5.077   5.332   2.734  1.3600 -1.0963  0.0938
 3312SOL     OW10834   5.046   1.703   0.060  0.2557 -0.4394 -0.0522
 3312SOL    HW110835   5.037   1.774   0.130  0.1115 -0.5520  0.0439
 3312SOL    HW210836   5.030   1.743  -0.030  0.3005 -0.3243 -0.0103
 3313SOL     OW10837   2.246   4.316   3.488 -0.0517  0.2400  0.2184
 3313SOL    HW110838   2.248   4.216   3.482 -2.2902  0.2047 -1.5169
 3313SOL    HW210839   2.217   4.344   3.579 -0.2529 -0.7144  0.4565
 3314SOL     OW10840   2.687   0.372   3.660  0.1657 -0.2012  0.4770
 3314SOL    HW110841   2.654   0.442   3.723  1.4269  1.2202 -0.3614
 3314SOL    HW210842   2.700   0.412   3.569  1.3589 -1.3960  0.0788
 3315SOL     OW10843   0.791   6.315   5.701  0.1612  0.4492 -0.0224
 3315SOL    HW110844   0.866   6.317   5.767  1.4939 -1.5317 -1.3617
 3315SOL    HW210845   0.819   6.363   5.618 -0.6000  0.9136 -0.0143
 3316SOL     OW10846   2.415   4.493   3.410  0.5812 -0.3389 -0.5372
 3316SOL    HW110847   2.453   4.538   3.491  1.4739 -1.4990 -0.2895
 3316SOL    HW210848   2.343   4.429   3.438 -0.5378  0.7340 -0.8692
 3317SOL     OW10849   5.350   5.254   2.764  0.5422 -0.4844 -0.0200
 3317SOL    HW110850   5.336   5.245   2.666  0.5263 -0.9266  0.0237
 3317SOL    HW210851   5.322   5.170   2.810  1.4636 -0.6433  0.2658
 3318SOL     OW10852   3.482   5.381   5.461 -0.6883  0.2199  0.6188
 3318SOL    HW110853   3.419   5.456   5.480 -1.0065 -0.0973  0.8276
 3318SOL    HW210854   3.533   5.358   5.545 -0.0026  0.7411  0.3511
 3319SOL     OW10855   6.116   2.522   0.403  0.2918  0.7266 -0.7573
 3319SOL    HW110856   6.065   2.590   0.456  0.2346  0.0686  0.0398
 3319SOL    HW210857   6.057   2.444   0.384  1.2239 -0.4652  0.9807
 3320SOL     OW10858   6.476   4.772   1.483  0.0438  0.9095 -0.8940
 3320SOL    HW110859   6.405   4.826   1.526 -0.6442 -1.0083  0.5442
 3320SOL    HW210860   6.527   4.722   1.553  0.2891 -0.6817 -2.1416
 3321SOL     OW10861   5.405   7.015   6.590 -0.5584 -0.3140  0.4822
 3321SOL    HW110862   5.363   7.099   6.625 -0.9165  0.9143 -2.6318
 3321SOL    HW210863   5.342   6.939   6.604 -2.2514  0.7979 -0.6957
 3322SOL     OW10864   6.934   0.740   5.391 -0.5617 -0.2788 -0.2416
 3322SOL    HW110865   6.973   0.765   5.480  2.0106 -0.1855 -1.3008
 3322SOL    HW210866   6.913   0.642   5.390 -0.4921 -0.3074  0.4005
 3323SOL     OW10867   2.451   0.991   0.871 -0.0515  0.0765  0.4636
 3323SOL    HW110868   2.458   1.053   0.792  0.3524  0.7732  1.0341
 3323SOL    HW210869   2.384   0.920   0.851  0.2966  0.0393 -0.6469
 3324SOL     OW10870   3.037   5.339   5.655  0.0721  0.4220  1.0111
 3324SOL    HW110871   3.123   5.373   5.693  0.9146  1.4069 -1.5201
 3324SOL    HW210872   3.047   5.328   5.556 -1.9780 -1.8852  0.9651
 3325SOL     OW10873   3.083   1.937   6.429 -0.2993 -0.1339 -0.5631
 3325SOL    HW110874   3.113   1.901   6.341  0.3201 -2.8095  0.6232
 3325SOL    HW210875   3.125   2.026   6.445  3.0438 -1.4416 -1.1725
 3326SOL     OW10876   1.574   0.104   2.791 -0.3276 -0.2261 -0.2805
 3326SOL    HW110877   1.511   0.078   2.719 -1.7934  1.5637  0.2779
 3326SOL    HW210878   1.528   0.100   2.879  1.4658 -2.4994  0.6655
 3327SOL     OW10879   1.152   1.227   1.956 -0.2989 -0.2512 -0.6238
 3327SOL    HW110880   1.130   1.301   2.020 -0.4799  0.1279 -1.1240
 3327SOL    HW210881   1.113   1.247   1.867  1.9600  0.4003 -1.5304
 3328SOL     OW10882   6.298   4.444   6.561 -0.2337 -0.1553 -0.8378
 3328SOL    HW110883   6.295   4.513   6.633 -0.6950 -0.2542 -0.7609
 3328SOL    HW210884   6.378   4.385   6.575  0.0191  0.2033 -0.7587
 3329SOL     OW10885   0.466   4.971   5.109 -0.1313  0.3399 -0.1875
 3329SOL    HW110886   0.530   4.901   5.076  0.3645  1.0226 -0.7174
 3329SOL    HW210887   0.399   4.992   5.038 -1.2579 -0.7077  0.5325
 3330SOL     OW10888   2.981   5.212   6.289  0.1973 -0.4530 -0.0549
 3330SOL    HW110889   3.043   5.272   6.240 -0.8553 -0.7571 -1.8684
 3330SOL    HW210890   2.891   5.255   6.295 -0.5163 -1.6723 -1.1908
 3331SOL     OW10891   1.201   4.416   1.576  0.2585 -0.4290  0.2061
 3331SOL    HW110892   1.227   4.326   1.539 -0.0096 -0.1836 -0.6143
 3331SOL    HW210893   1.270   4.447   1.640  0.3660 -1.2149  0.4769
 3332SOL     OW10894   6.357   1.594   0.859 -0.6421 -0.6386 -0.6987
 3332SOL    HW110895   6.310   1.589   0.948  0.3260 -0.7290 -0.1767
 3332SOL    HW210896   6.444   1.642   0.870 -0.1379 -1.3608 -1.4311
 3333SOL     OW10897   0.614   2.881   5.169  0.0414 -0.0497  0.2899
 3333SOL    HW110898   0.626   2.929   5.082  0.9812 -0.5978  0.1040
 3333SOL    HW210899   0.522   2.842   5.173  0.4555 -1.2968 -1.1232
 3334SOL     OW10900   1.562   5.846   2.812  0.0247 -0.3201 -0.2666
 3334SOL    HW110901   1.482   5.886   2.766  0.9364 -0.2953 -1.9330
 3334SOL    HW210902   1.544   5.751   2.835 -0.1028 -0.6667 -1.7127
 3335SOL     OW10903   0.564   5.027   6.184  0.1176 -0.9025 -0.1165
 3335SOL    HW110904   0.466   5.019   6.206  0.0179  1.1341  0.4443
 3335SOL    HW210905   0.574   5.052   6.088 -0.1264  1.2629  0.3479
 3336SOL     OW10906   4.982   0.323   1.286 -0.6270  0.3693 -0.3705
 3336SOL    HW110907   4.951   0.305   1.380  1.2739  1.0899  0.4450
 3336SOL    HW210908   4.988   0.422   1.272  2.4312  0.3148 -0.0228
 3337SOL     OW10909   3.211   5.993   5.837  1.2172  0.0805  0.5022
 3337SOL    HW110910   3.170   5.902   5.826  3.2779 -0.7892 -0.4649
 3337SOL    HW210911   3.138   6.062   5.839 -0.3718 -1.5408  0.9056
 3338SOL     OW10912   2.035   6.538   4.047  0.4134 -0.4821 -0.6973
 3338SOL    HW110913   2.135   6.527   4.048  0.3077 -1.4692  0.0013
 3338SOL    HW210914   2.005   6.568   4.137  0.0133 -0.8067 -0.7230
 3339SOL     OW10915   3.539   4.154   2.101  0.1917 -0.1495  0.1826
 3339SOL    HW110916   3.542   4.236   2.158  2.7564  0.2137 -0.3812
 3339SOL    HW210917   3.546   4.073   2.160  1.9580  0.1943  0.4840
 3340SOL     OW10918   0.786   6.940   0.894 -0.0872  0.2512  0.1822
 3340SOL    HW110919   0.715   7.008   0.875 -0.8305 -0.8515 -1.1287
 3340SOL    HW210920   0.809   6.942   0.991 -0.7600  1.7216  0.3367
 3341SOL     OW10921   4.887   3.632   1.368 -0.2642  0.0356  0.1600
 3341SOL    HW110922   4.912   3.635   1.272 -0.3243  0.3992  0.1552
 3341SOL    HW210923   4.787   3.637   1.376 -0.2706 -0.2013  0.2314
 3342SOL     OW10924   1.419   5.990   3.095  0.9178  0.1785 -0.0452
 3342SOL    HW110925   1.485   6.036   3.036  1.2792  0.7814  0.8039
 3342SOL    HW210926   1.361   6.058   3.140  1.2435 -0.1919  0.9727
 3343SOL     OW10927   5.520   5.498   4.566  0.0062  0.1260  0.6995
 3343SOL    HW110928   5.552   5.421   4.621 -1.1896 -0.4247  0.6617
 3343SOL    HW210929   5.457   5.554   4.619 -1.7366 -0.8213 -0.2797
 3344SOL     OW10930   1.087   3.919   1.773  0.1879  0.2910  0.2531
 3344SOL    HW110931   1.114   3.831   1.813 -1.4503 -0.5955 -0.5062
 3344SOL    HW210932   1.021   3.965   1.833 -1.7910 -0.7516 -1.0174
 3345SOL     OW10933   5.288   6.016   2.638  0.4587 -0.0481  0.2175
 3345SOL    HW110934   5.244   6.086   2.582 -0.9026 -2.1368 -1.5225
 3345SOL    HW210935   5.218   5.955   2.675  1.5775 -0.4699  1.7115
 3346SOL     OW10936   0.384   3.583   6.389 -0.4279  0.2816 -0.1379
 3346SOL    HW110937   0.387   3.595   6.488 -1.3760  3.4285 -0.3760
 3346SOL    HW210938   0.290   3.562   6.361 -0.0689 -1.1429 -0.3958
 3347SOL     OW10939   3.997   7.023   4.237 -0.1878  0.1627 -0.2756
 3347SOL    HW110940   3.913   7.072   4.215  0.7821  1.3741 -1.4291
 3347SOL    HW210941   4.064   7.037   4.164  0.5838 -1.8376 -0.0128
 3348SOL     OW10942   2.805   1.867   6.485  0.5476 -0.3218 -0.4502
 3348SOL    HW110943   2.795   1.843   6.581 -0.3817 -1.1702 -0.7358
 3348SOL    HW210944   2.902   1.878   6.463  1.1422 -3.8393 -0.2294
 3349SOL     OW10945   1.457   0.231   0.777 -0.4357  0.7625 -0.3963
 3349SOL    HW110946   1.549   0.202   0.803 -0.6118  0.5781  0.0330
 3349SOL    HW210947   1.463   0.309   0.716  0.0487 -0.0223 -1.3935
 3350SOL     OW10948   6.803   2.458   0.326 -0.3448 -0.4111  0.6776
 3350SOL    HW110949   6.822   2.515   0.406 -1.4480  0.8294  0.0873
 3350SOL    HW210950   6.778   2.516   0.249  2.4638 -1.4376 -1.1549
 3351SOL     OW10951   3.027   4.105   0.158 -0.5826 -0.1263 -0.5743
 3351SOL    HW110952   3.081   4.028   0.191  0.7639  0.4997 -1.2445
 3351SOL    HW210953   3.018   4.100   0.058 -0.3538  0.6648 -0.6396
 3352SOL     OW10954   4.336   3.557   0.454 -0.9355 -0.0363  0.0518
 3352SOL    HW110955   4.362   3.649   0.483 -0.4021 -0.7960  2.2054
 3352SOL    HW210956   4.248   3.533   0.496 -0.9719 -0.5723 -0.3289
 3353SOL     OW10957   1.150   4.606   5.479  0.4241  0.2990 -0.2693
 3353SOL    HW110958   1.069   4.588   5.424  0.9203 -0.4556 -0.7807
 3353SOL    HW210959   1.123   4.632   5.572 -0.3968 -1.8403  0.1476
 3354SOL     OW10960   6.084   4.221   4.103  0.0353  0.3679 -0.9202
 3354SOL    HW110961   6.082   4.318   4.126 -1.5498 -0.2345  2.0111
 3354SOL    HW210962   6.035   4.206   4.017  0.7029  2.1776 -1.6546
 3355SOL     OW10963   1.944   6.186   5.797 -0.2318 -0.1111 -0.1071
 3355SOL    HW110964   1.988   6.098   5.780  0.7951 -0.0627  1.9803
 3355SOL    HW210965   1.994   6.259   5.750 -0.1507 -0.4421 -0.5406
 3356SOL     OW10966   6.830   6.942   6.306 -0.1492 -0.0825 -0.1522
 3356SOL    HW110967   6.807   6.945   6.208 -0.0020 -0.4173 -0.1984
 3356SOL    HW210968   6.783   7.016   6.353 -0.8682 -0.4168 -0.3364
 3357SOL     OW10969   4.898   1.430   6.406 -0.4835 -0.0462 -0.2638
 3357SOL    HW110970   4.799   1.447   6.405 -0.9549 -2.5314 -0.9274
 3357SOL    HW210971   4.925   1.397   6.496 -0.4231 -0.3024 -0.3776
 3358SOL     OW10972   5.736   0.068   1.448 -0.0855 -0.0771 -0.4276
 3358SOL    HW110973   5.724   0.135   1.375 -0.8146  0.6377  0.3189
 3358SOL    HW210974   5.661   0.001   1.444 -0.9922  0.8286  0.5296
 3359SOL     OW10975   3.614   4.379   5.431 -0.3051 -0.2528 -0.3580
 3359SOL    HW110976   3.536   4.334   5.474  0.0085 -0.3345  0.1370
 3359SOL    HW210977   3.696   4.325   5.447  0.1870  0.7854  0.7661
 3360SOL     OW10978   1.514   0.772   0.882  0.2537 -0.2168 -0.2100
 3360SOL    HW110979   1.585   0.728   0.827  0.0455 -1.8513  0.7598
 3360SOL    HW210980   1.523   0.871   0.875  1.0066 -0.3850 -2.1544
 3361SOL     OW10981   6.974   6.565   6.960  0.2428  0.2664  0.1145
 3361SOL    HW110982   6.945   6.475   6.928  0.4598  0.2223  0.0372
 3361SOL    HW210983   7.000   6.559   7.056 -0.7859  0.4829  0.4189
 3362SOL     OW10984   0.216   1.939   4.833  0.4735  0.2885  0.3023
 3362SOL    HW110985   0.213   2.036   4.810  0.3529  0.1617 -0.2165
 3362SOL    HW210986   0.168   1.886   4.764 -1.3393  0.0495  1.6668
 3363SOL     OW10987   5.321   6.765   6.661 -0.2536 -0.1742  0.4585
 3363SOL    HW110988   5.337   6.668   6.684 -0.4887 -0.5592 -0.9312
 3363SOL    HW210989   5.243   6.799   6.714 -0.0022 -0.6673  1.1566
 3364SOL     OW10990   5.691   2.767   2.942 -0.4451  0.4269 -0.1934
 3364SOL    HW110991   5.612   2.744   2.999 -0.7767  0.4103 -0.6590
 3364SOL    HW210992   5.660   2.789   2.850  0.1342  0.0475 -0.4770
 3365SOL     OW10993   5.231   3.138   6.782 -0.2012  0.2257  0.2873
 3365SOL    HW110994   5.226   3.177   6.874 -1.6251  1.3353 -0.2241
 3365SOL    HW210995   5.178   3.195   6.719 -2.6885 -2.6801 -0.4653
 3366SOL     OW10996   0.291   1.946   4.423 -0.0695  0.0219 -0.1222
 3366SOL    HW110997   0.226   1.889   4.473  1.2346 -1.7743 -0.3840
 3366SOL    HW210998   0.307   1.908   4.332 -1.3893  2.5026 -1.5053
 3367SOL     OW10999   2.008   3.489   6.472 -0.4492 -0.6508  0.0716
 3367SOL    HW111000   2.082   3.553   6.493 -0.4545 -0.4154 -0.5953
 3367SOL    HW211001   1.972   3.449   6.557 -0.7905  0.6137  0.5388
 3368SOL     OW11002   2.193   0.689   3.118 -0.1868 -0.2448  0.0585
 3368SOL    HW111003   2.175   0.787   3.127 -1.0988 -0.4615  0.8746
 3368SOL    HW211004   2.174   0.660   3.025 -1.6568  0.0514  0.2391
 3369SOL     OW11005   6.931   1.792   1.357 -0.0697  0.4412  0.5726
 3369SOL    HW111006   6.871   1.871   1.369  0.2398  1.3026 -2.5620
 3369SOL    HW211007   6.964   1.790   1.263  1.7477 -2.2081  1.1601
 3370SOL     OW11008   1.029   1.617   1.907 -0.2275 -0.2166 -0.9657
 3370SOL    HW111009   0.957   1.626   1.977  0.2337 -1.0047 -0.3682
 3370SOL    HW211010   1.103   1.681   1.927  0.0893 -0.7152 -0.4676
 3371SOL     OW11011   0.661   5.492   3.265 -0.0197 -0.6625  0.1940
 3371SOL    HW111012   0.699   5.409   3.224  0.8468 -0.1566 -0.0434
 3371SOL    HW211013   0.734   5.559   3.279 -0.7716  0.2030  0.0499
 3372SOL     OW11014   5.993   4.210   2.511  0.5555  0.4028 -0.3377
 3372SOL    HW111015   6.093   4.199   2.510  0.5108 -0.0048 -0.3442
 3372SOL    HW211016   5.951   4.142   2.451  0.2938  0.8242 -0.6433
 3373SOL     OW11017   0.278   5.308   1.057  0.0496 -0.6920  0.8973
 3373SOL    HW111018   0.332   5.230   1.027  1.1365  0.6646 -0.8611
 3373SOL    HW211019   0.215   5.335   0.984  0.5637  0.8163  0.9861
 3374SOL     OW11020   1.183   5.170   4.503 -0.4252 -0.1638 -0.0026
 3374SOL    HW111021   1.174   5.175   4.404  0.3183  1.3290 -0.0277
 3374SOL    HW211022   1.223   5.082   4.529 -1.5647 -0.9816 -0.9267
 3375SOL     OW11023   1.825   3.244   4.862 -0.0945  0.0271 -0.1195
 3375SOL    HW111024   1.764   3.270   4.937  0.7411  3.6160 -0.5494
 3375SOL    HW211025   1.771   3.200   4.790 -1.5055 -0.2755  1.0689
 3376SOL     OW11026   4.670   5.288   2.770  0.4782 -1.0764  0.1139
 3376SOL    HW111027   4.668   5.195   2.734  1.0494 -0.8785 -0.4622
 3376SOL    HW211028   4.734   5.343   2.716  0.8262 -0.5796  1.0052
 3377SOL     OW11029   0.991   4.966   4.787 -0.0031 -0.2990 -0.2983
 3377SOL    HW111030   1.021   4.879   4.749 -1.8565 -0.3544 -1.8162
 3377SOL    HW211031   0.937   5.015   4.718 -0.4641  1.2620  1.1105
 3378SOL     OW11032   2.585   6.660   6.197 -1.4650  0.1003 -0.6303
 3378SOL    HW111033   2.622   6.752   6.203 -0.7609 -0.1127 -1.5317
 3378SOL    HW211034   2.653   6.599   6.157 -2.4793 -0.4823 -1.5238
 3379SOL     OW11035   0.598   5.733   0.579 -0.1809  0.3725  0.1903
 3379SOL    HW111036   0.574   5.672   0.504  0.6850  0.3032 -0.0422
 3379SOL    HW211037   0.515   5.759   0.629 -0.6476 -0.3989 -0.1580
 3380SOL     OW11038   3.270   4.435   6.982 -0.5485  0.4904  0.0641
 3380SOL    HW111039   3.248   4.467   7.074 -0.0331  2.6172 -0.5083
 3380SOL    HW211040   3.228   4.346   6.967 -0.1618 -0.1864  2.5523
 3381SOL     OW11041   5.298   1.124   4.827 -0.1411  0.2620 -0.7152
 3381SOL    HW111042   5.283   1.222   4.817  0.0136  0.5524  1.3595
 3381SOL    HW211043   5.219   1.074   4.793 -2.0000  1.3396  1.6780
 3382SOL     OW11044   2.209   5.752   1.432 -0.4259  0.3754  0.0858
 3382SOL    HW111045   2.196   5.785   1.338  0.3063 -1.0264 -0.5515
 3382SOL    HW211046   2.157   5.667   1.444 -1.1536  0.9691  1.2170
 3383SOL     OW11047   1.840   3.411   6.708 -0.3508  0.3934  1.0662
 3383SOL    HW111048   1.843   3.411   6.808 -0.8247 -0.6861  1.0926
 3383SOL    HW211049   1.767   3.350   6.677  0.0068  0.4657  0.0474
 3384SOL     OW11050   0.141   4.038   5.438  0.7200  0.3399 -0.4471
 3384SOL    HW111051   0.084   4.082   5.507  1.6564  0.2284  0.4210
 3384SOL    HW211052   0.183   4.107   5.379  0.7555  0.5038 -0.2295
 3385SOL     OW11053   2.477   6.268   4.366 -0.1517 -0.2375 -0.1211
 3385SOL    HW111054   2.544   6.214   4.314 -0.4219  0.7512 -1.5675
 3385SOL    HW211055   2.525   6.332   4.425  0.1616 -1.0580  0.5414
 3386SOL     OW11056   1.833   5.523   5.179 -0.0252 -0.7153 -0.5211
 3386SOL    HW111057   1.817   5.622   5.188 -0.9305 -0.9679  1.0695
 3386SOL    HW211058   1.751   5.479   5.144  0.4584 -0.8880 -1.4571
 3387SOL     OW11059   1.241   0.211   4.600 -0.0394  0.0484  0.5980
 3387SOL    HW111060   1.166   0.229   4.536 -0.0596  1.7962  1.0654
 3387SOL    HW211061   1.323   0.185   4.549 -0.5001 -0.2180 -0.0170
 3388SOL     OW11062   3.545   0.126   0.003  0.2964  0.2777 -0.4403
 3388SOL    HW111063   3.448   0.102  -0.006  0.5150 -0.5807 -0.6323
 3388SOL    HW211064   3.595   0.048   0.041  0.8622  0.8246 -0.0577
 3389SOL     OW11065   6.692   0.145   1.045 -0.7788  0.3885 -0.1309
 3389SOL    HW111066   6.663   0.122   1.138  0.9754 -1.7460 -0.0350
 3389SOL    HW211067   6.670   0.241   1.026  0.1513  1.3565  3.0400
 3390SOL     OW11068   1.811   6.852   5.670 -0.2094 -0.1879  0.2130
 3390SOL    HW111069   1.721   6.893   5.653 -0.5835 -1.0525 -0.0101
 3390SOL    HW211070   1.880   6.897   5.614 -0.2529  1.3996  1.4037
 3391SOL     OW11071   4.503   6.519   3.867  0.6795  0.8310  0.3348
 3391SOL    HW111072   4.535   6.561   3.782  2.6659  0.7290  0.9887
 3391SOL    HW211073   4.465   6.590   3.927 -0.9870  0.8708 -0.6796
 3392SOL     OW11074   0.256   6.328   6.619 -1.1396 -0.0595  0.3737
 3392SOL    HW111075   0.259   6.234   6.586 -0.1493  0.4660 -1.1887
 3392SOL    HW211076   0.347   6.370   6.608 -1.5865  1.1036  0.9268
 3393SOL     OW11077   1.089   4.587   4.424 -0.0718  0.0742  0.0510
 3393SOL    HW111078   1.083   4.487   4.433 -0.4291 -0.1115 -1.8677
 3393SOL    HW211079   1.185   4.615   4.428  0.0546 -0.3689  0.2678
 3394SOL     OW11080   6.706   1.573   3.392  0.3260 -0.3765  0.0191
 3394SOL    HW111081   6.679   1.667   3.410  0.3872 -0.4734  0.6328
 3394SOL    HW211082   6.784   1.571   3.329 -0.9554 -0.0852 -1.6281
 3395SOL     OW11083   6.161   4.689   1.528 -0.1776  0.6937 -0.4197
 3395SOL    HW111084   6.176   4.787   1.521  2.1885  0.4178 -0.1036
 3395SOL    HW211085   6.183   4.645   1.441 -2.1703  0.4963 -0.8691
 3396SOL     OW11086   6.406   5.077   5.224 -0.3951  0.0892  0.1642
 3396SOL    HW111087   6.326   5.112   5.273 -0.8291 -0.4000 -0.1803
 3396SOL    HW211088   6.466   5.029   5.288 -2.1574 -2.7089 -0.0989
 3397SOL     OW11089   0.253   4.251   5.295  0.4128 -0.0684 -0.1123
 3397SOL    HW111090   0.301   4.275   5.210  2.1396  1.0067  1.1125
 3397SOL    HW211091   0.204   4.331   5.328 -0.0706 -0.4236  0.0280
 3398SOL     OW11092   2.588   5.143   0.377 -0.0967  0.1544  0.1836
 3398SOL    HW111093   2.573   5.091   0.293  1.2610  0.3312 -0.2001
 3398SOL    HW211094   2.621   5.082   0.449  1.4544  0.4288 -0.2536
 3399SOL     OW11095   1.818   4.933   0.106  0.0411  0.2012  0.1235
 3399SOL    HW111096   1.811   4.932   0.206 -0.9459 -0.7618  0.0596
 3399SOL    HW211097   1.836   4.841   0.073  0.2283  0.4941 -0.6013
 3400SOL     OW11098   3.435   3.914   2.592  0.1786 -0.1034  0.3019
 3400SOL    HW111099   3.478   4.001   2.616  0.3712 -0.1904  0.2749
 3400SOL    HW211100   3.465   3.843   2.657  0.4405 -0.2660  0.0078
 3401SOL     OW11101   0.433   1.913   5.027  0.2324  0.4584  0.2382
 3401SOL    HW111102   0.488   1.843   4.980  0.8991  1.3546 -0.3573
 3401SOL    HW211103   0.371   1.955   4.961 -0.7815 -0.1490  0.7872
 3402SOL     OW11104   2.530   6.354   1.956 -0.5560  0.3694 -0.2766
 3402SOL    HW111105   2.456   6.405   1.911  0.1107 -0.3076 -2.2189
 3402SOL    HW211106   2.496   6.265   1.986 -0.7420  0.4201 -0.3354
 3403SOL     OW11107   5.844   6.847   5.845  0.0727 -0.6324  0.0395
 3403SOL    HW111108   5.863   6.881   5.753 -1.0858  1.0868  0.3784
 3403SOL    HW211109   5.810   6.753   5.841  0.2119 -0.6369 -1.2561
 3404SOL     OW11110   3.729   3.809   1.494  0.0701  0.5716  0.4999
 3404SOL    HW111111   3.801   3.849   1.550  0.3613  2.1931 -0.9308
 3404SOL    HW211112   3.640   3.839   1.528 -0.0027 -1.4287  2.2642
 3405SOL     OW11113   4.822   6.255   1.447 -0.5783 -0.4538  0.2411
 3405SOL    HW111114   4.908   6.300   1.424 -0.9929  1.6721  2.4392
 3405SOL    HW211115   4.746   6.302   1.401 -0.8963  0.4108  1.5749
 3406SOL     OW11116   0.441   2.231   0.496 -0.4907  0.5882 -0.2457
 3406SOL    HW111117   0.356   2.264   0.457 -0.3196  0.2892 -0.8861
 3406SOL    HW211118   0.460   2.139   0.462  0.7822  1.1830 -1.2092
 3407SOL     OW11119   0.702   1.356   3.513 -0.2378 -0.3526  0.2884
 3407SOL    HW111120   0.743   1.324   3.598  0.0831 -1.3896 -0.2404
 3407SOL    HW211121   0.661   1.279   3.464 -0.1718  0.1745 -0.6310
 3408SOL     OW11122   6.599   1.072   1.650  0.3248 -0.4052  0.1346
 3408SOL    HW111123   6.651   1.083   1.565  0.9223  1.0512  0.6407
 3408SOL    HW211124   6.543   1.154   1.665 -1.8000 -1.7483 -0.1473
 3409SOL     OW11125   2.195   0.680   3.818  0.3455  0.2027  1.1169
 3409SOL    HW111126   2.294   0.694   3.828  0.5422  1.5328 -1.5571
 3409SOL    HW211127   2.171   0.589   3.850  2.8107 -0.9243  0.0597
 3410SOL     OW11128   1.642   5.412   3.692  0.2475  0.7152  0.3826
 3410SOL    HW111129   1.663   5.341   3.625  0.1138  1.6956 -0.7268
 3410SOL    HW211130   1.551   5.397   3.730  0.8876 -0.6653  1.4446
 3411SOL     OW11131   5.459   6.540   3.935  0.7435  0.0587 -0.0890
 3411SOL    HW111132   5.370   6.504   3.960  0.1848  1.3193 -0.1801
 3411SOL    HW211133   5.503   6.479   3.870  0.5002 -1.2151  0.9148
 3412SOL     OW11134   5.969   4.509   4.098  0.1652  0.0713  0.5442
 3412SOL    HW111135   6.009   4.587   4.145  0.7723 -0.7887  1.5045
 3412SOL    HW211136   5.884   4.537   4.052  1.2606  1.6784 -0.6176
 3413SOL     OW11137   1.048   1.047   6.515  0.2191 -0.2305  0.2732
 3413SOL    HW111138   1.051   1.021   6.611 -1.2156 -2.2708 -0.1654
 3413SOL    HW211139   1.124   1.109   6.495  0.9122 -0.2343  2.5509
 3414SOL     OW11140   3.110   6.189   4.374  0.4515 -0.2425 -0.0790
 3414SOL    HW111141   3.118   6.138   4.459 -0.6056  0.9145  0.7495
 3414SOL    HW211142   3.190   6.248   4.362  0.7699 -0.6728 -0.0738
 3415SOL     OW11143   0.906   5.088   2.351  0.7916 -0.3973  0.3383
 3415SOL    HW111144   1.002   5.110   2.330  0.7409 -0.8387 -0.4003
 3415SOL    HW211145   0.894   5.080   2.450  1.1728  1.2167  0.5367
 3416SOL     OW11146   6.113   4.558   4.811 -0.1759 -0.3751 -0.0742
 3416SOL    HW111147   6.166   4.475   4.829  0.1982 -0.2896 -0.7389
 3416SOL    HW211148   6.015   4.538   4.822 -0.0111 -0.3976  1.6988
 3417SOL     OW11149   5.115   6.698   0.134  0.0322 -0.4271 -0.3666
 3417SOL    HW111150   5.120   6.770   0.203 -1.3187  0.6579 -1.3239
 3417SOL    HW211151   5.058   6.623   0.168 -1.9878  0.8220 -0.8419
 3418SOL     OW11152   3.926   1.832   4.850 -0.0308  0.8012 -0.4617
 3418SOL    HW111153   3.849   1.769   4.861  0.0539  0.9507  1.2066
 3418SOL    HW211154   3.891   1.926   4.850 -0.0980  0.8227 -2.3974
 3419SOL     OW11155   4.962   3.488   4.859  0.0558 -0.1541 -0.6293
 3419SOL    HW111156   5.057   3.481   4.890  0.0010 -0.1294 -0.4551
 3419SOL    HW211157   4.907   3.528   4.931 -0.1906 -0.6785 -0.5256
 3420SOL     OW11158   6.689   3.279   4.432 -0.5601 -0.2600 -0.0883
 3420SOL    HW111159   6.682   3.296   4.334  0.4526 -0.3881 -0.1945
 3420SOL    HW211160   6.765   3.331   4.470 -1.1099 -0.0056  0.6880
 3421SOL     OW11161   3.714   4.975   0.866  0.1690  0.4331  0.0181
 3421SOL    HW111162   3.813   4.991   0.869  0.0745  0.9290  0.5981
 3421SOL    HW211163   3.669   5.033   0.934 -0.5766  0.6346 -0.6368
 3422SOL     OW11164   2.264   0.991   5.372 -0.1425 -0.0484  0.4305
 3422SOL    HW111165   2.253   0.941   5.458  0.4760 -1.1567 -0.1209
 3422SOL    HW211166   2.175   1.000   5.327 -0.0609 -1.9405 -0.1579
 3423SOL     OW11167   6.472   6.310   6.439 -0.2037  0.1393 -0.6224
 3423SOL    HW111168   6.405   6.378   6.408 -1.4066 -0.4029  0.7022
 3423SOL    HW211169   6.463   6.227   6.383  0.1011  0.4352 -1.1246
 3424SOL     OW11170   0.431   5.243   2.327  0.2204  0.1452 -0.5792
 3424SOL    HW111171   0.404   5.307   2.256 -0.0911  2.0693  1.1905
 3424SOL    HW211172   0.404   5.150   2.300 -3.4493  1.2476 -1.2724
 3425SOL     OW11173   1.637   1.011   5.945  0.0593 -0.0747  0.3127
 3425SOL    HW111174   1.596   1.078   5.884 -1.8944 -2.0757 -0.7238
 3425SOL    HW211175   1.687   0.943   5.892  1.3454  0.0721  1.2731
 3426SOL     OW11176   0.208   5.197   4.242  0.1915 -0.2745 -0.1585
 3426SOL    HW111177   0.271   5.137   4.193  0.5374  0.6274 -0.8378
 3426SOL    HW211178   0.115   5.183   4.208  0.1379 -0.9974  0.2568
 3427SOL     OW11179   1.569   3.041   0.333 -0.6714  0.3709  0.1069
 3427SOL    HW111180   1.482   3.064   0.374 -1.4653 -1.9512 -0.1216
 3427SOL    HW211181   1.638   3.028   0.404 -0.9713  0.4571  0.4118
 3428SOL     OW11182   1.654   3.271   3.343  0.2748 -0.0371 -0.1201
 3428SOL    HW111183   1.646   3.314   3.433  1.1578  1.8528 -0.8906
 3428SOL    HW211184   1.614   3.179   3.346 -1.1418  0.5763  1.7792
 3429SOL     OW11185   6.388   6.034   3.269  0.2998 -0.0136  0.2800
 3429SOL    HW111186   6.412   6.103   3.201 -0.8366 -0.6788 -0.8188
 3429SOL    HW211187   6.425   6.062   3.358  1.0953  1.2799 -0.4175
 3430SOL     OW11188   0.636   3.079   2.051 -0.6132 -0.0054 -0.6587
 3430SOL    HW111189   0.683   3.167   2.042  0.0243 -0.4650 -2.0794
 3430SOL    HW211190   0.641   3.029   1.965 -1.6340 -1.1228 -0.1081
 3431SOL     OW11191   4.060   3.563   6.446  0.0699  0.4177  0.0073
 3431SOL    HW111192   4.013   3.598   6.365  0.1541 -1.8040 -1.0856
 3431SOL    HW211193   4.155   3.541   6.422  0.0960 -0.2684  0.6865
 3432SOL     OW11194   1.768   3.205   2.581  0.2051 -0.6278 -0.0675
 3432SOL    HW111195   1.709   3.153   2.519  0.7933  0.8592 -2.0008
 3432SOL    HW211196   1.712   3.269   2.634 -0.1079 -0.3934 -0.6680
 3433SOL     OW11197   0.805   2.130   3.789  0.4159  0.2598 -0.7077
 3433SOL    HW111198   0.877   2.060   3.786 -0.4985 -0.7053 -3.5874
 3433SOL    HW211199   0.843   2.216   3.823  2.1652 -0.9728  0.6307
 3434SOL     OW11200   5.468   1.725   3.652  0.0731  0.1915 -0.2697
 3434SOL    HW111201   5.522   1.641   3.641  0.5120  0.3417  0.6262
 3434SOL    HW211202   5.395   1.708   3.718 -0.7613  0.0980 -1.2011
 3435SOL     OW11203   4.308   1.087   6.480 -0.1403 -0.3345 -0.2272
 3435SOL    HW111204   4.363   1.147   6.421  2.1589 -0.5700  1.5270
 3435SOL    HW211205   4.211   1.106   6.466  0.2537 -0.3610 -3.9966
 3436SOL     OW11206   2.878   2.261   2.598  0.8381 -0.2232  0.4706
 3436SOL    HW111207   2.871   2.223   2.505  2.3558 -0.0826  0.2724
 3436SOL    HW211208   2.937   2.202   2.653 -1.2528 -1.1577  1.8520
 3437SOL     OW11209   0.407   2.319   0.116  0.0300 -0.3731  0.2578
 3437SOL    HW111210   0.425   2.395   0.179 -0.2751 -1.1018  1.2424
 3437SOL    HW211211   0.483   2.254   0.119 -0.2980 -0.7523  0.3867
 3438SOL     OW11212   1.381   6.984   0.038  0.0775 -0.4948  0.6478
 3438SOL    HW111213   1.381   6.977  -0.062 -1.5565  0.0703  0.5786
 3438SOL    HW211214   1.390   7.080   0.064  0.0897 -0.6002  1.0325
 3439SOL     OW11215   1.536   3.537   6.481  0.3395  0.1168  0.6478
 3439SOL    HW111216   1.518   3.571   6.388 -1.0460 -0.4773  0.6854
 3439SOL    HW211217   1.576   3.446   6.476 -0.1408 -0.0912  0.6528
 3440SOL     OW11218   6.644   4.178   2.144  0.7993  0.0085  0.4071
 3440SOL    HW111219   6.565   4.224   2.185  0.4755 -1.2638  1.2855
 3440SOL    HW211220   6.726   4.233   2.157 -0.0777  1.8750 -1.4693
 3441SOL     OW11221   0.826   5.315   0.732 -0.0991  0.0685  0.2086
 3441SOL    HW111222   0.830   5.286   0.636 -0.1606  1.1869 -0.1597
 3441SOL    HW211223   0.862   5.243   0.791  0.8623 -0.2547 -0.7445
 3442SOL     OW11224   0.168   5.250   0.107 -0.3960 -0.2232 -0.2673
 3442SOL    HW111225   0.183   5.312   0.029  1.6233  0.9520  0.9399
 3442SOL    HW211226   0.073   5.255   0.136 -0.4536  1.9436 -0.6031
 3443SOL     OW11227   0.806   1.986   4.488 -0.1303  0.5151  0.1591
 3443SOL    HW111228   0.892   2.031   4.513  0.4268  0.1729 -1.0823
 3443SOL    HW211229   0.779   1.924   4.561  1.1135  0.0093  0.2209
 3444SOL     OW11230   0.690   3.712   3.698  0.3815 -0.1315  0.0048
 3444SOL    HW111231   0.699   3.810   3.719 -0.0838  0.4267 -2.0877
 3444SOL    HW211232   0.652   3.702   3.606  1.9597 -2.2922 -0.4792
 3445SOL     OW11233   0.753   1.394   5.547 -0.0223 -0.0429  0.2917
 3445SOL    HW111234   0.824   1.441   5.495  0.1589  0.8660  1.3361
 3445SOL    HW211235   0.795   1.343   5.622 -0.2179 -1.8856 -0.7820
 3446SOL     OW11236   4.091   5.899   4.971  0.1293 -0.3147  0.3603
 3446SOL    HW111237   4.096   5.822   5.034  0.9415  0.2673  1.0430
 3446SOL    HW211238   4.001   5.942   4.977 -0.1549 -0.9058  0.3461
 3447SOL     OW11239   1.385   1.473   3.320 -0.3114 -0.2321  0.4488
 3447SOL    HW111240   1.360   1.483   3.416 -1.3470 -0.1538  0.1827
 3447SOL    HW211241   1.325   1.405   3.277 -0.8861  0.8556 -0.5135
 3448SOL     OW11242   6.942   3.217   6.012  0.5256 -0.2433 -0.0275
 3448SOL    HW111243   7.006   3.278   5.966 -1.7544  0.5464 -2.3976
 3448SOL    HW211244   6.849   3.252   6.002 -0.5725 -2.5473  1.2088
 3449SOL     OW11245   6.082   5.023   5.600  0.6362  0.6166  0.4907
 3449SOL    HW111246   6.060   5.002   5.505 -1.3924  0.5478  0.9311
 3449SOL    HW211247   5.999   5.016   5.656  1.9978 -0.5502  2.4931
 3450SOL     OW11248   6.361   0.229   4.522  0.3193 -0.6570 -0.0364
 3450SOL    HW111249   6.393   0.318   4.556 -3.1294  1.1622 -1.1418
 3450SOL    HW211250   6.278   0.202   4.571  1.8148 -3.9387  1.0086
 3451SOL     OW11251   5.354   6.116   5.991  0.1502  0.5829 -0.1497
 3451SOL    HW111252   5.270   6.093   6.042  0.6046  0.1492  0.4135
 3451SOL    HW211253   5.340   6.096   5.894 -0.2438  0.0503  0.0096
 3452SOL     OW11254   5.710   5.420   2.093  0.0196  0.2738 -0.1149
 3452SOL    HW111255   5.797   5.442   2.051 -0.1824 -0.9464 -1.2367
 3452SOL    HW211256   5.724   5.354   2.167  0.2480  1.6078  1.0825
 3453SOL     OW11257   1.691   4.096   2.054  0.0587  0.3855  0.0605
 3453SOL    HW111258   1.652   4.032   1.988 -2.5677  0.9062  0.9555
 3453SOL    HW211259   1.762   4.051   2.108 -0.3673 -1.1498 -0.6290
 3454SOL     OW11260   5.883   2.449   0.020  0.0379  0.2858  0.4856
 3454SOL    HW111261   5.816   2.422   0.088 -0.5859  1.4006  0.3423
 3454SOL    HW211262   5.973   2.414   0.046 -0.1206  0.9626  2.0609
 3455SOL     OW11263   0.077   1.158   3.295 -0.3354 -0.1315  0.4793
 3455SOL    HW111264   0.156   1.203   3.335 -0.5355  0.0609  0.6598
 3455SOL    HW211265   0.106   1.073   3.250  0.1105  0.3955 -0.2590
 3456SOL     OW11266   1.441   2.434   3.357  0.1064 -0.3266  0.0288
 3456SOL    HW111267   1.376   2.509   3.368 -0.6271 -0.4279 -2.7373
 3456SOL    HW211268   1.534   2.470   3.362 -0.2235  0.5894 -0.2340
 3457SOL     OW11269   0.554   2.060   2.751 -0.5869  0.3254 -0.1230
 3457SOL    HW111270   0.629   2.062   2.817  0.0982 -0.5199 -0.8637
 3457SOL    HW211271   0.509   1.971   2.755 -0.6260  0.3172 -0.7067
 3458SOL     OW11272   0.157   6.233   3.838 -0.4162  0.1061  0.2668
 3458SOL    HW111273   0.109   6.321   3.838  0.8856  0.9283 -2.3203
 3458SOL    HW211274   0.244   6.243   3.887 -0.2424  0.3218 -0.0744
 3459SOL     OW11275   0.182   3.009   4.507 -0.0848  0.2020  0.0749
 3459SOL    HW111276   0.181   3.066   4.425 -3.9004  0.5533  0.1574
 3459SOL    HW211277   0.137   3.058   4.582  1.5264 -0.8682  1.8423
 3460SOL     OW11278   6.223   0.940   1.161 -0.0315 -0.4671  0.4117
 3460SOL    HW111279   6.135   0.934   1.115  0.3191 -1.8006 -0.1487
 3460SOL    HW211280   6.219   0.887   1.246  0.3742 -1.0080  0.1037
 3461SOL     OW11281   6.719   3.382   5.990 -0.2799 -0.0696  0.1986
 3461SOL    HW111282   6.756   3.437   6.064 -0.8103 -1.3026  1.4387
 3461SOL    HW211283   6.623   3.404   5.976 -0.4823 -0.6254  0.6691
 3462SOL     OW11284   1.495   5.936   1.945 -0.2484  0.1407  0.4472
 3462SOL    HW111285   1.397   5.938   1.962 -0.1842 -0.1493  0.9075
 3462SOL    HW211286   1.515   5.965   1.852 -0.8847 -1.0867 -0.0899
 3463SOL     OW11287   2.064   1.086   4.224 -0.3521 -0.7351  0.2354
 3463SOL    HW111288   2.025   1.031   4.150  0.2333  0.3053 -0.8766
 3463SOL    HW211289   2.097   1.172   4.187  0.0813 -0.2508  1.7067
 3464SOL     OW11290   1.621   5.586   2.967 -0.0078 -0.4682  0.9089
 3464SOL    HW111291   1.536   5.534   2.966 -0.7474  0.6223 -1.6657
 3464SOL    HW211292   1.609   5.671   3.018 -0.3547 -0.4879  0.8563
 3465SOL     OW11293   4.981   3.597   4.434  0.1912  0.3823  0.0350
 3465SOL    HW111294   5.069   3.579   4.478 -0.8228  0.1799  2.0743
 3465SOL    HW211295   4.991   3.584   4.335  1.8556 -2.0998  0.4262
 3466SOL     OW11296   4.043   3.708   2.332 -0.0011  0.8794 -0.1955
 3466SOL    HW111297   4.009   3.645   2.402  0.5099  0.7484 -0.0612
 3466SOL    HW211298   4.104   3.659   2.270 -1.5029  0.6622 -1.5667
 3467SOL     OW11299   0.039   3.552   3.731 -0.1899  0.3918  0.1964
 3467SOL    HW111300   0.036   3.476   3.667  2.4228  0.7725 -0.5068
 3467SOL    HW211301   0.000   3.523   3.819 -1.4398 -0.9489 -0.7501
 3468SOL     OW11302   4.382   2.290   0.347  0.0543  0.0747  0.2446
 3468SOL    HW111303   4.309   2.353   0.318 -2.4883 -2.4886  0.6654
 3468SOL    HW211304   4.362   2.255   0.438  1.2377 -1.5421 -0.0706
 3469SOL     OW11305   5.394   4.617   6.120 -0.1488 -0.0575  0.4233
 3469SOL    HW111306   5.451   4.537   6.104 -0.5745  0.0354 -2.0055
 3469SOL    HW211307   5.396   4.676   6.039 -2.9936  0.3672  0.5447
 3470SOL     OW11308   0.783   3.185   1.296  0.1297  0.4360 -0.6300
 3470SOL    HW111309   0.747   3.159   1.206  1.2199  1.6206 -1.4482
 3470SOL    HW211310   0.708   3.218   1.353 -0.7366 -1.2758 -0.7221
 3471SOL     OW11311   1.486   6.263   5.967 -0.0892  0.4137  0.2961
 3471SOL    HW111312   1.415   6.194   5.978 -1.2204  1.8677  2.9781
 3471SOL    HW211313   1.560   6.246   6.033  0.7300  0.5017 -0.5772
 3472SOL     OW11314   6.975   6.573   4.232 -0.4692 -0.2607  0.0683
 3472SOL    HW111315   6.976   6.666   4.269 -1.6042 -0.4726  0.6755
 3472SOL    HW211316   6.901   6.564   4.165 -1.1348 -1.0349  0.8862
 3473SOL     OW11317   3.272   6.997   4.464  0.1111  0.7379  0.7408
 3473SOL    HW111318   3.191   7.039   4.504  0.6344  0.4291  2.1703
 3473SOL    HW211319   3.245   6.913   4.415 -0.3162  0.0145  2.1670
 3474SOL     OW11320   5.005   4.288   5.686 -0.2763 -0.2113  0.0417
 3474SOL    HW111321   4.958   4.348   5.751  1.1839  0.7454  0.2595
 3474SOL    HW211322   4.939   4.252   5.620 -1.9135 -1.5719  2.2507
 3475SOL     OW11323   5.880   1.744   3.672 -0.5544 -0.2310 -0.1536
 3475SOL    HW111324   5.799   1.687   3.663 -0.4949 -0.7506  2.0952
 3475SOL    HW211325   5.898   1.790   3.585 -3.2039 -0.1340 -0.7384
 3476SOL     OW11326   0.174   1.102   4.814 -0.3312  0.3074 -0.3572
 3476SOL    HW111327   0.230   1.175   4.775 -0.6068  1.2202  0.8957
 3476SOL    HW211328   0.202   1.014   4.775  1.2754  0.8617 -0.5346
 3477SOL     OW11329   3.809   6.868   4.846  0.4778  0.1993 -0.1791
 3477SOL    HW111330   3.881   6.891   4.781  1.4250 -1.9552  0.0359
 3477SOL    HW211331   3.761   6.786   4.814 -1.2564  1.0267  0.1895
 3478SOL     OW11332   1.041   3.195   1.428  0.2285 -0.6043 -0.1837
 3478SOL    HW111333   0.955   3.218   1.383 -0.6985 -1.7151  0.9445
 3478SOL    HW211334   1.113   3.185   1.360 -0.5981  0.0287 -1.1793
 3479SOL     OW11335   0.239   5.643   1.075  0.2359 -0.0149 -0.7862
 3479SOL    HW111336   0.304   5.569   1.093 -1.5983 -1.2327  1.4982
 3479SOL    HW211337   0.226   5.697   1.158 -1.8123 -0.0191 -1.0413
 3480SOL     OW11338   5.334   1.441   1.340  0.1270  0.5076 -0.1506
 3480SOL    HW111339   5.404   1.421   1.409 -0.1230  2.4470  0.7183
 3480SOL    HW211340   5.353   1.529   1.298 -1.0872  0.4548 -0.8560
 3481SOL     OW11341   6.776   4.894   3.827 -0.5314 -0.9957 -0.0119
 3481SOL    HW111342   6.701   4.955   3.849  0.0869 -0.0500 -0.4706
 3481SOL    HW211343   6.857   4.947   3.801  0.1667 -1.9937  0.0374
 3482SOL     OW11344   3.444   1.539   0.087  0.2926  0.9820  0.3419
 3482SOL    HW111345   3.397   1.501   0.166 -0.2021  1.0549  0.0941
 3482SOL    HW211346   3.376   1.560   0.016  0.8887 -0.7213 -0.7993
 3483SOL     OW11347   6.182   3.918   1.027  0.1042  0.0802  0.1344
 3483SOL    HW111348   6.237   3.840   1.056  1.6210  0.7821 -0.7697
 3483SOL    HW211349   6.176   3.984   1.102 -0.9541 -0.7324  0.8052
 3484SOL     OW11350   2.225   2.652   0.939 -0.3360  0.5751  0.2464
 3484SOL    HW111351   2.225   2.606   0.850  1.3670  0.5641  0.2233
 3484SOL    HW211352   2.222   2.751   0.926  2.7648  0.7323 -0.0119
 3485SOL     OW11353   0.675   0.848   6.408  0.7964 -0.0140 -0.3681
 3485SOL    HW111354   0.618   0.809   6.481  1.1360  0.8365  0.3729
 3485SOL    HW211355   0.622   0.917   6.358  1.2815  1.1253  0.6293
 3486SOL     OW11356   4.553   5.294   3.668 -0.0008 -0.0353  0.1538
 3486SOL    HW111357   4.548   5.344   3.582  1.4088  1.4626  0.8958
 3486SOL    HW211358   4.616   5.216   3.659  0.9051  0.6915  0.0726
 3487SOL     OW11359   6.065   4.594   2.740 -0.6438  0.3230 -0.0958
 3487SOL    HW111360   6.156   4.568   2.775  0.5375  1.1649 -2.3287
 3487SOL    HW211361   6.008   4.512   2.734  0.0893 -0.3024  0.9487
 3488SOL     OW11362   2.822   2.180   0.013 -0.1312  0.6498 -0.3600
 3488SOL    HW111363   2.745   2.195   0.076 -0.1761 -1.2231  0.0853
 3488SOL    HW211364   2.787   2.151  -0.076  0.0474 -1.2138  0.1437
 3489SOL     OW11365   4.188   1.754   5.883 -0.3412  0.1462 -0.3668
 3489SOL    HW111366   4.223   1.665   5.912  1.1133  0.1828 -1.8625
 3489SOL    HW211367   4.212   1.824   5.950 -1.5599 -0.5678  0.8560
 3490SOL     OW11368   2.239   6.441   0.189  0.2369 -0.4339  0.1163
 3490SOL    HW111369   2.252   6.481   0.098 -0.1079 -0.2791  0.1316
 3490SOL    HW211370   2.149   6.398   0.193 -0.0065  0.1041  0.5810
 3491SOL     OW11371   3.524   6.884   5.434  0.4690 -0.7446 -1.0578
 3491SOL    HW111372   3.498   6.905   5.528 -0.0302  0.4559 -1.4377
 3491SOL    HW211373   3.582   6.803   5.432  1.2847 -0.2199  0.3889
 3492SOL     OW11374   5.942   2.326   1.574 -0.6035  0.0841  0.1086
 3492SOL    HW111375   5.876   2.285   1.638  1.1548 -1.5763  0.9599
 3492SOL    HW211376   5.975   2.412   1.611 -1.3155  0.2837  0.2994
 3493SOL     OW11377   1.040   0.202   0.034  0.2737  0.1619  0.0179
 3493SOL    HW111378   1.055   0.166  -0.058 -1.7707  1.5597 -0.9300
 3493SOL    HW211379   0.985   0.137   0.087 -0.6006  0.4078 -0.5758
 3494SOL     OW11380   2.887   6.704   1.643  0.4088  0.1760 -0.3678
 3494SOL    HW111381   2.941   6.647   1.705 -1.0668  0.0001  0.8178
 3494SOL    HW211382   2.899   6.800   1.668 -0.4848  0.0823  0.4842
 3495SOL     OW11383   1.945   5.227   4.030  0.6370 -0.6731 -0.0412
 3495SOL    HW111384   1.956   5.167   4.110 -1.3838 -1.2670 -0.1524
 3495SOL    HW211385   1.868   5.288   4.045  1.8436  1.0418 -0.5043
 3496SOL     OW11386   2.257   2.098   3.148  0.3883  0.3080 -0.0143
 3496SOL    HW111387   2.248   2.182   3.201 -0.4103  1.4380 -1.8230
 3496SOL    HW211388   2.301   2.119   3.060  0.4150 -1.2107 -0.3863
 3497SOL     OW11389   0.014   1.205   6.858 -0.0994 -0.4371  0.1330
 3497SOL    HW111390  -0.064   1.219   6.918 -0.0806  0.2082  0.0133
 3497SOL    HW211391  -0.014   1.150   6.779 -0.2068 -0.9843  0.5440
 3498SOL     OW11392   5.746   3.879   5.912 -0.7903  0.6458 -0.0493
 3498SOL    HW111393   5.789   3.820   5.981  1.1415  2.8722  0.8124
 3498SOL    HW211394   5.692   3.949   5.959  0.3250  2.0235 -0.7529
 3499SOL     OW11395   2.598   4.644   3.619  0.2975 -0.1506 -0.5198
 3499SOL    HW111396   2.569   4.556   3.657  2.1519 -1.1838 -1.3451
 3499SOL    HW211397   2.658   4.690   3.684 -0.4250  0.3749 -0.2178
 3500SOL     OW11398   3.872   2.459   1.643 -0.0109  0.4473 -0.1524
 3500SOL    HW111399   3.799   2.443   1.710 -1.3378  0.1974 -1.5940
 3500SOL    HW211400   3.844   2.533   1.581  1.2989  0.8563 -0.2830
 3501SOL     OW11401   2.401   6.837   3.186 -0.2130 -0.5685 -0.4208
 3501SOL    HW111402   2.426   6.747   3.150 -1.3758 -0.1459 -2.4355
 3501SOL    HW211403   2.451   6.908   3.136 -0.2925 -0.0261  0.2531
 3502SOL     OW11404   1.389   1.241   0.042 -0.3131  0.6982  0.0441
 3502SOL    HW111405   1.436   1.305   0.103 -0.3624  1.3101 -0.5552
 3502SOL    HW211406   1.293   1.268   0.033 -0.3673  0.4614 -0.1106
 3503SOL     OW11407   1.383   4.264   0.330  0.4945  0.2654 -0.3162
 3503SOL    HW111408   1.443   4.186   0.348  1.4688  1.3222  1.2689
 3503SOL    HW211409   1.415   4.343   0.382 -0.6380  1.6622 -1.6485
 3504SOL     OW11410   4.924   2.962   0.420 -0.4004  0.6425  0.6598
 3504SOL    HW111411   4.896   2.932   0.329  0.2933  0.9431  0.3423
 3504SOL    HW211412   4.850   3.015   0.462 -1.3655 -0.8577  0.9413
 3505SOL     OW11413   3.272   2.127   6.499 -0.7209 -0.3489  0.7392
 3505SOL    HW111414   3.215   2.143   6.579 -0.6089 -0.1469  0.7803
 3505SOL    HW211415   3.362   2.093   6.527 -0.3037  0.7494  0.7759
 3506SOL     OW11416   6.406   6.872   1.799  0.1587  0.2298  0.0694
 3506SOL    HW111417   6.313   6.862   1.764 -0.4920  0.8124  1.5702
 3506SOL    HW211418   6.471   6.864   1.723 -1.1636  1.1514 -1.2050
 3507SOL     OW11419   6.877   1.572   1.591 -0.0307  0.6932  0.0475
 3507SOL    HW111420   6.919   1.487   1.624 -1.4499 -0.1670 -0.2532
 3507SOL    HW211421   6.948   1.640   1.574  1.2309 -0.6849 -0.4248
 3508SOL     OW11422   6.014   5.963   1.773  0.1556 -0.3511 -0.1416
 3508SOL    HW111423   5.985   5.999   1.862 -1.3791 -0.2823 -0.6344
 3508SOL    HW211424   6.094   6.015   1.740  1.1262 -0.7830  1.4451
 3509SOL     OW11425   1.162   4.787   6.073 -0.1377 -0.2355 -0.1299
 3509SOL    HW111426   1.245   4.779   6.129 -0.4841  2.2291  0.8648
 3509SOL    HW211427   1.083   4.758   6.127 -0.0704 -1.6988 -0.7686
 3510SOL     OW11428   5.623   1.926   4.665 -0.3699 -0.8684 -0.5193
 3510SOL    HW111429   5.584   1.938   4.757 -0.2764  1.2859 -0.7164
 3510SOL    HW211430   5.721   1.944   4.668 -0.7508  1.7602 -1.4310
 3511SOL     OW11431   4.155   6.895   5.936  0.3541 -0.1222 -0.5721
 3511SOL    HW111432   4.192   6.979   5.977  0.8578 -1.1770  1.2286
 3511SOL    HW211433   4.058   6.888   5.957  1.1159 -2.0849  3.2887
 3512SOL     OW11434   4.783   0.596   2.020  0.0934 -0.2178  0.1043
 3512SOL    HW111435   4.724   0.629   1.946  1.9861  2.4204 -0.3900
 3512SOL    HW211436   4.848   0.529   1.984 -1.8092 -2.3487  0.4355
 3513SOL     OW11437   6.721   0.743   3.883  0.5245  0.2660 -0.5082
 3513SOL    HW111438   6.739   0.810   3.955  3.0972 -1.1727  0.3115
 3513SOL    HW211439   6.684   0.789   3.802 -1.4667  2.0855  1.2841
 3514SOL     OW11440   6.313   6.689   2.442 -0.5325  0.4911  0.0152
 3514SOL    HW111441   6.267   6.603   2.465 -0.1363  0.2589 -0.0509
 3514SOL    HW211442   6.353   6.683   2.351 -0.7350  0.8450 -0.1004
 3515SOL     OW11443   4.763   1.841   4.038 -0.4639 -0.3657 -0.5068
 3515SOL    HW111444   4.750   1.750   3.998  0.0313 -1.0769  0.8946
 3515SOL    HW211445   4.830   1.836   4.111 -0.7792  1.0515 -0.0882
 3516SOL     OW11446   3.257   6.637   3.934  0.2362  0.5409  0.4852
 3516SOL    HW111447   3.353   6.658   3.953  0.9372 -1.7841 -0.1370
 3516SOL    HW211448   3.228   6.561   3.992 -0.3008 -0.7014 -1.3398
 3517SOL     OW11449   0.405   3.942   4.256 -0.8070 -0.0662 -0.1352
 3517SOL    HW111450   0.406   3.977   4.350 -1.0720 -1.3905  0.3884
 3517SOL    HW211451   0.312   3.949   4.219 -0.2627  2.6796 -1.2249
 3518SOL     OW11452   6.649   2.472   2.258  0.5628  0.0992 -0.9005
 3518SOL    HW111453   6.617   2.395   2.204 -0.8488 -0.1485  0.2226
 3518SOL    HW211454   6.697   2.537   2.199  0.8608 -1.1279 -2.0435
 3519SOL     OW11455   3.481   0.598   2.862  0.0053 -0.1881 -0.2153
 3519SOL    HW111456   3.546   0.658   2.910 -1.4820  2.1599 -0.9844
 3519SOL    HW211457   3.395   0.595   2.913 -0.7608  0.3356 -1.4409
 3520SOL     OW11458   6.120   6.472   4.302  0.4066 -0.1139  0.4812
 3520SOL    HW111459   6.175   6.414   4.241  0.7023 -0.9802  1.5417
 3520SOL    HW211460   6.062   6.414   4.359  0.5163  0.6445  1.3867
 3521SOL     OW11461   4.374   4.280   6.677 -0.0984  0.1748 -0.5586
 3521SOL    HW111462   4.360   4.228   6.593 -0.1058  0.1992 -0.5728
 3521SOL    HW211463   4.471   4.299   6.689 -0.1802  1.0144 -1.0767
 3522SOL     OW11464   5.333   5.345   6.009  0.2506  0.4875 -0.1433
 3522SOL    HW111465   5.390   5.426   5.994  0.6555  0.2080 -0.1527
 3522SOL    HW211466   5.360   5.301   6.095  1.8499 -1.0809 -1.3558
 3523SOL     OW11467   5.483   6.705   4.908 -0.2860  0.3299  1.0083
 3523SOL    HW111468   5.473   6.741   5.000 -1.0497 -0.3728  1.2099
 3523SOL    HW211469   5.530   6.772   4.851 -1.5975  1.6221  1.3889
 3524SOL     OW11470   4.224   0.697   0.040 -0.2773  0.1362  0.3936
 3524SOL    HW111471   4.234   0.732  -0.053 -0.2882  1.2998  0.8092
 3524SOL    HW211472   4.202   0.773   0.102  0.6277 -0.4672  1.4925
 3525SOL     OW11473   4.090   0.486   1.501  0.3766  0.3775  0.3583
 3525SOL    HW111474   4.159   0.553   1.527 -0.3270  1.7292 -1.1000
 3525SOL    HW211475   4.131   0.419   1.438  0.9980 -0.4108  1.5699
 3526SOL     OW11476   6.844   4.917   5.597 -0.1991  0.4160  0.2816
 3526SOL    HW111477   6.765   4.860   5.620  0.1838 -0.2075  0.0676
 3526SOL    HW211478   6.852   4.925   5.498  0.3104  0.0536  0.2936
 3527SOL     OW11479   4.219   4.908   1.412  0.1247  0.3397 -0.6528
 3527SOL    HW111480   4.261   4.905   1.502 -1.6828  1.8561  0.3214
 3527SOL    HW211481   4.214   4.815   1.374  1.8807 -0.1855  0.2935
 3528SOL     OW11482   0.786   4.669   5.929 -0.3849 -0.0891  0.3947
 3528SOL    HW111483   0.858   4.686   5.996  1.8312  0.3542 -1.9319
 3528SOL    HW211484   0.815   4.597   5.866 -1.1214  1.3447 -1.7210
 3529SOL     OW11485   0.655   4.707   2.210 -0.0608  0.5434  0.5720
 3529SOL    HW111486   0.687   4.797   2.180 -0.6546  0.4630 -0.3433
 3529SOL    HW211487   0.734   4.648   2.228  0.4560 -0.2216 -3.3449
 3530SOL     OW11488   1.879   0.792   3.269 -0.1378 -0.0661  0.2960
 3530SOL    HW111489   1.899   0.883   3.233  0.1679 -0.2255  0.0581
 3530SOL    HW211490   1.956   0.761   3.325 -1.3219  0.9290  2.6167
 3531SOL     OW11491   6.794   4.739   6.677  0.3247 -0.3638  0.1739
 3531SOL    HW111492   6.827   4.657   6.726 -2.7125 -0.4685  2.3300
 3531SOL    HW211493   6.865   4.771   6.615  3.0614 -2.4401  1.9793
 3532SOL     OW11494   5.979   5.658   4.695  0.1908  0.2506 -0.0878
 3532SOL    HW111495   5.915   5.735   4.691 -0.4299 -0.2644 -0.3393
 3532SOL    HW211496   5.945   5.590   4.760  0.3759 -0.1199 -0.3739
 3533SOL     OW11497   0.131   2.523   4.837  0.1232  0.0353 -0.2000
 3533SOL    HW111498   0.095   2.471   4.914  0.0458 -2.3141 -1.6903
 3533SOL    HW211499   0.057   2.542   4.772  0.3732  1.0417 -0.1990
 3534SOL     OW11500   0.995   0.943   0.774  0.5468 -0.1062  0.0450
 3534SOL    HW111501   0.905   0.901   0.768  0.3418  0.2406  0.6208
 3534SOL    HW211502   1.063   0.884   0.730  0.0762 -0.4622 -0.2128
 3535SOL     OW11503   5.377   4.344   1.365  0.0633  0.2144 -0.2372
 3535SOL    HW111504   5.435   4.417   1.330  0.7224  0.3431  1.0496
 3535SOL    HW211505   5.297   4.383   1.409  0.1452  0.1356 -0.0191
 3536SOL     OW11506   4.597   3.874   1.668  0.2060 -0.0457 -0.2779
 3536SOL    HW111507   4.589   3.782   1.707  1.1571  0.6794  1.7547
 3536SOL    HW211508   4.506   3.915   1.662 -0.4643 -1.6292 -2.7552
 3537SOL     OW11509   0.186   0.974   2.359  0.2019 -0.1154 -0.3777
 3537SOL    HW111510   0.139   1.012   2.279 -0.6340 -0.8769 -0.2663
 3537SOL    HW211511   0.165   0.876   2.367  1.8723 -0.4973 -0.3497
 3538SOL     OW11512   4.245   0.131   6.011 -0.1375 -0.7333 -0.3552
 3538SOL    HW111513   4.174   0.173   6.068  0.6544  2.7148 -1.6840
 3538SOL    HW211514   4.333   0.136   6.058 -0.1751 -1.9935 -0.1014
 3539SOL     OW11515   5.067   6.072   4.040 -0.0238  0.2024  0.6758
 3539SOL    HW111516   5.048   6.093   3.945  0.6190  2.9663  1.0780
 3539SOL    HW211517   5.157   6.029   4.047  0.8764  1.9143  0.1662
 3540SOL     OW11518   3.763   5.006   4.818 -0.2610  0.0802 -0.1143
 3540SOL    HW111519   3.739   4.954   4.736 -2.2262  0.3485  0.2576
 3540SOL    HW211520   3.681   5.024   4.872  1.2272 -2.0870  3.1624
 3541SOL     OW11521   4.757   6.254   1.710 -0.2382  0.6512 -0.1443
 3541SOL    HW111522   4.775   6.239   1.612  0.6102 -1.8573  0.3108
 3541SOL    HW211523   4.658   6.246   1.727 -0.3185  0.3969 -0.7031
 3542SOL     OW11524   1.738   3.580   1.375  0.1809  0.0586 -0.1715
 3542SOL    HW111525   1.638   3.585   1.364  0.0941  0.9380  0.8406
 3542SOL    HW211526   1.782   3.614   1.292 -0.3294 -1.3277 -1.0502
 3543SOL     OW11527   5.663   2.869   1.496 -0.1727  0.4773 -0.2812
 3543SOL    HW111528   5.601   2.855   1.418 -0.0136  1.6759 -0.6466
 3543SOL    HW211529   5.614   2.849   1.581 -0.6682  0.1789 -0.6301
 3544SOL     OW11530   5.288   3.045   6.167 -0.1350 -0.1426 -0.4721
 3544SOL    HW111531   5.225   2.971   6.188  0.6602 -0.8530 -0.5209
 3544SOL    HW211532   5.381   3.008   6.158  0.6558  1.1532  1.6182
 3545SOL     OW11533   0.043   6.169   6.371 -0.0334  0.4280 -0.1758
 3545SOL    HW111534   0.091   6.255   6.357  0.3526  0.0362 -1.4625
 3545SOL    HW211535  -0.054   6.188   6.389  0.5929  1.2300  2.7756
 3546SOL     OW11536   3.518   4.876   2.309  0.0865 -0.6410  0.0995
 3546SOL    HW111537   3.599   4.897   2.363  0.4084 -0.3579 -0.4843
 3546SOL    HW211538   3.545   4.840   2.220 -0.4447 -1.8525  0.4134
 3547SOL     OW11539   6.194   2.577   1.812  0.5695 -0.1935 -0.0237
 3547SOL    HW111540   6.190   2.556   1.909 -0.7691  0.4463  0.0820
 3547SOL    HW211541   6.258   2.652   1.797  0.9929 -0.4810  0.3197
 3548SOL     OW11542   5.767   1.750   4.455  1.1383  0.2899  0.4402
 3548SOL    HW111543   5.862   1.717   4.450  1.1311  0.0468  1.5284
 3548SOL    HW211544   5.766   1.849   4.438  1.9482  0.7675  2.7434
 3549SOL     OW11545   2.298   1.584   6.181 -1.0102  0.2678  0.1645
 3549SOL    HW111546   2.395   1.575   6.202 -0.9431  0.9516  0.1510
 3549SOL    HW211547   2.287   1.642   6.101 -1.5215  1.7030  1.2488
 3550SOL     OW11548   1.400   2.064   0.470 -0.6272  0.1661  1.0757
 3550SOL    HW111549   1.338   1.998   0.427 -2.4601  0.7871  2.6459
 3550SOL    HW211550   1.455   2.109   0.399 -0.7709 -1.5662 -0.2079
 3551SOL     OW11551   6.431   1.156   4.149  0.0079  0.4042  0.2567
 3551SOL    HW111552   6.381   1.156   4.062 -2.1712 -0.8775  1.4405
 3551SOL    HW211553   6.470   1.065   4.164  0.4891  0.6616  0.5816
 3552SOL     OW11554   0.370   1.779   3.661  0.3818 -0.4228  0.2324
 3552SOL    HW111555   0.358   1.861   3.718 -0.3133  0.2733 -0.8667
 3552SOL    HW211556   0.286   1.726   3.662 -0.3808  0.6318 -1.6613
 3553SOL     OW11557   4.028   5.999   6.203  0.0894  0.1214 -0.5533
 3553SOL    HW111558   4.104   5.959   6.152  0.2296  1.3648 -1.3636
 3553SOL    HW211559   4.005   5.940   6.280  3.2155  0.6676  0.9652
 3554SOL     OW11560   2.123   3.696   3.324  0.2179  0.5041  0.4629
 3554SOL    HW111561   2.181   3.729   3.249  1.5000  0.0524  1.2329
 3554SOL    HW211562   2.104   3.772   3.386 -0.1929  0.6986  0.1050
 3555SOL     OW11563   1.090   3.717   5.284 -0.4112  0.2381 -0.0272
 3555SOL    HW111564   1.038   3.638   5.252  0.8457 -0.2364 -0.9687
 3555SOL    HW211565   1.027   3.791   5.308 -1.5410 -0.5749 -0.3943
 3556SOL     OW11566   1.751   4.747   5.309 -0.0253  1.0127  0.1223
 3556SOL    HW111567   1.679   4.776   5.371  1.0405  0.3980  1.7076
 3556SOL    HW211568   1.839   4.784   5.340  0.8548 -1.0600  0.2806
 3557SOL     OW11569   2.072   3.182   6.511 -0.1072 -0.2519  0.2866
 3557SOL    HW111570   2.156   3.201   6.460 -1.6060  2.5865 -1.3312
 3557SOL    HW211571   2.083   3.213   6.606  0.1460  1.8620 -0.3735
 3558SOL     OW11572   1.109   2.962   2.656 -0.5667 -0.0153  0.7866
 3558SOL    HW111573   1.054   3.031   2.702 -1.1294 -0.9011  1.4755
 3558SOL    HW211574   1.198   2.954   2.702 -0.0928  0.9496  0.0762
 3559SOL     OW11575   3.033   4.454   0.681  0.0859  0.4559 -0.2792
 3559SOL    HW111576   3.053   4.493   0.591 -0.3339 -1.5802 -1.3198
 3559SOL    HW211577   2.945   4.407   0.679  2.0509 -3.6521 -0.2968
 3560SOL     OW11578   4.125   6.493   5.711 -0.3156  0.5216 -0.2624
 3560SOL    HW111579   4.184   6.440   5.650 -0.4300 -0.5743  0.5608
 3560SOL    HW211580   4.132   6.457   5.804 -0.5200  1.8623  0.2930
 3561SOL     OW11581   1.692   2.640   0.987  0.1562  0.9388  0.1796
 3561SOL    HW111582   1.789   2.628   1.009 -0.2983  1.8236  3.1206
 3561SOL    HW211583   1.663   2.732   1.013 -1.8102  0.1907  0.8312
 3562SOL     OW11584   5.341   2.415   5.680 -0.3836 -0.7875 -0.5581
 3562SOL    HW111585   5.376   2.458   5.597 -0.6856 -1.3619 -0.9872
 3562SOL    HW211586   5.394   2.332   5.700 -1.8075 -1.9674 -1.5193
 3563SOL     OW11587   6.095   6.275   0.316  0.0948 -0.2330 -0.7353
 3563SOL    HW111588   6.023   6.272   0.385 -0.1889 -2.0348 -1.0412
 3563SOL    HW211589   6.115   6.370   0.292 -0.6824  0.3748  0.8859
 3564SOL     OW11590   1.962   4.933   3.116 -0.3176 -0.1327 -0.0307
 3564SOL    HW111591   1.967   4.871   3.194 -2.4018 -0.6548 -0.2480
 3564SOL    HW211592   1.908   4.891   3.043 -0.6017  1.3764 -0.7374
 3565SOL     OW11593   6.517   2.348   3.572  0.1069 -0.2082  0.3667
 3565SOL    HW111594   6.558   2.411   3.506  0.2565 -0.0040  0.6475
 3565SOL    HW211595   6.495   2.399   3.656  2.1184 -0.9091  1.3898
 3566SOL     OW11596   0.685   6.243   2.761 -0.3910 -0.5611  0.1641
 3566SOL    HW111597   0.687   6.218   2.858 -2.8718  1.5063  0.8425
 3566SOL    HW211598   0.698   6.341   2.752 -1.6018 -0.5214 -1.4726
 3567SOL     OW11599   4.319   3.499   6.432  0.4343  0.1632  0.0123
 3567SOL    HW111600   4.366   3.523   6.517 -0.0635 -0.7981  0.5789
 3567SOL    HW211601   4.380   3.443   6.375 -0.2418 -1.8056  1.1184
 3568SOL     OW11602   2.461   6.309   3.819  0.5225  0.7073 -0.1801
 3568SOL    HW111603   2.508   6.221   3.807 -0.6323  0.1879 -1.1467
 3568SOL    HW211604   2.444   6.349   3.729  2.6528  2.8607  0.2739
 3569SOL     OW11605   3.747   2.078   2.721  0.1409 -0.4273 -0.1699
 3569SOL    HW111606   3.771   1.992   2.766 -0.9825 -0.9152 -0.4470
 3569SOL    HW211607   3.651   2.099   2.741  0.1634  0.3097 -0.8101
 3570SOL     OW11608   1.846   3.324   6.965 -0.3167 -0.0634  0.2057
 3570SOL    HW111609   1.793   3.239   6.967  1.0402 -0.9550  0.0642
 3570SOL    HW211610   1.876   3.347   7.057 -2.2693  1.3529  0.5453
 3571SOL     OW11611   4.004   1.393   3.272  0.1056  0.0715 -0.9309
 3571SOL    HW111612   4.085   1.414   3.328  0.1088 -0.5741 -0.6844
 3571SOL    HW211613   4.033   1.372   3.179  0.2049  0.0367 -0.8928
 3572SOL     OW11614   3.022   4.846   4.977 -0.3113 -0.0673 -0.2858
 3572SOL    HW111615   2.953   4.776   4.962  0.1620 -0.4161 -0.8935
 3572SOL    HW211616   3.085   4.848   4.899  1.4772 -1.0525  1.0356
 3573SOL     OW11617   1.950   5.388   6.401  0.0841  0.3717  0.3761
 3573SOL    HW111618   1.930   5.297   6.365 -4.3595  1.4339 -0.3695
 3573SOL    HW211619   2.008   5.437   6.336 -1.0088 -0.5297 -1.3683
 3574SOL     OW11620   6.523   6.775   6.001 -0.3638 -0.3148  0.3717
 3574SOL    HW111621   6.539   6.750   6.096 -0.8120 -0.8743  0.3057
 3574SOL    HW211622   6.542   6.697   5.942  0.0513  0.0708 -0.0158
 3575SOL     OW11623   5.009   1.912   0.252 -0.0601  0.2131  0.7002
 3575SOL    HW111624   4.922   1.942   0.291 -0.5375 -0.2237 -0.0024
 3575SOL    HW211625   5.056   1.851   0.316 -0.5497 -0.0109  0.8507
 3576SOL     OW11626   0.968   2.547   6.095 -0.0131 -0.5755  0.3624
 3576SOL    HW111627   0.903   2.578   6.164  0.5221  1.2085  0.1234
 3576SOL    HW211628   1.043   2.497   6.140  1.7088  2.7870  1.5528
 3577SOL     OW11629   5.954   5.756   3.909 -0.1564 -0.1643  0.4793
 3577SOL    HW111630   6.035   5.759   3.851 -1.0117  0.2474 -0.7102
 3577SOL    HW211631   5.957   5.672   3.965  0.8280 -0.4017  0.0999
 3578SOL     OW11632   6.888   2.698   0.639  0.1658 -0.1586  0.3104
 3578SOL    HW111633   6.895   2.601   0.660  2.5251  0.2540  1.7088
 3578SOL    HW211634   6.955   2.722   0.568 -0.2385  0.5001  0.1383
 3579SOL     OW11635   6.381   3.029   4.265  0.1230  0.3705 -0.6550
 3579SOL    HW111636   6.313   3.085   4.313 -0.5864 -2.2546  1.6685
 3579SOL    HW211637   6.357   3.025   4.168 -2.1599  0.8173 -0.1842
 3580SOL     OW11638   2.141   0.984   0.693 -0.4509 -0.3542 -0.3400
 3580SOL    HW111639   2.173   1.079   0.688  0.7602 -0.4263  3.2757
 3580SOL    HW211640   2.042   0.984   0.708 -0.0890  0.6452  2.8778
 3581SOL     OW11641   5.238   1.525   2.773 -0.1495  0.2636 -0.5972
 3581SOL    HW111642   5.271   1.619   2.782  2.2443 -0.4541 -1.1660
 3581SOL    HW211643   5.240   1.499   2.676  0.0129 -0.6208 -0.3636
 3582SOL     OW11644   5.494   5.439   6.250 -0.0864  0.6202 -0.2624
 3582SOL    HW111645   5.510   5.490   6.166 -0.6534 -0.2880 -0.9404
 3582SOL    HW211646   5.470   5.502   6.324  2.5076  1.6565 -0.2094
 3583SOL     OW11647   2.605   5.694   6.152  0.5778  0.2341  0.1764
 3583SOL    HW111648   2.583   5.658   6.061 -1.9211 -2.4867  1.6874
 3583SOL    HW211649   2.704   5.701   6.162  1.0019 -1.5614 -1.9997
 3584SOL     OW11650   0.733   2.281   1.226 -0.0930 -0.2410  0.1504
 3584SOL    HW111651   0.768   2.204   1.278 -2.1444  0.1285  2.2448
 3584SOL    HW211652   0.780   2.365   1.255 -1.0802 -0.0685  1.3432
 3585SOL     OW11653   6.364   6.712   0.340 -0.1249 -0.1242 -0.5906
 3585SOL    HW111654   6.404   6.768   0.413 -0.8606 -1.5706  0.9984
 3585SOL    HW211655   6.398   6.743   0.252  0.5498  1.9102  0.3245
 3586SOL     OW11656   2.880   0.040   4.808  0.0188 -0.1297 -0.6020
 3586SOL    HW111657   2.886  -0.059   4.817 -1.3862 -0.1544  0.4683
 3586SOL    HW211658   2.946   0.083   4.870  0.2081 -0.3813 -0.6269
 3587SOL     OW11659   0.108   4.463   5.418  0.0085  0.7757  0.0615
 3587SOL    HW111660   0.045   4.541   5.419 -0.7722  0.1743  2.0798
 3587SOL    HW211661   0.096   4.409   5.502  1.9039 -0.4272 -0.3867
 3588SOL     OW11662   5.134   2.181   6.775  0.1123  0.6849 -0.3927
 3588SOL    HW111663   5.098   2.134   6.855 -1.7765 -1.0729 -2.1323
 3588SOL    HW211664   5.075   2.162   6.696  1.8732  2.3146 -2.2277
 3589SOL     OW11665   6.810   2.610   6.212  0.3201  0.2454 -0.0409
 3589SOL    HW111666   6.805   2.565   6.123  0.3070  1.0219 -0.4398
 3589SOL    HW211667   6.849   2.547   6.279 -0.4693 -0.6427 -0.3899
 3590SOL     OW11668   2.112   6.095   2.095 -0.7780  0.4835 -0.5179
 3590SOL    HW111669   2.088   6.121   2.188 -4.0289 -0.6256 -0.9314
 3590SOL    HW211670   2.142   6.176   2.045  1.0296  1.0986  1.4115
 3591SOL     OW11671   4.244   1.776   3.077  0.5277  0.9115 -0.2512
 3591SOL    HW111672   4.282   1.868   3.085  2.2958  0.3031 -1.2208
 3591SOL    HW211673   4.234   1.736   3.168  2.3671  1.0479  0.0380
 3592SOL     OW11674   6.626   2.891   5.463 -0.2781 -0.1742 -1.0414
 3592SOL    HW111675   6.553   2.957   5.479 -0.8226 -1.0739  0.4637
 3592SOL    HW211676   6.703   2.911   5.524  0.3774  0.2419 -1.9918
 3593SOL     OW11677   6.870   1.628   0.204  0.0857  0.2362 -0.1014
 3593SOL    HW111678   6.960   1.627   0.248  0.1913  0.6643 -0.3044
 3593SOL    HW211679   6.877   1.670   0.114 -0.3440  0.4094 -0.0584
 3594SOL     OW11680   3.518   4.543   6.901 -0.4652  0.0179 -0.1429
 3594SOL    HW111681   3.575   4.464   6.925  0.1003 -0.0743 -1.6751
 3594SOL    HW211682   3.422   4.517   6.902 -0.3523 -0.3963  0.3930
 3595SOL     OW11683   5.519   1.496   2.072  0.4213  0.1849  0.0453
 3595SOL    HW111684   5.570   1.441   2.138  0.2629 -0.5524 -0.4367
 3595SOL    HW211685   5.533   1.460   1.980 -1.2873 -0.2976 -0.0601
 3596SOL     OW11686   6.270   0.011   0.322 -0.5692  0.3777 -0.3252
 3596SOL    HW111687   6.237  -0.013   0.230 -3.5738 -0.5998  0.8822
 3596SOL    HW211688   6.197   0.057   0.373  1.0520  0.9821  1.5661
 3597SOL     OW11689   4.257   4.107   1.173 -0.2311 -0.2942  0.1243
 3597SOL    HW111690   4.219   4.060   1.253  2.4598 -0.7231  1.2309
 3597SOL    HW211691   4.290   4.040   1.107  0.4274  0.0357  0.1095
 3598SOL     OW11692   4.828   2.597   3.905  0.0093  0.2874  0.5955
 3598SOL    HW111693   4.841   2.690   3.939 -0.1141 -0.1140  1.7807
 3598SOL    HW211694   4.730   2.580   3.892  0.0760  0.5742 -0.4064
 3599SOL     OW11695   0.670   5.824   5.744  0.5076 -0.2965  0.3066
 3599SOL    HW111696   0.631   5.805   5.653 -0.4492  1.0611  0.3973
 3599SOL    HW211697   0.716   5.913   5.742  1.4902 -0.7782  0.8693
 3600SOL     OW11698   3.065   2.312   5.459 -0.7548 -0.0757 -0.0365
 3600SOL    HW111699   3.114   2.354   5.383 -1.1989 -0.3262 -0.4679
 3600SOL    HW211700   2.986   2.369   5.484  2.4712  3.2747  4.1402
 3601SOL     OW11701   6.311   2.233   3.406  1.0826 -0.1551 -0.4549
 3601SOL    HW111702   6.379   2.291   3.450  1.4542 -0.5245 -0.5435
 3601SOL    HW211703   6.273   2.169   3.473  1.1896 -0.2918 -0.5254
 3602SOL     OW11704   5.902   6.490   0.484  0.6177 -0.0867 -0.0732
 3602SOL    HW111705   5.907   6.390   0.490  2.2604 -0.0570 -0.5713
 3602SOL    HW211706   5.978   6.531   0.534 -0.6352  0.9770  1.0319
 3603SOL     OW11707   1.981   0.904   4.031 -0.3950  0.0438  0.5699
 3603SOL    HW111708   2.054   0.912   3.963  0.3484 -0.4294  1.2918
 3603SOL    HW211709   1.899   0.948   3.997  0.3690  1.0159 -0.0734
 3604SOL     OW11710   4.435   1.391   2.030  0.4622 -0.1016  0.4855
 3604SOL    HW111711   4.404   1.468   2.086  2.4320 -0.3476  2.0090
 3604SOL    HW211712   4.468   1.426   1.942 -3.6910  0.1842 -1.1762
 3605SOL     OW11713   6.688   1.989   1.352  0.1734  0.8976  0.1113
 3605SOL    HW111714   6.665   2.063   1.415 -1.1773  0.1690  0.5123
 3605SOL    HW211715   6.682   2.022   1.258 -1.4647  1.0436  0.2465
 3606SOL     OW11716   6.809   4.008   4.562  0.0391 -0.2253 -0.1889
 3606SOL    HW111717   6.805   3.920   4.610 -1.4333 -0.4255 -0.6360
 3606SOL    HW211718   6.818   4.082   4.630  0.8386 -0.6686  0.2102
 3607SOL     OW11719   5.146   3.671   3.031 -0.0346  0.4583  0.2506
 3607SOL    HW111720   5.149   3.656   2.932  0.9102 -1.5495  0.5348
 3607SOL    HW211721   5.051   3.673   3.062 -0.3294 -1.2476 -0.4265
 3608SOL     OW11722   0.398   5.953   1.041  0.5342 -0.3741 -1.0253
 3608SOL    HW111723   0.449   6.007   0.974  0.7262  0.0965 -0.5121
 3608SOL    HW211724   0.326   5.900   0.995 -0.8889  1.7369 -1.3685
 3609SOL     OW11725   6.978   5.935   0.022  0.0669 -0.5670  0.4734
 3609SOL    HW111726   7.015   5.855  -0.025  1.6616  0.4161 -0.0099
 3609SOL    HW211727   6.886   5.954  -0.013  0.6688 -0.6799 -1.3065
 3610SOL     OW11728   4.606   2.408   0.368  0.3452  0.1888 -0.5686
 3610SOL    HW111729   4.519   2.360   0.362  0.2685  0.3177 -0.5051
 3610SOL    HW211730   4.641   2.403   0.461 -1.1588  2.8074  0.2598
 3611SOL     OW11731   3.805   2.590   5.519 -0.1601  0.1090  0.0420
 3611SOL    HW111732   3.818   2.667   5.582 -2.1403  1.2425 -0.8542
 3611SOL    HW211733   3.852   2.509   5.554  1.7344  1.6253  1.1721
 3612SOL     OW11734   1.850   5.443   2.615 -0.2015  0.3653  0.2280
 3612SOL    HW111735   1.835   5.465   2.711  0.5057  0.4489  0.3203
 3612SOL    HW211736   1.930   5.492   2.581 -1.7597  2.2049 -1.0499
 3613SOL     OW11737   6.515   0.556   2.694 -0.1486 -0.7998 -0.1455
 3613SOL    HW111738   6.556   0.595   2.777  0.0812 -0.8077 -0.2550
 3613SOL    HW211739   6.497   0.630   2.629  0.4652 -0.9005 -0.4299
 3614SOL     OW11740   6.358   2.200   1.828  0.3972 -0.2539  0.6323
 3614SOL    HW111741   6.399   2.245   1.749  1.3154 -2.7507 -0.4188
 3614SOL    HW211742   6.304   2.266   1.880 -2.2657  1.0883 -3.3463
 3615SOL     OW11743   3.036   3.590   6.216 -0.0240 -0.0365 -0.0851
 3615SOL    HW111744   3.042   3.650   6.296 -2.9891 -0.0031  0.2292
 3615SOL    HW211745   3.069   3.498   6.241 -2.0392 -0.3721  1.6292
 3616SOL     OW11746   5.472   5.177   5.808  0.5167  0.2407 -0.1888
 3616SOL    HW111747   5.565   5.203   5.781  1.0563 -0.1842  1.2040
 3616SOL    HW211748   5.435   5.244   5.872  0.4374 -0.3555  0.4033
 3617SOL     OW11749   4.306   1.050   4.102 -0.5055  0.5282  0.1606
 3617SOL    HW111750   4.297   1.034   4.200 -1.1157  0.1823  0.0521
 3617SOL    HW211751   4.235   1.113   4.072 -2.8717 -2.3579 -0.7368
 3618SOL     OW11752   3.255   3.929   1.163 -0.2146  0.3352 -0.0181
 3618SOL    HW111753   3.187   3.978   1.218  0.3317  0.3017  0.7112
 3618SOL    HW211754   3.345   3.942   1.204  0.0161 -0.8026 -0.1480
 3619SOL     OW11755   3.736   2.728   1.557  0.0303  0.4208  0.1815
 3619SOL    HW111756   3.807   2.784   1.598  0.5819  0.5937 -0.9625
 3619SOL    HW211757   3.678   2.689   1.629  1.7473 -0.3707  1.2030
 3620SOL     OW11758   1.608   6.194   6.192  0.0754 -0.0709  0.4028
 3620SOL    HW111759   1.617   6.098   6.168 -1.3241 -0.0702 -0.2326
 3620SOL    HW211760   1.680   6.220   6.256 -0.5369 -1.9821  1.9485
 3621SOL     OW11761   5.183   3.178   5.157 -0.0079 -0.0983  0.0418
 3621SOL    HW111762   5.144   3.185   5.249  0.1731  1.2086  0.0367
 3621SOL    HW211763   5.194   3.270   5.118 -0.7921 -0.6494 -1.5924
 3622SOL     OW11764   5.094   1.985   2.345 -0.1910  0.6228 -0.4597
 3622SOL    HW111765   5.100   2.080   2.375  1.3668  0.4630 -0.1990
 3622SOL    HW211766   5.023   1.938   2.397  0.7956  0.9910  1.2953
 3623SOL     OW11767   4.067   6.167   0.139 -0.5042 -0.4625  0.0214
 3623SOL    HW111768   3.973   6.136   0.125 -0.3791 -0.5582 -0.6502
 3623SOL    HW211769   4.108   6.190   0.051  0.5372 -1.7012  0.1551
 3624SOL     OW11770   3.917   4.804   1.290  0.2112 -0.4298 -0.3464
 3624SOL    HW111771   3.844   4.774   1.230  1.1666 -2.4389 -0.5833
 3624SOL    HW211772   4.006   4.787   1.246  0.8873 -0.5541  1.0147
 3625SOL     OW11773   2.308   2.713   3.129  0.4298  0.0611  0.4378
 3625SOL    HW111774   2.394   2.662   3.123  0.1833 -0.2658 -0.5109
 3625SOL    HW211775   2.238   2.656   3.172 -0.2760 -1.0682 -1.9923
 3626SOL     OW11776   6.417   2.426   1.656 -0.0107 -0.6156  0.0147
 3626SOL    HW111777   6.463   2.494   1.599  1.2998 -1.3849  0.0973
 3626SOL    HW211778   6.330   2.462   1.690  0.6878  1.0227  0.1175
 3627SOL     OW11779   5.309   3.122   3.395  0.5557 -0.4007 -0.8466
 3627SOL    HW111780   5.307   3.041   3.338  1.3713 -0.6524 -0.5330
 3627SOL    HW211781   5.404   3.148   3.414  0.3056  0.4494 -0.6990
 3628SOL     OW11782   6.871   3.016   3.961 -0.6683  0.0768 -0.8709
 3628SOL    HW111783   6.793   3.079   3.963  0.3107  1.3136 -0.2105
 3628SOL    HW211784   6.931   3.040   3.885  2.0586  3.0037  1.9180
 3629SOL     OW11785   0.042   4.992   4.389 -0.2968 -0.7828  0.1287
 3629SOL    HW111786   0.007   4.937   4.314 -0.5154 -0.0336 -0.3330
 3629SOL    HW211787   0.137   4.967   4.408 -0.4195 -1.3631 -0.0176
 3630SOL     OW11788   6.661   1.682   5.283  0.0603 -0.0687 -0.0686
 3630SOL    HW111789   6.663   1.739   5.365 -1.0275 -0.0444 -0.0555
 3630SOL    HW211790   6.750   1.636   5.273  0.9375  1.5181 -0.0112
 3631SOL     OW11791   4.414   0.659   6.316  0.3547 -0.5255 -0.7014
 3631SOL    HW111792   4.402   0.730   6.247  0.9952 -1.4963 -1.8378
 3631SOL    HW211793   4.346   0.587   6.302 -0.9415  0.2815  1.0517
 3632SOL     OW11794   0.830   1.820   2.469  0.8221 -0.7816 -0.1000
 3632SOL    HW111795   0.863   1.863   2.553 -0.4980  0.5003 -0.1973
 3632SOL    HW211796   0.838   1.886   2.393 -2.5561 -0.0666  0.0096
 3633SOL     OW11797   0.680   1.423   1.839  0.2873 -0.3519 -0.1056
 3633SOL    HW111798   0.717   1.451   1.751 -0.5061 -1.4232 -0.8175
 3633SOL    HW211799   0.679   1.500   1.902 -0.4001  0.8035 -1.4795
 3634SOL     OW11800   2.585   2.424   6.918 -0.0235 -0.1721  0.0043
 3634SOL    HW111801   2.541   2.403   6.831 -1.3249 -0.0347  0.5996
 3634SOL    HW211802   2.525   2.483   6.972  1.5602  1.3175  0.2446
 3635SOL     OW11803   2.530   2.552   4.306  0.8522  0.2024  0.0108
 3635SOL    HW111804   2.564   2.488   4.376 -1.4983 -0.8523  0.2955
 3635SOL    HW211805   2.494   2.634   4.351  1.6371  0.6585 -0.1766
 3636SOL     OW11806   3.891   1.604   3.085 -0.1121 -0.2866  0.6343
 3636SOL    HW111807   3.922   1.604   2.989  0.1880  0.3922  0.7240
 3636SOL    HW211808   3.947   1.540   3.138  2.9974  2.7111  1.3415
 3637SOL     OW11809   4.172   5.266   1.086 -0.2352  0.0642 -0.3123
 3637SOL    HW111810   4.267   5.237   1.069 -0.7680 -1.1045 -1.4209
 3637SOL    HW211811   4.122   5.191   1.129 -0.3616  1.1158  1.4832
 3638SOL     OW11812   1.741   4.523   6.139  0.2757 -0.0682  0.8704
 3638SOL    HW111813   1.652   4.480   6.154 -1.4971  2.6556 -0.7655
 3638SOL    HW211814   1.809   4.454   6.115 -1.4177 -2.2244  2.0165
 3639SOL     OW11815   0.312   1.351   0.383 -0.2167 -0.0436  0.3744
 3639SOL    HW111816   0.218   1.356   0.415 -0.3138  0.1241  0.0603
 3639SOL    HW211817   0.360   1.279   0.433 -0.6805 -0.5458  0.1040
 3640SOL     OW11818   5.979   2.270   0.406 -0.0771 -0.0219  0.3237
 3640SOL    HW111819   5.886   2.249   0.435  0.0277  0.3717  0.9640
 3640SOL    HW211820   6.001   2.219   0.322 -1.3824  1.0073 -0.6724
 3641SOL     OW11821   3.460   1.445   1.452 -0.0476  0.2270 -0.1951
 3641SOL    HW111822   3.409   1.390   1.385 -0.5954 -0.9552  1.1445
 3641SOL    HW211823   3.558   1.428   1.441 -0.0875  0.5118 -1.0793
 3642SOL     OW11824   3.258   3.631   1.201  0.5460 -0.8263  0.2417
 3642SOL    HW111825   3.234   3.720   1.240  1.8328 -0.5346  0.3969
 3642SOL    HW211826   3.353   3.632   1.170  0.0320 -1.5613 -1.4882
 3643SOL     OW11827   3.970   6.617   6.133 -0.0744  0.1748 -0.2016
 3643SOL    HW111828   3.927   6.687   6.075  1.1576  1.3759  0.2677
 3643SOL    HW211829   3.908   6.540   6.145 -0.9299  0.5679 -1.8890
 3644SOL     OW11830   0.825   6.789   0.263 -0.2724  0.1368 -0.8842
 3644SOL    HW111831   0.766   6.760   0.339  0.2027  0.8492 -0.2256
 3644SOL    HW211832   0.920   6.790   0.294 -0.2789  2.7058 -0.7265
 3645SOL     OW11833   4.896   2.686   5.803 -0.2165  0.1610  0.3357
 3645SOL    HW111834   4.850   2.770   5.776 -0.4682  0.7310  2.3434
 3645SOL    HW211835   4.887   2.618   5.730 -1.7356  1.2048 -0.5085
 3646SOL     OW11836   4.958   3.004   3.003 -0.4985 -0.1292 -0.3234
 3646SOL    HW111837   4.910   3.024   3.088 -0.6018 -0.9815 -0.1717
 3646SOL    HW211838   4.914   3.052   2.927 -0.6711  0.2882  0.0439
 3647SOL     OW11839   2.933   0.623   1.149 -0.6582 -0.3623  0.3229
 3647SOL    HW111840   2.920   0.540   1.204 -1.0711  0.0552  0.8617
 3647SOL    HW211841   2.848   0.644   1.101 -0.9567  0.4544  1.1810
 3648SOL     OW11842   4.597   3.084   5.320 -0.2112 -0.3299 -0.2954
 3648SOL    HW111843   4.634   3.175   5.301 -2.2783  0.3462 -1.3361
 3648SOL    HW211844   4.640   3.018   5.258 -1.1806  0.5626 -2.0092
 3649SOL     OW11845   0.762   2.372   1.927 -0.5854 -0.4292  0.1005
 3649SOL    HW111846   0.812   2.454   1.954  0.3825 -0.7076 -0.7630
 3649SOL    HW211847   0.823   2.293   1.931 -1.3388 -1.0113  0.3239
 3650SOL     OW11848   5.384   6.072   4.324 -0.3125  0.2011  0.3531
 3650SOL    HW111849   5.385   6.059   4.224 -0.3839  2.2176  0.0520
 3650SOL    HW211850   5.362   6.167   4.345  0.4222 -0.0158  2.2955
 3651SOL     OW11851   1.060   6.189   3.404  0.8450  0.5086  0.3130
 3651SOL    HW111852   1.084   6.273   3.453  1.7406  1.1496 -1.1548
 3651SOL    HW211853   1.100   6.111   3.451  1.2344  1.0504  0.9030
 3652SOL     OW11854   6.495   6.261   3.468 -0.5291 -0.3662  0.0767
 3652SOL    HW111855   6.462   6.236   3.559  1.5617  0.8444  1.2344
 3652SOL    HW211856   6.431   6.325   3.426  0.0812  1.7607  2.1587
 3653SOL     OW11857   0.233   3.830   3.407 -0.0907  0.5412  0.4688
 3653SOL    HW111858   0.305   3.824   3.339  1.5720 -1.2037  2.2579
 3653SOL    HW211859   0.144   3.819   3.363  0.9014 -0.2809 -1.4229
 3654SOL     OW11860   5.761   0.491   7.009  0.3151 -0.2936 -0.1752
 3654SOL    HW111861   5.775   0.416   6.945 -0.9393 -0.2968 -0.4720
 3654SOL    HW211862   5.828   0.485   7.083  0.8365 -1.1452 -0.7047
 3655SOL     OW11863   1.414   0.143   3.574  0.2247  0.2547  0.2092
 3655SOL    HW111864   1.463   0.056   3.582  0.7892  0.5843  0.3579
 3655SOL    HW211865   1.474   0.218   3.602 -1.0679  0.4688  2.6871
 3656SOL     OW11866   1.715   6.088   2.022 -0.6124  0.1550  0.0147
 3656SOL    HW111867   1.624   6.060   1.994 -0.0013 -1.5324 -0.4123
 3656SOL    HW211868   1.737   6.047   2.111  1.1818 -2.9711 -1.6719
 3657SOL     OW11869   5.763   0.617   3.562  0.2450 -0.1550 -0.9209
 3657SOL    HW111870   5.780   0.549   3.633 -0.7826 -0.0423 -0.5483
 3657SOL    HW211871   5.841   0.620   3.500  0.9105 -0.6685 -0.1369
 3658SOL     OW11872   2.362   6.921   1.852 -0.3625 -0.1937 -0.2729
 3658SOL    HW111873   2.295   6.994   1.843 -0.3867 -0.1044  0.5876
 3658SOL    HW211874   2.390   6.890   1.761  0.6554  1.7914 -0.6740
 3659SOL     OW11875   4.118   1.467   4.402 -0.3384 -0.2801  0.5015
 3659SOL    HW111876   4.087   1.466   4.307 -1.3879 -1.2095  0.8232
 3659SOL    HW211877   4.167   1.552   4.421 -1.6838  0.7354 -0.3908
 3660SOL     OW11878   4.276   6.206   5.123  0.0380  0.3876 -0.3232
 3660SOL    HW111879   4.355   6.145   5.116 -0.4858 -0.2234 -1.0349
 3660SOL    HW211880   4.264   6.257   5.038 -1.0794 -0.4677 -0.6967
 3661SOL     OW11881   2.532   1.047   6.536  0.5200 -0.6868 -0.2988
 3661SOL    HW111882   2.510   1.034   6.440  0.8933 -0.4079 -0.4229
 3661SOL    HW211883   2.504   1.138   6.565  0.6825 -0.6599 -0.2236
 3662SOL     OW11884   1.043   5.066   3.104  0.7797 -1.0222 -0.2295
 3662SOL    HW111885   1.062   5.154   3.148  0.2968 -0.2875 -1.4543
 3662SOL    HW211886   0.992   5.008   3.168  0.3790 -0.1072  0.3090
 3663SOL     OW11887   5.744   0.604   6.122 -0.3766 -0.1656  0.3750
 3663SOL    HW111888   5.844   0.601   6.123 -0.3732 -2.1304 -0.6471
 3663SOL    HW211889   5.711   0.631   6.213  1.0525  0.7696  0.6638
 3664SOL     OW11890   3.245   0.599   4.386  0.2384  1.1488  0.5680
 3664SOL    HW111891   3.180   0.670   4.359  0.2228  1.6857  1.9289
 3664SOL    HW211892   3.214   0.510   4.353 -1.2946  1.3768  1.3228
 3665SOL     OW11893   3.700   1.798   2.010 -0.0661  0.4907 -0.5003
 3665SOL    HW111894   3.621   1.788   1.950 -0.5923  0.4130  0.1938
 3665SOL    HW211895   3.684   1.875   2.073 -1.3273 -1.8552  2.2585
 3666SOL     OW11896   6.106   6.058   0.669  0.1134  0.5277  0.1154
 3666SOL    HW111897   6.109   6.151   0.706 -2.1729  0.0309  1.7557
 3666SOL    HW211898   6.085   5.994   0.742 -0.0447 -1.1000 -1.2981
 3667SOL     OW11899   4.655   5.589   5.536  0.1821 -0.4043 -0.2248
 3667SOL    HW111900   4.698   5.499   5.545  2.6759  0.8927  3.2854
 3667SOL    HW211901   4.712   5.649   5.480  1.1922  0.2624  1.4213
 3668SOL     OW11902   3.334   1.245   0.288 -0.1416  0.0296  0.5368
 3668SOL    HW111903   3.280   1.201   0.359 -1.6171  0.6990 -0.1326
 3668SOL    HW211904   3.277   1.261   0.207  1.1003  0.6219 -0.2602
 3669SOL     OW11905   0.306   2.198   6.768 -0.3818 -0.3181  0.4703
 3669SOL    HW111906   0.370   2.131   6.733 -0.3791  0.1548 -0.4710
 3669SOL    HW211907   0.288   2.181   6.865  1.8199  0.0653  0.9884
 3670SOL     OW11908   2.461   5.102   5.098 -0.1881 -0.8438  0.3810
 3670SOL    HW111909   2.540   5.047   5.074  0.9775  0.4851  1.0535
 3670SOL    HW211910   2.478   5.152   5.183 -1.5045 -0.0611  0.2301
 3671SOL     OW11911   2.980   6.847   5.399  0.0822  0.4575 -0.2020
 3671SOL    HW111912   3.060   6.788   5.388  0.4473  0.9573 -0.2876
 3671SOL    HW211913   3.005   6.941   5.375 -0.4774  0.6535 -0.0293
 3672SOL     OW11914   1.623   3.962   6.212 -0.4922  0.3236  0.0860
 3672SOL    HW111915   1.544   3.960   6.272 -1.3304 -0.8392 -0.9950
 3672SOL    HW211916   1.603   4.018   6.132 -0.6132 -0.7530 -0.6611
 3673SOL     OW11917   6.606   2.519   6.340 -0.0123  0.7008  0.3411
 3673SOL    HW111918   6.654   2.590   6.288  0.1471  0.7734  0.5838
 3673SOL    HW211919   6.566   2.560   6.422  0.7623  0.3557  0.8962
 3674SOL     OW11920   4.590   1.439   6.118 -0.0175  0.1040  0.0092
 3674SOL    HW111921   4.620   1.344   6.132  0.8384  0.3572 -0.0583
 3674SOL    HW211922   4.558   1.450   6.024  1.7381  0.3362 -0.6123
 3675SOL     OW11923   3.457   4.201   4.555  0.1495  0.0902  0.4527
 3675SOL    HW111924   3.489   4.188   4.649  1.6192  1.5245  0.1907
 3675SOL    HW211925   3.535   4.201   4.492 -0.6603  0.6797 -0.5970
 3676SOL     OW11926   0.634   1.526   6.910 -0.4916  0.4188 -0.6190
 3676SOL    HW111927   0.604   1.469   6.987 -0.8008  2.2514  0.6797
 3676SOL    HW211928   0.734   1.534   6.912 -0.6306  2.6981  1.3534
 3677SOL     OW11929   1.149   0.400   1.952 -0.0931  0.7533  0.1600
 3677SOL    HW111930   1.053   0.426   1.959 -0.1229  0.9198 -0.7005
 3677SOL    HW211931   1.165   0.355   1.864  0.5366  0.3744  0.4601
 3678SOL     OW11932   1.575   3.410   1.583  0.0754 -0.3796 -0.0285
 3678SOL    HW111933   1.589   3.324   1.534 -0.6761 -0.8617  0.5682
 3678SOL    HW211934   1.621   3.484   1.535 -0.9715 -0.7566 -1.6913
 3679SOL     OW11935   0.761   3.806   1.228 -0.5660 -0.3495 -0.5607
 3679SOL    HW111936   0.785   3.863   1.149 -1.6798 -0.8481 -1.2722
 3679SOL    HW211937   0.815   3.722   1.226  1.9626  1.1045  1.1329
 3680SOL     OW11938   5.908   1.990   6.515 -0.0131  0.5796 -0.7692
 3680SOL    HW111939   5.865   1.990   6.605 -1.7094  0.9617 -1.5252
 3680SOL    HW211940   5.998   2.033   6.521  0.9096 -1.4400  1.1348
 3681SOL     OW11941   1.263   5.169   3.411 -0.1612 -0.1389  0.7076
 3681SOL    HW111942   1.282   5.257   3.456 -0.9046 -0.7102  2.2085
 3681SOL    HW211943   1.245   5.185   3.314 -0.4247  1.3886  0.9761
 3682SOL     OW11944   3.247   6.923   5.009  0.3467  0.8505 -1.0929
 3682SOL    HW111945   3.288   6.927   4.918  0.8362  2.9914 -0.8305
 3682SOL    HW211946   3.248   7.014   5.051  1.5626 -0.3319  1.7064
 3683SOL     OW11947   6.303   6.144   4.687  0.6642  0.0494  0.7770
 3683SOL    HW111948   6.360   6.128   4.767  1.8166 -0.8213 -0.1840
 3683SOL    HW211949   6.297   6.060   4.633 -1.0251  0.3001  0.5201
 3684SOL     OW11950   1.915   4.506   1.159 -0.3786 -0.4927  0.0120
 3684SOL    HW111951   1.971   4.583   1.127 -0.8760 -0.5021 -0.8948
 3684SOL    HW211952   1.914   4.506   1.259  1.2591 -0.5134  0.0589
 3685SOL     OW11953   4.358   6.645   3.542 -0.6139  0.7553 -0.0143
 3685SOL    HW111954   4.451   6.665   3.574 -0.2222 -1.4665  0.4079
 3685SOL    HW211955   4.317   6.574   3.601 -1.8340  0.2803 -1.3728
 3686SOL     OW11956   1.160   4.152   0.858  0.0048 -0.3307 -0.0615
 3686SOL    HW111957   1.159   4.174   0.760 -0.6048 -0.0141  0.0116
 3686SOL    HW211958   1.160   4.053   0.871  1.9830 -0.4168 -0.3955
 3687SOL     OW11959   3.450   2.910   3.266 -0.1455  0.3405 -0.6314
 3687SOL    HW111960   3.363   2.946   3.299 -0.8182 -1.1633 -0.6459
 3687SOL    HW211961   3.505   2.878   3.343 -0.2669 -0.0922 -0.7202
 3688SOL     OW11962   0.317   4.670   1.202 -0.0351 -0.7811  0.4535
 3688SOL    HW111963   0.258   4.651   1.123  0.1119 -2.2923  0.6841
 3688SOL    HW211964   0.274   4.739   1.259  0.0537  0.6699 -1.1517
 3689SOL     OW11965   1.404   4.361   4.489  0.3710 -0.5590  0.1030
 3689SOL    HW111966   1.452   4.311   4.561 -0.7054 -2.0325 -0.1600
 3689SOL    HW211967   1.308   4.336   4.489 -0.0557  0.9637 -0.5575
 3690SOL     OW11968   5.709   3.821   2.143 -0.0231 -0.0116 -0.3640
 3690SOL    HW111969   5.632   3.795   2.085 -1.1215 -0.9391  1.4270
 3690SOL    HW211970   5.792   3.775   2.109 -0.7827 -1.1425 -0.7683
 3691SOL     OW11971   5.289   2.516   6.279 -0.2478  0.9706  0.0791
 3691SOL    HW111972   5.212   2.484   6.224 -0.9324 -0.5223  1.8220
 3691SOL    HW211973   5.361   2.551   6.218 -1.1105 -0.2562 -1.7289
 3692SOL     OW11974   1.859   2.693   2.954 -0.1115 -0.1262  0.4890
 3692SOL    HW111975   1.779   2.727   2.904  1.5645 -0.0122 -2.3937
 3692SOL    HW211976   1.888   2.762   3.020 -0.2044  1.5496 -1.1278
 3693SOL     OW11977   1.446   0.968   6.734  0.3002  0.4230  0.2939
 3693SOL    HW111978   1.410   0.892   6.680  1.7574 -1.9942  2.4392
 3693SOL    HW211979   1.412   0.961   6.828  1.3018  1.7991  0.8003
 3694SOL     OW11980   6.380   4.913   1.771 -0.3682  0.4322 -0.2021
 3694SOL    HW111981   6.412   4.988   1.828  4.5826 -2.1324  0.9746
 3694SOL    HW211982   6.359   4.834   1.828 -2.6348 -0.0833 -1.6008
 3695SOL     OW11983   2.740   0.176   0.887  0.2094  0.5515  0.2703
 3695SOL    HW111984   2.753   0.140   0.794 -1.0633  0.0269  0.2617
 3695SOL    HW211985   2.781   0.266   0.894  1.0306  0.2573 -0.5637
 3696SOL     OW11986   3.912   5.704   2.596  0.0060  0.2398 -0.3366
 3696SOL    HW111987   3.823   5.745   2.618 -0.3238 -0.8206  0.3651
 3696SOL    HW211988   3.898   5.609   2.565  1.0471 -0.7476  2.0173
 3697SOL     OW11989   2.850   5.579   6.003 -0.1466 -0.1134  0.4048
 3697SOL    HW111990   2.841   5.663   5.949  0.6624  0.4513  1.1146
 3697SOL    HW211991   2.884   5.602   6.094 -0.9595 -1.1080  0.9756
 3698SOL     OW11992   2.101   6.321   1.410  0.5013 -0.9057 -0.1151
 3698SOL    HW111993   2.007   6.350   1.390  0.9563  0.5851 -0.1929
 3698SOL    HW211994   2.123   6.240   1.356 -1.1839 -2.1250  0.9250
 3699SOL     OW11995   6.511   4.075   2.827 -0.5958 -0.4694 -0.5532
 3699SOL    HW111996   6.492   4.014   2.904  0.1474 -1.1488 -0.8983
 3699SOL    HW211997   6.430   4.078   2.767 -1.8493  1.4199  1.1011
 3700SOL     OW11998   0.683   5.231   2.580 -0.5522  0.4778 -0.2452
 3700SOL    HW111999   0.634   5.188   2.503 -2.1207 -1.1280  1.5295
 3700SOL    HW212000   0.767   5.180   2.599 -0.6980  0.2337 -0.2512
 3701SOL     OW12001   1.237   1.195   2.801  0.5178  0.0107 -0.5232
 3701SOL    HW112002   1.321   1.204   2.747  0.6308 -1.2462 -0.5923
 3701SOL    HW212003   1.225   1.276   2.858  1.2843  0.6183 -1.1944
 3702SOL     OW12004   5.066   3.826   1.492 -1.0555 -0.1253 -0.2764
 3702SOL    HW112005   5.027   3.754   1.435  0.5157 -1.9928  0.8899
 3702SOL    HW212006   5.032   3.818   1.585  0.6007 -0.6184  0.3163
 3703SOL     OW12007   3.242   1.954   1.517  0.6417 -0.0883  0.0032
 3703SOL    HW112008   3.176   1.977   1.446  0.0147 -0.8095  0.3408
 3703SOL    HW212009   3.218   2.001   1.602  1.4925  0.9160 -0.2817
 3704SOL     OW12010   1.381   1.967   5.192 -0.2781 -0.0452 -0.1992
 3704SOL    HW112011   1.293   1.991   5.232  1.0997  0.7239  2.6036
 3704SOL    HW212012   1.372   1.957   5.093 -3.0333  2.0830 -0.2394
 3705SOL     OW12013   1.302   0.886   2.373 -0.0015 -0.0033 -0.0653
 3705SOL    HW112014   1.342   0.960   2.319 -0.3698  0.2764  0.0361
 3705SOL    HW212015   1.344   0.799   2.348  0.3850  0.2318 -0.2383
 3706SOL     OW12016   5.023   5.153   5.685 -0.1180  0.1814 -0.0812
 3706SOL    HW112017   5.042   5.063   5.725  0.8518 -0.0604 -1.0433
 3706SOL    HW212018   4.949   5.145   5.618 -0.3470  0.1964  0.1669
 3707SOL     OW12019   6.161   5.434   2.599 -0.3384 -0.3320 -0.5853
 3707SOL    HW112020   6.168   5.499   2.675  0.2040  0.2883 -1.1621
 3707SOL    HW212021   6.081   5.456   2.544 -0.1010 -0.0946 -0.8354
 3708SOL     OW12022   6.248   4.971   1.063  0.5754  0.5343 -0.4110
 3708SOL    HW112023   6.190   4.892   1.082 -0.6877  1.2494 -1.1470
 3708SOL    HW212024   6.262   4.978   0.964  2.7302 -0.1634 -0.1986
 3709SOL     OW12025   6.899   1.479   4.010  0.0773  0.5337 -0.1534
 3709SOL    HW112026   6.812   1.430   4.012 -0.9024  2.2221 -0.1432
 3709SOL    HW212027   6.952   1.449   3.931 -1.2310  0.6695 -1.1077
 3710SOL     OW12028   6.466   4.041   1.842  0.0346 -0.2856 -0.1336
 3710SOL    HW112029   6.564   4.027   1.854  0.1424  0.9628  0.6336
 3710SOL    HW212030   6.432   3.980   1.770  1.7010  0.4463 -1.6136
 3711SOL     OW12031   2.162   3.325   4.158  0.4379 -0.4382  0.3891
 3711SOL    HW112032   2.111   3.369   4.084  2.6167 -0.5290 -1.2716
 3711SOL    HW212033   2.169   3.389   4.235 -1.5669 -0.2108  0.4452
 3712SOL     OW12034   6.257   5.878   6.102  0.0200  0.4646  0.3936
 3712SOL    HW112035   6.258   5.839   6.193 -0.4503  0.5978  0.4597
 3712SOL    HW212036   6.231   5.809   6.035 -0.8080  0.6619  0.5097
 3713SOL     OW12037   6.822   6.793   4.008  0.0859 -0.5044  0.2121
 3713SOL    HW112038   6.781   6.805   3.917 -0.6938  0.0715  0.6226
 3713SOL    HW212039   6.806   6.699   4.039 -1.6876 -0.1002  0.6862
 3714SOL     OW12040   6.057   2.378   2.883 -0.0963  0.1920 -0.0291
 3714SOL    HW112041   6.050   2.282   2.858  2.2408 -0.6482  2.0663
 3714SOL    HW212042   5.987   2.400   2.952 -1.2639  0.3047 -1.2219
 3715SOL     OW12043   4.635   0.040   4.358 -0.3762 -0.5091  0.3808
 3715SOL    HW112044   4.662   0.006   4.448  1.1737  0.6615  0.4019
 3715SOL    HW212045   4.548   0.089   4.365  0.5328  1.0252  1.6208
 3716SOL     OW12046   2.078   2.739   1.715  0.0752 -0.0099 -0.2486
 3716SOL    HW112047   2.059   2.837   1.705 -0.8678 -0.1102  0.4075
 3716SOL    HW212048   1.997   2.693   1.751  0.8717 -0.8547  0.5170
 3717SOL     OW12049   0.556   5.241   0.478 -0.3791  0.2020  0.4257
 3717SOL    HW112050   0.653   5.260   0.459 -0.0699 -2.1093 -0.6729
 3717SOL    HW212051   0.499   5.293   0.416  0.1447  1.2362  0.7747
 3718SOL     OW12052   1.642   3.204   6.637  0.2567  0.1176 -0.3973
 3718SOL    HW112053   1.543   3.197   6.653  0.3241  2.4660  1.6031
 3718SOL    HW212054   1.663   3.168   6.547 -2.3357 -0.8832 -0.7219
 3719SOL     OW12055   5.874   0.407   3.790  0.2222  0.0100  0.0550
 3719SOL    HW112056   5.869   0.328   3.729  0.6344  0.0997 -0.0984
 3719SOL    HW212057   5.946   0.392   3.857  0.6930  0.5050 -0.3347
 3720SOL     OW12058   4.793   4.868   2.978  0.3984 -0.0976  0.1617
 3720SOL    HW112059   4.819   4.802   3.048  0.5851 -2.1930 -1.7394
 3720SOL    HW212060   4.809   4.961   3.011  0.2806 -0.9707  2.9010
 3721SOL     OW12061   0.453   6.713   4.931  0.2323 -0.2766 -0.5093
 3721SOL    HW112062   0.401   6.755   5.005  0.2985 -1.8264  0.4617
 3721SOL    HW212063   0.391   6.668   4.867  0.1642  1.2003 -1.5196
 3722SOL     OW12064   4.183   6.104   3.670  0.1772  0.2560  0.5665
 3722SOL    HW112065   4.171   6.131   3.574  1.1547 -1.0305  0.0454
 3722SOL    HW212066   4.271   6.136   3.703  1.0346 -1.5371  0.1629
 3723SOL     OW12067   1.336   6.844   1.309 -1.0067 -0.3999 -0.3007
 3723SOL    HW112068   1.393   6.767   1.337  0.9644  0.9431 -0.4031
 3723SOL    HW212069   1.389   6.904   1.249 -2.2735  1.3681  0.2786
 3724SOL     OW12070   0.479   5.334   6.281 -0.4952  0.8118  0.3612
 3724SOL    HW112071   0.427   5.285   6.351  0.0774 -2.3756 -1.2817
 3724SOL    HW212072   0.474   5.284   6.195  0.9887  3.2307 -1.2473
 3725SOL     OW12073   1.595   2.032   5.544 -0.0814 -0.0309 -0.4463
 3725SOL    HW112074   1.557   2.017   5.635  1.0909 -0.6918 -0.0461
 3725SOL    HW212075   1.574   1.953   5.486 -0.6828  0.3156 -0.7082
 3726SOL     OW12076   2.703   0.766   3.018  0.0719 -0.2018  0.0476
 3726SOL    HW112077   2.622   0.711   2.998  1.2429 -1.7414 -0.6815
 3726SOL    HW212078   2.784   0.721   2.980  1.3544  0.9874  1.2494
 3727SOL     OW12079   6.346   5.528   5.707 -0.2007  0.0884 -0.0997
 3727SOL    HW112080   6.313   5.447   5.657 -1.2500  0.4642 -0.0481
 3727SOL    HW212081   6.389   5.499   5.792  0.8986 -0.5120 -0.8450
 3728SOL     OW12082   5.068   0.534   6.777 -0.2880  0.0601 -0.4789
 3728SOL    HW112083   5.085   0.452   6.722 -0.1933  0.5099 -1.1237
 3728SOL    HW212084   4.981   0.575   6.749 -0.2412  0.2869 -0.2853
 3729SOL     OW12085   4.410   2.549   6.034  0.0250 -0.0407 -0.0692
 3729SOL    HW112086   4.378   2.511   5.948  0.2007 -1.9757  0.6785
 3729SOL    HW212087   4.333   2.588   6.084 -0.2684  0.0199 -0.5629
 3730SOL     OW12088   0.170   2.720   4.106 -0.1699 -0.3601 -0.0368
 3730SOL    HW112089   0.168   2.735   4.204 -1.6742  1.1712 -0.2661
 3730SOL    HW212090   0.250   2.765   4.066 -1.1266  1.6184  0.1516
 3731SOL     OW12091   5.970   1.612   3.037  0.1483 -0.8191 -0.1468
 3731SOL    HW112092   6.022   1.540   2.992  0.8621  1.6053 -3.5534
 3731SOL    HW212093   6.024   1.652   3.111  0.8924 -1.8497 -0.1224
 3732SOL     OW12094   1.603   5.912   5.752  0.1982  0.1637 -0.3626
 3732SOL    HW112095   1.617   6.011   5.753 -3.6202  0.8610  2.0077
 3732SOL    HW212096   1.536   5.889   5.682  0.6726 -0.7388 -0.5389
 3733SOL     OW12097   3.995   1.846   6.919  0.1460  0.0273 -0.0246
 3733SOL    HW112098   4.075   1.855   6.978  0.3546  0.1874 -0.3308
 3733SOL    HW212099   3.987   1.751   6.888  0.1831 -0.0023  0.0576
 3734SOL     OW12100   2.875   3.513   3.183 -0.2153  0.5469  0.1377
 3734SOL    HW112101   2.859   3.436   3.244 -0.0188  1.4189  1.3113
 3734SOL    HW212102   2.887   3.480   3.089 -0.2361 -0.8248  0.6120
 3735SOL     OW12103   6.361   6.030   2.618  0.8870 -0.0026 -0.5682
 3735SOL    HW112104   6.363   6.118   2.666  0.5121 -1.2382  1.8298
 3735SOL    HW212105   6.266   5.999   2.608  1.0968 -0.8694  0.0352
 3736SOL     OW12106   6.097   4.669   2.197 -0.8287 -0.2487  0.9639
 3736SOL    HW112107   6.004   4.636   2.209 -1.0659  0.8920  2.4685
 3736SOL    HW212108   6.156   4.592   2.169 -2.6299 -0.5022 -2.7346
 3737SOL     OW12109   1.076   2.370   0.602  0.3027 -0.3724 -0.1457
 3737SOL    HW112110   1.018   2.449   0.624  1.2204  0.4042 -0.4496
 3737SOL    HW212111   1.171   2.400   0.593  0.8312 -1.6974  0.7551
 3738SOL     OW12112   2.888   2.261   0.832  0.4758 -0.0036 -0.1008
 3738SOL    HW112113   2.956   2.222   0.770  0.2245 -3.5515  1.5584
 3738SOL    HW212114   2.797   2.248   0.794  0.4548  0.0155 -0.0576
 3739SOL     OW12115   6.532   6.173   0.970  0.1963  0.1289  0.1969
 3739SOL    HW112116   6.506   6.253   1.024 -2.0134 -0.1076 -0.4128
 3739SOL    HW212117   6.465   6.159   0.897  1.8631 -0.8893 -1.2100
 3740SOL     OW12118   1.790   2.800   2.426 -0.5033  0.4301  0.4377
 3740SOL    HW112119   1.733   2.855   2.488  1.4242  0.0328  2.7156
 3740SOL    HW212120   1.884   2.800   2.459  0.1671 -1.7478 -1.2496
 3741SOL     OW12121   1.571   2.711   6.185  0.0338 -0.2352  0.6428
 3741SOL    HW112122   1.632   2.721   6.106 -1.2930 -0.7761 -0.4889
 3741SOL    HW212123   1.567   2.615   6.212 -2.3568 -0.6814 -1.0414
 3742SOL     OW12124   0.842   0.129   3.033  0.6981  0.0719  0.6494
 3742SOL    HW112125   0.822   0.067   3.110  1.3984 -0.7120  0.2121
 3742SOL    HW212126   0.858   0.221   3.069  0.7953 -0.2350  1.4316
 3743SOL     OW12127   0.720   0.064   2.794 -0.3589  0.6398  0.3343
 3743SOL    HW112128   0.770   0.068   2.880 -1.2695  2.7579  0.8487
 3743SOL    HW212129   0.655  -0.012   2.796  1.1049 -0.6615  0.5985
 3744SOL     OW12130   5.792   3.746   3.139  0.5375 -0.6665  0.8473
 3744SOL    HW112131   5.847   3.729   3.221  1.3823 -1.2706  0.1650
 3744SOL    HW212132   5.775   3.844   3.130 -0.1683 -0.6446  2.1198
 3745SOL     OW12133   4.879   0.280   0.542 -0.6417 -0.0517 -0.4147
 3745SOL    HW112134   4.951   0.305   0.477  1.2729 -2.9498  0.4355
 3745SOL    HW212135   4.903   0.314   0.633 -1.6051  1.0325 -0.5419
 3746SOL     OW12136   0.274   0.347   1.442  0.2334  0.2643  0.3684
 3746SOL    HW112137   0.257   0.249   1.452  1.8664  0.1074  2.2268
 3746SOL    HW212138   0.212   0.398   1.501  0.9603  0.1703  1.2373
 3747SOL     OW12139   5.222   4.168   2.231 -0.3905  0.0630  0.1403
 3747SOL    HW112140   5.210   4.242   2.165  1.4851  0.3199  0.0415
 3747SOL    HW212141   5.315   4.134   2.226 -0.9085 -1.5829  0.9691
 3748SOL     OW12142   6.203   6.010   4.460 -0.3086  0.3095 -0.1455
 3748SOL    HW112143   6.160   5.993   4.371 -0.4570  0.2709 -0.0669
 3748SOL    HW212144   6.142   6.068   4.516  0.8131  2.3906 -0.9615
 3749SOL     OW12145   4.790   5.170   0.716  0.0573 -0.5812 -0.5063
 3749SOL    HW112146   4.727   5.236   0.756 -0.3481 -2.2437  1.7784
 3749SOL    HW212147   4.741   5.113   0.650 -0.6001 -1.1791  0.4772
 3750SOL     OW12148   5.767   2.240   1.763  0.4723  0.1205  0.2458
 3750SOL    HW112149   5.668   2.253   1.769  0.6532  1.3845  0.9079
 3750SOL    HW212150   5.790   2.146   1.786 -0.5623 -0.1466  0.2315
 3751SOL     OW12151   0.158   1.420   0.933  0.2056 -0.6258  0.4386
 3751SOL    HW112152   0.076   1.442   0.985 -0.7723 -1.0743 -0.8903
 3751SOL    HW212153   0.191   1.329   0.960 -1.3164 -1.6289 -0.9245
 3752SOL     OW12154   6.943   5.419   2.104  0.1265  0.0141 -0.0332
 3752SOL    HW112155   6.979   5.417   2.011 -0.5944  0.4685 -0.3318
 3752SOL    HW212156   6.908   5.510   2.125 -0.8308 -0.3956  0.2344
 3753SOL     OW12157   4.981   2.626   3.686  0.4707 -0.5109  0.2068
 3753SOL    HW112158   5.004   2.723   3.676 -1.5675  0.2143  1.7997
 3753SOL    HW212159   4.932   2.612   3.772 -1.6965 -2.4776 -1.2121
 3754SOL     OW12160   2.304   0.191   5.666 -0.0532 -0.7523  0.3780
 3754SOL    HW112161   2.358   0.107   5.678  0.0274 -0.7654 -0.0318
 3754SOL    HW212162   2.341   0.243   5.589  0.2563 -0.0442  1.0005
 3755SOL     OW12163   0.932   2.317   5.225 -0.7650  0.2390 -0.0949
 3755SOL    HW112164   0.969   2.372   5.150 -0.4676  1.2638  0.7767
 3755SOL    HW212165   0.881   2.239   5.188  0.7459 -0.2030 -1.3516
 3756SOL     OW12166   1.543   0.651   4.808 -0.0066  0.1820 -0.1039
 3756SOL    HW112167   1.518   0.658   4.904  0.2220 -2.0177  0.1630
 3756SOL    HW212168   1.462   0.628   4.754  0.2128 -0.4946 -0.1537
 3757SOL     OW12169   4.022   3.977   5.128  0.2482  0.2421  0.5935
 3757SOL    HW112170   4.016   4.064   5.079  0.1729  0.0123  0.1911
 3757SOL    HW212171   3.955   3.913   5.091  2.0295 -0.8729 -0.9159
 3758SOL     OW12172   0.953   1.547   5.434 -0.1793 -0.3491  0.4714
 3758SOL    HW112173   1.017   1.509   5.501 -0.2082  1.6000  1.6941
 3758SOL    HW212174   1.003   1.598   5.365 -0.2861 -0.6644  0.1571
 3759SOL     OW12175   4.947   5.485   2.245 -1.2435 -0.0228  0.1169
 3759SOL    HW112176   4.973   5.513   2.152 -0.5407 -1.2707 -0.0829
 3759SOL    HW212177   4.851   5.457   2.245 -2.5556  3.8449  0.6868
 3760SOL     OW12178   1.209   5.391   2.342 -0.2962  0.9495  0.6839
 3760SOL    HW112179   1.274   5.416   2.271 -1.6150 -0.7564 -1.2401
 3760SOL    HW212180   1.234   5.302   2.380 -1.3155  0.4226  0.1436
 3761SOL     OW12181   4.539   3.041   0.144 -0.2594  0.2602  1.1217
 3761SOL    HW112182   4.597   3.120   0.161 -1.3216  1.1538  0.7093
 3761SOL    HW212183   4.449   3.056   0.186 -0.7757 -0.3140  0.2494
 3762SOL     OW12184   2.508   6.207   6.201  0.7633 -0.2273 -0.3726
 3762SOL    HW112185   2.517   6.108   6.211  1.0057 -0.0885  1.0079
 3762SOL    HW212186   2.465   6.245   6.283  3.3229  1.1284  0.4606
 3763SOL     OW12187   0.583   4.694   6.587 -0.3062  0.2854 -0.4783
 3763SOL    HW112188   0.483   4.693   6.586 -0.3503  1.9401 -0.4445
 3763SOL    HW212189   0.615   4.780   6.548  1.0921  0.1135  0.2592
 3764SOL     OW12190   1.022   1.900   0.721 -0.5092 -0.8522  0.3031
 3764SOL    HW112191   1.016   2.000   0.724 -0.6380 -0.8624  0.3611
 3764SOL    HW212192   1.105   1.870   0.769 -0.9603 -0.8344  1.1008
 3765SOL     OW12193   6.738   0.842   3.391 -0.0523 -0.4413  0.0433
 3765SOL    HW112194   6.639   0.856   3.390 -0.1001 -0.7078 -1.3695
 3765SOL    HW212195   6.775   0.861   3.300  1.1996 -0.3584  0.5520
 3766SOL     OW12196   2.933   6.791   3.892 -0.0277 -0.5832 -0.2361
 3766SOL    HW112197   2.854   6.852   3.901  1.5221  1.4181  0.8018
 3766SOL    HW212198   2.920   6.711   3.951 -1.0547 -0.0438  0.3058
 3767SOL     OW12199   5.871   2.615   6.474  0.0556 -0.2537 -0.2499
 3767SOL    HW112200   5.772   2.625   6.476  0.0192 -0.4328 -0.9130
 3767SOL    HW212201   5.896   2.522   6.501  0.0926  0.0264  0.7031
 3768SOL     OW12202   5.859   2.326   6.144 -0.7151 -0.0100 -0.1523
 3768SOL    HW112203   5.954   2.318   6.176 -0.3685 -0.1694 -1.1993
 3768SOL    HW212204   5.806   2.248   6.178 -0.5292  0.1844  0.6082
 3769SOL     OW12205   3.774   5.709   5.245  0.1978 -0.1913  0.3499
 3769SOL    HW112206   3.783   5.617   5.206 -0.1350  0.0735 -0.3716
 3769SOL    HW212207   3.849   5.766   5.211 -0.3935  0.1863 -0.3412
 3770SOL     OW12208   3.270   3.057   0.708  0.5547  0.8165 -0.1588
 3770SOL    HW112209   3.230   2.992   0.772  1.2582  1.4302  0.9375
 3770SOL    HW212210   3.351   3.017   0.665  0.5743  0.7093 -0.0220
 3771SOL     OW12211   4.177   5.414   4.672  0.5606 -0.0656  0.4783
 3771SOL    HW112212   4.240   5.371   4.608  0.4255  0.4133  0.0134
 3771SOL    HW212213   4.091   5.436   4.625  1.0960  1.9114  0.3319
 3772SOL     OW12214   0.508   3.861   1.453 -0.3246 -0.4269 -0.4536
 3772SOL    HW112215   0.523   3.932   1.521 -0.7274 -2.1521  1.5246
 3772SOL    HW212216   0.588   3.854   1.393 -0.0181  1.2121 -0.2664
 3773SOL     OW12217   6.517   2.962   6.342 -0.2225 -0.1727 -0.0069
 3773SOL    HW112218   6.464   2.918   6.269 -0.4930  0.3350 -0.1224
 3773SOL    HW212219   6.463   2.964   6.426  0.4386 -1.5926  0.4760
 3774SOL     OW12220   3.426   4.220   1.343 -0.2929  0.0605 -0.0136
 3774SOL    HW112221   3.358   4.291   1.362  2.4426  2.9603 -0.2857
 3774SOL    HW212222   3.457   4.229   1.248  1.4502 -0.2509  0.5003
 3775SOL     OW12223   3.090   2.632   5.651  0.2557  0.1356 -0.2487
 3775SOL    HW112224   3.060   2.707   5.592 -0.7303 -0.2467 -0.2533
 3775SOL    HW212225   3.181   2.602   5.624  0.0502  0.3570 -1.2005
 3776SOL     OW12226   3.549   4.149   2.655  0.2348  0.0667 -0.0933
 3776SOL    HW112227   3.598   4.209   2.718 -0.2050  1.2498 -0.8490
 3776SOL    HW212228   3.581   4.165   2.562 -1.2361  0.5093 -0.5444
 3777SOL     OW12229   1.109   0.960   1.032 -0.2993 -0.5172 -0.2137
 3777SOL    HW112230   1.053   0.899   1.089 -1.1948  0.3493 -0.1486
 3777SOL    HW212231   1.053   0.998   0.959  0.1998  0.3734 -0.1438
 3778SOL     OW12232   1.235   2.142   1.409 -0.6713 -0.6834  0.0514
 3778SOL    HW112233   1.333   2.163   1.402 -0.4609 -1.9493 -1.2454
 3778SOL    HW212234   1.217   2.053   1.367 -2.4113 -0.4078  0.1527
 3779SOL     OW12235   4.890   1.106   5.445 -0.3489  0.9002  0.1324
 3779SOL    HW112236   4.835   1.152   5.516  0.4151  0.5884  0.9494
 3779SOL    HW212237   4.884   1.007   5.459  0.8430  0.8710  0.5807
 3780SOL     OW12238   1.609   2.624   4.316 -0.4574  0.3424  0.3338
 3780SOL    HW112239   1.532   2.563   4.332  0.0100  0.1539  2.0039
 3780SOL    HW212240   1.589   2.682   4.236 -1.6275 -0.7823 -0.2271
 3781SOL     OW12241   4.468   1.746   4.391 -0.0209 -0.1052  0.3462
 3781SOL    HW112242   4.490   1.830   4.341 -1.7229  0.0206 -0.2472
 3781SOL    HW212243   4.372   1.747   4.417 -0.7037 -2.8734 -1.6562
 3782SOL     OW12244   3.088   3.043   1.913 -0.9792 -0.1546  0.0174
 3782SOL    HW112245   3.174   3.009   1.950  0.5747  1.9955 -1.3557
 3782SOL    HW212246   3.066   3.132   1.954 -1.5613  0.1748 -0.9499
 3783SOL     OW12247   0.380   4.731   2.203 -0.1943  0.1419 -0.7093
 3783SOL    HW112248   0.477   4.724   2.180  0.0049  0.5626 -0.0344
 3783SOL    HW212249   0.325   4.722   2.120  0.3828 -0.8656 -1.0055
 3784SOL     OW12250   6.741   5.405   5.604  0.0482 -0.6891 -0.3037
 3784SOL    HW112251   6.706   5.493   5.639 -0.0733 -1.1387  0.7624
 3784SOL    HW212252   6.821   5.422   5.547 -0.9649  0.2345 -1.4904
 3785SOL     OW12253   3.083   3.615   5.935  0.3199  0.5251 -0.1684
 3785SOL    HW112254   3.012   3.552   5.902  0.4777 -0.5942  1.5296
 3785SOL    HW212255   3.077   3.623   6.035  0.4011  3.1293 -0.3008
 3786SOL     OW12256   0.888   1.906   2.718  0.0442  0.2062 -0.1158
 3786SOL    HW112257   0.986   1.914   2.737 -0.0366 -0.0154  0.4240
 3786SOL    HW212258   0.837   1.957   2.787 -0.1764  1.7047 -1.3280
 3787SOL     OW12259   6.621   4.373   5.799 -0.0451  0.1161 -0.4989
 3787SOL    HW112260   6.579   4.446   5.744  0.6111 -0.1099 -1.3323
 3787SOL    HW212261   6.585   4.284   5.769  0.9695 -0.0762 -1.1943
 3788SOL     OW12262   4.236   2.254   1.490 -0.4092 -0.2635 -0.3666
 3788SOL    HW112263   4.256   2.158   1.508  0.9517  0.0651  0.0143
 3788SOL    HW212264   4.139   2.266   1.472 -0.3301 -1.9873 -2.1976
 3789SOL     OW12265   0.992   2.955   6.437 -0.6579 -0.3396 -0.0486
 3789SOL    HW112266   1.020   2.880   6.497  0.7487  0.9155  0.9323
 3789SOL    HW212267   1.044   2.951   6.352 -1.5202 -1.1961 -0.5597
 3790SOL     OW12268   0.291   4.355   4.237  0.4689 -0.3087 -0.4906
 3790SOL    HW112269   0.286   4.454   4.252  1.7415 -0.1629 -0.8936
 3790SOL    HW212270   0.378   4.333   4.192  0.1392 -1.5990 -0.5220
 3791SOL     OW12271   6.749   2.081   0.194 -0.4336  0.0178 -0.1829
 3791SOL    HW112272   6.805   2.077   0.111 -1.3652  1.2824 -0.9316
 3791SOL    HW212273   6.806   2.104   0.272  0.3228 -0.2300 -0.6551
 3792SOL     OW12274   5.013   3.516   6.613  0.0180  0.1054 -0.7395
 3792SOL    HW112275   5.028   3.516   6.712  1.9884 -0.2309 -0.9994
 3792SOL    HW212276   4.922   3.553   6.594  0.5354  2.6186  1.0725
 3793SOL     OW12277   1.099   7.014   6.444  0.6392 -0.5313  0.4241
 3793SOL    HW112278   1.038   7.001   6.522 -0.4177  0.6281 -0.1893
 3793SOL    HW212279   1.179   7.066   6.473  1.3972 -2.0660  1.2325
 3794SOL     OW12280   5.406   3.412   5.112  0.5060 -0.2040  0.2799
 3794SOL    HW112281   5.499   3.379   5.095  1.6509  3.7247 -2.4867
 3794SOL    HW212282   5.410   3.497   5.165 -1.2983  0.8936 -1.2137
 3795SOL     OW12283   6.309   2.765   1.518 -0.0791 -0.0042  0.1734
 3795SOL    HW112284   6.370   2.743   1.441  0.2182 -2.3175  1.0076
 3795SOL    HW212285   6.239   2.830   1.487  0.3160 -0.4966 -1.9147
 3796SOL     OW12286   5.730   2.747   4.728  0.0261 -0.4834 -0.1963
 3796SOL    HW112287   5.823   2.769   4.758  0.4642 -2.2708 -0.1328
 3796SOL    HW212288   5.719   2.775   4.633  1.2957 -1.9540 -0.8214
 3797SOL     OW12289   1.145   3.728   3.724  0.4548 -0.1376 -0.0514
 3797SOL    HW112290   1.057   3.775   3.724 -0.2037 -1.2588 -1.8468
 3797SOL    HW212291   1.210   3.779   3.668  0.8234  0.4196  0.8561
 3798SOL     OW12292   1.759   5.301   1.267  0.0897  0.0771  0.0378
 3798SOL    HW112293   1.781   5.250   1.183  1.5566 -1.1814  1.1354
 3798SOL    HW212294   1.707   5.383   1.243  1.3680  0.3131 -2.2059
 3799SOL     OW12295   0.457   5.024   4.704  0.5584  0.1506 -0.5762
 3799SOL    HW112296   0.480   5.119   4.683  0.2462 -0.1256 -2.3046
 3799SOL    HW212297   0.538   4.967   4.697  1.3136  0.5590  2.8351
 3800SOL     OW12298   2.420   4.878   4.157 -0.6345  0.1523  0.1668
 3800SOL    HW112299   2.364   4.814   4.210 -1.2246  0.5055 -0.0275
 3800SOL    HW212300   2.398   4.972   4.182 -1.7197  0.3744 -1.4481
 3801SOL     OW12301   6.753   2.744   3.287  0.0673  0.2761 -0.1025
 3801SOL    HW112302   6.841   2.750   3.241  0.2991  1.8528  0.4881
 3801SOL    HW212303   6.685   2.799   3.238 -0.7729 -1.3426 -0.8583
 3802SOL     OW12304   5.251   2.031   2.669 -0.4691  0.0252  0.0054
 3802SOL    HW112305   5.307   2.092   2.724  1.4425 -0.4727 -1.2868
 3802SOL    HW212306   5.156   2.063   2.670 -0.3951  0.3600  3.0104
 3803SOL     OW12307   0.209   2.926   0.777 -0.2641  0.7231 -0.3876
 3803SOL    HW112308   0.139   2.865   0.813 -0.1995  0.1510 -1.2049
 3803SOL    HW212309   0.249   2.886   0.695  1.6243  0.6258  0.5204
 3804SOL     OW12310   0.117   2.170   5.994  0.3057 -0.3499 -0.1500
 3804SOL    HW112311   0.068   2.216   6.068  1.2522  1.0199 -0.3294
 3804SOL    HW212312   0.059   2.099   5.954 -0.4381 -0.7293  1.5112
 3805SOL     OW12313   6.889   1.150   4.663 -0.3950  0.2352 -0.1499
 3805SOL    HW112314   6.971   1.112   4.706  1.0475 -0.1627 -3.0408
 3805SOL    HW212315   6.891   1.250   4.672 -0.9912  0.1054  2.0208
 3806SOL     OW12316   2.873   2.907   1.392  0.0488  0.1697 -0.1319
 3806SOL    HW112317   2.961   2.937   1.427  0.2798  0.7948 -1.2015
 3806SOL    HW212318   2.803   2.918   1.462  0.9079 -0.8743  0.9183
 3807SOL     OW12319   4.164   6.714   0.375 -0.2592  0.0348 -0.2977
 3807SOL    HW112320   4.113   6.727   0.460  1.7296  0.4120  0.8966
 3807SOL    HW212321   4.261   6.707   0.395  0.1943 -0.7395 -2.4914
 3808SOL     OW12322   6.531   1.573   5.582 -0.6411 -0.5852 -0.1536
 3808SOL    HW112323   6.616   1.526   5.557 -0.2849  0.2524 -0.5391
 3808SOL    HW212324   6.492   1.529   5.663  0.1463 -0.9897  0.0180
 3809SOL     OW12325   1.284   1.683   2.237  0.6742  0.2195 -0.1867
 3809SOL    HW112326   1.248   1.630   2.313 -2.0621  2.9063  0.5895
 3809SOL    HW212327   1.353   1.747   2.270 -0.4608  1.3345  0.1049
 3810SOL     OW12328   6.096   0.572   1.752 -0.3850 -0.0273  0.1528
 3810SOL    HW112329   6.174   0.590   1.812 -1.2644  1.0454  1.0074
 3810SOL    HW212330   6.079   0.473   1.748  0.3044 -0.1867  0.8564
 3811SOL     OW12331   2.654   1.939   0.816  0.4261  0.2222  0.0887
 3811SOL    HW112332   2.628   2.032   0.842  0.9828  0.1650  0.8928
 3811SOL    HW212333   2.752   1.925   0.832  0.6815 -0.0187 -1.5315
 3812SOL     OW12334   2.935   3.893   5.527  0.1356  0.3772 -0.2838
 3812SOL    HW112335   2.847   3.870   5.569 -0.1550  0.1448 -1.0007
 3812SOL    HW212336   2.935   3.991   5.504  0.7156  0.7491  1.2217
 3813SOL     OW12337   3.720   1.739   5.496 -0.3795 -0.0127 -0.1738
 3813SOL    HW112338   3.812   1.727   5.532 -0.8172 -2.0438  0.4108
 3813SOL    HW212339   3.711   1.686   5.411 -0.9310  0.3957 -0.3727
 3814SOL     OW12340   6.734   2.812   6.931 -0.5274 -0.0531 -0.3751
 3814SOL    HW112341   6.722   2.893   6.988 -1.8761 -0.7744  0.4128
 3814SOL    HW212342   6.666   2.811   6.858  0.3583  0.1984 -1.2265
 3815SOL     OW12343   5.881   0.177   3.679  0.0907 -0.2656  0.1558
 3815SOL    HW112344   5.871   0.083   3.714 -0.9315 -0.7872 -1.4380
 3815SOL    HW212345   5.902   0.174   3.582  0.5739  1.1780  0.2007
 3816SOL     OW12346   0.732   6.690   0.814 -0.4135  0.3022  0.2860
 3816SOL    HW112347   0.750   6.785   0.836  1.0113 -0.2251  1.5744
 3816SOL    HW212348   0.816   6.647   0.779 -0.7364 -0.7156  0.7067
 3817SOL     OW12349   0.304   0.368   3.909 -0.0709  0.7272 -0.4451
 3817SOL    HW112350   0.295   0.272   3.886  1.0489  0.2634  0.9009
 3817SOL    HW212351   0.340   0.419   3.831 -0.5198  0.0347 -1.1082
 3818SOL     OW12352   3.031   1.823   4.724 -0.2635  0.3280  0.2884
 3818SOL    HW112353   3.102   1.753   4.717  0.3932  1.1171 -1.7045
 3818SOL    HW212354   3.018   1.848   4.820  1.3028 -0.6912  0.7990
 3819SOL     OW12355   0.337   0.006   4.690  0.1423  0.3182 -0.1098
 3819SOL    HW112356   0.408   0.007   4.762  1.2116 -1.6378 -1.0693
 3819SOL    HW212357   0.350  -0.074   4.632 -2.1527  0.5969 -1.0820
 3820SOL     OW12358   1.995   2.170   6.962  0.0599 -0.0428 -0.4683
 3820SOL    HW112359   1.919   2.157   6.897  0.0750 -0.3680 -0.4240
 3820SOL    HW212360   2.082   2.153   6.915  0.1666  1.1500 -0.7392
 3821SOL     OW12361   3.425   1.751   3.915  0.2299 -0.6540  0.0414
 3821SOL    HW112362   3.377   1.839   3.922  1.2492 -0.1732  1.4211
 3821SOL    HW212363   3.459   1.725   4.005  1.8644 -1.3662 -0.7493
 3822SOL     OW12364   0.370   0.151   1.970 -0.1013 -0.3914 -0.3904
 3822SOL    HW112365   0.396   0.181   1.878 -0.0315 -0.6319 -0.4478
 3822SOL    HW212366   0.451   0.118   2.019 -0.2244 -0.7302 -0.4159
 3823SOL     OW12367   0.848   6.313   0.833 -0.1746 -0.4383  0.2751
 3823SOL    HW112368   0.866   6.230   0.884 -0.1489 -0.5129  0.1452
 3823SOL    HW212369   0.765   6.356   0.867 -0.2555 -0.5830  0.2598
 3824SOL     OW12370   6.587   3.855   3.003  0.0542  0.3828 -1.4214
 3824SOL    HW112371   6.669   3.879   3.054  0.2110  0.6341 -1.7812
 3824SOL    HW212372   6.613   3.824   2.911 -0.1402 -1.2333 -0.9540
 3825SOL     OW12373   2.132   6.499   6.237  0.5483  0.5622 -0.3120
 3825SOL    HW112374   2.120   6.415   6.183  0.8986  0.2106  0.1421
 3825SOL    HW212375   2.057   6.508   6.302  2.4863 -1.5843  2.4609
 3826SOL     OW12376   3.076   5.244   5.132 -0.0461 -0.2787 -0.1404
 3826SOL    HW112377   3.051   5.341   5.137  3.6978  0.8022  0.7304
 3826SOL    HW212378   3.151   5.226   5.195  1.0609 -3.2098 -2.0919
 3827SOL     OW12379   4.825   6.810   4.174 -0.4437  0.0295 -0.5259
 3827SOL    HW112380   4.847   6.747   4.100  0.9963 -0.0866 -0.0272
 3827SOL    HW212381   4.837   6.904   4.142 -2.8469  0.1215 -1.3508
 3828SOL     OW12382   6.487   1.961   5.814  0.5445  0.1108 -0.3067
 3828SOL    HW112383   6.464   2.059   5.810 -1.6516 -0.3648 -3.5771
 3828SOL    HW212384   6.403   1.908   5.807  1.7144 -2.0920  1.2752
 3829SOL     OW12385   2.180   2.709   3.676  0.0362 -0.1636  0.0697
 3829SOL    HW112386   2.257   2.717   3.739  1.5388  1.3225 -1.8314
 3829SOL    HW212387   2.199   2.762   3.593 -3.4866  1.1793 -0.0632
 3830SOL     OW12388   0.915   3.916   4.850  0.1805  0.0915  0.0819
 3830SOL    HW112389   0.984   3.983   4.876 -0.8295  0.6814  1.3891
 3830SOL    HW212390   0.949   3.824   4.869  1.0516  0.3020 -0.4253
 3831SOL     OW12391   6.006   2.454   3.762 -0.3152 -0.0016  0.3253
 3831SOL    HW112392   6.097   2.424   3.793 -0.8181  0.2923  2.2067
 3831SOL    HW212393   5.936   2.394   3.800 -1.0062  0.6685  0.1421
 3832SOL     OW12394   6.958   5.936   5.682 -0.0491  0.5173  0.2648
 3832SOL    HW112395   6.948   5.917   5.779 -0.7220 -0.9202 -0.0481
 3832SOL    HW212396   6.992   5.854   5.635  0.0736  1.1203 -0.7429
 3833SOL     OW12397   6.941   5.496   4.311  0.0920 -0.7245  0.1728
 3833SOL    HW112398   7.040   5.489   4.320  0.5749  1.0396 -2.7581
 3833SOL    HW212399   6.914   5.592   4.317 -1.3193 -1.0823 -0.1393
 3834SOL     OW12400   1.959   1.272   0.148 -0.4952  0.2368 -0.1507
 3834SOL    HW112401   1.942   1.212   0.070 -0.1076  1.0311 -0.8749
 3834SOL    HW212402   1.951   1.367   0.118 -0.8495  0.5520  0.9100
 3835SOL     OW12403   1.186   0.051   0.358 -0.0407 -0.2124 -0.0920
 3835SOL    HW112404   1.128  -0.023   0.394 -0.5881 -0.6054 -1.6913
 3835SOL    HW212405   1.279   0.040   0.392 -0.1022 -1.6822 -0.3441
 3836SOL     OW12406   2.767   4.920   1.391  0.1215 -0.3024  0.9287
 3836SOL    HW112407   2.834   4.896   1.321 -2.0086  0.4527 -1.5306
 3836SOL    HW212408   2.720   4.838   1.423  2.1989 -0.8566  2.7847
 3837SOL     OW12409   1.912   3.845   2.528 -0.0959 -0.0511 -0.1808
 3837SOL    HW112410   1.997   3.792   2.522 -0.0769 -0.1226  0.6200
 3837SOL    HW212411   1.933   3.942   2.525 -0.0594 -0.0674 -0.7498
 3838SOL     OW12412   3.401   0.037   2.204  0.1026  0.7127  0.2434
 3838SOL    HW112413   3.401   0.007   2.299  0.9803 -0.4464 -0.1086
 3838SOL    HW212414   3.492   0.069   2.178 -0.4046  2.1392  0.1066
 3839SOL     OW12415   1.950   4.711   6.000  0.1186  0.3437  0.1920
 3839SOL    HW112416   1.971   4.661   6.084  2.7813  1.0872  0.0581
 3839SOL    HW212417   2.028   4.768   5.974 -0.3928 -0.2017 -3.0615
 3840SOL     OW12418   2.243   4.995   4.972 -0.8815  0.2547  0.3409
 3840SOL    HW112419   2.246   5.041   4.884 -1.0235 -1.1435 -0.4208
 3840SOL    HW212420   2.328   5.012   5.022 -1.3407  2.1390  0.5248
 3841SOL     OW12421   4.268   4.664   2.346 -0.1283  0.0171  0.8246
 3841SOL    HW112422   4.287   4.673   2.248  0.6815  0.7678  1.0314
 3841SOL    HW212423   4.345   4.620   2.391 -1.1501 -1.7783  0.9156
 3842SOL     OW12424   0.587   0.848   5.874  0.4145  0.3154 -0.1747
 3842SOL    HW112425   0.588   0.789   5.955 -0.1266  0.0040 -0.3890
 3842SOL    HW212426   0.498   0.891   5.864 -0.2932 -1.3833 -1.8101
 3843SOL     OW12427   6.123   1.729   6.565  0.3042 -0.3358  0.6772
 3843SOL    HW112428   6.162   1.820   6.576 -2.0627  0.9766 -0.8886
 3843SOL    HW212429   6.042   1.720   6.622 -0.1772 -1.0062 -0.0895
 3844SOL     OW12430   1.316   0.607   0.490  0.7141 -0.6197 -0.3223
 3844SOL    HW112431   1.350   0.685   0.437 -0.6565  1.5202  1.7090
 3844SOL    HW212432   1.249   0.557   0.437 -0.5922  1.4306 -0.7151
 3845SOL     OW12433   5.524   4.968   5.960  0.0186  1.2416  0.3884
 3845SOL    HW112434   5.620   4.939   5.966  0.2302  2.1763  1.8278
 3845SOL    HW212435   5.516   5.043   5.895 -0.2828 -0.8005 -2.1270
 3846SOL     OW12436   0.217   1.401   1.670  0.1250 -0.3222 -0.1746
 3846SOL    HW112437   0.244   1.356   1.585 -0.5232  1.6287 -1.4934
 3846SOL    HW212438   0.291   1.394   1.737  0.6665 -1.8675 -0.8940
 3847SOL     OW12439   5.260   5.818   6.688 -0.3691  0.8997 -0.2050
 3847SOL    HW112440   5.351   5.857   6.677  0.5227 -0.4461  1.6801
 3847SOL    HW212441   5.267   5.719   6.700 -1.9827  0.8445  0.7716
 3848SOL     OW12442   6.479   0.442   1.669 -0.2798 -0.2482 -0.2741
 3848SOL    HW112443   6.566   0.438   1.718 -0.2998  1.7250  0.0298
 3848SOL    HW212444   6.467   0.358   1.616  0.5464 -1.6975  1.7082
 3849SOL     OW12445   2.649   2.787   6.545  0.2911 -0.3092 -0.0445
 3849SOL    HW112446   2.717   2.842   6.498  0.2661 -0.6000 -0.4296
 3849SOL    HW212447   2.636   2.701   6.495 -0.4284 -0.2118 -0.0249
 3850SOL     OW12448   4.335   2.275   6.005 -0.1686 -0.2400  1.0256
 3850SOL    HW112449   4.422   2.240   6.040  0.3398 -0.1225 -0.0647
 3850SOL    HW212450   4.292   2.334   6.073  1.9102  1.8944  0.6037
 3851SOL     OW12451   5.427   6.004   1.292  0.1409  0.2751 -0.3359
 3851SOL    HW112452   5.423   5.917   1.242  2.9959 -0.2581  0.2142
 3851SOL    HW212453   5.354   6.006   1.361 -2.5546  0.1315 -2.9522
 3852SOL     OW12454   3.733   1.669   2.564  0.3996 -0.6468 -0.2911
 3852SOL    HW112455   3.819   1.718   2.572 -0.7343  1.4952 -0.5310
 3852SOL    HW212456   3.683   1.702   2.483 -1.5988 -0.2253  1.0333
 3853SOL     OW12457   5.482   6.854   4.442 -0.0382  0.3889 -0.0574
 3853SOL    HW112458   5.487   6.912   4.523 -1.1536 -0.7540  0.8737
 3853SOL    HW212459   5.512   6.762   4.465 -1.7871 -0.3424 -0.5078
 3854SOL     OW12460   6.091   4.880   5.060 -0.2337 -0.1791 -0.0722
 3854SOL    HW112461   6.178   4.836   5.037 -0.0060 -0.1702  0.7543
 3854SOL    HW212462   6.084   4.890   5.159 -1.1729 -0.1644 -0.1347
 3855SOL     OW12463   1.408   5.755   1.274 -0.3587 -0.0330 -0.7670
 3855SOL    HW112464   1.440   5.808   1.352 -0.6370  1.6749 -1.7477
 3855SOL    HW212465   1.319   5.791   1.244 -0.2722 -0.6652 -1.8347
 3856SOL     OW12466   6.136   3.387   0.789  0.3081 -0.1020 -0.5457
 3856SOL    HW112467   6.081   3.307   0.764  1.1020 -0.1294 -2.3477
 3856SOL    HW212468   6.085   3.470   0.765 -0.0201 -0.0816  0.2119
 3857SOL     OW12469   6.027   3.052   6.376 -0.2199 -0.4073 -0.2965
 3857SOL    HW112470   6.054   3.118   6.447  0.9562  1.8159 -2.6359
 3857SOL    HW212471   6.056   2.960   6.403  3.5715  0.8485  0.5660
 3858SOL     OW12472   6.056   3.352   1.487 -0.0272 -0.0391  0.4097
 3858SOL    HW112473   6.079   3.311   1.575  0.8884 -0.2235  0.0971
 3858SOL    HW212474   6.090   3.294   1.413  2.7733  1.9795 -0.0582
 3859SOL     OW12475   0.129   1.183   6.282  0.1226 -0.1811  0.3594
 3859SOL    HW112476   0.046   1.147   6.240  0.8426 -0.5623 -0.7774
 3859SOL    HW212477   0.161   1.120   6.352 -0.8223  0.2272  1.1914
 3860SOL     OW12478   2.553   5.303   3.774  0.1716  0.5898 -0.1127
 3860SOL    HW112479   2.565   5.301   3.675  2.6550  0.6573  0.1039
 3860SOL    HW212480   2.475   5.361   3.798  0.3833  1.7284 -1.9768
 3861SOL     OW12481   6.167   4.148   3.087 -0.2822  0.3018  0.0306
 3861SOL    HW112482   6.070   4.147   3.062 -0.6367  0.0433  1.3000
 3861SOL    HW212483   6.205   4.057   3.074 -1.7148 -1.2503  4.6780
 3862SOL     OW12484   5.179   2.904   3.218  1.0144  0.5961  0.7707
 3862SOL    HW112485   5.194   2.863   3.308 -1.2568  0.2363  1.0586
 3862SOL    HW212486   5.081   2.900   3.196  1.7908 -2.5755 -3.2711
 3863SOL     OW12487   0.363   2.185   5.893 -0.0945 -0.1925 -0.3184
 3863SOL    HW112488   0.406   2.095   5.890 -0.8367 -0.5956  0.6550
 3863SOL    HW212489   0.275   2.179   5.940 -0.0760  1.0707 -0.0670
 3864SOL     OW12490   1.663   5.791   4.697  0.0557  0.1491  0.2094
 3864SOL    HW112491   1.614   5.808   4.611 -1.3460  0.6597  1.0764
 3864SOL    HW212492   1.761   5.794   4.680 -0.1743 -0.3052 -1.4796
 3865SOL     OW12493   6.055   3.219   6.609  0.2970 -0.5143  0.0862
 3865SOL    HW112494   6.003   3.254   6.687  0.9792 -1.6181  1.0694
 3865SOL    HW212495   6.152   3.237   6.624  0.3062  1.0084 -1.4572
 3866SOL     OW12496   6.364   3.733   2.907  0.1742  1.5887  0.2174
 3866SOL    HW112497   6.303   3.805   2.875 -0.2543  1.8687  1.5765
 3866SOL    HW212498   6.438   3.774   2.961 -0.0810  1.0310  1.0161
 3867SOL     OW12499   0.970   1.589   2.303 -0.4691  0.8332 -0.0964
 3867SOL    HW112500   0.923   1.671   2.271  0.4759  1.1343 -0.7169
 3867SOL    HW212501   1.018   1.609   2.388 -0.7596  0.7483  0.0899
 3868SOL     OW12502   1.559   6.522   4.872 -0.2831  0.3425 -0.5235
 3868SOL    HW112503   1.655   6.495   4.877 -0.0792  0.6566 -2.2139
 3868SOL    HW212504   1.518   6.516   4.963  1.8186  1.9916  0.6322
 3869SOL     OW12505   2.426   1.039   3.923 -0.1036  0.4161 -0.7697
 3869SOL    HW112506   2.330   1.017   3.909  0.2806 -0.6905 -1.7893
 3869SOL    HW212507   2.464   1.081   3.840  0.6529 -0.5139 -0.9121
 3870SOL     OW12508   3.946   2.268   0.522  0.1322  0.6000  0.4615
 3870SOL    HW112509   3.901   2.195   0.471 -0.2968  1.4739 -0.4630
 3870SOL    HW212510   4.002   2.323   0.459  0.4724  1.0441  1.1353
 3871SOL     OW12511   0.534   6.304   3.481  0.4930 -0.4854 -0.1828
 3871SOL    HW112512   0.443   6.274   3.512  0.2584 -1.8832 -2.0164
 3871SOL    HW212513   0.604   6.249   3.527  0.2764 -1.0164 -0.4805
 3872SOL     OW12514   1.888   2.733   0.162  0.2430  0.6448  0.0043
 3872SOL    HW112515   1.834   2.650   0.146 -0.2042  1.0519 -0.6265
 3872SOL    HW212516   1.956   2.743   0.089 -0.4492  1.4272 -0.5396
 3873SOL     OW12517   0.391   5.058   3.538 -0.2986  0.6262  0.0252
 3873SOL    HW112518   0.414   5.050   3.635  0.4256  0.0360 -0.1800
 3873SOL    HW212519   0.474   5.078   3.485 -0.5703  0.2892 -0.5452
 3874SOL     OW12520   5.394   5.905   0.049 -0.0884 -0.1871  0.0443
 3874SOL    HW112521   5.298   5.880   0.039 -0.3325  0.7172  0.0245
 3874SOL    HW212522   5.400   5.998   0.086  0.6982  1.1624 -3.1045
 3875SOL     OW12523   3.919   6.534   0.428  0.1122  0.5441 -0.3410
 3875SOL    HW112524   3.947   6.609   0.488  1.2680 -0.2477  0.1351
 3875SOL    HW212525   3.935   6.560   0.333 -3.8956  2.7624 -0.6327
 3876SOL     OW12526   2.104   0.386   6.881 -0.6773  0.8476  0.1113
 3876SOL    HW112527   2.094   0.471   6.828 -0.1597 -0.2400 -1.8238
 3876SOL    HW212528   2.135   0.313   6.821 -3.3031 -1.3294  1.1828
 3877SOL     OW12529   4.059   4.864   6.943 -0.1965 -0.9623 -0.2341
 3877SOL    HW112530   4.067   4.875   7.042  0.3221 -2.1505 -0.1225
 3877SOL    HW212531   4.053   4.766   6.922  0.6672 -0.7661 -1.4476
 3878SOL     OW12532   5.351   3.248   2.616 -0.2161 -0.4122 -0.3221
 3878SOL    HW112533   5.323   3.156   2.645  0.2238 -0.6589 -0.6667
 3878SOL    HW212534   5.451   3.256   2.623 -0.2799  0.1481  0.0138
 3879SOL     OW12535   2.825   1.168   6.561 -0.5456 -0.7387  0.4578
 3879SOL    HW112536   2.920   1.136   6.555 -0.6818 -1.3336  1.2690
 3879SOL    HW212537   2.764   1.090   6.563 -0.9871 -0.3880  0.9829
 3880SOL     OW12538   3.770   3.150   5.388  0.7960  0.4535  0.1521
 3880SOL    HW112539   3.812   3.075   5.337 -1.2161  0.2546 -1.3293
 3880SOL    HW212540   3.838   3.220   5.407  2.7036 -1.6139  1.4336
 3881SOL     OW12541   5.081   4.613   4.235  0.0236  0.1283 -0.3387
 3881SOL    HW112542   5.170   4.571   4.252 -0.3464 -0.5674 -0.0910
 3881SOL    HW212543   5.026   4.553   4.178 -0.0338  0.8877 -1.1166
 3882SOL     OW12544   1.084   2.637   5.415  0.2307 -0.0089 -0.0616
 3882SOL    HW112545   1.112   2.542   5.430 -0.3471  0.1769  2.7071
 3882SOL    HW212546   1.013   2.640   5.344  0.0565 -1.6646 -0.0049
 3883SOL     OW12547   0.657   3.142   4.678 -0.5125  0.2702 -0.2098
 3883SOL    HW112548   0.603   3.114   4.758  0.1846  0.2055  0.2426
 3883SOL    HW212549   0.666   3.241   4.676  1.5557  0.1746  1.2062
 3884SOL     OW12550   3.307   0.455   0.851  0.5256  0.1691 -0.1063
 3884SOL    HW112551   3.379   0.426   0.914 -0.7735 -0.5704  1.1007
 3884SOL    HW212552   3.292   0.384   0.783 -0.6144 -0.7561  1.0553
 3885SOL     OW12553   5.788   4.135   4.719 -0.8834  0.5632  0.2642
 3885SOL    HW112554   5.858   4.203   4.697  0.8070 -0.5972  1.7494
 3885SOL    HW212555   5.796   4.108   4.815 -0.6990 -2.5093 -0.4916
 3886SOL     OW12556   3.111   3.026   1.537  0.2397 -0.1614  0.1470
 3886SOL    HW112557   3.203   2.990   1.550  0.3004 -0.5737 -1.2661
 3886SOL    HW212558   3.110   3.087   1.458 -0.6543  0.0422  0.3038
 3887SOL     OW12559   1.950   6.552   0.720 -0.5521 -0.4321  0.3423
 3887SOL    HW112560   1.856   6.546   0.752 -0.5855 -2.2799  0.0410
 3887SOL    HW212561   1.968   6.477   0.656  1.2218 -0.3598  0.7019
 3888SOL     OW12562   4.757   5.134   0.386 -0.0117  0.3950 -0.2697
 3888SOL    HW112563   4.798   5.044   0.400 -0.5429 -0.2786 -2.6133
 3888SOL    HW212564   4.658   5.126   0.386 -0.0592  0.8381 -1.1872
 3889SOL     OW12565   6.880   4.631   5.661  0.7572 -0.2089  0.2286
 3889SOL    HW112566   6.884   4.664   5.756 -0.5456  3.8896 -0.9612
 3889SOL    HW212567   6.785   4.611   5.637  0.5763  2.0026 -1.1005
 3890SOL     OW12568   0.372   6.416   2.029  0.2309  0.2906  0.4026
 3890SOL    HW112569   0.427   6.482   1.979 -0.9231 -0.4612 -2.0072
 3890SOL    HW212570   0.424   6.332   2.041  0.1326  0.0634 -0.6404
 3891SOL     OW12571   4.702   4.574   0.333  0.3224  0.4468 -0.2598
 3891SOL    HW112572   4.769   4.606   0.400  1.5407 -1.1122 -0.6759
 3891SOL    HW212573   4.625   4.531   0.381  1.2017 -0.6909  0.1855
 3892SOL     OW12574   6.996   0.857   5.999 -0.0809  0.4697  0.3168
 3892SOL    HW112575   7.090   0.856   5.964  0.3895 -2.0295  1.4578
 3892SOL    HW212576   6.938   0.800   5.941 -0.3505  0.0989  0.9388
 3893SOL     OW12577   0.927   2.516   3.689  0.0415  0.1760  0.3596
 3893SOL    HW112578   0.838   2.534   3.730 -0.7435 -0.4422 -1.0199
 3893SOL    HW212579   0.974   2.603   3.672 -0.0097  0.4810  1.6456
 3894SOL     OW12580   6.690   5.017   0.275 -0.4249 -0.2395  0.5482
 3894SOL    HW112581   6.766   4.958   0.248 -0.4772 -0.3354  0.6120
 3894SOL    HW212582   6.604   4.967   0.266 -0.6412  0.3664 -1.0704
 3895SOL     OW12583   0.718   5.633   4.824 -0.4020  0.3282  0.6876
 3895SOL    HW112584   0.704   5.649   4.921 -0.5117  1.0001  0.5694
 3895SOL    HW212585   0.720   5.535   4.805  1.6444  0.1218  1.6693
 3896SOL     OW12586   6.285   1.649   1.294  0.0634  0.2753  0.4932
 3896SOL    HW112587   6.272   1.609   1.384  0.7916 -0.1727  0.4047
 3896SOL    HW212588   6.370   1.701   1.292  2.7725 -3.7245 -1.2490
 3897SOL     OW12589   0.783   1.449   3.950  0.3449  0.4369  0.1110
 3897SOL    HW112590   0.736   1.418   4.033  2.4540  0.0575  1.2235
 3897SOL    HW212591   0.792   1.548   3.953  3.5652  0.2484  2.2706
 3898SOL     OW12592   3.888   4.820   6.406 -0.2270 -0.8019  0.4156
 3898SOL    HW112593   3.872   4.794   6.502 -1.9399 -1.3369  0.0146
 3898SOL    HW212594   3.903   4.737   6.352  2.5921 -0.4142  0.4811
 3899SOL     OW12595   0.426   5.972   1.325 -0.8273  0.1438 -0.2131
 3899SOL    HW112596   0.493   6.027   1.375 -1.3319  1.2728 -0.7391
 3899SOL    HW212597   0.470   5.931   1.245 -0.7542  0.8925 -0.5649
 3900SOL     OW12598   1.729   1.042   2.229 -0.1355  0.9707 -0.9328
 3900SOL    HW112599   1.704   1.098   2.307 -1.6102  0.7922 -1.2595
 3900SOL    HW212600   1.678   0.956   2.231  1.6972 -0.1632 -0.7290
 3901SOL     OW12601   2.536   3.469   0.313  0.0320  0.3381 -0.0231
 3901SOL    HW112602   2.512   3.457   0.409  1.8852  1.0051  0.5503
 3901SOL    HW212603   2.459   3.440   0.256 -1.2312  0.2728  1.6489
 3902SOL     OW12604   5.103   2.993   2.462 -0.0344  0.2031 -0.4369
 3902SOL    HW112605   5.151   3.081   2.458 -3.9869  2.5693 -1.8626
 3902SOL    HW212606   5.115   2.945   2.375  0.3289  0.4170 -0.5074
 3903SOL     OW12607   0.904   2.783   0.451 -0.1602  0.1858 -0.6485
 3903SOL    HW112608   0.945   2.739   0.371  0.0167 -1.0249  0.0892
 3903SOL    HW212609   0.973   2.835   0.500  0.2644 -0.9566 -0.0150
 3904SOL     OW12610   6.302   4.913   4.546 -0.2224  0.0102  0.1540
 3904SOL    HW112611   6.290   4.982   4.618 -1.7596 -0.4554  0.3817
 3904SOL    HW212612   6.352   4.954   4.470 -0.2411  1.0906  0.6917
 3905SOL     OW12613   3.780   2.154   3.350 -0.2364 -0.0837 -0.2907
 3905SOL    HW112614   3.747   2.197   3.267  0.5629 -1.2081 -1.2227
 3905SOL    HW212615   3.880   2.163   3.355 -0.1545 -0.9965 -0.0352
 3906SOL     OW12616   4.697   2.926   6.974  0.2008  0.4682  0.1223
 3906SOL    HW112617   4.642   2.927   6.891  2.0041  3.0042 -1.1533
 3906SOL    HW212618   4.641   2.952   7.052 -1.0497  0.0691 -0.6262
 3907SOL     OW12619   0.513   2.808   4.328  0.4849 -0.1200 -0.2485
 3907SOL    HW112620   0.579   2.737   4.351  0.7584  0.5329  1.1168
 3907SOL    HW212621   0.437   2.805   4.394  1.1920  1.7129  0.7248
 3908SOL     OW12622   4.637   0.550   6.406  0.0967 -0.6051  0.0330
 3908SOL    HW112623   4.556   0.589   6.362 -0.6335 -0.1628  1.6944
 3908SOL    HW212624   4.621   0.541   6.505  2.4492  0.4831  0.5930
 3909SOL     OW12625   1.967   2.171   3.508 -0.1863  0.2987  0.3152
 3909SOL    HW112626   1.967   2.100   3.438  2.1126 -1.0080  1.5094
 3909SOL    HW212627   1.898   2.151   3.577 -0.6767  0.1514 -0.2170
 3910SOL     OW12628   5.494   1.437   1.033  0.4888 -0.6417 -0.4980
 3910SOL    HW112629   5.489   1.470   0.938 -0.9946 -0.7782 -0.4842
 3910SOL    HW212630   5.404   1.406   1.063  1.2683 -2.1201  0.4403
 3911SOL     OW12631   2.951   5.671   1.055  0.0603 -0.0144 -0.3332
 3911SOL    HW112632   2.959   5.597   0.988 -0.7894 -0.8637  0.4743
 3911SOL    HW212633   3.041   5.693   1.092  0.5795  0.6236 -1.8874
 3912SOL     OW12634   3.811   4.076   4.892  0.2257 -0.1398  0.0974
 3912SOL    HW112635   3.788   3.979   4.902 -2.5612  0.4792  0.7133
 3912SOL    HW212636   3.861   4.090   4.807  0.4659 -2.0833 -0.1234
 3913SOL     OW12637   4.101   6.785   2.056  0.4114  0.3787  0.9242
 3913SOL    HW112638   4.083   6.801   2.153 -1.1000 -0.5540  0.8306
 3913SOL    HW212639   4.037   6.717   2.021  2.0314 -0.5819 -0.3403
 3914SOL     OW12640   0.863   3.460   3.747 -0.1233  0.2640  0.3365
 3914SOL    HW112641   0.836   3.556   3.743  3.2220  1.3103 -0.8831
 3914SOL    HW212642   0.834   3.414   3.664 -0.7520  0.5084  0.4159
 3915SOL     OW12643   6.776   1.820   0.006  0.2629 -0.4676 -0.0217
 3915SOL    HW112644   6.863   1.824  -0.043  0.7490 -1.0162  0.7678
 3915SOL    HW212645   6.770   1.898   0.069  0.4876 -0.7924  0.4066
 3916SOL     OW12646   4.138   6.719   3.047 -0.2241 -0.8178  0.1398
 3916SOL    HW112647   4.171   6.625   3.054  0.8718 -0.4531  0.0883
 3916SOL    HW212648   4.213   6.778   3.016 -0.9702  0.0293 -0.0901
 3917SOL     OW12649   5.702   5.073   4.398  0.2850 -0.2129 -0.0231
 3917SOL    HW112650   5.694   5.060   4.497  0.0205  0.2399  0.0159
 3917SOL    HW212651   5.703   5.170   4.377 -1.8443 -0.2592 -0.6211
 3918SOL     OW12652   5.249   2.930   4.962 -0.2280  0.1788  0.2267
 3918SOL    HW112653   5.163   2.885   4.939 -0.7878  0.5538  1.5397
 3918SOL    HW212654   5.232   3.007   5.023  0.9403  0.8998 -0.3064
 3919SOL     OW12655   5.667   3.737   1.050  0.2070  0.3108 -0.1595
 3919SOL    HW112656   5.615   3.820   1.072  0.2734  0.6073 -1.0870
 3919SOL    HW212657   5.763   3.761   1.036  0.3373 -0.0196  0.1690
 3920SOL     OW12658   3.035   0.051   6.360  0.1437  0.0859 -0.3657
 3920SOL    HW112659   2.967   0.083   6.295  0.7848  1.4216 -0.4007
 3920SOL    HW212660   3.082   0.129   6.401  2.5162 -0.7763 -1.2564
 3921SOL     OW12661   1.582   0.330   4.662 -0.9014 -0.2499  0.2669
 3921SOL    HW112662   1.642   0.393   4.613  0.6863 -0.0676  2.2807
 3921SOL    HW212663   1.632   0.247   4.686 -1.5759 -0.3278  1.5423
 3922SOL     OW12664   5.727   5.517   1.023  0.1931  0.5987 -0.0617
 3922SOL    HW112665   5.640   5.543   1.064 -0.0043  0.3108 -0.2934
 3922SOL    HW212666   5.792   5.491   1.095 -0.1933 -0.0400  0.0644
 3923SOL     OW12667   5.903   6.399   1.223 -0.6198 -0.7891 -0.1687
 3923SOL    HW112668   5.907   6.304   1.253 -0.3950 -0.5585  0.5660
 3923SOL    HW212669   5.807   6.425   1.208 -0.7955 -0.7443  0.9452
 3924SOL     OW12670   2.136   4.044   6.763  0.3862  0.4892  0.5297
 3924SOL    HW112671   2.162   4.129   6.716  2.0040  0.4672  1.3084
 3924SOL    HW212672   2.062   4.063   6.827 -0.2993  0.9853 -0.3925
 3925SOL     OW12673   0.920   1.037   4.591 -0.0010 -0.1257  0.1592
 3925SOL    HW112674   0.910   1.117   4.531  0.5118 -0.6539 -0.6408
 3925SOL    HW212675   0.925   0.954   4.536 -1.1602 -0.7894  1.0101
 3926SOL     OW12676   3.777   4.036   5.634 -0.3133 -1.0944 -0.0146
 3926SOL    HW112677   3.808   4.082   5.551 -0.5486  0.7663  0.8762
 3926SOL    HW212678   3.710   3.966   5.611 -0.9821 -0.0619 -1.3321
 3927SOL     OW12679   5.032   4.604   0.282  0.1581  0.5995  0.5930
 3927SOL    HW112680   4.971   4.525   0.279  1.5199 -0.4599 -0.6841
 3927SOL    HW212681   4.991   4.680   0.232 -0.8543  0.4875  1.2332
 3928SOL     OW12682   6.945   0.560   6.966  0.1198  0.0268  0.1977
 3928SOL    HW112683   7.038   0.540   6.938 -0.5428 -0.6827 -1.6175
 3928SOL    HW212684   6.946   0.621   7.045  2.1034  0.3474 -0.0425
 3929SOL     OW12685   0.051   0.721   6.347  0.2562  0.1234 -0.2156
 3929SOL    HW112686   0.053   0.795   6.280  1.8710 -1.6240 -2.2254
 3929SOL    HW212687  -0.041   0.713   6.384 -0.2186  2.4081 -0.7272
 3930SOL     OW12688   3.542   1.244   6.390  0.3785 -0.3298  0.0789
 3930SOL    HW112689   3.638   1.267   6.374  0.3338  0.5805  1.0011
 3930SOL    HW212690   3.508   1.296   6.469 -1.0697 -0.0985 -0.6704
 3931SOL     OW12691   0.321   5.407   2.537  0.1528  0.0252 -0.4082
 3931SOL    HW112692   0.402   5.457   2.568  0.6077 -0.0486 -1.4303
 3931SOL    HW212693   0.347   5.345   2.463 -1.1735  1.5537 -2.2621
 3932SOL     OW12694   2.432   5.315   0.005  0.3371  0.4005 -0.1761
 3932SOL    HW112695   2.375   5.265   0.070 -1.8322  0.3256 -2.0263
 3932SOL    HW212696   2.426   5.273  -0.085 -0.4055  3.0199 -1.4758
 3933SOL     OW12697   6.205   2.114   0.976  0.6924  0.0123 -0.0249
 3933SOL    HW112698   6.218   2.027   0.928 -1.8342 -0.8081  0.6378
 3933SOL    HW212699   6.224   2.102   1.073  1.3737  0.4951 -0.0911
 3934SOL     OW12700   4.278   5.170   3.931  0.1926  0.0422  0.1260
 3934SOL    HW112701   4.195   5.209   3.971 -0.0532  0.6498 -0.9311
 3934SOL    HW212702   4.306   5.226   3.853  0.4679 -1.2882 -0.7612
 3935SOL     OW12703   2.306   2.066   0.361  0.1918  0.4679  0.2148
 3935SOL    HW112704   2.332   2.123   0.282  0.0642 -0.1251 -0.2653
 3935SOL    HW212705   2.372   2.080   0.435  1.3630 -0.2989 -0.6436
 3936SOL     OW12706   3.305   4.868   6.986 -0.3050 -0.0419 -0.7342
 3936SOL    HW112707   3.399   4.839   6.974 -0.7422 -1.1421 -1.6678
 3936SOL    HW212708   3.292   4.958   6.944 -0.0035 -0.5369 -1.9336
 3937SOL     OW12709   2.222   2.390   6.216 -0.2039 -0.2504 -0.1956
 3937SOL    HW112710   2.309   2.419   6.177 -0.3203  1.9542  1.0287
 3937SOL    HW212711   2.177   2.326   6.153  2.3781 -1.6551 -0.7211
 3938SOL     OW12712   0.202   5.750   5.816 -0.2742  0.0351  0.0050
 3938SOL    HW112713   0.284   5.699   5.791 -1.1624 -0.5504 -1.8853
 3938SOL    HW212714   0.121   5.699   5.787 -1.2567  1.4905  0.0972
 3939SOL     OW12715   2.958   5.425   4.829  0.8614 -0.4334 -0.1032
 3939SOL    HW112716   3.028   5.462   4.769  0.5888 -1.8003 -1.3134
 3939SOL    HW212717   2.958   5.325   4.823 -1.1823 -0.4722 -0.1555
 3940SOL     OW12718   6.328   3.007   0.987  0.2084 -0.0082  0.1975
 3940SOL    HW112719   6.385   2.979   0.910  0.9129 -2.4596  1.4960
 3940SOL    HW212720   6.248   2.948   0.994 -0.1884  0.5913  0.9524
 3941SOL     OW12721   0.740   2.982   4.476 -0.3409  0.3887  0.3063
 3941SOL    HW112722   0.823   3.012   4.429 -0.4575  1.9677  1.0539
 3941SOL    HW212723   0.705   3.056   4.533 -2.3296 -0.2034 -0.0683
 3942SOL     OW12724   0.695   1.945   1.905  0.0105  0.5769  0.1568
 3942SOL    HW112725   0.698   1.997   1.991 -0.7944 -1.1694  1.3019
 3942SOL    HW212726   0.601   1.918   1.886  0.6099 -2.2504  0.7909
 3943SOL     OW12727   1.505   6.531   5.856 -0.4145 -0.0252 -0.0198
 3943SOL    HW112728   1.536   6.521   5.762  0.4313  0.1888  0.2271
 3943SOL    HW212729   1.497   6.440   5.898 -1.7432 -0.1907 -0.5751
 3944SOL     OW12730   4.885   0.840   5.483  0.1635  0.6636  0.0042
 3944SOL    HW112731   4.983   0.821   5.478  0.1550  0.9555 -2.1485
 3944SOL    HW212732   4.835   0.753   5.490  0.5521  0.5084  1.0047
 3945SOL     OW12733   0.778   5.542   0.298 -0.0317 -0.3806 -0.5181
 3945SOL    HW112734   0.805   5.631   0.334 -1.7507 -0.6299  1.5542
 3945SOL    HW212735   0.857   5.499   0.253  1.3445  1.3486  0.1195
 3946SOL     OW12736   6.701   3.696   3.579  0.4993  0.1084  0.1583
 3946SOL    HW112737   6.655   3.770   3.529 -0.4630 -0.7058 -0.2001
 3946SOL    HW212738   6.647   3.672   3.660  2.4235  1.9233  2.0830
 3947SOL     OW12739   0.533   4.793   5.926 -0.8252 -0.7407  0.2774
 3947SOL    HW112740   0.617   4.741   5.943 -1.2879 -2.0567 -1.2672
 3947SOL    HW212741   0.469   4.777   6.001  0.1889  0.1645  1.4022
 3948SOL     OW12742   7.008   0.266   4.479  0.0794  0.2730  0.0368
 3948SOL    HW112743   6.920   0.301   4.510  0.6231  1.7344  0.0169
 3948SOL    HW212744   7.070   0.342   4.461  0.9906 -0.6800 -1.0572
 3949SOL     OW12745   0.592   0.770   6.691  0.2382 -0.5424  0.1009
 3949SOL    HW112746   0.562   0.676   6.674 -0.9794 -0.6100  2.2882
 3949SOL    HW212747   0.520   0.820   6.739  2.3579  0.2673  2.7063
 3950SOL     OW12748   6.474   2.278   1.234  0.1489  0.1601  0.5187
 3950SOL    HW112749   6.547   2.223   1.195  0.8752 -0.0203  2.0528
 3950SOL    HW212750   6.468   2.260   1.333 -1.1021  1.1526  0.6488
 3951SOL     OW12751   6.029   5.162   6.345  0.4814 -0.9126 -0.0427
 3951SOL    HW112752   5.951   5.188   6.402 -0.4244 -0.2545 -1.5061
 3951SOL    HW212753   6.063   5.073   6.374 -0.2728 -0.8378  1.1609
 3952SOL     OW12754   6.205   6.929   0.076  0.6508  0.4629 -0.0207
 3952SOL    HW112755   6.188   6.947  -0.021 -2.4849 -0.5726  0.2335
 3952SOL    HW212756   6.158   6.845   0.103  1.5491  0.6582  2.3918
 3953SOL     OW12757   2.434   3.244   6.577  0.0896  0.5986  0.3755
 3953SOL    HW112758   2.428   3.307   6.655  1.9802  1.6691 -0.2844
 3953SOL    HW212759   2.405   3.153   6.606 -1.8154  1.5383  1.6047
 3954SOL     OW12760   5.887   0.544   6.539  0.3574 -0.1158 -0.1072
 3954SOL    HW112761   5.959   0.598   6.497 -1.8442  1.3310 -2.3187
 3954SOL    HW212762   5.873   0.573   6.633  0.5781  1.7850 -0.6293
 3955SOL     OW12763   0.500   6.583   0.193  0.2985 -0.0673 -0.0599
 3955SOL    HW112764   0.416   6.638   0.199 -0.9117 -1.8746  0.3013
 3955SOL    HW212765   0.513   6.533   0.279  0.3112 -1.8022 -1.0380
 3956SOL     OW12766   3.754   2.875   2.612  0.9326  0.4625 -0.0970
 3956SOL    HW112767   3.654   2.886   2.615  0.9683  0.6775  0.4083
 3956SOL    HW212768   3.781   2.845   2.520  0.3120 -0.5704  0.0429
 3957SOL     OW12769   3.833   4.924   2.697  0.6256 -0.4807 -0.6137
 3957SOL    HW112770   3.920   4.882   2.722  0.8906  0.6232  0.3670
 3957SOL    HW212771   3.811   4.899   2.602  0.4200 -3.3659  0.0869
 3958SOL     OW12772   6.675   7.002   5.217  0.1096  0.5326 -0.4555
 3958SOL    HW112773   6.627   6.914   5.224 -1.1506  1.1897 -0.5280
 3958SOL    HW212774   6.773   6.986   5.205  0.2362 -0.8352  1.7960
 3959SOL     OW12775   3.682   1.671   4.808  0.1647  0.2255 -0.4492
 3959SOL    HW112776   3.637   1.755   4.778 -1.3620  0.4657  2.2179
 3959SOL    HW212777   3.627   1.592   4.782  0.0358  0.2691 -0.3096
 3960SOL     OW12778   0.460   4.104   3.938 -0.0159  0.0043  0.4069
 3960SOL    HW112779   0.364   4.078   3.948  0.5839 -2.4005  0.4128
 3960SOL    HW212780   0.470   4.163   3.858 -1.5840  0.9848  0.8879
 3961SOL     OW12781   3.868   0.138   2.026  0.0936  0.3529  0.1168
 3961SOL    HW112782   3.967   0.142   2.036 -0.0268  0.5405  1.4191
 3961SOL    HW212783   3.841   0.177   1.938  1.2461 -0.6870 -0.7330
 3962SOL     OW12784   4.214   0.576   4.749 -0.0660  0.0148 -0.5348
 3962SOL    HW112785   4.156   0.502   4.782  0.9715 -0.8124 -0.5162
 3962SOL    HW212786   4.270   0.611   4.824 -0.8242  1.1044 -0.4512
 3963SOL     OW12787   3.386   6.645   2.885 -0.1828  0.5390 -0.0908
 3963SOL    HW112788   3.330   6.721   2.851 -1.1532  0.2352  0.7773
 3963SOL    HW212789   3.455   6.681   2.948 -0.4630  0.7315  0.1080
 3964SOL     OW12790   6.919   4.628   0.503  0.2042 -0.3541  0.4443
 3964SOL    HW112791   6.846   4.563   0.526  0.9711 -1.6012 -0.5128
 3964SOL    HW212792   6.965   4.657   0.586  0.2730 -1.5678  0.8484
 3965SOL     OW12793   2.614   1.138   4.651 -0.2596 -0.0275  0.4298
 3965SOL    HW112794   2.709   1.119   4.629  0.0808  0.6336  1.2854
 3965SOL    HW212795   2.572   1.056   4.691  1.5639  1.0960  5.3438
 3966SOL     OW12796   4.871   0.987   1.646 -0.0386 -0.5830  0.1317
 3966SOL    HW112797   4.813   1.034   1.579  0.2762 -0.8150 -0.3139
 3966SOL    HW212798   4.821   0.976   1.732 -1.7124 -3.1693 -1.0497
 3967SOL     OW12799   6.988   1.863   3.372 -0.1860 -0.5317 -0.4964
 3967SOL    HW112800   6.952   1.853   3.280 -0.4385  2.0627 -0.7660
 3967SOL    HW212801   7.087   1.880   3.368 -0.2931  0.1516 -0.3443
 3968SOL     OW12802   1.346   3.774   1.017  0.4247 -0.2164 -0.4668
 3968SOL    HW112803   1.363   3.818   0.929 -0.3793  2.4635  0.6239
 3968SOL    HW212804   1.263   3.719   1.012 -1.0307  1.9332 -0.7731
 3969SOL     OW12805   2.995   1.385   0.961 -0.3077 -0.1502 -0.0512
 3969SOL    HW112806   3.003   1.298   0.911  1.5048  0.7347 -1.3942
 3969SOL    HW212807   3.071   1.444   0.937 -1.5865  1.9031  0.7323
 3970SOL     OW12808   0.421   6.991   3.758 -1.0708  0.0373  0.3494
 3970SOL    HW112809   0.472   7.046   3.693  2.0437  0.3654  2.8323
 3970SOL    HW212810   0.337   7.039   3.784  0.6382  2.8553  1.0738
 3971SOL     OW12811   6.227   3.394   6.002 -0.4319  0.7220  0.2623
 3971SOL    HW112812   6.265   3.330   5.935  0.7311  2.0087 -0.3465
 3971SOL    HW212813   6.190   3.342   6.079  0.4128 -0.6884 -0.2348
 3972SOL     OW12814   6.084   6.866   0.716 -0.5369  0.1654 -0.1344
 3972SOL    HW112815   6.032   6.907   0.641  0.4841  2.5925  0.3742
 3972SOL    HW212816   6.159   6.927   0.742 -0.4621 -0.8762  2.4536
 3973SOL     OW12817   6.414   5.790   5.609 -0.0059 -0.3460  0.3900
 3973SOL    HW112818   6.344   5.862   5.612  1.1808  0.8327  0.4221
 3973SOL    HW212819   6.374   5.705   5.641 -1.6938  0.0670 -0.4742
 3974SOL     OW12820   5.746   5.820   4.959  0.9869  0.8735  0.4634
 3974SOL    HW112821   5.649   5.819   4.982  1.6335  1.2707  3.6979
 3974SOL    HW212822   5.770   5.907   4.917 -0.0547  0.6390 -0.6889
 3975SOL     OW12823   0.350   0.574   4.053  0.3712 -0.1005  0.5948
 3975SOL    HW112824   0.272   0.626   4.017  0.7966 -0.0119 -0.2065
 3975SOL    HW212825   0.361   0.490   4.001  0.9640  0.0039  0.5485
 3976SOL     OW12826   5.202   4.279   4.476  0.0760 -0.1294 -0.1492
 3976SOL    HW112827   5.186   4.190   4.518  0.4572  0.3061  0.9740
 3976SOL    HW212828   5.200   4.271   4.377 -0.7252 -1.2317 -0.0609
 3977SOL     OW12829   5.255   0.947   4.435  0.3659 -0.0360 -0.0606
 3977SOL    HW112830   5.301   1.031   4.407 -1.8857  0.0914 -4.0500
 3977SOL    HW212831   5.160   0.968   4.459 -0.6219 -1.4461 -2.3817
 3978SOL     OW12832   2.036   2.760   6.177  0.5592  0.0435  0.2972
 3978SOL    HW112833   2.048   2.814   6.094 -0.1574  1.9761  1.4081
 3978SOL    HW212834   1.969   2.803   6.237  2.2487 -0.3778  2.6480
 3979SOL     OW12835   5.866   5.496   2.488 -0.5492 -0.0715  0.1280
 3979SOL    HW112836   5.909   5.521   2.401  0.5916  1.9681  1.1821
 3979SOL    HW212837   5.774   5.462   2.471  0.3730 -1.7371 -1.9970
 3980SOL     OW12838   3.347   3.371   2.056  0.3235 -0.0139  0.0568
 3980SOL    HW112839   3.405   3.392   2.135  0.1803 -1.5970  0.6260
 3980SOL    HW212840   3.254   3.354   2.086  0.2964 -0.7794 -0.4351
 3981SOL     OW12841   3.423   4.161   5.182  0.5285  0.3613  0.2074
 3981SOL    HW112842   3.329   4.194   5.174 -0.1765 -1.7379 -0.8977
 3981SOL    HW212843   3.446   4.106   5.101  1.6535 -1.6287  1.7878
 3982SOL     OW12844   6.599   5.013   4.896 -0.2992  0.0850 -0.2658
 3982SOL    HW112845   6.592   5.094   4.953  1.6853  0.7336 -0.8603
 3982SOL    HW212846   6.603   5.040   4.799  0.0802 -0.7467 -0.4943
 3983SOL     OW12847   5.427   6.215   2.763 -0.1093 -0.1298 -0.2358
 3983SOL    HW112848   5.370   6.136   2.742 -0.1735  0.1862 -1.2839
 3983SOL    HW212849   5.374   6.282   2.816 -0.0560 -0.7703  0.6497
 3984SOL     OW12850   4.483   4.528   2.501  0.0568  0.2385 -0.3779
 3984SOL    HW112851   4.469   4.481   2.588 -0.7658  1.1225 -0.0193
 3984SOL    HW212852   4.571   4.500   2.462  1.1004  0.8535  1.4016
 3985SOL     OW12853   4.338   5.937   6.655  0.0351  0.1554  0.3928
 3985SOL    HW112854   4.427   5.935   6.700  1.1000 -1.1425 -1.6201
 3985SOL    HW212855   4.267   5.909   6.719  1.4060 -1.1454  1.3919
 3986SOL     OW12856   3.830   0.009   5.721 -0.5400 -0.0563 -0.5563
 3986SOL    HW112857   3.877  -0.055   5.661 -1.5204 -0.4619 -0.9156
 3986SOL    HW212858   3.768   0.067   5.667  0.0656  0.9586 -0.1911
 3987SOL     OW12859   0.278   1.146   6.914 -0.4277 -0.0409 -0.6416
 3987SOL    HW112860   0.195   1.171   6.865 -1.0389  0.5995  0.6947
 3987SOL    HW212861   0.261   1.147   7.012  0.9012 -0.8584 -0.3797
 3988SOL     OW12862   0.685   4.286   1.876  0.2994  0.2914  0.0222
 3988SOL    HW112863   0.737   4.275   1.960  1.7891  1.7514 -0.6720
 3988SOL    HW212864   0.732   4.349   1.814 -1.2499  0.0367 -1.5132
 3989SOL     OW12865   3.821   6.996   2.805 -0.4325  0.2377 -0.4323
 3989SOL    HW112866   3.872   6.977   2.889 -1.4093  0.4670  0.2406
 3989SOL    HW212867   3.746   6.930   2.796 -1.0296  0.9184 -0.5161
 3990SOL     OW12868   0.145   3.719   5.995  0.4050  0.3455 -0.7004
 3990SOL    HW112869   0.217   3.705   5.928  0.2101  0.3719 -0.9190
 3990SOL    HW212870   0.183   3.758   6.078  0.6664  0.2056 -0.7552
 3991SOL     OW12871   1.433   0.462   6.357 -0.0411  0.2909 -0.2582
 3991SOL    HW112872   1.432   0.362   6.351 -1.0427  0.3828 -3.3675
 3991SOL    HW212873   1.526   0.492   6.378  0.0715 -1.2607  1.8358
 3992SOL     OW12874   2.223   3.108   3.985  0.2470 -0.1925 -0.3378
 3992SOL    HW112875   2.299   3.139   3.928  0.3007 -1.3135 -0.8991
 3992SOL    HW212876   2.204   3.177   4.055  1.3451  0.3969 -0.5943
 3993SOL     OW12877   0.876   1.235   7.000  0.5494 -0.1168 -0.2114
 3993SOL    HW112878   0.804   1.271   7.059  2.0063  0.8278  1.0645
 3993SOL    HW212879   0.855   1.256   6.905 -0.5837  0.6271  0.1863
 3994SOL     OW12880   1.700   5.346   4.073 -0.3245  0.0809  0.5641
 3994SOL    HW112881   1.641   5.364   4.151 -2.4470 -1.5179 -0.5847
 3994SOL    HW212882   1.658   5.277   4.014  0.5909  2.0217 -2.5991
 3995SOL     OW12883   2.831   5.421   2.122 -0.0354 -0.6534 -0.0027
 3995SOL    HW112884   2.837   5.358   2.046  0.7718 -1.9586  1.1080
 3995SOL    HW212885   2.779   5.379   2.197  0.2047  0.1378  0.6294
 3996SOL     OW12886   1.153   1.486   5.621  0.2991 -0.5532  0.1349
 3996SOL    HW112887   1.141   1.435   5.706 -0.6621  0.9592  0.9394
 3996SOL    HW212888   1.203   1.571   5.639 -0.1018 -0.1140 -0.7719
 3997SOL     OW12889   3.673   5.887   0.740  0.0604 -0.0056 -0.7496
 3997SOL    HW112890   3.661   5.792   0.710  1.4448  0.4817 -3.0712
 3997SOL    HW212891   3.762   5.897   0.783  0.0922  0.3546 -0.9035
 3998SOL     OW12892   0.992   3.407   5.194  0.0201  0.2737 -0.2882
 3998SOL    HW112893   1.054   3.368   5.127  0.0537  0.7085 -0.5097
 3998SOL    HW212894   0.934   3.477   5.151 -0.4516  0.0500 -0.0308
 3999SOL     OW12895   5.421   0.306   1.204 -0.4864  0.3175 -0.2402
 3999SOL    HW112896   5.380   0.302   1.295  0.8164 -1.3835  0.3116
 3999SOL    HW212897   5.365   0.255   1.139 -0.6874  0.3620 -0.1009
 4000SOL     OW12898   1.795   3.837   6.591 -0.3551 -0.2314  0.1917
 4000SOL    HW112899   1.887   3.803   6.605 -0.4004 -0.3631  0.1685
 4000SOL    HW212900   1.799   3.929   6.552 -0.2318  0.1950  1.1842
 4001SOL     OW12901   5.595   1.593   4.301 -0.0297  0.1446 -0.0286
 4001SOL    HW112902   5.647   1.667   4.345  0.4815 -0.3265  0.1857
 4001SOL    HW212903   5.646   1.559   4.222 -0.8305  0.8197 -0.8549
 4002SOL     OW12904   4.845   4.897   0.456  0.1882  0.3403  0.6403
 4002SOL    HW112905   4.926   4.909   0.513  1.3107  1.1254 -1.0457
 4002SOL    HW212906   4.872   4.886   0.361 -1.6685 -0.0879  0.1194
 4003SOL     OW12907   5.027   4.730   3.968  0.5675  0.2882 -0.2815
 4003SOL    HW112908   4.974   4.717   4.053 -0.1444 -1.3428 -0.9314
 4003SOL    HW212909   4.998   4.814   3.923 -1.9442 -0.8212 -0.8891
 4004SOL     OW12910   2.670   0.177   6.578 -0.0200  0.2339 -0.6146
 4004SOL    HW112911   2.728   0.100   6.602  0.0770  0.2695 -0.7375
 4004SOL    HW212912   2.688   0.206   6.484  0.0967  0.5397 -0.5011
 4005SOL     OW12913   1.195   4.439   5.162 -0.4896 -0.5834  0.1141
 4005SOL    HW112914   1.243   4.525   5.175  1.9169 -1.7022 -0.8953
 4005SOL    HW212915   1.125   4.450   5.091 -0.1900  0.4988 -0.0246
 4006SOL     OW12916   1.261   3.633   4.770  0.5527 -0.0789 -0.8367
 4006SOL    HW112917   1.304   3.622   4.681  1.0629 -0.8177 -0.5072
 4006SOL    HW212918   1.304   3.571   4.836  0.6492  0.9307  0.0885
 4007SOL     OW12919   1.723   1.387   4.756 -0.3948  0.4500 -0.4006
 4007SOL    HW112920   1.777   1.365   4.837  0.5810 -1.9275 -1.5883
 4007SOL    HW212921   1.653   1.316   4.743 -0.0129  0.3528 -2.0574
 4008SOL     OW12922   1.189   1.563   5.931 -0.0623  0.2756  0.1338
 4008SOL    HW112923   1.169   1.468   5.909  0.1739  0.2225  0.1391
 4008SOL    HW212924   1.209   1.571   6.029  0.4947  0.2278  0.0286
 4009SOL     OW12925   4.014   5.504   0.728  0.3128  0.0172 -0.2502
 4009SOL    HW112926   4.094   5.516   0.670  0.7554  0.5065  0.4519
 4009SOL    HW212927   4.010   5.409   0.758 -0.0461 -0.2981 -1.2441
 4010SOL     OW12928   3.597   2.601   1.764 -0.6817  0.4510 -0.2308
 4010SOL    HW112929   3.624   2.506   1.780 -1.6393  0.0693 -0.7904
 4010SOL    HW212930   3.499   2.604   1.742 -0.3451  1.4025 -1.7176
 4011SOL     OW12931   6.735   1.043   1.872 -0.0453 -0.6470 -0.3084
 4011SOL    HW112932   6.680   1.076   1.795 -1.6787  0.0861  1.0967
 4011SOL    HW212933   6.831   1.061   1.855 -0.4246 -0.0121 -1.9315
 4012SOL     OW12934   1.368   1.969   3.462  0.2385 -1.0630 -0.0605
 4012SOL    HW112935   1.344   1.927   3.550  1.3020  0.5585  1.0643
 4012SOL    HW212936   1.355   2.068   3.468 -0.9551 -1.0268 -2.2046
 4013SOL     OW12937   4.067   1.491   2.704 -0.7191  0.1032 -0.7939
 4013SOL    HW112938   3.992   1.494   2.638  0.2408 -0.3725 -1.9240
 4013SOL    HW212939   4.153   1.517   2.660 -0.2100  0.8058  0.5177
 4014SOL     OW12940   6.075   3.158   3.421  0.1195 -0.5935  0.5638
 4014SOL    HW112941   6.104   3.201   3.506  0.7429  2.4390 -1.0292
 4014SOL    HW212942   6.153   3.149   3.359 -0.8319  0.1703 -0.8070
 4015SOL     OW12943   5.003   3.305   3.897  0.1058  0.1441  0.3945
 4015SOL    HW112944   4.935   3.290   3.968 -0.0791 -2.5371 -0.2339
 4015SOL    HW212945   4.958   3.329   3.811 -0.1974 -2.1154 -0.1482
 4016SOL     OW12946   1.165   4.059   2.770 -0.1904 -0.5008  0.2605
 4016SOL    HW112947   1.211   4.101   2.848  3.6269 -1.2632 -1.3548
 4016SOL    HW212948   1.086   4.114   2.744  1.7882  3.0558  1.1352
 4017SOL     OW12949   6.057   6.589   5.966  0.0777  0.5050 -0.2854
 4017SOL    HW112950   6.116   6.664   5.935  0.6424  0.1966  0.0335
 4017SOL    HW212951   6.004   6.619   6.045  0.7055  0.4096  0.1869
 4018SOL     OW12952   5.125   0.441   3.894 -0.6736  0.3709 -1.0286
 4018SOL    HW112953   5.075   0.355   3.888  0.3028 -0.3257  0.1905
 4018SOL    HW212954   5.197   0.443   3.824  0.6681 -0.7883  0.2480
 4019SOL     OW12955   6.676   4.496   5.235  0.2590  0.5163 -0.5345
 4019SOL    HW112956   6.725   4.442   5.304 -0.4637  0.0715 -0.3589
 4019SOL    HW212957   6.727   4.493   5.149  0.4889 -0.0351 -0.3862
 4020SOL     OW12958   2.425   5.291   5.608 -0.4009  0.1725 -0.3521
 4020SOL    HW112959   2.474   5.375   5.629  0.3419 -0.4826  0.6129
 4020SOL    HW212960   2.347   5.281   5.669 -1.4344  0.9393 -1.5215
 4021SOL     OW12961   3.728   1.784   6.109 -0.2050 -0.8258  0.2793
 4021SOL    HW112962   3.789   1.809   6.183  0.5986  1.3634 -1.0474
 4021SOL    HW212963   3.641   1.751   6.147  0.1932  0.1924  2.1852
 4022SOL     OW12964   6.653   3.857   5.399  0.7453  0.2739  0.6492
 4022SOL    HW112965   6.630   3.763   5.424  1.0449 -0.7867 -2.6384
 4022SOL    HW212966   6.599   3.885   5.320  2.6141  1.8714 -0.1464
 4023SOL     OW12967   5.136   3.575   5.622  0.0687 -0.6229  0.2310
 4023SOL    HW112968   5.234   3.558   5.611 -0.0249 -0.8736 -0.2641
 4023SOL    HW212969   5.089   3.488   5.638 -0.0597 -0.4890  0.5927
 4024SOL     OW12970   4.279   6.967   2.581  0.0034 -0.1691 -0.1552
 4024SOL    HW112971   4.181   6.978   2.598 -0.1571  0.2276 -1.2266
 4024SOL    HW212972   4.296   6.878   2.539  0.1490 -0.3563  0.2895
 4025SOL     OW12973   2.318   6.478   6.947 -0.0903 -0.2100  0.3765
 4025SOL    HW112974   2.418   6.487   6.955 -0.0454  0.1682 -0.4751
 4025SOL    HW212975   2.284   6.545   6.881 -1.1152  0.7237  1.7907
 4026SOL     OW12976   1.022   3.892   3.425 -0.1233 -0.2242 -0.1303
 4026SOL    HW112977   1.000   3.938   3.511  0.3776 -0.0962 -0.0691
 4026SOL    HW212978   1.097   3.939   3.380 -0.5833 -0.1127 -0.7897
 4027SOL     OW12979   2.531   6.842   4.960 -0.3461  0.2764 -0.3938
 4027SOL    HW112980   2.463   6.908   4.930 -0.4337 -0.0957 -1.0261
 4027SOL    HW212981   2.598   6.887   5.020 -0.3859  0.9388 -0.8419
 4028SOL     OW12982   6.683   4.539   6.483  0.2285 -0.0122  0.3619
 4028SOL    HW112983   6.643   4.598   6.553  3.1493  1.2657  1.1077
 4028SOL    HW212984   6.679   4.586   6.394 -0.5737 -0.2473  0.2623
 4029SOL     OW12985   1.496   0.386   5.666  0.2531  0.0194  0.5567
 4029SOL    HW112986   1.460   0.297   5.694 -2.7348  1.1811  0.7214
 4029SOL    HW212987   1.477   0.400   5.569  1.1885  0.3035  0.4014
 4030SOL     OW12988   6.882   5.400   5.370  0.5984 -0.5255 -0.7018
 4030SOL    HW112989   6.965   5.363   5.412  1.2762  0.1335 -1.4195
 4030SOL    HW212990   6.867   5.356   5.281 -0.1694 -1.0762 -0.3042
 4031SOL     OW12991   6.027   6.157   3.892  0.7398  0.0047 -0.3845
 4031SOL    HW112992   5.997   6.232   3.832  0.9760  2.0798  1.9260
 4031SOL    HW212993   6.125   6.164   3.907  0.4040  0.9001  1.8535
 4032SOL     OW12994   5.523   0.392   0.041 -0.1430  0.2156  0.0780
 4032SOL    HW112995   5.600   0.455   0.027 -0.5433  0.6353 -0.2707
 4032SOL    HW212996   5.487   0.363  -0.048 -0.5118  0.1743  0.2386
 4033SOL     OW12997   5.085   3.745   2.047  0.2516  0.4738  0.1495
 4033SOL    HW112998   5.185   3.739   2.056  0.2796  1.7536  1.1253
 4033SOL    HW212999   5.042   3.680   2.110  0.4321 -1.5418 -1.7202
 4034SOL     OW13000   1.150   1.731   6.482  0.0714  0.1009  0.5426
 4034SOL    HW113001   1.134   1.772   6.392 -0.7816 -0.8497  0.2355
 4034SOL    HW213002   1.062   1.708   6.524  0.4702 -3.4581 -0.2919
 4035SOL     OW13003   2.102   5.061   6.135  0.2775  0.3931 -0.3494
 4035SOL    HW113004   2.133   5.068   6.230 -2.7769  0.2238  0.7697
 4035SOL    HW213005   2.144   4.981   6.092  1.7235  0.4826  0.8028
 4036SOL     OW13006   3.542   6.285   4.566 -0.3518  0.4601 -0.0393
 4036SOL    HW113007   3.534   6.218   4.492  1.3406  0.1978 -0.0284
 4036SOL    HW213008   3.488   6.254   4.644 -0.9641 -0.0125 -0.6369
 4037SOL     OW13009   2.469   4.281   6.169  0.1354  0.2395  0.2770
 4037SOL    HW113010   2.465   4.238   6.259  1.6384  0.3670  0.4297
 4037SOL    HW213011   2.550   4.338   6.163  0.9267 -0.9817 -1.6665
 4038SOL     OW13012   1.661   6.281   2.481  0.0352  0.1887 -0.0580
 4038SOL    HW113013   1.738   6.344   2.474  0.3281  0.0293  1.4279
 4038SOL    HW213014   1.576   6.330   2.463  0.3944  0.5948 -0.6808
 4039SOL     OW13015   5.818   0.882   1.170 -0.8999 -0.0371  0.2074
 4039SOL    HW113016   5.823   0.850   1.264 -1.1331  0.0760  0.2595
 4039SOL    HW213017   5.789   0.808   1.110  0.7154 -0.5378 -0.0102
 4040SOL     OW13018   1.101   6.677   3.096 -0.3697 -0.0670 -0.2227
 4040SOL    HW113019   1.200   6.687   3.088 -0.2510 -1.0270 -0.1437
 4040SOL    HW213020   1.074   6.692   3.191 -0.4844  1.5099 -0.4866
 4041SOL     OW13021   0.684   4.517   5.112  0.7134  0.3115 -0.0436
 4041SOL    HW113022   0.743   4.571   5.171  2.3825 -0.8828 -0.5330
 4041SOL    HW213023   0.683   4.557   5.020  2.3009 -0.6589 -0.5227
 4042SOL     OW13024   4.413   6.708   5.566 -0.0793  0.0190  0.2436
 4042SOL    HW113025   4.447   6.732   5.474  0.0007 -1.5869 -0.1801
 4042SOL    HW213026   4.319   6.738   5.575  0.8074  2.8880  0.7592
 4043SOL     OW13027   4.944   2.956   1.593  0.3261  0.0297  0.9706
 4043SOL    HW113028   5.042   2.969   1.580  0.6216 -1.4547  1.5632
 4043SOL    HW213029   4.905   2.909   1.514  0.7003 -2.0915  1.9589
 4044SOL     OW13030   1.406   3.061   3.023 -0.3213 -0.3678  0.2456
 4044SOL    HW113031   1.316   3.052   3.067 -0.0914 -1.5794  0.5172
 4044SOL    HW213032   1.426   3.157   3.007 -1.5565 -0.0645  0.4168
 4045SOL     OW13033   5.338   5.420   6.926  0.2448  0.1409  0.7115
 4045SOL    HW113034   5.374   5.360   6.997 -0.5347 -0.3857  0.6848
 4045SOL    HW213035   5.349   5.515   6.952  1.9946  0.0227  0.5236
 4046SOL     OW13036   5.063   1.707   1.275  0.1860  0.2597 -0.0274
 4046SOL    HW113037   5.083   1.686   1.180  2.0170  0.1704  0.3468
 4046SOL    HW213038   5.088   1.629   1.333 -2.5109 -0.3795  0.4164
 4047SOL     OW13039   1.894   5.916   5.316  0.4828 -0.9034 -0.0511
 4047SOL    HW113040   1.942   5.848   5.371 -0.9141 -1.2400  0.8097
 4047SOL    HW213041   1.797   5.891   5.310 -0.3376  1.5883  1.2875
 4048SOL     OW13042   3.219   2.981   3.421  0.2099  0.1021  0.5973
 4048SOL    HW113043   3.284   3.055   3.435  1.4512 -1.0543  1.1291
 4048SOL    HW213044   3.126   3.016   3.436  0.7412  1.5672  0.6930
 4049SOL     OW13045   5.091   6.983   6.810 -0.6238 -0.4709 -0.4120
 4049SOL    HW113046   5.070   6.895   6.853  1.7498 -0.6143  0.5928
 4049SOL    HW213047   5.080   7.056   6.877  1.4384 -0.5061  0.0286
 4050SOL     OW13048   3.632   4.170   4.331  1.2337 -0.2322 -0.2657
 4050SOL    HW113049   3.722   4.133   4.308  0.8408 -1.3196 -0.0895
 4050SOL    HW213050   3.570   4.159   4.253  1.1551  0.2260 -0.2743
 4051SOL     OW13051   1.867   4.197   3.011 -0.0711  0.2312 -0.2954
 4051SOL    HW113052   1.822   4.139   2.943 -0.4202 -0.1139  0.2188
 4051SOL    HW213053   1.804   4.214   3.087 -0.2437  1.9126 -0.7759
 4052SOL     OW13054   6.522   2.020   1.981 -0.0848 -0.2607  0.1062
 4052SOL    HW113055   6.472   2.084   1.922  1.2355  1.2765  0.5586
 4052SOL    HW213056   6.605   1.989   1.934 -0.1901 -0.8336  0.2916
 4053SOL     OW13057   3.960   6.711   5.415 -0.4825 -0.6554  0.3909
 4053SOL    HW113058   4.009   6.776   5.358  0.6064 -2.7247 -1.1894
 4053SOL    HW213059   3.992   6.719   5.510 -0.0267  0.7561  0.1319
 4054SOL     OW13060   5.898   0.343   5.953 -0.1542 -0.4476 -0.0643
 4054SOL    HW113061   5.931   0.326   6.046 -0.6489  0.1851  0.2350
 4054SOL    HW213062   5.800   0.364   5.956  0.4379  2.7572 -0.3437
 4055SOL     OW13063   0.255   3.341   6.775 -0.6034  0.1844 -0.1859
 4055SOL    HW113064   0.336   3.380   6.819  0.1338 -1.0209 -0.4257
 4055SOL    HW213065   0.208   3.280   6.838 -0.9327  0.3362 -0.2813
 4056SOL     OW13066   1.180   4.989   6.836  0.5368  0.1478  0.4778
 4056SOL    HW113067   1.253   5.014   6.773 -0.6077  1.9955 -0.2004
 4056SOL    HW213068   1.211   5.004   6.930  1.6007 -0.7704  0.2852
 4057SOL     OW13069   5.166   2.605   1.900 -0.5208 -1.0867 -0.6189
 4057SOL    HW113070   5.175   2.552   1.816  1.7193 -0.9455 -0.5392
 4057SOL    HW213071   5.094   2.674   1.888  0.1390 -0.6756 -2.6567
 4058SOL     OW13072   1.273   5.466   0.555 -0.2411 -0.1810 -0.8643
 4058SOL    HW113073   1.245   5.525   0.479 -1.1247  0.9914  0.3185
 4058SOL    HW213074   1.204   5.469   0.626  0.6358 -1.1475  0.0624
 4059SOL     OW13075   2.406   1.304   6.099 -0.2461  0.3825  0.1123
 4059SOL    HW113076   2.424   1.315   6.002  1.1377 -0.5075  0.2449
 4059SOL    HW213077   2.418   1.392   6.146  1.5207  0.3221 -0.1716
 4060SOL     OW13078   1.688   1.279   2.445  0.4830  0.0735 -0.0545
 4060SOL    HW113079   1.734   1.244   2.527  1.5659  1.0388 -0.2208
 4060SOL    HW213080   1.746   1.348   2.402 -0.2448 -0.1385 -1.4261
 4061SOL     OW13081   0.781   1.175   3.100 -0.5468 -0.0700  0.2144
 4061SOL    HW113082   0.868   1.196   3.055 -0.4268  2.1519  1.3226
 4061SOL    HW213083   0.720   1.128   3.036  1.1529 -0.9558 -0.8276
 4062SOL     OW13084   3.154   5.954   4.544  0.0760 -0.0631  0.1370
 4062SOL    HW113085   3.161   5.854   4.546 -1.3795 -0.1755  0.5764
 4062SOL    HW213086   3.118   5.987   4.632  1.1352  0.9096  0.2257
 4063SOL     OW13087   6.425   1.529   6.815 -0.3568  0.0794 -0.0046
 4063SOL    HW113088   6.353   1.577   6.864  1.0661  2.0458  0.3026
 4063SOL    HW213089   6.414   1.543   6.717 -1.5425 -1.3901 -0.1047
 4064SOL     OW13090   3.541   2.879   3.018  0.5508 -0.5510 -0.0712
 4064SOL    HW113091   3.507   2.896   3.110 -0.6654 -0.0414 -0.5879
 4064SOL    HW213092   3.465   2.856   2.958  1.1113  0.5836 -1.2715
 4065SOL     OW13093   6.953   5.911   2.009 -0.0922 -0.1485  0.1111
 4065SOL    HW113094   6.991   5.996   2.046  0.4964 -0.6478  0.6817
 4065SOL    HW213095   6.879   5.933   1.944 -0.7689  0.7704  1.1456
 4066SOL     OW13096   2.634   6.981   6.162 -0.0037  0.0537  0.0860
 4066SOL    HW113097   2.624   7.013   6.068 -0.3732  2.4865  0.8925
 4066SOL    HW213098   2.545   6.981   6.207  0.3061 -0.1905  0.7116
 4067SOL     OW13099   6.058   6.596   2.255 -0.0387  0.2930  0.3229
 4067SOL    HW113100   6.143   6.618   2.206 -0.6156  0.5618 -0.5939
 4067SOL    HW213101   5.980   6.625   2.200 -0.8001 -2.0901  0.0283
 4068SOL     OW13102   6.155   1.090   2.580 -0.3736  0.6768 -0.1964
 4068SOL    HW113103   6.119   1.045   2.499  1.8725  1.4506 -1.7174
 4068SOL    HW213104   6.208   1.024   2.634  0.3371  0.7332 -0.7986
 4069SOL     OW13105   6.801   1.262   5.989 -0.5636  0.0603  0.2300
 4069SOL    HW113106   6.827   1.220   5.901 -1.2101 -1.7989  0.8743
 4069SOL    HW213107   6.867   1.334   6.012 -1.8637  2.5546 -3.0599
 4070SOL     OW13108   3.890   3.302   1.866 -0.3687 -0.1742 -0.1644
 4070SOL    HW113109   3.866   3.271   1.958  1.8037  0.1218  0.5626
 4070SOL    HW213110   3.810   3.296   1.807 -1.5459 -1.4159  1.4600
 4071SOL     OW13111   6.800   4.803   1.239  0.4470  0.0685 -0.1033
 4071SOL    HW113112   6.849   4.819   1.325  1.4900 -0.4385 -0.5963
 4071SOL    HW213113   6.709   4.845   1.245  0.9776  1.1547  0.7742
 4072SOL     OW13114   2.965   1.374   3.661  0.5186 -0.2288 -0.3067
 4072SOL    HW113115   3.056   1.338   3.642  0.2698  0.0713 -2.2607
 4072SOL    HW213116   2.898   1.329   3.602 -0.4829  0.1580  0.5054
 4073SOL     OW13117   3.885   6.409   2.353  0.5718  0.4316 -0.0256
 4073SOL    HW113118   3.790   6.398   2.385  0.8784  1.5094  1.3291
 4073SOL    HW213119   3.887   6.406   2.253 -1.0209  1.3494 -0.1124
 4074SOL     OW13120   6.868   4.156   4.806 -0.0023  0.5626  0.3074
 4074SOL    HW113121   6.781   4.204   4.811 -0.1243  0.3774 -0.0177
 4074SOL    HW213122   6.868   4.081   4.873 -1.4205 -1.5597 -1.8953
 4075SOL     OW13123   2.740   0.342   2.951  0.4263 -0.0458  0.1620
 4075SOL    HW113124   2.788   0.262   2.915 -1.7348 -1.1437 -0.5239
 4075SOL    HW213125   2.641   0.324   2.950 -0.1484  2.6526 -0.0358
 4076SOL     OW13126   6.078   0.609   2.687  0.0562  0.6738  0.0629
 4076SOL    HW113127   6.025   0.661   2.753  0.4073  0.3561  0.6009
 4076SOL    HW213128   6.170   0.594   2.723  0.5159  1.2056 -0.8479
 4077SOL     OW13129   4.754   6.510   1.751  0.4377 -0.6996 -0.1596
 4077SOL    HW113130   4.793   6.572   1.682 -0.8647  1.0095  0.5511
 4077SOL    HW213131   4.768   6.415   1.723  2.7196 -0.1230 -1.1871
 4078SOL     OW13132   5.936   2.496   5.545 -0.2202  0.2666  0.6463
 4078SOL    HW113133   5.969   2.546   5.625  1.4516  0.2970 -0.0208
 4078SOL    HW213134   5.993   2.415   5.530 -2.0570 -1.1382  0.9167
 4079SOL     OW13135   6.704   3.647   1.036  0.1469 -0.7771 -0.6392
 4079SOL    HW113136   6.745   3.736   1.055 -2.9707  0.6162  0.1781
 4079SOL    HW213137   6.667   3.609   1.120  0.2613 -2.2342 -1.2238
 4080SOL     OW13138   0.314   1.022   4.475 -0.4864 -0.2407 -0.5202
 4080SOL    HW113139   0.273   1.114   4.473  1.9905  0.9433  0.0615
 4080SOL    HW213140   0.264   0.965   4.540 -0.4936  1.5120  1.0823
 4081SOL     OW13141   6.260   0.309   3.924  0.1120 -0.2456  0.1436
 4081SOL    HW113142   6.316   0.287   3.844  0.3493  0.8907 -0.0247
 4081SOL    HW213143   6.283   0.247   3.999  0.9458 -0.3850 -0.2135
 4082SOL     OW13144   3.662   0.762   0.979  0.4552  0.8555 -0.4965
 4082SOL    HW113145   3.743   0.714   1.014  0.2877  1.8717  1.4435
 4082SOL    HW213146   3.690   0.829   0.911  1.0445  0.1089 -1.0003
 4083SOL     OW13147   0.793   0.101   6.053 -0.5292 -0.0226  0.2310
 4083SOL    HW113148   0.758   0.071   5.964  0.9242 -2.1629  0.3103
 4083SOL    HW213149   0.746   0.052   6.126  0.2242 -0.3880  0.4855
 4084SOL     OW13150   4.543   1.490   5.843  0.2230 -0.4744 -0.1413
 4084SOL    HW113151   4.511   1.580   5.870  0.8693 -0.8096  1.9170
 4084SOL    HW213152   4.630   1.499   5.793  0.1031  0.0521 -0.2610
 4085SOL     OW13153   2.418   5.853   0.144 -0.4855  0.6141  0.3205
 4085SOL    HW113154   2.398   5.776   0.205 -1.6027  1.1356  0.6316
 4085SOL    HW213155   2.348   5.923   0.154  1.2435  2.3220  1.0413
 4086SOL     OW13156   6.776   1.035   4.447  0.2532  0.5232  0.5675
 4086SOL    HW113157   6.823   0.948   4.434  0.7614  0.9675 -0.7194
 4086SOL    HW213158   6.814   1.082   4.526  3.1618  1.5911 -1.3038
 4087SOL     OW13159   2.935   4.403   1.026  0.4379  0.2550 -0.2781
 4087SOL    HW113160   2.925   4.476   1.093  0.4647  0.2112 -0.2267
 4087SOL    HW213161   2.848   4.387   0.980  0.4184  0.2806 -0.2492
 4088SOL     OW13162   5.987   4.375   6.685  0.2935  0.6410 -0.2556
 4088SOL    HW113163   6.053   4.302   6.703  1.3655  1.4802 -0.6808
 4088SOL    HW213164   5.948   4.406   6.771 -1.8129 -1.8644 -0.1929
 4089SOL     OW13165   5.442   3.560   4.251  0.1088  0.0618  0.1829
 4089SOL    HW113166   5.384   3.495   4.300 -0.5186  0.7701  0.3958
 4089SOL    HW213167   5.405   3.652   4.260 -0.6012  0.1286 -2.4065
 4090SOL     OW13168   3.817   4.696   0.277 -0.4445 -0.2335 -0.0944
 4090SOL    HW113169   3.836   4.693   0.375  0.4706 -3.1226 -0.2812
 4090SOL    HW213170   3.722   4.669   0.259  0.5964 -4.4932 -0.1385
 4091SOL     OW13171   3.591   5.835   1.617 -0.0579  0.4603 -0.4481
 4091SOL    HW113172   3.548   5.745   1.608 -0.4220  0.4820  0.8665
 4091SOL    HW213173   3.558   5.896   1.546 -2.2963  0.5005  0.5560
 4092SOL     OW13174   5.447   5.069   1.007  0.6445  0.1678  0.4271
 4092SOL    HW113175   5.379   5.119   1.059 -0.8050 -0.7676 -0.4963
 4092SOL    HW213176   5.464   4.980   1.050  1.9941  0.7353  1.1498
 4093SOL     OW13177   1.792   1.698   4.466 -0.4371 -0.6553 -0.3792
 4093SOL    HW113178   1.782   1.604   4.434 -0.3204 -0.8389  0.1087
 4093SOL    HW213179   1.856   1.701   4.543  1.8891  0.2372 -2.2461
 4094SOL     OW13180   5.252   3.320   7.021  0.0110  0.0551  0.1716
 4094SOL    HW113181   5.281   3.226   7.041 -0.0731  0.3002  1.5828
 4094SOL    HW213182   5.169   3.341   7.073  0.7779  1.3229  0.9636
 4095SOL     OW13183   5.819   2.099   1.079  0.4052  0.2120 -0.2709
 4095SOL    HW113184   5.872   2.119   0.997 -0.2717  0.6861 -0.6008
 4095SOL    HW213185   5.866   2.029   1.133  0.5811 -0.5068 -1.3316
 4096SOL     OW13186   0.344   2.982   0.172  0.3802 -0.2001 -0.8347
 4096SOL    HW113187   0.398   2.922   0.113  0.9094 -1.0532  0.4654
 4096SOL    HW213188   0.249   2.985   0.139  0.3730 -1.6793 -1.0027
 4097SOL     OW13189   2.758   5.821   5.788  0.1134  0.3100 -0.0502
 4097SOL    HW113190   2.751   5.912   5.748  1.8281  0.2788 -0.4812
 4097SOL    HW213191   2.667   5.781   5.794 -0.4551  1.2228 -1.7953
 4098SOL     OW13192   6.777   5.278   6.290  0.2487 -0.2018 -0.6728
 4098SOL    HW113193   6.722   5.255   6.210 -0.7760  2.0673 -0.7037
 4098SOL    HW213194   6.778   5.200   6.353  0.0705 -1.5924 -2.3097
 4099SOL     OW13195   1.130   5.581   3.022 -0.1598 -0.5780 -0.1660
 4099SOL    HW113196   1.137   5.561   3.120 -1.5711  0.1123  0.0914
 4099SOL    HW213197   1.046   5.539   2.986  0.4722 -1.0346 -1.1483
 4100SOL     OW13198   4.949   1.375   6.140 -0.5122 -0.4393 -0.1554
 4100SOL    HW113199   4.945   1.358   6.239 -1.5404 -1.6035 -0.3668
 4100SOL    HW213200   4.900   1.459   6.118  2.7797  1.9300  0.6748
 4101SOL     OW13201   1.195   4.261   6.515 -0.0397 -0.0852 -0.6617
 4101SOL    HW113202   1.268   4.210   6.561 -1.6534 -0.5775  1.4890
 4101SOL    HW213203   1.109   4.212   6.525 -1.2353  1.9585 -0.4815
 4102SOL     OW13204   2.970   0.849   0.777  0.5797  0.0825  0.2203
 4102SOL    HW113205   3.025   0.786   0.831  1.0780  0.4211  0.1097
 4102SOL    HW213206   2.991   0.837   0.680 -0.6135 -0.8169  0.0493
 4103SOL     OW13207   1.397   3.933   1.914  0.6267  0.3527 -0.0174
 4103SOL    HW113208   1.495   3.935   1.897  0.4120  0.8189 -1.3318
 4103SOL    HW213209   1.348   3.930   1.827 -0.5393  0.5356  0.6087
 4104SOL     OW13210   5.452   3.337   6.450  0.3486 -0.2377 -0.5785
 4104SOL    HW113211   5.473   3.276   6.527  0.2285  0.4909  0.0471
 4104SOL    HW213212   5.511   3.418   6.456  0.4379 -0.2449 -1.3431
 4105SOL     OW13213   0.607   6.326   0.195  0.5401 -0.0612  0.0985
 4105SOL    HW113214   0.658   6.281   0.122 -2.1832 -1.4618 -1.0800
 4105SOL    HW213215   0.538   6.386   0.154  0.5473  1.0167  1.6045
 4106SOL     OW13216   3.011   0.407   0.693 -0.3157  0.3725 -0.9934
 4106SOL    HW113217   2.987   0.433   0.787 -1.0458 -1.6159 -0.5960
 4106SOL    HW213218   3.073   0.329   0.695 -2.0198 -1.0723 -2.1559
 4107SOL     OW13219   6.640   2.104   4.886 -0.0651  0.3481 -0.3979
 4107SOL    HW113220   6.623   2.200   4.908 -0.6836 -0.0457  0.9702
 4107SOL    HW213221   6.572   2.072   4.820 -0.5959  0.5437  0.0481
 4108SOL     OW13222   2.706   0.578   6.179 -0.3915  0.1621  0.9770
 4108SOL    HW113223   2.731   0.652   6.242  0.0939  0.3919  0.5188
 4108SOL    HW213224   2.619   0.600   6.134 -0.3625  0.3397  1.0092
 4109SOL     OW13225   5.615   0.484   5.624  0.5976 -0.0634 -0.0777
 4109SOL    HW113226   5.709   0.449   5.620  0.0443 -1.5529 -2.4191
 4109SOL    HW213227   5.607   0.566   5.568  0.6424  0.4838  0.7080
 4110SOL     OW13228   5.574   6.637   3.691 -0.6481 -0.2393  0.2135
 4110SOL    HW113229   5.575   6.537   3.682  3.4881 -0.3204 -0.1472
 4110SOL    HW213230   5.572   6.678   3.600  1.9054 -0.1964  0.1017
 4111SOL     OW13231   3.131   0.621   6.008  0.3318 -0.5967 -0.2554
 4111SOL    HW113232   3.105   0.662   6.096  0.5460  0.6037 -0.7253
 4111SOL    HW213233   3.198   0.548   6.023 -0.2991 -1.0042  0.6417
 4112SOL     OW13234   4.930   6.233   4.910 -0.2615 -0.0031 -0.3382
 4112SOL    HW113235   5.002   6.165   4.919  0.7169  0.8909 -1.1084
 4112SOL    HW213236   4.912   6.250   4.813 -0.8468  0.4562 -0.1544
 4113SOL     OW13237   3.738   6.267   5.971  0.5202 -0.0852  0.0476
 4113SOL    HW113238   3.774   6.308   5.887 -1.1444  0.6109 -0.3858
 4113SOL    HW213239   3.645   6.234   5.955  0.6226 -1.0821  1.3039
 4114SOL     OW13240   6.703   4.080   3.205 -0.0123  0.4082  0.2285
 4114SOL    HW113241   6.647   4.150   3.161 -0.1431 -0.5579 -1.2213
 4114SOL    HW213242   6.794   4.118   3.225  0.3490  0.6681 -1.6956
 4115SOL     OW13243   4.049   0.190   5.065  0.1952  0.6767 -0.3684
 4115SOL    HW113244   4.045   0.191   5.165  1.5763  1.7445 -0.2877
 4115SOL    HW213245   4.124   0.131   5.035 -0.7191 -0.2868 -0.8265
 4116SOL     OW13246   3.113   2.024   0.234 -0.2856 -1.0654  0.1818
 4116SOL    HW113247   3.061   2.102   0.269 -0.5586 -0.8434 -0.6859
 4116SOL    HW213248   3.209   2.033   0.262 -0.2620 -0.2736 -0.1125
 4117SOL     OW13249   6.429   5.132   3.977 -0.1057  0.3235 -0.5932
 4117SOL    HW113250   6.442   5.105   3.882  2.6333  0.3702 -0.3180
 4117SOL    HW213251   6.402   5.053   4.032 -1.9468  0.3480 -1.3977
 4118SOL     OW13252   1.548   4.225   4.691 -0.1063  0.4836  0.1029
 4118SOL    HW113253   1.576   4.277   4.772  2.2941  0.3520 -0.5557
 4118SOL    HW213254   1.554   4.127   4.711 -0.2299  0.4546 -0.0057
 4119SOL     OW13255   0.811   6.979   4.045 -0.1282 -0.1925  0.3033
 4119SOL    HW113256   0.816   6.987   4.145  2.3102 -1.0821  0.3387
 4119SOL    HW213257   0.728   7.022   4.012 -0.2318  1.5369  2.5719
 4120SOL     OW13258   2.307   4.238   2.135  0.4221 -0.0776  0.1612
 4120SOL    HW113259   2.323   4.142   2.110  2.0078  0.3513 -0.5830
 4120SOL    HW213260   2.259   4.242   2.222  0.9339 -1.5544  0.5383
 4121SOL     OW13261   5.223   4.032   4.090 -0.0036 -0.1039 -0.4833
 4121SOL    HW113262   5.186   4.122   4.113  0.4271  0.2476 -1.1517
 4121SOL    HW213263   5.317   4.024   4.123 -0.0187 -0.2825 -0.4814
 4122SOL     OW13264   1.409   1.533   0.971 -0.3581 -0.0412 -0.1034
 4122SOL    HW113265   1.456   1.487   1.046 -0.8158  1.6756  1.2929
 4122SOL    HW213266   1.476   1.555   0.900  0.3423 -0.4594  0.4096
 4123SOL     OW13267   1.911   3.420   5.903  0.2647 -0.0001  0.0773
 4123SOL    HW113268   1.936   3.372   5.987  1.3735  0.5017  0.0409
 4123SOL    HW213269   1.988   3.473   5.870 -0.3562  0.3096 -0.9281
 4124SOL     OW13270   2.389   2.023   5.059 -0.1443 -0.2848 -0.1821
 4124SOL    HW113271   2.358   1.929   5.047 -0.8292 -0.1090  0.1840
 4124SOL    HW213272   2.349   2.061   5.142  0.4978  0.1805 -0.0753
 4125SOL     OW13273   5.874   2.747   2.240 -0.3156 -0.1695 -0.9016
 4125SOL    HW113274   5.891   2.792   2.328 -0.7632  1.1077 -1.4461
 4125SOL    HW213275   5.891   2.649   2.249  1.0198  0.1333  0.2370
 4126SOL     OW13276   4.365   3.482   1.416 -0.7485 -0.0415 -0.1129
 4126SOL    HW113277   4.352   3.552   1.346 -0.3438  0.0474 -0.1014
 4126SOL    HW213278   4.377   3.527   1.505  0.2343 -0.0845 -0.2093
 4127SOL     OW13279   3.195   4.068   3.898  0.4166 -0.9493 -0.2561
 4127SOL    HW113280   3.173   4.074   3.995  0.5527 -0.0315 -0.2749
 4127SOL    HW213281   3.155   3.985   3.860  1.1022 -1.7805  0.7767
 4128SOL     OW13282   0.842   5.242   0.446  0.0267 -0.1843  0.6575
 4128SOL    HW113283   0.888   5.303   0.382 -2.7235  0.6396 -0.6863
 4128SOL    HW213284   0.856   5.147   0.417 -1.8586  0.1912 -1.8282
 4129SOL     OW13285   3.277   5.639   6.452  0.9035 -0.6229 -0.0811
 4129SOL    HW113286   3.359   5.670   6.500  0.3354 -0.2953  0.6836
 4129SOL    HW213287   3.291   5.544   6.423  1.1017 -0.9737  1.1012
 4130SOL     OW13288   0.659   5.406   0.914  0.0972 -0.4907 -0.0659
 4130SOL    HW113289   0.636   5.333   0.979 -1.9746  0.6555  0.5933
 4130SOL    HW213290   0.718   5.369   0.843 -0.2299 -2.6118  0.6670
 4131SOL     OW13291   4.742   6.532   5.096 -0.4847 -0.2171 -0.1176
 4131SOL    HW113292   4.708   6.581   5.015  0.4440 -0.6806 -0.8103
 4131SOL    HW213293   4.770   6.598   5.165  0.0588  0.2366 -0.7519
 4132SOL     OW13294   1.811   1.526   3.450  0.2800  0.4982 -0.3098
 4132SOL    HW113295   1.904   1.550   3.476 -0.3104  1.3611  1.1227
 4132SOL    HW213296   1.784   1.580   3.370  0.4570  1.5123  0.2883
 4133SOL     OW13297   4.170   5.697   0.362  0.1239 -0.0422 -0.1516
 4133SOL    HW113298   4.075   5.674   0.343  0.1134  1.1580 -1.6522
 4133SOL    HW213299   4.191   5.788   0.326  2.7124 -1.5401 -2.8632
 4134SOL     OW13300   2.468   6.569   3.054 -0.3056 -0.1678 -0.1995
 4134SOL    HW113301   2.538   6.499   3.044  1.0447  1.3216 -1.6309
 4134SOL    HW213302   2.420   6.581   2.968  1.7993  2.9323 -1.1148
 4135SOL     OW13303   6.433   6.989   6.465  0.4977  0.8369 -0.1463
 4135SOL    HW113304   6.394   7.067   6.416 -1.2522 -0.9114 -1.6866
 4135SOL    HW213305   6.508   6.950   6.411  2.2756  2.1471  1.2373
 4136SOL     OW13306   3.060   5.891   5.494 -0.3858 -0.1579  0.0970
 4136SOL    HW113307   2.988   5.857   5.434 -1.3573  1.6475  0.1733
 4136SOL    HW213308   3.063   5.835   5.577  0.1813 -1.9365 -1.0444
 4137SOL     OW13309   4.763   2.060   4.496 -0.3747  0.0940 -0.3463
 4137SOL    HW113310   4.713   2.100   4.420 -0.6564 -0.8149 -0.6457
 4137SOL    HW213311   4.854   2.102   4.502 -1.4935  2.5819  0.8978
 4138SOL     OW13312   6.289   2.949   5.669 -0.1850  0.2146  0.1054
 4138SOL    HW113313   6.287   2.850   5.655  0.4187  0.1164  0.6932
 4138SOL    HW213314   6.218   2.975   5.734 -0.2689  0.1605  0.0370
 4139SOL     OW13315   4.907   3.223   4.839 -0.3510  0.0453 -0.1631
 4139SOL    HW113316   4.929   3.321   4.840  1.4021 -0.3076 -0.2821
 4139SOL    HW213317   4.879   3.194   4.931 -1.2359  0.7108 -0.2086
 4140SOL     OW13318   2.345   6.245   6.441 -0.1320  0.1649  0.2485
 4140SOL    HW113319   2.327   6.338   6.407  0.1329 -0.3391 -1.3265
 4140SOL    HW213320   2.394   6.251   6.528  0.8646  1.5103 -0.3595
 4141SOL     OW13321   3.945   1.891   1.528  0.9820  0.2798  0.7257
 4141SOL    HW113322   4.015   1.821   1.542  0.9959  0.3446  0.9892
 4141SOL    HW213323   3.941   1.951   1.608  0.2824 -0.0239  0.9267
 4142SOL     OW13324   0.698   3.450   0.300 -0.0164 -0.3330  0.2106
 4142SOL    HW113325   0.643   3.422   0.221 -1.2357 -0.1246  0.9591
 4142SOL    HW213326   0.755   3.373   0.329  1.0762 -0.1621 -1.3574
 4143SOL     OW13327   3.330   3.919   5.966 -0.0397 -0.2517  0.1123
 4143SOL    HW113328   3.379   3.835   5.989  2.5314  1.0983 -0.0254
 4143SOL    HW213329   3.340   3.938   5.868 -0.9787 -0.0125  0.0544
 4144SOL     OW13330   0.355   5.580   4.538  0.0155  0.2313 -0.5865
 4144SOL    HW113331   0.403   5.608   4.621 -0.2016 -1.4560  0.1529
 4144SOL    HW213332   0.256   5.586   4.554 -0.0260 -0.2645 -0.6680
 4145SOL     OW13333   2.179   1.404   6.384  0.9507 -0.1782 -0.0367
 4145SOL    HW113334   2.138   1.448   6.463  2.1635 -0.9633  1.0687
 4145SOL    HW213335   2.237   1.469   6.335  0.9778  0.0473  0.2958
 4146SOL     OW13336   4.746   5.186   4.130  0.5702 -0.1042  0.1932
 4146SOL    HW113337   4.723   5.111   4.068  1.4966  0.8717 -1.3944
 4146SOL    HW213338   4.811   5.153   4.199  0.4896 -0.9060 -0.0995
 4147SOL     OW13339   2.211   5.493   6.757 -0.6469  0.1699  0.0282
 4147SOL    HW113340   2.127   5.542   6.735  0.0158  0.4082 -2.1476
 4147SOL    HW213341   2.249   5.530   6.842 -3.1257 -0.5141  1.5305
 4148SOL     OW13342   2.747   1.176   5.904 -0.7543 -0.1361 -0.1058
 4148SOL    HW113343   2.671   1.234   5.875 -0.3173  0.9743  0.8993
 4148SOL    HW213344   2.827   1.232   5.923  0.2563 -1.2656 -0.8854
 4149SOL     OW13345   3.945   6.448   6.444 -0.0324  0.0309  0.9242
 4149SOL    HW113346   3.867   6.443   6.506  0.2235  1.8012  1.4282
 4149SOL    HW213347   3.916   6.485   6.356  0.3288  1.2606  1.3088
 4150SOL     OW13348   4.167   2.155   5.100 -0.6857  0.2874  0.3335
 4150SOL    HW113349   4.077   2.139   5.143 -0.6953  0.7570  0.4949
 4150SOL    HW213350   4.175   2.252   5.076 -0.7669 -0.0039 -0.9435
 4151SOL     OW13351   0.174   4.630   2.830  0.5434 -0.4866  0.1055
 4151SOL    HW113352   0.128   4.670   2.910 -2.3672 -1.3457 -1.0060
 4151SOL    HW213353   0.222   4.702   2.780 -0.9318  0.8294  0.4953
 4152SOL     OW13354   3.994   3.070   2.901 -0.5168  0.1834  0.2982
 4152SOL    HW113355   3.901   3.033   2.898 -1.1025  1.2872  2.7645
 4152SOL    HW213356   4.046   3.024   2.974  0.8364 -0.2238 -0.8603
 4153SOL     OW13357   4.624   6.422   6.398  0.1957  0.6493  0.1204
 4153SOL    HW113358   4.683   6.346   6.424  1.5094  1.5214 -0.2180
 4153SOL    HW213359   4.680   6.503   6.380 -1.2378  2.0330  1.5869
 4154SOL     OW13360   2.467   2.508   1.264  0.0531 -0.5003 -0.3794
 4154SOL    HW113361   2.414   2.450   1.202 -0.7789  0.4857 -0.6182
 4154SOL    HW213362   2.505   2.585   1.213 -0.6324  0.3212  0.3324
 4155SOL     OW13363   5.237   3.376   3.655  0.1286  1.0992 -0.2530
 4155SOL    HW113364   5.185   3.293   3.636 -1.4971  2.0142 -0.0685
 4155SOL    HW213365   5.174   3.455   3.653  1.4045  2.1767  0.7154
 4156SOL     OW13366   5.201   3.499   4.027 -0.1747  0.7034  0.6756
 4156SOL    HW113367   5.165   3.429   3.965 -0.8146  0.6683  1.0721
 4156SOL    HW213368   5.291   3.528   3.996 -0.1999  0.2038  0.1122
 4157SOL     OW13369   3.131   2.188   4.818 -0.0478  0.1526  0.3684
 4157SOL    HW113370   3.133   2.242   4.902 -1.7651 -1.4767  1.5216
 4157SOL    HW213371   3.047   2.209   4.767 -0.2411 -0.6696  0.3343
 4158SOL     OW13372   5.842   4.682   2.328  0.4154 -0.0450  0.0068
 4158SOL    HW113373   5.873   4.777   2.328  0.3694 -0.0297  0.1381
 4158SOL    HW213374   5.826   4.652   2.422 -0.3722  0.0720 -0.0877
 4159SOL     OW13375   6.316   3.022   4.601  0.0222  0.4343 -0.4376
 4159SOL    HW113376   6.322   2.925   4.576 -1.2247  0.3875 -0.6114
 4159SOL    HW213377   6.274   3.073   4.527  1.0910  1.2043 -0.5289
 4160SOL     OW13378   3.085   0.018   5.668 -0.4213  0.2280 -0.3563
 4160SOL    HW113379   3.047   0.102   5.708 -1.8987  0.3468 -1.8886
 4160SOL    HW213380   3.036  -0.003   5.584 -0.4721 -2.5191  0.2855
 4161SOL     OW13381   4.985   0.582   6.075  0.6916 -0.4955  0.7497
 4161SOL    HW113382   4.931   0.539   6.002 -2.0035 -0.0497  2.3221
 4161SOL    HW213383   5.079   0.548   6.072  0.1381 -2.0417 -1.6064
 4162SOL     OW13384   5.860   4.841   6.579  0.5066  0.3724 -0.1010
 4162SOL    HW113385   5.776   4.886   6.610  0.3258 -0.2765  0.3891
 4162SOL    HW213386   5.839   4.748   6.549  0.8364  0.6778 -1.3210
 4163SOL     OW13387   6.533   2.420   4.524  0.0142 -0.2347 -0.3405
 4163SOL    HW113388   6.444   2.412   4.570 -1.0127 -0.3825 -2.2790
 4163SOL    HW213389   6.555   2.517   4.513 -0.8186 -0.1495 -1.4721
 4164SOL     OW13390   4.181   2.760   5.660 -0.0832 -0.3714 -0.2247
 4164SOL    HW113391   4.178   2.859   5.673  1.6701 -0.4513  1.0733
 4164SOL    HW213392   4.185   2.740   5.562  0.5781  0.8931 -0.4787
 4165SOL     OW13393   1.245   5.610   5.816 -0.3778 -0.0784  0.8351
 4165SOL    HW113394   1.226   5.706   5.796 -0.1748 -0.6251 -2.3967
 4165SOL    HW213395   1.343   5.599   5.833 -0.6094  0.4490  2.8550
 4166SOL     OW13396   1.722   0.113   4.632 -0.6505  0.2073 -0.2072
 4166SOL    HW113397   1.655   0.055   4.586 -1.5101 -0.8732  2.1961
 4166SOL    HW213398   1.800   0.130   4.571 -2.5033  0.4628 -2.6324
 4167SOL     OW13399   1.675   3.583   3.202  0.0732 -0.6784  0.0848
 4167SOL    HW113400   1.727   3.526   3.266  0.5939 -1.3623 -0.9138
 4167SOL    HW213401   1.691   3.550   3.108 -1.8380 -0.6402 -0.2805
 4168SOL     OW13402   1.855   6.431   4.524  0.1727  0.1484  0.1504
 4168SOL    HW113403   1.817   6.510   4.571 -0.2047 -0.7092  1.3197
 4168SOL    HW213404   1.792   6.354   4.531 -0.3160  0.1974 -2.5177
 4169SOL     OW13405   5.513   1.973   0.321  0.5755 -0.4291 -0.0044
 4169SOL    HW113406   5.494   1.908   0.248  1.4520 -0.5530 -0.1251
 4169SOL    HW213407   5.434   2.033   0.334  0.7791  0.2610 -1.7424
 4170SOL     OW13408   6.327   1.218   3.469  0.0016 -0.0244 -0.4965
 4170SOL    HW113409   6.250   1.201   3.407  0.6268 -0.9930 -1.0425
 4170SOL    HW213410   6.361   1.311   3.454 -0.6255  0.1766 -0.7280
 4171SOL     OW13411   1.714   4.015   3.850  0.3442 -0.2389  0.6944
 4171SOL    HW113412   1.720   3.998   3.752  1.8938 -0.2211  0.7537
 4171SOL    HW213413   1.630   4.065   3.871 -0.4536 -1.0293 -0.4926
 4172SOL     OW13414   5.816   1.951   0.353  0.1067  0.0296 -0.8200
 4172SOL    HW113415   5.842   1.905   0.439  0.1335  2.4549  0.5542
 4172SOL    HW213416   5.717   1.951   0.345  0.0712  0.3702 -0.4321
 4173SOL     OW13417   0.272   3.947   6.504  0.0425 -0.1638  0.1658
 4173SOL    HW113418   0.228   4.034   6.528  0.8232 -0.2915  2.2632
 4173SOL    HW213419   0.206   3.888   6.457 -0.1501  1.9698 -2.4453
 4174SOL     OW13420   6.935   0.070   0.924 -0.3936 -0.5829 -0.0209
 4174SOL    HW113421   6.908   0.063   0.828 -2.1963 -1.4666  0.5175
 4174SOL    HW213422   6.857   0.099   0.979  0.3748 -0.9523  1.3107
 4175SOL     OW13423   5.399   5.753   2.984  0.6625 -0.7774 -0.7043
 4175SOL    HW113424   5.410   5.756   2.885  0.0072  0.6923 -0.7658
 4175SOL    HW213425   5.417   5.844   3.022 -0.2802 -1.0235  0.3773
 4176SOL     OW13426   2.540   1.526   2.455 -0.0805 -0.4662 -0.1888
 4176SOL    HW113427   2.627   1.520   2.405 -0.4070  1.6648 -1.1334
 4176SOL    HW213428   2.475   1.460   2.418  0.9989 -1.8251  0.2748
 4177SOL     OW13429   0.156   2.191   4.780  0.2101 -0.0365 -0.1262
 4177SOL    HW113430   0.210   2.249   4.720  1.1133  0.4498  1.1188
 4177SOL    HW213431   0.061   2.189   4.748  0.7666 -0.2146 -1.8397
 4178SOL     OW13432   0.784   4.179   4.326  0.5647 -0.2268 -0.5594
 4178SOL    HW113433   0.758   4.139   4.414  1.2741  0.5988  0.0454
 4178SOL    HW213434   0.702   4.208   4.277  0.2013  0.1167  0.2350
 4179SOL     OW13435   6.145   2.224   1.231  0.1722 -0.1061  0.9438
 4179SOL    HW113436   6.172   2.129   1.249  2.5369  0.1164 -0.9393
 4179SOL    HW213437   6.166   2.280   1.310 -0.7816 -1.0424  1.8893
 4180SOL     OW13438   1.639   3.336   0.745 -0.2771 -0.0318 -0.3397
 4180SOL    HW113439   1.648   3.285   0.830 -2.9790 -1.2320 -0.6442
 4180SOL    HW213440   1.718   3.395   0.732  0.1943  0.2461  2.9941
 4181SOL     OW13441   1.968   2.270   4.850  0.6434 -1.1321  0.1169
 4181SOL    HW113442   1.954   2.172   4.865  0.3497 -0.7914  2.2880
 4181SOL    HW213443   1.883   2.312   4.820  0.4643 -1.3494  0.3182
 4182SOL     OW13444   0.219   4.233   1.773 -0.2358 -0.6782  0.0588
 4182SOL    HW113445   0.188   4.147   1.733 -0.0169 -0.5747 -0.3432
 4182SOL    HW213446   0.188   4.240   1.867 -0.1554 -1.2522  0.1295
 4183SOL     OW13447   5.140   0.750   5.246  0.0379 -0.1296  0.0812
 4183SOL    HW113448   5.042   0.736   5.239  0.1459 -0.2529 -1.5393
 4183SOL    HW213449   5.171   0.807   5.170  1.2748 -0.4032  0.3604
 4184SOL     OW13450   1.019   5.292   5.490 -0.3143  0.2159 -1.1585
 4184SOL    HW113451   0.965   5.372   5.518  1.1563  1.0843 -0.6934
 4184SOL    HW213452   0.960   5.229   5.440 -1.4301  1.8199 -1.9926
 4185SOL     OW13453   6.293   1.766   4.235  0.0583  0.4313  0.2326
 4185SOL    HW113454   6.375   1.709   4.228  0.6299  1.4122 -1.9211
 4185SOL    HW213455   6.224   1.734   4.170 -0.7249  0.4663  1.0365
 4186SOL     OW13456   6.315   0.877   5.282 -0.1003 -0.8098  0.1475
 4186SOL    HW113457   6.287   0.790   5.242 -1.2173  0.3778 -1.7913
 4186SOL    HW213458   6.392   0.914   5.231  0.1433 -0.4907  0.7389
 4187SOL     OW13459   5.856   6.617   6.203 -0.1964 -0.1610 -0.5761
 4187SOL    HW113460   5.775   6.585   6.155 -0.8625 -0.4799  0.7140
 4187SOL    HW213461   5.836   6.705   6.247 -0.3814 -0.9988  1.0791
 4188SOL     OW13462   4.167   0.313   0.762 -0.0314 -0.3478  0.4804
 4188SOL    HW113463   4.133   0.284   0.672  0.6563  0.8565 -0.2039
 4188SOL    HW213464   4.175   0.413   0.764  1.2797 -0.4449  1.3892
 4189SOL     OW13465   1.498   4.821   6.657 -0.1780  0.1542 -0.3258
 4189SOL    HW113466   1.461   4.885   6.724  0.2698  0.1143 -0.0370
 4189SOL    HW213467   1.486   4.858   6.565 -0.3275  0.4456 -0.1885
 4190SOL     OW13468   6.148   4.378   3.834  0.1362  0.0061  0.3438
 4190SOL    HW113469   6.169   4.282   3.813  0.9619 -0.4210  2.8341
 4190SOL    HW213470   6.075   4.382   3.902  0.0309  1.1725  0.1821
 4191SOL     OW13471   4.775   6.035   5.108  0.7532  0.5735 -0.0430
 4191SOL    HW113472   4.786   6.059   5.011  1.9958  1.6671  0.3401
 4191SOL    HW213473   4.724   5.949   5.115 -0.0001  0.8526 -1.6321
 4192SOL     OW13474   1.581   4.172   6.029 -0.0598  0.3842 -0.0484
 4192SOL    HW113475   1.614   4.233   5.957 -2.2335  1.8785  0.1246
 4192SOL    HW213476   1.531   4.224   6.098 -1.7595 -1.5112  0.2743
 4193SOL     OW13477   0.233   5.600   2.207 -0.2465  0.4257  0.6500
 4193SOL    HW113478   0.153   5.596   2.267  0.4989  0.0269  1.6519
 4193SOL    HW213479   0.207   5.638   2.118 -1.5639  0.1775  0.9156
 4194SOL     OW13480   3.030   6.797   1.312  0.1804 -0.0218  0.1447
 4194SOL    HW113481   3.107   6.752   1.268  1.1926  0.2550  1.5716
 4194SOL    HW213482   2.945   6.749   1.288  1.0266 -1.6488  0.2722
 4195SOL     OW13483   2.860   4.724   2.245  0.0245 -0.8016  0.3766
 4195SOL    HW113484   2.836   4.681   2.158 -0.4883 -1.3894  0.8000
 4195SOL    HW213485   2.785   4.712   2.310 -0.6653  1.7470  0.1788
 4196SOL     OW13486   0.181   2.887   3.644 -0.2982  0.2545 -0.2374
 4196SOL    HW113487   0.207   2.860   3.551  1.8460  0.9674  0.0818
 4196SOL    HW213488   0.177   2.806   3.702 -0.8949 -0.1131 -0.7836
 4197SOL     OW13489   4.572   6.788   2.343  0.0946 -0.3396 -0.4948
 4197SOL    HW113490   4.538   6.883   2.342 -0.7580 -0.6203  0.6512
 4197SOL    HW213491   4.498   6.727   2.369  1.1566 -1.1210  0.7596
 4198SOL     OW13492   6.257   4.853   6.047 -0.6679  0.7548  0.2306
 4198SOL    HW113493   6.303   4.916   6.108 -1.0934  0.2008  1.1397
 4198SOL    HW213494   6.159   4.853   6.065 -0.7746  0.4212 -0.3010
 4199SOL     OW13495   1.160   5.709   5.534  0.3944 -0.6842  0.0869
 4199SOL    HW113496   1.146   5.759   5.620 -0.9430  0.0380 -0.5086
 4199SOL    HW213497   1.239   5.649   5.543 -0.9874 -2.3160  2.5807
 4200SOL     OW13498   5.529   2.405   0.417  0.1562 -0.1466 -0.3293
 4200SOL    HW113499   5.451   2.362   0.372  1.8721 -3.9177 -0.1040
 4200SOL    HW213500   5.511   2.414   0.515 -0.5113  0.3495 -0.4928
 4201SOL     OW13501   4.019   2.803   0.524 -0.3162 -0.4451  0.0860
 4201SOL    HW113502   4.115   2.822   0.503 -1.1138  1.2751 -2.5261
 4201SOL    HW213503   3.969   2.889   0.533 -1.5952 -1.3077  1.6625
 4202SOL     OW13504   6.031   2.025   6.914  0.4726 -0.3111 -0.0208
 4202SOL    HW113505   5.968   2.088   6.868  0.3490  0.0846  0.6754
 4202SOL    HW213506   6.121   2.030   6.870 -0.5463 -2.7712 -2.7350
 4203SOL     OW13507   2.815   1.650   4.717  0.3322 -0.2985 -0.1880
 4203SOL    HW113508   2.891   1.712   4.698  0.0796 -0.5887 -2.4781
 4203SOL    HW213509   2.758   1.688   4.789  1.5737  0.8602  0.2281
 4204SOL     OW13510   2.095   3.565   3.600  0.4777  0.1930  0.5635
 4204SOL    HW113511   2.062   3.487   3.654 -0.1245  0.1466  0.1381
 4204SOL    HW213512   2.138   3.532   3.517 -2.0975  0.3316 -0.9334
 4205SOL     OW13513   2.527   1.006   5.978 -0.2137  0.1634 -0.2077
 4205SOL    HW113514   2.521   0.929   5.915  1.0357  0.9598 -1.3541
 4205SOL    HW213515   2.599   1.069   5.948 -0.0176  0.9145  1.6644
 4206SOL     OW13516   6.135   5.273   5.824  0.1103  0.3741  0.3108
 4206SOL    HW113517   6.192   5.270   5.906  0.9841 -1.1879 -0.3102
 4206SOL    HW213518   6.193   5.259   5.743 -0.9229  0.5357 -0.4836
 4207SOL     OW13519   1.057   4.795   2.027  0.3067  0.7997  0.5107
 4207SOL    HW113520   0.967   4.834   2.045 -0.0390  0.0497  0.4693
 4207SOL    HW213521   1.090   4.746   2.107  0.0358 -0.1289  0.0717
 4208SOL     OW13522   2.312   4.730   5.082  0.2787  0.0697 -0.1681
 4208SOL    HW113523   2.223   4.688   5.099  0.2996 -1.7117 -3.5940
 4208SOL    HW213524   2.300   4.815   5.031  0.5014  1.4450  1.9535
 4209SOL     OW13525   3.864   3.883   6.963  0.1135  0.0559 -0.1230
 4209SOL    HW113526   3.842   3.820   6.889  0.6618 -0.1466 -0.1128
 4209SOL    HW213527   3.779   3.909   7.010 -0.1139 -0.7250 -0.0842
 4210SOL     OW13528   5.944   1.968   5.289 -0.3654  0.4842  0.1133
 4210SOL    HW113529   6.005   1.889   5.291 -0.5681  0.3349  1.2977
 4210SOL    HW213530   5.898   1.972   5.201  0.2416 -0.2597 -0.2514
 4211SOL     OW13531   2.043   4.591   0.244  0.0627  0.5206  0.1906
 4211SOL    HW113532   1.989   4.669   0.211 -1.1511  0.3137  1.5959
 4211SOL    HW213533   2.090   4.616   0.329  2.6723  0.8590 -1.2404
 4212SOL     OW13534   0.158   1.264   5.094 -0.3330  0.1105  0.0353
 4212SOL    HW113535   0.185   1.305   5.181  1.0165  1.0440 -0.7821
 4212SOL    HW213536   0.113   1.177   5.111 -3.7424  2.0201  1.9015
 4213SOL     OW13537   0.005   6.946   2.322 -0.6191  0.7917  0.1683
 4213SOL    HW113538  -0.062   6.876   2.299  0.2012  0.2333 -0.6027
 4213SOL    HW213539  -0.042   7.030   2.348 -1.6106  0.2236  0.2503
 4214SOL     OW13540   0.274   3.899   2.772 -0.3370  0.8669  0.1006
 4214SOL    HW113541   0.191   3.887   2.717 -3.0286 -1.1705  4.0730
 4214SOL    HW213542   0.280   3.994   2.803 -1.7845  0.8671  0.4739
 4215SOL     OW13543   4.331   5.583   6.248 -0.1721  0.8303  0.1445
 4215SOL    HW113544   4.243   5.583   6.201 -0.0723  1.1171 -0.0465
 4215SOL    HW213545   4.334   5.659   6.313  0.2059  1.2694 -0.3742
 4216SOL     OW13546   1.243   1.784   1.985 -0.4881 -0.4538  0.3531
 4216SOL    HW113547   1.273   1.879   1.987  1.6569 -1.0695  0.2144
 4216SOL    HW213548   1.243   1.747   2.078 -2.3161 -0.0702  0.5382
 4217SOL     OW13549   1.840   5.208   2.406  0.3134  0.9414  0.1588
 4217SOL    HW113550   1.897   5.277   2.449 -0.1540  1.7098 -0.4182
 4217SOL    HW213551   1.805   5.243   2.319  1.1886 -0.5293 -0.8384
 4218SOL     OW13552   1.330   4.355   5.436  0.3349  0.3651 -0.1269
 4218SOL    HW113553   1.413   4.370   5.382 -0.0342  2.1755 -0.2682
 4218SOL    HW213554   1.259   4.419   5.405 -0.5771 -0.0344  1.0826
 4219SOL     OW13555   6.013   6.238   6.181 -0.5545 -0.5240  0.0436
 4219SOL    HW113556   6.037   6.153   6.229  0.3367 -1.3734 -1.8069
 4219SOL    HW213557   5.965   6.299   6.243 -1.6564 -2.5824  1.2978
 4220SOL     OW13558   6.531   6.848   4.161  0.0976 -0.3300  0.5356
 4220SOL    HW113559   6.481   6.893   4.236  1.1569  0.6538  0.6838
 4220SOL    HW213560   6.601   6.910   4.126 -0.3313 -0.7872 -1.2543
 4221SOL     OW13561   2.654   5.045   6.904  0.2235 -0.5085 -0.1670
 4221SOL    HW113562   2.663   4.980   6.828 -1.5101 -1.4698  0.3942
 4221SOL    HW213563   2.581   5.110   6.883 -0.0269 -0.5677  0.5178
 4222SOL     OW13564   2.986   2.816   5.478 -0.4761  0.4320 -0.3029
 4222SOL    HW113565   3.068   2.834   5.424 -0.1131  0.5343  0.2810
 4222SOL    HW213566   2.907   2.811   5.417 -0.1687  1.2193 -0.7813
 4223SOL     OW13567   5.413   4.996   6.264 -0.3894  0.3644  0.4551
 4223SOL    HW113568   5.342   5.065   6.274  0.0232  0.9666 -0.6041
 4223SOL    HW213569   5.433   4.983   6.167 -0.9853 -1.7826  0.5604
 4224SOL     OW13570   5.598   6.301   4.714 -0.2868 -0.0499  0.4896
 4224SOL    HW113571   5.619   6.248   4.632  0.3844 -1.5282  1.5607
 4224SOL    HW213572   5.499   6.306   4.726 -0.4653  1.5416 -1.2156
 4225SOL     OW13573   6.296   4.143   4.311 -1.0565 -0.5485  0.4383
 4225SOL    HW113574   6.224   4.197   4.266 -0.9219  0.9062  1.8535
 4225SOL    HW213575   6.316   4.063   4.256 -1.3830  0.7606 -1.7359
 4226SOL     OW13576   0.728   3.990   3.377 -0.1184 -0.5386 -0.2708
 4226SOL    HW113577   0.676   3.907   3.394  0.7362 -0.9264  0.5579
 4226SOL    HW213578   0.824   3.966   3.359  0.4678  0.3311  1.4517
 4227SOL     OW13579   5.067   2.177   6.364  0.1164  0.3439  0.5364
 4227SOL    HW113580   5.060   2.270   6.401  2.5144  0.3145  1.2159
 4227SOL    HW213581   5.107   2.181   6.272 -1.1444  0.0455 -0.0500
 4228SOL     OW13582   6.129   0.239   2.405 -0.0732 -0.1950 -0.0037
 4228SOL    HW113583   6.053   0.174   2.391  0.3185 -0.7297  0.2930
 4228SOL    HW213584   6.154   0.240   2.502 -2.0929  2.6987  0.6224
 4229SOL     OW13585   5.912   0.720   0.419  0.3270  0.4479 -0.2477
 4229SOL    HW113586   5.965   0.705   0.502 -1.6119  0.1223  1.0168
 4229SOL    HW213587   5.965   0.774   0.354  1.3413  2.0982  1.8355
 4230SOL     OW13588   0.907   5.851   6.329 -0.1752  0.2996  0.3111
 4230SOL    HW113589   0.898   5.891   6.420 -1.6634 -0.7144  0.6321
 4230SOL    HW213590   0.992   5.798   6.325 -0.3167 -0.0269  1.2677
 4231SOL     OW13591   4.765   4.328   1.449  0.4982 -0.1948  0.3322
 4231SOL    HW113592   4.809   4.336   1.539 -0.6893 -1.7838  1.0943
 4231SOL    HW213593   4.836   4.313   1.379  1.4991  1.7742  0.8345
 4232SOL     OW13594   3.076   5.435   0.919  0.4909  0.3270  0.4208
 4232SOL    HW113595   3.081   5.349   0.868  1.3266  0.5029  0.1976
 4232SOL    HW213596   3.045   5.508   0.858 -1.3025  0.0039  0.8643
 4233SOL     OW13597   3.969   2.853   1.682 -0.4931 -0.1264  0.1270
 4233SOL    HW113598   3.979   2.922   1.754 -0.2869  0.2961 -0.3028
 4233SOL    HW213599   4.053   2.798   1.678 -0.1701  0.3932 -0.3477
 4234SOL     OW13600   1.991   5.786   0.046  0.5835 -0.2809  0.3360
 4234SOL    HW113601   1.992   5.686   0.048  1.6834 -0.2872  0.2137
 4234SOL    HW213602   2.066   5.821   0.102  1.0503  0.4455 -0.7065
 4235SOL     OW13603   1.374   0.514   5.891 -0.0706 -0.2141  0.1383
 4235SOL    HW113604   1.431   0.460   5.829  0.5469 -0.4226  0.8583
 4235SOL    HW213605   1.337   0.454   5.962 -1.0404 -0.0404 -0.2045
 4236SOL     OW13606   5.774   5.544   4.881  0.7733 -0.0876  0.4351
 4236SOL    HW113607   5.751   5.488   4.961 -0.0957 -0.9375 -0.3970
 4236SOL    HW213608   5.775   5.640   4.908 -1.7682 -0.1513  1.0206
 4237SOL     OW13609   2.715   4.398   6.160  0.3015 -0.7294 -0.7145
 4237SOL    HW113610   2.784   4.329   6.179  0.9009  0.3207  1.2110
 4237SOL    HW213611   2.758   4.479   6.121 -0.0544 -0.5818 -0.8051
 4238SOL     OW13612   3.443   1.234   4.171 -0.4986 -0.2439 -0.4091
 4238SOL    HW113613   3.373   1.275   4.112 -1.3620  0.6782  1.1761
 4238SOL    HW213614   3.401   1.165   4.230  0.1056 -0.3195 -0.0559
 4239SOL     OW13615   1.387   6.866   3.350 -0.0207  0.0928  0.3878
 4239SOL    HW113616   1.462   6.895   3.409 -1.3064  2.7349  0.8542
 4239SOL    HW213617   1.310   6.837   3.407 -0.1463 -0.4772 -0.0645
 4240SOL     OW13618   6.106   4.072   0.104 -0.1373  0.7132  0.6219
 4240SOL    HW113619   6.142   4.018   0.180 -0.5502  2.3265  2.0313
 4240SOL    HW213620   6.075   4.011   0.032 -1.6390 -0.9933  2.5883
 4241SOL     OW13621   6.742   5.507   4.773  0.1447  0.4048 -0.2692
 4241SOL    HW113622   6.811   5.519   4.844 -0.1432 -1.1399  0.3063
 4241SOL    HW213623   6.667   5.571   4.790 -0.0467 -0.1112  1.0095
 4242SOL     OW13624   1.043   1.652   0.097 -0.0979  0.0881 -0.2330
 4242SOL    HW113625   1.125   1.707   0.113  0.7543 -0.9590 -0.8698
 4242SOL    HW213626   1.009   1.615   0.184  0.2152  0.3681  0.0085
 4243SOL     OW13627   1.516   0.150   6.232 -0.2089 -0.7999  0.2426
 4243SOL    HW113628   1.541   0.146   6.135  1.7998  0.4677  0.6403
 4243SOL    HW213629   1.422   0.119   6.244 -0.9214  0.1870 -2.2555
 4244SOL     OW13630   1.916   5.676   4.264 -0.2505 -0.2643 -0.1131
 4244SOL    HW113631   1.976   5.610   4.218  0.1905  0.7600 -1.0644
 4244SOL    HW213632   1.895   5.751   4.201 -0.2537  0.8046  1.1156
 4245SOL     OW13633   4.048   4.523   0.202 -0.0730 -0.2882  0.1378
 4245SOL    HW113634   3.977   4.585   0.168 -0.3205  0.9706  2.7252
 4245SOL    HW213635   4.137   4.553   0.168 -0.3193  0.8678  0.4639
 4246SOL     OW13636   5.981   2.803   1.990 -0.0207  0.0628 -0.6405
 4246SOL    HW113637   5.924   2.758   1.922  0.5917 -0.6522 -0.6923
 4246SOL    HW213638   5.933   2.805   2.078  0.0434 -0.9303 -0.5749
 4247SOL     OW13639   2.939   1.961   3.267  0.3450 -0.9326 -0.3841
 4247SOL    HW113640   3.030   1.959   3.225  0.5183  1.4725 -0.2603
 4247SOL    HW213641   2.874   2.005   3.206 -0.5760 -1.8807 -0.1253
 4248SOL     OW13642   4.387   1.168   2.988  0.4834 -0.1897  0.4390
 4248SOL    HW113643   4.394   1.069   3.001  1.3754 -0.1679  0.1756
 4248SOL    HW213644   4.361   1.188   2.894  1.4315 -0.1479  0.1808
 4249SOL     OW13645   1.407   5.939   6.457  0.5931 -0.0334  0.0055
 4249SOL    HW113646   1.396   6.038   6.469 -1.5622  0.0469 -1.8793
 4249SOL    HW213647   1.391   5.893   6.544 -2.0563  1.1318  0.2506
 4250SOL     OW13648   0.391   5.397   3.288 -0.3075  0.1068 -0.0946
 4250SOL    HW113649   0.488   5.418   3.287 -0.6313  1.8569  0.6726
 4250SOL    HW213650   0.360   5.375   3.196  0.8498 -0.7843 -0.2898
 4251SOL     OW13651   0.554   6.222   1.432 -0.4274 -0.3111 -0.6132
 4251SOL    HW113652   0.473   6.270   1.465  0.3379  1.4032 -1.1311
 4251SOL    HW213653   0.572   6.248   1.337  1.7612  0.8134  0.0480
 4252SOL     OW13654   1.576   6.101   2.913 -1.2016  0.6409  0.3534
 4252SOL    HW113655   1.561   6.009   2.877  0.5567  0.3066  0.3885
 4252SOL    HW213656   1.543   6.169   2.847  0.9415  0.0336 -1.4586
 4253SOL     OW13657   5.474   5.189   3.190 -0.0028  0.2914  0.4543
 4253SOL    HW113658   5.532   5.161   3.114  0.3131 -1.7666  1.3948
 4253SOL    HW213659   5.512   5.157   3.276 -1.2135  1.1362  1.3593
 4254SOL     OW13660   6.155   1.310   3.747  0.2201  0.0720 -0.1646
 4254SOL    HW113661   6.157   1.217   3.711 -1.1293  0.2250 -0.7078
 4254SOL    HW213662   6.237   1.359   3.719  1.5477 -1.2994  1.1562
 4255SOL     OW13663   6.608   6.585   5.748 -0.1807 -0.6874 -0.3634
 4255SOL    HW113664   6.537   6.549   5.808  0.7307  1.1262  1.9843
 4255SOL    HW213665   6.682   6.519   5.740 -0.0482 -0.7591  1.0908
 4256SOL     OW13666   0.946   5.605   5.154  0.2564  0.3366  0.1458
 4256SOL    HW113667   0.980   5.512   5.165 -0.4803 -0.1075 -1.0912
 4256SOL    HW213668   0.992   5.666   5.219  1.0583 -0.8016  0.6729
 4257SOL     OW13669   5.446   4.163   6.473  0.2751 -0.0149  0.1947
 4257SOL    HW113670   5.414   4.204   6.388  0.1348  0.0186  0.2624
 4257SOL    HW213671   5.414   4.068   6.479  1.2902 -0.4077 -0.3453
 4258SOL     OW13672   6.352   0.113   1.290 -0.3443 -0.0455  0.4446
 4258SOL    HW113673   6.443   0.072   1.276  0.3841  2.3343 -3.1313
 4258SOL    HW213674   6.362   0.209   1.316 -1.8516  0.1887  0.2348
 4259SOL     OW13675   1.838   6.043   3.020 -0.6564 -0.1330 -0.2716
 4259SOL    HW113676   1.893   6.104   2.963  1.0869 -1.2809  0.0920
 4259SOL    HW213677   1.742   6.048   2.991 -0.4727  2.1840 -0.7144
 4260SOL     OW13678   0.483   4.118   1.824  0.4079  0.2489 -0.2292
 4260SOL    HW113679   0.561   4.179   1.838  0.1150  0.6820 -0.4846
 4260SOL    HW213680   0.398   4.167   1.843  0.0965  0.2924 -1.6736
 4261SOL     OW13681   3.252   2.393   1.129 -0.2452  0.5506 -0.3946
 4261SOL    HW113682   3.153   2.382   1.125 -0.1462 -0.3988 -0.4333
 4261SOL    HW213683   3.277   2.438   1.215 -0.7263  1.0585 -0.5185
 4262SOL     OW13684   5.843   3.894   4.562 -0.2669 -0.9785  0.7815
 4262SOL    HW113685   5.823   3.975   4.616  1.5089 -1.2555  1.9269
 4262SOL    HW213686   5.874   3.922   4.471 -2.1206 -0.4846  0.2526
 4263SOL     OW13687   3.413   6.654   4.302  0.1206  0.0275  0.2982
 4263SOL    HW113688   3.447   6.638   4.395 -1.3232  1.2104  1.0781
 4263SOL    HW213689   3.322   6.695   4.306 -0.6054 -1.2096 -1.6817
 4264SOL     OW13690   2.687   2.603   5.774 -0.4462 -0.1238  0.2058
 4264SOL    HW113691   2.667   2.553   5.689  1.1588 -1.9257  0.8114
 4264SOL    HW213692   2.739   2.686   5.752  1.6663 -1.5565 -0.5011
 4265SOL     OW13693   1.529   5.432   3.363  0.2451  0.0198  0.3645
 4265SOL    HW113694   1.629   5.436   3.352  0.1438  0.2685 -0.5441
 4265SOL    HW213695   1.495   5.522   3.388  0.3198 -0.2272  1.3787
 4266SOL     OW13696   2.175   0.235   6.186  0.7833  0.1010  0.0353
 4266SOL    HW113697   2.191   0.138   6.206  0.6725  0.0300 -0.2254
 4266SOL    HW213698   2.201   0.255   6.092  0.4394  0.2373 -0.0328
 4267SOL     OW13699   1.820   4.329   3.666  0.0396  0.3617  0.0644
 4267SOL    HW113700   1.779   4.401   3.722  0.0229  1.6331 -1.5168
 4267SOL    HW213701   1.902   4.294   3.711 -0.2130  1.0321  1.0699
 4268SOL     OW13702   0.025   5.836   1.515 -0.1588  0.0964  0.8846
 4268SOL    HW113703  -0.059   5.889   1.529 -0.2858  0.1703 -0.0699
 4268SOL    HW213704   0.100   5.878   1.567 -0.4774  0.6350  0.9208
 4269SOL     OW13705   0.875   5.035   2.859  0.4612  0.2782  0.2842
 4269SOL    HW113706   0.799   5.082   2.905  1.4513  2.4584 -0.1637
 4269SOL    HW213707   0.956   5.039   2.917  1.5584  2.5060 -1.2506
 4270SOL     OW13708   1.592   2.982   3.261  0.5647 -0.4182 -0.1850
 4270SOL    HW113709   1.575   3.046   3.186 -0.2637  1.6242  1.6503
 4270SOL    HW213710   1.537   2.899   3.247 -2.8168  1.5856  0.1289
 4271SOL     OW13711   1.122   1.891   1.342  0.3086 -0.8611  0.3171
 4271SOL    HW113712   1.084   1.812   1.391  1.9239 -0.8764  1.5926
 4271SOL    HW213713   1.214   1.869   1.310  0.5346  0.3104  0.1403
 4272SOL     OW13714   0.803   3.006   6.168  0.3942  0.0138  0.1416
 4272SOL    HW113715   0.761   3.013   6.258  0.1594  2.2234 -0.0662
 4272SOL    HW213716   0.892   2.962   6.175  0.4047  0.2161  1.4775
 4273SOL     OW13717   2.212   3.661   6.572 -0.0486  0.2809  0.3952
 4273SOL    HW113718   2.215   3.720   6.652  0.0874  1.3338 -0.3668
 4273SOL    HW213719   2.300   3.665   6.524  0.4388 -1.5714  1.0218
 4274SOL     OW13720   5.198   0.085   0.113  0.4263  0.2264  0.1035
 4274SOL    HW113721   5.206   0.184   0.102  0.1551  0.1348 -1.0349
 4274SOL    HW213722   5.266   0.039   0.056  0.3922 -0.2524  0.4438
 4275SOL     OW13723   3.281   1.740   5.977  0.2361 -0.1027 -0.3354
 4275SOL    HW113724   3.214   1.735   5.902 -0.4567 -2.1371  0.3336
 4275SOL    HW213725   3.341   1.819   5.964 -1.0334  0.6355 -2.0309
 4276SOL     OW13726   0.163   6.099   3.153 -0.2093  0.3692 -0.2880
 4276SOL    HW113727   0.197   6.105   3.247 -2.1109  1.2632  0.4112
 4276SOL    HW213728   0.106   6.017   3.144 -0.1637  0.3733 -0.6074
 4277SOL     OW13729   5.672   3.762   1.533  0.6192  0.0790 -0.4494
 4277SOL    HW113730   5.706   3.826   1.465  0.1858 -0.4262 -1.1552
 4277SOL    HW213731   5.658   3.673   1.491  1.6336 -0.6115  0.6223
 4278SOL     OW13732   0.242   4.896   6.451  0.2566 -0.2406 -0.2912
 4278SOL    HW113733   0.279   4.968   6.392 -0.5195 -0.2482 -0.8060
 4278SOL    HW213734   0.230   4.813   6.397 -0.9278 -0.1047 -0.2650
 4279SOL     OW13735   6.117   0.311   3.491  0.4340  0.0514  0.7203
 4279SOL    HW113736   6.167   0.395   3.511  1.1563 -0.2438  0.2258
 4279SOL    HW213737   6.140   0.242   3.560 -0.6480  0.4386  1.4934
 4280SOL     OW13738   2.924   2.258   1.409  0.0121  0.0508  0.6955
 4280SOL    HW113739   2.867   2.300   1.338 -1.2969 -1.1433  0.9742
 4280SOL    HW213740   2.891   2.285   1.499  0.0239 -0.4641  0.8600
 4281SOL     OW13741   6.519   2.867   2.892 -0.2862 -0.2292  0.0442
 4281SOL    HW113742   6.538   2.801   2.819 -2.0821 -0.2315 -0.4692
 4281SOL    HW213743   6.478   2.820   2.970 -0.6425  0.1231  0.0757
 4282SOL     OW13744   2.757   6.379   0.796 -0.9407 -0.4057 -0.0859
 4282SOL    HW113745   2.853   6.360   0.776 -0.5960  0.2666  0.8504
 4282SOL    HW213746   2.744   6.477   0.810 -1.5104 -0.6130  0.9833
 4283SOL     OW13747   4.702   6.616   0.734 -0.3713  0.1626 -0.3937
 4283SOL    HW113748   4.632   6.661   0.790 -0.9987 -1.0485 -0.1736
 4283SOL    HW213749   4.780   6.591   0.791 -1.7689 -2.7365  0.4645
 4284SOL     OW13750   1.253   5.539   0.928  0.1921 -0.3350 -0.5446
 4284SOL    HW113751   1.229   5.465   0.991  1.1785  0.6521  1.0650
 4284SOL    HW213752   1.185   5.545   0.856 -0.5908 -1.9834  0.0091
 4285SOL     OW13753   0.217   0.509   2.743  0.8159  0.2911 -0.4931
 4285SOL    HW113754   0.182   0.603   2.742 -1.1298 -0.3908 -1.4338
 4285SOL    HW213755   0.287   0.499   2.673  0.5806  0.8764 -0.8195
 4286SOL     OW13756   6.174   4.688   0.553 -0.0791  1.0359 -0.3180
 4286SOL    HW113757   6.102   4.724   0.612 -0.8775  1.1249 -1.3053
 4286SOL    HW213758   6.134   4.622   0.489  1.0575 -0.3537  0.3488
 4287SOL     OW13759   3.904   0.310   3.570 -0.7292  1.0266 -0.2893
 4287SOL    HW113760   3.942   0.394   3.532 -1.2963  0.9871 -0.9564
 4287SOL    HW213761   3.827   0.333   3.630  0.5146  1.1349  1.3501
 4288SOL     OW13762   1.311   4.581   2.543  0.5575 -0.1540  0.2553
 4288SOL    HW113763   1.307   4.499   2.485  1.0697 -0.4655  0.6472
 4288SOL    HW213764   1.400   4.625   2.533  0.6859 -0.2595  0.8617
 4289SOL     OW13765   4.930   1.435   4.566  0.5137  0.1177 -0.6184
 4289SOL    HW113766   4.932   1.371   4.643  0.7188  2.3872  1.4068
 4289SOL    HW213767   4.880   1.394   4.490 -0.2124 -2.0356  0.9128
 4290SOL     OW13768   4.561   0.350   1.483  0.0630  0.0192 -0.1785
 4290SOL    HW113769   4.626   0.379   1.554 -1.4588 -0.2893  1.4289
 4290SOL    HW213770   4.583   0.257   1.454  0.6276  0.0988 -0.0163
 4291SOL     OW13771   1.104   5.880   5.758 -0.0344 -0.1321 -0.0184
 4291SOL    HW113772   1.009   5.892   5.786  0.5985  2.5672  1.2855
 4291SOL    HW213773   1.148   5.969   5.751  2.5228 -1.3268 -0.2588
 4292SOL     OW13774   4.245   0.807   5.659 -0.7063  0.0022  0.2422
 4292SOL    HW113775   4.176   0.880   5.659 -0.0766  0.6465 -1.5561
 4292SOL    HW213776   4.334   0.845   5.681 -0.2750 -0.0949 -1.2566
 4293SOL     OW13777   4.953   4.147   1.061  0.0183  0.2807 -0.3329
 4293SOL    HW113778   5.029   4.091   1.027 -0.6521 -0.9035  0.0587
 4293SOL    HW213779   4.935   4.124   1.157 -0.1527  1.3303 -0.0997
 4294SOL     OW13780   4.419   1.635   4.749  0.2486 -0.2368 -0.9456
 4294SOL    HW113781   4.421   1.728   4.785  1.2703 -0.6897  0.2046
 4294SOL    HW213782   4.444   1.636   4.652  0.7610  0.6204 -0.8046
 4295SOL     OW13783   1.659   5.562   5.479  0.3450  0.1816 -0.3170
 4295SOL    HW113784   1.681   5.623   5.555 -2.9599 -0.4011  1.3116
 4295SOL    HW213785   1.695   5.471   5.498 -1.3824 -0.2483  1.2463
 4296SOL     OW13786   0.705   0.801   0.750  0.3565 -0.0400 -0.6781
 4296SOL    HW113787   0.613   0.841   0.757  0.5773  0.3907 -0.1979
 4296SOL    HW213788   0.702   0.724   0.687 -0.8262 -1.4243  0.9820
 4297SOL     OW13789   5.622   2.214   3.198  0.2868 -0.2137 -0.2006
 4297SOL    HW113790   5.607   2.296   3.143  0.5235 -0.3300 -0.4478
 4297SOL    HW213791   5.554   2.145   3.174  0.6898 -0.4409 -0.7110
 4298SOL     OW13792   1.317   2.233   3.520 -0.2047 -0.3069 -0.5602
 4298SOL    HW113793   1.394   2.285   3.483  1.5736 -1.1183  1.7596
 4298SOL    HW213794   1.252   2.295   3.563  0.4087  0.2151 -0.3760
 4299SOL     OW13795   2.284   6.982   0.384  0.0955  0.1054  0.3151
 4299SOL    HW113796   2.330   7.009   0.299 -0.1881 -0.5228 -0.0452
 4299SOL    HW213797   2.210   7.047   0.404  1.4010  1.3944  1.1476
 4300SOL     OW13798   1.123   0.910   2.569  0.2460 -0.1686  0.0595
 4300SOL    HW113799   1.195   0.887   2.505  0.7715  0.0305  0.5701
 4300SOL    HW213800   1.133   0.854   2.652  1.5987  1.8639  1.3689
 4301SOL     OW13801   5.086   6.024   3.004 -0.0755 -0.0660 -0.0824
 4301SOL    HW113802   5.036   6.037   3.090 -0.5578 -0.5602 -0.2792
 4301SOL    HW213803   5.151   6.099   2.991  0.0467 -0.0141  0.7424
 4302SOL     OW13804   0.639   5.038   5.930 -0.7705 -0.2798 -0.2251
 4302SOL    HW113805   0.607   4.944   5.920  0.8600 -0.9277  0.4166
 4302SOL    HW213806   0.585   5.098   5.870 -0.6566 -1.8725 -2.0223
 4303SOL     OW13807   5.629   4.881   0.532  0.3117  0.6713 -0.3413
 4303SOL    HW113808   5.712   4.877   0.476 -0.1024 -0.3279 -0.8991
 4303SOL    HW213809   5.655   4.887   0.629  1.0240  0.9206 -0.5418
 4304SOL     OW13810   3.552   2.333   6.127  0.0637  0.1897 -0.0155
 4304SOL    HW113811   3.535   2.349   6.030 -0.2551  2.4722  0.3629
 4304SOL    HW213812   3.496   2.256   6.159  0.1297 -0.5480 -1.6052
 4305SOL     OW13813   3.463   6.209   6.602  0.3208  0.1611 -0.5082
 4305SOL    HW113814   3.494   6.163   6.685 -0.5571 -0.1561 -0.3425
 4305SOL    HW213815   3.506   6.167   6.522 -0.4316 -0.9451 -0.3571
 4306SOL     OW13816   0.374   1.054   5.919 -0.2260 -0.2145  0.1255
 4306SOL    HW113817   0.450   1.081   5.858  0.3395  0.0564  0.9348
 4306SOL    HW213818   0.292   1.107   5.894  0.2502  0.5765  0.1944
 4307SOL     OW13819   4.315   4.603   1.389  0.0286  0.6699  0.6102
 4307SOL    HW113820   4.296   4.548   1.309 -0.4650  0.3203  0.9613
 4307SOL    HW213821   4.410   4.589   1.418  0.3512  1.1747 -0.1959
 4308SOL     OW13822   0.612   6.218   4.338  0.4421  0.0241 -0.5231
 4308SOL    HW113823   0.627   6.182   4.246  0.6361  1.7328 -1.1872
 4308SOL    HW213824   0.698   6.253   4.375  0.2020  0.0910 -0.0078
 4309SOL     OW13825   1.135   6.805   2.204 -0.4450  0.0271 -0.3763
 4309SOL    HW113826   1.214   6.759   2.163  0.0564 -1.2631  1.8545
 4309SOL    HW213827   1.054   6.790   2.147  0.3445 -1.0812 -1.2500
 4310SOL     OW13828   1.342   2.426   0.602  0.7545  0.0482  0.0445
 4310SOL    HW113829   1.380   2.495   0.663 -0.8354  0.6608  0.3802
 4310SOL    HW213830   1.407   2.408   0.528  1.3347  1.6622  0.1252
 4311SOL     OW13831   3.214   1.007   5.178  0.4410 -0.0263 -0.4091
 4311SOL    HW113832   3.207   1.064   5.260  3.1654  1.4656 -1.0825
 4311SOL    HW213833   3.233   0.913   5.204  0.0589  0.1944  0.6951
 4312SOL     OW13834   2.450   5.529   0.621  0.3175 -0.4005  0.6224
 4312SOL    HW113835   2.520   5.554   0.687  0.0318  1.8573  0.1608
 4312SOL    HW213836   2.361   5.565   0.650  0.3855  1.7462 -1.4697
 4313SOL     OW13837   0.032   0.293   6.439  0.1345 -0.2205 -0.0663
 4313SOL    HW113838   0.012   0.244   6.354 -0.8855  1.6671 -0.9686
 4313SOL    HW213839   0.079   0.231   6.503 -2.3140 -2.7881 -0.5561
 4314SOL     OW13840   6.358   4.416   6.079  0.0485  0.0594  0.3030
 4314SOL    HW113841   6.383   4.496   6.133 -2.9799  2.1799 -1.1727
 4314SOL    HW213842   6.272   4.377   6.114 -0.1685 -0.6063 -0.9060
 4315SOL     OW13843   3.661   6.989   0.194 -0.4947  0.3789 -0.0659
 4315SOL    HW113844   3.674   6.891   0.210  1.4533  0.4835 -0.7138
 4315SOL    HW213845   3.588   7.023   0.252  0.7425 -0.8668  2.3678
 4316SOL     OW13846   6.004   1.506   4.990  0.3881 -0.2404 -0.1933
 4316SOL    HW113847   5.978   1.444   5.063 -0.3596 -1.0432 -1.1092
 4316SOL    HW213848   6.103   1.503   4.977  0.3723 -1.1674 -0.1568
 4317SOL     OW13849   1.233   0.519   2.931 -0.3235 -0.2069 -0.7518
 4317SOL    HW113850   1.332   0.507   2.930 -0.4173 -1.2685  0.3044
 4317SOL    HW213851   1.206   0.576   3.008 -0.5085  0.5891 -1.3839
 4318SOL     OW13852   2.602   1.593   6.160  0.3159  0.3106 -0.4048
 4318SOL    HW113853   2.610   1.692   6.157  0.8286  0.2401 -1.9553
 4318SOL    HW213854   2.652   1.552   6.084  1.7059 -1.2631  1.2457
 4319SOL     OW13855   2.207   1.681   4.141  0.6532 -0.6061  0.5672
 4319SOL    HW113856   2.186   1.683   4.239  0.8368  0.3950  0.5941
 4319SOL    HW213857   2.257   1.597   4.119  0.4278 -0.9350  1.2915
 4320SOL     OW13858   1.856   3.865   2.045 -0.2360  0.1614 -0.0890
 4320SOL    HW113859   1.874   3.881   1.948  0.7832  2.1439  0.3680
 4320SOL    HW213860   1.935   3.819   2.086 -1.1557 -1.7692 -0.4058
 4321SOL     OW13861   1.234   1.222   0.759 -0.1930 -0.2968 -0.2507
 4321SOL    HW113862   1.332   1.229   0.778 -0.4444 -0.7770  1.3442
 4321SOL    HW213863   1.184   1.280   0.822 -0.9489 -0.0355 -1.0757
 4322SOL     OW13864   0.814   2.142   6.181  0.1943  0.0233 -1.0058
 4322SOL    HW113865   0.734   2.191   6.147  0.1640  0.7921  0.1181
 4322SOL    HW213866   0.875   2.121   6.105  0.3643  2.1013 -1.4971
 4323SOL     OW13867   4.240   0.879   2.637 -0.2018  0.9328  0.3186
 4323SOL    HW113868   4.337   0.871   2.613 -0.6215  0.3993 -1.4104
 4323SOL    HW213869   4.231   0.898   2.734  1.5908 -0.2874  0.7756
 4324SOL     OW13870   1.743   3.759   4.793 -0.1370  0.0461  0.0524
 4324SOL    HW113871   1.839   3.785   4.805 -0.1934  0.3059 -0.0664
 4324SOL    HW213872   1.738   3.662   4.770  0.2392  0.4901 -2.0716
 4325SOL     OW13873   0.992   0.853   3.919  0.4467 -0.0867  0.0789
 4325SOL    HW113874   1.052   0.857   3.999 -0.9192 -0.9510  1.1997
 4325SOL    HW213875   0.899   0.831   3.949 -0.5868  1.8063 -1.5325
 4326SOL     OW13876   0.569   4.832   4.029 -0.0430 -0.0401  0.6523
 4326SOL    HW113877   0.596   4.810   3.935 -0.9417  2.6704 -0.3567
 4326SOL    HW213878   0.607   4.764   4.092  1.9549 -1.0557 -1.4894
 4327SOL     OW13879   0.104   3.170   0.347 -0.1691 -0.0579  0.3970
 4327SOL    HW113880   0.188   3.224   0.340 -0.8688  0.9848 -0.3271
 4327SOL    HW213881   0.068   3.153   0.255  0.6541 -2.8365  0.4982
 4328SOL     OW13882   6.862   0.794   1.457 -0.0519  0.4520 -0.0775
 4328SOL    HW113883   6.816   0.708   1.434 -0.4411  0.4063  0.8334
 4328SOL    HW213884   6.808   0.871   1.422 -0.0998  0.3570 -0.2169
 4329SOL     OW13885   6.332   6.241   1.497 -0.1707 -0.0578  0.1611
 4329SOL    HW113886   6.301   6.208   1.408  1.4935  0.1447 -0.5226
 4329SOL    HW213887   6.393   6.320   1.484  0.5941 -0.4104  1.4362
 4330SOL     OW13888   6.448   6.640   3.954  0.0419 -0.6641  0.4363
 4330SOL    HW113889   6.487   6.712   4.011  0.2625  0.2366 -0.8053
 4330SOL    HW213890   6.520   6.594   3.903 -0.4115  0.7347 -1.5593
 4331SOL     OW13891   3.470   5.402   5.995  0.3984 -0.6352 -0.2107
 4331SOL    HW113892   3.500   5.435   6.085  2.9414 -0.3714 -1.0768
 4331SOL    HW213893   3.447   5.305   6.001  0.3118 -0.5694  0.7562
 4332SOL     OW13894   2.600   4.913   5.329  0.0065  0.0423 -0.8279
 4332SOL    HW113895   2.607   4.837   5.394  0.0571  0.0045 -0.8789
 4332SOL    HW213896   2.509   4.956   5.338 -0.1321 -0.2113 -1.0074
 4333SOL     OW13897   3.217   1.619   4.698  0.2571  0.0851 -0.1749
 4333SOL    HW113898   3.261   1.608   4.609 -0.2339 -0.0117 -0.4129
 4333SOL    HW213899   3.201   1.528   4.738 -3.6095 -0.2630 -2.0436
 4334SOL     OW13900   2.223   4.219   2.400  0.1253  0.3693 -0.7728
 4334SOL    HW113901   2.173   4.253   2.479 -2.0340  0.5281 -2.1119
 4334SOL    HW213902   2.298   4.160   2.430 -2.3190 -1.9133  1.4011
 4335SOL     OW13903   4.621   2.087   3.568  0.2755 -0.0151  0.2418
 4335SOL    HW113904   4.645   2.047   3.656 -1.4351 -1.0518  0.2849
 4335SOL    HW213905   4.680   2.165   3.549 -0.2044  1.1023  2.9527
 4336SOL     OW13906   5.926   0.912   0.650  0.1450  0.3212 -0.7407
 4336SOL    HW113907   5.886   1.002   0.633 -0.5425  0.2516  0.3989
 4336SOL    HW213908   5.853   0.845   0.667  0.5959 -0.6751 -2.4404
 4337SOL     OW13909   2.204   0.401   0.616 -0.3093  0.0859  0.2024
 4337SOL    HW113910   2.239   0.343   0.689  2.6493 -1.2651 -2.0579
 4337SOL    HW213911   2.222   0.497   0.638 -1.1336 -0.1282  1.9793
 4338SOL     OW13912   3.510   3.584   4.777  0.1088  0.6898 -0.2194
 4338SOL    HW113913   3.436   3.517   4.780 -0.3492  1.1370 -1.3124
 4338SOL    HW213914   3.526   3.612   4.683  1.0062  1.3363  0.1187
 4339SOL     OW13915   6.533   5.678   4.868 -0.4512  0.5243 -0.1362
 4339SOL    HW113916   6.581   5.731   4.938 -0.3281  0.4864 -0.1932
 4339SOL    HW213917   6.437   5.708   4.864 -0.6243  0.0790  0.5067
 4340SOL     OW13918   5.971   2.517   5.982 -0.4420  0.3248 -0.1709
 4340SOL    HW113919   5.998   2.570   6.062 -0.0534  0.4575 -0.3870
 4340SOL    HW213920   5.915   2.439   6.010  1.0861 -0.6085  0.4105
 4341SOL     OW13921   0.020   0.440   0.363  0.0772  0.0883  0.1633
 4341SOL    HW113922  -0.038   0.521   0.360  1.0823  0.8077 -0.8226
 4341SOL    HW213923   0.098   0.453   0.302  0.2529 -1.6404 -0.0369
 4342SOL     OW13924   0.817   3.611   6.146 -0.1979 -0.3572  0.9328
 4342SOL    HW113925   0.909   3.583   6.118 -0.4192 -0.8726  0.6948
 4342SOL    HW213926   0.760   3.530   6.158 -1.5093 -0.0137 -2.0003
 4343SOL     OW13927   5.280   4.640   6.895  0.0209 -0.0365 -0.6294
 4343SOL    HW113928   5.373   4.674   6.889 -0.0332  0.0349 -1.0535
 4343SOL    HW213929   5.231   4.688   6.968 -0.3051  1.3681 -1.7408
 4344SOL     OW13930   0.057   0.166   1.499 -0.9290 -0.1646 -0.0172
 4344SOL    HW113931  -0.002   0.243   1.520  0.6017  0.9735  0.2993
 4344SOL    HW213932   0.140   0.171   1.555  0.2157 -0.7845 -1.5757
 4345SOL     OW13933   1.359   6.243   4.208  0.6275 -0.5689 -0.1597
 4345SOL    HW113934   1.328   6.338   4.214  1.3637 -0.2067 -1.7344
 4345SOL    HW213935   1.304   6.187   4.270  1.0642  1.0649  1.8279
 4346SOL     OW13936   0.206   4.654   2.009  0.1992 -0.3040 -0.4295
 4346SOL    HW113937   0.192   4.682   1.914  0.4242  2.8036  0.3500
 4346SOL    HW213938   0.118   4.636   2.053 -0.0471  0.2889 -0.6792
 4347SOL     OW13939   1.151   6.191   6.422  0.1985  0.0776 -0.6226
 4347SOL    HW113940   1.219   6.219   6.354  0.8256  0.8634  0.3004
 4347SOL    HW213941   1.080   6.136   6.378  2.9785 -3.4540 -1.1629
 4348SOL     OW13942   2.223   0.309   5.261 -0.0114 -0.0082  0.0597
 4348SOL    HW113943   2.318   0.325   5.232 -0.2285  2.2793  0.4512
 4348SOL    HW213944   2.161   0.340   5.190 -0.5037 -1.0048  0.0380
 4349SOL     OW13945   3.445   3.474   2.778  0.2375 -0.2543  0.2359
 4349SOL    HW113946   3.473   3.564   2.744  0.2557 -0.0805  0.7060
 4349SOL    HW213947   3.365   3.443   2.727  0.5771 -0.2326 -0.3192
 4350SOL     OW13948   5.005   6.665   5.807  0.4295 -0.4431  0.8158
 4350SOL    HW113949   4.934   6.681   5.877  0.8444 -0.3936  1.2290
 4350SOL    HW213950   5.030   6.569   5.807 -0.4413 -0.6811 -0.1113
 4351SOL     OW13951   4.287   0.032   1.693  0.0117  0.6164 -0.2163
 4351SOL    HW113952   4.206   0.090   1.703  0.5650  1.3125  0.2850
 4351SOL    HW213953   4.369   0.089   1.686  0.5549 -0.1038  0.1590
 4352SOL     OW13954   1.290   6.105   2.379  0.2189  0.1861 -0.0458
 4352SOL    HW113955   1.318   6.192   2.339  1.0493  0.1148  0.3514
 4352SOL    HW213956   1.193   6.089   2.360 -0.8066  2.6471  2.3847
 4353SOL     OW13957   6.463   0.663   6.143 -0.2190 -0.4523  0.3373
 4353SOL    HW113958   6.541   0.600   6.153 -0.0410 -0.6200 -1.6386
 4353SOL    HW213959   6.383   0.611   6.112 -0.2233  0.1670 -0.7586
 4354SOL     OW13960   0.276   4.914   5.518  0.1944 -0.0129  0.1758
 4354SOL    HW113961   0.212   4.889   5.590  1.0187  1.1561  1.3694
 4354SOL    HW213962   0.369   4.891   5.546  0.9232  3.3851  1.0232
 4355SOL     OW13963   0.982   4.106   1.978 -0.6174  0.3410 -0.2239
 4355SOL    HW113964   0.955   4.183   2.036  2.1708  2.0257 -0.9731
 4355SOL    HW213965   0.984   4.022   2.033 -0.9011  1.3296  1.3541
 4356SOL     OW13966   6.579   6.430   2.816 -0.0826  0.4340  0.3920
 4356SOL    HW113967   6.586   6.506   2.752 -2.2905  1.6308  1.4277
 4356SOL    HW213968   6.661   6.427   2.874  0.0674  2.0476  0.3144
 4357SOL     OW13969   2.039   6.186   0.155  0.1195 -0.3491 -0.7784
 4357SOL    HW113970   2.045   6.226   0.063 -1.1415 -0.7841 -1.0684
 4357SOL    HW213971   1.944   6.187   0.186  0.4342 -0.8363  0.2462
 4358SOL     OW13972   0.958   0.372   6.584 -0.4245  0.2668  0.3157
 4358SOL    HW113973   0.898   0.366   6.664 -1.1788  3.7706  0.1762
 4358SOL    HW213974   0.943   0.460   6.539  1.1640 -0.9276 -2.7697
 4359SOL     OW13975   0.883   0.846   1.950  0.0559  0.5840  0.1898
 4359SOL    HW113976   0.854   0.776   1.885  3.0953  0.1012 -0.8141
 4359SOL    HW213977   0.820   0.848   2.027 -2.2250 -0.6125 -1.5197
 4360SOL     OW13978   7.014   4.145   0.958  0.3635  0.0852  0.4168
 4360SOL    HW113979   7.034   4.111   1.050  0.1987  0.1795  0.4893
 4360SOL    HW213980   6.944   4.088   0.916 -0.1503  0.5184  0.6642
 4361SOL     OW13981   1.108   0.237   1.637  0.2316 -0.5921  0.7109
 4361SOL    HW113982   1.063   0.191   1.713 -0.1139 -1.4980 -0.0318
 4361SOL    HW213983   1.039   0.275   1.575  0.5052 -0.7568  0.3053
 4362SOL     OW13984   1.080   2.289   6.997  0.2682 -0.0454  0.0701
 4362SOL    HW113985   1.078   2.211   6.935 -1.7236 -0.3662  0.4821
 4362SOL    HW213986   1.060   2.373   6.946  0.2751 -0.0789  0.0119
 4363SOL     OW13987   3.148   6.156   2.392 -0.2837 -0.2650 -0.3109
 4363SOL    HW113988   3.080   6.105   2.445 -0.0227  1.3208  1.7011
 4363SOL    HW213989   3.127   6.254   2.397  0.8475  0.0709 -1.6329
 4364SOL     OW13990   4.551   4.747   5.010 -0.1366  0.2935 -0.3310
 4364SOL    HW113991   4.621   4.748   4.939  0.4381  2.3254  0.1917
 4364SOL    HW213992   4.488   4.670   4.995  1.2554 -0.6240 -1.7192
 4365SOL     OW13993   0.073   5.786   4.065 -0.4275 -0.5536  0.3321
 4365SOL    HW113994   0.114   5.802   3.975 -0.5283  0.4386  0.4546
 4365SOL    HW213995  -0.023   5.813   4.064 -0.5105 -0.8290  0.6568
 4366SOL     OW13996   4.092   1.443   2.140  0.0225  0.5205 -0.0189
 4366SOL    HW113997   4.144   1.528   2.131 -0.1235  0.5341 -0.7877
 4366SOL    HW213998   4.078   1.423   2.237  0.0956  1.3452  0.1688
 4367SOL     OW13999   2.193   0.085   1.744 -0.0428 -0.0461 -0.2171
 4367SOL    HW114000   2.229   0.134   1.664 -0.6084 -0.6119 -0.8282
 4367SOL    HW214001   2.101   0.051   1.724  0.8518 -2.5799 -0.3385
 4368SOL     OW14002   4.333   4.915   0.581 -0.3984 -0.2456 -0.0108
 4368SOL    HW114003   4.262   4.845   0.581 -1.0759  0.3960  1.3420
 4368SOL    HW214004   4.291   5.005   0.594  0.6585  0.1346  0.9071
 4369SOL     OW14005   1.673   5.839   1.451 -0.3645 -0.0448 -0.0779
 4369SOL    HW114006   1.679   5.756   1.396 -1.1037 -1.7161  2.2158
 4369SOL    HW214007   1.722   5.825   1.538 -0.9968  1.7019  0.5982
 4370SOL     OW14008   3.390   3.939   4.476  0.2151 -0.0314 -0.0102
 4370SOL    HW114009   3.420   4.034   4.469  0.3948 -0.0937 -0.0953
 4370SOL    HW214010   3.414   3.904   4.567 -2.2431  0.8203  1.0502
 4371SOL     OW14011   5.179   0.754   5.507 -0.3960  0.3119 -0.6178
 4371SOL    HW114012   5.174   0.765   5.408 -0.1131 -1.2276 -0.8199
 4371SOL    HW214013   5.267   0.788   5.540 -0.6793  1.2724 -0.8144
 4372SOL     OW14014   6.561   6.702   3.572 -0.6099  0.1269 -0.3566
 4372SOL    HW114015   6.612   6.710   3.486  0.3345 -0.9177  0.0759
 4372SOL    HW214016   6.473   6.658   3.555 -0.0615 -0.8863 -0.6808
 4373SOL     OW14017   3.708   6.954   5.115  0.0074  0.5437  0.3039
 4373SOL    HW114018   3.638   6.997   5.058 -0.5321  0.3778  0.8395
 4373SOL    HW214019   3.787   6.932   5.058 -0.5431  0.3331 -0.3940
 4374SOL     OW14020   4.813   4.189   4.010 -0.1167  0.0890 -0.7829
 4374SOL    HW114021   4.822   4.139   4.095 -0.1615 -0.0617 -0.8675
 4374SOL    HW214022   4.877   4.153   3.942 -0.9326 -0.6041 -1.2008
 4375SOL     OW14023   3.721   6.711   6.356  0.3252  0.3254 -0.5013
 4375SOL    HW114024   3.701   6.779   6.285 -0.0289  1.9736  1.0908
 4375SOL    HW214025   3.805   6.736   6.404  0.8835 -1.0930 -0.6819
 4376SOL     OW14026   3.564   5.510   0.008 -0.0464  0.3064 -0.1655
 4376SOL    HW114027   3.530   5.478  -0.081  0.7592 -0.2768 -0.2713
 4376SOL    HW214028   3.583   5.431   0.066 -1.0883  0.6934  0.7396
 4377SOL     OW14029   4.443   2.461   4.929  0.7766 -0.4033  0.6482
 4377SOL    HW114030   4.359   2.416   4.961  1.4942  0.3970  4.0391
 4377SOL    HW214031   4.424   2.510   4.844 -2.6075  0.8625  1.9639
 4378SOL     OW14032   2.309   0.039   4.655 -0.1417  0.0166 -0.4738
 4378SOL    HW114033   2.215   0.075   4.659 -0.4709 -0.9504  1.7690
 4378SOL    HW214034   2.305  -0.060   4.641  0.6054  0.1208 -1.5017
 4379SOL     OW14035   4.489   6.199   3.084  0.2084  0.4509 -0.4555
 4379SOL    HW114036   4.427   6.137   3.132 -0.1098 -0.1175 -1.5833
 4379SOL    HW214037   4.576   6.152   3.066  0.1078  0.4561 -0.9671
 4380SOL     OW14038   3.341   3.576   2.293 -0.3751 -0.0965 -0.0102
 4380SOL    HW114039   3.311   3.502   2.353 -0.4120 -0.8055 -0.8704
 4380SOL    HW214040   3.289   3.659   2.312 -0.2302 -0.2467  1.0697
 4381SOL     OW14041   5.885   4.320   4.543 -0.0683  0.0718  0.5000
 4381SOL    HW114042   5.854   4.403   4.589  0.6546  0.6146  0.0344
 4381SOL    HW214043   5.947   4.345   4.469  0.8189 -0.9283  0.8899
 4382SOL     OW14044   6.074   5.875   0.395  0.4017  0.2663  0.1506
 4382SOL    HW114045   6.093   5.909   0.303  0.2619  0.7507  0.2981
 4382SOL    HW214046   6.076   5.952   0.460  0.6919 -0.0971  0.5790
 4383SOL     OW14047   5.784   6.510   3.988  0.1873 -0.1538 -0.0436
 4383SOL    HW114048   5.783   6.493   3.890 -1.8990  1.1139 -0.3189
 4383SOL    HW214049   5.722   6.445   4.034 -0.4770  0.5775  0.1233
 4384SOL     OW14050   4.334   6.100   4.368  0.2594  0.5883 -0.2324
 4384SOL    HW114051   4.239   6.105   4.399  0.5640 -1.1328  1.1504
 4384SOL    HW214052   4.337   6.059   4.276 -0.3032  0.0847 -0.0302
 4385SOL     OW14053   0.273   3.414   0.376  0.7809 -0.3296  0.1016
 4385SOL    HW114054   0.315   3.406   0.286  1.8961  0.1512  0.5601
 4385SOL    HW214055   0.321   3.356   0.441 -1.1534 -2.1175  0.0554
 4386SOL     OW14056   2.187   1.075   1.662  0.4269  0.7535 -0.0621
 4386SOL    HW114057   2.115   1.144   1.667 -0.8451 -0.3414 -2.0433
 4386SOL    HW214058   2.219   1.055   1.755 -2.0152  1.0801  0.9497
 4387SOL     OW14059   2.089   0.749   1.175  0.1886 -0.1888  0.0988
 4387SOL    HW114060   2.022   0.685   1.212  0.0470 -1.3498 -2.0286
 4387SOL    HW214061   2.182   0.715   1.193  0.1305 -0.5026 -0.1872
 4388SOL     OW14062   6.529   4.291   5.124 -0.4787 -0.0666  0.6114
 4388SOL    HW114063   6.436   4.282   5.158 -0.7494 -2.0652 -0.4917
 4388SOL    HW214064   6.570   4.374   5.161 -1.9049 -0.2982  2.9505
 4389SOL     OW14065   0.706   3.533   4.193 -0.0664 -0.5730  0.1615
 4389SOL    HW114066   0.673   3.444   4.225 -1.7229  0.6985  2.2993
 4389SOL    HW214067   0.643   3.569   4.123  1.1128 -1.4241 -1.3923
 4390SOL     OW14068   5.190   5.876   1.706 -0.1025 -0.1011 -0.0302
 4390SOL    HW114069   5.284   5.847   1.691  0.4825  2.8745 -3.9380
 4390SOL    HW214070   5.188   5.956   1.766  0.5113  2.1178 -2.7628
 4391SOL     OW14071   3.761   1.100   5.389  0.3510  0.6508 -0.9902
 4391SOL    HW114072   3.736   1.129   5.296 -0.0711 -0.6395 -1.2943
 4391SOL    HW214073   3.817   1.017   5.384 -0.6419 -0.1044 -0.0611
 4392SOL     OW14074   2.113   1.432   3.188  0.2768 -0.0388 -0.5539
 4392SOL    HW114075   2.062   1.346   3.183  0.4485 -0.0984 -1.4668
 4392SOL    HW214076   2.097   1.486   3.105  0.5937  0.5684 -0.2295
 4393SOL     OW14077   1.071   2.926   4.711 -0.1828  0.1585  0.4724
 4393SOL    HW114078   1.109   3.013   4.740  0.3601  0.1141 -0.0725
 4393SOL    HW214079   0.986   2.941   4.662 -0.0644  0.3857  0.3370
 4394SOL     OW14080   6.709   2.322   4.722 -0.4716 -0.4140 -0.6795
 4394SOL    HW114081   6.732   2.225   4.728 -0.6016 -0.4573 -0.8803
 4394SOL    HW214082   6.671   2.342   4.632  0.4650  0.0103 -0.9997
 4395SOL     OW14083   0.813   5.205   6.229  0.6394 -0.3120 -0.5523
 4395SOL    HW114084   0.823   5.143   6.150  1.6435  0.9150 -1.4352
 4395SOL    HW214085   0.716   5.227   6.242  0.1565 -2.7040  0.3254
 4396SOL     OW14086   4.477   3.645   6.963  0.0788 -0.1368  0.0227
 4396SOL    HW114087   4.424   3.729   6.949 -1.0282 -0.5350  1.5771
 4396SOL    HW214088   4.417   3.566   6.959  0.6155 -0.6416  1.2990
 4397SOL     OW14089   6.685   4.253   0.780  0.5514  0.2153  0.6605
 4397SOL    HW114090   6.729   4.167   0.805  1.9295  0.6952 -0.0283
 4397SOL    HW214091   6.606   4.268   0.839 -0.9407 -2.4757 -0.4605
 4398SOL     OW14092   5.440   6.472   1.331 -0.7049  0.5925  0.6661
 4398SOL    HW114093   5.374   6.453   1.404 -0.0035 -1.6902  0.7878
 4398SOL    HW214094   5.406   6.548   1.275 -5.0074 -2.1847 -1.0403
 4399SOL     OW14095   5.728   5.567   3.572 -0.5443  0.1412  0.4507
 4399SOL    HW114096   5.714   5.522   3.483 -0.9863  0.6423  0.2557
 4399SOL    HW214097   5.769   5.503   3.636 -1.3618 -0.6163  0.2479
 4400SOL     OW14098   0.642   0.586   4.829  0.0583 -0.6017 -0.1219
 4400SOL    HW114099   0.738   0.566   4.848  0.7173  2.6356  0.6970
 4400SOL    HW214100   0.594   0.603   4.915 -0.4907  0.5507 -0.6263
 4401SOL     OW14101   4.771   4.194   5.548  0.2941 -0.7445 -0.0254
 4401SOL    HW114102   4.782   4.110   5.600  0.3939 -1.1245 -0.6540
 4401SOL    HW214103   4.677   4.228   5.559 -0.7626 -2.6597 -2.2796
 4402SOL     OW14104   0.643   2.110   5.583  0.3937  0.1039  0.1543
 4402SOL    HW114105   0.551   2.128   5.549  0.2756 -0.3958  0.1875
 4402SOL    HW214106   0.664   2.171   5.659  0.7460  1.3855 -0.9434
 4403SOL     OW14107   5.954   2.762   3.055 -0.0561  0.1822  0.0575
 4403SOL    HW114108   5.856   2.750   3.038 -0.2185 -0.5598  1.3097
 4403SOL    HW214109   6.003   2.763   2.969 -0.9402 -1.7891 -0.5331
 4404SOL     OW14110   4.765   1.332   2.793  0.4056  0.0268  0.1382
 4404SOL    HW114111   4.858   1.304   2.818  0.3930  0.4603  0.6886
 4404SOL    HW214112   4.725   1.385   2.868 -0.3074 -0.2040 -0.0799
 4405SOL     OW14113   1.837   5.897   4.445  0.6921  0.0884 -0.1277
 4405SOL    HW114114   1.831   5.836   4.366 -0.2772  0.8514 -0.6564
 4405SOL    HW214115   1.918   5.953   4.438  1.9378 -1.5153  0.6642
 4406SOL     OW14116   5.574   5.895   3.501 -0.1331 -0.4820 -0.3029
 4406SOL    HW114117   5.507   5.898   3.575  0.4789 -0.3644  0.2667
 4406SOL    HW214118   5.546   5.828   3.432 -1.3158  0.2762 -0.5635
 4407SOL     OW14119   6.448   4.625   2.584 -0.1216 -0.3130  0.1717
 4407SOL    HW114120   6.409   4.676   2.507 -0.3162 -1.0912 -0.2561
 4407SOL    HW214121   6.521   4.565   2.551 -1.5830 -2.2042  0.2304
 4408SOL     OW14122   5.083   5.947   2.131  0.6694  0.1396 -0.2968
 4408SOL    HW114123   5.119   5.981   2.044 -0.0328  2.7452  0.3407
 4408SOL    HW214124   4.984   5.935   2.124  0.6934 -0.2215 -0.0399
 4409SOL     OW14125   3.181   2.853   0.292 -0.5240 -0.6133  0.2090
 4409SOL    HW114126   3.088   2.819   0.282 -0.7425  0.0930 -0.2717
 4409SOL    HW214127   3.246   2.779   0.274 -0.9902 -1.1341  0.6584
 4410SOL     OW14128   3.718   2.762   0.275  0.4734  0.4852 -0.2817
 4410SOL    HW114129   3.739   2.855   0.306  0.6023 -0.0336  1.2755
 4410SOL    HW214130   3.633   2.731   0.318 -0.6135  0.5507 -2.2632
 4411SOL     OW14131   3.286   6.676   6.516  0.6186 -0.0733  0.3862
 4411SOL    HW114132   3.228   6.597   6.492 -1.4022  1.1494  0.9783
 4411SOL    HW214133   3.253   6.757   6.468  1.6678  0.7347  0.9979
 4412SOL     OW14134   4.910   3.195   2.520  0.1819  0.4101  0.4422
 4412SOL    HW114135   4.978   3.122   2.515 -1.2667 -0.9741  0.2189
 4412SOL    HW214136   4.886   3.224   2.428 -1.4168 -0.9733  0.3778
 4413SOL     OW14137   4.846   5.641   4.093  0.0767 -0.2174  0.2828
 4413SOL    HW114138   4.761   5.678   4.055 -0.3991 -0.6305  0.9288
 4413SOL    HW214139   4.835   5.543   4.109  0.4874 -0.1622  0.9082
 4414SOL     OW14140   4.688   2.626   4.260 -0.1319  0.2124 -0.7481
 4414SOL    HW114141   4.610   2.565   4.263 -0.2408  0.3931  0.9204
 4414SOL    HW214142   4.767   2.578   4.222  1.0418 -2.5953  4.4055
 4415SOL     OW14143   5.676   0.260   1.255  0.3528 -0.8088  0.1885
 4415SOL    HW114144   5.583   0.294   1.240  0.5894  0.5986  1.6597
 4415SOL    HW214145   5.706   0.209   1.174 -2.3490 -2.9069  0.3821
 4416SOL     OW14146   5.201   1.725   2.391  0.0639  0.2389  0.4102
 4416SOL    HW114147   5.287   1.713   2.440 -1.0908  1.0674  2.8079
 4416SOL    HW214148   5.201   1.815   2.347  0.4014  0.2522  0.4308
 4417SOL     OW14149   4.886   6.263   3.105  0.2486 -0.8097 -0.8183
 4417SOL    HW114150   4.794   6.223   3.102 -0.4007  0.1385  2.2242
 4417SOL    HW214151   4.878   6.362   3.118  1.7395 -0.5893 -1.4771
 4418SOL     OW14152   4.452   4.947   3.965 -0.3354 -0.1816  0.5352
 4418SOL    HW114153   4.415   4.889   4.038  0.1181 -1.0736  0.0712
 4418SOL    HW214154   4.393   5.026   3.953 -2.1427 -1.5761 -0.2061
 4419SOL     OW14155   0.997   6.187   1.470 -0.2848  0.1010 -0.8908
 4419SOL    HW114156   1.055   6.110   1.444  0.2650  0.1569  0.0983
 4419SOL    HW214157   0.931   6.157   1.540  0.9182  0.8292  0.6222
 4420SOL     OW14158   5.068   4.120   2.839 -0.0617  0.1635 -0.0774
 4420SOL    HW114159   5.109   4.052   2.777 -1.0678 -0.7614  0.2449
 4420SOL    HW214160   4.979   4.088   2.870 -0.0958  1.1552  0.9297
 4421SOL     OW14161   4.319   0.673   2.434 -0.0932  0.3466 -0.3172
 4421SOL    HW114162   4.273   0.757   2.406  0.2711  1.6971  2.7515
 4421SOL    HW214163   4.405   0.696   2.479 -0.9945 -1.4547  2.5553
 4422SOL     OW14164   5.644   4.218   4.051  0.0082  0.5715  0.7556
 4422SOL    HW114165   5.733   4.172   4.040  0.2912  0.8652  1.7132
 4422SOL    HW214166   5.656   4.316   4.040  0.3086  0.8858  3.3802
 4423SOL     OW14167   2.658   5.209   2.919  0.0194  0.1631 -0.0037
 4423SOL    HW114168   2.647   5.224   3.018 -0.9013  0.4386 -0.1341
 4423SOL    HW214169   2.568   5.211   2.876  0.3472 -0.7252 -0.7465
 4424SOL     OW14170   3.649   2.294   6.525  0.0658 -0.3265  0.2762
 4424SOL    HW114171   3.599   2.278   6.610  0.1672 -0.3319  0.3355
 4424SOL    HW214172   3.609   2.372   6.477  0.5546  0.2358  0.7637
 4425SOL     OW14173   5.962   6.366   0.054 -0.3456 -0.1325 -0.2877
 4425SOL    HW114174   5.968   6.464   0.035 -1.0787 -0.1354 -0.5575
 4425SOL    HW214175   5.993   6.314  -0.026 -0.5511 -0.1257 -0.3712
 4426SOL     OW14176   3.330   1.308   2.934  0.2063  0.0033 -1.1689
 4426SOL    HW114177   3.310   1.243   3.008  0.7418 -0.6326 -1.5771
 4426SOL    HW214178   3.418   1.353   2.953 -0.2499  0.7550 -0.7938
 4427SOL     OW14179   0.181   5.245   1.548  0.1852 -0.3053  0.0281
 4427SOL    HW114180   0.122   5.263   1.469 -1.0817 -0.4351  0.9025
 4427SOL    HW214181   0.154   5.159   1.591 -0.0873  0.4216  1.3958
 4428SOL     OW14182   1.395   6.286   6.867  0.2525  1.0935  0.2978
 4428SOL    HW114183   1.371   6.213   6.803  2.0965  1.0558 -0.4101
 4428SOL    HW214184   1.377   6.375   6.825 -0.3933  1.0624  0.5020
 4429SOL     OW14185   1.448   3.731   5.587 -0.5277 -0.0572 -0.2878
 4429SOL    HW114186   1.529   3.786   5.569 -0.4214  0.0850  0.6078
 4429SOL    HW214187   1.396   3.720   5.502 -1.1288  2.3232 -0.2960
 4430SOL     OW14188   1.793   6.909   1.465 -0.4756  0.4778 -0.3287
 4430SOL    HW114189   1.832   6.821   1.439 -0.0927  0.5522 -0.0239
 4430SOL    HW214190   1.826   6.980   1.404 -1.0771  0.3561 -0.8039
 4431SOL     OW14191   5.459   3.832   0.070 -0.3809  0.2804 -0.1103
 4431SOL    HW114192   5.507   3.791  -0.007 -3.9628 -0.0107 -2.3877
 4431SOL    HW214193   5.448   3.930   0.054 -1.4024  0.1672 -0.1558
 4432SOL     OW14194   3.853   6.417   5.766 -0.0522 -0.1070 -0.5647
 4432SOL    HW114195   3.952   6.408   5.754 -0.0813  1.2725 -2.2440
 4432SOL    HW214196   3.830   6.513   5.780 -1.2883 -0.2079 -1.7705
 4433SOL     OW14197   6.485   0.014   6.122 -0.4868  0.2263  0.6638
 4433SOL    HW114198   6.485   0.007   6.022 -0.0081 -0.0862  0.6839
 4433SOL    HW214199   6.513   0.106   6.149 -0.0362  0.1348  0.5184
 4434SOL     OW14200   3.041   3.847   1.736  0.0932 -0.5662  0.0281
 4434SOL    HW114201   3.045   3.857   1.835  0.3717  0.9362 -0.1174
 4434SOL    HW214202   3.002   3.757   1.714 -1.3915 -0.3511  1.4973
 4435SOL     OW14203   5.057   2.469   5.114  0.6623 -0.1885 -0.4296
 4435SOL    HW114204   5.050   2.375   5.147 -0.5436 -0.0744 -0.3028
 4435SOL    HW214205   5.048   2.470   5.014 -1.0870 -0.0937 -0.3107
 4436SOL     OW14206   2.020   0.817   6.085  0.0146  0.1980 -0.0247
 4436SOL    HW114207   2.108   0.788   6.046 -0.3219  0.1304 -0.7486
 4436SOL    HW214208   1.947   0.759   6.049 -0.2891  0.0635  0.8069
 4437SOL     OW14209   3.651   1.874   2.913 -0.4388  0.1720 -0.0798
 4437SOL    HW114210   3.589   1.875   2.834  0.1997  0.8895 -0.5959
 4437SOL    HW214211   3.601   1.898   2.996 -0.8866  0.5209 -0.4485
 4438SOL     OW14212   0.102   2.390   0.145  0.8345  0.3140 -0.2026
 4438SOL    HW114213   0.024   2.372   0.085  0.7856 -0.4453  0.0793
 4438SOL    HW214214   0.185   2.398   0.091  0.5729  1.0634 -0.4988
 4439SOL     OW14215   4.582   5.869   0.585  0.1996  0.2040  0.3712
 4439SOL    HW114216   4.572   5.782   0.634 -0.9017 -0.7424 -1.4337
 4439SOL    HW214217   4.527   5.939   0.630 -0.0554 -0.3926  1.0030
 4440SOL     OW14218   5.111   4.460   1.149  0.7317 -0.3399 -0.0771
 4440SOL    HW114219   5.118   4.368   1.186  1.9398 -0.9052 -1.5935
 4440SOL    HW214220   5.014   4.485   1.142  0.4240 -0.9605  1.5388
 4441SOL     OW14221   0.793   5.956   3.435  0.0564  0.3181  0.3065
 4441SOL    HW114222   0.716   5.896   3.412 -0.7560  1.5763 -0.3592
 4441SOL    HW214223   0.853   5.966   3.356  1.2123 -1.0306  0.9584
 4442SOL     OW14224   1.919   4.693   1.767  0.0209 -0.5447  0.2507
 4442SOL    HW114225   1.857   4.770   1.755  1.5677  0.7888  0.3676
 4442SOL    HW214226   1.958   4.696   1.859  2.1295  0.1661 -0.6102
 4443SOL     OW14227   2.301   6.502   1.632 -0.2838  0.3057  0.4286
 4443SOL    HW114228   2.338   6.424   1.683  0.4745  0.4497  0.1104
 4443SOL    HW214229   2.230   6.470   1.569 -0.7080  0.0249  1.0430
 4444SOL     OW14230   4.856   6.049   4.184 -0.4037  0.0429  0.1819
 4444SOL    HW114231   4.944   6.049   4.137 -0.2679 -2.1407  0.3585
 4444SOL    HW214232   4.865   6.096   4.272  0.8579 -0.9902  0.6244
 4445SOL     OW14233   1.415   1.721   1.756  0.1672 -0.1068 -0.0047
 4445SOL    HW114234   1.363   1.697   1.839 -0.1517  0.1744 -0.1232
 4445SOL    HW214235   1.394   1.814   1.729 -0.4907 -0.5223 -0.9701
 4446SOL     OW14236   1.820   4.929   1.704  0.0271  0.6618 -0.1798
 4446SOL    HW114237   1.847   5.021   1.733  0.6409  1.0501 -1.8570
 4446SOL    HW214238   1.754   4.936   1.629  1.1169 -0.2393 -1.2506
 4447SOL     OW14239   3.179   2.436   6.266 -0.0224  0.2244  0.0838
 4447SOL    HW114240   3.107   2.479   6.320  0.5272  0.5093  0.6010
 4447SOL    HW214241   3.138   2.381   6.193 -0.7391  1.7573 -0.7169
 4448SOL     OW14242   3.023   5.482   0.303 -0.0482  0.1382  0.1579
 4448SOL    HW114243   2.944   5.421   0.307 -0.6566  0.8647 -0.3776
 4448SOL    HW214244   2.996   5.574   0.333  1.1539 -0.1087  2.1591
 4449SOL     OW14245   3.330   4.967   4.613 -0.2318  0.5193 -0.1225
 4449SOL    HW114246   3.321   4.935   4.518  0.6029 -1.9785  0.5828
 4449SOL    HW214247   3.382   5.052   4.614  1.7094 -0.5490 -1.7757
 4450SOL     OW14248   3.079   4.148   1.522 -0.3682 -0.0495 -0.0331
 4450SOL    HW114249   3.124   4.208   1.456 -0.9819 -0.8629 -1.2218
 4450SOL    HW214250   2.994   4.190   1.553 -0.5982 -0.1231 -0.5605
 4451SOL     OW14251   3.119   3.872   3.074 -0.3416 -0.4424  0.2386
 4451SOL    HW114252   3.028   3.842   3.104 -0.3562 -0.0928  0.5443
 4451SOL    HW214253   3.181   3.875   3.152 -1.1660  3.4758  0.9424
 4452SOL     OW14254   5.228   3.747   3.793  0.3607 -0.0249 -0.4434
 4452SOL    HW114255   5.308   3.714   3.842  0.9911  2.2665  0.1943
 4452SOL    HW214256   5.160   3.781   3.859 -0.7618 -1.0786 -1.0164
 4453SOL     OW14257   6.700   4.504   4.027 -0.1483  0.3788  0.6031
 4453SOL    HW114258   6.714   4.498   4.126  0.4277  0.4187  0.5231
 4453SOL    HW214259   6.639   4.430   3.998 -0.2891  0.3450  0.9823
 4454SOL     OW14260   2.048   3.898   0.299  0.3282  0.0015  0.7594
 4454SOL    HW114261   1.958   3.914   0.259 -0.1021  1.3268  2.1875
 4454SOL    HW214262   2.102   3.840   0.238 -1.0103  0.2885 -0.7362
 4455SOL     OW14263   2.624   5.675   3.450 -0.1894 -0.4824 -0.3620
 4455SOL    HW114264   2.670   5.605   3.395  1.6039  0.1131  0.2985
 4455SOL    HW214265   2.527   5.653   3.457  0.0614 -2.1205 -1.3512
 4456SOL     OW14266   2.224   4.047   3.422 -0.2775  0.3373 -0.4411
 4456SOL    HW114267   2.186   4.085   3.338  0.2832 -1.4121 -1.5391
 4456SOL    HW214268   2.291   3.976   3.399 -0.1771 -0.2503  1.4942
 4457SOL     OW14269   2.181   0.001   3.748  0.3808  0.6413  0.6250
 4457SOL    HW114270   2.166   0.048   3.661  0.1366 -0.6822 -0.0720
 4457SOL    HW214271   2.175   0.067   3.823  2.4807  2.1990 -0.4610
 4458SOL     OW14272   4.335   5.201   4.209 -0.1283  0.1318  1.0111
 4458SOL    HW114273   4.434   5.202   4.202 -0.0849  2.5851  1.0734
 4458SOL    HW214274   4.295   5.193   4.118  0.0899 -1.3015  1.0219
 4459SOL     OW14275   1.163   5.110   2.299 -0.0165  0.4379  0.1120
 4459SOL    HW114276   1.166   5.179   2.227  2.7490  1.1407  0.7824
 4459SOL    HW214277   1.185   5.020   2.261 -1.2062  0.3214 -0.3367
 4460SOL     OW14278   2.473   0.738   1.506 -0.2225  0.2243  0.3525
 4460SOL    HW114279   2.508   0.681   1.431 -0.9848  0.1403  0.0470
 4460SOL    HW214280   2.543   0.803   1.534 -0.2412  0.9059 -1.0918
 4461SOL     OW14281   1.346   2.500   1.896 -0.4602 -0.2607 -0.1745
 4461SOL    HW114282   1.290   2.445   1.833 -2.1120  0.2818  0.7830
 4461SOL    HW214283   1.360   2.591   1.858  1.2058 -0.8663 -1.1616
 4462SOL     OW14284   2.353   0.412   1.433  0.0876 -0.1138 -0.0307
 4462SOL    HW114285   2.336   0.318   1.464  3.9693 -0.7145  0.8108
 4462SOL    HW214286   2.327   0.475   1.506  1.0097 -0.8737  0.9997
 4463SOL     OW14287   1.418   2.644   4.567 -0.7228  0.1625 -0.0418
 4463SOL    HW114288   1.378   2.721   4.618 -1.8852 -1.2787  1.3015
 4463SOL    HW214289   1.378   2.642   4.475 -4.0914 -1.3096  1.2842
 4464SOL     OW14290   5.061   0.082   3.162  0.4642  0.6468 -0.3269
 4464SOL    HW114291   5.123   0.121   3.230  1.1649  0.1443 -0.6678
 4464SOL    HW214292   5.111   0.017   3.104 -0.1796  0.8703 -1.1560
 4465SOL     OW14293   2.336   2.849   4.137 -0.1746  0.1544  0.0865
 4465SOL    HW114294   2.299   2.924   4.082 -2.8523 -0.7096  0.5149
 4465SOL    HW214295   2.320   2.868   4.234 -0.8280 -0.8975  0.2001
 4466SOL     OW14296   4.237   0.733   5.325 -0.3195 -0.0786 -0.2080
 4466SOL    HW114297   4.197   0.662   5.268 -1.7051  0.3518  0.1933
 4466SOL    HW214298   4.259   0.696   5.415 -0.4261 -0.1545 -0.2142
 4467SOL     OW14299   3.939   6.497   6.827 -0.1466 -0.0140 -0.9397
 4467SOL    HW114300   3.879   6.490   6.747 -2.9407  2.9676  0.6396
 4467SOL    HW214301   4.004   6.572   6.813  2.1910 -2.0963 -1.9166
 4468SOL     OW14302   4.319   3.104   0.279 -0.5504  0.3423 -0.5975
 4468SOL    HW114303   4.336   3.042   0.356  0.2483 -1.8162 -2.4231
 4468SOL    HW214304   4.222   3.099   0.254 -0.4194 -0.5238 -0.9814
 4469SOL     OW14305   5.664   2.448   5.122 -0.1044  0.1937  0.0484
 4469SOL    HW114306   5.714   2.481   5.203  0.5218  1.4708 -0.8306
 4469SOL    HW214307   5.595   2.381   5.151  2.0817 -1.6724  1.3335
 4470SOL     OW14308   2.329   1.728   2.980 -0.3579  0.0622  0.0267
 4470SOL    HW114309   2.335   1.779   2.894 -1.4523 -0.8335 -0.6071
 4470SOL    HW214310   2.410   1.746   3.035  1.9465 -1.6890 -2.5144
 4471SOL     OW14311   5.998   0.640   3.874  0.2748  0.2713  0.1419
 4471SOL    HW114312   6.095   0.620   3.861  0.0224  0.8217 -3.9618
 4471SOL    HW214313   5.943   0.561   3.847 -0.3904  1.6746 -3.2066
 4472SOL     OW14314   6.007   3.694   3.478 -0.2680  0.4727 -0.0889
 4472SOL    HW114315   5.960   3.616   3.519  0.0149  0.0951 -0.4711
 4472SOL    HW214316   5.945   3.773   3.474 -1.4344 -0.4763 -2.0908
 4473SOL     OW14317   3.164   4.823   0.924  0.7023 -0.3575 -0.0891
 4473SOL    HW114318   3.135   4.759   0.852 -0.1543 -0.8877  0.7079
 4473SOL    HW214319   3.117   4.910   0.910  0.3686 -0.5277 -0.0537
 4474SOL     OW14320   5.366   3.417   6.799 -0.7807 -0.2271  0.3801
 4474SOL    HW114321   5.399   3.339   6.746  1.3100  0.8884 -0.0934
 4474SOL    HW214322   5.326   3.385   6.884  3.3783 -1.8023  2.0028
 4475SOL     OW14323   3.388   6.143   5.083 -0.0282 -0.2149 -0.5088
 4475SOL    HW114324   3.436   6.231   5.080 -0.6207  0.1825  1.0161
 4475SOL    HW214325   3.455   6.069   5.094  0.3869  0.1421 -0.5908
 4476SOL     OW14326   3.725   3.602   7.011 -0.0657 -0.0569 -0.2516
 4476SOL    HW114327   3.786   3.603   6.931  0.9936 -0.7248  0.5182
 4476SOL    HW214328   3.666   3.682   7.008  1.4788  1.1320 -0.5933
 4477SOL     OW14329   0.566   2.945   3.729 -0.4476  0.2607 -0.2260
 4477SOL    HW114330   0.479   2.975   3.690 -0.0064  4.4187  1.4709
 4477SOL    HW214331   0.551   2.914   3.822 -0.1769  0.7383 -0.0204
 4478SOL     OW14332   4.031   3.668   3.961  0.1299 -0.0342 -0.8307
 4478SOL    HW114333   4.053   3.663   3.863  0.6941 -0.4506 -0.6843
 4478SOL    HW214334   4.079   3.595   4.010  0.5164  0.6917 -0.1121
 4479SOL     OW14335   0.644   0.807   3.004  0.2067 -0.3865 -0.2493
 4479SOL    HW114336   0.741   0.829   3.002  0.1668 -0.0335  0.9257
 4479SOL    HW214337   0.612   0.785   2.911  0.9902  1.2654 -0.9404
 4480SOL     OW14338   4.501   5.168   1.445  0.0139 -0.1893  0.4030
 4480SOL    HW114339   4.407   5.201   1.437 -0.4784 -1.9115 -1.8546
 4480SOL    HW214340   4.560   5.223   1.387  0.0584 -0.3283  0.3178
 4481SOL     OW14341   5.808   1.209   4.707 -0.7587  0.1353 -0.8136
 4481SOL    HW114342   5.842   1.160   4.787 -1.8072 -0.2363 -0.5712
 4481SOL    HW214343   5.724   1.259   4.732 -0.0192  1.6313 -1.1917
 4482SOL     OW14344   0.420   1.686   2.855 -0.3751 -0.4187 -0.5405
 4482SOL    HW114345   0.492   1.670   2.787  0.1598 -0.8524  0.1191
 4482SOL    HW214346   0.454   1.664   2.946 -1.5264 -1.2028 -0.2741
 4483SOL     OW14347   5.528   4.506   1.139  0.0357 -0.6028 -0.2936
 4483SOL    HW114348   5.566   4.416   1.116 -2.8315 -1.6639 -1.4317
 4483SOL    HW214349   5.496   4.551   1.056 -1.3713  0.0581  0.5580
 4484SOL     OW14350   5.860   3.109   5.902 -0.3543  0.0252  0.1640
 4484SOL    HW114351   5.790   3.125   5.971 -0.6976 -2.2385  0.3858
 4484SOL    HW214352   5.829   3.039   5.838  1.7982 -1.2221  0.4132
 4485SOL     OW14353   4.970   4.188   3.556 -0.0715 -0.3766  0.2586
 4485SOL    HW114354   4.958   4.248   3.635  0.2519 -0.4790  0.3873
 4485SOL    HW214355   5.054   4.213   3.508  0.0689 -0.7308  0.3187
 4486SOL     OW14356   4.173   4.280   0.167 -0.3654 -0.3563  0.7766
 4486SOL    HW114357   4.199   4.260   0.072  0.1312 -0.7996  1.0002
 4486SOL    HW214358   4.123   4.366   0.170 -1.0676 -0.7227  0.0103
 4487SOL     OW14359   0.812   6.959   3.519 -0.1991 -0.4730  0.3388
 4487SOL    HW114360   0.714   6.973   3.512 -0.5561 -2.3309  0.9532
 4487SOL    HW214361   0.830   6.872   3.566  1.7325 -0.3841 -0.1442
 4488SOL     OW14362   5.471   5.487   2.678 -0.0745 -0.0671 -0.5555
 4488SOL    HW114363   5.419   5.424   2.737 -1.0449  0.2367 -1.0595
 4488SOL    HW214364   5.410   5.559   2.646  1.3227  1.9614  1.1012
 4489SOL     OW14365   0.701   5.517   6.265 -0.5115 -0.3468  0.1304
 4489SOL    HW114366   0.619   5.460   6.275 -0.5676 -0.1863  0.5911
 4489SOL    HW214367   0.772   5.485   6.327  0.3050 -1.3998 -1.3031
 4490SOL     OW14368   3.260   0.751   0.131 -0.6509 -0.0364  0.1525
 4490SOL    HW114369   3.171   0.790   0.105 -0.4983  0.2152  0.0039
 4490SOL    HW214370   3.250   0.699   0.216 -0.6061  1.3798  1.0596
 4491SOL     OW14371   3.708   3.664   1.839  0.2238  0.2835 -0.1697
 4491SOL    HW114372   3.690   3.762   1.842 -2.8509 -0.1636 -0.7794
 4491SOL    HW214373   3.624   3.614   1.857  1.7556 -2.2908  0.3799
 4492SOL     OW14374   2.590   5.267   3.178  0.0836 -0.0907 -0.2345
 4492SOL    HW114375   2.632   5.336   3.236 -1.1868  1.0390 -0.5949
 4492SOL    HW214376   2.494   5.291   3.162 -1.0349 -3.0668  1.3589
 4493SOL     OW14377   5.783   4.150   6.660 -0.1461  0.2000  0.7486
 4493SOL    HW114378   5.740   4.235   6.628  0.3366 -0.0129 -0.5376
 4493SOL    HW214379   5.872   4.171   6.700 -0.2008  0.3396  0.7988
 4494SOL     OW14380   3.321   1.342   3.958 -0.6332  0.1279 -0.4690
 4494SOL    HW114381   3.299   1.277   3.885 -0.2681 -0.2542 -0.2447
 4494SOL    HW214382   3.291   1.434   3.931 -2.1484 -0.3093 -0.3107
 4495SOL     OW14383   1.519   5.073   4.372  0.1131  0.1171 -0.9862
 4495SOL    HW114384   1.617   5.066   4.388 -0.0987  1.7446  1.6508
 4495SOL    HW214385   1.470   5.020   4.441 -0.8441  3.0996  0.8055
 4496SOL     OW14386   4.323   5.044   4.805  0.3870 -0.4608  0.2221
 4496SOL    HW114387   4.259   4.967   4.802 -0.0475 -0.0841 -0.4627
 4496SOL    HW214388   4.395   5.025   4.872 -0.0718 -1.1785  0.5241
 4497SOL     OW14389   3.991   2.513   0.950 -0.0956  0.0062  0.2965
 4497SOL    HW114390   4.083   2.475   0.940 -1.3149 -2.6697 -2.5711
 4497SOL    HW214391   3.972   2.574   0.873 -0.9461 -0.0307  0.4684
 4498SOL     OW14392   6.069   4.731   1.126  0.2539  0.3063  0.0951
 4498SOL    HW114393   6.124   4.674   1.187 -0.0658 -0.0302  0.0689
 4498SOL    HW214394   6.015   4.794   1.181  1.4486  1.3827  0.0952
 4499SOL     OW14395   6.972   2.349   1.741  0.4560 -0.7459  0.2566
 4499SOL    HW114396   6.952   2.376   1.647  0.2286  0.5068  0.6458
 4499SOL    HW214397   7.067   2.373   1.762  0.6925 -1.5791  0.1643
 4500SOL     OW14398   1.250   6.415   1.510 -0.4634  0.4884 -0.0754
 4500SOL    HW114399   1.286   6.354   1.581  0.0777  0.9515  0.0555
 4500SOL    HW214400   1.179   6.474   1.550  0.0817  0.9884  0.1821
 4501SOL     OW14401   4.039   3.900   4.105 -0.3489 -0.4980 -0.2706
 4501SOL    HW114402   4.042   3.828   4.036  2.8674 -1.4203  0.6627
 4501SOL    HW214403   4.073   3.865   4.192 -0.6857  1.6413  0.8118
 4502SOL     OW14404   2.846   6.736   6.978  0.4569  0.3342  0.0469
 4502SOL    HW114405   2.773   6.801   6.958 -1.0460 -1.4858 -0.7365
 4502SOL    HW214406   2.911   6.735   6.902 -1.7282 -1.8653 -2.0189
 4503SOL     OW14407   3.749   4.769   0.514  0.2377  0.1255  0.5643
 4503SOL    HW114408   3.714   4.676   0.515  2.0667 -0.6115  1.4053
 4503SOL    HW214409   3.678   4.832   0.544 -0.5196 -1.2109  1.6708
 4504SOL     OW14410   2.930   3.677   2.806  0.1008  0.1316 -0.0041
 4504SOL    HW114411   2.943   3.663   2.708  0.2512  0.7711 -0.0804
 4504SOL    HW214412   2.925   3.775   2.825  1.6638  0.0785  0.8305
 4505SOL     OW14413   2.732   5.356   6.305  0.8180  0.2360 -0.1807
 4505SOL    HW114414   2.771   5.428   6.363  0.8092  0.5551 -0.5738
 4505SOL    HW214415   2.691   5.396   6.224  1.5182 -0.2725 -0.7942
 4506SOL     OW14416   0.113   1.117   2.140  0.8318  0.3496 -0.2376
 4506SOL    HW114417   0.079   1.205   2.173  0.3823  0.9731 -2.2445
 4506SOL    HW214418   0.201   1.131   2.095  1.0802 -0.3642  0.0094
 4507SOL     OW14419   0.874   5.978   5.273  0.1301  0.1637 -0.6271
 4507SOL    HW114420   0.789   6.004   5.226  0.9869  2.3062 -1.1135
 4507SOL    HW214421   0.952   6.007   5.218  1.2483 -2.6428 -0.6551
 4508SOL     OW14422   0.611   2.934   6.360 -0.2906  0.1690  0.0825
 4508SOL    HW114423   0.595   2.965   6.454  1.0857 -2.8597  1.4258
 4508SOL    HW214424   0.523   2.924   6.314 -1.0543  0.8249  1.3329
 4509SOL     OW14425   6.532   2.882   3.219  0.4597 -0.1401  0.2994
 4509SOL    HW114426   6.480   2.846   3.296  1.3667 -0.9949  0.5261
 4509SOL    HW214427   6.572   2.970   3.245 -1.0475  0.6725  0.0303
 4510SOL     OW14428   2.211   4.828   6.005 -0.7948 -0.1840 -0.4207
 4510SOL    HW114429   2.308   4.850   5.989 -0.1771  0.9060  3.6654
 4510SOL    HW214430   2.202   4.780   6.092 -3.9578 -0.6695 -0.9142
 4511SOL     OW14431   0.080   2.667   1.895  0.2144 -0.3319  0.9313
 4511SOL    HW114432  -0.006   2.623   1.871 -0.3583  0.0736  2.1987
 4511SOL    HW214433   0.110   2.637   1.985  0.5762  0.7323  1.1889
 4512SOL     OW14434   5.602   3.224   0.743 -0.3646 -0.4218  0.6855
 4512SOL    HW114435   5.636   3.130   0.751  0.2141 -0.2630  0.1335
 4512SOL    HW214436   5.616   3.256   0.650 -0.8617  0.1036  0.7902
 4513SOL     OW14437   1.923   2.473   1.421  0.3586  0.7905  0.7358
 4513SOL    HW114438   1.963   2.394   1.374 -0.5929 -0.9488  2.6874
 4513SOL    HW214439   1.996   2.526   1.464  0.9560  0.6359 -0.0537
 4514SOL     OW14440   3.545   2.071   1.807 -0.4807 -0.6098  0.0914
 4514SOL    HW114441   3.546   2.122   1.721 -0.2679 -1.3245 -0.3423
 4514SOL    HW214442   3.621   2.100   1.865 -0.4039 -0.3902 -0.1200
 4515SOL     OW14443   3.036   4.996   3.347 -1.0260 -0.0787 -0.1899
 4515SOL    HW114444   2.963   5.062   3.328 -1.9488 -0.0818  2.8326
 4515SOL    HW214445   2.996   4.913   3.386  0.5170 -0.4648  0.6522
 4516SOL     OW14446   0.174   0.351   0.585  0.4981  0.0442 -0.0129
 4516SOL    HW114447   0.126   0.419   0.530  1.4428  0.0510 -0.8594
 4516SOL    HW214448   0.199   0.273   0.528  0.5563 -0.4350  0.6540
 4517SOL     OW14449   1.103   4.321   4.455  0.3146 -0.2391  0.3279
 4517SOL    HW114450   1.090   4.282   4.364 -0.2474  1.1287 -0.2049
 4517SOL    HW214451   1.077   4.254   4.524  0.7078 -1.2845 -0.5039
 4518SOL     OW14452   3.923   0.423   4.389  0.2792 -0.4306 -0.1524
 4518SOL    HW114453   4.001   0.474   4.353 -0.1854 -0.7668 -1.7064
 4518SOL    HW214454   3.854   0.487   4.422 -0.9185  0.1268 -3.3745
 4519SOL     OW14455   4.909   5.243   1.840  0.0575 -0.5677  0.0858
 4519SOL    HW114456   4.880   5.329   1.798  0.0644 -0.3837  0.4488
 4519SOL    HW214457   4.847   5.170   1.813 -1.0239 -0.0969  1.1868
 4520SOL     OW14458   4.068   1.095   1.875  0.4783  0.8331  0.1353
 4520SOL    HW114459   4.117   1.114   1.959  2.0122 -0.4694 -0.4016
 4520SOL    HW214460   4.047   0.997   1.870  0.6010  0.8499 -1.0795
 4521SOL     OW14461   2.559   4.831   2.480  0.0472  0.0320 -0.5204
 4521SOL    HW114462   2.491   4.860   2.412  2.0274  0.8773 -2.2801
 4521SOL    HW214463   2.650   4.841   2.441  1.2661 -0.0449  2.1243
 4522SOL     OW14464   4.851   1.194   6.571 -0.0200  0.1555  0.4377
 4522SOL    HW114465   4.780   1.250   6.530  0.4545  1.5371  1.4119
 4522SOL    HW214466   4.810   1.129   6.634 -0.6020 -0.8181 -0.8958
 4523SOL     OW14467   3.509   1.809   0.171  0.2607 -0.0782  0.7237
 4523SOL    HW114468   3.490   1.710   0.172  2.0398 -0.4483  1.0853
 4523SOL    HW214469   3.605   1.825   0.196  0.1187  1.7286  0.2455
 4524SOL     OW14470   2.539   0.767   0.320  0.3846 -0.1132  0.4462
 4524SOL    HW114471   2.574   0.732   0.233  2.8107 -1.2245  1.7708
 4524SOL    HW214472   2.572   0.861   0.332 -2.8811  1.4319 -1.3151
 4525SOL     OW14473   5.871   2.273   1.312  0.2697  0.6506  0.2430
 4525SOL    HW114474   5.954   2.249   1.263  0.8322  0.4924  1.2519
 4525SOL    HW214475   5.893   2.300   1.406 -0.7813  0.9132  0.4362
 4526SOL     OW14476   0.882   0.721   6.740  0.5173  0.0138  0.4371
 4526SOL    HW114477   0.912   0.817   6.739  1.2184 -0.2020 -1.2604
 4526SOL    HW214478   0.783   0.718   6.724  0.5581  0.4362  0.0710
 4527SOL     OW14479   0.313   2.848   5.346 -0.3755  0.2187  0.1240
 4527SOL    HW114480   0.285   2.944   5.342  1.3723  0.7548  0.0801
 4527SOL    HW214481   0.338   2.817   5.254  0.8426  0.3022  0.4092
 4528SOL     OW14482   2.432   6.407   4.989 -0.2331  0.3016  0.5689
 4528SOL    HW114483   2.385   6.489   4.955 -0.3396 -0.1635 -0.4713
 4528SOL    HW214484   2.365   6.337   5.010 -0.0478 -0.1892 -0.4304
 4529SOL     OW14485   4.083   4.268   1.592 -0.4547 -0.1244 -0.0921
 4529SOL    HW114486   4.013   4.215   1.639 -0.7822  0.3059 -0.0896
 4529SOL    HW214487   4.043   4.316   1.514 -0.0408 -0.3451 -0.4464
 4530SOL     OW14488   2.207   1.572   2.247  0.2607 -0.1825  0.4662
 4530SOL    HW114489   2.296   1.546   2.282  0.9859  1.4020 -0.0932
 4530SOL    HW214490   2.148   1.602   2.322  1.1120  1.2426  0.6062
 4531SOL     OW14491   5.855   0.635   5.455 -0.1442 -0.3380 -0.2331
 4531SOL    HW114492   5.856   0.668   5.550 -1.0113  0.4601 -0.4793
 4531SOL    HW214493   5.828   0.539   5.453  0.3466 -0.4912  0.3646
 4532SOL     OW14494   0.429   5.282   1.312  0.4125 -0.0408  0.1984
 4532SOL    HW114495   0.351   5.250   1.260  0.5830 -1.4545  0.7794
 4532SOL    HW214496   0.404   5.290   1.409  1.1595 -1.2135  0.5111
 4533SOL     OW14497   3.956   0.534   0.358 -0.3740 -0.6046  0.0046
 4533SOL    HW114498   3.856   0.538   0.359 -0.3893 -0.2175  1.8620
 4533SOL    HW214499   3.990   0.547   0.265 -2.0254 -0.2727 -0.5819
 4534SOL     OW14500   4.452   5.656   0.734 -0.5038  0.0210 -0.4335
 4534SOL    HW114501   4.398   5.694   0.810 -0.6167  0.0416 -0.5242
 4534SOL    HW214502   4.500   5.574   0.767  1.2991  1.3227  0.3066
 4535SOL     OW14503   5.794   5.224   6.536  0.3883 -0.5004  0.9605
 4535SOL    HW114504   5.707   5.175   6.523  0.0490  0.5597 -1.3663
 4535SOL    HW214505   5.845   5.182   6.611 -1.5782 -1.9329  1.5910
 4536SOL     OW14506   2.061   1.833   1.041 -0.0159  0.4067  0.2880
 4536SOL    HW114507   2.160   1.827   1.052 -0.0455  0.6100  0.7148
 4536SOL    HW214508   2.038   1.850   0.946  0.2843 -1.2550 -0.1222
 4537SOL     OW14509   2.493   5.978   3.038  0.1563  0.1009 -0.7865
 4537SOL    HW114510   2.477   6.076   3.024  1.4331  0.6847  1.3520
 4537SOL    HW214511   2.435   5.945   3.112  1.2409 -0.2317 -0.0663
 4538SOL     OW14512   3.779   0.808   0.503 -0.1712 -0.2847  0.1671
 4538SOL    HW114513   3.830   0.888   0.472  0.3409 -0.4829  0.5017
 4538SOL    HW214514   3.813   0.727   0.456  0.2973 -0.5185  0.9006
 4539SOL     OW14515   2.725   6.956   5.153  0.5541  0.1073  0.1305
 4539SOL    HW114516   2.687   6.892   5.220 -1.3605  1.0739  0.0229
 4539SOL    HW214517   2.817   6.926   5.127  0.6020 -1.3134  1.7757
 4540SOL     OW14518   3.611   3.355   5.205  0.6075  0.5763 -0.0118
 4540SOL    HW114519   3.644   3.262   5.216  1.1934  0.7975  0.1600
 4540SOL    HW214520   3.639   3.389   5.115  1.2632  0.9249  0.3163
 4541SOL     OW14521   5.925   1.553   0.262 -0.2046  0.3012 -0.4385
 4541SOL    HW114522   5.977   1.475   0.227 -0.2675  0.3335 -0.6074
 4541SOL    HW214523   5.980   1.636   0.255 -1.0717  0.7579 -2.7989
 4542SOL     OW14524   0.637   0.355   2.006 -0.7337 -1.0099 -0.3584
 4542SOL    HW114525   0.540   0.376   1.997 -0.2799  1.2007 -0.5296
 4542SOL    HW214526   0.676   0.336   1.916 -0.1684  2.3564 -0.9267
 4543SOL     OW14527   1.980   6.809   1.851  0.6127  0.1788  0.3479
 4543SOL    HW114528   1.934   6.821   1.939  0.7756  0.2274  0.4263
 4543SOL    HW214529   2.023   6.718   1.848  0.5406  0.1470  0.2883
 4544SOL     OW14530   1.116   1.630   0.586  0.1161 -0.7828  0.0207
 4544SOL    HW114531   1.161   1.688   0.654  0.4435 -1.3628  0.3065
 4544SOL    HW214532   1.025   1.604   0.619 -0.1911 -0.1099 -0.2853
 4545SOL     OW14533   2.733   6.939   0.974 -0.0110  0.3937  0.2465
 4545SOL    HW114534   2.720   7.032   0.937  0.8393  0.5521  0.3207
 4545SOL    HW214535   2.690   6.873   0.913 -1.7495  0.9216  0.8535
 4546SOL     OW14536   4.295   4.465   1.155 -0.0046  0.0586 -0.4637
 4546SOL    HW114537   4.264   4.370   1.146 -1.4362  0.5551 -1.1832
 4546SOL    HW214538   4.356   4.487   1.079  2.7826 -1.1183  1.3028
 4547SOL     OW14539   6.824   1.485   6.494  0.4496 -0.1452  0.4825
 4547SOL    HW114540   6.753   1.414   6.500  1.6326 -1.2761  3.5099
 4547SOL    HW214541   6.914   1.441   6.495  1.2064  1.3678  0.9586
 4548SOL     OW14542   2.204   0.956   5.642 -0.1793  0.1459 -0.7677
 4548SOL    HW114543   2.228   1.011   5.722 -1.0419  0.3365 -0.6367
 4548SOL    HW214544   2.151   0.876   5.671  2.3302 -1.6617 -0.7535
 4549SOL     OW14545   1.919   4.099   5.699 -0.0214 -0.7791 -0.6844
 4549SOL    HW114546   1.861   4.150   5.635  1.0535 -1.0841 -1.9306
 4549SOL    HW214547   1.986   4.046   5.648  1.1708 -0.6646  0.7095
 4550SOL     OW14548   4.887   5.414   2.929 -0.1521 -0.4825  0.4301
 4550SOL    HW114549   4.945   5.337   2.901 -0.7708 -0.7336 -0.2114
 4550SOL    HW214550   4.791   5.391   2.911 -0.2489  1.0130 -1.1776
 4551SOL     OW14551   3.291   1.083   0.960  0.0856 -0.1087 -0.1322
 4551SOL    HW114552   3.217   1.067   1.026 -0.1726 -3.0669 -1.0069
 4551SOL    HW214553   3.253   1.124   0.877 -0.3173 -0.1603  0.0210
 4552SOL     OW14554   0.051   1.643   6.237  0.0831 -0.3416  0.2223
 4552SOL    HW114555   0.078   1.696   6.156 -0.4333 -0.0276  0.2499
 4552SOL    HW214556  -0.024   1.690   6.283  0.1697 -0.6827  0.7108
 4553SOL     OW14557   4.004   3.825   3.320  0.0841 -0.3308  0.5410
 4553SOL    HW114558   4.032   3.859   3.410  1.5437 -0.6086  0.2125
 4553SOL    HW214559   3.976   3.902   3.262  1.9425  0.2088  0.2956
 4554SOL     OW14560   3.936   1.904   3.009  0.7504 -0.6117 -0.0061
 4554SOL    HW114561   3.994   1.824   2.993 -0.0808 -2.2408  3.8241
 4554SOL    HW214562   3.847   1.889   2.968  1.5131 -0.2293 -1.8791
 4555SOL     OW14563   0.081   0.774   4.037 -0.0488  0.2420  0.0992
 4555SOL    HW114564   0.092   0.859   4.088  2.2815 -0.6679  1.2877
 4555SOL    HW214565   0.135   0.779   3.953  0.5982 -0.2598  0.4761
 4556SOL     OW14566   2.227   6.648   1.377  0.3354  0.1908 -0.2870
 4556SOL    HW114567   2.296   6.710   1.414  0.7905 -1.3265  1.5607
 4556SOL    HW214568   2.263   6.555   1.376 -1.8130 -0.7349  1.2488
 4557SOL     OW14569   0.297   5.461   4.017 -0.4105 -0.2228  0.0036
 4557SOL    HW114570   0.281   5.479   4.114 -0.1996  0.0233 -0.0043
 4557SOL    HW214571   0.253   5.532   3.962 -0.4091 -0.2806 -0.0718
 4558SOL     OW14572   1.479   1.457   0.204 -0.9492 -0.1796 -0.1968
 4558SOL    HW114573   1.578   1.467   0.214 -0.6506 -0.9426 -1.9645
 4558SOL    HW214574   1.437   1.450   0.295  0.8485 -1.8979  0.5831
 4559SOL     OW14575   3.281   5.695   1.354  0.1966  0.2919  0.6120
 4559SOL    HW114576   3.299   5.688   1.256  1.1245  0.0225  0.7977
 4559SOL    HW214577   3.185   5.671   1.372  0.7476 -2.6502  0.1116
 4560SOL     OW14578   5.985   1.917   1.188 -0.5887  0.0445 -0.3308
 4560SOL    HW114579   6.083   1.908   1.205 -0.5832  0.8068  0.0993
 4560SOL    HW214580   5.935   1.903   1.274 -0.8825 -0.6302 -0.6051
 4561SOL     OW14581   0.003   6.286   3.075 -0.0692  0.3862 -0.4533
 4561SOL    HW114582   0.075   6.226   3.109  0.2347  0.2471 -1.3025
 4561SOL    HW214583  -0.076   6.282   3.136 -1.5162 -3.7137 -2.2229
 4562SOL     OW14584   4.923   3.182   5.909  0.1383 -0.2126 -0.2330
 4562SOL    HW114585   4.914   3.099   5.964  1.2121 -0.7257 -0.7901
 4562SOL    HW214586   4.904   3.262   5.966 -1.2080 -0.8446  0.2342
 4563SOL     OW14587   5.308   0.508   3.669  0.1896 -0.9909  0.1121
 4563SOL    HW114588   5.325   0.510   3.570  0.2912 -0.1452  0.1368
 4563SOL    HW214589   5.392   0.480   3.716  1.0472  1.4044  0.1178
 4564SOL     OW14590   2.182   5.234   6.653 -0.2846 -0.0969 -0.2915
 4564SOL    HW114591   2.091   5.202   6.681 -0.2364  0.2734  0.3074
 4564SOL    HW214592   2.196   5.327   6.686 -0.2101  0.3556 -1.5629
 4565SOL     OW14593   5.528   1.991   3.781 -0.2001  0.8487  0.1741
 4565SOL    HW114594   5.540   1.899   3.746 -0.3053 -0.4642  3.2871
 4565SOL    HW214595   5.440   2.027   3.751  0.5641  0.6842 -2.4651
 4566SOL     OW14596   1.761   5.711   0.213 -0.7024 -0.1707 -0.0703
 4566SOL    HW114597   1.848   5.722   0.165  0.6340 -1.1425  1.9910
 4566SOL    HW214598   1.726   5.619   0.198 -1.3276  0.1740 -0.7819
 4567SOL     OW14599   5.573   4.631   2.266  0.7076 -0.5112  0.0124
 4567SOL    HW114600   5.670   4.622   2.291  0.4977 -0.5817  0.8166
 4567SOL    HW214601   5.554   4.727   2.243  0.8562 -0.3974  0.3476
 4568SOL     OW14602   3.445   0.793   2.471  0.5633  0.1598 -0.3584
 4568SOL    HW114603   3.398   0.783   2.558 -0.9014  1.7136 -0.8967
 4568SOL    HW214604   3.479   0.704   2.440 -0.9384 -0.8180  0.6726
 4569SOL     OW14605   2.529   3.881   0.269 -0.0441  0.5829 -0.0302
 4569SOL    HW114606   2.581   3.825   0.333  0.1848  1.2433  0.3764
 4569SOL    HW214607   2.449   3.831   0.238 -1.4499  1.0808  2.5773
 4570SOL     OW14608   1.531   6.394   0.538  0.2423  0.4544 -0.0118
 4570SOL    HW114609   1.584   6.413   0.455  1.0965  0.1645  0.4580
 4570SOL    HW214610   1.434   6.393   0.516  0.4961 -0.2803 -1.1370
 4571SOL     OW14611   5.725   2.226   6.521 -0.0445 -0.6381  0.2824
 4571SOL    HW114612   5.709   2.139   6.568  0.4781 -1.2834 -0.7035
 4571SOL    HW214613   5.706   2.215   6.423 -2.2466  0.9777  0.4588
 4572SOL     OW14614   2.418   6.257   3.160  0.2435 -0.1482  0.0036
 4572SOL    HW114615   2.441   6.193   3.234  1.4292 -0.9558 -1.0226
 4572SOL    HW214616   2.501   6.306   3.133 -0.4731  1.1643  0.1400
 4573SOL     OW14617   6.276   5.205   2.313 -0.2655 -0.2491  0.0850
 4573SOL    HW114618   6.277   5.304   2.302 -3.5429 -0.0925  0.3352
 4573SOL    HW214619   6.268   5.161   2.224 -0.3028 -0.2135  0.0708
 4574SOL     OW14620   0.742   4.710   4.427 -0.4590  0.1061  0.7881
 4574SOL    HW114621   0.701   4.619   4.438  0.4572 -1.0022 -3.3502
 4574SOL    HW214622   0.836   4.708   4.459 -0.5541 -0.2759  1.0609
 4575SOL     OW14623   2.809   4.747   6.254 -0.0928  0.0013 -0.4926
 4575SOL    HW114624   2.751   4.697   6.319 -0.3364  1.0058  0.0806
 4575SOL    HW214625   2.837   4.685   6.181 -0.3578 -0.9857  0.2122
 4576SOL     OW14626   5.081   3.044   3.915 -0.4119 -0.0370  0.1000
 4576SOL    HW114627   5.179   3.051   3.893 -0.4909  0.2152 -0.1855
 4576SOL    HW214628   5.040   3.135   3.914 -0.7708 -0.1980 -0.3621
 4577SOL     OW14629   4.105   5.572   6.120  0.1488  0.3637  0.2681
 4577SOL    HW114630   4.045   5.651   6.108  0.2215  0.2182 -1.2077
 4577SOL    HW214631   4.057   5.490   6.089  1.1668  0.2805 -1.1785
 4578SOL     OW14632   1.304   3.220   3.528 -0.7538  0.4195  0.1773
 4578SOL    HW114633   1.391   3.205   3.576 -0.3221 -0.4493 -0.8390
 4578SOL    HW214634   1.276   3.316   3.538  0.3818  0.7415  0.4179
 4579SOL     OW14635   4.831   2.984   4.730 -0.1444 -0.6147  0.4837
 4579SOL    HW114636   4.842   3.074   4.771  0.1730  0.4538 -1.8054
 4579SOL    HW214637   4.812   2.917   4.802 -3.7378  1.7524  2.0177
 4580SOL     OW14638   5.416   5.157   4.617 -0.1369 -0.2398 -0.1378
 4580SOL    HW114639   5.507   5.118   4.622 -0.2073 -0.4382 -0.4172
 4580SOL    HW214640   5.350   5.086   4.592 -0.5419 -0.3662  1.2114
 4581SOL     OW14641   1.841   2.647   1.811  0.0853  0.3013 -0.5429
 4581SOL    HW114642   1.781   2.574   1.779  0.7250 -1.0672  1.2258
 4581SOL    HW214643   1.829   2.659   1.909  0.7674  1.8810 -0.6280
 4582SOL     OW14644   1.861   3.319   3.954  0.1324 -0.3257  0.0007
 4582SOL    HW114645   1.930   3.392   3.961  1.2462 -1.4513  1.2209
 4582SOL    HW214646   1.793   3.344   3.885  1.9491  0.6918 -1.5083
 4583SOL     OW14647   5.824   5.671   1.708  0.2323 -0.5913 -0.5514
 4583SOL    HW114648   5.913   5.666   1.663  0.5632  1.2100 -0.2014
 4583SOL    HW214649   5.775   5.585   1.695  1.7964 -1.4394 -1.1979
 4584SOL     OW14650   6.770   5.975   6.079  0.2955  0.1106 -0.0099
 4584SOL    HW114651   6.787   6.044   6.149  2.3868 -0.7379  0.3675
 4584SOL    HW214652   6.783   6.016   5.988  0.9518  0.3556  0.1916
 4585SOL     OW14653   5.683   3.690   4.448 -0.1594  0.0589 -0.1591
 4585SOL    HW114654   5.608   3.710   4.511 -0.6838  0.0014 -0.7618
 4585SOL    HW214655   5.763   3.745   4.474  0.1059 -1.0040  1.4290
 4586SOL     OW14656   5.974   5.021   1.485 -0.1562  0.6578  0.2608
 4586SOL    HW114657   5.892   5.004   1.538 -0.0428  1.8023  0.8447
 4586SOL    HW214658   6.054   4.987   1.534 -0.2669 -0.4454 -0.3019
 4587SOL     OW14659   2.154   6.447   3.406 -0.2701  0.0252  0.0754
 4587SOL    HW114660   2.127   6.353   3.389 -0.7205  0.2821 -0.6715
 4587SOL    HW214661   2.163   6.462   3.505 -0.4342 -0.7287  0.2088
 4588SOL     OW14662   1.660   0.619   0.409  0.8097 -0.1583 -0.0673
 4588SOL    HW114663   1.629   0.714   0.413  0.7666 -0.0207 -2.3389
 4588SOL    HW214664   1.622   0.575   0.328 -2.5124 -3.4080  2.9010
 4589SOL     OW14665   6.256   0.582   6.642 -0.2102 -0.3157 -0.9749
 4589SOL    HW114666   6.201   0.599   6.724  2.0016  0.1715  0.4948
 4589SOL    HW214667   6.298   0.492   6.647  1.5294  0.4845 -0.5650
 4590SOL     OW14668   0.992   6.635   1.368 -0.3762  0.2549  0.2771
 4590SOL    HW114669   0.924   6.570   1.402 -4.1659  3.1733 -1.0560
 4590SOL    HW214670   1.007   6.620   1.270 -0.8208  1.0087  0.0904
 4591SOL     OW14671   0.089   0.046   6.987 -0.2179 -0.1148  0.5648
 4591SOL    HW114672   0.093   0.095   7.074 -0.4949 -0.8259  0.9956
 4591SOL    HW214673   0.102  -0.052   7.004 -3.3369 -0.7166  0.2520
 4592SOL     OW14674   5.068   3.598   0.373  0.2328  0.4982  0.6207
 4592SOL    HW114675   4.992   3.659   0.352 -0.4252 -1.2776 -2.9665
 4592SOL    HW214676   5.155   3.647   0.360 -0.2703  0.8060 -2.2239
 4593SOL     OW14677   4.034   6.147   4.746  0.3122  0.2124 -0.3022
 4593SOL    HW114678   3.971   6.159   4.669 -3.1850 -2.9338  1.7102
 4593SOL    HW214679   4.103   6.078   4.723 -0.6375 -0.6254 -0.6855
 4594SOL     OW14680   6.715   6.105   3.325  0.2818 -0.4487 -0.4133
 4594SOL    HW114681   6.643   6.150   3.379  1.7919  1.9382 -0.2861
 4594SOL    HW214682   6.697   6.118   3.228  0.2046 -0.4047 -0.3934
 4595SOL     OW14683   6.829   0.629   6.732 -0.4163  0.0168 -0.0531
 4595SOL    HW114684   6.831   0.592   6.825 -1.2648  0.4761  0.1551
 4595SOL    HW214685   6.848   0.556   6.667  0.2380 -0.3000  0.4754
 4596SOL     OW14686   1.771   2.402   5.295 -0.6866 -0.4658  0.2213
 4596SOL    HW114687   1.690   2.346   5.312  0.0435 -1.2726  1.1621
 4596SOL    HW214688   1.756   2.494   5.330 -1.5299 -0.3362 -0.4511
 4597SOL     OW14689   0.361   0.117   6.882 -0.1718  0.5073  0.2342
 4597SOL    HW114690   0.271   0.103   6.922 -0.0848  1.9985  1.0115
 4597SOL    HW214691   0.371   0.060   6.800 -0.9244 -1.4490  1.4325
 4598SOL     OW14692   4.941   5.187   6.929  0.2953  0.5034 -0.0653
 4598SOL    HW114693   4.945   5.286   6.917 -0.8427  0.3656 -2.0939
 4598SOL    HW214694   4.900   5.146   6.848 -0.0290 -1.5682  1.0841
 4599SOL     OW14695   0.366   4.663   6.101 -0.1178  0.5002  0.4957
 4599SOL    HW114696   0.289   4.728   6.106 -1.0592 -0.4180 -1.1180
 4599SOL    HW214697   0.330   4.570   6.103  1.2036 -0.0137  2.5518
 4600SOL     OW14698   2.635   3.627   0.116 -0.1975 -0.2173 -0.4170
 4600SOL    HW114699   2.611   3.568   0.193  0.4323  0.3419  0.2161
 4600SOL    HW214700   2.577   3.708   0.118  0.4714  0.2566  0.0375
 4601SOL     OW14701   0.304   2.532   5.517 -0.6078 -0.4257  0.0749
 4601SOL    HW114702   0.285   2.451   5.573  0.0975  0.8677  2.3288
 4601SOL    HW214703   0.243   2.607   5.545  0.9620  0.7897  0.4263
 4602SOL     OW14704   3.039   2.561   6.493  0.3110  0.7482 -0.2691
 4602SOL    HW114705   3.102   2.598   6.561  1.6667 -1.1513 -0.4368
 4602SOL    HW214706   2.998   2.477   6.527  1.0865 -0.2912 -1.7992
 4603SOL     OW14707   3.314   5.881   1.900  0.6668 -0.1533 -0.8739
 4603SOL    HW114708   3.369   5.957   1.935  0.7722 -0.1574 -1.0327
 4603SOL    HW214709   3.256   5.846   1.974  1.5263 -0.7330 -0.4618
 4604SOL     OW14710   0.105   7.022   5.755  0.3100 -0.1881 -0.4531
 4604SOL    HW114711   0.192   6.984   5.725  0.6286 -1.0553  1.4107
 4604SOL    HW214712   0.122   7.103   5.810 -0.2757  1.5555 -2.6930
 4605SOL     OW14713   6.241   5.727   4.778  0.2088 -0.0353  0.0903
 4605SOL    HW114714   6.150   5.729   4.735 -0.0230  1.9431  0.5954
 4605SOL    HW214715   6.235   5.678   4.865 -0.7144  1.2105  0.7641
 4606SOL     OW14716   3.488   2.032   6.969 -0.7702 -0.1306 -0.6366
 4606SOL    HW114717   3.509   1.962   7.037 -1.1606  0.7380  0.4152
 4606SOL    HW214718   3.571   2.059   6.921 -0.4453 -0.5860 -0.3355
 4607SOL     OW14719   0.815   0.199   2.154 -0.6706  0.2243  0.3403
 4607SOL    HW114720   0.907   0.212   2.116 -0.9191  0.7619 -0.0988
 4607SOL    HW214721   0.749   0.248   2.097 -1.3301 -0.8127  0.1911
 4608SOL     OW14722   2.307   5.551   6.995 -0.0817  0.3219 -0.1999
 4608SOL    HW114723   2.366   5.625   7.030 -0.6181  0.5002  0.3510
 4608SOL    HW214724   2.351   5.463   7.013  0.1722  0.4663 -0.0940
 4609SOL     OW14725   2.764   5.338   6.798  0.0715  0.2558  0.0004
 4609SOL    HW114726   2.736   5.258   6.850  0.7356 -0.8328 -1.2623
 4609SOL    HW214727   2.692   5.407   6.802 -1.2343 -1.0388 -0.2108
 4610SOL     OW14728   5.732   4.693   5.796  0.2480  0.1336  0.1742
 4610SOL    HW114729   5.721   4.758   5.721  0.9741  0.6956  0.5421
 4610SOL    HW214730   5.736   4.742   5.883  1.3553 -0.3372  0.4135
 4611SOL     OW14731   6.119   5.426   0.440  0.1536 -0.0179 -0.3205
 4611SOL    HW114732   6.200   5.478   0.469  0.0041  0.6668 -1.0814
 4611SOL    HW214733   6.146   5.332   0.420  0.3550 -0.3939  1.4905
 4612SOL     OW14734   6.232   5.347   6.361  0.0461  0.2076  0.0350
 4612SOL    HW114735   6.150   5.295   6.336 -0.3138  1.5355 -1.7467
 4612SOL    HW214736   6.206   5.441   6.386  0.8354  0.0310  1.6641
 4613SOL     OW14737   3.472   2.927   0.495 -0.6940  0.8149  0.8177
 4613SOL    HW114738   3.510   2.998   0.435  0.1728 -1.0158 -0.9015
 4613SOL    HW214739   3.545   2.889   0.551 -0.6193 -0.3957 -0.0650
 4614SOL     OW14740   3.235   4.921   2.405  0.3266 -0.5839 -0.3260
 4614SOL    HW114741   3.305   4.870   2.356  1.7206 -0.0569  1.0159
 4614SOL    HW214742   3.170   4.960   2.340 -0.4211 -3.4243 -1.4482
 4615SOL     OW14743   4.258   4.273   6.194  0.2189  0.2149 -0.1073
 4615SOL    HW114744   4.266   4.371   6.210 -3.1722  0.7501 -1.0441
 4615SOL    HW214745   4.212   4.256   6.107 -0.5268 -2.1581  0.6573
 4616SOL     OW14746   6.852   3.145   2.654 -0.0850  0.1286  0.2450
 4616SOL    HW114747   6.790   3.203   2.601 -1.0046 -0.6629  0.4358
 4616SOL    HW214748   6.944   3.150   2.613 -0.9607 -1.2209 -2.0707
 4617SOL     OW14749   5.302   2.716   0.227  0.2903 -0.2713 -0.4915
 4617SOL    HW114750   5.224   2.690   0.285  1.2592 -1.6666  0.2412
 4617SOL    HW214751   5.294   2.671   0.138 -0.0521  0.0802 -0.6402
 4618SOL     OW14752   3.938   1.080   6.568 -0.2166  0.2837 -0.1707
 4618SOL    HW114753   3.896   1.105   6.481 -0.6708  0.9086  0.2182
 4618SOL    HW214754   3.966   0.984   6.565  2.7813  1.0909 -2.1763
 4619SOL     OW14755   4.595   0.395   4.938  0.6389  0.1539  0.6155
 4619SOL    HW114756   4.603   0.494   4.951 -0.5436  0.6195 -1.6746
 4619SOL    HW214757   4.637   0.370   4.851  0.4020 -1.2786  0.8960
 4620SOL     OW14758   2.570   1.768   2.741  0.1939  0.3111 -0.2159
 4620SOL    HW114759   2.520   1.764   2.655  0.7396  1.0506 -0.5871
 4620SOL    HW214760   2.625   1.685   2.752  1.4762  0.9495 -1.4511
 4621SOL     OW14761   1.093   5.642   0.097  0.1344  0.1231  0.0678
 4621SOL    HW114762   1.097   5.739   0.073  1.6129 -0.0450 -0.4592
 4621SOL    HW214763   1.119   5.631   0.193  0.8417  0.1856 -0.1069
 4622SOL     OW14764   0.566   2.875   3.397 -0.0938  0.2760 -0.0613
 4622SOL    HW114765   0.637   2.854   3.464 -0.4768 -0.3010  0.1711
 4622SOL    HW214766   0.525   2.964   3.419  1.0071  0.9406 -0.5994
 4623SOL     OW14767   3.526   1.255   0.918  0.1607  0.0302  0.6761
 4623SOL    HW114768   3.508   1.322   0.990  0.6244  0.3516  0.5021
 4623SOL    HW214769   3.451   1.190   0.913  0.0038  0.1610  1.2759
 4624SOL     OW14770   0.236   0.725   3.805  0.0997 -0.0674 -0.1676
 4624SOL    HW114771   0.334   0.720   3.786  0.0286  0.2702 -0.6411
 4624SOL    HW214772   0.188   0.757   3.723 -0.4369 -0.5054 -0.0310
 4625SOL     OW14773   5.726   2.220   4.789 -0.4322  0.4405  0.4907
 4625SOL    HW114774   5.786   2.226   4.869  0.4924 -1.2920 -0.0359
 4625SOL    HW214775   5.640   2.175   4.815 -0.6821  1.0702  0.7836
 4626SOL     OW14776   4.010   0.715   3.078 -0.3643 -0.1803 -0.1244
 4626SOL    HW114777   4.047   0.635   3.126 -0.0206  0.7350  1.1908
 4626SOL    HW214778   3.957   0.684   2.999 -0.6963 -1.7447  0.6540
 4627SOL     OW14779   0.733   2.286   4.930  0.8284 -0.8309  0.4787
 4627SOL    HW114780   0.647   2.321   4.968  1.3497  0.6912  0.3434
 4627SOL    HW214781   0.720   2.192   4.899 -0.6305 -0.8180  0.9611
 4628SOL     OW14782   5.525   3.060   6.370 -0.1416  0.8145  0.0579
 4628SOL    HW114783   5.563   2.983   6.420  2.3935  1.4613 -0.6845
 4628SOL    HW214784   5.433   3.038   6.339  0.5053 -1.9287 -0.1690
 4629SOL     OW14785   5.254   1.339   3.199 -0.5130 -0.3396  0.2624
 4629SOL    HW114786   5.208   1.257   3.232 -1.4287  0.0008 -0.1450
 4629SOL    HW214787   5.348   1.316   3.175 -1.1138 -1.5757 -1.0498
 4630SOL     OW14788   1.273   4.502   0.857  0.2470 -0.2801 -0.8802
 4630SOL    HW114789   1.316   4.523   0.945 -0.0897  0.4595 -0.8861
 4630SOL    HW214790   1.182   4.542   0.854  0.7850  0.9462 -2.1109
 4631SOL     OW14791   1.446   6.228   6.554 -0.4231  0.0602  0.1218
 4631SOL    HW114792   1.509   6.294   6.596 -0.3657 -0.3460  0.6845
 4631SOL    HW214793   1.412   6.265   6.467  0.4635  0.3495 -0.1092
 4632SOL     OW14794   2.778   4.364   0.642 -0.2331  0.3207  0.0565
 4632SOL    HW114795   2.715   4.340   0.568  0.8546  0.3501 -0.9102
 4632SOL    HW214796   2.727   4.403   0.718 -1.2412  1.7162 -1.2869
 4633SOL     OW14797   6.329   5.768   6.334  0.1738  0.3800  0.4295
 4633SOL    HW114798   6.406   5.816   6.375  1.3444  0.6133 -1.8880
 4633SOL    HW214799   6.361   5.687   6.284 -1.1268  0.1948 -0.1741
 4634SOL     OW14800   4.205   5.658   2.870  0.0029 -0.1902  0.2956
 4634SOL    HW114801   4.126   5.597   2.878 -1.4081  1.1354 -2.0577
 4634SOL    HW214802   4.254   5.637   2.785  0.2086  1.1123  0.0712
 4635SOL     OW14803   3.131   4.357   5.584 -0.8232  0.5088  0.0852
 4635SOL    HW114804   3.058   4.349   5.516 -0.6863  1.4009 -0.1741
 4635SOL    HW214805   3.096   4.332   5.674 -1.1778 -0.0386 -0.1962
 4636SOL     OW14806   3.105   1.591   4.280 -0.2493 -0.7574 -0.3905
 4636SOL    HW114807   3.090   1.619   4.185 -0.7530 -0.9284 -0.3657
 4636SOL    HW214808   3.018   1.595   4.330  0.3338  1.0863  0.5525
 4637SOL     OW14809   2.700   5.576   5.434  0.3869  0.3881  0.4537
 4637SOL    HW114810   2.621   5.571   5.373 -0.0592  0.1451  1.0537
 4637SOL    HW214811   2.674   5.548   5.526  1.1530  0.3832  0.6755
 4638SOL     OW14812   6.327   6.505   6.326 -0.8987  0.1462 -0.0263
 4638SOL    HW114813   6.274   6.580   6.364 -0.6724  1.1097 -1.4942
 4638SOL    HW214814   6.276   6.463   6.251 -1.4409 -1.8525  1.4056
 4639SOL     OW14815   1.412   0.812   2.793 -0.0856 -0.0938  0.4620
 4639SOL    HW114816   1.483   0.865   2.839 -0.0400 -0.9112  1.3644
 4639SOL    HW214817   1.454   0.737   2.742 -0.2978 -0.7423  1.2181
 4640SOL     OW14818   6.787   4.823   5.348 -0.1671  0.0669  0.6488
 4640SOL    HW114819   6.761   4.848   5.255  0.0746  2.3640  1.1463
 4640SOL    HW214820   6.864   4.759   5.346  0.2003  0.5322 -0.7050
 4641SOL     OW14821   2.298   6.952   6.669  0.1836  0.6160  0.4270
 4641SOL    HW114822   2.333   6.916   6.583  0.9451  0.2655  0.8688
 4641SOL    HW214823   2.374   6.984   6.725  0.0279 -1.6899  2.0994
 4642SOL     OW14824   3.510   1.388   4.386 -0.3342 -0.0967 -0.5888
 4642SOL    HW114825   3.495   1.317   4.317 -0.0948 -0.8183  0.0873
 4642SOL    HW214826   3.590   1.364   4.441 -0.1335  0.8065 -0.4760
 4643SOL     OW14827   6.310   1.105   0.592  0.3080 -0.1008 -0.3779
 4643SOL    HW114828   6.384   1.131   0.654  1.3702  2.2282 -2.4233
 4643SOL    HW214829   6.267   1.188   0.555  0.2074 -1.3369 -3.2450
 4644SOL     OW14830   0.421   0.644   5.223  0.2174  0.3471 -0.3870
 4644SOL    HW114831   0.428   0.742   5.202  0.2623  0.7881  1.5257
 4644SOL    HW214832   0.489   0.620   5.292 -0.6886 -0.7446  0.1569
 4645SOL     OW14833   1.129   6.865   0.103 -0.5902 -0.3712 -0.1570
 4645SOL    HW114834   1.112   6.842   0.199  0.6711 -1.7280 -0.2138
 4645SOL    HW214835   1.215   6.916   0.096 -0.2396 -1.0214 -0.6435
 4646SOL     OW14836   0.790   4.650   0.573  0.0497 -0.2353  0.7386
 4646SOL    HW114837   0.798   4.555   0.603  1.7808  0.1834  1.7301
 4646SOL    HW214838   0.799   4.654   0.473 -1.6727 -1.2491  0.5188
 4647SOL     OW14839   5.466   0.689   1.658 -0.0207 -0.4421  0.2328
 4647SOL    HW114840   5.509   0.716   1.744  1.7199  2.3887 -1.3453
 4647SOL    HW214841   5.518   0.615   1.616 -1.7793 -2.9798  2.1733
 4648SOL     OW14842   0.411   3.648   0.108  0.4664 -0.0449 -0.1529
 4648SOL    HW114843   0.371   3.737   0.134  2.4175  0.5923  0.8456
 4648SOL    HW214844   0.348   3.575   0.135  0.0797  0.9020  1.7174
 4649SOL     OW14845   1.391   0.338   1.040  0.3766  0.1460 -0.2568
 4649SOL    HW114846   1.413   0.324   0.944 -0.9573 -0.3135 -0.5203
 4649SOL    HW214847   1.399   0.435   1.063  0.1717  0.3409 -0.9818
 4650SOL     OW14848   6.201   1.261   5.030 -0.1490  0.2704  0.2574
 4650SOL    HW114849   6.245   1.345   4.999  1.4320  0.0313  1.6763
 4650SOL    HW214850   6.205   1.256   5.130 -0.8888 -1.1409  0.2526
 4651SOL     OW14851   0.667   6.011   0.275  0.0738 -0.3133 -0.1849
 4651SOL    HW114852   0.734   6.083   0.258  0.5408 -1.0842 -1.8391
 4651SOL    HW214853   0.712   5.932   0.315 -0.0972 -0.3499 -0.0637
 4652SOL     OW14854   5.531   0.730   5.510 -0.0199 -0.1977  0.0379
 4652SOL    HW114855   5.532   0.829   5.520  0.5552 -0.1427 -0.5183
 4652SOL    HW214856   5.500   0.705   5.419  0.2749 -0.5149  0.0222
 4653SOL     OW14857   4.471   6.651   0.891  0.3875  0.6424  0.2974
 4653SOL    HW114858   4.395   6.701   0.934  0.1360 -0.6281  1.4163
 4653SOL    HW214859   4.435   6.592   0.819  0.6009  1.5659 -0.5840
 4654SOL     OW14860   5.920   4.937   1.238 -0.1158  0.5747 -0.6450
 4654SOL    HW114861   5.920   4.997   1.158  0.0450  1.4856  0.0287
 4654SOL    HW214862   5.969   4.981   1.314 -0.5957 -0.1072  0.0802
 4655SOL     OW14863   0.679   2.208   5.858 -1.0101 -0.2360 -0.4027
 4655SOL    HW114864   0.654   2.258   5.942  1.3267  0.7367 -0.2009
 4655SOL    HW214865   0.662   2.111   5.871 -0.6076 -0.1187  1.2578
 4656SOL     OW14866   0.704   1.652   1.986  0.5580 -0.3941  0.1017
 4656SOL    HW114867   0.766   1.671   2.062  2.4730 -2.0681 -0.9439
 4656SOL    HW214868   0.610   1.673   2.013  1.3766  0.8009  2.2645
 4657SOL     OW14869   2.515   4.086   1.038  0.4423  0.1323  0.2861
 4657SOL    HW114870   2.493   4.015   1.106  0.5408  0.4554  0.6575
 4657SOL    HW214871   2.607   4.070   1.002  0.4840  0.0991  0.4069
 4658SOL     OW14872   5.962   5.597   6.206  0.1080  0.3093 -0.2915
 4658SOL    HW114873   6.026   5.612   6.281 -1.2757  2.8357  0.4957
 4658SOL    HW214874   5.895   5.528   6.232  0.9333 -0.4569 -0.1286
 4659SOL     OW14875   4.119   3.893   5.363  0.0101  0.4194 -0.1949
 4659SOL    HW114876   4.198   3.832   5.351 -0.9308 -1.0974  0.8998
 4659SOL    HW214877   4.082   3.918   5.274 -1.1061 -2.7312 -0.7310
 4660SOL     OW14878   4.294   2.374   3.521 -0.0899  0.0634  0.6478
 4660SOL    HW114879   4.197   2.378   3.542 -0.8103 -2.0748 -1.7672
 4660SOL    HW214880   4.307   2.341   3.427  2.9836 -0.4028  1.1172
 4661SOL     OW14881   3.797   1.956   3.821 -0.5724 -0.3425 -0.4388
 4661SOL    HW114882   3.760   2.014   3.747  2.9724 -0.3914 -2.4836
 4661SOL    HW214883   3.873   2.004   3.865  0.6016 -2.2627 -0.2641
 4662SOL     OW14884   6.332   4.269   3.294  0.4409  0.6251 -0.0529
 4662SOL    HW114885   6.332   4.206   3.371 -1.1052  2.1158  1.2339
 4662SOL    HW214886   6.271   4.235   3.222 -0.5622  0.7588  0.7283
 4663SOL     OW14887   3.706   4.092   5.167  0.0644  0.1446  0.2552
 4663SOL    HW114888   3.754   4.104   5.080 -0.2016  0.0743  0.0973
 4663SOL    HW214889   3.615   4.133   5.161 -0.1769 -0.3663  0.3066
 4664SOL     OW14890   6.822   4.394   1.412 -0.0869 -0.2132 -0.5589
 4664SOL    HW114891   6.916   4.428   1.423  0.2644 -1.7606  2.5005
 4664SOL    HW214892   6.771   4.455   1.353  2.4965  1.3781 -1.3228
 4665SOL     OW14893   1.554   3.043   4.965  0.6851  0.1925 -0.5553
 4665SOL    HW114894   1.597   2.994   4.889  0.2876 -0.7650 -0.1785
 4665SOL    HW214895   1.600   3.018   5.050  0.6420  0.6809 -0.3888
 4666SOL     OW14896   2.488   0.764   6.879  0.1621  0.4906 -0.0360
 4666SOL    HW114897   2.532   0.783   6.967  1.7147 -0.3868 -0.5851
 4666SOL    HW214898   2.455   0.670   6.877 -2.7318  1.3655  0.7124
 4667SOL     OW14899   5.948   3.770   1.073  1.0167  0.3743  0.2920
 4667SOL    HW114900   5.978   3.680   1.041  0.0122 -0.0998  0.6608
 4667SOL    HW214901   6.000   3.841   1.025  0.3000 -0.3417 -1.6388
 4668SOL     OW14902   1.936   1.693   0.403  0.5331 -0.3710 -0.5137
 4668SOL    HW114903   1.888   1.752   0.468  1.8608 -0.7634  0.8959
 4668SOL    HW214904   2.011   1.743   0.360  1.7594 -0.9891  0.7986
 4669SOL     OW14905   0.080   5.285   4.498 -0.0650 -0.6680 -0.3522
 4669SOL    HW114906   0.083   5.202   4.444 -0.3291 -1.1038  0.2943
 4669SOL    HW214907   0.162   5.290   4.555  0.5642  0.1408 -1.2828
 4670SOL     OW14908   0.823   1.254   3.758  0.7778  0.0702  0.0698
 4670SOL    HW114909   0.881   1.195   3.816 -0.0867  0.1410  1.0424
 4670SOL    HW214910   0.793   1.333   3.811  0.7652  0.6562 -0.7968
 4671SOL     OW14911   1.379   4.956   4.813 -0.0545  0.2515  0.7052
 4671SOL    HW114912   1.454   4.978   4.876 -2.5842  0.1836  4.0530
 4671SOL    HW214913   1.338   4.869   4.841 -1.3591  0.2638 -1.0765
 4672SOL     OW14914   1.774   6.068   2.362  0.2693 -0.1302 -0.6853
 4672SOL    HW114915   1.713   6.142   2.390  0.0506  0.0709 -1.6513
 4672SOL    HW214916   1.767   5.993   2.429  0.3463  0.6231  0.1905
 4673SOL     OW14917   3.689   0.885   2.213 -0.3154 -0.5145  0.2267
 4673SOL    HW114918   3.653   0.956   2.272  0.6429 -0.6313  0.9766
 4673SOL    HW214919   3.621   0.812   2.202 -1.6951  0.9326 -1.3569
 4674SOL     OW14920   1.292   6.420   0.963  0.1326 -0.1470 -0.5211
 4674SOL    HW114921   1.389   6.393   0.959 -0.0282 -0.6510 -1.0982
 4674SOL    HW214922   1.235   6.339   0.965 -0.2219  0.0927  2.5834
 4675SOL     OW14923   5.573   3.125   3.493  0.3235 -0.9702 -0.4568
 4675SOL    HW114924   5.663   3.158   3.467  1.0528 -1.6142  1.1561
 4675SOL    HW214925   5.570   3.025   3.485 -0.0250 -1.0147  0.1220
 4676SOL     OW14926   5.828   3.801   5.077  0.5619  0.2885 -0.4328
 4676SOL    HW114927   5.839   3.894   5.114 -1.1477  0.4794 -0.2930
 4676SOL    HW214928   5.844   3.802   4.979 -2.2191  1.4046 -0.9762
 4677SOL     OW14929   6.174   3.559   6.524  0.0960  0.0536 -0.0638
 4677SOL    HW114930   6.166   3.629   6.595  1.1149 -0.3007  0.4181
 4677SOL    HW214931   6.205   3.602   6.439 -2.0355  0.6375 -0.6094
 4678SOL     OW14932   4.995   1.205   0.828  0.0952  0.0668  0.8023
 4678SOL    HW114933   4.945   1.153   0.898  0.1644 -1.1803 -0.0322
 4678SOL    HW214934   5.092   1.181   0.832 -0.2126 -1.8941 -1.2029
 4679SOL     OW14935   6.396   0.899   0.089  0.1088 -0.4954  0.4072
 4679SOL    HW114936   6.327   0.930   0.154 -0.5418 -0.5882 -0.2207
 4679SOL    HW214937   6.402   0.800   0.092 -1.7400 -0.7280 -1.4093
 4680SOL     OW14938   5.036   4.391   2.808  0.4799 -0.1307 -0.2388
 4680SOL    HW114939   4.940   4.407   2.788  0.6132  0.6550 -0.2571
 4680SOL    HW214940   5.046   4.304   2.856 -0.2771 -0.0374  0.0949
 4681SOL     OW14941   0.501   4.729   3.533 -0.6641 -0.1224 -0.0254
 4681SOL    HW114942   0.482   4.639   3.570  0.0905  0.1619  1.1081
 4681SOL    HW214943   0.451   4.741   3.447  0.1963 -2.0720 -0.8549
 4682SOL     OW14944   6.804   2.125   6.384  0.4847 -0.9714  0.5599
 4682SOL    HW114945   6.885   2.111   6.441  0.4497 -0.2426  0.8014
 4682SOL    HW214946   6.832   2.134   6.289  0.5097 -2.5876  0.3866
 4683SOL     OW14947   0.755   4.835   1.129  0.3040  0.2520  0.6346
 4683SOL    HW114948   0.669   4.785   1.121  0.6597 -0.6111  1.9048
 4683SOL    HW214949   0.831   4.770   1.135  1.2863  0.9714 -2.1288
 4684SOL     OW14950   2.435   4.062   0.428 -0.0613 -0.3025 -0.8127
 4684SOL    HW114951   2.439   4.049   0.527 -1.0011  0.5679 -0.6501
 4684SOL    HW214952   2.470   3.980   0.382  1.1862 -0.3953  0.2302
 4685SOL     OW14953   5.297   3.951   0.859  0.3245  0.3648 -0.3259
 4685SOL    HW114954   5.278   4.049   0.857 -2.5050 -0.1033 -1.8403
 4685SOL    HW214955   5.237   3.906   0.926  0.2795 -0.5159 -0.9335
 4686SOL     OW14956   6.830   0.878   0.888 -0.0813  0.0478 -0.0188
 4686SOL    HW114957   6.750   0.857   0.831 -0.4892  0.2919  0.4582
 4686SOL    HW214958   6.819   0.970   0.927  0.1444 -0.1592  0.5363
 4687SOL     OW14959   5.433   4.684   4.469  0.1884 -0.1440  0.3607
 4687SOL    HW114960   5.387   4.646   4.389  0.7419 -1.6808  0.7399
 4687SOL    HW214961   5.397   4.776   4.488 -2.6334 -1.1952  0.5468
 4688SOL     OW14962   1.397   5.824   6.214 -0.2845 -0.3479  0.2911
 4688SOL    HW114963   1.385   5.851   6.310 -0.9619  1.1267 -0.1812
 4688SOL    HW214964   1.308   5.796   6.176 -0.3576  0.7256 -0.3671
 4689SOL     OW14965   4.303   0.832   1.286  0.2528 -0.5494 -0.5579
 4689SOL    HW114966   4.321   0.891   1.207 -2.9596  1.6420  0.1727
 4689SOL    HW214967   4.245   0.755   1.258  0.2836 -0.5670 -0.5737
 4690SOL     OW14968   1.521   1.770   0.374  0.6210  0.0824  0.6424
 4690SOL    HW114969   1.580   1.699   0.412 -0.2818 -0.4729  1.0407
 4690SOL    HW214970   1.542   1.857   0.416  0.3404 -0.3359  1.6696
 4691SOL     OW14971   7.022   3.723   1.460  0.0011 -0.1185  0.3677
 4691SOL    HW114972   7.121   3.732   1.456 -0.0303  1.3232  1.9469
 4691SOL    HW214973   6.998   3.639   1.509  0.4040 -0.6248 -0.2756
 4692SOL     OW14974   0.230   6.872   1.391  0.0584  0.2024 -0.5102
 4692SOL    HW114975   0.149   6.858   1.448 -0.2677 -0.3433 -1.0891
 4692SOL    HW214976   0.268   6.963   1.408 -0.8787  0.6007 -0.4734
 4693SOL     OW14977   0.887   3.867   2.862  0.3526  0.5364 -0.0533
 4693SOL    HW114978   0.830   3.934   2.814 -1.2279 -0.8674 -0.2388
 4693SOL    HW214979   0.956   3.914   2.917 -0.6938  2.2922 -0.1924
 4694SOL     OW14980   4.316   5.047   6.404 -0.2262 -0.7998  0.1491
 4694SOL    HW114981   4.290   5.140   6.376 -0.2067  0.5869  4.1071
 4694SOL    HW214982   4.415   5.036   6.394 -0.0464  0.0979  0.8196
 4695SOL     OW14983   5.719   4.241   6.213 -0.1556 -0.0126  0.5033
 4695SOL    HW114984   5.809   4.202   6.236  0.0015  0.6576  1.0340
 4695SOL    HW214985   5.683   4.290   6.291 -2.3772 -2.7842  1.3850
 4696SOL     OW14986   2.216   2.158   0.804  0.2597 -0.2283  0.3949
 4696SOL    HW114987   2.254   2.233   0.858 -0.1421 -0.3068  0.7929
 4696SOL    HW214988   2.285   2.086   0.793 -0.1901 -1.0446  2.3772
 4697SOL     OW14989   0.607   5.171   2.911  0.0031 -0.6129 -0.2736
 4697SOL    HW114990   0.561   5.256   2.883  0.0983 -0.3389  0.3806
 4697SOL    HW214991   0.594   5.101   2.841 -2.1776 -0.8392  0.3125
 4698SOL     OW14992   0.236   0.144   1.683 -0.3342 -0.6864 -0.8345
 4698SOL    HW114993   0.326   0.178   1.709  0.3555 -1.2973 -2.2911
 4698SOL    HW214994   0.226   0.050   1.716 -2.0523  0.5543  2.7724
 4699SOL     OW14995   2.248   0.663   2.842 -0.3387  0.3798 -0.2391
 4699SOL    HW114996   2.239   0.592   2.772 -0.7093 -0.1631  0.3455
 4699SOL    HW214997   2.253   0.753   2.799 -0.3756  0.0332 -0.9680
 4700SOL     OW14998   3.058   3.918   6.893  0.5382 -0.5639 -0.2991
 4700SOL    HW114999   2.999   3.859   6.947 -1.2828  1.0674 -0.3858
 4700SOL    HW215000   3.140   3.868   6.866 -0.8272 -2.9783 -0.2578
 4701SOL     OW15001   1.058   6.103   0.721 -0.2960  0.1985  0.5064
 4701SOL    HW115002   1.028   6.185   0.770  0.9347 -0.0336  1.7127
 4701SOL    HW215003   1.045   6.023   0.780  0.3056 -0.2143  0.0929
 4702SOL     OW15004   4.840   5.839   2.055 -0.3993 -0.1568  0.1491
 4702SOL    HW115005   4.846   5.877   1.963  2.1403 -0.4029  0.1365
 4702SOL    HW215006   4.789   5.753   2.052 -1.0006  0.2163 -0.8796
 4703SOL     OW15007   5.245   0.493   6.041  0.0660  0.0273  0.4373
 4703SOL    HW115008   5.314   0.536   5.983 -0.3352 -0.0229 -0.0777
 4703SOL    HW215009   5.222   0.403   6.004  0.1408 -0.1975  0.9298
 4704SOL     OW15010   2.499   1.329   5.826  0.0793 -0.1200  0.0379
 4704SOL    HW115011   2.412   1.312   5.780 -2.0776  0.2231  3.6270
 4704SOL    HW215012   2.548   1.402   5.779 -2.6829  1.3230 -0.8132
 4705SOL     OW15013   1.477   4.743   2.393  0.3140 -0.0404 -0.1838
 4705SOL    HW115014   1.527   4.705   2.315  0.7814  0.3694 -0.0875
 4705SOL    HW215015   1.409   4.809   2.360 -0.0307 -0.4458 -0.2987
 4706SOL     OW15016   4.428   6.508   6.845  0.1398 -0.3115 -0.1264
 4706SOL    HW115017   4.414   6.414   6.877  0.4847 -0.6407 -0.9209
 4706SOL    HW215018   4.408   6.513   6.747  0.1074  0.4548 -0.0882
 4707SOL     OW15019   1.078   5.465   1.189  0.4139  0.3975 -0.1009
 4707SOL    HW115020   1.159   5.407   1.179 -0.9954 -1.5261 -1.1286
 4707SOL    HW215021   1.009   5.417   1.244 -1.1712  0.6225 -1.7758
 4708SOL     OW15022   7.018   0.810   1.701  0.1344  0.0890  0.4899
 4708SOL    HW115023   7.112   0.835   1.679 -0.4562  2.5642  0.4032
 4708SOL    HW215024   6.964   0.804   1.618  0.0483 -0.6008  0.5905
 4709SOL     OW15025   3.617   6.953   6.785 -0.0895  0.2485 -0.2460
 4709SOL    HW115026   3.607   6.858   6.815 -1.4793  0.6764  0.7136
 4709SOL    HW215027   3.595   7.014   6.860 -1.6349  1.3571 -1.5326
 4710SOL     OW15028   0.682   3.330   3.600  0.1567  0.7028 -0.5044
 4710SOL    HW115029   0.640   3.354   3.512  0.3214  2.9839 -0.0079
 4710SOL    HW215030   0.615   3.339   3.673  0.6039  1.0079 -0.1245
 4711SOL     OW15031   5.428   6.007   3.064  0.0234  0.3467  0.6906
 4711SOL    HW115032   5.512   6.031   3.015 -0.8585  2.3901  0.0529
 4711SOL    HW215033   5.423   6.059   3.149 -0.0868 -0.6161  1.2917
 4712SOL     OW15034   4.982   5.167   4.992  0.1504  0.4120  0.6008
 4712SOL    HW115035   4.890   5.149   4.956 -0.8460  0.4196  2.9600
 4712SOL    HW215036   5.008   5.262   4.973 -1.2323  1.0361  1.6543
 4713SOL     OW15037   4.373   0.619   0.872 -0.0004 -0.2305 -0.3164
 4713SOL    HW115038   4.280   0.617   0.835 -1.5087 -0.6531  3.0558
 4713SOL    HW215039   4.410   0.711   0.865 -0.5123 -0.1209 -1.9725
 4714SOL     OW15040   4.040   5.737   4.496 -0.0358 -0.0830 -0.0401
 4714SOL    HW115041   4.084   5.740   4.407 -1.1795 -0.7449 -0.6456
 4714SOL    HW215042   4.083   5.805   4.557  3.3933 -2.2269  0.1781
 4715SOL     OW15043   6.373   1.169   2.775 -0.2575  0.5829 -0.4019
 4715SOL    HW115044   6.291   1.115   2.798 -0.9970  2.1354  0.8086
 4715SOL    HW215045   6.451   1.108   2.767 -0.7714 -0.6126  2.2566
 4716SOL     OW15046   5.479   3.565   1.135 -0.0451 -0.5628 -0.4205
 4716SOL    HW115047   5.489   3.473   1.174  0.2877 -0.7749 -0.9907
 4716SOL    HW215048   5.570   3.604   1.120 -0.1500  0.8248  2.0056
 4717SOL     OW15049   6.444   2.569   0.668  0.0634  0.2783 -0.1037
 4717SOL    HW115050   6.391   2.495   0.710  0.2751  0.2895  0.1818
 4717SOL    HW215051   6.406   2.589   0.578  0.6291 -0.8654 -0.6195
 4718SOL     OW15052   2.265   4.124   5.330 -0.4873 -0.2105 -0.3425
 4718SOL    HW115053   2.170   4.111   5.301 -0.8699 -0.2137  0.8495
 4718SOL    HW215054   2.323   4.057   5.284 -1.2202 -0.8930 -0.3054
 4719SOL     OW15055   3.657   2.062   0.755  0.4538  0.1163 -0.3128
 4719SOL    HW115056   3.738   2.063   0.813  0.1136  1.7860  0.1833
 4719SOL    HW215057   3.632   1.967   0.735  0.9378 -0.5121  1.7780
 4720SOL     OW15058   2.899   0.750   2.650  0.5327  0.4454 -0.1329
 4720SOL    HW115059   2.993   0.756   2.618  0.2244 -0.7425 -1.3565
 4720SOL    HW215060   2.896   0.693   2.733  0.7847 -0.3774 -0.6742
 4721SOL     OW15061   6.189   2.981   1.870  0.5992 -0.3917 -0.1007
 4721SOL    HW115062   6.123   2.951   1.940  0.2319 -0.1680 -0.3480
 4721SOL    HW215063   6.234   2.900   1.832  0.4618 -0.5500  0.0642
 4722SOL     OW15064   2.107   1.227   2.221  0.0066  0.2882  0.0348
 4722SOL    HW115065   2.018   1.242   2.177  0.0361  0.8467  0.1584
 4722SOL    HW215066   2.178   1.222   2.152 -0.0037  0.7508 -0.0158
 4723SOL     OW15067   0.259   2.041   3.035 -0.3941 -0.0317  0.1547
 4723SOL    HW115068   0.235   2.116   3.096  0.0686  0.2193  0.0341
 4723SOL    HW215069   0.263   2.075   2.941  0.2877 -0.1017  0.1585
 4724SOL     OW15070   2.583   1.031   4.164 -0.7606 -0.2786  0.7084
 4724SOL    HW115071   2.567   1.117   4.212  0.5892  0.9207 -0.8480
 4724SOL    HW215072   2.519   1.023   4.088 -0.9033 -0.6626  0.8690
 4725SOL     OW15073   3.066   6.382   4.625 -0.2682  0.2284  0.3470
 4725SOL    HW115074   3.006   6.423   4.556  1.2948 -1.4263 -2.1484
 4725SOL    HW215075   3.011   6.347   4.701 -2.2156  0.8027 -0.7362
 4726SOL     OW15076   2.841   0.249   2.409 -0.0372  0.2296  0.5390
 4726SOL    HW115077   2.784   0.181   2.363 -0.3119  0.6994  0.1697
 4726SOL    HW215078   2.932   0.210   2.426  0.0122 -0.0290 -0.2409
 4727SOL     OW15079   5.862   2.453   2.244 -0.0701 -0.4810  0.1550
 4727SOL    HW115080   5.780   2.419   2.289 -0.0362 -0.3844  0.2943
 4727SOL    HW215081   5.871   2.413   2.153 -1.4631  1.1891 -0.7818
 4728SOL     OW15082   3.817   0.136   1.049 -0.3755 -1.0731 -0.3297
 4728SOL    HW115083   3.743   0.080   1.087 -2.3989  0.7723 -1.3288
 4728SOL    HW215084   3.807   0.230   1.079 -1.0264  0.1291 -3.7750
 4729SOL     OW15085   3.434   0.641   3.745  0.0793  0.5883 -0.7520
 4729SOL    HW115086   3.527   0.670   3.721  1.2048 -3.5396 -2.4412
 4729SOL    HW215087   3.419   0.651   3.843  2.6455  0.6669 -0.3096
 4730SOL     OW15088   4.440   1.859   2.485 -0.0742 -0.3637  0.0476
 4730SOL    HW115089   4.517   1.797   2.501 -0.6703 -1.4577 -1.0792
 4730SOL    HW215090   4.450   1.900   2.394  0.7025  1.8283  1.0759
 4731SOL     OW15091   4.774   6.762   0.342  0.0805 -0.4083 -0.3162
 4731SOL    HW115092   4.822   6.683   0.380  1.2687  0.2941 -0.2747
 4731SOL    HW215093   4.698   6.731   0.285  0.8786 -1.5992 -0.7785
 4732SOL     OW15094   3.983   0.879   0.195 -0.6748 -0.5742  0.1220
 4732SOL    HW115095   3.912   0.815   0.165  0.3974 -1.6750 -0.1635
 4732SOL    HW215096   4.022   0.926   0.116  0.0049 -1.1770  0.0794
 4733SOL     OW15097   3.644   6.522   5.023  0.4332 -0.4584  0.7888
 4733SOL    HW115098   3.741   6.507   5.002  0.5049  0.8210  0.0938
 4733SOL    HW215099   3.636   6.591   5.094  0.0153  1.8955 -1.4035
 4734SOL     OW15100   4.565   3.556   0.239  0.3063 -0.8843  0.4536
 4734SOL    HW115101   4.537   3.581   0.147  0.6495 -0.4622  0.4663
 4734SOL    HW215102   4.486   3.565   0.301 -0.2782 -2.3987 -0.0118
 4735SOL     OW15103   6.656   2.272   6.787  0.3554  0.4165  0.7624
 4735SOL    HW115104   6.679   2.180   6.818  1.5784  0.8645  1.2764
 4735SOL    HW215105   6.631   2.270   6.690  0.5884 -0.4132  0.7136
 4736SOL     OW15106   2.146   5.499   2.778  0.5078  0.1833  0.6041
 4736SOL    HW115107   2.192   5.583   2.805 -0.4324  0.6947  0.6850
 4736SOL    HW215108   2.047   5.508   2.795  0.5148 -1.3919  1.8179
 4737SOL     OW15109   3.617   3.435   3.550 -0.4705  0.0708  0.9623
 4737SOL    HW115110   3.538   3.474   3.503  1.2760  1.6574 -0.8530
 4737SOL    HW215111   3.658   3.364   3.492 -0.2039 -0.3287  1.6250
 4738SOL     OW15112   4.000   3.113   0.487  0.1940 -0.2112 -1.0722
 4738SOL    HW115113   4.036   3.057   0.562 -2.5144 -0.2663  0.3241
 4738SOL    HW215114   4.058   3.194   0.476  0.4417  0.0465  1.4482
 4739SOL     OW15115   0.264   1.437   6.426  0.2124 -0.1267  0.4286
 4739SOL    HW115116   0.171   1.405   6.442  0.3251 -1.0662 -0.6670
 4739SOL    HW215117   0.329   1.364   6.444  0.7463  0.4703  1.0110
 4740SOL     OW15118   6.828   3.190   1.118 -0.0254 -0.5503 -0.1423
 4740SOL    HW115119   6.874   3.129   1.183  0.7010 -0.3428 -0.4526
 4740SOL    HW215120   6.752   3.142   1.074  1.5214 -1.7809 -1.5760
 4741SOL     OW15121   2.489   3.312   6.315  0.0590  0.2854  0.5792
 4741SOL    HW115122   2.461   3.277   6.404 -1.2723 -1.5255 -0.4662
 4741SOL    HW215123   2.488   3.237   6.248  1.1488  1.5618 -0.9362
 4742SOL     OW15124   1.360   4.170   0.038  0.5570 -0.0753 -0.0826
 4742SOL    HW115125   1.399   4.244   0.092 -1.1557  0.4095  0.5648
 4742SOL    HW215126   1.260   4.179   0.037  0.4154 -1.3946 -1.4357
 4743SOL     OW15127   6.250   3.739   5.664  0.1770  0.3524 -0.1607
 4743SOL    HW115128   6.254   3.818   5.725  0.1793  1.7729 -1.9005
 4743SOL    HW215129   6.155   3.725   5.635  0.2628  0.0734 -0.3007
 4744SOL     OW15130   0.814   4.251   0.266 -0.2656  0.3070  0.0076
 4744SOL    HW115131   0.780   4.204   0.347  1.0188 -2.3248 -0.8804
 4744SOL    HW215132   0.909   4.278   0.281 -0.0628 -0.0798 -0.5716
 4745SOL     OW15133   4.254   3.322   1.729  0.5961 -0.0406  0.0444
 4745SOL    HW115134   4.207   3.400   1.687  4.1126  2.2283 -0.1199
 4745SOL    HW215135   4.257   3.335   1.828 -0.6053 -1.1418  0.2526
 4746SOL     OW15136   0.513   0.200   5.495 -0.0838  0.1627  0.3981
 4746SOL    HW115137   0.417   0.225   5.501 -0.2245 -0.6664  2.4285
 4746SOL    HW215138   0.568   0.264   5.549  0.2189 -0.6292  1.0491
 4747SOL     OW15139   1.714   5.872   0.522  0.1658 -1.1427  0.2657
 4747SOL    HW115140   1.720   5.831   0.431  1.1392 -0.0759 -0.1750
 4747SOL    HW215141   1.698   5.971   0.513  1.8622 -0.7422  1.1930
 4748SOL     OW15142   5.096   5.433   4.938 -0.6505  0.2131 -0.4030
 4748SOL    HW115143   5.172   5.445   4.874 -0.8771  1.4512 -0.4529
 4748SOL    HW215144   5.011   5.466   4.897 -1.0248 -0.1168  0.0840
 4749SOL     OW15145   2.128   4.737   4.836  0.2282 -0.0282 -0.1928
 4749SOL    HW115146   2.138   4.818   4.893  0.0100 -0.1844  0.0696
 4749SOL    HW215147   2.097   4.660   4.892 -0.5370 -0.0424 -0.6248
 4750SOL     OW15148   5.011   0.648   5.729  0.1886 -0.3777  0.0753
 4750SOL    HW115149   5.073   0.683   5.659  1.7165 -1.3327  0.9003
 4750SOL    HW215150   5.014   0.708   5.810 -0.4480 -0.0886 -0.1085
 4751SOL     OW15151   6.402   6.523   3.002  0.6351 -0.2403 -0.3618
 4751SOL    HW115152   6.327   6.568   2.953 -0.5019 -1.0662  0.5416
 4751SOL    HW215153   6.478   6.507   2.940 -0.2021  0.0290 -1.4908
 4752SOL     OW15154   5.482   5.240   4.060  0.4750  0.3972 -0.0070
 4752SOL    HW115155   5.450   5.213   4.151 -0.6738 -0.1411 -0.5641
 4752SOL    HW215156   5.528   5.163   4.016  0.9857  0.6433  0.0772
 4753SOL     OW15157   5.843   6.054   5.228 -0.2198 -0.0952  0.1728
 4753SOL    HW115158   5.890   6.068   5.141  1.0200  2.2683  1.1215
 4753SOL    HW215159   5.894   5.988   5.284 -0.1289 -0.4052 -0.2780
 4754SOL     OW15160   0.139   2.706   2.803 -0.2007  0.2264 -0.3813
 4754SOL    HW115161   0.048   2.743   2.824  0.0647  0.8978 -0.3691
 4754SOL    HW215162   0.196   2.709   2.885  0.4665  1.7438 -0.8607
 4755SOL     OW15163   3.787   5.397   6.027 -0.1150  0.0232  0.0242
 4755SOL    HW115164   3.780   5.473   5.962  2.4909  1.6569  1.4482
 4755SOL    HW215165   3.851   5.329   5.992 -1.7362 -1.1271 -0.8251
 4756SOL     OW15166   1.305   0.929   6.953 -0.3119 -0.4752  0.8228
 4756SOL    HW115167   1.279   0.840   6.990 -2.3776 -0.4903 -0.5244
 4756SOL    HW215168   1.232   0.995   6.969 -0.2604  0.1076 -1.0914
 4757SOL     OW15169   3.807   3.828   2.226  0.3937  0.4050 -0.0549
 4757SOL    HW115170   3.895   3.787   2.251 -0.4618 -0.0340  2.6823
 4757SOL    HW215171   3.734   3.761   2.244 -0.6072  1.2407 -0.9217
 4758SOL     OW15172   0.640   0.814   0.137 -0.8814  0.6691 -0.8888
 4758SOL    HW115173   0.627   0.822   0.236 -1.0431  0.9443 -0.9309
 4758SOL    HW215174   0.578   0.878   0.090 -2.1152 -0.7387 -1.2347
 4759SOL     OW15175   0.084   6.198   1.800 -0.0774  0.0517  0.2722
 4759SOL    HW115176   0.089   6.163   1.894  0.5551  1.1377  0.6561
 4759SOL    HW215177  -0.011   6.203   1.771 -0.2050 -3.5949 -0.4497
 4760SOL     OW15178   1.851   3.789   3.976 -0.3965 -0.2711 -0.2753
 4760SOL    HW115179   1.812   3.749   4.059  0.1952  2.7414  1.6395
 4760SOL    HW215180   1.781   3.842   3.929  0.1488  1.2760  0.5731
 4761SOL     OW15181   6.963   0.025   4.000 -0.0965  0.3081 -0.2009
 4761SOL    HW115182   6.914  -0.062   4.012 -1.5156  1.1522  0.3875
 4761SOL    HW215183   6.897   0.097   3.979  1.0887  1.2101 -0.9614
 4762SOL     OW15184   6.603   3.234   4.693 -0.1591 -0.0992  0.4670
 4762SOL    HW115185   6.634   3.272   4.606  1.9103  0.6521  1.4754
 4762SOL    HW215186   6.557   3.305   4.747 -0.0067 -0.1398  0.6508
 4763SOL     OW15187   6.534   0.675   1.523  0.2576  1.0181  0.1539
 4763SOL    HW115188   6.569   0.720   1.605 -1.1963  0.3111  1.2132
 4763SOL    HW215189   6.463   0.610   1.549  0.8978 -0.4184 -1.5306
 4764SOL     OW15190   1.478   1.505   2.538  0.2199  0.7473  0.4587
 4764SOL    HW115191   1.471   1.411   2.506  3.0166  0.9754 -1.1856
 4764SOL    HW215192   1.563   1.517   2.589  0.7825  2.6977 -0.8031
 4765SOL     OW15193   4.539   0.492   6.069 -0.1349  0.2814  0.2011
 4765SOL    HW115194   4.482   0.574   6.058  1.9644  1.7645 -0.0784
 4765SOL    HW215195   4.600   0.504   6.147  0.4376 -0.8969 -0.0468
 4766SOL     OW15196   2.393   3.868   1.744  0.0431  0.0313 -0.5099
 4766SOL    HW115197   2.396   3.769   1.759  1.0711  0.1678  0.3979
 4766SOL    HW215198   2.479   3.897   1.701  0.1363  0.6331  0.0629
 4767SOL     OW15199   1.651   4.696   3.096 -0.6827  0.2559  0.3973
 4767SOL    HW115200   1.677   4.619   3.153  0.4672 -0.3705 -0.8982
 4767SOL    HW215201   1.552   4.699   3.086 -0.9586  0.7384  2.8479
 4768SOL     OW15202   2.634   6.927   0.177 -0.3016  0.7050 -0.3379
 4768SOL    HW115203   2.571   6.851   0.160  0.6591 -0.2063  0.0490
 4768SOL    HW215204   2.631   6.991   0.100 -1.2993  0.4098 -0.5626
 4769SOL     OW15205   6.156   0.691   5.660  0.3645  0.2093  0.2725
 4769SOL    HW115206   6.120   0.751   5.589  0.5465 -0.4506 -0.3827
 4769SOL    HW215207   6.132   0.729   5.750 -0.6363  0.5806 -0.1328
 4770SOL     OW15208   3.989   2.188   2.784 -0.3376 -0.1846 -0.7494
 4770SOL    HW115209   3.989   2.157   2.879  0.2865  2.1357  0.1009
 4770SOL    HW215210   3.896   2.184   2.747 -0.8631  0.2016  0.4703
 4771SOL     OW15211   5.448   5.676   1.846 -0.2351 -0.8287  0.0329
 4771SOL    HW115212   5.492   5.718   1.926 -0.4282 -2.1642  0.8689
 4771SOL    HW215213   5.473   5.727   1.764 -0.2825  0.7686  0.9676
 4772SOL     OW15214   6.753   4.528   0.721 -0.3611  0.2229 -0.0099
 4772SOL    HW115215   6.848   4.553   0.742 -0.7339  0.3324  1.7561
 4772SOL    HW215216   6.728   4.446   0.772 -1.8448  1.4274  1.3443
 4773SOL     OW15217   3.217   0.932   2.144  0.1597 -0.1278 -0.1193
 4773SOL    HW115218   3.220   0.840   2.184 -0.8427 -1.4871 -2.8648
 4773SOL    HW215219   3.298   0.945   2.086 -0.0780  0.4136 -0.3315
 4774SOL     OW15220   1.046   0.573   5.371 -0.5469 -0.3442  0.0191
 4774SOL    HW115221   1.117   0.504   5.361  0.5406  0.5991  0.9166
 4774SOL    HW215222   0.967   0.548   5.315 -0.1044 -2.1672  0.1468
 4775SOL     OW15223   5.086   3.893   4.862 -0.4295  0.2820  0.0217
 4775SOL    HW115224   5.039   3.837   4.795 -1.5932  1.6248 -0.3392
 4775SOL    HW215225   5.047   3.877   4.953  1.1688 -1.5605  0.4504
 4776SOL     OW15226   6.405   5.810   2.063 -0.9884  0.6935  0.1131
 4776SOL    HW115227   6.414   5.813   1.963 -0.7958  0.5600  0.1262
 4776SOL    HW215228   6.439   5.896   2.102 -0.7157  0.5973  0.0895
 4777SOL     OW15229   3.139   3.526   5.441 -0.0155  0.5843  0.0902
 4777SOL    HW115230   3.097   3.603   5.392  0.1560  1.9561  1.9859
 4777SOL    HW215231   3.211   3.561   5.502 -1.8711 -0.6273  3.1935
 4778SOL     OW15232   4.867   1.377   5.383 -0.2532 -0.1334  0.0399
 4778SOL    HW115233   4.935   1.422   5.326 -1.1025  0.8041 -0.2630
 4778SOL    HW215234   4.878   1.278   5.376  2.1757 -0.0379  1.3653
 4779SOL     OW15235   0.522   3.834   6.514  0.1965 -0.1947 -0.2469
 4779SOL    HW115236   0.434   3.878   6.494  0.5503  0.8278  0.4197
 4779SOL    HW215237   0.578   3.835   6.431 -0.2282 -0.4313 -0.5475
 4780SOL     OW15238   2.215   1.664   1.676  0.2215 -0.4097  0.2861
 4780SOL    HW115239   2.265   1.640   1.593 -2.0632  0.1672 -1.3582
 4780SOL    HW215240   2.231   1.761   1.698 -0.9086  0.0844 -0.8810
 4781SOL     OW15241   6.219   2.263   3.823 -0.0660  0.2415  0.0883
 4781SOL    HW115242   6.140   2.231   3.874  0.3295 -0.1719  0.4470
 4781SOL    HW215243   6.287   2.189   3.816  0.4723  0.7183  0.1577
 4782SOL     OW15244   1.146   5.732   2.655  0.2000  0.3575  0.1138
 4782SOL    HW115245   1.211   5.715   2.581  0.4872 -0.7700  0.6082
 4782SOL    HW215246   1.192   5.785   2.727  0.2070  0.6087 -0.0731
 4783SOL     OW15247   4.419   1.466   2.752 -0.2923 -0.4556 -0.1000
 4783SOL    HW115248   4.360   1.490   2.675 -0.6043 -0.3213  0.1780
 4783SOL    HW215249   4.377   1.498   2.837  2.0050  3.3048 -0.1477
 4784SOL     OW15250   0.853   6.158   1.719 -0.8710 -0.1914  0.2288
 4784SOL    HW115251   0.811   6.069   1.699 -0.3926 -0.7400  1.5703
 4784SOL    HW215252   0.785   6.218   1.760 -1.3906  0.3478 -1.3293
 4785SOL     OW15253   1.595   0.720   5.603  0.0918 -0.4684  0.1253
 4785SOL    HW115254   1.523   0.733   5.535  0.1324  2.1779  0.4447
 4785SOL    HW215255   1.557   0.734   5.694  0.9614  1.0909  0.2917
 4786SOL     OW15256   1.373   1.103   2.235  0.3005 -0.1957  0.0557
 4786SOL    HW115257   1.282   1.143   2.238  0.2115 -0.4419  1.2326
 4786SOL    HW215258   1.440   1.174   2.212 -0.0091  0.3299  0.7562
 4787SOL     OW15259   4.191   6.552   0.063 -0.1768  0.0941 -0.0741
 4787SOL    HW115260   4.201   6.600   0.149 -0.4789  0.2563 -0.1293
 4787SOL    HW215261   4.186   6.453   0.080 -0.9081  0.1669  0.1513
 4788SOL     OW15262   0.740   5.918   0.710  0.3849  0.2085  0.2966
 4788SOL    HW115263   0.681   5.848   0.670 -0.6373  1.3978 -0.3125
 4788SOL    HW215264   0.751   5.900   0.808 -1.7945  0.4869  0.6424
 4789SOL     OW15265   4.534   6.857   5.816 -0.3634  0.3127 -0.3716
 4789SOL    HW115266   4.611   6.841   5.754 -0.4578 -1.1170 -0.1573
 4789SOL    HW215267   4.480   6.935   5.784  0.1188  0.1763 -1.5602
 4790SOL     OW15268   3.859   3.044   3.521  0.2437 -0.2383 -0.1087
 4790SOL    HW115269   3.915   3.075   3.444  1.3637  0.2309  0.8569
 4790SOL    HW215270   3.912   3.052   3.606 -1.2090 -0.0218  0.8146
 4791SOL     OW15271   0.529   2.423   3.787  0.3466 -0.5189  0.0730
 4791SOL    HW115272   0.530   2.385   3.880 -1.1441  1.0106  0.7794
 4791SOL    HW215273   0.616   2.467   3.768  0.9448 -1.5067  0.4369
 4792SOL     OW15274   0.501   5.353   3.870  0.2660 -0.3823  0.2552
 4792SOL    HW115275   0.443   5.390   3.943 -1.1548 -1.6297 -0.1821
 4792SOL    HW215276   0.597   5.362   3.895 -0.1884 -0.6839  2.2347
 4793SOL     OW15277   1.439   3.612   4.457 -0.2712 -0.1965 -0.0533
 4793SOL    HW115278   1.438   3.591   4.360 -2.0123  0.3354 -0.1859
 4793SOL    HW215279   1.419   3.709   4.470 -3.6067 -0.9168  0.9182
 4794SOL     OW15280   2.423   5.709   3.924 -0.1550  0.1377  0.1420
 4794SOL    HW115281   2.414   5.727   4.022 -1.3325  3.3988 -0.4479
 4794SOL    HW215282   2.392   5.616   3.905 -0.3181 -0.4419  2.7744
 4795SOL     OW15283   4.224   0.101   6.710  0.4586  0.3973  0.0126
 4795SOL    HW115284   4.225   0.182   6.652 -1.5550 -0.4452 -1.3215
 4795SOL    HW215285   4.268   0.025   6.662  0.4505  0.1663  0.3687
 4796SOL     OW15286   5.719   2.295   5.842 -0.1275 -0.1125 -0.2021
 4796SOL    HW115287   5.667   2.243   5.910 -1.8593  0.3077 -1.1299
 4796SOL    HW215288   5.678   2.386   5.832  1.6267  0.7327 -0.0436
 4797SOL     OW15289   6.336   6.026   2.363 -0.3333  0.3122 -0.1993
 4797SOL    HW115290   6.361   6.042   2.458 -0.3715  0.4796 -0.2173
 4797SOL    HW215291   6.290   5.938   2.355 -0.2176  0.2403 -0.0831
 4798SOL     OW15292   5.467   2.169   5.729  0.5862 -0.1240  0.9611
 4798SOL    HW115293   5.459   2.070   5.738  0.3495 -0.4475 -2.0610
 4798SOL    HW215294   5.553   2.192   5.683  0.2300  1.0163  0.8192
 4799SOL     OW15295   6.774   3.119   0.300 -0.3031 -0.2534 -0.7339
 4799SOL    HW115296   6.872   3.101   0.289 -0.4462 -0.7457 -1.2498
 4799SOL    HW215297   6.734   3.050   0.360 -0.6107 -0.9333 -1.7016
 4800SOL     OW15298   3.787   3.207   2.110  0.5406 -0.1434 -0.7986
 4800SOL    HW115299   3.818   3.193   2.204 -2.1040  0.8885  0.3419
 4800SOL    HW215300   3.741   3.125   2.078 -3.0396  1.0009  0.8452
 4801SOL     OW15301   4.716   0.212   4.773 -0.5981 -0.0221 -0.4042
 4801SOL    HW115302   4.791   0.225   4.708 -0.3860  0.9352  0.0163
 4801SOL    HW215303   4.638   0.172   4.725  0.4321 -1.8771 -0.6763
 4802SOL     OW15304   5.086   2.779   6.163 -0.0870  0.0040  0.1654
 4802SOL    HW115305   5.166   2.722   6.146  0.6023  1.1293 -0.4757
 4802SOL    HW215306   5.037   2.743   6.243 -0.1619 -1.9668 -0.7036
 4803SOL     OW15307   2.513   7.016   5.570 -0.4042  0.3151 -0.1128
 4803SOL    HW115308   2.454   7.001   5.491  1.8827  0.5937 -1.9926
 4803SOL    HW215309   2.604   6.979   5.550  0.2779  0.5260  2.3715
 4804SOL     OW15310   5.881   4.430   4.957 -0.0887 -0.5164  0.1973
 4804SOL    HW115311   5.869   4.374   5.039  0.8624  0.4227  1.0006
 4804SOL    HW215312   5.913   4.521   4.983  0.7120 -0.3570 -1.2402
 4805SOL     OW15313   0.287   5.344   3.534 -0.1127 -0.2261 -0.4005
 4805SOL    HW115314   0.315   5.365   3.440  0.3696  0.9178 -0.0213
 4805SOL    HW215315   0.321   5.253   3.560  0.9729  0.0393 -0.8553
 4806SOL     OW15316   3.437   6.374   2.887  0.9109  1.1313 -0.2075
 4806SOL    HW115317   3.369   6.315   2.842  0.5620  2.2745 -1.2389
 4806SOL    HW215318   3.413   6.470   2.871  0.8854  1.6064  2.3099
 4807SOL     OW15319   1.745   3.478   4.763  0.1361 -0.6632  0.3023
 4807SOL    HW115320   1.667   3.451   4.707  0.3139  0.2099 -0.3922
 4807SOL    HW215321   1.799   3.397   4.787 -0.6175 -1.1900  0.2300
 4808SOL     OW15322   3.603   6.005   2.499 -0.2632 -0.4270  0.4613
 4808SOL    HW115323   3.691   6.030   2.538 -0.4440  0.1524  0.5143
 4808SOL    HW215324   3.531   6.020   2.567 -0.4298 -0.6408  0.3322
 4809SOL     OW15325   1.315   4.222   5.682  0.3069 -0.0136  0.1700
 4809SOL    HW115326   1.299   4.247   5.586  0.2872 -0.7227 -0.0147
 4809SOL    HW215327   1.403   4.176   5.689  1.0839  1.4727  0.7563
 4810SOL     OW15328   1.289   1.466   6.551 -0.3114  0.1625 -0.2513
 4810SOL    HW115329   1.255   1.559   6.536  1.1819  0.6147 -1.0335
 4810SOL    HW215330   1.317   1.456   6.647 -0.4078  0.5466 -0.1811
 4811SOL     OW15331   5.287   5.249   6.345 -0.0171  0.1454  0.1871
 4811SOL    HW115332   5.344   5.298   6.411  0.3083 -3.3879  2.8236
 4811SOL    HW215333   5.192   5.280   6.354  0.0205 -0.2594  2.3949
 4812SOL     OW15334   1.366   2.723   0.764  0.8700 -0.2011 -0.3764
 4812SOL    HW115335   1.356   2.770   0.852  0.0710  1.5275 -1.3401
 4812SOL    HW215336   1.463   2.723   0.737  1.2944 -1.7933  1.0196
 4813SOL     OW15337   6.427   0.781   3.707  0.5313  0.1673 -0.1187
 4813SOL    HW115338   6.384   0.750   3.623  0.9801 -0.2212 -0.2085
 4813SOL    HW215339   6.465   0.873   3.694  1.2662 -0.1913 -0.5809
 4814SOL     OW15340   2.848   5.395   3.628  0.0014 -0.1345  0.3087
 4814SOL    HW115341   2.946   5.373   3.634  0.4880  1.1453 -1.8254
 4814SOL    HW215342   2.796   5.327   3.680  1.7811 -2.7933 -1.1034
 4815SOL     OW15343   0.057   5.903   3.598  0.5666 -0.2913 -0.1170
 4815SOL    HW115344   0.124   5.829   3.610 -0.7383 -1.2135  1.9813
 4815SOL    HW215345  -0.019   5.870   3.542 -0.0883 -0.6436  0.9445
 4816SOL     OW15346   6.750   1.283   0.418 -0.4821  0.2639 -0.4937
 4816SOL    HW115347   6.717   1.188   0.422  0.0228  0.0215 -1.7530
 4816SOL    HW215348   6.796   1.299   0.331  0.4324  1.3523  0.1598
 4817SOL     OW15349   1.380   3.266   6.318  0.6031 -0.5172 -0.2205
 4817SOL    HW115350   1.368   3.168   6.339 -1.3023 -0.4439 -0.7210
 4817SOL    HW215351   1.473   3.294   6.340  0.9564 -2.2574  0.7052
 4818SOL     OW15352   2.022   1.561   4.658 -0.0639 -0.1138 -0.0669
 4818SOL    HW115353   1.960   1.505   4.602  0.5541  0.6668 -1.5914
 4818SOL    HW215354   2.105   1.509   4.677 -1.5336 -1.6356  3.0098
 4819SOL     OW15355   4.351   1.348   2.457  0.2476 -0.3621 -0.1536
 4819SOL    HW115356   4.373   1.445   2.468  1.6801 -0.5764 -0.8371
 4819SOL    HW215357   4.254   1.338   2.437  0.2332  1.0009 -0.9137
 4820SOL     OW15358   0.219   6.281   0.181  0.3142 -0.0337 -0.3176
 4820SOL    HW115359   0.278   6.202   0.198  0.7622  0.1027 -1.1645
 4820SOL    HW215360   0.244   6.323   0.094 -1.3715 -0.2883 -0.9730
 4821SOL     OW15361   2.066   4.492   2.337 -0.0662 -0.2588 -0.3311
 4821SOL    HW115362   2.079   4.585   2.303 -0.5157 -0.1129 -0.1124
 4821SOL    HW215363   2.072   4.492   2.437  3.4388 -1.0172 -0.3964
 4822SOL     OW15364   2.043   3.970   6.281 -0.0310 -0.2809 -0.2730
 4822SOL    HW115365   1.951   3.994   6.249  0.1343  0.0045 -0.5473
 4822SOL    HW215366   2.067   3.879   6.248  0.4840  0.3574 -1.7549
 4823SOL     OW15367   6.714   2.919   0.478  0.0587 -0.5025  0.5479
 4823SOL    HW115368   6.755   2.838   0.435 -0.2007  0.0519 -0.8124
 4823SOL    HW215369   6.619   2.900   0.502  0.0441 -0.6473  0.3757
 4824SOL     OW15370   0.693   0.104   1.462  0.7098 -0.2026 -0.1870
 4824SOL    HW115371   0.647   0.193   1.460 -1.5110 -1.2041  1.6517
 4824SOL    HW215372   0.668   0.052   1.381  0.4143  0.1093 -0.2975
 4825SOL     OW15373   6.758   3.806   0.348 -0.2286  0.3303 -0.2773
 4825SOL    HW115374   6.705   3.756   0.416  1.6201 -1.2677  0.0821
 4825SOL    HW215375   6.804   3.883   0.393  0.4210 -0.3009  0.1712
 4826SOL     OW15376   2.143   6.985   2.153 -0.0193  0.2457 -0.5946
 4826SOL    HW115377   2.146   7.075   2.109  1.0314  0.5696  0.1165
 4826SOL    HW215378   2.166   6.994   2.250 -0.7857 -0.6772 -0.3085
 4827SOL     OW15379   2.465   5.418   4.118 -0.2675  0.1088 -0.1534
 4827SOL    HW115380   2.554   5.455   4.146  1.2335 -2.7552 -0.6492
 4827SOL    HW215381   2.415   5.388   4.199 -0.5363  1.1572  0.0855
 4828SOL     OW15382   6.770   3.126   0.688  0.0144 -0.5546 -0.3957
 4828SOL    HW115383   6.739   3.050   0.631 -0.3359 -0.0171 -0.9258
 4828SOL    HW215384   6.867   3.143   0.671 -0.0040 -0.6275 -0.5733
 4829SOL     OW15385   1.597   1.474   4.392 -0.1900  0.4384 -0.1648
 4829SOL    HW115386   1.661   1.465   4.315  0.1216 -0.5390  0.2031
 4829SOL    HW215387   1.508   1.502   4.357 -0.5796 -1.8266 -1.1426
 4830SOL     OW15388   0.168   4.314   3.724 -0.3707 -0.4970  0.5994
 4830SOL    HW115389   0.199   4.243   3.787 -1.2348 -0.1137  1.4794
 4830SOL    HW215390   0.078   4.348   3.753 -0.2560  0.5209 -0.1709
 4831SOL     OW15391   5.494   0.486   6.553  0.6246  0.3432  0.0587
 4831SOL    HW115392   5.400   0.489   6.518  0.1907  2.0190  1.2674
 4831SOL    HW215393   5.495   0.518   6.647  2.4331  0.3153  0.0697
 4832SOL     OW15394   5.613   5.693   2.081  0.6921 -0.0322  0.0203
 4832SOL    HW115395   5.592   5.739   2.167 -0.7620 -0.8001  0.1102
 4832SOL    HW215396   5.656   5.605   2.100  3.2692  1.1058 -0.1475
 4833SOL     OW15397   1.006   0.053   1.813  0.2437  0.3145  0.0255
 4833SOL    HW115398   1.014   0.055   1.913 -2.8362  1.4835  0.3522
 4833SOL    HW215399   1.012  -0.042   1.782  0.2338 -0.1841  1.4369
 4834SOL     OW15400   6.371   5.457   6.911 -0.3192  0.6238  0.0070
 4834SOL    HW115401   6.289   5.399   6.914  0.3634 -0.3267  1.6358
 4834SOL    HW215402   6.410   5.464   7.002  1.2497  1.3090 -0.6820
 4835SOL     OW15403   6.927   3.716   4.660  0.0360 -0.2196  0.4148
 4835SOL    HW115404   6.873   3.680   4.736 -0.6086  1.6155  0.8875
 4835SOL    HW215405   6.999   3.776   4.695  0.7432 -0.5926 -0.3559
 4836SOL     OW15406   6.131   2.656   3.450 -0.2795 -0.4030 -0.0964
 4836SOL    HW115407   6.151   2.640   3.354  2.7581  0.1839  0.3548
 4836SOL    HW215408   6.105   2.569   3.494 -1.0885 -0.7740 -1.2611
 4837SOL     OW15409   6.605   6.741   5.274 -0.1770 -0.1236 -0.1233
 4837SOL    HW115410   6.534   6.680   5.308 -0.7534  1.8372  2.4912
 4837SOL    HW215411   6.682   6.687   5.240 -1.3937 -2.2620  0.3323
 4838SOL     OW15412   2.194   4.611   2.950 -0.6157  0.1680  0.3929
 4838SOL    HW115413   2.130   4.535   2.959 -2.6067  1.6002 -0.8538
 4838SOL    HW215414   2.200   4.659   3.037 -1.5446  0.2261  0.4403
 4839SOL     OW15415   5.066   3.101   1.874  0.6061 -0.4930 -0.7138
 4839SOL    HW115416   5.082   3.190   1.916 -1.1463 -0.3586 -0.2368
 4839SOL    HW215417   5.152   3.065   1.836  1.3013  1.4730 -1.1105
 4840SOL     OW15418   2.792   5.707   3.112  0.4265 -0.5955 -0.8469
 4840SOL    HW115419   2.782   5.806   3.120  1.7851 -0.2623 -2.6641
 4840SOL    HW215420   2.878   5.678   3.156 -0.4457 -1.1487  0.5679
 4841SOL     OW15421   2.626   5.800   4.943  0.2390 -0.8311  0.5333
 4841SOL    HW115422   2.705   5.744   4.968  0.7591 -0.2366  0.2217
 4841SOL    HW215423   2.638   5.893   4.977 -0.7735 -0.9681  1.3419
 4842SOL     OW15424   4.415   1.964   6.532  0.7080  0.7010  0.2103
 4842SOL    HW115425   4.451   1.947   6.623 -0.7388  2.5593  1.2047
 4842SOL    HW215426   4.432   2.060   6.507 -0.9745  0.8813 -0.4265
 4843SOL     OW15427   6.391   4.640   0.225 -0.2926 -0.5762  0.3994
 4843SOL    HW115428   6.481   4.606   0.195  1.3439  2.9424  0.8587
 4843SOL    HW215429   6.380   4.620   0.323  1.3985  1.4270  1.0831
 4844SOL     OW15430   0.366   4.788   5.271  0.1856 -0.1903 -0.0278
 4844SOL    HW115431   0.311   4.815   5.350  1.0716  0.2024  0.4626
 4844SOL    HW215432   0.408   4.868   5.229 -0.5970 -0.3497 -1.1536
 4845SOL     OW15433   5.925   0.926   5.500 -0.1215 -0.1846 -0.2214
 4845SOL    HW115434   5.877   0.951   5.584 -1.1359 -0.5984 -0.6542
 4845SOL    HW215435   5.883   0.843   5.462 -0.3331  0.5598 -1.6632
 4846SOL     OW15436   3.708   2.764   5.180 -0.5309 -0.0406  0.3534
 4846SOL    HW115437   3.649   2.813   5.245 -1.7423 -0.0284 -0.7000
 4846SOL    HW215438   3.798   2.750   5.220 -0.0090  3.3033  0.6422
 4847SOL     OW15439   1.054   6.777   6.323  0.0447  0.5936  0.0282
 4847SOL    HW115440   0.958   6.805   6.333  0.2077  1.5520 -0.9231
 4847SOL    HW215441   1.114   6.849   6.357  0.4600 -0.6989  2.2507
 4848SOL     OW15442   1.187   6.767   6.679  0.4250  0.0337  0.0786
 4848SOL    HW115443   1.101   6.716   6.683  1.3550 -1.6135  0.2994
 4848SOL    HW215444   1.216   6.777   6.584  0.8084 -0.9104  0.0836
 4849SOL     OW15445   5.012   1.982   4.854 -0.0963 -0.6478 -0.2908
 4849SOL    HW115446   4.945   1.927   4.903  0.3174  0.9493  2.3018
 4849SOL    HW215447   4.965   2.047   4.795 -0.6176 -2.5874 -2.1157
 4850SOL     OW15448   3.022   0.484   0.119 -0.2554 -0.2495 -0.1411
 4850SOL    HW115449   2.956   0.454   0.187  0.7269 -2.4349 -0.0799
 4850SOL    HW215450   3.084   0.551   0.160 -2.0959  1.5299 -0.0892
 4851SOL     OW15451   1.027   2.663   4.388  0.2618 -0.0262 -0.0634
 4851SOL    HW115452   1.044   2.658   4.486 -1.7277  0.5845  0.3365
 4851SOL    HW215453   0.945   2.611   4.365 -0.3971  1.4164 -1.1120
 4852SOL     OW15454   6.628   5.739   6.991  0.3005 -0.3306  0.0358
 4852SOL    HW115455   6.627   5.760   7.088 -2.1044 -2.3132  0.5386
 4852SOL    HW215456   6.536   5.749   6.952  0.6688 -1.9408 -1.4194
 4853SOL     OW15457   3.999   2.587   0.669  0.6822 -1.2280  0.1079
 4853SOL    HW115458   3.929   2.529   0.627 -0.0534 -0.5459  0.3844
 4853SOL    HW215459   4.013   2.668   0.614 -1.4366  0.4774  1.8884
 4854SOL     OW15460   4.125   4.350   5.345  0.5821  0.2144  0.2820
 4854SOL    HW115461   4.152   4.268   5.396 -1.3862 -0.7932 -0.1921
 4854SOL    HW215462   4.196   4.373   5.279  1.4344 -0.7530  0.8308
 4855SOL     OW15463   1.784   3.900   4.283 -0.5486  0.0971 -0.3248
 4855SOL    HW115464   1.719   3.825   4.272 -0.3444  0.1893 -2.4458
 4855SOL    HW215465   1.877   3.868   4.264  0.0918  0.0126  2.4909
 4856SOL     OW15466   3.929   0.781   2.110 -0.5081 -0.4142  1.5295
 4856SOL    HW115467   3.949   0.741   2.021  1.3373  1.9232  0.8043
 4856SOL    HW215468   3.832   0.804   2.116 -0.5586 -0.1531 -0.0604
 4857SOL     OW15469   0.042   2.474   5.840 -0.5472  0.5938 -0.5590
 4857SOL    HW115470   0.096   2.430   5.911 -0.3579  0.7380 -0.6148
 4857SOL    HW215471   0.080   2.564   5.820 -0.6605  0.5938 -0.7727
 4858SOL     OW15472   0.576   2.994   2.961  0.1952  0.2170 -0.8279
 4858SOL    HW115473   0.595   2.901   2.992 -0.1920  0.5824  0.5822
 4858SOL    HW215474   0.635   3.058   3.010  0.7670  0.6997 -2.1034
 4859SOL     OW15475   3.914   0.906   1.469  0.4903 -0.2188 -0.2114
 4859SOL    HW115476   3.949   0.885   1.377 -0.6336 -0.6495 -0.5490
 4859SOL    HW215477   3.926   0.826   1.527  0.4017 -0.2385 -0.2210
 4860SOL     OW15478   0.361   4.882   3.042  0.5924 -0.3352 -0.1352
 4860SOL    HW115479   0.369   4.978   3.071  0.1815 -0.6663  1.1747
 4860SOL    HW215480   0.269   4.866   3.006  1.0676  0.0506 -1.5801
 4861SOL     OW15481   6.154   6.733   5.399  0.3223 -0.3531 -0.5961
 4861SOL    HW115482   6.131   6.814   5.345 -0.5583 -1.2583 -1.6230
 4861SOL    HW215483   6.177   6.761   5.492  0.8153  1.1460 -1.1232
 4862SOL     OW15484   1.605   6.115   4.819 -1.1163 -0.3702  0.2220
 4862SOL    HW115485   1.549   6.046   4.774  0.6789 -2.0149  0.3605
 4862SOL    HW215486   1.681   6.070   4.868  0.2537  1.7119  0.1543
 4863SOL     OW15487   6.528   0.618   4.040 -0.2472  0.3469 -0.2186
 4863SOL    HW115488   6.573   0.609   4.128 -2.4214  1.2411  1.0539
 4863SOL    HW215489   6.587   0.669   3.977  1.1746  0.0311  0.8113
 4864SOL     OW15490   3.423   2.895   3.895  0.0407 -0.8645 -0.1398
 4864SOL    HW115491   3.420   2.874   3.797  1.9440  3.0822 -1.2589
 4864SOL    HW215492   3.337   2.938   3.923  0.2606 -0.0197 -0.7054
 4865SOL     OW15493   5.336   3.380   2.924  0.8938  0.5911 -0.2198
 4865SOL    HW115494   5.407   3.325   2.878  1.7915  1.7241 -0.2228
 4865SOL    HW215495   5.302   3.330   3.004  0.8395 -0.4749 -0.8868
 4866SOL     OW15496   0.421   2.614   0.880  0.5875  0.1727  0.0167
 4866SOL    HW115497   0.473   2.536   0.843 -0.7902 -0.8197  0.0931
 4866SOL    HW215498   0.339   2.580   0.927 -1.5845  1.7519 -2.3737
 4867SOL     OW15499   0.357   1.056   1.291  0.4611 -0.1179 -0.1289
 4867SOL    HW115500   0.339   0.959   1.275  2.7509 -0.4639 -1.1528
 4867SOL    HW215501   0.443   1.082   1.245  1.0603  1.8726  1.8945
 4868SOL     OW15502   1.782   6.837   6.828 -0.1086 -0.3405  0.2474
 4868SOL    HW115503   1.726   6.817   6.749 -0.9964 -0.2736  0.8461
 4868SOL    HW215504   1.789   6.937   6.839 -2.1243 -0.2965  1.6898
 4869SOL     OW15505   3.693   6.519   3.186 -0.5574  0.3332  0.1982
 4869SOL    HW115506   3.598   6.487   3.179  0.1583 -1.6187 -2.1220
 4869SOL    HW215507   3.726   6.543   3.094  0.7518  2.4704  1.1682
 4870SOL     OW15508   4.063   5.510   1.159 -0.3842  0.1639 -0.1758
 4870SOL    HW115509   4.015   5.481   1.242 -0.2852 -0.2918 -0.2721
 4870SOL    HW215510   4.099   5.429   1.112 -0.7380  0.3833 -0.8439
 4871SOL     OW15511   1.458   5.820   4.890 -0.4273  0.0908 -0.0866
 4871SOL    HW115512   1.500   5.871   4.965 -2.2709  0.8438  0.4824
 4871SOL    HW215513   1.530   5.782   4.831  1.0248  1.5845  0.6486
 4872SOL     OW15514   1.870   5.562   2.852  0.0629  0.5979 -0.4267
 4872SOL    HW115515   1.773   5.555   2.876  0.3136 -0.4346  0.4139
 4872SOL    HW215516   1.905   5.650   2.882 -0.1239  0.1239  1.3056
 4873SOL     OW15517   3.674   1.572   6.404 -0.2338 -0.2729 -0.1445
 4873SOL    HW115518   3.647   1.496   6.345 -1.5931 -1.5597  1.9946
 4873SOL    HW215519   3.690   1.538   6.497  0.3419  1.8904  0.6048
 4874SOL     OW15520   2.621   5.944   0.345  0.7801 -0.2258  0.1826
 4874SOL    HW115521   2.672   6.029   0.331 -0.8446  0.7553 -0.0821
 4874SOL    HW215522   2.548   5.937   0.277  1.8943 -2.6999 -0.8805
 4875SOL     OW15523   1.071   2.808   2.117  0.1031  0.0899 -0.0972
 4875SOL    HW115524   1.009   2.831   2.193 -0.1905 -0.4110 -0.1809
 4875SOL    HW215525   1.166   2.821   2.147 -0.0318  0.7153  0.0798
 4876SOL     OW15526   3.168   0.544   3.793 -0.3304  0.3495  0.1331
 4876SOL    HW115527   3.245   0.573   3.736 -1.3371  1.2549 -0.8144
 4876SOL    HW215528   3.168   0.597   3.878  0.3736 -0.0197  0.3724
 4877SOL     OW15529   1.988   1.982   3.297 -0.2992 -0.1016  0.2880
 4877SOL    HW115530   1.915   2.010   3.233  0.3450  0.6569 -0.1401
 4877SOL    HW215531   2.077   2.008   3.259  0.2439 -1.4424  0.5867
 4878SOL     OW15532   0.230   3.976   5.800  0.3052  0.3823  0.0153
 4878SOL    HW115533   0.136   3.976   5.766  0.6786 -0.0348 -1.0510
 4878SOL    HW215534   0.266   3.883   5.799  1.1560  0.6981 -0.8318
 4879SOL     OW15535   6.431   6.608   1.239 -0.3066 -0.3343 -0.7297
 4879SOL    HW115536   6.406   6.660   1.158 -1.8159 -0.3896 -0.3299
 4879SOL    HW215537   6.382   6.644   1.318  1.5488  0.0871  0.3049
 4880SOL     OW15538   2.456   4.385   6.857  0.0422  0.0467 -0.7984
 4880SOL    HW115539   2.547   4.379   6.815  0.4562  0.5433  0.0050
 4880SOL    HW215540   2.442   4.478   6.892  0.4764 -0.8093  1.8281
 4881SOL     OW15541   5.808   5.829   1.964  0.1852  0.8897 -0.4492
 4881SOL    HW115542   5.835   5.820   1.868  0.0397 -0.1988 -0.4038
 4881SOL    HW215543   5.736   5.762   1.984 -0.6193  1.9069  0.1227
 4882SOL     OW15544   4.807   2.766   6.724  0.1522 -0.3580 -0.4596
 4882SOL    HW115545   4.796   2.819   6.808 -0.2801 -0.8409 -0.2069
 4882SOL    HW215546   4.868   2.815   6.661 -1.9496  1.5394 -1.1515
 4883SOL     OW15547   4.226   5.082   1.726 -0.0244 -0.1377  0.3001
 4883SOL    HW115548   4.268   4.993   1.714 -1.1932 -0.5730 -0.7053
 4883SOL    HW215549   4.128   5.071   1.740 -0.1937  0.9891  0.0859
 4884SOL     OW15550   0.590   1.298   4.916  0.3069  0.6037  0.4307
 4884SOL    HW115551   0.525   1.348   4.973  0.5116  0.8847  0.4238
 4884SOL    HW215552   0.651   1.364   4.870  0.4624  0.3556  0.2795
 4885SOL     OW15553   0.907   2.471   1.505 -0.4166 -0.2705 -0.0639
 4885SOL    HW115554   0.956   2.486   1.591 -1.9198 -0.5245  0.8761
 4885SOL    HW215555   0.813   2.444   1.525 -1.3708  1.5184 -1.7900
 4886SOL     OW15556   5.868   4.610   5.248 -0.3175 -0.3381  0.5430
 4886SOL    HW115557   5.932   4.536   5.268 -0.3927 -0.7615 -0.7221
 4886SOL    HW215558   5.880   4.640   5.153 -3.0971 -1.5629 -0.3075
 4887SOL     OW15559   5.623   0.398   5.967  0.2947  0.0728 -0.0330
 4887SOL    HW115560   5.560   0.427   5.895 -1.1726 -2.3796  0.1418
 4887SOL    HW215561   5.664   0.479   6.010 -2.4298  1.8175 -0.4464
 4888SOL     OW15562   6.523   1.163   6.309  0.5847 -0.0121 -0.4422
 4888SOL    HW115563   6.460   1.178   6.385  0.2679  1.0644 -0.9097
 4888SOL    HW215564   6.497   1.080   6.260 -0.6137  0.5383 -0.7722
 4889SOL     OW15565   6.358   6.640   4.975 -1.0396  0.1422 -0.0352
 4889SOL    HW115566   6.302   6.666   4.896  0.5461  1.5638 -0.7772
 4889SOL    HW215567   6.304   6.586   5.039 -2.9372  0.6293 -1.1589
 4890SOL     OW15568   0.809   2.483   4.326  0.8682  0.0646 -0.9852
 4890SOL    HW115569   0.774   2.565   4.370  2.1728  0.0036  0.2472
 4890SOL    HW215570   0.761   2.403   4.360  0.2497  0.2215 -1.4745
 4891SOL     OW15571   4.950   0.377   6.590  0.5917 -0.2444  0.3795
 4891SOL    HW115572   4.955   0.282   6.558  0.0592 -0.0635 -0.2466
 4891SOL    HW215573   4.928   0.437   6.513  2.2299  0.5594  0.5022
 4892SOL     OW15574   6.349   6.534   2.047 -0.4656 -0.2073  0.0139
 4892SOL    HW115575   6.326   6.495   1.958 -0.4657 -0.8916  0.3080
 4892SOL    HW215576   6.342   6.463   2.117 -0.7852  0.4034  0.6100
 4893SOL     OW15577   2.405   4.660   5.514  0.1510 -0.0334  0.3102
 4893SOL    HW115578   2.467   4.646   5.592 -0.8047  1.1308  1.3152
 4893SOL    HW215579   2.350   4.578   5.500  2.0111 -1.1729 -0.7335
 4894SOL     OW15580   1.010   5.735   4.909 -0.3927  0.6488 -0.3074
 4894SOL    HW115581   1.009   5.677   4.990  0.2448  1.0137 -0.0357
 4894SOL    HW215582   0.960   5.690   4.835 -1.2303  0.4413  0.3720
 4895SOL     OW15583   2.338   1.012   0.351  0.5061 -0.6485 -0.4880
 4895SOL    HW115584   2.288   0.926   0.352  1.0571 -0.9881 -1.1575
 4895SOL    HW215585   2.409   1.011   0.422  1.0660 -1.0947 -1.0426
 4896SOL     OW15586   2.713   1.824   5.803 -0.1357  0.0918  0.3258
 4896SOL    HW115587   2.773   1.898   5.834  0.4888 -0.4003  0.3173
 4896SOL    HW215588   2.620   1.859   5.793 -0.2353  0.4308  2.0912
 4897SOL     OW15589   3.431   0.484   5.196 -0.3313  0.1922 -0.3007
 4897SOL    HW115590   3.446   0.536   5.280  1.1433  2.0404 -1.6321
 4897SOL    HW215591   3.475   0.530   5.119 -1.7219 -1.3806 -2.1531
 4898SOL     OW15592   0.093   4.982   2.344 -0.1102  0.0111  0.0563
 4898SOL    HW115593   0.042   5.055   2.298  0.0380 -0.1174 -0.3097
 4898SOL    HW215594   0.189   4.986   2.316  0.4252  1.2020  1.8702
 4899SOL     OW15595   5.731   3.813   3.819  0.4713 -0.8028 -0.0918
 4899SOL    HW115596   5.709   3.717   3.838  1.1498 -0.9692 -0.1031
 4899SOL    HW215597   5.673   3.847   3.746  0.6626 -1.4090 -0.5363
 4900SOL     OW15598   0.139   6.583   6.507  0.3747  0.6215  0.3883
 4900SOL    HW115599   0.206   6.519   6.545  0.1887 -0.2893 -0.7711
 4900SOL    HW215600   0.162   6.603   6.412  0.7342  2.7305  0.8634
 4901SOL     OW15601   1.059   5.491   0.720  0.1261 -0.2788 -0.0735
 4901SOL    HW115602   1.033   5.586   0.699  0.1298 -0.3698 -0.5077
 4901SOL    HW215603   0.976   5.436   0.731  0.1250 -0.4382 -0.8425
 4902SOL     OW15604   5.345   5.298   5.468  0.0261  0.0397  0.0854
 4902SOL    HW115605   5.256   5.322   5.504  0.6691  0.1968  1.6315
 4902SOL    HW215606   5.338   5.213   5.414 -1.0244  0.0183  0.2398
 4903SOL     OW15607   4.112   1.016   4.969  0.3793 -0.0496  0.1788
 4903SOL    HW115608   4.030   0.964   4.945  0.3540  0.9007 -2.0827
 4903SOL    HW215609   4.097   1.113   4.948  1.9008  0.2154  0.1906
 4904SOL     OW15610   1.326   5.828   6.702  0.3243  0.5764 -0.1041
 4904SOL    HW115611   1.307   5.920   6.737  2.4108  0.8156  0.5517
 4904SOL    HW215612   1.395   5.784   6.760  1.5748 -0.2543 -2.0915
 4905SOL     OW15613   5.858   4.189   5.524 -0.4481 -0.2470 -0.1551
 4905SOL    HW115614   5.843   4.100   5.482 -0.3566 -0.9868  1.2942
 4905SOL    HW215615   5.944   4.188   5.576 -0.5529  0.6102  0.0574
 4906SOL     OW15616   0.897   0.492   1.983  0.0127  0.1887  0.0334
 4906SOL    HW115617   0.825   0.492   2.052  0.6396 -0.2759  0.7035
 4906SOL    HW215618   0.861   0.529   1.897 -1.1455 -0.4716  0.2209
 4907SOL     OW15619   6.826   2.075   2.187  0.0538  0.1255  0.3158
 4907SOL    HW115620   6.812   2.153   2.126 -1.3593 -1.7804 -1.9285
 4907SOL    HW215621   6.897   2.098   2.254  1.3180  2.5152 -1.6829
 4908SOL     OW15622   3.060   5.801   2.902 -0.1282 -0.5843 -0.2618
 4908SOL    HW115623   3.040   5.764   2.992  0.2519  0.1608  0.1411
 4908SOL    HW215624   3.108   5.732   2.847  0.5172 -0.7206  0.4480
 4909SOL     OW15625   4.286   0.049   4.997 -0.3316  0.4187 -0.0230
 4909SOL    HW115626   4.324   0.112   5.065 -0.6450  0.0069  0.5382
 4909SOL    HW215627   4.304   0.085   4.905  3.1572 -0.7045  0.0949
 4910SOL     OW15628   6.638   2.981   4.365 -0.0141  0.4948 -0.2152
 4910SOL    HW115629   6.671   3.074   4.376  0.2405  0.3398  0.3523
 4910SOL    HW215630   6.554   2.982   4.311  0.1794  1.0153 -0.5203
 4911SOL     OW15631   5.568   3.006   3.124  0.0197  0.0226 -0.9432
 4911SOL    HW115632   5.660   3.006   3.164 -0.4497 -0.6689  0.1918
 4911SOL    HW215633   5.532   2.913   3.124 -0.9579  0.3935 -0.7051
 4912SOL     OW15634   1.122   3.730   4.526 -0.6139 -0.6577 -0.2289
 4912SOL    HW115635   1.124   3.724   4.626  0.2767 -0.6158 -0.2376
 4912SOL    HW215636   1.123   3.638   4.487  0.1296 -0.6726 -0.2005
 4913SOL     OW15637   4.797   4.964   1.367 -0.3251 -0.1230  0.2336
 4913SOL    HW115638   4.707   4.941   1.331 -1.2029  1.8194  0.9903
 4913SOL    HW215639   4.835   5.041   1.315 -0.1313  0.5310  1.3029
 4914SOL     OW15640   2.307   6.453   3.988 -0.4354 -0.2487  0.1252
 4914SOL    HW115641   2.359   6.389   3.932  0.2335  0.8595 -0.5698
 4914SOL    HW215642   2.364   6.534   4.006 -1.4468  0.3951  0.5033
 4915SOL     OW15643   1.141   4.502   6.415 -0.4011  0.1337 -0.5966
 4915SOL    HW115644   1.058   4.473   6.367 -1.4688  0.8996  0.7178
 4915SOL    HW215645   1.179   4.424   6.466 -0.0394 -0.3295 -1.5499
 4916SOL     OW15646   6.744   6.945   6.039 -0.0747  0.4527  0.4057
 4916SOL    HW115647   6.656   6.899   6.025 -0.1000  0.2353  1.2245
 4916SOL    HW215648   6.727   7.039   6.068 -0.0347  0.4523  0.4295
 4917SOL     OW15649   0.435   1.459   3.966  0.2422 -0.0791 -0.0707
 4917SOL    HW115650   0.395   1.467   3.875 -1.9283  1.4739  0.9268
 4917SOL    HW215651   0.463   1.549   3.999  4.2302 -1.0142 -0.4515
 4918SOL     OW15652   0.306   4.382   6.074 -0.0011  0.0301  0.0944
 4918SOL    HW115653   0.374   4.316   6.105  0.4438  0.5217  0.1706
 4918SOL    HW215654   0.306   4.384   5.974  0.4960  0.4340  0.0977
 4919SOL     OW15655   2.587   2.040   5.504 -0.0532 -0.5669  0.1670
 4919SOL    HW115656   2.629   1.949   5.499 -0.3266 -0.6375 -1.9858
 4919SOL    HW215657   2.660   2.109   5.503  0.1217 -0.7339  0.7665
 4920SOL     OW15658   1.187   3.470   2.522 -0.0532 -0.0627 -0.0949
 4920SOL    HW115659   1.130   3.502   2.446  0.4190 -0.1754 -0.5037
 4920SOL    HW215660   1.274   3.521   2.522 -0.2573  0.2964  0.6814
 4921SOL     OW15661   3.714   5.571   0.480  0.4905 -0.0556 -0.0693
 4921SOL    HW115662   3.700   5.590   0.577 -0.6459 -1.6127  0.1254
 4921SOL    HW215663   3.628   5.583   0.431  0.7068 -0.6648 -0.6147
 4922SOL     OW15664   2.292   5.769   2.378  0.6500  0.2539  0.1028
 4922SOL    HW115665   2.300   5.670   2.391  0.4370 -0.0035 -1.4963
 4922SOL    HW215666   2.236   5.808   2.452  1.8508 -0.5854  1.5104
 4923SOL     OW15667   5.815   3.329   6.205 -0.5143 -0.1823 -0.4266
 4923SOL    HW115668   5.903   3.323   6.159 -0.0523  1.4967  0.1476
 4923SOL    HW215669   5.776   3.420   6.189 -0.7578  0.1286  1.6738
 4924SOL     OW15670   2.190   6.560   2.266  0.0844 -0.1705 -0.1064
 4924SOL    HW115671   2.197   6.623   2.188  0.4850  0.3176  0.3189
 4924SOL    HW215672   2.124   6.597   2.332  2.3135  1.2428  1.4477
 4925SOL     OW15673   6.019   1.381   3.256 -0.6888 -0.3573  0.0162
 4925SOL    HW115674   5.935   1.426   3.288 -1.6094 -0.9659 -1.4690
 4925SOL    HW215675   6.019   1.286   3.287 -0.3779 -0.2636  0.3031
 4926SOL     OW15676   5.601   4.003   5.044 -0.2411  0.4684  0.3534
 4926SOL    HW115677   5.532   4.068   5.012 -0.2390  0.0159 -0.6142
 4926SOL    HW215678   5.690   4.027   5.007 -0.3053 -0.2852 -0.3153
 4927SOL     OW15679   2.851   4.630   6.838 -0.2387  0.0268  0.2908
 4927SOL    HW115680   2.772   4.644   6.897 -1.2656  0.0360 -1.0465
 4927SOL    HW215681   2.888   4.719   6.810  0.3034  0.0232  0.9636
 4928SOL     OW15682   4.082   3.404   0.520 -0.1966 -0.0186 -0.0548
 4928SOL    HW115683   4.055   3.360   0.606  2.0044 -0.5150  0.4460
 4928SOL    HW215684   4.001   3.417   0.463 -1.6759  0.0292  1.9318
 4929SOL     OW15685   6.236   1.335   0.483  0.6732 -0.0335  0.0027
 4929SOL    HW115686   6.153   1.377   0.447  0.6975 -1.5158 -1.9298
 4929SOL    HW215687   6.316   1.383   0.445  0.7047 -0.0644  0.0300
 4930SOL     OW15688   4.165   6.387   1.621  0.2178 -0.0411 -0.3400
 4930SOL    HW115689   4.193   6.366   1.528 -0.3236 -1.3902 -0.2215
 4930SOL    HW215690   4.216   6.466   1.654  0.4943  0.3861 -1.7331
 4931SOL     OW15691   5.100   1.441   2.978  0.3910  0.0227 -0.4865
 4931SOL    HW115692   5.153   1.401   3.053  0.1637 -0.0712 -0.3728
 4931SOL    HW215693   5.160   1.464   2.902  0.9720  2.1595  0.5529
 4932SOL     OW15694   0.682   1.852   1.161  0.3334 -0.4137  0.5671
 4932SOL    HW115695   0.725   1.915   1.225  0.0153  1.8625 -1.3008
 4932SOL    HW215696   0.589   1.883   1.141  0.0499 -1.6732 -0.2021
 4933SOL     OW15697   1.134   3.390   5.452 -0.4664 -0.4431 -0.4239
 4933SOL    HW115698   1.170   3.297   5.456  0.0712 -0.2436 -0.5895
 4933SOL    HW215699   1.070   3.397   5.375 -1.9759 -1.1799  0.7103
 4934SOL     OW15700   2.626   0.110   3.305  0.2639 -0.3893 -0.4819
 4934SOL    HW115701   2.684   0.033   3.331  2.2981  1.1496 -0.2470
 4934SOL    HW215702   2.667   0.196   3.337 -1.9448  0.8313 -0.6897
 4935SOL     OW15703   6.934   1.979   5.210 -0.5125 -0.5860  0.1014
 4935SOL    HW115704   6.910   1.945   5.119 -0.3731 -1.4385  0.3811
 4935SOL    HW215705   6.944   2.079   5.206  0.8882 -0.7331 -1.1458
 4936SOL     OW15706   4.069   1.701   2.869 -0.1602  0.1544  0.6224
 4936SOL    HW115707   4.084   1.606   2.842 -0.2098  0.0032  1.1117
 4936SOL    HW215708   4.138   1.728   2.936 -1.1602 -0.0897  1.7927
 4937SOL     OW15709   2.329   6.498   2.826 -0.0972 -0.3690 -0.3673
 4937SOL    HW115710   2.368   6.505   2.735 -1.1789  2.1130 -0.7120
 4937SOL    HW215711   2.245   6.444   2.822  0.6623 -1.5987 -0.4913
 4938SOL     OW15712   1.682   3.003   2.237 -0.0981 -0.1532 -0.3363
 4938SOL    HW115713   1.753   3.069   2.259  0.1366 -0.9227  1.3233
 4938SOL    HW215714   1.722   2.912   2.229 -0.8057 -0.4988 -0.0237
 4939SOL     OW15715   1.002   6.592   1.859  0.0742 -0.6743  0.1402
 4939SOL    HW115716   0.920   6.599   1.916 -1.0729  0.5491 -1.5660
 4939SOL    HW215717   0.991   6.517   1.794  0.1232 -0.2621 -0.3489
 4940SOL     OW15718   3.803   6.790   2.451  0.1147  0.6068  0.1245
 4940SOL    HW115719   3.739   6.760   2.380  0.4433 -0.5152  0.2778
 4940SOL    HW215720   3.893   6.805   2.410  0.9711 -2.4663  0.6188
 4941SOL     OW15721   4.158   6.612   6.488  0.9575 -0.2493 -0.2564
 4941SOL    HW115722   4.218   6.603   6.408 -1.8700 -0.1823 -2.5454
 4941SOL    HW215723   4.091   6.538   6.488  0.7310 -0.1146  1.9870
 4942SOL     OW15724   5.087   5.718   5.346 -0.1496  0.0893  0.1355
 4942SOL    HW115725   5.137   5.718   5.433 -0.3951 -0.9123  0.2911
 4942SOL    HW215726   5.117   5.640   5.290  0.8091  1.3414 -1.1689
 4943SOL     OW15727   3.894   5.623   3.121  0.2394  0.1924 -0.6394
 4943SOL    HW115728   3.821   5.594   3.183  2.2578 -0.5002  1.5446
 4943SOL    HW215729   3.921   5.546   3.063  0.6474 -0.1866  0.0396
 4944SOL     OW15730   0.245   0.695   5.915  0.0716  0.1913  0.1808
 4944SOL    HW115731   0.286   0.606   5.933  2.5622  1.3731  0.7339
 4944SOL    HW215732   0.288   0.765   5.972 -2.4204  1.6739  0.4281
 4945SOL     OW15733   1.186   5.977   3.531  0.2546 -0.0623  0.2124
 4945SOL    HW115734   1.259   5.970   3.600 -0.3368 -0.7628  0.7901
 4945SOL    HW215735   1.197   5.904   3.464  1.4581  1.2588 -1.0887
 4946SOL     OW15736   3.569   2.453   7.005  0.3266  0.2866  0.3761
 4946SOL    HW115737   3.643   2.501   6.958  0.6830 -1.4088 -0.9072
 4946SOL    HW215738   3.488   2.451   6.946 -0.3624  1.0536  1.2619
 4947SOL     OW15739   5.549   5.358   1.417  0.3024 -0.3901 -0.1016
 4947SOL    HW115740   5.453   5.383   1.428  0.1866 -0.0431 -1.5786
 4947SOL    HW215741   5.556   5.283   1.351  0.9531 -1.5258  1.2123
 4948SOL     OW15742   1.054   0.079   2.066  0.0022  0.2122  0.5780
 4948SOL    HW115743   1.017   0.048   2.153  0.0667 -1.6778 -0.0072
 4948SOL    HW215744   1.131   0.020   2.039 -0.4690  0.2820 -1.0725
 4949SOL     OW15745   6.683   0.171   6.744  0.0041 -0.0947  0.1031
 4949SOL    HW115746   6.695   0.073   6.730 -0.7210 -0.7056  3.0500
 4949SOL    HW215747   6.767   0.209   6.783  0.5631  0.6620 -1.7657
 4950SOL     OW15748   2.211   4.883   2.561 -0.4065  0.1406  0.1504
 4950SOL    HW115749   2.160   4.920   2.639 -3.3963  0.8364 -1.9570
 4950SOL    HW215750   2.279   4.950   2.530 -0.8931  0.8977  0.6861
 4951SOL     OW15751   2.109   3.968   3.988  0.1241  0.3884 -0.1508
 4951SOL    HW115752   2.012   3.984   4.002 -0.2099  0.9338 -2.5400
 4951SOL    HW215753   2.121   3.892   3.924  1.2174  0.9521 -0.6477
 4952SOL     OW15754   6.293   3.229   2.656  0.3119  0.2070  0.0418
 4952SOL    HW115755   6.317   3.242   2.752 -0.9723  1.0753  0.2610
 4952SOL    HW215756   6.217   3.288   2.632 -1.2393 -1.9750 -0.7855
 4953SOL     OW15757   3.995   2.088   3.941  0.0389  0.8352  0.0907
 4953SOL    HW115758   4.039   2.033   4.012 -0.1994 -0.4490 -0.7241
 4953SOL    HW215759   4.062   2.115   3.872 -0.4942 -1.8571 -1.6132
 4954SOL     OW15760   2.695   2.087   0.415 -0.6940  0.0410 -0.4858
 4954SOL    HW115761   2.611   2.097   0.469 -1.3352 -0.2917 -1.3989
 4954SOL    HW215762   2.680   2.125   0.324  0.6046  1.2553 -0.2288
 4955SOL     OW15763   6.386   3.108   0.414 -0.0258 -0.2050  0.4295
 4955SOL    HW115764   6.414   3.180   0.477  1.7672  0.1541 -0.7161
 4955SOL    HW215765   6.383   3.021   0.462 -0.3839  0.3146  1.3879
 4956SOL     OW15766   3.030   5.046   0.844 -0.1827  0.2115  0.4690
 4956SOL    HW115767   2.985   5.075   0.928 -1.3778 -0.2675  0.0177
 4956SOL    HW215768   2.998   5.102   0.768 -0.8761 -0.8558 -0.0450
 4957SOL     OW15769   6.125   3.216   0.031 -0.0111  0.6747  0.0008
 4957SOL    HW115770   6.079   3.132   0.060  0.1128  0.6233  0.0484
 4957SOL    HW215771   6.103   3.290   0.094 -0.1870  0.6982 -0.0885
 4958SOL     OW15772   3.444   0.389   2.673  0.1736 -0.3049  0.0072
 4958SOL    HW115773   3.516   0.386   2.604  0.3346 -0.9623  0.1957
 4958SOL    HW215774   3.457   0.469   2.732 -0.3986  0.6755 -1.1749
 4959SOL     OW15775   0.549   0.686   3.825 -0.2183 -0.3677 -0.1843
 4959SOL    HW115776   0.618   0.746   3.783 -1.8730 -0.1748 -2.8897
 4959SOL    HW215777   0.540   0.708   3.922  1.4211  1.5965 -0.4044
 4960SOL     OW15778   5.576   2.073   4.961 -0.2235 -0.0320 -0.3432
 4960SOL    HW115779   5.556   1.995   5.020 -0.5904  0.4619  0.2079
 4960SOL    HW215780   5.519   2.150   4.989 -0.7179  0.0892 -1.6239
 4961SOL     OW15781   5.905   0.783   4.384 -0.0007 -0.1001  0.0632
 4961SOL    HW115782   5.835   0.730   4.337  0.6873  2.6497 -4.8013
 4961SOL    HW215783   5.861   0.852   4.442 -1.3320  0.0244 -1.0203
 4962SOL     OW15784   6.208   3.200   5.325  0.1174  0.5171 -0.2949
 4962SOL    HW115785   6.298   3.160   5.340  0.6405  1.2051 -1.4839
 4962SOL    HW215786   6.155   3.142   5.263  1.0366  1.7904 -2.3761
 4963SOL     OW15787   5.260   6.119   0.649 -0.0945  0.2217 -0.5139
 4963SOL    HW115788   5.334   6.173   0.689  0.0829 -1.2951  1.3569
 4963SOL    HW215789   5.173   6.145   0.691  0.0039 -0.9490  0.4599
 4964SOL     OW15790   2.500   5.221   5.357  0.3388  0.7560 -0.4053
 4964SOL    HW115791   2.476   5.244   5.452  0.9010 -0.9355  0.1717
 4964SOL    HW215792   2.591   5.181   5.354  0.6725  1.5625 -1.7971
 4965SOL     OW15793   6.356   0.899   1.654 -0.0722 -0.4358 -0.0891
 4965SOL    HW115794   6.453   0.922   1.644 -0.2169 -0.1124 -0.8275
 4965SOL    HW215795   6.303   0.948   1.585 -0.5965 -1.6976 -0.6114
 4966SOL     OW15796   6.413   0.466   3.021 -0.2244 -0.0121 -0.2388
 4966SOL    HW115797   6.471   0.536   3.063 -0.3715 -0.6844  1.1812
 4966SOL    HW215798   6.367   0.414   3.094 -0.4292 -1.3129 -1.2618
 4967SOL     OW15799   6.556   2.306   5.096  0.1711 -0.1896 -0.3133
 4967SOL    HW115800   6.472   2.251   5.098 -0.0079  0.0771 -0.3632
 4967SOL    HW215801   6.593   2.314   5.189  0.2694 -0.5010 -0.3250
 4968SOL     OW15802   0.454   6.449   0.702  0.0288  0.7621 -0.6018
 4968SOL    HW115803   0.468   6.370   0.642  1.0473 -0.6973  1.3948
 4968SOL    HW215804   0.519   6.444   0.779  0.1657  3.6118 -0.4173
 4969SOL     OW15805   0.239   3.609   6.657 -0.3237 -0.3044  0.8859
 4969SOL    HW115806   0.272   3.543   6.725 -1.7601 -0.1560  1.7747
 4969SOL    HW215807   0.177   3.562   6.594 -1.0913  0.0998  1.3226
 4970SOL     OW15808   6.274   2.936   3.570 -0.4625 -0.2504  0.8689
 4970SOL    HW115809   6.251   2.990   3.651 -1.2367  0.4917  0.1873
 4970SOL    HW215810   6.189   2.902   3.528 -0.2698  1.1736 -0.8022
 4971SOL     OW15811   1.279   2.829   5.575 -0.2139 -0.6092 -0.2514
 4971SOL    HW115812   1.206   2.764   5.556 -1.6864  0.8939 -0.0101
 4971SOL    HW215813   1.285   2.845   5.674 -1.7970  1.6093 -0.4220
 4972SOL     OW15814   5.429   0.059   4.692 -0.0060 -0.0302 -0.9119
 4972SOL    HW115815   5.439   0.155   4.666 -0.4867  0.2732 -0.0386
 4972SOL    HW215816   5.357   0.051   4.761  0.6480 -0.9009 -0.3104
 4973SOL     OW15817   3.720   2.144   6.833  0.0262 -0.5747 -0.2498
 4973SOL    HW115818   3.768   2.104   6.755  0.3575  1.5755 -1.2132
 4973SOL    HW215819   3.758   2.107   6.918  0.6788 -1.8271 -1.0547
 4974SOL     OW15820   5.398   3.527   2.599 -0.2545 -0.1894  0.9328
 4974SOL    HW115821   5.484   3.548   2.646 -0.1372 -1.7851  1.4737
 4974SOL    HW215822   5.383   3.428   2.599 -2.1151  0.0579  0.8644
 4975SOL     OW15823   4.229   4.985   5.877 -0.5528 -0.6393 -0.1252
 4975SOL    HW115824   4.294   4.921   5.918 -0.9861 -1.0372 -0.0537
 4975SOL    HW215825   4.244   4.989   5.778 -0.1019 -0.3589 -0.0502
 4976SOL     OW15826   6.918   6.851   5.827 -0.4676 -0.3505  0.5880
 4976SOL    HW115827   6.888   6.869   5.920 -0.6681  1.8151  0.1461
 4976SOL    HW215828   7.009   6.889   5.814 -1.0672  0.7407 -0.5290
 4977SOL     OW15829   3.655   3.800   4.206  0.0915  0.0153 -0.0324
 4977SOL    HW115830   3.562   3.786   4.240  0.2239  0.2544  0.4337
 4977SOL    HW215831   3.673   3.736   4.132 -0.6764  0.4225 -0.5810
 4978SOL     OW15832   6.020   3.129   4.022 -0.1506 -0.0851  0.0919
 4978SOL    HW115833   6.034   3.193   3.947  0.2764 -0.5591 -0.2413
 4978SOL    HW215834   6.096   3.064   4.026 -1.1693 -1.3493 -0.3733
 4979SOL     OW15835   3.637   5.128   1.564  0.1321 -0.1551  0.0020
 4979SOL    HW115836   3.551   5.141   1.612 -0.1114  0.1639 -0.5080
 4979SOL    HW215837   3.684   5.047   1.600 -1.0625 -1.1985 -0.6769
 4980SOL     OW15838   1.450   3.970   6.891  0.5478 -0.7461 -0.4502
 4980SOL    HW115839   1.397   4.018   6.962  0.0793  0.2667 -1.4558
 4980SOL    HW215840   1.544   3.959   6.922  0.5742  0.4872 -0.0273
 4981SOL     OW15841   0.359   2.397   4.220 -0.1214  0.0777 -0.9488
 4981SOL    HW115842   0.345   2.471   4.287  0.0472 -1.4758  0.8746
 4981SOL    HW215843   0.314   2.314   4.253  0.8227 -1.0072 -2.3160
 4982SOL     OW15844   4.382   2.527   0.614  0.2662  0.8612 -0.2039
 4982SOL    HW115845   4.375   2.429   0.631  1.8727  1.0294  1.7956
 4982SOL    HW215846   4.337   2.549   0.527 -1.6513 -1.3465  0.1241
 4983SOL     OW15847   4.002   5.822   6.411  0.1604 -0.3059 -0.3939
 4983SOL    HW115848   3.976   5.727   6.395  0.4382 -0.4056 -0.2572
 4983SOL    HW215849   3.972   5.850   6.502 -0.3061 -0.1266 -0.5990
 4984SOL     OW15850   4.675   4.922   0.886  0.0590  0.5973 -0.3016
 4984SOL    HW115851   4.763   4.969   0.888  1.7805 -2.2616 -1.4351
 4984SOL    HW215852   4.635   4.931   0.795 -0.5563  1.4221  0.0456
 4985SOL     OW15853   6.906   6.573   5.468  0.4724 -0.3152 -0.1024
 4985SOL    HW115854   6.968   6.644   5.499  2.3504 -1.4810 -1.0205
 4985SOL    HW215855   6.901   6.573   5.368  0.0067 -1.0570 -0.0887
 4986SOL     OW15856   2.145   0.463   2.416 -0.4173  0.1622 -0.1272
 4986SOL    HW115857   2.054   0.458   2.375 -0.0748 -1.9366 -0.7053
 4986SOL    HW215858   2.197   0.382   2.393  1.3609  0.9665  0.8447
 4987SOL     OW15859   5.713   0.653   1.053  0.0631  0.0429 -0.6961
 4987SOL    HW115860   5.648   0.622   1.122 -0.6346 -0.2333 -1.4535
 4987SOL    HW215861   5.682   0.623   0.962  1.2440 -0.0785 -1.0789
 4988SOL     OW15862   2.825   5.376   5.817  0.2585  0.2133 -0.3929
 4988SOL    HW115863   2.899   5.342   5.759 -0.8035 -1.7762 -0.6962
 4988SOL    HW215864   2.863   5.429   5.893  2.1067 -1.5863  0.0279
 4989SOL     OW15865   2.265   6.429   1.058 -0.1307 -0.0638 -0.1262
 4989SOL    HW115866   2.339   6.404   1.120 -0.2260 -1.9036 -0.6948
 4989SOL    HW215867   2.239   6.349   1.003  0.3532  1.6252 -2.9833
 4990SOL     OW15868   5.436   2.819   2.368  0.7917 -0.0483 -0.0018
 4990SOL    HW115869   5.469   2.867   2.449  0.2030 -0.0463  0.2419
 4990SOL    HW215870   5.351   2.861   2.336  0.0671 -1.1214  0.4240
 4991SOL     OW15871   1.175   0.424   2.682 -0.0959  0.6849 -0.4236
 4991SOL    HW115872   1.253   0.415   2.621 -1.8177  0.2946 -2.7366
 4991SOL    HW215873   1.204   0.463   2.769  2.4320  1.7695 -1.6518
 4992SOL     OW15874   0.356   5.829   0.670 -0.9110 -0.3019  0.2873
 4992SOL    HW115875   0.317   5.850   0.581 -1.7851 -1.6738  0.3162
 4992SOL    HW215876   0.285   5.831   0.740 -0.3860 -0.0148  0.8229
 4993SOL     OW15877   0.430   1.443   5.758  0.4354  0.3040 -0.2059
 4993SOL    HW115878   0.502   1.462   5.824  0.5301 -0.7148 -0.0034
 4993SOL    HW215879   0.344   1.428   5.806  0.2369  0.7830 -0.4023
 4994SOL     OW15880   2.692   4.753   3.392  0.0691  0.2029  0.4962
 4994SOL    HW115881   2.633   4.714   3.463 -0.8497  0.9391  0.1545
 4994SOL    HW215882   2.676   4.706   3.306 -0.5690  0.8732  0.2350
 4995SOL     OW15883   2.542   5.038   3.834 -0.1503  0.0981 -0.1457
 4995SOL    HW115884   2.551   5.136   3.820  0.3401  0.1882  0.7195
 4995SOL    HW215885   2.451   5.008   3.806 -0.1517  0.7198 -0.8300
 4996SOL     OW15886   1.546   5.058   2.142  0.7226 -0.1578 -0.5693
 4996SOL    HW115887   1.544   4.996   2.064 -0.1476 -0.6647 -0.1555
 4996SOL    HW215888   1.486   5.024   2.214  0.6752  0.8612 -0.1014
 4997SOL     OW15889   3.629   0.858   5.218 -0.2018  0.1575 -0.3605
 4997SOL    HW115890   3.653   0.946   5.176 -1.0052 -0.5286 -2.3628
 4997SOL    HW215891   3.597   0.873   5.311  3.1078  1.6142  0.7182
 4998SOL     OW15892   1.669   1.401   6.683 -0.0887 -0.1627 -0.3549
 4998SOL    HW115893   1.648   1.306   6.707 -0.8515  0.2239  0.5528
 4998SOL    HW215894   1.602   1.462   6.725  2.2267  1.0717  1.8077
 4999SOL     OW15895   5.720   2.997   5.100 -0.1186 -0.4005 -0.3339
 4999SOL    HW115896   5.726   2.911   5.051  0.0248 -1.5084  1.5228
 4999SOL    HW215897   5.806   3.015   5.148 -0.5782  0.1202  0.3253
 5000SOL     OW15898   1.087   6.899   0.636 -0.3405  1.1046 -0.1033
 5000SOL    HW115899   1.133   6.988   0.647  1.0487  0.2791  1.1126
 5000SOL    HW215900   1.008   6.895   0.698  0.9796  0.6604  1.6421
 5001SOL     OW15901   3.562   1.404   5.196  0.0384  0.3459  0.2390
 5001SOL    HW115902   3.518   1.489   5.224  0.5769  0.7557 -0.1145
 5001SOL    HW215903   3.659   1.422   5.176  0.1327 -0.3260  0.0533
 5002SOL     OW15904   4.352   2.050   2.683 -0.7284 -0.2147 -0.3635
 5002SOL    HW115905   4.369   1.980   2.613  1.0840 -0.5082  0.3220
 5002SOL    HW215906   4.279   2.019   2.744 -0.6771 -1.0249 -0.6947
 5003SOL     OW15907   5.648   0.699   2.797  0.3173  0.3684 -0.1323
 5003SOL    HW115908   5.666   0.604   2.772 -1.0887 -0.6228  2.2145
 5003SOL    HW215909   5.626   0.703   2.895 -0.9811  2.9226 -0.4524
 5004SOL     OW15910   0.685   3.484   2.149 -0.1096  0.2631 -0.1303
 5004SOL    HW115911   0.732   3.571   2.134 -2.1682  1.0948 -2.5666
 5004SOL    HW215912   0.712   3.420   2.077  0.3053 -0.6291  0.8132
 5005SOL     OW15913   6.243   2.536   6.875 -0.4992  0.2043  0.3224
 5005SOL    HW115914   6.193   2.497   6.798  0.3208 -0.0152 -0.1109
 5005SOL    HW215915   6.295   2.464   6.921 -0.1424  0.5283  0.4321
 5006SOL     OW15916   6.976   4.622   2.142  0.8041  0.3281 -0.7297
 5006SOL    HW115917   7.008   4.557   2.211  0.3060  0.7670 -0.0790
 5006SOL    HW215918   6.939   4.704   2.187  1.5415  1.1262 -1.5366
 5007SOL     OW15919   5.472   3.739   5.212 -0.0718  0.1712  0.0970
 5007SOL    HW115920   5.522   3.823   5.235 -0.0440  0.6587 -1.5991
 5007SOL    HW215921   5.383   3.763   5.173 -0.7607 -0.6491  1.1214
 5008SOL     OW15922   4.078   2.360   6.119  0.0642  0.3964 -0.3964
 5008SOL    HW115923   4.086   2.294   6.044  2.3390  1.3856 -1.0850
 5008SOL    HW215924   3.993   2.342   6.169 -0.1528 -2.0550 -1.4853
 5009SOL     OW15925   4.863   0.626   0.394 -0.1414 -0.2854 -0.0383
 5009SOL    HW115926   4.884   0.558   0.464  0.5977 -1.0377 -0.9581
 5009SOL    HW215927   4.764   0.637   0.386 -0.5607 -3.8907 -2.2110
 5010SOL     OW15928   2.351   1.740   6.742  0.1461 -0.1121 -0.1325
 5010SOL    HW115929   2.433   1.744   6.800  0.9343 -0.9285 -1.1498
 5010SOL    HW215930   2.376   1.706   6.652 -1.1209  0.8208 -0.8584
 5011SOL     OW15931   4.043   3.906   4.546  0.0799  0.0726 -0.8167
 5011SOL    HW115932   4.086   3.872   4.462  0.1653  0.4050 -0.9091
 5011SOL    HW215933   4.091   3.868   4.625 -0.0198 -0.2663 -0.9150
 5012SOL     OW15934   2.474   4.436   3.742  0.1106  0.2023 -0.2988
 5012SOL    HW115935   2.375   4.426   3.733  0.2321 -0.9833 -0.4639
 5012SOL    HW215936   2.498   4.446   3.838  0.0077 -1.8642 -0.0288
 5013SOL     OW15937   3.736   3.371   4.265 -0.3435  0.4016 -0.1106
 5013SOL    HW115938   3.664   3.335   4.205 -0.9449  0.1933  0.7151
 5013SOL    HW215939   3.776   3.452   4.222 -0.8927  0.3711 -0.7119
 5014SOL     OW15940   2.038   3.516   4.008 -0.1546  0.1111 -0.1018
 5014SOL    HW115941   2.079   3.546   4.095  2.7966 -1.1242 -0.9481
 5014SOL    HW215942   2.003   3.596   3.959  3.5335  1.8098 -0.3474
 5015SOL     OW15943   1.873   2.261   0.182 -0.5730  0.3726 -0.2114
 5015SOL    HW115944   1.958   2.257   0.235 -0.8236 -0.0717  0.1699
 5015SOL    HW215945   1.894   2.250   0.085  0.0068  2.3153 -0.3451
 5016SOL     OW15946   6.615   4.630   1.702  0.1643 -0.3347  0.1660
 5016SOL    HW115947   6.644   4.651   1.795  0.6885 -0.9512  0.1515
 5016SOL    HW215948   6.545   4.558   1.704 -1.3135  1.0475  0.1934
 5017SOL     OW15949   1.494   3.587   3.464  0.1559 -0.6816 -0.2658
 5017SOL    HW115950   1.478   3.684   3.479 -1.6903 -1.1729  1.3025
 5017SOL    HW215951   1.592   3.568   3.471  0.4916  0.9545 -0.1045
 5018SOL     OW15952   6.052   4.379   0.986  0.3117 -0.0955 -0.5394
 5018SOL    HW115953   6.072   4.473   0.957 -0.9582  0.2760 -0.2767
 5018SOL    HW215954   5.972   4.346   0.937 -0.8726 -0.0633  1.2804
 5019SOL     OW15955   0.963   4.165   6.354  0.0814 -0.0363  0.7727
 5019SOL    HW115956   0.943   4.068   6.370 -2.1214  0.1363 -0.5095
 5019SOL    HW215957   0.913   4.221   6.421  1.0745  0.2523  1.2943
 5020SOL     OW15958   2.367   4.353   0.446 -0.3413 -0.1429  0.1635
 5020SOL    HW115959   2.428   4.299   0.504 -0.8988 -1.0290 -0.0479
 5020SOL    HW215960   2.402   4.354   0.353 -0.1879  0.0920  0.2230
 5021SOL     OW15961   3.778   3.167   5.972  0.5736 -0.3135 -0.4805
 5021SOL    HW115962   3.787   3.097   6.043  2.5811  1.0775  0.7365
 5021SOL    HW215963   3.681   3.188   5.959  0.1294 -0.7213  1.7435
 5022SOL     OW15964   1.571   2.244   5.359 -0.2554 -1.3584 -0.3543
 5022SOL    HW115965   1.588   2.187   5.278 -0.0900  0.4332 -1.6536
 5022SOL    HW215966   1.590   2.192   5.442  1.1420 -2.7757 -1.5073
 5023SOL     OW15967   6.750   6.156   3.069  0.4359 -0.3888  0.2988
 5023SOL    HW115968   6.833   6.140   3.015  0.6470  0.1315  0.4631
 5023SOL    HW215969   6.708   6.241   3.040  1.4929  0.8214  2.1024
 5024SOL     OW15970   0.503   5.456   2.848  0.4912  0.1495 -0.3277
 5024SOL    HW115971   0.493   5.542   2.898  2.4728  0.2593 -0.0066
 5024SOL    HW215972   0.414   5.422   2.820 -0.3487  2.2670 -0.3964
 5025SOL     OW15973   6.091   3.506   5.061  0.2989 -0.1420  0.4056
 5025SOL    HW115974   6.110   3.449   4.981  0.3074 -0.7603  0.8464
 5025SOL    HW215975   6.153   3.482   5.135 -0.9487 -0.9213  1.2394
 5026SOL     OW15976   3.028   3.752   5.294  0.0506 -0.1804  0.5997
 5026SOL    HW115977   3.004   3.802   5.377 -2.2106  0.6415 -0.4685
 5026SOL    HW215978   3.093   3.805   5.240 -1.0032  0.8530  0.3064
 5027SOL     OW15979   4.496   5.028   5.008 -0.1019 -0.5073 -0.7282
 5027SOL    HW115980   4.435   5.073   5.073  0.6981  0.9405 -0.9485
 5027SOL    HW215981   4.504   4.931   5.032 -2.7781 -0.8569 -0.9265
 5028SOL     OW15982   5.178   4.954   4.202  0.0929  0.0432 -0.3772
 5028SOL    HW115983   5.274   4.943   4.177 -0.2006 -2.5880 -0.6063
 5028SOL    HW215984   5.130   4.867   4.189 -2.8499  1.7900 -2.4573
 5029SOL     OW15985   4.910   1.808   0.687  0.2707 -0.2735  0.7424
 5029SOL    HW115986   4.983   1.741   0.688  0.4071 -0.1971 -0.7939
 5029SOL    HW215987   4.948   1.900   0.675 -0.0637 -0.3345 -1.2473
 5030SOL     OW15988   4.752   4.347   6.295  0.2413 -0.0812  0.5369
 5030SOL    HW115989   4.727   4.256   6.330 -1.5363  0.4410  0.7444
 5030SOL    HW215990   4.678   4.411   6.315  0.6724  1.0114 -1.2016
 5031SOL     OW15991   6.228   0.593   3.557 -0.1283 -0.0192  0.5442
 5031SOL    HW115992   6.228   0.591   3.657  1.1788 -0.4146  0.5455
 5031SOL    HW215993   6.236   0.687   3.526 -1.8808  0.2512  0.7752
 5032SOL     OW15994   4.288   6.252   6.682  0.5195 -0.5147  0.2486
 5032SOL    HW115995   4.331   6.330   6.636 -0.4729  0.5647  1.0929
 5032SOL    HW215996   4.220   6.211   6.621 -0.5676  0.7109  0.5966
 5033SOL     OW15997   4.839   0.443   3.600 -0.1559 -0.2769  0.2584
 5033SOL    HW115998   4.930   0.483   3.602 -0.0387 -0.5743  0.9039
 5033SOL    HW215999   4.812   0.426   3.505 -0.6999  2.4180 -0.1413
 5034SOL     OW16000   3.796   0.184   4.958  0.1872  0.0541 -0.3934
 5034SOL    HW116001   3.880   0.144   4.923  1.2432  0.4568  1.5225
 5034SOL    HW216002   3.723   0.116   4.957  1.2905 -1.1747  0.5251
 5035SOL     OW16003   5.766   3.931   2.539  0.4816  0.0125  0.0930
 5035SOL    HW116004   5.828   3.880   2.598  0.8897  0.8409  0.4057
 5035SOL    HW216005   5.676   3.936   2.582  0.8963  1.0068  0.9071
 5036SOL     OW16006   1.199   6.694   4.387  0.5619 -0.0088 -0.1348
 5036SOL    HW116007   1.187   6.608   4.339  0.6668  0.3107 -0.7441
 5036SOL    HW216008   1.287   6.734   4.362 -0.5321  1.4876 -1.8192
 5037SOL     OW16009   6.470   7.015   0.058  0.2813  0.3272  0.1817
 5037SOL    HW116010   6.543   6.975   0.113  1.1429 -1.0351 -1.8255
 5037SOL    HW216011   6.388   6.958   0.065 -0.3649  1.4073  1.7900
 5038SOL     OW16012   1.783   5.463   0.009 -0.2075  0.2582  0.0173
 5038SOL    HW116013   1.759   5.546  -0.042 -0.4228 -0.7085 -1.4978
 5038SOL    HW216014   1.881   5.465   0.031 -0.0865  0.6329 -0.5426
 5039SOL     OW16015   3.137   2.372   0.129 -0.4869  0.4940  0.3792
 5039SOL    HW116016   3.068   2.442   0.148  0.1344  0.9976  0.8322
 5039SOL    HW216017   3.203   2.369   0.205 -1.6280 -1.9996  1.3989
 5040SOL     OW16018   4.819   5.953   1.818  0.9591 -0.3460 -0.2302
 5040SOL    HW116019   4.815   5.901   1.733  1.2997  0.8661 -1.0196
 5040SOL    HW216020   4.871   6.038   1.803  0.4347  0.2242  1.0082
 5041SOL     OW16021   0.729   2.470   6.334 -0.5927  0.2241 -0.4593
 5041SOL    HW116022   0.723   2.569   6.321 -1.4649  0.5050  1.7578
 5041SOL    HW216023   0.723   2.448   6.431  1.0021 -1.9377 -0.7777
 5042SOL     OW16024   3.472   0.619   5.439 -0.4504 -0.6329  0.5474
 5042SOL    HW116025   3.524   0.704   5.449 -1.8945  0.2279  1.1034
 5042SOL    HW216026   3.494   0.557   5.515 -0.3780 -0.1897  0.8934
 5043SOL     OW16027   5.470   5.508   5.194 -0.3808 -0.4710 -0.5302
 5043SOL    HW116028   5.545   5.477   5.135 -0.4062 -0.4187 -0.5904
 5043SOL    HW216029   5.497   5.498   5.289  0.6180  1.6942 -0.5319
 5044SOL     OW16030   3.366   1.073   1.566 -0.2327  0.6779  0.4482
 5044SOL    HW116031   3.453   1.075   1.617  0.2297  0.4007 -0.3155
 5044SOL    HW216032   3.384   1.086   1.469 -0.6965 -2.3723 -0.1446
 5045SOL     OW16033   1.806   5.098   5.816  0.0351  0.8482  0.4050
 5045SOL    HW116034   1.894   5.054   5.798 -0.9623 -1.9772  1.8798
 5045SOL    HW216035   1.823   5.188   5.857  2.3049 -0.0987  1.7673
 5046SOL     OW16036   1.178   3.495   4.059  0.8189 -0.2741  1.0344
 5046SOL    HW116037   1.181   3.587   4.019 -0.7641 -1.0501 -1.0945
 5046SOL    HW216038   1.095   3.485   4.114  1.1609 -0.3289  1.5417
 5047SOL     OW16039   5.201   0.336   1.023  0.6159  0.3112 -0.1453
 5047SOL    HW116040   5.154   0.415   1.060  0.8916 -0.0980  1.1171
 5047SOL    HW216041   5.270   0.367   0.956  0.0782  1.0528 -0.3701
 5048SOL     OW16042   0.447   6.719   3.698 -0.3072  0.2818 -0.3128
 5048SOL    HW116043   0.446   6.818   3.711 -0.4261  0.2322  0.0628
 5048SOL    HW216044   0.360   6.681   3.729 -0.2373  0.0531 -0.3964
 5049SOL     OW16045   4.893   3.684   2.819 -0.0401 -0.4159 -0.6156
 5049SOL    HW116046   4.877   3.658   2.914  0.4779 -0.0731 -0.4248
 5049SOL    HW216047   4.891   3.603   2.761  2.8179 -1.1370  0.1409
 5050SOL     OW16048   4.648   2.149   1.732  0.1899  0.3982  0.2714
 5050SOL    HW116049   4.619   2.244   1.748  1.2104  0.6260  0.8119
 5050SOL    HW216050   4.670   2.105   1.819 -1.2706 -0.6888  0.1372
 5051SOL     OW16051   5.040   4.810   3.437  0.5354 -0.0093  0.3032
 5051SOL    HW116052   5.092   4.820   3.522 -0.5464 -4.3495  1.7741
 5051SOL    HW216053   5.103   4.800   3.361  1.5577  2.6825  0.6997
 5052SOL     OW16054   4.783   4.766   5.194 -0.2608  0.4382  0.1607
 5052SOL    HW116055   4.863   4.760   5.135  0.2707  1.3797  0.7605
 5052SOL    HW216056   4.701   4.740   5.142  0.4212 -0.5507 -0.4467
 5053SOL     OW16057   2.083   3.603   4.272  0.0027 -0.2792 -0.1739
 5053SOL    HW116058   2.003   3.589   4.329  0.8719 -0.6580  0.9856
 5053SOL    HW216059   2.098   3.701   4.258 -0.2120 -0.1833  0.2592
 5054SOL     OW16060   4.904   2.950   0.122  0.7113 -0.0265 -0.3493
 5054SOL    HW116061   4.974   2.882   0.101  0.7149 -0.3620  0.6874
 5054SOL    HW216062   4.821   2.930   0.069  0.3225 -1.5424  0.7503
 5055SOL     OW16063   4.533   2.550   3.542  0.0482 -1.0873  0.0124
 5055SOL    HW116064   4.436   2.527   3.552 -0.6414  1.8415  0.8793
 5055SOL    HW216065   4.583   2.521   3.623 -0.4518 -1.0109  0.3519
 5056SOL     OW16066   0.583   5.178   4.346  0.3272  0.3585  0.0009
 5056SOL    HW116067   0.517   5.173   4.271 -0.4406  0.0114  0.6757
 5056SOL    HW216068   0.654   5.109   4.333  0.8034  0.9970 -0.9420
 5057SOL     OW16069   3.210   2.905   5.817  0.6084 -0.2929  0.6592
 5057SOL    HW116070   3.180   2.970   5.747 -1.2711 -1.4684  0.3038
 5057SOL    HW216071   3.291   2.856   5.785 -0.0644 -0.6182 -0.5979
 5058SOL     OW16072   3.054   3.911   6.023  0.2824 -0.1713  0.0456
 5058SOL    HW116073   3.152   3.917   6.002  0.3759  0.4303  0.6166
 5058SOL    HW216074   3.033   3.818   6.053  0.5247 -0.5077 -0.7990
 5059SOL     OW16075   0.479   0.562   0.494  0.1328 -0.1711 -0.3062
 5059SOL    HW116076   0.575   0.579   0.514  0.1840 -0.5205 -0.2520
 5059SOL    HW216077   0.461   0.463   0.493 -0.3128 -0.1021  0.0950
 5060SOL     OW16078   6.744   3.516   0.769 -0.1187 -0.0533 -0.4505
 5060SOL    HW116079   6.732   3.566   0.855  0.7292  0.2354 -0.4873
 5060SOL    HW216080   6.655   3.494   0.730 -0.5282 -0.5357  0.6977
 5061SOL     OW16081   6.069   5.296   4.234  0.0092  0.2957  0.1564
 5061SOL    HW116082   6.169   5.301   4.236  0.0547 -0.5036  1.2094
 5061SOL    HW216083   6.035   5.274   4.326 -0.8997 -2.7666 -0.7824
 5062SOL     OW16084   3.472   3.276   6.183 -0.0521 -0.1257  0.3111
 5062SOL    HW116085   3.395   3.217   6.209 -0.4154 -0.0740 -0.5795
 5062SOL    HW216086   3.486   3.269   6.084 -0.9163  2.2035 -0.0370
 5063SOL     OW16087   3.625   5.413   1.798  0.0621 -0.1924  0.1500
 5063SOL    HW116088   3.576   5.334   1.834  2.1162 -1.1372  1.0155
 5063SOL    HW216089   3.566   5.494   1.803 -1.6208 -1.3924  0.4585
 5064SOL     OW16090   6.792   4.421   6.946 -0.1698 -0.3525  0.0107
 5064SOL    HW116091   6.781   4.333   6.992 -2.3476  0.4069  1.0669
 5064SOL    HW216092   6.812   4.406   6.849  3.0322 -1.9832  0.7866
 5065SOL     OW16093   4.478   6.337   4.093  0.2696 -0.2959  0.3468
 5065SOL    HW116094   4.425   6.252   4.082  2.4119 -1.5156 -1.1981
 5065SOL    HW216095   4.506   6.371   4.004 -0.4039  2.0331  0.9476
 5066SOL     OW16096   4.521   0.140   6.535 -0.3316  0.0392  0.1432
 5066SOL    HW116097   4.570   0.074   6.592 -0.8854  0.6112  1.3136
 5066SOL    HW216098   4.482   0.212   6.593 -1.6006  0.2107 -0.8883
 5067SOL     OW16099   1.711   4.033   5.365  0.2170 -0.1554 -0.2912
 5067SOL    HW116100   1.770   3.969   5.414  0.4386 -0.4355 -0.9034
 5067SOL    HW216101   1.617   3.998   5.365  0.6131 -1.4173 -2.0816
 5068SOL     OW16102   6.458   1.975   4.709  0.2041  0.6435  0.2569
 5068SOL    HW116103   6.448   1.890   4.762 -2.7283  0.2159 -0.8136
 5068SOL    HW216104   6.436   1.957   4.613  1.4627  2.2641 -0.3851
 5069SOL     OW16105   3.876   3.659   0.206 -0.6918  0.8656  0.1120
 5069SOL    HW116106   3.886   3.576   0.260 -1.5302  1.2297  0.8536
 5069SOL    HW216107   3.831   3.638   0.119  0.6210  0.2845 -0.4562
 5070SOL     OW16108   4.655   1.721   1.158 -0.2554 -0.0734 -0.3902
 5070SOL    HW116109   4.725   1.738   1.227 -0.9825  1.5479 -0.0273
 5070SOL    HW216110   4.700   1.712   1.068  0.4711  0.3393 -0.0794
 5071SOL     OW16111   6.854   2.937   5.604  0.3931 -0.1099 -0.5595
 5071SOL    HW116112   6.922   2.952   5.675 -0.0774  0.0226 -0.1304
 5071SOL    HW216113   6.899   2.927   5.515  0.8407  2.1307 -0.6188
 5072SOL     OW16114   3.363   1.245   5.058  0.4979  0.4002  0.2549
 5072SOL    HW116115   3.322   1.163   5.096 -0.5929  0.7197 -0.2067
 5072SOL    HW216116   3.399   1.302   5.132 -1.8654  1.1681  0.9021
 5073SOL     OW16117   3.632   2.170   4.594  0.1937  0.0348 -0.6058
 5073SOL    HW116118   3.670   2.078   4.578  0.0286  0.3561 -3.5610
 5073SOL    HW216119   3.707   2.236   4.600  0.3089 -0.2218  1.4315
 5074SOL     OW16120   1.294   1.871   6.876  0.4774  0.0497 -0.0578
 5074SOL    HW116121   1.375   1.918   6.910 -0.4415  0.5412  1.5499
 5074SOL    HW216122   1.308   1.772   6.880 -0.6318 -0.2020  5.0739
 5075SOL     OW16123   0.833   5.276   5.030 -0.0045  0.1786  0.2484
 5075SOL    HW116124   0.866   5.259   4.937  1.7795 -1.1203  1.0503
 5075SOL    HW216125   0.898   5.336   5.077 -0.3641  0.0324  0.9405
 5076SOL     OW16126   5.556   6.822   5.427  0.7361 -0.1303  0.0792
 5076SOL    HW116127   5.574   6.856   5.520  0.4091  1.8065 -0.5253
 5076SOL    HW216128   5.458   6.816   5.412  0.7879 -0.5085 -0.1299
 5077SOL     OW16129   2.251   6.627   5.400  0.3527 -0.1161 -0.4887
 5077SOL    HW116130   2.321   6.559   5.379 -0.7065 -1.3977 -0.0107
 5077SOL    HW216131   2.282   6.683   5.477  0.3420 -1.4991  0.5549
 5078SOL     OW16132   2.477   6.965   3.575  0.0162 -0.2165 -0.6405
 5078SOL    HW116133   2.505   6.901   3.647  2.1848  1.4645  0.1098
 5078SOL    HW216134   2.380   6.988   3.587  0.5065  0.7213  2.3683
 5079SOL     OW16135   4.394   3.079   6.564 -0.1039  0.0458 -0.4207
 5079SOL    HW116136   4.314   3.128   6.528  0.3717  0.3758 -1.0385
 5079SOL    HW216137   4.363   3.007   6.626 -0.8377  0.9024  0.2505
 5080SOL     OW16138   4.482   3.113   5.563  0.2306 -0.1647 -0.4116
 5080SOL    HW116139   4.495   3.021   5.601  0.3626 -0.4464 -1.1157
 5080SOL    HW216140   4.533   3.121   5.477 -0.6871  0.1913 -0.9346
 5081SOL     OW16141   3.591   0.245   5.736  0.0653  0.0845 -0.0322
 5081SOL    HW116142   3.635   0.330   5.709 -1.2806  1.4102  1.7522
 5081SOL    HW216143   3.494   0.248   5.711 -0.6985  0.4170  2.7222
 5082SOL     OW16144   1.323   6.139   0.733 -0.3334  0.3255  0.1557
 5082SOL    HW116145   1.370   6.063   0.688  0.6272  0.0573  1.5507
 5082SOL    HW216146   1.229   6.146   0.699  0.0700 -0.4404 -1.1733
 5083SOL     OW16147   6.511   2.309   2.457  0.1322  0.2813  0.1965
 5083SOL    HW116148   6.526   2.378   2.386 -1.5133  1.8175  1.2453
 5083SOL    HW216149   6.416   2.278   2.453  1.0128 -2.6072 -0.7504
 5084SOL     OW16150   0.978   2.719   6.613  0.2907 -0.1809 -0.5406
 5084SOL    HW116151   0.981   2.720   6.713 -1.7302  0.2519 -0.4445
 5084SOL    HW216152   0.887   2.692   6.583  0.8061 -0.0758 -2.2820
 5085SOL     OW16153   0.127   6.689   0.478 -0.2498 -0.3814  0.0925
 5085SOL    HW116154   0.073   6.630   0.538  0.2044  1.2914  2.2899
 5085SOL    HW216155   0.133   6.780   0.518  2.9005 -0.0551 -0.8466
 5086SOL     OW16156   6.089   6.050   0.172 -0.7898  0.1403  0.2193
 5086SOL    HW116157   6.131   6.053   0.082  1.1046 -0.6667  1.0274
 5086SOL    HW216158   6.082   6.143   0.209  0.1095  0.3144 -0.0246
 5087SOL     OW16159   2.944   5.326   6.598  0.2452 -0.0229 -0.0456
 5087SOL    HW116160   2.884   5.314   6.677 -1.0301 -0.9237 -1.0927
 5087SOL    HW216161   2.913   5.406   6.545  0.2000 -0.2583 -0.3793
 5088SOL     OW16162   6.718   1.713   2.493  0.2574  0.6514 -0.7277
 5088SOL    HW116163   6.681   1.804   2.476 -0.1416  1.1895  2.4075
 5088SOL    HW216164   6.644   1.649   2.513  0.6903  0.5344  0.6311
 5089SOL     OW16165   6.384   4.269   2.296  0.0915  0.8882  0.4314
 5089SOL    HW116166   6.332   4.329   2.235 -0.4067  1.1864  1.1354
 5089SOL    HW216167   6.353   4.283   2.390 -0.1481 -0.6097  0.5911
 5090SOL     OW16168   0.260   4.193   4.894 -0.2179 -0.3682 -0.1643
 5090SOL    HW116169   0.310   4.127   4.837  0.1365 -0.1010 -0.1702
 5090SOL    HW216170   0.326   4.249   4.944 -0.5272 -0.4434  0.3268
 5091SOL     OW16171   3.376   0.048   3.719 -0.0641 -0.2014  0.8942
 5091SOL    HW116172   3.339   0.057   3.812 -0.2052  0.7919  0.7565
 5091SOL    HW216173   3.331  -0.027   3.672  0.6806 -1.3488  1.9406
 5092SOL     OW16174   0.391   0.311   2.804  0.0814  0.2622 -0.1105
 5092SOL    HW116175   0.317   0.374   2.780  0.2253 -0.2148 -1.9983
 5092SOL    HW216176   0.461   0.314   2.733  0.1421 -1.9400 -0.2146
 5093SOL     OW16177   4.832   5.608   5.289 -0.7487 -0.5300  0.1269
 5093SOL    HW116178   4.895   5.638   5.359  0.0024  0.2058 -0.8367
 5093SOL    HW216179   4.820   5.509   5.295  2.1996 -1.0541 -0.9821
 5094SOL     OW16180   2.778   4.837   4.405 -0.5521  0.0035 -0.6961
 5094SOL    HW116181   2.684   4.858   4.431  0.4241  1.9990  1.5725
 5094SOL    HW216182   2.826   4.796   4.483  1.0272  1.0565 -1.0729
 5095SOL     OW16183   6.064   6.267   1.557  0.5459 -0.3634 -0.2111
 5095SOL    HW116184   6.021   6.231   1.474  1.3546  1.4567 -1.4878
 5095SOL    HW216185   6.162   6.251   1.553  0.7682  0.9215 -0.2799
 5096SOL     OW16186   1.987   6.239   1.057  0.1769 -0.2171 -0.3992
 5096SOL    HW116187   2.051   6.235   0.980  0.4217  1.3607 -0.3054
 5096SOL    HW216188   1.916   6.307   1.038 -1.2970 -1.6701 -0.3340
 5097SOL     OW16189   1.833   6.524   4.920 -0.0077 -0.7177 -0.0136
 5097SOL    HW116190   1.920   6.574   4.926  0.9154 -1.9687 -1.7785
 5097SOL    HW216191   1.832   6.452   4.989  1.0445 -1.6069 -0.8768
 5098SOL     OW16192   2.557   1.957   0.022 -0.3672 -0.5480 -0.1938
 5098SOL    HW116193   2.508   2.034  -0.019 -1.4179 -1.6440 -1.0783
 5098SOL    HW216194   2.640   1.990   0.066 -1.0212  1.1431 -0.1463
 5099SOL     OW16195   2.105   5.662   3.254 -0.0471 -0.7697  1.1871
 5099SOL    HW116196   2.122   5.566   3.273 -1.7713 -1.1306  1.0725
 5099SOL    HW216197   2.012   5.674   3.221  0.6647  0.7252 -0.4846
 5100SOL     OW16198   1.502   1.968   4.169  0.2454 -0.3133 -0.3985
 5100SOL    HW116199   1.550   1.883   4.145 -0.2808 -0.7338  0.0242
 5100SOL    HW216200   1.561   2.023   4.229  1.1566  0.2820 -1.8037
 5101SOL     OW16201   5.449   4.209   3.458  0.0755 -0.0566 -0.2005
 5101SOL    HW116202   5.508   4.277   3.501 -2.0595  1.1023  1.0553
 5101SOL    HW216203   5.415   4.146   3.528 -1.0748  0.0129 -0.6862
 5102SOL     OW16204   0.382   4.124   0.437 -0.4323  0.0438 -0.3551
 5102SOL    HW116205   0.354   4.079   0.522  0.6272 -0.3359 -0.1924
 5102SOL    HW216206   0.429   4.058   0.379  0.9227  0.8567 -0.2213
 5103SOL     OW16207   4.509   5.235   0.524  0.1575 -0.0630  0.2425
 5103SOL    HW116208   4.443   5.210   0.453 -1.5092 -0.3004  1.7974
 5103SOL    HW216209   4.475   5.205   0.613  0.8461  2.5929  1.5044
 5104SOL     OW16210   1.363   0.334   4.246 -0.1295  0.0339  0.1115
 5104SOL    HW116211   1.320   0.303   4.161 -0.8158 -1.7457  1.0494
 5104SOL    HW216212   1.376   0.255   4.307 -0.4870  1.4005  2.0199
 5105SOL     OW16213   6.629   5.164   6.880  0.1812 -0.2860  0.4347
 5105SOL    HW116214   6.698   5.143   6.811 -0.6585  0.1680 -0.5729
 5105SOL    HW216215   6.664   5.234   6.942  0.4396  0.3380 -0.3953
 5106SOL     OW16216   1.505   3.676   1.730 -0.1061 -0.0614 -0.0109
 5106SOL    HW116217   1.463   3.682   1.639 -1.4625  0.0226  0.5987
 5106SOL    HW216218   1.600   3.707   1.725 -0.1305 -0.1658 -1.4178
 5107SOL     OW16219   6.872   3.621   6.673 -0.5663 -0.0026  0.5113
 5107SOL    HW116220   6.853   3.583   6.764 -1.3058 -1.5547 -0.2688
 5107SOL    HW216221   6.807   3.584   6.607  0.5299  0.4235 -0.8394
 5108SOL     OW16222   3.220   5.598   2.773  0.9703 -0.8344 -0.1254
 5108SOL    HW116223   3.293   5.658   2.740  3.4992 -3.8219 -0.5143
 5108SOL    HW216224   3.248   5.559   2.861 -0.5316 -1.5161  0.0722
 5109SOL     OW16225   2.039   3.450   1.275 -0.2417  0.5135 -0.3268
 5109SOL    HW116226   2.026   3.355   1.248 -0.4108  1.0358 -2.2314
 5109SOL    HW216227   2.046   3.456   1.375  0.6236 -1.5804 -0.2082
 5110SOL     OW16228   3.216   5.708   0.599 -0.0208 -0.3168  0.3777
 5110SOL    HW116229   3.249   5.639   0.533 -1.4183 -0.3450 -0.3364
 5110SOL    HW216230   3.210   5.797   0.554  0.9941  0.1349  1.0775
 5111SOL     OW16231   4.515   2.210   1.236 -0.8271 -0.3612 -0.3787
 5111SOL    HW116232   4.614   2.197   1.235 -0.8844 -0.8442 -1.7294
 5111SOL    HW216233   4.492   2.300   1.197 -0.9459 -0.5596 -0.7763
 5112SOL     OW16234   2.278   0.743   5.236 -0.3367 -0.3009 -0.0521
 5112SOL    HW116235   2.284   0.816   5.304  1.1778 -0.6972  0.2655
 5112SOL    HW216236   2.192   0.693   5.248 -1.2692  1.2076 -0.0849
 5113SOL     OW16237   5.950   1.779   6.839  0.5259  0.1651  0.3741
 5113SOL    HW116238   5.980   1.874   6.836 -3.0861  1.4951 -3.4546
 5113SOL    HW216239   5.863   1.773   6.888 -0.9179 -0.4287 -2.1070
 5114SOL     OW16240   3.131   1.001   4.910 -0.4829  0.1430 -0.6141
 5114SOL    HW116241   3.055   1.065   4.903  0.9625  2.1837  1.0075
 5114SOL    HW216242   3.176   1.011   4.998 -0.4131 -3.5287 -0.0736
 5115SOL     OW16243   2.721   0.663   0.562  0.0636 -0.1365  0.9503
 5115SOL    HW116244   2.657   0.683   0.488 -0.7842 -1.6536  1.2212
 5115SOL    HW216245   2.705   0.725   0.639 -0.2984  0.2429  0.5712
 5116SOL     OW16246   5.249   6.695   4.188 -0.6411 -0.1403  0.5820
 5116SOL    HW116247   5.218   6.617   4.133 -0.4418 -0.2572  0.6342
 5116SOL    HW216248   5.249   6.669   4.284 -0.5299 -0.0907  0.5956
 5117SOL     OW16249   3.037   1.804   2.886  0.1443 -0.5084 -0.3024
 5117SOL    HW116250   3.083   1.884   2.846 -2.6346  0.8506 -1.0075
 5117SOL    HW216251   3.023   1.735   2.814  2.5910 -1.7923  0.3166
 5118SOL     OW16252   5.394   5.285   4.371 -0.1877 -0.5244  0.7170
 5118SOL    HW116253   5.472   5.346   4.386 -0.7875 -0.1206  2.4092
 5118SOL    HW216254   5.390   5.218   4.445 -1.0918 -0.9195  0.3187
 5119SOL     OW16255   5.748   3.486   1.730 -0.4817 -0.2275  0.0268
 5119SOL    HW116256   5.784   3.406   1.779 -1.4310 -1.6291 -1.4568
 5119SOL    HW216257   5.707   3.550   1.796  1.3604 -0.3489  1.3618
 5120SOL     OW16258   2.409   6.967   0.612 -0.1697  0.2941  0.2876
 5120SOL    HW116259   2.379   6.889   0.666 -0.0436  0.2580  0.3059
 5120SOL    HW216260   2.365   6.965   0.522  0.5532 -0.3239 -0.0674
 5121SOL     OW16261   1.467   5.641   0.259 -0.1191  0.2224  0.1231
 5121SOL    HW116262   1.526   5.584   0.317  1.0127 -0.0335 -1.2148
 5121SOL    HW216263   1.466   5.604   0.166  0.0829  1.9619 -0.6142
 5122SOL     OW16264   3.833   5.942   4.754 -0.3914  0.0362  1.0954
 5122SOL    HW116265   3.911   6.005   4.757  0.6221 -1.1903  1.1001
 5122SOL    HW216266   3.817   5.913   4.660 -1.7215  1.2983  0.8858
 5123SOL     OW16267   3.416   4.640   6.361 -0.0978  0.1090 -0.5756
 5123SOL    HW116268   3.468   4.640   6.446 -0.2335  1.0524 -0.4815
 5123SOL    HW216269   3.337   4.700   6.370 -0.3445 -0.1043 -1.2315
 5124SOL     OW16270   6.404   3.380   0.818  0.0091  0.3042  0.0694
 5124SOL    HW116271   6.436   3.346   0.729 -1.9003 -2.6235  0.3781
 5124SOL    HW216272   6.306   3.395   0.815  0.2617  2.5214  1.0690
 5125SOL     OW16273   4.336   6.145   1.251 -0.5902 -0.3774 -0.3468
 5125SOL    HW116274   4.300   6.059   1.215  0.1244  0.0511 -2.2270
 5125SOL    HW216275   4.364   6.204   1.175  2.8634 -0.1693  0.8944
 5126SOL     OW16276   1.338   0.594   0.986 -0.3408 -1.0723  0.4989
 5126SOL    HW116277   1.400   0.667   0.955 -0.0514 -1.5362 -0.0429
 5126SOL    HW216278   1.256   0.594   0.929 -0.7705 -0.5520  1.1224
 5127SOL     OW16279   3.943   5.191   0.201  0.1422  0.0906 -0.3983
 5127SOL    HW116280   3.914   5.257   0.271  0.4173  0.5954 -0.7510
 5127SOL    HW216281   4.005   5.124   0.242 -0.5951 -0.2984  0.0941
 5128SOL     OW16282   2.669   3.594   1.568  0.1326 -0.0498 -0.1892
 5128SOL    HW116283   2.583   3.564   1.609  0.7342  0.4231  1.5313
 5128SOL    HW216284   2.651   3.642   1.483 -1.3317  0.2685  0.2802
 5129SOL     OW16285   3.192   5.174   4.370 -0.1597 -0.0868  0.1722
 5129SOL    HW116286   3.245   5.093   4.396  1.2721  1.2561  1.6933
 5129SOL    HW216287   3.135   5.202   4.446 -1.1540 -0.0139 -0.5811
 5130SOL     OW16288   3.129   5.241   3.435  0.3649 -0.3754  0.0948
 5130SOL    HW116289   3.122   5.149   3.395 -0.6346 -0.6164  0.7615
 5130SOL    HW216290   3.122   5.234   3.535  0.1198  0.4322  0.1422
 5131SOL     OW16291   5.618   0.430   5.155  0.4216  0.2025 -0.4377
 5131SOL    HW116292   5.524   0.415   5.187  1.1492 -0.4527  1.5012
 5131SOL    HW216293   5.625   0.402   5.060 -0.6515 -2.6515  0.2273
 5132SOL     OW16294   2.274   5.058   3.445  0.2438 -0.1284  0.2982
 5132SOL    HW116295   2.367   5.085   3.418 -0.4959  1.5793 -0.6909
 5132SOL    HW216296   2.214   5.061   3.366 -1.0209  0.4639  1.2448
 5133SOL     OW16297   5.107   6.968   2.502  0.3632 -0.0970  0.2805
 5133SOL    HW116298   5.159   6.929   2.426  0.2153 -0.1346  0.1965
 5133SOL    HW216299   5.009   6.966   2.480  0.3954  0.8864  0.0194
 5134SOL     OW16300   0.129   6.150   5.823 -0.1162  0.0766  0.2509
 5134SOL    HW116301   0.090   6.073   5.874 -0.6892  0.2216  0.0387
 5134SOL    HW216302   0.059   6.190   5.764  0.4487  0.1136 -0.4152
 5135SOL     OW16303   1.945   4.426   2.633  0.0290  0.6540  0.0409
 5135SOL    HW116304   1.867   4.488   2.628 -0.3052  0.2983  0.8326
 5135SOL    HW216305   2.030   4.479   2.629 -0.2498  1.0816 -0.2688
 5136SOL     OW16306   2.694   5.623   4.096  0.0092  0.0877 -0.7030
 5136SOL    HW116307   2.650   5.688   4.035 -2.9809 -1.2784 -0.2012
 5136SOL    HW216308   2.758   5.671   4.156 -2.2297  2.6030 -0.1731
 5137SOL     OW16309   2.310   2.373   1.074 -0.2218 -0.1911  0.7910
 5137SOL    HW116310   2.285   2.279   1.099  0.8545 -0.6797  0.1214
 5137SOL    HW216311   2.228   2.423   1.047 -0.6355 -1.4255 -0.3523
 5138SOL     OW16312   3.492   4.300   6.212 -0.0813  0.0510  0.0162
 5138SOL    HW116313   3.461   4.257   6.127  0.7045 -1.4528  0.4516
 5138SOL    HW216314   3.589   4.323   6.204 -0.7259  2.9454 -0.6376
 5139SOL     OW16315   6.535   1.774   2.772  0.6985 -0.3069 -0.5946
 5139SOL    HW116316   6.566   1.828   2.693  0.2659  0.5009 -0.2239
 5139SOL    HW216317   6.576   1.811   2.855 -0.4537  0.1477 -0.2115
 5140SOL     OW16318   0.386   2.061   3.805 -0.2140  0.1318  0.5751
 5140SOL    HW116319   0.364   2.069   3.708  0.1339  0.3705  0.5133
 5140SOL    HW216320   0.317   2.108   3.859  0.2353  1.0518  0.3743
 5141SOL     OW16321   3.559   0.074   0.560 -0.1555  0.8616  0.2554
 5141SOL    HW116322   3.487   0.032   0.505 -0.7846  1.0031  0.9524
 5141SOL    HW216323   3.535   0.068   0.657  0.6483  1.1481  0.4825
 5142SOL     OW16324   3.808   3.574   1.361 -0.4883  0.9249 -0.0527
 5142SOL    HW116325   3.771   3.659   1.400  1.5640  1.8712 -0.0065
 5142SOL    HW216326   3.878   3.597   1.292 -1.6454 -0.7368 -1.8971
 5143SOL     OW16327   3.756   2.969   2.884 -0.2380 -0.0670  0.4275
 5143SOL    HW116328   3.779   2.906   2.809  1.5813  0.3406  0.6096
 5143SOL    HW216329   3.673   2.937   2.930 -0.9817 -0.7294 -1.2843
 5144SOL     OW16330   5.045   1.337   6.935  0.4097 -0.0574  0.6445
 5144SOL    HW116331   4.995   1.397   6.998  0.9966  1.4983 -0.3065
 5144SOL    HW216332   5.087   1.393   6.864  2.5954 -1.4210  0.7982
 5145SOL     OW16333   2.165   3.793   2.905  0.0852  0.0480 -0.3826
 5145SOL    HW116334   2.083   3.776   2.958  0.7447 -2.9140 -0.1643
 5145SOL    HW216335   2.188   3.713   2.851  3.7294  0.0453  0.8528
 5146SOL     OW16336   4.681   2.909   6.157 -0.2518 -0.6030  0.4274
 5146SOL    HW116337   4.619   2.917   6.234 -1.2799 -3.4921  0.0082
 5146SOL    HW216338   4.630   2.914   6.072  0.6431  0.7876 -0.0632
 5147SOL     OW16339   3.416   6.064   2.693  0.3647 -0.0870  1.1404
 5147SOL    HW116340   3.442   5.985   2.748 -2.4468 -1.7731  0.2297
 5147SOL    HW216341   3.350   6.120   2.744 -0.3680 -0.3110  0.4645
 5148SOL     OW16342   6.181   5.744   3.763  0.0338 -0.4689 -0.5872
 5148SOL    HW116343   6.154   5.761   3.669  0.3099 -2.9509 -1.1731
 5148SOL    HW216344   6.279   5.724   3.767  0.5916  2.0988  0.6334
 5149SOL     OW16345   3.875   6.626   4.439 -0.2323  0.4056 -0.0162
 5149SOL    HW116346   3.957   6.578   4.408 -0.2140  1.0896 -1.0648
 5149SOL    HW216347   3.851   6.697   4.373 -0.0566  2.0842  1.6276
 5150SOL     OW16348   5.656   4.521   0.295  0.0828 -0.5165 -0.5413
 5150SOL    HW116349   5.608   4.506   0.209 -0.2933 -0.0425 -0.4123
 5150SOL    HW216350   5.610   4.591   0.349  0.8896 -0.0725 -0.3997
 5151SOL     OW16351   2.426   3.078   1.488  0.1506 -0.3978 -0.2397
 5151SOL    HW116352   2.382   3.106   1.573 -0.6631 -0.2006 -0.7073
 5151SOL    HW216353   2.436   3.157   1.428 -1.6627 -0.9433 -1.3535
 5152SOL     OW16354   3.818   6.174   4.547 -0.4285  0.6459 -0.0311
 5152SOL    HW116355   3.787   6.190   4.454 -2.5488  4.1840  1.0833
 5152SOL    HW216356   3.758   6.222   4.611  2.0852  0.0406  3.0472
 5153SOL     OW16357   2.785   5.175   4.206 -0.0139  0.5729  0.5420
 5153SOL    HW116358   2.710   5.134   4.258 -0.1868 -3.4096 -2.4089
 5153SOL    HW216359   2.749   5.240   4.140 -0.7885 -0.5309 -0.1459
 5154SOL     OW16360   2.643   0.095   0.623  0.1061 -0.3913  0.7272
 5154SOL    HW116361   2.664   0.135   0.534  1.4130 -0.3032  1.0520
 5154SOL    HW216362   2.554   0.049   0.618  0.5662 -1.2003 -0.8984
 5155SOL     OW16363   1.821   1.574   6.019  0.7102  0.9370 -0.6466
 5155SOL    HW116364   1.746   1.523   6.063  2.0865  0.0304  0.7879
 5155SOL    HW216365   1.885   1.604   6.090  1.7011  1.7044 -1.8453
 5156SOL     OW16366   0.923   0.806   0.111  0.0700  0.1007 -1.1475
 5156SOL    HW116367   0.961   0.870   0.045 -0.0001  1.8012  0.3658
 5156SOL    HW216368   0.823   0.811   0.110  0.0108 -0.9362 -1.8873
 5157SOL     OW16369   6.027   4.902   1.951  0.7636 -0.6393  0.1510
 5157SOL    HW116370   5.965   4.949   1.888  1.7530 -0.4191 -0.6986
 5157SOL    HW216371   6.059   4.817   1.908 -0.2082 -1.5936  1.2515
 5158SOL     OW16372   0.424   5.304   0.700  0.3279  0.2717 -0.4431
 5158SOL    HW116373   0.509   5.314   0.752  0.1637 -0.5235 -0.0180
 5158SOL    HW216374   0.446   5.280   0.605  0.5885  0.7275 -0.5065
 5159SOL     OW16375   0.484   2.082   4.224 -0.1116 -0.1939 -0.4332
 5159SOL    HW116376   0.454   2.089   4.319 -1.7656  0.2531 -0.9591
 5159SOL    HW216377   0.435   2.007   4.179 -0.2010  0.3293 -1.2318
 5160SOL     OW16378   0.235   0.284   5.476 -0.8846  0.0519  0.2762
 5160SOL    HW116379   0.204   0.377   5.499  0.3601  0.5934 -0.1323
 5160SOL    HW216380   0.166   0.239   5.419 -2.5487 -0.1454  2.3382
 5161SOL     OW16381   5.419   5.114   0.721  0.2676 -0.5726 -0.3283
 5161SOL    HW116382   5.454   5.028   0.684  2.4529 -1.0407  2.5018
 5161SOL    HW216383   5.430   5.115   0.821  1.8247  3.5938 -0.3336
 5162SOL     OW16384   0.010   6.288   0.864 -0.0413  0.0441 -0.2367
 5162SOL    HW116385  -0.054   6.216   0.838  1.2398 -0.4901 -2.1012
 5162SOL    HW216386  -0.030   6.344   0.937 -1.8744 -1.3170 -0.1402
 5163SOL     OW16387   5.246   4.703   0.147 -0.1705 -0.1075 -0.2976
 5163SOL    HW116388   5.163   4.658   0.179  0.2851 -0.8144 -0.0858
 5163SOL    HW216389   5.253   4.794   0.189 -0.1932 -0.5458  0.6860
 5164SOL     OW16390   5.220   1.555   6.791 -0.1124  0.3568  0.3933
 5164SOL    HW116391   5.166   1.575   6.710  0.4949  1.0215  0.1414
 5164SOL    HW216392   5.271   1.637   6.818  1.3777 -0.4694  0.1696
 5165SOL     OW16393   1.036   3.770   6.922 -0.5797  0.3222 -0.2054
 5165SOL    HW116394   1.046   3.743   7.018 -0.6312 -1.5501 -0.7072
 5165SOL    HW216395   1.125   3.765   6.877 -1.1309 -2.3205 -1.1134
 5166SOL     OW16396   5.188   2.894   2.185 -0.6489  0.0947  0.0400
 5166SOL    HW116397   5.262   2.835   2.151 -0.2324  0.1057  0.9095
 5166SOL    HW216398   5.103   2.868   2.140 -0.2509 -0.3886 -0.4593
 5167SOL     OW16399   5.273   6.476   0.321  0.2120  0.2142  0.4446
 5167SOL    HW116400   5.193   6.507   0.269 -0.3021  0.4326  1.3372
 5167SOL    HW216401   5.272   6.377   0.327 -0.3633  0.2467  1.0074
 5168SOL     OW16402   2.576   3.021   0.839 -0.1175 -0.0166  0.1009
 5168SOL    HW116403   2.660   2.993   0.887  0.9589  1.4357 -0.8298
 5168SOL    HW216404   2.568   2.968   0.755  1.8413  2.1570 -1.5890
 5169SOL     OW16405   2.353   2.060   3.962  0.0779  0.1050  0.0406
 5169SOL    HW116406   2.415   2.104   3.896 -0.5464  0.4412 -0.3291
 5169SOL    HW216407   2.354   2.111   4.048 -1.7552  1.7567 -0.8582
 5170SOL     OW16408   5.339   0.649   6.766 -0.3602 -0.2563  0.5593
 5170SOL    HW116409   5.258   0.614   6.721 -1.1018  1.0586  0.8157
 5170SOL    HW216410   5.343   0.615   6.860 -1.1328  0.4063  0.8417
 5171SOL     OW16411   2.043   0.354   0.112  0.4715 -0.3090  0.3706
 5171SOL    HW116412   2.046   0.378   0.015 -0.2302  0.8278  0.6048
 5171SOL    HW216413   2.021   0.257   0.122  0.0565 -0.3243 -0.6042
 5172SOL     OW16414   6.342   3.657   0.369  0.1100 -0.3250  0.3455
 5172SOL    HW116415   6.251   3.634   0.403  0.4133 -2.9390 -0.4382
 5172SOL    HW216416   6.385   3.576   0.331  2.3580  1.0993 -0.3307
 5173SOL     OW16417   6.170   2.724   2.871  0.2766  0.2748 -0.2040
 5173SOL    HW116418   6.242   2.671   2.917 -1.2735 -0.5973  1.3203
 5173SOL    HW216419   6.209   2.808   2.834  2.0263 -0.0555  0.7992
 5174SOL     OW16420   6.543   4.940   0.554 -0.2031  0.1159 -0.2034
 5174SOL    HW116421   6.599   4.970   0.631  1.1839 -1.3260 -0.5750
 5174SOL    HW216422   6.596   4.951   0.469  0.0519 -2.3537 -0.4419
 5175SOL     OW16423   1.392   4.842   3.629 -0.1296  0.0561  0.0782
 5175SOL    HW116424   1.458   4.823   3.702 -1.1631  0.4113  1.1409
 5175SOL    HW216425   1.433   4.821   3.541  2.2803  2.4555  0.4891
 5176SOL     OW16426   1.135   1.761   3.449 -0.5638 -0.2372  0.7820
 5176SOL    HW116427   1.214   1.801   3.401 -1.3426 -0.4553 -0.7327
 5176SOL    HW216428   1.167   1.686   3.507  0.3424 -0.3609  0.1467
 5177SOL     OW16429   4.756   3.759   5.753  0.2942 -0.2223 -0.0132
 5177SOL    HW116430   4.705   3.677   5.779  1.4407 -0.4632  1.5678
 5177SOL    HW216431   4.853   3.747   5.776  0.2541  2.1688  1.7713
 5178SOL     OW16432   2.822   1.242   4.366 -0.1944  0.3723  0.2999
 5178SOL    HW116433   2.873   1.241   4.280 -1.3351 -0.1300 -0.3974
 5178SOL    HW216434   2.869   1.300   4.433  1.7031 -0.7270 -0.0343
 5179SOL     OW16435   1.269   3.796   6.797 -0.0586 -0.0270 -0.5373
 5179SOL    HW116436   1.302   3.707   6.766 -0.7444 -0.7495  0.7102
 5179SOL    HW216437   1.344   3.846   6.842  0.2444 -0.1149 -0.9479
 5180SOL     OW16438   5.699   5.736   2.906 -0.4175  0.0025  0.2217
 5180SOL    HW116439   5.690   5.709   2.810 -2.4638  0.2184  0.3046
 5180SOL    HW216440   5.646   5.673   2.963 -0.3738  0.7003  1.0416
 5181SOL     OW16441   6.714   1.315   1.407  0.5755 -0.3031 -0.7289
 5181SOL    HW116442   6.686   1.266   1.325  0.2748  0.2271 -0.9463
 5181SOL    HW216443   6.784   1.262   1.455 -0.2407 -1.2898 -0.5758
 5182SOL     OW16444   4.046   2.048   2.536  0.0254 -0.1428  0.4385
 5182SOL    HW116445   3.963   2.036   2.481  0.6760  0.5907 -0.7503
 5182SOL    HW216446   4.024   2.098   2.619 -0.6771  0.2611  0.0221
 5183SOL     OW16447   2.013   6.273   3.958  0.0233 -0.3498 -0.1768
 5183SOL    HW116448   1.987   6.367   3.933 -1.1147 -0.8613 -0.9890
 5183SOL    HW216449   2.092   6.245   3.903 -0.5083 -0.3464 -0.9644
 5184SOL     OW16450   3.734   6.187   4.297 -0.1706  0.3446 -0.2967
 5184SOL    HW116451   3.676   6.258   4.256  1.0146  1.3604 -0.2798
 5184SOL    HW216452   3.700   6.097   4.271 -3.4636  0.7378  1.9574
 5185SOL     OW16453   3.488   6.286   0.184  0.2541 -0.0548  0.6798
 5185SOL    HW116454   3.517   6.371   0.228 -0.5778 -0.7004  2.5470
 5185SOL    HW216455   3.399   6.299   0.141 -0.3046 -0.2066  1.7615
 5186SOL     OW16456   2.049   0.653   3.552  0.3922  0.2574  0.5945
 5186SOL    HW116457   2.072   0.682   3.645  0.7759  1.3763  0.1713
 5186SOL    HW216458   2.134   0.635   3.502  0.2267  0.7365  0.1382
 5187SOL     OW16459   6.462   4.296   5.491 -0.4733  0.1196 -0.1798
 5187SOL    HW116460   6.450   4.249   5.578 -0.7621 -1.0117 -0.8013
 5187SOL    HW216461   6.559   4.295   5.466 -0.3852  0.4860  0.1558
 5188SOL     OW16462   6.475   1.765   1.613  0.5975  0.2646 -0.6355
 5188SOL    HW116463   6.544   1.716   1.667 -0.0509 -1.1953 -1.0851
 5188SOL    HW216464   6.482   1.737   1.517 -1.2193 -0.6383 -0.5327
 5189SOL     OW16465   5.719   5.394   0.792  0.1922  0.6186  0.6589
 5189SOL    HW116466   5.732   5.436   0.881  1.6932  0.3953  0.5648
 5189SOL    HW216467   5.802   5.403   0.737  0.9030 -3.0159  0.8675
 5190SOL     OW16468   3.859   0.136   0.284 -0.2150  0.4200 -0.4557
 5190SOL    HW116469   3.947   0.105   0.321  0.1139  1.1197 -0.6319
 5190SOL    HW216470   3.802   0.057   0.263 -1.2207 -0.0746  3.3766
 5191SOL     OW16471   6.025   2.533   5.003  0.1458  0.0600  0.6143
 5191SOL    HW116472   5.937   2.579   5.003  0.2745  0.4772 -2.1760
 5191SOL    HW216473   6.096   2.597   4.975  0.6515 -1.2642 -1.3087
 5192SOL     OW16474   7.001   5.188   4.896 -0.5823 -0.1801  0.4014
 5192SOL    HW116475   6.949   5.171   4.812  0.3596 -1.9858  0.1307
 5192SOL    HW216476   7.096   5.161   4.882 -0.0433  1.0156  1.5628
 5193SOL     OW16477   0.678   4.837   3.146  0.7981  0.1294 -0.6728
 5193SOL    HW116478   0.617   4.770   3.104  1.3914 -0.0191 -1.2978
 5193SOL    HW216479   0.759   4.791   3.182  1.3697  0.5489 -1.4071
 5194SOL     OW16480   2.287   4.034   5.602  0.2369 -0.4210 -0.2430
 5194SOL    HW116481   2.331   4.117   5.637  0.4043 -0.3847 -0.5416
 5194SOL    HW216482   2.252   4.051   5.510 -2.9747  0.4921  0.9831
 5195SOL     OW16483   2.162   0.823   0.465  0.0280  0.0941  0.1868
 5195SOL    HW116484   2.069   0.789   0.451 -0.3066  0.8410  0.5244
 5195SOL    HW216485   2.160   0.898   0.531  0.4127  2.3288 -2.1813
 5196SOL     OW16486   6.416   4.510   0.485  0.3123  0.0997  0.7852
 5196SOL    HW116487   6.513   4.498   0.505  0.2556 -0.4759  0.7528
 5196SOL    HW216488   6.376   4.576   0.548  0.9381  1.0754  0.1689
 5197SOL     OW16489   0.348   3.302   1.963  0.4289 -0.0762 -0.1496
 5197SOL    HW116490   0.367   3.383   2.019  0.1769 -1.6548  2.4018
 5197SOL    HW216491   0.264   3.259   1.995  0.5077 -1.3177 -1.5201
 5198SOL     OW16492   1.003   4.597   4.151 -0.3932 -0.3609  0.4610
 5198SOL    HW116493   0.959   4.509   4.138 -0.5732 -0.2928  0.6123
 5198SOL    HW216494   1.039   4.603   4.244 -0.3487 -0.2876  0.4394
 5199SOL     OW16495   0.995   5.165   6.986 -0.0088  0.3068 -0.6875
 5199SOL    HW116496   0.905   5.156   6.945  0.3962  1.4232 -1.8664
 5199SOL    HW216497   1.063   5.122   6.926  0.3863  0.4764 -0.3661
 5200SOL     OW16498   3.513   6.982   1.894 -0.1160 -0.4823  0.1138
 5200SOL    HW116499   3.566   6.899   1.878  0.2330 -0.5529  1.5306
 5200SOL    HW216500   3.416   6.959   1.904 -0.4013 -0.4138 -1.9143
 5201SOL     OW16501   0.880   1.659   3.435  0.4754 -0.0871 -0.1455
 5201SOL    HW116502   0.834   1.639   3.349 -0.6262  0.2724  0.3469
 5201SOL    HW216503   0.958   1.719   3.418  0.4660 -0.2947 -0.9304
 5202SOL     OW16504   6.887   4.396   6.659 -0.2853  0.1105 -0.1377
 5202SOL    HW116505   6.798   4.399   6.615 -1.1438  0.1635  1.5040
 5202SOL    HW216506   6.906   4.304   6.692  0.8495 -0.1923 -1.5545
 5203SOL     OW16507   1.293   3.565   5.892  0.4865  0.1090  0.0116
 5203SOL    HW116508   1.303   3.468   5.916 -0.2565 -0.0698 -0.3627
 5203SOL    HW216509   1.379   3.599   5.855  0.7801 -0.3839  0.2290
 5204SOL     OW16510   2.902   5.124   1.077 -0.4178  0.6545 -0.5423
 5204SOL    HW116511   2.805   5.105   1.091 -0.2418  0.9090  1.3806
 5204SOL    HW216512   2.920   5.220   1.099  0.8942 -0.3237  3.5408
 5205SOL     OW16513   2.703   5.668   1.368  0.3535  0.1954  0.3519
 5205SOL    HW116514   2.680   5.736   1.298 -1.4443  1.4896  2.0897
 5205SOL    HW216515   2.631   5.599   1.374  0.1485  0.4698  1.3223
 5206SOL     OW16516   3.693   2.096   3.071  0.0670 -0.2027  0.4225
 5206SOL    HW116517   3.754   2.020   3.093 -3.0255 -3.3989 -0.8727
 5206SOL    HW216518   3.682   2.101   2.971  0.0453  1.8807  0.4980
 5207SOL     OW16519   6.133   1.999   3.049 -0.1320  0.4641 -0.3453
 5207SOL    HW116520   6.078   2.068   3.096  0.7850  1.1940 -0.3197
 5207SOL    HW216521   6.121   1.910   3.094 -0.7728  0.7518  0.0594
 5208SOL     OW16522   1.631   3.497   3.926  0.3282 -0.1025  0.9653
 5208SOL    HW116523   1.531   3.495   3.924  0.2928  1.1700 -0.5189
 5208SOL    HW216524   1.662   3.550   4.005 -0.1044 -1.4898  2.1123
 5209SOL     OW16525   0.442   1.500   3.678  0.1719 -0.2550 -0.2552
 5209SOL    HW116526   0.481   1.462   3.594  1.0098  2.5652 -1.2674
 5209SOL    HW216527   0.452   1.600   3.677  1.3810 -0.1842  3.8237
 5210SOL     OW16528   4.426   2.476   4.239  0.2865  0.1212  0.4330
 5210SOL    HW116529   4.370   2.413   4.186  1.3877  0.3136 -1.0152
 5210SOL    HW216530   4.395   2.477   4.334 -1.4066 -0.6188 -0.0873
 5211SOL     OW16531   6.602   3.567   2.344 -0.0166  0.3840  0.0982
 5211SOL    HW116532   6.626   3.659   2.376 -0.7254  0.6206 -0.0383
 5211SOL    HW216533   6.525   3.573   2.281 -2.8400 -0.5901  3.1304
 5212SOL     OW16534   1.227   1.994   4.193 -0.3681 -0.1086  0.0918
 5212SOL    HW116535   1.198   2.086   4.219 -1.4465 -0.6660  0.9266
 5212SOL    HW216536   1.327   1.989   4.196 -0.3446  0.6806  1.3013
 5213SOL     OW16537   0.079   2.082   5.542  0.4465 -0.1735  0.8653
 5213SOL    HW116538   0.097   2.114   5.448 -1.8557  0.6236  0.6283
 5213SOL    HW216539   0.016   2.146   5.587  0.6771 -1.1183  2.6083
 5214SOL     OW16540   2.110   3.009   1.644 -0.8177 -0.2571  0.1741
 5214SOL    HW116541   2.152   3.089   1.687 -0.0671 -0.5723  0.0411
 5214SOL    HW216542   2.048   3.040   1.571 -1.1765  0.2295  0.6802
 5215SOL     OW16543   4.585   0.490   3.206 -0.2399 -0.2600  0.2810
 5215SOL    HW116544   4.644   0.525   3.133  0.4528  0.9996  1.3915
 5215SOL    HW216545   4.500   0.455   3.167  0.3931 -0.2525 -1.1700
 5216SOL     OW16546   1.408   1.973   3.919 -0.2543 -0.6974  0.3866
 5216SOL    HW116547   1.361   2.057   3.891 -0.3770 -0.8848  0.0262
 5216SOL    HW216548   1.438   1.982   4.014 -0.1865 -0.2101  0.3228
 5217SOL     OW16549   2.653   2.962   1.556 -0.1441  0.1445 -0.1916
 5217SOL    HW116550   2.583   3.027   1.527  0.1138 -0.1071 -1.4329
 5217SOL    HW216551   2.610   2.882   1.598 -0.5758  0.1279 -0.6655
 5218SOL     OW16552   4.532   4.899   1.338 -0.8019 -1.0312  0.2145
 5218SOL    HW116553   4.516   4.989   1.379  0.8921 -1.6000  2.3335
 5218SOL    HW216554   4.470   4.833   1.379 -0.7264 -1.1750  0.0970
 5219SOL     OW16555   0.048   3.847   2.624  0.3945  0.0203 -0.0121
 5219SOL    HW116556  -0.007   3.883   2.700  1.3373 -0.0777  0.7426
 5219SOL    HW216557  -0.009   3.838   2.543 -0.9201 -0.9095  0.9753
 5220SOL     OW16558   6.139   6.743   4.840 -0.5938  0.5690  0.5364
 5220SOL    HW116559   6.094   6.719   4.754 -0.3232 -1.1887  0.8594
 5220SOL    HW216560   6.075   6.730   4.915 -0.3703  0.6440  0.7395
 5221SOL     OW16561   6.449   3.894   4.253  0.5872 -0.2496 -0.6736
 5221SOL    HW116562   6.452   3.868   4.350 -0.7631 -0.5425 -0.6917
 5221SOL    HW216563   6.537   3.934   4.227  0.8524  0.1716  0.7621
 5222SOL     OW16564   3.689   1.439   0.014  0.0299 -0.9899 -0.1552
 5222SOL    HW116565   3.689   1.409  -0.081  0.3244  1.0485 -0.8518
 5222SOL    HW216566   3.599   1.475   0.039 -0.4354 -2.6956  0.7824
 5223SOL     OW16567   0.949   2.059   0.093  0.1744 -0.3466 -0.1962
 5223SOL    HW116568   1.006   2.001   0.033  1.0106 -0.3306  0.5639
 5223SOL    HW216569   0.856   2.023   0.095  0.4852 -1.1934 -0.3880
 5224SOL     OW16570   5.559   6.585   4.184 -0.5051  0.6024  0.5042
 5224SOL    HW116571   5.575   6.683   4.196  0.4195  0.4628  0.5360
 5224SOL    HW216572   5.525   6.567   4.092  1.9878  0.7112 -0.5247
 5225SOL     OW16573   1.839   0.091   4.883 -0.0878 -0.5778 -0.3201
 5225SOL    HW116574   1.924   0.139   4.907 -0.4998  0.1196 -0.2470
 5225SOL    HW216575   1.813   0.115   4.789  0.1500 -1.3208 -0.5863
 5226SOL     OW16576   5.062   2.426   0.674  0.0625  0.3814  0.0711
 5226SOL    HW116577   5.069   2.434   0.773 -1.5027  0.0680  0.2303
 5226SOL    HW216578   5.018   2.507   0.637 -0.2171  0.0807 -0.2600
 5227SOL     OW16579   3.533   0.669   4.460 -0.0275 -0.0279  0.3544
 5227SOL    HW116580   3.523   0.746   4.523 -1.4365  0.0242  0.1049
 5227SOL    HW216581   3.445   0.650   4.417  0.4227 -1.4530  0.0178
 5228SOL     OW16582   0.510   2.406   5.137 -0.2860  0.0746  0.3762
 5228SOL    HW116583   0.474   2.354   5.215  0.8664 -0.4888  0.5498
 5228SOL    HW216584   0.598   2.447   5.161  0.4699 -0.7437 -0.8518
 5229SOL     OW16585   3.426   5.568   3.395 -0.0788 -0.0763 -0.4131
 5229SOL    HW116586   3.398   5.646   3.338  2.0124  0.0674 -1.3379
 5229SOL    HW216587   3.410   5.590   3.491 -0.1654  1.2265 -0.7030
 5230SOL     OW16588   4.035   1.377   5.777  0.2106  0.4160 -0.0341
 5230SOL    HW116589   4.050   1.380   5.678  1.5624  1.1512  0.1624
 5230SOL    HW216590   4.069   1.290   5.813 -0.1470  0.2090 -0.1952
 5231SOL     OW16591   4.307   1.997   1.574  0.5820  0.1384  0.3244
 5231SOL    HW116592   4.382   1.992   1.640 -1.4885 -1.2434  2.7339
 5231SOL    HW216593   4.267   1.907   1.561 -0.2150  0.7032 -1.5192
 5232SOL     OW16594   6.301   1.330   1.527  0.1062  0.3154  0.0637
 5232SOL    HW116595   6.370   1.304   1.593 -0.4290 -0.9757  0.1371
 5232SOL    HW216596   6.230   1.260   1.522 -0.2257  0.7028 -1.3739
 5233SOL     OW16597   3.128   4.240   5.256 -0.3942  0.0530  0.3736
 5233SOL    HW116598   3.061   4.173   5.223 -1.5352  1.5985 -0.5516
 5233SOL    HW216599   3.081   4.323   5.285  1.1578  1.4568 -0.9470
 5234SOL     OW16600   3.785   3.553   4.773 -0.0683 -0.3869  0.0134
 5234SOL    HW116601   3.744   3.615   4.706  0.0365  0.2415  0.5219
 5234SOL    HW216602   3.714   3.519   4.835 -0.0338 -0.3086  0.0968
 5235SOL     OW16603   1.471   3.343   0.378 -0.2287 -0.0268 -0.1029
 5235SOL    HW116604   1.442   3.354   0.283  0.1927 -0.0568 -0.2352
 5235SOL    HW216605   1.417   3.271   0.422 -0.4916  0.0576 -0.2894
 5236SOL     OW16606   0.541   5.366   5.429 -0.0662  0.4076 -0.5663
 5236SOL    HW116607   0.601   5.326   5.360  1.4268  0.0154  0.8824
 5236SOL    HW216608   0.472   5.298   5.456  1.3511 -0.6123  0.6030
 5237SOL     OW16609   5.802   3.173   3.347 -0.2446 -0.0645  0.4405
 5237SOL    HW116610   5.767   3.243   3.283  1.3562 -0.3887 -0.8549
 5237SOL    HW216611   5.901   3.181   3.353  0.0496 -2.5548 -0.1730
 5238SOL     OW16612   0.859   0.960   3.248 -0.0087 -0.4892 -0.0905
 5238SOL    HW116613   0.865   1.042   3.191  0.9338 -0.8450 -0.5340
 5238SOL    HW216614   0.934   0.959   3.313  1.0149 -1.7960 -1.2164
 5239SOL     OW16615   2.942   4.894   6.773 -0.3417 -0.1066 -0.3904
 5239SOL    HW116616   2.958   4.914   6.870  3.3254 -2.6819 -0.2356
 5239SOL    HW216617   2.969   4.973   6.718 -0.1821  0.5485  0.6030
 5240SOL     OW16618   2.854   6.995   1.381  0.5994 -0.0107 -0.2711
 5240SOL    HW116619   2.894   7.079   1.416  0.8220 -0.2931  0.1641
 5240SOL    HW216620   2.922   6.922   1.385 -0.2354 -0.7439  1.4052
 5241SOL     OW16621   4.992   6.759   5.544  0.0156  0.1091  0.5971
 5241SOL    HW116622   4.990   6.709   5.630  1.7475 -0.1653  0.5030
 5241SOL    HW216623   5.069   6.728   5.489 -0.0173  1.5331 -0.2965
 5242SOL     OW16624   1.117   5.017   5.634 -0.2617 -0.7882  0.1568
 5242SOL    HW116625   1.168   5.095   5.598 -1.4890 -0.4057 -0.8163
 5242SOL    HW216626   1.048   5.049   5.700  0.0010 -1.1846  0.6344
 5243SOL     OW16627   3.875   3.963   0.229  0.0617  0.0254  0.3198
 5243SOL    HW116628   3.885   4.053   0.186 -1.8871 -0.1259 -0.5397
 5243SOL    HW216629   3.918   3.894   0.171  0.8389  0.2674  0.5812
 5244SOL     OW16630   0.739   1.947   5.393  0.4314 -0.2048  0.0922
 5244SOL    HW116631   0.715   2.016   5.461  0.3321  0.2245 -0.3742
 5244SOL    HW216632   0.805   1.985   5.329 -0.9612  0.0584 -1.2293
 5245SOL     OW16633   1.529   1.301   2.143 -0.1075  0.7507 -0.1824
 5245SOL    HW116634   1.560   1.393   2.168 -0.0099  0.0081  2.9254
 5245SOL    HW216635   1.505   1.298   2.046 -2.4376  4.6863  0.0932
 5246SOL     OW16636   6.525   3.825   1.337  0.5173 -0.5531  0.6533
 5246SOL    HW116637   6.489   3.848   1.428  2.7607 -1.1880  1.7673
 5246SOL    HW216638   6.548   3.910   1.289  0.0159 -0.2330  0.9595
 5247SOL     OW16639   5.359   0.377   5.194  0.1747 -0.0318  0.0452
 5247SOL    HW116640   5.274   0.421   5.162 -0.1672  0.3191  1.3816
 5247SOL    HW216641   5.337   0.291   5.239  0.4013  0.5219  1.2633
 5248SOL     OW16642   1.887   1.250   3.206 -0.1393  0.1028 -0.4412
 5248SOL    HW116643   1.881   1.226   3.303 -0.1821 -0.4206 -0.5686
 5248SOL    HW216644   1.808   1.307   3.181  0.5308  1.3219  0.1199
 5249SOL     OW16645   3.540   0.077   4.956  0.4599  0.2980  0.1951
 5249SOL    HW116646   3.490   0.163   4.970 -1.3381 -0.8365  1.0947
 5249SOL    HW216647   3.536   0.052   4.859 -0.7048  0.2706  0.2317
 5250SOL     OW16648   4.633   2.585   2.384  0.1269 -0.3988  0.0068
 5250SOL    HW116649   4.546   2.553   2.421  0.5093  0.7974  2.1009
 5250SOL    HW216650   4.681   2.508   2.342 -1.2208 -1.4198  0.2657
 5251SOL     OW16651   5.845   6.571   5.562  0.7357 -0.2187 -0.1138
 5251SOL    HW116652   5.838   6.492   5.501  0.7954 -0.5814  0.3441
 5251SOL    HW216653   5.941   6.600   5.568  0.7300 -0.1833 -0.1893
 5252SOL     OW16654   2.103   4.338   0.152  0.1071 -0.2133 -0.1923
 5252SOL    HW116655   2.076   4.425   0.191 -1.9223 -0.2345 -1.3839
 5252SOL    HW216656   2.099   4.267   0.222  1.5172  0.5555  0.7191
 5253SOL     OW16657   5.991   0.357   6.219  0.1638  0.2804  0.1472
 5253SOL    HW116658   6.073   0.324   6.265 -0.3419 -0.3121  0.6468
 5253SOL    HW216659   5.923   0.386   6.287  0.3875  1.8639 -0.2789
 5254SOL     OW16660   2.377   5.029   1.440  0.3829 -0.5319 -0.2931
 5254SOL    HW116661   2.401   4.938   1.474  0.3411  0.0394  1.3636
 5254SOL    HW216662   2.431   5.097   1.489 -2.1928  0.5789  1.1537
 5255SOL     OW16663   4.106   5.037   4.300  0.4706  0.4328 -0.0754
 5255SOL    HW116664   4.046   4.987   4.238  1.8102 -3.3360  1.3985
 5255SOL    HW216665   4.179   5.081   4.248 -0.8802  1.1054 -1.4659
 5256SOL     OW16666   1.034   2.014   1.627 -0.2421  0.3774  0.3414
 5256SOL    HW116667   1.097   2.039   1.553 -0.5635 -0.1752 -0.1268
 5256SOL    HW216668   1.037   1.916   1.642 -1.4853  0.2397 -0.1627
 5257SOL     OW16669   2.366   4.317   0.114 -0.0791  0.0937 -0.8579
 5257SOL    HW116670   2.385   4.286   0.021 -1.6161 -0.5122 -0.9991
 5257SOL    HW216671   2.267   4.325   0.127  0.1148  0.2344  0.7022
 5258SOL     OW16672   1.106   0.131   5.222  0.1898 -0.3246  0.3303
 5258SOL    HW116673   1.023   0.075   5.232 -0.3792  0.2062 -1.1617
 5258SOL    HW216674   1.145   0.117   5.132  1.1782  0.1799  0.6719
 5259SOL     OW16675   6.816   2.379   3.569 -0.1516  0.5575  0.2263
 5259SOL    HW116676   6.842   2.464   3.615  2.2895  0.8249 -1.4846
 5259SOL    HW216677   6.779   2.400   3.478 -0.3699 -0.1852  0.1338
 5260SOL     OW16678   1.359   2.862   4.722 -0.6287  0.3846  0.0577
 5260SOL    HW116679   1.456   2.877   4.742  0.1187  0.5592 -3.1600
 5260SOL    HW216680   1.317   2.947   4.691 -0.9566 -0.3066 -1.5091
 5261SOL     OW16681   2.153   6.816   3.962  0.3819  0.5040 -0.1421
 5261SOL    HW116682   2.114   6.865   4.040 -1.5170  0.0714 -0.7697
 5261SOL    HW216683   2.160   6.878   3.884 -0.6668  0.1634 -0.5181
 5262SOL     OW16684   0.778   4.693   2.522 -0.3965 -0.4353 -0.0768
 5262SOL    HW116685   0.827   4.634   2.458 -1.5413  0.8972 -2.2885
 5262SOL    HW216686   0.831   4.776   2.537 -1.2422  0.3607 -1.3254
 5263SOL     OW16687   5.407   3.050   0.940  0.2594  0.0946 -0.5633
 5263SOL    HW116688   5.378   3.144   0.927 -0.6847 -0.1606 -0.3488
 5263SOL    HW216689   5.430   3.009   0.852  0.7522  0.5363 -0.6491
 5264SOL     OW16690   0.355   4.419   1.011 -0.0863  0.3776  0.4393
 5264SOL    HW116691   0.341   4.321   0.996 -0.8622  0.6901 -1.0999
 5264SOL    HW216692   0.375   4.436   1.108  0.7992 -1.3620  0.5917
 5265SOL     OW16693   3.191   4.492   0.231 -0.0309  0.1200  0.0684
 5265SOL    HW116694   3.164   4.572   0.285 -0.5096  0.1547 -0.2257
 5265SOL    HW216695   3.143   4.411   0.265  0.5715 -0.0761  0.4687
 5266SOL     OW16696   2.098   3.647   1.789  0.5097 -0.2930  0.5216
 5266SOL    HW116697   2.011   3.605   1.761  0.7214 -1.1030  1.0429
 5266SOL    HW216698   2.151   3.581   1.842  1.1283  0.4408  0.8337
 5267SOL     OW16699   6.730   0.762   5.880 -0.1371 -0.3948  0.1091
 5267SOL    HW116700   6.681   0.806   5.956 -1.0210 -0.1385 -0.5920
 5267SOL    HW216701   6.686   0.786   5.794  0.0523 -1.7525 -0.3884
 5268SOL     OW16702   0.915   1.516   0.769  0.1329 -0.0789  0.4814
 5268SOL    HW116703   0.852   1.559   0.834  1.9983  1.0901  1.6225
 5268SOL    HW216704   0.891   1.420   0.758 -1.3219  0.1336  1.5064
 5269SOL     OW16705   6.878   1.637   4.417  0.0931  0.1889  0.1577
 5269SOL    HW116706   6.895   1.582   4.499  0.0797  1.1640  0.8396
 5269SOL    HW216707   6.786   1.676   4.423  0.2231  0.5458 -0.1476
 5270SOL     OW16708   4.367   2.486   1.421 -0.4286  0.4538 -0.3137
 5270SOL    HW116709   4.307   2.561   1.450  0.0961  0.1705  1.6570
 5270SOL    HW216710   4.322   2.399   1.438 -0.0578  0.2708 -0.2599
 5271SOL     OW16711   3.486   6.888   5.964 -0.2992 -0.5520 -1.0536
 5271SOL    HW116712   3.422   6.848   6.029  1.0823 -2.7545 -0.9393
 5271SOL    HW216713   3.497   6.827   5.886 -0.3940  1.0994 -2.4025
 5272SOL     OW16714   1.720   4.823   1.175 -0.5742 -0.5891 -0.5287
 5272SOL    HW116715   1.772   4.862   1.250 -2.0092 -0.6573  0.5438
 5272SOL    HW216716   1.724   4.723   1.179 -0.0792 -0.5901 -0.9685
 5273SOL     OW16717   5.995   1.155   6.473 -0.1462 -0.2556  0.5486
 5273SOL    HW116718   6.017   1.082   6.538 -1.2515 -0.1972  1.0110
 5273SOL    HW216719   6.047   1.238   6.497 -1.7250  0.2770  2.4009
 5274SOL     OW16720   1.990   4.517   0.824  0.8398 -0.3337  0.6313
 5274SOL    HW116721   1.896   4.547   0.804  0.7360 -0.1721  1.3327
 5274SOL    HW216722   2.026   4.466   0.746  0.2068 -0.3039  0.3124
 5275SOL     OW16723   6.069   3.366   3.890  0.2574  0.4547  0.2674
 5275SOL    HW116724   6.005   3.368   3.967  1.1336 -1.8970  1.1340
 5275SOL    HW216725   6.130   3.445   3.895 -0.3833  0.8973  1.3740
 5276SOL     OW16726   1.708   3.086   0.563  0.3784 -0.2081 -0.1597
 5276SOL    HW116727   1.658   3.025   0.624 -0.4956 -0.2704 -0.9132
 5276SOL    HW216728   1.705   3.179   0.598  2.4394 -0.6820  1.4485
 5277SOL     OW16729   3.255   5.982   0.428 -0.3848  0.3497 -0.6031
 5277SOL    HW116730   3.324   5.965   0.357 -1.0165  0.1583 -1.1741
 5277SOL    HW216731   3.165   5.991   0.386 -0.5419  1.8780  0.0068
 5278SOL     OW16732   4.179   3.901   6.188 -0.3986  0.6036  1.1643
 5278SOL    HW116733   4.205   3.991   6.155 -1.0464 -0.9011 -4.3676
 5278SOL    HW216734   4.260   3.856   6.227  0.6510  2.4187  1.2182
 5279SOL     OW16735   2.969   3.225   3.239 -0.2374 -0.0345  0.0764
 5279SOL    HW116736   3.041   3.295   3.246  0.6469 -1.0598  2.8474
 5279SOL    HW216737   2.980   3.174   3.154  0.4934  1.6829 -0.9184
 5280SOL     OW16738   4.015   5.691   0.943  0.3364 -0.0425 -0.2669
 5280SOL    HW116739   4.007   5.639   0.858 -2.9363  1.3249 -0.9500
 5280SOL    HW216740   3.997   5.630   1.021  0.4653 -0.7113 -0.7495
 5281SOL     OW16741   1.845   4.966   2.074 -0.0889  0.6931 -0.2651
 5281SOL    HW116742   1.939   4.944   2.047  0.5611  0.2110  2.1813
 5281SOL    HW216743   1.824   5.060   2.047  1.1437  0.8611 -0.7085
 5282SOL     OW16744   1.516   4.332   2.881 -0.0450 -1.0024  0.4149
 5282SOL    HW116745   1.515   4.429   2.855 -1.2841 -0.7342  1.3494
 5282SOL    HW216746   1.569   4.321   2.965  2.1749 -1.5545 -0.9500
 5283SOL     OW16747   4.348   0.928   6.154  0.3212  0.4452 -0.6738
 5283SOL    HW116748   4.395   0.952   6.069  0.3866  2.6417 -0.0717
 5283SOL    HW216749   4.380   0.987   6.228 -1.2407 -0.0143  0.4241
 5284SOL     OW16750   5.143   4.725   6.167  0.0516  0.5225 -0.3171
 5284SOL    HW116751   5.239   4.698   6.159  0.1543  1.0116 -0.7726
 5284SOL    HW216752   5.129   4.812   6.121 -0.2762  1.2886  1.1772
 5285SOL     OW16753   1.835   4.659   3.686 -0.0275 -0.2792 -0.2018
 5285SOL    HW116754   1.844   4.640   3.588  0.3013  0.8917 -0.4221
 5285SOL    HW216755   1.926   4.672   3.725 -0.1931 -0.0635  0.1124
 5286SOL     OW16756   3.957   1.834   0.549  0.1598  0.1341 -0.1299
 5286SOL    HW116757   4.028   1.847   0.618 -1.0580  0.7179  1.0632
 5286SOL    HW216758   3.868   1.824   0.594 -0.4280 -1.4220 -1.5428
 5287SOL     OW16759   5.120   5.167   2.242 -0.3328 -0.4339 -0.7056
 5287SOL    HW116760   5.132   5.069   2.259  1.8733 -0.1648 -0.3822
 5287SOL    HW216761   5.027   5.184   2.212  0.0630 -3.1688 -4.1933
 5288SOL     OW16762   1.602   0.355   3.608  0.3203 -0.0790  0.1467
 5288SOL    HW116763   1.689   0.355   3.559  0.3308  3.0381 -0.0201
 5288SOL    HW216764   1.616   0.386   3.702 -0.8263  3.2428 -0.6420
 5289SOL     OW16765   3.060   3.176   3.515  0.2781 -0.0416 -0.3303
 5289SOL    HW116766   3.022   3.185   3.423  1.0600  1.2113 -0.5720
 5289SOL    HW216767   3.056   3.265   3.561 -1.6410 -1.0002  1.5146
 5290SOL     OW16768   5.702   3.587   5.199 -0.0126 -0.3240 -0.2204
 5290SOL    HW116769   5.615   3.635   5.208  0.0379 -0.4793  1.3842
 5290SOL    HW216770   5.772   3.650   5.166 -0.2893  0.3237  0.4074
 5291SOL     OW16771   5.299   5.779   3.646 -0.3656  0.4549 -0.1372
 5291SOL    HW116772   5.373   5.713   3.638 -0.2649  0.7622 -2.5888
 5291SOL    HW216773   5.251   5.765   3.732  1.3980 -0.9241  0.6924
 5292SOL     OW16774   0.937   1.834   2.078 -0.2245  0.1820  0.0347
 5292SOL    HW116775   0.855   1.880   2.044  0.5125 -0.0705 -2.3311
 5292SOL    HW216776   1.007   1.902   2.098 -0.2117  0.2860 -0.3422
 5293SOL     OW16777   0.137   2.927   2.246  0.5616  0.2318 -0.4451
 5293SOL    HW116778   0.192   2.974   2.177 -0.3237 -0.5413 -1.7136
 5293SOL    HW216779   0.152   2.829   2.239 -1.6371 -0.0834 -1.4426
 5294SOL     OW16780   6.434   2.460   1.047 -0.0278 -0.5138 -0.0082
 5294SOL    HW116781   6.433   2.392   1.120 -1.9881 -0.6181 -0.0715
 5294SOL    HW216782   6.518   2.514   1.052  1.3615 -2.6043  0.3204
 5295SOL     OW16783   4.369   0.360   3.064  0.0502  0.1846 -0.3689
 5295SOL    HW116784   4.441   0.330   3.001 -0.6005 -0.9430 -0.6008
 5295SOL    HW216785   4.338   0.452   3.038 -0.9298 -0.6593 -2.3647
 5296SOL     OW16786   3.764   6.665   0.818 -0.4243  0.0200  0.1892
 5296SOL    HW116787   3.710   6.608   0.755  0.0621  3.2149 -3.4832
 5296SOL    HW216788   3.849   6.616   0.841 -0.8249 -1.4864 -1.2898
 5297SOL     OW16789   5.869   0.162   1.667 -0.1609  0.8462 -0.4477
 5297SOL    HW116790   5.817   0.129   1.588  1.9065  1.6300 -2.2426
 5297SOL    HW216791   5.962   0.185   1.638  0.7036  1.0995  2.2709
 5298SOL     OW16792   7.007   3.168   2.866 -0.0188 -0.0605 -0.4363
 5298SOL    HW116793   6.936   3.165   2.796  0.1638 -1.2452 -0.6049
 5298SOL    HW216794   6.981   3.109   2.942  0.2265  0.4663  0.0603
 5299SOL     OW16795   6.711   6.914   6.689 -0.0477 -0.0441  0.6789
 5299SOL    HW116796   6.694   6.851   6.612  0.7665 -0.3015  0.6905
 5299SOL    HW216797   6.727   6.861   6.772 -0.3943  0.2173  0.9126
 5300SOL     OW16798   2.087   4.728   3.768 -0.4941  0.1090 -0.5898
 5300SOL    HW116799   2.149   4.726   3.846 -1.3305 -1.2886  0.0819
 5300SOL    HW216800   2.138   4.753   3.686  0.9521 -0.9344 -0.0612
 5301SOL     OW16801   0.304   3.298   0.990  0.2154 -0.0879 -0.2446
 5301SOL    HW116802   0.209   3.319   1.015  0.1807  0.5532 -0.8679
 5301SOL    HW216803   0.366   3.358   1.041  0.2675 -0.3642  0.0111
 5302SOL     OW16804   2.101   5.430   5.142 -0.4262  0.0090  0.0008
 5302SOL    HW116805   2.015   5.482   5.145 -0.6806 -0.3988 -0.1058
 5302SOL    HW216806   2.174   5.484   5.183 -0.3202  1.1258 -1.5609
 5303SOL     OW16807   4.082   3.059   5.571 -0.2972  0.5413 -0.2859
 5303SOL    HW116808   4.122   3.105   5.491  1.2718 -1.2279 -0.5991
 5303SOL    HW216809   3.990   3.027   5.548 -1.8004  4.0219  0.1989
 5304SOL     OW16810   3.440   5.859   1.133  0.0315  0.0209 -0.2322
 5304SOL    HW116811   3.402   5.914   1.059  0.4956  1.8062  0.7963
 5304SOL    HW216812   3.520   5.809   1.100 -0.2519  0.1600 -1.1357
 5305SOL     OW16813   5.691   5.135   0.890  0.2208  0.1454 -1.0063
 5305SOL    HW116814   5.605   5.142   0.939  0.1646  0.3004 -1.1269
 5305SOL    HW216815   5.704   5.215   0.833 -0.0041 -0.3211 -1.7194
 5306SOL     OW16816   6.746   2.175   2.530  0.3409 -0.3198  0.2504
 5306SOL    HW116817   6.822   2.229   2.494  0.2537 -2.2407 -3.3278
 5306SOL    HW216818   6.660   2.222   2.511  0.4310 -0.0599  0.4792
 5307SOL     OW16819   5.070   1.407   5.183 -0.1735 -0.1553 -0.1893
 5307SOL    HW116820   5.148   1.449   5.229  0.2922 -0.5046 -0.6455
 5307SOL    HW216821   5.074   1.308   5.195  0.2544 -0.3030 -1.4211
 5308SOL     OW16822   3.389   4.137   3.713 -0.5791  0.0521 -0.1243
 5308SOL    HW116823   3.354   4.121   3.620 -0.3097 -1.2602 -0.0198
 5308SOL    HW216824   3.312   4.142   3.777 -0.6847 -1.0240 -0.1521
 5309SOL     OW16825   2.201   2.343   4.696  0.0001  0.0152  0.3088
 5309SOL    HW116826   2.121   2.316   4.750 -0.3199  1.2716  0.4918
 5309SOL    HW216827   2.284   2.329   4.750 -0.1132 -0.9545  0.2495
 5310SOL     OW16828   6.572   1.725   1.346  0.4598  0.2494 -0.8545
 5310SOL    HW116829   6.634   1.659   1.301  0.9587  0.1487 -0.0367
 5310SOL    HW216830   6.621   1.811   1.361  0.2190  0.3627 -0.7305
 5311SOL     OW16831   4.620   6.647   4.699  0.3941 -0.4005 -0.3435
 5311SOL    HW116832   4.631   6.556   4.740  0.7771 -0.7849 -1.2540
 5311SOL    HW216833   4.643   6.717   4.766 -3.4896 -0.7685  1.6384
 5312SOL     OW16834   2.292   4.412   5.466  0.2441  0.4717 -0.4626
 5312SOL    HW116835   2.193   4.417   5.481  0.5244  0.2202  2.0236
 5312SOL    HW216836   2.313   4.339   5.401 -1.1597  0.0862 -0.5163
 5313SOL     OW16837   2.416   5.417   2.696  0.1667 -0.8292  0.9887
 5313SOL    HW116838   2.442   5.323   2.671 -1.2801 -1.1119  0.4503
 5313SOL    HW216839   2.322   5.417   2.730 -0.5975  0.7254 -0.9679
 5314SOL     OW16840   3.577   4.954   5.675 -0.2034 -0.1637 -0.2144
 5314SOL    HW116841   3.513   4.882   5.646 -0.3452 -0.2505  0.3124
 5314SOL    HW216842   3.527   5.040   5.686 -0.1260 -0.1009 -0.3538
 5315SOL     OW16843   2.700   1.753   4.928  0.6677  0.1201  0.2973
 5315SOL    HW116844   2.660   1.842   4.948  2.0149  0.5858  1.0368
 5315SOL    HW216845   2.719   1.705   5.014  1.5639 -0.1419 -0.0418
 5316SOL     OW16846   5.459   5.457   0.365 -0.0200  0.2778  0.1847
 5316SOL    HW116847   5.412   5.539   0.332 -1.6536 -0.3226  0.9064
 5316SOL    HW216848   5.459   5.458   0.465  1.1242  0.0236  0.1974
 5317SOL     OW16849   5.790   1.434   6.926 -0.1731 -0.0361  0.1877
 5317SOL    HW116850   5.782   1.505   6.997  0.4693  0.0741  0.1594
 5317SOL    HW216851   5.700   1.417   6.886 -0.3248  0.8328  0.1290
 5318SOL     OW16852   0.117   0.291   2.580  0.5268 -0.2555 -0.3814
 5318SOL    HW116853   0.143   0.387   2.579  3.3356 -0.9321 -0.8190
 5318SOL    HW216854   0.080   0.266   2.491  0.6877  0.1990 -0.5796
 5319SOL     OW16855   0.318   6.312   5.950 -0.3751  0.0477 -0.5106
 5319SOL    HW116856   0.349   6.361   5.868  0.8365 -1.3736 -0.9526
 5319SOL    HW216857   0.259   6.237   5.923  0.1407 -0.5099 -0.1119
 5320SOL     OW16858   5.474   5.473   3.295  0.0344 -0.3057  0.0694
 5320SOL    HW116859   5.479   5.441   3.200  2.0020  1.7740 -0.6213
 5320SOL    HW216860   5.532   5.416   3.352  2.7600  1.2117 -0.9752
 5321SOL     OW16861   3.040   4.901   3.747  0.1107 -0.6051 -0.5527
 5321SOL    HW116862   2.951   4.874   3.785  0.6017 -1.2208  0.1928
 5321SOL    HW216863   3.113   4.876   3.811  0.8268 -0.1059 -1.1527
 5322SOL     OW16864   5.044   5.991   5.775  0.4813  0.3221 -0.0648
 5322SOL    HW116865   5.041   5.899   5.813  1.9471  0.2483 -0.0967
 5322SOL    HW216866   5.137   6.013   5.747  0.6315  2.6166  1.9100
 5323SOL     OW16867   2.311   2.659   4.956 -0.1384 -0.4875 -0.0097
 5323SOL    HW116868   2.253   2.665   4.874 -0.0521 -1.3187 -0.1421
 5323SOL    HW216869   2.347   2.750   4.978 -0.2262 -0.2357 -0.8481
 5324SOL     OW16870   3.823   0.406   1.100 -0.0945  0.0682 -0.3867
 5324SOL    HW116871   3.916   0.372   1.113 -0.1546 -1.1146 -2.4525
 5324SOL    HW216872   3.823   0.506   1.101  1.1241  0.0725  0.0982
 5325SOL     OW16873   4.807   0.354   1.071 -0.6433 -0.4380 -0.4495
 5325SOL    HW116874   4.749   0.284   1.031 -1.6529  0.7499 -1.1436
 5325SOL    HW216875   4.827   0.330   1.166 -3.0020 -0.4864  0.0896
 5326SOL     OW16876   1.892   1.444   4.425  0.7973  0.2773 -0.3234
 5326SOL    HW116877   1.988   1.464   4.405  1.0920 -0.3146  0.4322
 5326SOL    HW216878   1.879   1.345   4.431  0.6642  0.3839  1.8887
 5327SOL     OW16879   0.195   5.268   6.201  0.1560 -0.1512 -0.0717
 5327SOL    HW116880   0.153   5.246   6.289  1.9698 -2.6502  0.2990
 5327SOL    HW216881   0.212   5.366   6.195  1.2551 -0.0502  3.0130
 5328SOL     OW16882   3.986   0.555   0.083  0.0547  0.0445 -0.0751
 5328SOL    HW116883   4.059   0.607   0.039  0.3925 -0.2024  0.1875
 5328SOL    HW216884   3.995   0.458   0.061 -0.6003  0.0941 -0.5963
 5329SOL     OW16885   1.155   0.404   4.981 -0.4301  0.2584 -0.0476
 5329SOL    HW116886   1.135   0.307   4.997 -1.5038  0.5544  0.5195
 5329SOL    HW216887   1.235   0.412   4.922 -1.1893 -1.0002 -1.3136
 5330SOL     OW16888   3.717   3.151   0.553  0.1298 -0.3608 -0.3279
 5330SOL    HW116889   3.817   3.159   0.557  0.1356 -0.6840  0.3064
 5330SOL    HW216890   3.684   3.108   0.637 -0.5013 -0.7291 -0.7604
 5331SOL     OW16891   5.426   0.658   2.590  0.0915  0.0458 -0.0170
 5331SOL    HW116892   5.511   0.688   2.634  0.0936 -0.8617  0.6053
 5331SOL    HW216893   5.421   0.698   2.498  1.8183 -0.9122 -0.5686
 5332SOL     OW16894   5.776   1.651   5.050  0.2801 -0.2710 -0.1253
 5332SOL    HW116895   5.861   1.600   5.041  1.3860  1.0394  1.8440
 5332SOL    HW216896   5.757   1.701   4.966  1.5959 -0.4032 -0.5152
 5333SOL     OW16897   2.615   0.757   5.472  0.1033 -0.1371  0.0559
 5333SOL    HW116898   2.649   0.710   5.390  1.3788 -0.5269  0.7729
 5333SOL    HW216899   2.586   0.849   5.447 -2.5577 -1.2597 -1.4087
 5334SOL     OW16900   5.539   0.694   3.430  0.5615 -0.3605 -0.7363
 5334SOL    HW116901   5.610   0.645   3.482  1.6127  0.9674 -0.8698
 5334SOL    HW216902   5.481   0.745   3.493  1.0928  0.2858 -0.7527
 5335SOL     OW16903   2.513   2.601   3.433 -0.6424  0.5172 -0.3942
 5335SOL    HW116904   2.457   2.550   3.498 -0.8808 -0.5316 -1.3842
 5335SOL    HW216905   2.609   2.577   3.445 -0.8472 -1.0689 -1.5667
 5336SOL     OW16906   1.767   6.185   0.640  0.0171  0.0262 -0.2847
 5336SOL    HW116907   1.721   6.221   0.722 -1.2209 -0.9474 -0.5279
 5336SOL    HW216908   1.706   6.192   0.562  1.0814  0.6523 -1.0907
 5337SOL     OW16909   5.117   5.879   2.397  0.4563 -0.3971 -0.1771
 5337SOL    HW116910   5.121   5.887   2.298  0.5917 -0.7479 -0.1997
 5337SOL    HW216911   5.203   5.841   2.432  1.1358  1.3855  0.2476
 5338SOL     OW16912   2.835   1.717   3.372 -0.7416 -0.3764  0.4295
 5338SOL    HW116913   2.885   1.798   3.341 -0.2222 -0.9149 -0.1323
 5338SOL    HW216914   2.753   1.705   3.315  0.0251 -1.1609 -0.5276
 5339SOL     OW16915   6.094   0.902   2.362 -0.4487  0.1305  0.1522
 5339SOL    HW116916   6.079   0.824   2.423 -1.3037 -0.6434 -1.0120
 5339SOL    HW216917   6.116   0.869   2.271  0.3630  1.2727 -0.0847
 5340SOL     OW16918   4.189   1.701   2.109 -0.0918  0.2918  0.1632
 5340SOL    HW116919   4.145   1.759   2.179  0.9296 -0.6952  1.6892
 5340SOL    HW216920   4.288   1.704   2.122  0.1334  0.2254 -1.4003
 5341SOL     OW16921   6.095   0.591   2.414  0.1682  0.2570 -0.4436
 5341SOL    HW116922   6.022   0.526   2.393  1.1676 -0.5040 -1.6686
 5341SOL    HW216923   6.098   0.607   2.513  0.8966 -2.8209  0.1250
 5342SOL     OW16924   4.400   1.447   6.544  0.0917 -0.5071 -0.7531
 5342SOL    HW116925   4.344   1.383   6.597 -0.3188  0.0282 -0.5399
 5342SOL    HW216926   4.370   1.540   6.562  1.7725 -0.1279  0.2005
 5343SOL     OW16927   3.942   2.928   0.983  0.0748 -0.1946  0.0846
 5343SOL    HW116928   3.948   2.856   1.051 -0.1553  0.7596  1.1399
 5343SOL    HW216929   3.928   3.016   1.028 -1.9110  0.2413 -1.2552
 5344SOL     OW16930   3.387   5.132   3.728  0.4943  0.3736 -0.3824
 5344SOL    HW116931   3.438   5.099   3.648  0.1165 -1.9190  0.2431
 5344SOL    HW216932   3.291   5.106   3.719  0.0781  1.7453 -0.0225
 5345SOL     OW16933   3.163   3.092   0.446  0.4333  0.2144 -0.4937
 5345SOL    HW116934   3.171   3.003   0.400  0.6398 -0.6023  1.0461
 5345SOL    HW216935   3.170   3.079   0.545 -0.8740  1.8098 -0.1490
 5346SOL     OW16936   2.065   3.660   0.454  0.9011  0.0427  0.1477
 5346SOL    HW116937   2.073   3.739   0.393 -1.0880  0.7412  0.7125
 5346SOL    HW216938   2.028   3.582   0.404 -0.5637  0.5639  0.3689
 5347SOL     OW16939   3.403   2.201   0.753  0.3939  0.1734 -0.4297
 5347SOL    HW116940   3.343   2.157   0.687  0.7554  0.7710 -1.1686
 5347SOL    HW216941   3.492   2.155   0.754 -0.0971 -0.8307  0.7995
 5348SOL     OW16942   5.357   1.520   4.975  0.6519 -0.4234  0.2184
 5348SOL    HW116943   5.449   1.484   4.989  0.8400  0.3012  0.9421
 5348SOL    HW216944   5.309   1.526   5.063  0.4099  0.4945  0.0379
 5349SOL     OW16945   5.583   0.772   7.009  0.0704 -0.7327  0.1110
 5349SOL    HW116946   5.623   0.768   7.101 -0.7241 -1.2244  0.4525
 5349SOL    HW216947   5.647   0.817   6.947  0.4513 -0.0163  0.9914
 5350SOL     OW16948   1.740   0.977   5.155 -0.3299 -0.1279  0.1352
 5350SOL    HW116949   1.766   0.946   5.064 -1.8270 -0.8325 -0.0750
 5350SOL    HW216950   1.682   1.058   5.147 -0.4099 -0.1505  0.4671
 5351SOL     OW16951   5.262   0.080   5.579  0.4842 -0.5001 -0.1232
 5351SOL    HW116952   5.191   0.150   5.573 -1.0798 -1.9332  0.6224
 5351SOL    HW216953   5.351   0.123   5.592 -0.2186  1.3654 -1.2059
 5352SOL     OW16954   1.873   4.340   0.494  0.3514 -0.9957 -0.4006
 5352SOL    HW116955   1.891   4.246   0.523 -0.5208 -1.0212  0.1095
 5352SOL    HW216956   1.955   4.395   0.507  0.0349 -1.0032  2.1832
 5353SOL     OW16957   6.866   2.147   1.557  0.4037 -0.0518  0.0975
 5353SOL    HW116958   6.824   2.177   1.471 -0.3097 -0.5411  0.2626
 5353SOL    HW216959   6.942   2.086   1.537  1.2597  1.0908 -0.2148
 5354SOL     OW16960   0.875   3.254   2.347  0.1594  0.1232 -0.1495
 5354SOL    HW116961   0.858   3.290   2.439 -0.1641  2.0235 -0.9025
 5354SOL    HW216962   0.961   3.204   2.346 -0.5131 -1.1510  1.4850
 5355SOL     OW16963   5.085   0.002   1.845  0.4921 -0.4680  0.6859
 5355SOL    HW116964   5.174  -0.042   1.840  0.4064 -0.5119 -1.2455
 5355SOL    HW216965   5.096   0.093   1.885  1.4268 -0.4215  0.3568
 5356SOL     OW16966   0.549   4.315   4.785 -0.6221 -0.2231  0.0469
 5356SOL    HW116967   0.613   4.390   4.765 -1.4437 -0.0063 -1.9185
 5356SOL    HW216968   0.457   4.341   4.759 -1.5844 -0.5933  2.7227
 5357SOL     OW16969   1.531   0.490   2.929 -0.4830 -0.3187  0.6082
 5357SOL    HW116970   1.576   0.406   2.960  0.3083 -0.3591 -0.5477
 5357SOL    HW216971   1.555   0.566   2.990  2.4321 -0.0238 -0.7275
 5358SOL     OW16972   3.287   1.352   1.256 -0.3068 -0.4446 -0.1142
 5358SOL    HW116973   3.188   1.344   1.267 -0.2679 -1.3939 -0.3628
 5358SOL    HW216974   3.307   1.405   1.173 -0.6644 -2.9430 -1.9337
 5359SOL     OW16975   6.434   6.098   5.630  0.0041  0.0741  0.2655
 5359SOL    HW116976   6.437   6.107   5.531 -0.9079  1.0577  0.3104
 5359SOL    HW216977   6.506   6.035   5.660  0.2527 -0.2776 -1.0122
 5360SOL     OW16978   5.139   3.376   1.916  0.2277  0.3063  0.3046
 5360SOL    HW116979   5.041   3.395   1.919  0.1445 -0.1115  0.2776
 5360SOL    HW216980   5.181   3.403   2.003  0.0977  0.5158  0.3033
 5361SOL     OW16981   3.383   4.219   5.496 -0.3510  0.6127 -0.1341
 5361SOL    HW116982   3.382   4.178   5.404  0.6256 -0.6250  0.3805
 5361SOL    HW216983   3.289   4.241   5.523 -0.6172  1.4769 -1.6148
 5362SOL     OW16984   2.709   0.376   4.333 -0.2067  0.0408 -0.0095
 5362SOL    HW116985   2.732   0.351   4.426 -1.2252 -0.9247  0.0033
 5362SOL    HW216986   2.782   0.347   4.271 -0.0369 -0.3296  0.3599
 5363SOL     OW16987   3.860   0.798   6.524  0.5455  0.3225 -0.0706
 5363SOL    HW116988   3.774   0.775   6.479 -0.7821  1.8419  1.5539
 5363SOL    HW216989   3.936   0.752   6.477 -0.9834 -0.0298 -2.3511
 5364SOL     OW16990   3.792   0.462   2.948 -0.0959  0.2345 -0.3938
 5364SOL    HW116991   3.743   0.383   2.911 -1.7970  0.5935  0.9640
 5364SOL    HW216992   3.885   0.435   2.972 -0.5082 -1.2361 -0.3701
 5365SOL     OW16993   1.283   4.906   0.686  0.0154 -0.8976  0.0786
 5365SOL    HW116994   1.246   4.990   0.724  0.8484 -1.1199  1.4403
 5365SOL    HW216995   1.375   4.890   0.722  0.4732 -1.6285 -1.3183
 5366SOL     OW16996   1.472   2.086   3.029  0.4516  0.2511  0.7801
 5366SOL    HW116997   1.497   2.002   2.980 -0.7698  0.5997 -0.5331
 5366SOL    HW216998   1.374   2.084   3.051  0.6814  0.7658  1.9291
 5367SOL     OW16999   2.235   0.395   3.088 -0.4442  0.2657  0.2983
 5367SOL    HW117000   2.195   0.408   2.997  0.0063 -0.2852  0.0116
 5367SOL    HW217001   2.261   0.483   3.126  0.2954  0.4298 -0.5466
 5368SOL     OW17002   1.008   4.591   0.842  0.2340  0.3673  0.3315
 5368SOL    HW117003   0.921   4.541   0.841 -0.8226  2.1292 -1.3618
 5368SOL    HW217004   1.013   4.648   0.924 -0.4870  0.7055  0.1458
 5369SOL     OW17005   6.042   1.196   4.517  0.1294 -0.4139  0.8201
 5369SOL    HW117006   5.954   1.174   4.559 -2.5660  0.8070 -3.5424
 5369SOL    HW217007   6.069   1.122   4.456  0.6352  0.4073  0.0205
 5370SOL     OW17008   2.385   6.109   1.982 -0.5482  0.6196 -0.0444
 5370SOL    HW117009   2.441   6.042   2.030 -0.1080  1.2595  0.3496
 5370SOL    HW217010   2.288   6.089   1.998 -0.4158  1.2412  1.7419
 5371SOL     OW17011   0.795   2.317   6.955 -0.2992 -0.8371  1.1042
 5371SOL    HW117012   0.873   2.257   6.975  0.4598  0.1809  1.2974
 5371SOL    HW217013   0.745   2.282   6.876  0.0031 -1.8340  1.3468
 5372SOL     OW17014   4.595   5.089   6.430 -0.4282  0.0132 -0.4858
 5372SOL    HW117015   4.681   5.105   6.479  0.2131 -0.2145 -1.4931
 5372SOL    HW217016   4.605   5.119   6.335 -1.0096 -1.2614 -0.9763
 5373SOL     OW17017   0.610   2.805   5.972 -0.7451 -0.5221  0.7237
 5373SOL    HW117018   0.689   2.771   5.921 -1.4308  0.6645 -1.2101
 5373SOL    HW217019   0.592   2.900   5.947 -3.2446 -0.9860  0.5317
 5374SOL     OW17020   5.096   1.175   6.359  0.5005  0.2115 -0.3355
 5374SOL    HW117021   4.999   1.197   6.354  0.3288 -0.3290  0.3878
 5374SOL    HW217022   5.110   1.078   6.339  0.8894  0.2791 -0.4032
 5375SOL     OW17023   2.313   0.591   4.265  0.0479  0.2578  0.3550
 5375SOL    HW117024   2.301   0.668   4.203  0.6813 -1.2682 -1.8078
 5375SOL    HW217025   2.249   0.518   4.241 -0.2969 -0.0754  2.1109
 5376SOL     OW17026   3.221   4.118   3.204 -0.2215 -0.0195  0.2439
 5376SOL    HW117027   3.214   4.217   3.200  0.1148  0.2210  3.2304
 5376SOL    HW217028   3.195   4.079   3.116 -0.9492  2.6575 -0.8235
 5377SOL     OW17029   0.789   2.690   1.150  0.4049  0.4672  0.0218
 5377SOL    HW117030   0.709   2.737   1.112 -0.3035  0.1508  1.0751
 5377SOL    HW217031   0.819   2.618   1.086 -0.8836 -0.1922  0.1265
 5378SOL     OW17032   6.759   1.188   7.013 -0.2557 -0.0797 -0.3456
 5378SOL    HW117033   6.668   1.210   6.977  0.1890  2.2887 -0.1953
 5378SOL    HW217034   6.754   1.103   7.065 -2.5123  0.1983  0.0265
 5379SOL     OW17035   6.806   1.156   0.932  0.0045 -0.2198 -0.0865
 5379SOL    HW117036   6.819   1.250   0.962  0.4815 -0.3893  0.2396
 5379SOL    HW217037   6.806   1.153   0.832  1.3355 -0.0454 -0.1122
 5380SOL     OW17038   5.693   6.875   0.076  0.0083 -0.1657 -0.0727
 5380SOL    HW117039   5.701   6.796   0.138 -0.3938  0.6229  1.0098
 5380SOL    HW217040   5.596   6.891   0.057 -0.0361  1.0649  1.0598
 5381SOL     OW17041   2.076   3.371   5.162  0.5509 -0.3237  0.0447
 5381SOL    HW117042   2.135   3.384   5.241 -1.2054 -0.1249  1.3803
 5381SOL    HW217043   2.024   3.455   5.145  0.0568 -0.7443 -0.5819
 5382SOL     OW17044   6.905   3.437   4.175  0.3463  0.5675 -0.4997
 5382SOL    HW117045   6.952   3.492   4.244 -0.5556  1.5956 -0.6851
 5382SOL    HW217046   6.808   3.432   4.196 -0.0124  1.2370 -1.9134
 5383SOL     OW17047   4.409   4.577   6.008  1.0499 -0.5895 -0.1470
 5383SOL    HW117048   4.348   4.538   5.938 -1.4583  1.5483  0.6883
 5383SOL    HW217049   4.462   4.652   5.969 -1.3970  1.5632  0.4093
 5384SOL     OW17050   1.305   5.425   1.807  0.2046  0.2529 -0.4602
 5384SOL    HW117051   1.388   5.466   1.770  1.3423 -0.5638  1.0588
 5384SOL    HW217052   1.282   5.468   1.895  0.4878 -1.1688  0.3493
 5385SOL     OW17053   1.464   4.472   0.444 -0.7179  0.1289 -0.0071
 5385SOL    HW117054   1.435   4.466   0.540  0.2821 -0.2259  0.2773
 5385SOL    HW217055   1.490   4.566   0.423  1.2345 -0.2098  0.7265
 5386SOL     OW17056   0.855   1.305   2.299  0.1948 -0.0704 -0.2007
 5386SOL    HW117057   0.844   1.400   2.268 -0.1426  0.1869  0.6671
 5386SOL    HW217058   0.926   1.260   2.245 -0.1314  0.4618 -1.0868
 5387SOL     OW17059   3.762   5.257   6.793  0.1569 -0.2818 -0.4928
 5387SOL    HW117060   3.838   5.214   6.842 -0.5969  0.0559  1.0536
 5387SOL    HW217061   3.790   5.348   6.762  0.4545 -0.2387 -0.1099
 5388SOL     OW17062   6.620   6.697   2.736  0.6424  0.5717 -0.3444
 5388SOL    HW117063   6.676   6.714   2.656  1.4979 -0.1381  0.0906
 5388SOL    HW217064   6.668   6.726   2.819  1.0920 -1.4731  0.1840
 5389SOL     OW17065   6.498   0.236   2.856  0.3789 -0.1598 -0.9130
 5389SOL    HW117066   6.517   0.325   2.896  2.9365 -0.8400 -0.4591
 5389SOL    HW217067   6.405   0.236   2.819 -0.2199  2.1783  0.3679
 5390SOL     OW17068   2.808   6.123   3.557  0.3705 -0.2288 -0.4159
 5390SOL    HW117069   2.838   6.211   3.520  1.8463 -0.7823 -0.5833
 5390SOL    HW217070   2.761   6.071   3.485  1.5565 -0.5208 -1.0020
 5391SOL     OW17071   3.878   1.885   6.306 -0.3264  0.0862 -0.3763
 5391SOL    HW117072   3.918   1.833   6.381  0.0956 -2.3224 -2.1475
 5391SOL    HW217073   3.936   1.963   6.284 -0.5541  0.9599  1.8346
 5392SOL     OW17074   2.395   0.195   4.943  0.1737 -0.4141  0.3814
 5392SOL    HW117075   2.320   0.230   4.886  0.1756 -2.3744 -0.9244
 5392SOL    HW217076   2.480   0.197   4.891  0.9126  0.9507  1.5510
 5393SOL     OW17077   0.150   1.775   2.971 -0.4219 -0.0676  0.1629
 5393SOL    HW117078   0.174   1.870   2.992  1.0169 -0.9869  3.2463
 5393SOL    HW217079   0.231   1.727   2.936  0.5766 -1.4103  3.8714
 5394SOL     OW17080   2.527   6.426   0.287 -0.1537 -0.3104 -0.3018
 5394SOL    HW117081   2.428   6.438   0.294 -0.5012 -1.6261 -2.2808
 5394SOL    HW217082   2.569   6.511   0.256 -0.7804 -0.0007 -0.3110
 5395SOL     OW17083   0.719   3.997   2.152  0.0231  0.1669  0.3586
 5395SOL    HW117084   0.626   4.016   2.185  0.3688 -0.4799  1.7852
 5395SOL    HW217085   0.778   3.975   2.230  1.1480 -0.3942 -0.6203
 5396SOL     OW17086   4.688   6.128   6.466 -0.9025  0.3120 -0.0458
 5396SOL    HW117087   4.609   6.077   6.433 -1.0154  2.6318 -3.9865
 5396SOL    HW217088   4.767   6.068   6.471 -1.9347 -1.1109 -0.2993
 5397SOL     OW17089   2.038   3.242   2.656 -0.1720  0.2973 -0.3894
 5397SOL    HW117090   2.049   3.182   2.735  2.0028  0.5859 -0.4107
 5397SOL    HW217091   1.943   3.238   2.624 -0.5582 -1.5614  0.8227
 5398SOL     OW17092   2.812   2.010   4.737  0.1486  0.4472 -0.4040
 5398SOL    HW117093   2.796   2.025   4.835  0.4245  1.0524 -0.4511
 5398SOL    HW217094   2.890   1.949   4.725  0.9865  1.4731 -0.2680
 5399SOL     OW17095   2.151   2.069   2.638  0.4311 -0.5459 -0.2346
 5399SOL    HW117096   2.077   2.129   2.666  0.5611 -0.2905 -0.4335
 5399SOL    HW217097   2.170   2.083   2.541  0.7166 -0.6364 -0.1924
 5400SOL     OW17098   5.948   2.817   5.133 -0.2095 -0.3953 -0.1865
 5400SOL    HW117099   5.898   2.752   5.076 -1.7182 -0.8758  1.5712
 5400SOL    HW217100   5.960   2.778   5.224 -2.4477  2.2179  1.4042
 5401SOL     OW17101   1.556   0.911   3.630  0.0597  0.7579  0.5586
 5401SOL    HW117102   1.550   0.875   3.537  1.0709 -1.1590  1.1720
 5401SOL    HW217103   1.504   0.852   3.692 -0.2212  1.7496  1.2981
 5402SOL     OW17104   4.286   5.778   2.252 -0.7105 -0.2248  0.0910
 5402SOL    HW117105   4.252   5.686   2.270 -0.5406 -0.5495 -1.1654
 5402SOL    HW217106   4.334   5.813   2.333 -1.1920 -1.0410  0.7367
 5403SOL     OW17107   5.140   5.822   0.058 -0.0680  0.0293 -0.2336
 5403SOL    HW117108   5.107   5.775   0.139 -0.0584  1.0563  0.3849
 5403SOL    HW217109   5.074   5.812  -0.016 -0.7391  0.2444  0.3281
 5404SOL     OW17110   0.093   4.326   0.565 -0.3447  0.1557 -0.5418
 5404SOL    HW117111   0.059   4.320   0.471  0.5347 -1.7296 -0.7976
 5404SOL    HW217112   0.192   4.333   0.565 -0.3790  0.8026  0.2459
 5405SOL     OW17113   4.876   6.931   2.202 -0.1453  0.1278  0.0646
 5405SOL    HW117114   4.847   6.938   2.107  0.0087 -0.5858 -0.0372
 5405SOL    HW217115   4.889   6.835   2.227  0.7364  0.3472  0.5207
 5406SOL     OW17116   1.063   3.951   6.665  0.5350 -0.7974 -0.4416
 5406SOL    HW117117   1.135   3.896   6.707  1.7509  0.6121 -0.5898
 5406SOL    HW217118   1.038   3.910   6.577 -0.0713 -2.2317  0.3630
 5407SOL     OW17119   2.390   4.599   2.458  0.4631  0.4077  0.4315
 5407SOL    HW117120   2.462   4.669   2.454  0.9143  0.1009  2.2555
 5407SOL    HW217121   2.399   4.537   2.381  0.8296  1.6199 -0.5292
 5408SOL     OW17122   6.415   2.613   2.646  0.3094 -0.2649 -0.0015
 5408SOL    HW117123   6.392   2.673   2.722  0.3558 -0.7385  0.3885
 5408SOL    HW217124   6.441   2.523   2.681  1.6600 -0.0864 -0.4957
 5409SOL     OW17125   5.898   2.176   5.693  0.3179 -0.2519 -0.0623
 5409SOL    HW117126   5.828   2.227   5.743  1.2071  1.4760 -0.4918
 5409SOL    HW217127   5.864   2.153   5.602  1.0993  2.9107 -1.2948
 5410SOL     OW17128   3.208   6.175   2.827  0.5104  0.8340  0.5038
 5410SOL    HW117129   3.123   6.160   2.776 -0.4339  0.7067  2.0327
 5410SOL    HW217130   3.188   6.174   2.925  2.7099 -2.0880  1.0384
 5411SOL     OW17131   3.101   0.324   1.687 -0.1995  0.0735  0.3668
 5411SOL    HW117132   3.183   0.374   1.713  0.7140 -0.8274 -0.6836
 5411SOL    HW217133   3.063   0.277   1.767 -1.5306  2.9569  1.5573
 5412SOL     OW17134   6.326   4.587   2.852  0.1081 -0.0871  0.2376
 5412SOL    HW117135   6.343   4.640   2.769 -0.3493 -1.7461 -0.9693
 5412SOL    HW217136   6.289   4.647   2.923 -2.0052  0.9339 -1.5925
 5413SOL     OW17137   0.720   2.689   4.455  0.3531  0.2960 -0.5405
 5413SOL    HW117138   0.757   2.781   4.469  0.6560  0.3188 -1.4381
 5413SOL    HW217139   0.704   2.646   4.544 -1.4979  1.8654 -0.0627
 5414SOL     OW17140   1.556   2.733   4.078  0.0179 -0.0381  0.3785
 5414SOL    HW117141   1.552   2.832   4.076  1.6412  0.0533 -1.3240
 5414SOL    HW217142   1.468   2.695   4.048 -0.1773  0.9095 -0.2654
 5415SOL     OW17143   5.660   3.000   0.041  0.7282 -0.1922  0.0930
 5415SOL    HW117144   5.672   2.939  -0.038 -1.0528  0.5662 -0.8163
 5415SOL    HW217145   5.581   2.970   0.094  0.7791  0.4221  0.5190
 5416SOL     OW17146   1.332   2.501   6.435 -0.5094  0.0541  0.2598
 5416SOL    HW117147   1.283   2.490   6.349 -0.8115 -2.3613  0.6734
 5416SOL    HW217148   1.430   2.490   6.419 -0.5951 -0.7435  0.2683
 5417SOL     OW17149   3.437   5.392   1.293 -0.1724  0.7127 -0.1002
 5417SOL    HW117150   3.524   5.405   1.245 -0.5298  0.7275 -0.7591
 5417SOL    HW217151   3.443   5.433   1.384  0.3158  1.2446 -0.3621
 5418SOL     OW17152   1.201   4.123   5.899  0.4079 -0.1362 -0.2730
 5418SOL    HW117153   1.243   4.157   5.815 -0.5752 -0.7125 -1.0234
 5418SOL    HW217154   1.258   4.052   5.939  1.7882  1.3675  0.5581
 5419SOL     OW17155   6.100   4.012   3.388  0.0130 -0.8643  0.1242
 5419SOL    HW117156   6.054   3.946   3.328 -0.5061 -0.2579 -0.1595
 5419SOL    HW217157   6.132   3.965   3.470 -0.0283 -1.5406 -0.2334
 5420SOL     OW17158   2.615   5.505   5.692  0.4245  0.5173  0.4872
 5420SOL    HW117159   2.695   5.458   5.731  0.9670  1.6617  0.8048
 5420SOL    HW217160   2.557   5.538   5.766 -1.4912 -2.1166  0.2692
 5421SOL     OW17161   1.323   2.670   3.989  0.2962  0.5778  0.3618
 5421SOL    HW117162   1.351   2.660   3.894  0.7210 -1.1285  0.6189
 5421SOL    HW217163   1.224   2.661   3.996  0.1697  1.5883 -0.0013
 5422SOL     OW17164   1.998   3.640   5.133  0.2920  0.3987 -0.0133
 5422SOL    HW117165   1.920   3.697   5.108 -0.9311 -0.8671  0.7172
 5422SOL    HW217166   2.020   3.654   5.229  0.8314  0.6093 -0.1687
 5423SOL     OW17167   5.573   3.247   6.705 -0.2812 -0.1925  0.0071
 5423SOL    HW117168   5.563   3.151   6.731  0.7579  0.5741  4.0316
 5423SOL    HW217169   5.668   3.264   6.679 -0.3828 -0.2107 -0.3693
 5424SOL     OW17170   2.796   0.893   4.834  0.2124 -0.0413 -0.4351
 5424SOL    HW117171   2.845   0.963   4.782  0.4282  0.5963  0.6007
 5424SOL    HW217172   2.700   0.920   4.844  0.5987  0.8256  1.1595
 5425SOL     OW17173   5.971   6.950   6.500  0.1042  0.1105 -0.3339
 5425SOL    HW117174   5.940   6.948   6.405 -2.0040  0.7420  0.3006
 5425SOL    HW217175   6.022   7.034   6.516 -0.3094  0.4294 -0.6692
 5426SOL     OW17176   0.792   2.417   4.063 -0.3288 -0.0043  0.2062
 5426SOL    HW117177   0.704   2.378   4.037  0.6292 -1.2254 -1.3743
 5426SOL    HW217178   0.809   2.398   4.160 -0.6345 -2.1527 -0.1078
 5427SOL     OW17179   3.892   5.084   5.734 -0.4606  0.1380  0.2873
 5427SOL    HW117180   3.797   5.100   5.707 -0.0642  1.6557 -0.2910
 5427SOL    HW217181   3.894   5.025   5.815 -1.8067 -1.5730 -0.8642
 5428SOL     OW17182   2.348   5.463   4.614 -0.1785  0.0767  0.0464
 5428SOL    HW117183   2.315   5.419   4.698 -0.3509  0.6671  0.2873
 5428SOL    HW217184   2.430   5.516   4.635 -0.8552  1.1274  0.0700
 5429SOL     OW17185   1.293   3.855   0.233  0.4189  0.3026 -0.1909
 5429SOL    HW117186   1.268   3.948   0.206  0.3493  0.8530  1.6251
 5429SOL    HW217187   1.390   3.840   0.212  0.3660  0.6832 -0.7383
 5430SOL     OW17188   0.491   0.474   6.292  0.4714 -0.2965  0.2747
 5430SOL    HW117189   0.391   0.478   6.297  0.4136 -1.6666  0.6729
 5430SOL    HW217190   0.524   0.545   6.230 -0.8777 -0.9281 -1.2510
 5431SOL     OW17191   2.101   5.060   1.665  0.5580 -0.1165 -0.0351
 5431SOL    HW117192   2.155   4.988   1.708 -1.2735 -2.5980 -1.5979
 5431SOL    HW217193   2.024   5.085   1.723 -0.0970 -1.1348 -0.4411
 5432SOL     OW17194   0.928   4.186   3.302 -0.1483 -0.0431 -0.4625
 5432SOL    HW117195   0.839   4.148   3.326  0.1030 -0.0696  0.4760
 5432SOL    HW217196   0.962   4.242   3.378  1.0750 -0.8449 -0.3874
 5433SOL     OW17197   4.357   2.147   0.051 -0.3678 -0.7625  0.2363
 5433SOL    HW117198   4.282   2.201   0.087 -0.3559 -0.3235 -0.3860
 5433SOL    HW217199   4.348   2.052   0.081  0.3092 -0.1979  2.4288
 5434SOL     OW17200   5.801   1.439   3.395 -0.4006  0.1707  0.0281
 5434SOL    HW117201   5.761   1.530   3.384  1.3137  0.8182 -1.5799
 5434SOL    HW217202   5.828   1.426   3.490  1.5054  2.3868 -0.1136
 5435SOL     OW17203   4.062   0.467   2.096  0.3416 -0.0407 -0.1133
 5435SOL    HW117204   4.033   0.443   2.189 -0.8096 -1.3627 -0.7674
 5435SOL    HW217205   4.095   0.385   2.049 -0.4210  0.3150 -1.3153
 5436SOL     OW17206   3.284   4.912   1.987  0.1673 -0.0915 -0.0269
 5436SOL    HW117207   3.303   4.824   2.031  0.5947  0.3891  0.7817
 5436SOL    HW217208   3.189   4.913   1.953  0.5184 -1.2954 -1.1358
 5437SOL     OW17209   3.663   6.490   0.241  0.1524 -0.0056 -0.1232
 5437SOL    HW117210   3.714   6.449   0.317  0.0769  2.3536  1.3156
 5437SOL    HW217211   3.723   6.502   0.162  1.9189  2.5174  1.4540
 5438SOL     OW17212   0.129   4.693   1.760  0.5992 -0.4043 -0.5997
 5438SOL    HW117213   0.107   4.595   1.762  1.3203 -0.5744 -0.5962
 5438SOL    HW217214   0.156   4.719   1.668 -0.6504  0.0471 -0.8524
 5439SOL     OW17215   1.734   1.433   6.434  0.4005 -0.4199 -0.3217
 5439SOL    HW117216   1.811   1.370   6.434  0.6107 -0.2193  1.5403
 5439SOL    HW217217   1.682   1.422   6.519 -1.8867 -0.8319 -1.6919
 5440SOL     OW17218   4.080   6.191   6.520 -0.1573 -0.1165 -0.2340
 5440SOL    HW117219   4.085   6.150   6.429 -1.6591 -1.6101  0.3264
 5440SOL    HW217220   3.985   6.198   6.549  0.3087 -0.0158  1.3818
 5441SOL     OW17221   4.874   4.061   0.273 -0.1294 -0.3686 -0.0820
 5441SOL    HW117222   4.973   4.055   0.264 -0.0065  1.5346 -0.4229
 5441SOL    HW217223   4.833   3.974   0.246  1.3247 -0.5358 -1.9895
 5442SOL     OW17224   2.685   0.885   3.275 -0.4245  0.4496  0.0777
 5442SOL    HW117225   2.718   0.839   3.192 -2.7725  0.8879 -1.1823
 5442SOL    HW217226   2.675   0.982   3.257  0.6117  0.8425  1.4599
 5443SOL     OW17227   3.663   3.891   5.356  0.2901 -0.1734  0.6689
 5443SOL    HW117228   3.678   3.965   5.290  0.9179  1.6883  2.7645
 5443SOL    HW217229   3.591   3.831   5.323 -0.6982  1.7327 -0.8603
 5444SOL     OW17230   5.682   6.216   2.648  0.6899 -0.3473  0.3443
 5444SOL    HW117231   5.708   6.165   2.566  1.5090  0.6762 -0.0544
 5444SOL    HW217232   5.583   6.209   2.662  0.7378 -1.7530  0.1275
 5445SOL     OW17233   1.220   0.752   5.741  0.3408 -0.4591 -0.9008
 5445SOL    HW117234   1.230   0.726   5.837  2.4077  1.4658 -0.4991
 5445SOL    HW217235   1.225   0.670   5.684  0.5846 -1.5062  0.5525
 5446SOL     OW17236   3.515   6.512   6.079 -0.0895  0.2439  0.0631
 5446SOL    HW117237   3.443   6.554   6.133 -0.7449 -2.4099  1.4680
 5446SOL    HW217238   3.597   6.502   6.135  0.6361  1.1820 -0.8001
 5447SOL     OW17239   2.791   3.405   5.234  0.0615  0.1488 -0.2673
 5447SOL    HW117240   2.711   3.346   5.246 -0.4373  0.6503 -1.0290
 5447SOL    HW217241   2.787   3.482   5.298 -0.6324  0.7635 -1.0406
 5448SOL     OW17242   0.961   4.504   6.816 -0.7491  0.2115 -0.6606
 5448SOL    HW117243   0.988   4.412   6.843 -1.7979 -0.5059 -1.9235
 5448SOL    HW217244   0.972   4.567   6.893  1.6234 -0.5878 -0.2725
 5449SOL     OW17245   2.486   1.361   4.502 -0.1283 -0.3678  0.6436
 5449SOL    HW117246   2.525   1.449   4.529  1.6369 -0.1889 -2.1216
 5449SOL    HW217247   2.538   1.287   4.545  0.8152 -0.0696  0.0447
 5450SOL     OW17248   1.542   6.630   6.311 -0.1758  0.0249  0.4269
 5450SOL    HW117249   1.507   6.722   6.328 -0.7620  0.1371 -1.2129
 5450SOL    HW217250   1.617   6.635   6.244 -0.3745 -0.6939  0.1387
 5451SOL     OW17251   5.988   5.831   6.863  0.6742 -0.0104  0.5963
 5451SOL    HW117252   6.009   5.813   6.959  2.1430 -0.7557  0.1600
 5451SOL    HW217253   5.893   5.861   6.855  0.4937 -0.0447  2.2581
 5452SOL     OW17254   0.681   0.563   3.160  0.3197 -0.3083 -0.3297
 5452SOL    HW117255   0.669   0.646   3.105  0.2636 -0.8510 -1.1430
 5452SOL    HW217256   0.645   0.484   3.111 -0.3789 -0.7156  0.7855
 5453SOL     OW17257   3.996   4.911   4.561  0.3677  0.2481 -0.0427
 5453SOL    HW117258   3.942   4.860   4.495 -0.4508  0.6894  0.2709
 5453SOL    HW217259   4.008   5.005   4.529  1.6024 -0.0364 -0.4710
 5454SOL     OW17260   3.397   5.339   4.195 -0.1892  0.3936  0.0624
 5454SOL    HW117261   3.407   5.436   4.217  1.2107  0.0778  1.0328
 5454SOL    HW217262   3.338   5.295   4.263 -2.8102  0.9573 -1.7199
 5455SOL     OW17263   4.345   1.531   2.996  1.1555 -0.4271 -0.3337
 5455SOL    HW117264   4.357   1.483   3.083 -1.7058  0.0033  0.4177
 5455SOL    HW217265   4.339   1.630   3.013 -0.0424 -0.3808 -0.8816
 5456SOL     OW17266   1.349   5.841   0.415 -0.0287  0.1183  0.8868
 5456SOL    HW117267   1.393   5.837   0.505 -0.6310  0.8950  1.2252
 5456SOL    HW217268   1.413   5.807   0.346  1.7958  2.8092  1.1100
 5457SOL     OW17269   4.407   0.596   5.742 -1.1793 -0.4439  0.2432
 5457SOL    HW117270   4.328   0.645   5.705 -1.5173 -1.4439 -0.4014
 5457SOL    HW217271   4.396   0.583   5.840 -0.9895  0.9189  0.4631
 5458SOL     OW17272   6.013   6.282   1.829 -0.0455  0.0916  0.9462
 5458SOL    HW117273   5.917   6.293   1.855 -0.1033  1.5168  0.2291
 5458SOL    HW217274   6.020   6.274   1.730  0.6415  1.1326  0.8930
 5459SOL     OW17275   1.297   2.897   1.586  0.3116  0.4446 -0.2586
 5459SOL    HW117276   1.212   2.856   1.554  0.5879 -0.8439  0.5540
 5459SOL    HW217277   1.277   2.980   1.637 -0.2957  1.1971 -1.6890
 5460SOL     OW17278   2.043   5.658   0.372 -0.4413 -0.1427  0.1827
 5460SOL    HW117279   2.040   5.602   0.455 -0.8303 -0.1779  0.1486
 5460SOL    HW217280   1.951   5.689   0.350 -0.9280 -2.7100 -1.9604
 5461SOL     OW17281   4.722   5.719   2.781  0.1668  0.0578  0.1708
 5461SOL    HW117282   4.688   5.699   2.689 -0.5639 -0.1412  0.4772
 5461SOL    HW217283   4.768   5.638   2.818 -0.5834 -0.2560  0.4353
 5462SOL     OW17284   6.201   2.338   5.912  0.7081 -0.6101  0.2279
 5462SOL    HW117285   6.131   2.392   5.957  1.0751 -0.0818  0.1783
 5462SOL    HW217286   6.203   2.245   5.951 -1.4199 -1.3130 -1.2039
 5463SOL     OW17287   1.626   1.948   1.769 -0.2427 -0.7986  0.3313
 5463SOL    HW117288   1.718   1.920   1.744 -0.1626 -0.8629  0.6937
 5463SOL    HW217289   1.628   2.037   1.812 -0.5046 -0.1877 -0.8618
 5464SOL     OW17290   2.180   2.140   1.171 -0.4701 -0.0534  0.3107
 5464SOL    HW117291   2.124   2.066   1.132 -0.2856 -0.5013  0.8767
 5464SOL    HW217292   2.229   2.105   1.251 -1.0529  0.9230  1.1138
 5465SOL     OW17293   0.508   0.196   4.155  0.3059  0.1827  0.2009
 5465SOL    HW117294   0.586   0.249   4.187  0.5880  0.4957 -0.9865
 5465SOL    HW217295   0.532   0.148   4.071 -0.5217 -0.3920  0.2777
 5466SOL     OW17296   0.388   2.673   6.042 -0.0288 -0.3419  0.1432
 5466SOL    HW117297   0.393   2.593   5.982 -0.6865  0.6399 -1.2768
 5466SOL    HW217298   0.476   2.722   6.040 -0.2177 -0.0221 -0.4438
 5467SOL     OW17299   3.728   6.160   0.191 -0.1157 -0.6002  0.0030
 5467SOL    HW117300   3.634   6.195   0.184  0.0269 -0.1836  0.1670
 5467SOL    HW217301   3.754   6.153   0.288  0.1847 -0.2885 -0.0557
 5468SOL     OW17302   4.059   0.969   0.713 -0.4594  0.1003  0.2644
 5468SOL    HW117303   4.031   0.955   0.618  2.4360 -1.6556 -0.4510
 5468SOL    HW217304   4.098   1.061   0.723 -1.6509  0.6518  0.0444
 5469SOL     OW17305   5.015   5.962   6.674  0.0457 -0.0902 -0.3166
 5469SOL    HW117306   4.961   5.936   6.753  0.4797  2.5309  0.9446
 5469SOL    HW217307   5.111   5.936   6.689  0.0017 -0.2854 -0.3608
 5470SOL     OW17308   2.743   4.783   2.950  0.0144 -0.4231 -0.9140
 5470SOL    HW117309   2.732   4.809   2.854  0.6951 -0.0020 -0.8825
 5470SOL    HW217310   2.838   4.796   2.978 -0.0531 -1.1088 -0.3443
 5471SOL     OW17311   1.361   0.940   4.522  0.0730 -0.1240 -0.0290
 5471SOL    HW117312   1.445   0.947   4.575 -0.2040 -0.9255  0.5248
 5471SOL    HW217313   1.363   1.008   4.448  0.6514  0.7182  0.7362
 5472SOL     OW17314   0.729   2.657   3.824  0.4465 -0.0585  0.9699
 5472SOL    HW117315   0.726   2.652   3.924  0.5794  1.9502  1.1207
 5472SOL    HW217316   0.768   2.745   3.796  0.9420 -0.8074 -0.8694
 5473SOL     OW17317   1.089   4.961   5.312  0.6893  0.3362  0.4773
 5473SOL    HW117318   0.999   5.001   5.326  0.4891  0.0939 -0.0909
 5473SOL    HW217319   1.132   5.001   5.231  1.1521  0.5493  0.8212
 5474SOL     OW17320   6.068   0.995   6.657  0.0639 -0.1591 -0.4578
 5474SOL    HW117321   6.076   1.033   6.749  0.6453  2.5076 -1.5290
 5474SOL    HW217322   6.145   0.933   6.640  0.0836 -0.4866  0.7225
 5475SOL     OW17323   4.386   0.390   3.771  0.0596  0.0254  0.4145
 5475SOL    HW117324   4.290   0.421   3.773 -0.7047 -2.1666  0.4043
 5475SOL    HW217325   4.405   0.337   3.854  0.8467 -0.6949 -0.2129
 5476SOL     OW17326   5.629   4.993   1.326 -0.4787  0.1208 -0.5447
 5476SOL    HW117327   5.727   5.013   1.328 -0.6467  0.9801 -0.5326
 5476SOL    HW217328   5.597   4.980   1.420 -0.4288  0.1109 -0.5286
 5477SOL     OW17329   1.520   3.309   0.112  0.2523  0.1095 -0.4693
 5477SOL    HW117330   1.572   3.264   0.039 -0.4683 -0.5080 -0.6193
 5477SOL    HW217331   1.438   3.352   0.074  0.5748  0.9610 -0.2188
 5478SOL     OW17332   7.022   5.300   5.957  0.0762 -0.0371 -0.2192
 5478SOL    HW117333   7.039   5.246   5.874  1.5957 -1.5028  0.9704
 5478SOL    HW217334   7.043   5.244   6.037 -0.0476  1.7821  1.1332
 5479SOL     OW17335   1.213   2.211   2.910 -0.7814  0.4532  0.5987
 5479SOL    HW117336   1.156   2.260   2.975 -1.3222 -1.7442  1.8710
 5479SOL    HW217337   1.198   2.248   2.818 -2.3424  1.5709  1.2587
 5480SOL     OW17338   5.196   6.569   4.464  0.1245 -0.1947  0.4171
 5480SOL    HW117339   5.218   6.472   4.451  0.5727 -0.1132  0.5462
 5480SOL    HW217340   5.185   6.589   4.561 -1.4606 -0.4256  0.3097
 5481SOL     OW17341   0.477   0.856   1.684 -0.2915 -0.1307  0.2792
 5481SOL    HW117342   0.487   0.955   1.695 -3.0226  0.2550  0.0228
 5481SOL    HW217343   0.472   0.834   1.587  0.8345 -0.6215  0.3191
 5482SOL     OW17344   2.389   3.334   5.909 -0.2119  0.4184 -0.9739
 5482SOL    HW117345   2.434   3.415   5.945 -0.4453  0.3590 -0.5459
 5482SOL    HW217346   2.437   3.303   5.826  0.1732  0.7007 -0.8571
 5483SOL     OW17347   3.378   5.744   2.153  0.2527  0.1314 -0.3371
 5483SOL    HW117348   3.302   5.743   2.218  1.9214 -0.0853  1.7263
 5483SOL    HW217349   3.388   5.835   2.114  1.4244  1.3126  2.5264
 5484SOL     OW17350   6.479   1.364   4.661  0.1794 -0.3058 -0.6224
 5484SOL    HW117351   6.510   1.349   4.567  0.6469  0.4416 -0.5999
 5484SOL    HW217352   6.379   1.365   4.664  0.0322  3.0486 -1.7626
 5485SOL     OW17353   4.356   0.829   6.580  0.3377  0.1291 -0.4010
 5485SOL    HW117354   4.342   0.921   6.544  2.9031  0.5929 -0.3933
 5485SOL    HW217355   4.364   0.765   6.504  2.2855  0.5560 -0.6023
 5486SOL     OW17356   1.714   2.080   2.001 -0.2235  0.3374  0.3781
 5486SOL    HW117357   1.797   2.034   2.034  0.3310  2.2846  1.9354
 5486SOL    HW217358   1.712   2.173   2.038 -2.2140  0.9390 -1.1263
 5487SOL     OW17359   0.907   1.558   6.914 -0.3667 -0.4208  0.3030
 5487SOL    HW117360   0.957   1.593   6.992  0.1995 -1.3302  0.3679
 5487SOL    HW217361   0.900   1.628   6.843  1.2079 -0.3525  0.1970
 5488SOL     OW17362   1.165   3.192   4.750  0.5280 -0.1086  0.0592
 5488SOL    HW117363   1.093   3.194   4.820  0.8520 -0.7381  0.4176
 5488SOL    HW217364   1.248   3.234   4.786  0.2789  0.8355 -0.4371
 5489SOL     OW17365   2.392   4.900   4.545 -0.1292  0.0711  0.3038
 5489SOL    HW117366   2.359   4.977   4.598 -0.4490  0.8321 -0.9543
 5489SOL    HW217367   2.315   4.845   4.512  0.0372 -0.1500  0.2747
 5490SOL     OW17368   4.393   0.548   1.542  0.5473  0.1971 -0.4246
 5490SOL    HW117369   4.451   0.467   1.531 -1.5661 -1.4142 -0.2537
 5490SOL    HW217370   4.397   0.603   1.459  1.0837 -0.7227 -1.0240
 5491SOL     OW17371   6.895   2.546   4.736 -0.4035  0.8924 -0.4952
 5491SOL    HW117372   6.904   2.539   4.636 -1.4327  0.4274 -0.5683
 5491SOL    HW217373   6.852   2.463   4.771 -0.7177  1.3615  0.2495
 5492SOL     OW17374   5.995   2.922   4.591  0.3260 -0.1797  1.0779
 5492SOL    HW117375   6.043   2.875   4.517 -1.8901 -1.1698  0.1740
 5492SOL    HW217376   6.016   2.878   4.678  1.4842 -0.1986  0.8028
 5493SOL     OW17377   3.682   4.558   1.493  0.5082 -0.6436  0.2190
 5493SOL    HW117378   3.611   4.618   1.454  0.0836 -1.0979  0.2819
 5493SOL    HW217379   3.642   4.469   1.515  1.1578 -0.9893  0.0271
 5494SOL     OW17380   5.713   5.889   2.559 -0.5648  0.3924  0.5593
 5494SOL    HW117381   5.769   5.811   2.589 -0.8341  0.0561  0.1961
 5494SOL    HW217382   5.618   5.874   2.586 -0.9656 -0.2956 -1.1163
 5495SOL     OW17383   6.268   6.180   1.210  0.4137  0.5116 -0.1003
 5495SOL    HW117384   6.347   6.241   1.200  0.0733  0.9203 -0.3491
 5495SOL    HW217385   6.297   6.085   1.198  0.8835  0.6524 -0.1002
 5496SOL     OW17386   0.849   6.219   6.788  0.2489 -0.0418 -0.0952
 5496SOL    HW117387   0.933   6.248   6.833  0.3159  0.2418 -0.3954
 5496SOL    HW217388   0.787   6.298   6.779 -1.5215 -0.8538  3.2091
 5497SOL     OW17389   4.620   4.560   0.723 -0.1403 -0.0962  0.5564
 5497SOL    HW117390   4.646   4.464   0.717 -0.0841  0.0049 -1.7700
 5497SOL    HW217391   4.609   4.597   0.630  1.6958  2.6429  1.3237
 5498SOL     OW17392   1.376   1.506   4.645  0.1464 -0.4862  0.0107
 5498SOL    HW117393   1.425   1.550   4.570 -0.2434  0.2269  0.1732
 5498SOL    HW217394   1.436   1.499   4.724 -0.2258  1.0988  0.4686
 5499SOL     OW17395   2.164   5.129   3.688 -0.1579  0.1763  0.1372
 5499SOL    HW117396   2.205   5.111   3.599 -0.1850  1.6925 -0.1993
 5499SOL    HW217397   2.099   5.204   3.681 -2.1490 -1.3806  0.9217
 5500SOL     OW17398   0.060   1.100   0.618 -0.0962  0.0652  0.2062
 5500SOL    HW117399   0.132   1.119   0.685  0.3461  1.3248 -0.5748
 5500SOL    HW217400   0.073   1.009   0.580  0.7612  0.0548  0.4912
 5501SOL     OW17401   0.460   0.671   4.415  0.5588 -0.0536  0.3684
 5501SOL    HW117402   0.439   0.683   4.512  0.2743 -0.3119  0.3390
 5501SOL    HW217403   0.397   0.604   4.375  1.2548 -0.6264  0.2185
 5502SOL     OW17404   0.906   3.953   2.393  0.1816 -0.3166 -0.1188
 5502SOL    HW117405   1.005   3.944   2.381  0.0237 -0.5952 -1.3699
 5502SOL    HW217406   0.870   3.869   2.433  0.0742 -1.4335 -2.4217
 5503SOL     OW17407   6.436   4.912   0.220  0.0751  0.0802 -0.0937
 5503SOL    HW117408   6.393   4.823   0.228 -0.5974  0.5401  1.8759
 5503SOL    HW217409   6.462   4.928   0.125 -1.4247 -1.4358 -0.8018
 5504SOL     OW17410   4.115   3.419   4.212  0.0473 -0.1541  0.2618
 5504SOL    HW117411   4.173   3.432   4.293 -1.3609 -0.0840  1.3082
 5504SOL    HW217412   4.078   3.327   4.213 -0.6058  0.1031  0.1297
 5505SOL     OW17413   3.789   4.857   2.418 -0.3685  0.0126  0.3721
 5505SOL    HW117414   3.876   4.813   2.440  0.4164  0.2138 -2.0441
 5505SOL    HW217415   3.806   4.949   2.383 -1.5022 -0.1351 -0.6437
 5506SOL     OW17416   1.470   0.630   5.090 -0.7224 -0.1083  0.2439
 5506SOL    HW117417   1.437   0.723   5.105  0.3764  0.5324 -1.0905
 5506SOL    HW217418   1.520   0.599   5.170 -1.3051  0.3463  0.7933
 5507SOL     OW17419   0.961   1.944   3.589 -0.0496 -0.3802  0.4296
 5507SOL    HW117420   1.030   1.901   3.531 -1.3148 -0.4435 -1.1163
 5507SOL    HW217421   0.962   1.902   3.679  2.1849 -0.0904  0.5925
 5508SOL     OW17422   2.550   5.656   4.712  0.3356  0.6277 -0.0224
 5508SOL    HW117423   2.568   5.658   4.810 -2.4312 -0.7634  0.5969
 5508SOL    HW217424   2.566   5.747   4.674 -0.8027  1.8378  2.1802
 5509SOL     OW17425   5.797   0.678   0.727  0.1869 -0.2695  0.1273
 5509SOL    HW117426   5.819   0.705   0.821  2.9960  1.5584 -0.9191
 5509SOL    HW217427   5.850   0.597   0.703 -0.4747 -0.6905  0.0588
 5510SOL     OW17428   6.457   4.040   0.374 -0.4520  0.4078  0.4623
 5510SOL    HW117429   6.382   4.014   0.434 -0.0493 -2.8730 -0.2576
 5510SOL    HW217430   6.535   4.068   0.428 -1.2092  0.9137  1.3173
 5511SOL     OW17431   0.882   6.224   0.316  0.4687  0.6099  0.3129
 5511SOL    HW117432   0.876   6.220   0.415  1.3980 -2.7878  0.3814
 5511SOL    HW217433   0.899   6.318   0.287 -0.2865  1.7770  3.2892
 5512SOL     OW17434   0.124   5.709   5.302  0.2075  0.4016  0.2989
 5512SOL    HW117435   0.042   5.726   5.247  0.2579 -0.9589 -0.2335
 5512SOL    HW217436   0.191   5.659   5.247  0.8927  0.4029  1.1140
 5513SOL     OW17437   3.408   4.313   6.513  0.4782  1.0016 -0.0140
 5513SOL    HW117438   3.457   4.312   6.425  1.8013  1.5624  0.6968
 5513SOL    HW217439   3.315   4.278   6.499  1.5500 -1.6897 -1.1274
 5514SOL     OW17440   0.632   6.805   5.802  0.1685  0.0749  0.1077
 5514SOL    HW117441   0.627   6.829   5.705  0.2257 -0.8943 -0.1487
 5514SOL    HW217442   0.699   6.863   5.848  1.5957 -0.7640 -0.8551
 5515SOL     OW17443   0.892   1.398   3.270 -0.3603 -0.0691 -0.1594
 5515SOL    HW117444   0.851   1.470   3.214  0.4959  0.5601 -0.0059
 5515SOL    HW217445   0.822   1.331   3.296 -1.1292  0.6002 -0.4724
 5516SOL     OW17446   3.379   5.230   2.528  0.3619  0.3514 -0.3425
 5516SOL    HW117447   3.398   5.200   2.435 -0.8899  0.2789 -0.6041
 5516SOL    HW217448   3.296   5.184   2.561  2.1302 -1.5649  1.7640
 5517SOL     OW17449   3.980   3.882   1.615 -0.0622 -0.3644 -0.5839
 5517SOL    HW117450   4.064   3.848   1.658  0.4228  1.5516  0.0798
 5517SOL    HW217451   3.947   3.963   1.664 -0.7493  0.5661 -2.4644
 5518SOL     OW17452   5.492   4.311   4.279  0.2727 -0.2445 -0.5545
 5518SOL    HW117453   5.541   4.273   4.201 -0.1652 -0.9970 -0.4699
 5518SOL    HW217454   5.502   4.251   4.358 -0.5376 -0.2569 -0.4537
 5519SOL     OW17455   5.728   1.472   5.954  0.2609 -0.5998 -0.0607
 5519SOL    HW117456   5.752   1.453   5.859  1.4406 -0.3345  0.1619
 5519SOL    HW217457   5.802   1.524   5.997 -0.9079  0.5623  0.5995
 5520SOL     OW17458   4.817   3.898   2.641 -0.6628  0.2494 -0.5455
 5520SOL    HW117459   4.829   3.811   2.690  1.8612  0.4471 -0.6507
 5520SOL    HW217460   4.819   3.881   2.543  2.6691  0.5714 -0.6481
 5521SOL     OW17461   4.106   5.002   6.154  0.0830  0.0000  0.4715
 5521SOL    HW117462   4.162   5.085   6.149  1.0539 -0.5313  1.9800
 5521SOL    HW217463   4.052   4.994   6.070  2.4888  0.3895 -1.2387
 5522SOL     OW17464   3.300   4.777   0.250  0.1773  0.3136 -0.3381
 5522SOL    HW117465   3.257   4.776   0.159 -1.0101  0.2530  0.2023
 5522SOL    HW217466   3.308   4.872   0.281 -0.8881  0.2487  0.1559
 5523SOL     OW17467   1.641   3.064   5.494  0.1088 -0.0668  0.1009
 5523SOL    HW117468   1.740   3.081   5.492 -0.1413  1.6994  0.8423
 5523SOL    HW217469   1.609   3.060   5.588 -0.7700  1.1344 -0.1186
 5524SOL     OW17470   1.610   6.854   5.392  0.3534  0.1578 -0.1382
 5524SOL    HW117471   1.644   6.948   5.393 -0.3289  0.4344 -1.2334
 5524SOL    HW217472   1.543   6.844   5.318 -1.3557 -0.5622  1.4291
 5525SOL     OW17473   0.687   6.179   6.090 -0.1146  0.2245  0.3470
 5525SOL    HW117474   0.654   6.256   6.035  0.7168  0.8975  0.7676
 5525SOL    HW217475   0.610   6.121   6.116 -0.8991  1.4438  0.8271
 5526SOL     OW17476   3.306   3.207   6.967  0.4725  0.2651 -0.8677
 5526SOL    HW117477   3.295   3.166   7.058 -1.8261 -0.8972 -1.6057
 5526SOL    HW217478   3.389   3.170   6.925  0.6384 -0.5016  0.0738
 5527SOL     OW17479   0.670   6.966   6.237 -0.1150 -0.4978 -0.0944
 5527SOL    HW117480   0.600   6.900   6.265 -0.3566  0.2038  1.0391
 5527SOL    HW217481   0.689   7.029   6.313  1.1034 -0.1149 -0.6905
 5528SOL     OW17482   6.483   2.065   6.159  0.3202  0.0304  0.3417
 5528SOL    HW117483   6.510   2.161   6.153 -0.6569  0.3063  0.2011
 5528SOL    HW217484   6.546   2.010   6.104 -0.0045  0.7804 -0.8157
 5529SOL     OW17485   6.429   1.495   3.424 -0.0855  0.4493  0.0040
 5529SOL    HW117486   6.516   1.541   3.404 -0.9990  2.8028  1.1121
 5529SOL    HW217487   6.382   1.475   3.338  1.3833 -0.6360 -0.6049
 5530SOL     OW17488   3.070   2.119   2.017 -0.3131  0.0090  0.1905
 5530SOL    HW117489   2.995   2.184   2.021 -0.3216  0.0503 -0.5123
 5530SOL    HW217490   3.152   2.165   1.982 -1.3040 -1.1455 -4.3626
 5531SOL     OW17491   4.858   1.919   3.126  0.2279 -0.4420  0.0075
 5531SOL    HW117492   4.836   1.865   3.045 -0.0410 -0.7486  0.2843
 5531SOL    HW217493   4.832   2.014   3.111 -0.6002 -0.6558  0.0475
 5532SOL     OW17494   3.038   0.731   4.867 -0.0417  0.4791  0.0168
 5532SOL    HW117495   2.944   0.762   4.850  0.3687  1.6471 -0.2764
 5532SOL    HW217496   3.097   0.811   4.880  1.4027 -0.0983 -2.3329
 5533SOL     OW17497   4.752   4.830   2.545  0.3411  0.2169  0.1358
 5533SOL    HW117498   4.800   4.771   2.610 -0.3397 -0.5627 -0.0467
 5533SOL    HW217499   4.756   4.790   2.454 -0.9787 -0.0869  0.1894
 5534SOL     OW17500   3.046   0.925   5.632 -0.3168 -0.0196 -0.2621
 5534SOL    HW117501   3.078   0.933   5.727 -0.2658  0.7279 -0.3345
 5534SOL    HW217502   3.100   0.985   5.573 -2.4583  2.1345 -0.2153
 5535SOL     OW17503   2.558   1.324   4.839  0.1111  0.2635  0.1335
 5535SOL    HW117504   2.483   1.314   4.904 -0.4602  1.6560 -0.2733
 5535SOL    HW217505   2.548   1.256   4.766  1.2822 -1.9424  1.9245
 5536SOL     OW17506   4.362   4.681   0.773 -0.5307 -0.4766 -0.0753
 5536SOL    HW117507   4.367   4.770   0.728 -1.3934 -0.1308  0.5036
 5536SOL    HW217508   4.450   4.634   0.762 -0.4809 -0.1013 -1.4818
 5537SOL     OW17509   3.955   4.820   3.889  0.5032  0.2668 -0.6873
 5537SOL    HW117510   4.035   4.767   3.861  0.7118 -0.2242  0.7631
 5537SOL    HW217511   3.893   4.831   3.811  0.0304 -2.8728 -0.8509
 5538SOL     OW17512   6.569   0.256   6.123  0.1011 -0.4017  0.5611
 5538SOL    HW117513   6.574   0.342   6.173 -1.6001 -0.9194  1.6904
 5538SOL    HW217514   6.573   0.275   6.025  0.9330  0.8464  0.8106
 5539SOL     OW17515   4.958   5.974   4.549  0.0164 -0.4830 -0.2252
 5539SOL    HW117516   5.048   5.961   4.508 -0.0646 -1.2025 -0.1904
 5539SOL    HW217517   4.944   5.906   4.622  0.6663  1.5442  1.9165
 5540SOL     OW17518   3.514   3.984   3.328 -0.0560 -0.0264 -0.0412
 5540SOL    HW117519   3.584   3.948   3.389 -0.5663 -0.0614  0.5358
 5540SOL    HW217520   3.435   4.013   3.382 -1.2105 -1.6125 -0.8110
 5541SOL     OW17521   1.124   1.359   0.036 -0.1297 -0.6207 -0.0307
 5541SOL    HW117522   1.057   1.369  -0.038  1.2058  0.8988 -1.1054
 5541SOL    HW217523   1.124   1.441   0.093  1.5276 -0.1065 -0.7073
 5542SOL     OW17524   4.470   6.250   2.405 -0.1080 -0.3813  0.6682
 5542SOL    HW117525   4.524   6.328   2.439  1.0298 -0.5487 -0.6344
 5542SOL    HW217526   4.408   6.219   2.476  0.0458  1.1568  1.5256
 5543SOL     OW17527   2.280   4.206   4.022 -0.0594 -0.2039 -0.4208
 5543SOL    HW117528   2.230   4.119   4.024 -1.3549  0.5147  0.1561
 5543SOL    HW217529   2.339   4.209   3.941 -3.3267  0.1359 -3.0372
 5544SOL     OW17530   6.317   0.913   5.699  0.3852  0.0881 -0.5156
 5544SOL    HW117531   6.259   0.831   5.692 -1.3270  1.0917  0.9347
 5544SOL    HW217532   6.289   0.979   5.629  0.3263  0.2414 -0.3498
 5545SOL     OW17533   6.405   0.369   2.299  0.4354  0.2677  0.1966
 5545SOL    HW117534   6.341   0.325   2.362 -0.3694  0.2044 -0.6283
 5545SOL    HW217535   6.363   0.373   2.208  0.8980  1.8342  0.0252
 5546SOL     OW17536   0.683   1.614   1.314  0.3898 -0.3547  0.1701
 5546SOL    HW117537   0.687   1.703   1.269 -0.5981 -0.5422 -0.3250
 5546SOL    HW217538   0.601   1.609   1.371  0.7232 -0.7491  0.6181
 5547SOL     OW17539   4.350   6.987   0.367 -0.8890  0.8658  0.1106
 5547SOL    HW117540   4.357   7.023   0.274 -2.4243 -1.2594 -0.9125
 5547SOL    HW217541   4.418   6.914   0.381 -1.0334  0.7947  0.4675
 5548SOL     OW17542   0.704   3.523   1.474  0.0983  0.3858  0.7446
 5548SOL    HW117543   0.733   3.569   1.558 -0.8983 -0.3914  1.5474
 5548SOL    HW217544   0.769   3.542   1.401  0.6477  1.5928  1.5256
 5549SOL     OW17545   6.118   4.209   1.856  0.0949 -0.3215 -0.1771
 5549SOL    HW117546   6.052   4.152   1.806 -2.0788  2.1998 -0.4102
 5549SOL    HW217547   6.082   4.229   1.947  0.8300  0.5968 -0.0807
 5550SOL     OW17548   0.809   2.649   6.886 -0.2025  0.1692 -0.7183
 5550SOL    HW117549   0.769   2.576   6.941  0.8003  1.1401  1.4137
 5550SOL    HW217550   0.761   2.655   6.799 -0.5995 -2.7114 -0.8049
 5551SOL     OW17551   1.028   2.795   2.472 -0.1447  0.3033  0.1040
 5551SOL    HW117552   0.947   2.837   2.430 -1.3939 -2.3785 -0.4335
 5551SOL    HW217553   1.044   2.836   2.562 -1.9437  1.0899  0.1118
 5552SOL     OW17554   2.821   0.115   3.750  0.4607 -0.3474  0.0273
 5552SOL    HW117555   2.793   0.205   3.716  0.9953 -0.0642  0.3319
 5552SOL    HW217556   2.917   0.099   3.728  0.3503 -0.8750 -0.0851
 5553SOL     OW17557   3.368   6.571   4.896  0.0910 -0.0685  0.0645
 5553SOL    HW117558   3.369   6.663   4.855  2.9086 -0.3158 -0.6490
 5553SOL    HW217559   3.427   6.570   4.977 -1.5010 -0.8212  1.2671
 5554SOL     OW17560   1.645   6.409   5.621 -0.0647 -0.0698 -0.0155
 5554SOL    HW117561   1.618   6.320   5.657  0.4101 -0.2648 -0.1310
 5554SOL    HW217562   1.745   6.414   5.615 -0.1148  0.1930 -0.7143
 5555SOL     OW17563   6.681   5.009   6.456 -0.6446 -0.1169 -0.1226
 5555SOL    HW117564   6.743   5.035   6.531 -0.0800 -1.9881  0.1148
 5555SOL    HW217565   6.609   5.078   6.447  0.3047  1.0799  0.9289
 5556SOL     OW17566   5.632   1.425   1.421  0.2723 -0.3621  0.1139
 5556SOL    HW117567   5.639   1.520   1.452  0.5797 -0.7587  1.3359
 5556SOL    HW217568   5.689   1.367   1.480  0.1850 -1.2928 -0.6903
 5557SOL     OW17569   6.692   1.204   5.476 -1.1874 -0.7032  0.0440
 5557SOL    HW117570   6.721   1.299   5.485  0.0861 -0.7609 -2.5735
 5557SOL    HW217571   6.702   1.158   5.564  2.1609  0.5442  0.4730
 5558SOL     OW17572   6.418   6.138   3.718  0.0213  0.2736  0.3051
 5558SOL    HW117573   6.452   6.044   3.705 -2.5758 -0.6047 -0.8905
 5558SOL    HW217574   6.342   6.137   3.784 -0.4987  1.4126 -0.2482
 5559SOL     OW17575   6.925   5.091   0.665 -0.7308 -0.6568 -0.1556
 5559SOL    HW117576   6.892   5.154   0.736  0.4197 -0.5290  0.3013
 5559SOL    HW217577   7.011   5.050   0.696 -1.6897 -2.8611 -0.2144
 5560SOL     OW17578   4.097   0.881   6.236  0.5897  0.1948  0.0484
 5560SOL    HW117579   4.075   0.803   6.295  0.8014 -1.5974 -2.0969
 5560SOL    HW217580   4.196   0.884   6.220  0.7088  1.5353  0.8751
 5561SOL     OW17581   1.006   4.675   4.685  0.4393 -0.3838 -0.0113
 5561SOL    HW117582   1.085   4.675   4.746 -0.0085 -0.8864  0.5911
 5561SOL    HW217583   1.030   4.632   4.598  1.1039  0.3976 -0.2159
 5562SOL     OW17584   6.592   0.275   0.427 -0.0924  0.2396 -0.4183
 5562SOL    HW117585   6.690   0.277   0.407  0.1817 -2.5209  0.2175
 5562SOL    HW217586   6.548   0.209   0.366 -1.4248  0.8780 -0.1695
 5563SOL     OW17587   0.107   2.010   2.602 -0.1411 -0.2257 -0.6229
 5563SOL    HW117588   0.185   2.064   2.632  0.2081 -1.1246  0.1532
 5563SOL    HW217589   0.086   2.031   2.506 -0.4072  1.6978 -0.1814
 5564SOL     OW17590   4.645   0.894   6.498 -0.0091 -0.1657  1.0024
 5564SOL    HW117591   4.559   0.861   6.536 -0.7764  1.7924  1.0864
 5564SOL    HW217592   4.693   0.950   6.566 -0.7519  2.2544 -0.3483
 5565SOL     OW17593   1.956   4.440   3.178 -0.1478  0.5257  0.1477
 5565SOL    HW117594   1.973   4.455   3.081 -0.9946  0.4416 -0.0274
 5565SOL    HW217595   2.031   4.478   3.232  1.2743 -1.1064 -0.6066
 5566SOL     OW17596   3.175   4.343   6.090 -0.1652  0.5111 -0.0647
 5566SOL    HW117597   3.258   4.290   6.108 -0.5701 -0.4855 -1.0789
 5566SOL    HW217598   3.196   4.441   6.102  0.8950  0.2167  0.6393
 5567SOL     OW17599   2.807   1.407   4.804  0.1824  0.4782 -1.2831
 5567SOL    HW117600   2.822   1.504   4.785 -0.5254  1.0539  0.7630
 5567SOL    HW217601   2.710   1.393   4.828  0.3181 -0.7020 -1.3885
 5568SOL     OW17602   1.827   4.010   1.063 -0.1580  0.1421 -0.4817
 5568SOL    HW117603   1.738   4.040   1.098 -0.0343  0.0782 -0.1012
 5568SOL    HW217604   1.894   4.083   1.075 -0.2026  0.2566 -0.9399
 5569SOL     OW17605   0.040   5.205   1.289  0.2777 -0.2597  0.2773
 5569SOL    HW117606   0.082   5.140   1.226 -0.6799 -0.3467 -0.3002
 5569SOL    HW217607   0.036   5.295   1.247  0.0185 -0.2223  0.3789
 5570SOL     OW17608   4.065   1.357   3.033  0.3055 -0.3265  0.3768
 5570SOL    HW117609   4.139   1.324   2.975 -0.1628  0.9062 -0.9642
 5570SOL    HW217610   3.982   1.303   3.015  0.2127 -0.0742  0.0581
 5571SOL     OW17611   5.736   4.149   4.360  0.5748  0.5260  0.1234
 5571SOL    HW117612   5.790   4.228   4.387  0.7301  0.7351 -0.7599
 5571SOL    HW217613   5.792   4.087   4.306  0.3900 -0.0864  0.6186
 5572SOL     OW17614   3.958   2.668   6.356  0.3247 -0.3071 -0.1119
 5572SOL    HW117615   4.031   2.692   6.293  0.6257 -0.3510  0.2193
 5572SOL    HW217616   3.893   2.607   6.309  1.2735 -1.4655  0.0140
 5573SOL     OW17617   2.370   1.425   1.894 -0.4476 -0.3327 -0.8400
 5573SOL    HW117618   2.443   1.372   1.850  0.5098 -0.1170  0.4607
 5573SOL    HW217619   2.408   1.508   1.933 -1.0943 -0.9449  1.1857
 5574SOL     OW17620   3.507   6.718   4.021 -0.1784  0.3272  0.6444
 5574SOL    HW117621   3.458   6.693   4.104  0.4487 -0.6310  0.7429
 5574SOL    HW217622   3.598   6.677   4.023  0.4186  1.5975  0.2052
 5575SOL     OW17623   2.621   0.521   2.393  0.6776  0.4641  0.4551
 5575SOL    HW117624   2.695   0.468   2.435 -0.1442 -1.1035  0.0210
 5575SOL    HW217625   2.621   0.614   2.430  3.5493  0.8832 -0.3634
 5576SOL     OW17626   2.081   5.788   3.994 -0.0561  0.2060  0.2811
 5576SOL    HW117627   2.132   5.815   4.075 -1.3567 -0.4057  1.3553
 5576SOL    HW217628   1.995   5.839   3.991  0.5628  1.2272 -1.4855
 5577SOL     OW17629   1.050   2.930   1.188  0.1393  0.1047  0.1269
 5577SOL    HW117630   1.117   2.908   1.260  2.4086  1.4861 -1.4180
 5577SOL    HW217631   0.960   2.895   1.214  0.7368  0.8769  3.8057
 5578SOL     OW17632   3.181   4.196   6.871 -0.6374  0.2342 -0.6227
 5578SOL    HW117633   3.223   4.202   6.780 -0.3033 -0.3902 -0.5178
 5578SOL    HW217634   3.165   4.100   6.894  0.7410  0.2735  0.6318
 5579SOL     OW17635   0.702   2.080   2.142  0.1531 -0.1736  0.1570
 5579SOL    HW117636   0.768   2.075   2.217 -1.3602  1.6740  1.7364
 5579SOL    HW217637   0.641   2.157   2.157 -0.8791 -0.3670 -2.5021
 5580SOL     OW17638   5.174   5.081   1.862 -0.9917  0.1712  0.6494
 5580SOL    HW117639   5.110   5.012   1.897 -1.1488 -0.0019  0.0508
 5580SOL    HW217640   5.122   5.157   1.824 -0.8211  0.4937  1.0616
 5581SOL     OW17641   2.382   6.867   6.412 -0.4261 -0.1804 -0.3037
 5581SOL    HW117642   2.385   6.944   6.348 -1.5271  1.3422  1.3657
 5581SOL    HW217643   2.340   6.788   6.368  1.7557 -0.2818 -2.4313
 5582SOL     OW17644   3.110   3.008   2.763 -0.5780 -1.0589  0.1788
 5582SOL    HW117645   3.140   2.964   2.678  0.7435  0.9850 -0.5050
 5582SOL    HW217646   3.043   3.079   2.741 -0.0581 -0.3686  0.7946
 5583SOL     OW17647   5.265   0.779   3.928 -0.1304 -0.2677 -0.2463
 5583SOL    HW117648   5.355   0.740   3.950  0.4832  1.0627 -0.2998
 5583SOL    HW217649   5.210   0.787   4.011  0.5155  0.6297  0.1120
 5584SOL     OW17650   6.605   2.267   6.500  0.2264  0.0119 -0.9289
 5584SOL    HW117651   6.605   2.352   6.447 -1.7256 -0.4768 -1.8021
 5584SOL    HW217652   6.683   2.211   6.473  2.0525  1.8373  0.2780
 5585SOL     OW17653   4.392   0.217   4.773  0.2923 -0.9133 -0.3585
 5585SOL    HW117654   4.329   0.261   4.710 -0.4145 -0.0107  0.9198
 5585SOL    HW217655   4.429   0.285   4.836  0.3470 -1.9003  0.7173
 5586SOL     OW17656   1.952   3.359   6.220 -0.0520  0.5839  0.3509
 5586SOL    HW117657   1.965   3.292   6.293  0.6549 -1.1017 -1.2317
 5586SOL    HW217658   1.916   3.444   6.259  1.3383  0.1596  2.7894
 5587SOL     OW17659   1.510   6.750   4.705  0.0030  0.2048 -0.5105
 5587SOL    HW117660   1.416   6.779   4.726 -0.4549 -0.7051 -1.2355
 5587SOL    HW217661   1.544   6.692   4.778 -0.1813  0.1353 -0.4791
 5588SOL     OW17662   6.332   5.147   4.754 -0.1901 -0.6948  0.3246
 5588SOL    HW117663   6.299   5.173   4.844  0.5106  1.8882 -0.0793
 5588SOL    HW217664   6.315   5.222   4.689  2.2354 -1.1157 -0.9223
 5589SOL     OW17665   5.904   4.579   6.500  0.2143 -0.3812 -0.6332
 5589SOL    HW117666   5.983   4.618   6.453  1.0168 -0.7464  0.3951
 5589SOL    HW217667   5.932   4.500   6.554 -0.4660  0.6412  1.3188
 5590SOL     OW17668   4.618   6.324   5.254 -0.3131  0.0701 -0.2932
 5590SOL    HW117669   4.614   6.395   5.324  0.9865  0.5541 -0.6810
 5590SOL    HW217670   4.650   6.364   5.168 -1.1054 -0.6758 -0.9526
 5591SOL     OW17671   1.516   6.483   4.472  0.1283 -0.2355 -0.6904
 5591SOL    HW117672   1.475   6.403   4.516  1.6886 -0.0546  1.2329
 5591SOL    HW217673   1.478   6.567   4.511  2.1393 -0.0634  1.1240
 5592SOL     OW17674   0.528   6.963   5.357  0.4321 -0.1515 -0.0234
 5592SOL    HW117675   0.507   7.052   5.398  2.7545  1.0495 -1.2531
 5592SOL    HW217676   0.592   6.913   5.415  1.2740  0.2070 -0.6116
 5593SOL     OW17677   4.999   0.450   2.301  0.5620 -0.0938  0.2877
 5593SOL    HW117678   4.906   0.483   2.282  0.1010  0.0210  2.4359
 5593SOL    HW217679   5.007   0.355   2.273 -0.5181 -0.3793  0.8758
 5594SOL     OW17680   1.332   2.935   1.319 -0.0672 -0.2836  0.3137
 5594SOL    HW117681   1.349   2.909   1.414  0.8683 -0.1841  0.1832
 5594SOL    HW217682   1.390   2.879   1.259 -1.3549 -1.0270 -0.2731
 5595SOL     OW17683   5.328   0.636   6.281 -0.3439  0.0484  0.9947
 5595SOL    HW117684   5.325   0.585   6.195 -1.2870  0.0099  1.0313
 5595SOL    HW217685   5.412   0.689   6.287 -0.0932 -0.2590  0.2293
 5596SOL     OW17686   5.674   0.284   6.491  0.4134 -0.5552 -0.1439
 5596SOL    HW117687   5.767   0.321   6.491 -0.4026  1.6479 -0.4463
 5596SOL    HW217688   5.611   0.353   6.526 -1.3515 -1.2693 -1.7294
 5597SOL     OW17689   5.862   3.381   5.637 -0.1233 -0.0009 -0.1835
 5597SOL    HW117690   5.795   3.375   5.564 -0.8734 -1.4677  0.5873
 5597SOL    HW217691   5.939   3.320   5.618 -0.5831 -0.8069  0.4995
 5598SOL     OW17692   5.961   0.067   4.379 -0.1447 -0.0946 -0.2638
 5598SOL    HW117693   5.919   0.049   4.468  0.3978 -0.6129 -0.1071
 5598SOL    HW217694   6.016   0.150   4.385 -1.5389  0.8948 -0.6136
 5599SOL     OW17695   5.376   5.635   4.736 -0.6139 -0.5226  0.0156
 5599SOL    HW117696   5.425   5.643   4.823 -3.0716 -0.7829  1.5162
 5599SOL    HW217697   5.325   5.719   4.719 -0.7596 -0.7662 -0.7739
 5600SOL     OW17698   6.458   5.994   4.165 -0.5269  0.1355 -0.1187
 5600SOL    HW117699   6.517   5.913   4.165 -2.5522 -1.4199  0.4196
 5600SOL    HW217700   6.477   6.050   4.245  0.4222 -0.1484 -0.1355
 5601SOL     OW17701   2.971   6.695   6.724  0.2500  0.5701 -0.9052
 5601SOL    HW117702   2.944   6.730   6.634 -2.9963 -0.1440 -0.3244
 5601SOL    HW217703   2.943   6.600   6.733 -0.8364  1.0364  1.3490
 5602SOL     OW17704   6.389   1.940   3.233 -0.5109 -0.5137  0.3846
 5602SOL    HW117705   6.489   1.947   3.223 -0.7571  2.0251 -1.1067
 5602SOL    HW217706   6.345   2.010   3.177 -3.2794 -3.0679 -0.8867
 5603SOL     OW17707   5.922   6.920   6.255 -0.9112 -0.4229  0.2290
 5603SOL    HW117708   5.902   6.965   6.168 -2.4730 -1.0919  0.2009
 5603SOL    HW217709   6.014   6.882   6.252  1.1189  3.8035  0.7350
 5604SOL     OW17710   1.215   3.868   0.515 -0.3633  0.3733 -0.0347
 5604SOL    HW117711   1.130   3.815   0.508  0.3448 -0.6311 -1.5181
 5604SOL    HW217712   1.273   3.849   0.435  1.0328  1.4405  0.6850
 5605SOL     OW17713   2.522   4.520   4.002 -0.0756 -0.6930  0.5822
 5605SOL    HW117714   2.463   4.470   4.066  0.5010 -0.1944  1.5385
 5605SOL    HW217715   2.595   4.565   4.054 -0.5619  1.1304 -0.2463
 5606SOL     OW17716   1.242   3.946   3.242  0.6880  0.4371  0.4260
 5606SOL    HW117717   1.261   4.015   3.172  1.2964 -0.5260 -0.3857
 5606SOL    HW217718   1.328   3.907   3.274  0.3427  0.0081  0.8291
 5607SOL     OW17719   3.623   3.005   6.738  0.0594  0.0946  0.2906
 5607SOL    HW117720   3.705   3.013   6.682  0.4763  1.0886  1.0009
 5607SOL    HW217721   3.624   3.076   6.809 -1.7549  0.6187 -0.1324
 5608SOL     OW17722   6.329   6.164   2.920  0.4135 -0.4570 -0.1902
 5608SOL    HW117723   6.374   6.079   2.948  0.1056 -1.0877 -1.5530
 5608SOL    HW217724   6.230   6.150   2.919  0.3010  0.2254  0.5158
 5609SOL     OW17725   5.944   4.995   4.258 -0.3452 -0.5891  0.4326
 5609SOL    HW117726   5.859   5.043   4.278 -1.6007 -1.8333 -1.5379
 5609SOL    HW217727   5.934   4.898   4.279  1.4204 -0.4438  2.3192
 5610SOL     OW17728   2.782   5.597   1.922 -0.7364  0.0424  0.7328
 5610SOL    HW117729   2.816   5.559   2.008  0.8398 -1.1092 -0.3407
 5610SOL    HW217730   2.692   5.637   1.937  0.0156  1.0069  3.1827
 5611SOL     OW17731   0.071   4.593   4.073  0.2418 -0.0013  0.6180
 5611SOL    HW117732  -0.005   4.637   4.026  0.8721  0.7339  0.2638
 5611SOL    HW217733   0.155   4.605   4.019  0.5582 -1.0485  0.8553
 5612SOL     OW17734   3.160   0.308   6.462  0.1813  0.6230 -0.1958
 5612SOL    HW117735   3.120   0.385   6.511  1.2442  1.0769 -0.0332
 5612SOL    HW217736   3.207   0.248   6.527 -2.1777 -1.2035 -0.0139
 5613SOL     OW17737   0.225   6.911   4.345  0.0620 -0.0313  0.2704
 5613SOL    HW117738   0.130   6.888   4.324  0.2944 -2.0499  1.1255
 5613SOL    HW217739   0.248   6.877   4.436  2.3857 -2.3066 -1.0174
 5614SOL     OW17740   3.558   0.663   5.025  0.3038 -0.4332 -0.7486
 5614SOL    HW117741   3.514   0.686   4.938  0.6731  0.9127 -0.6113
 5614SOL    HW217742   3.556   0.743   5.085 -0.4067 -1.4918  0.6898
 5615SOL     OW17743   6.825   5.115   1.707  0.1923  0.1220  0.4481
 5615SOL    HW117744   6.849   5.019   1.723  0.9099  0.2897  0.3762
 5615SOL    HW217745   6.783   5.125   1.617  0.6259 -0.0366  0.2281
 5616SOL     OW17746   3.450   2.285   6.722  0.2606 -0.3955  0.4909
 5616SOL    HW117747   3.413   2.246   6.806 -0.5343 -0.3356  0.1790
 5616SOL    HW217748   3.408   2.374   6.705  0.4122 -0.4092  0.0269
 5617SOL     OW17749   3.375   0.740   4.011 -0.6732 -0.5779 -0.4489
 5617SOL    HW117750   3.427   0.823   3.991 -1.4392 -0.0675 -0.3538
 5617SOL    HW217751   3.280   0.752   3.984 -0.2695 -2.4290 -3.1054
 5618SOL     OW17752   6.457   2.195   4.396  0.5156  0.5511 -0.1877
 5618SOL    HW117753   6.490   2.272   4.450 -0.6102  1.3826 -0.6475
 5618SOL    HW217754   6.506   2.190   4.310  1.9682 -0.4759  0.6503
 5619SOL     OW17755   0.260   5.792   4.270 -0.5906  0.3926  0.1824
 5619SOL    HW117756   0.170   5.784   4.225 -1.4891  0.2078  1.9360
 5619SOL    HW217757   0.263   5.732   4.349  0.9347  0.7681  0.4391
 5620SOL     OW17758   1.464   2.333   4.268 -0.1035  0.6166 -0.0508
 5620SOL    HW117759   1.523   2.254   4.285 -1.0279 -0.3773 -1.2663
 5620SOL    HW217760   1.498   2.384   4.189  0.9071  1.9031  1.1598
 5621SOL     OW17761   6.269   0.412   2.057  0.4582  0.2683  0.1633
 5621SOL    HW117762   6.296   0.482   1.990  1.0799 -1.2302 -1.2211
 5621SOL    HW217763   6.174   0.385   2.041  0.3001  0.5941  0.5311
 5622SOL     OW17764   4.713   3.851   0.156 -0.3550 -0.2425 -0.1807
 5622SOL    HW117765   4.667   3.920   0.101 -1.1242 -0.2928  0.3712
 5622SOL    HW217766   4.710   3.763   0.108 -1.0594 -0.2970 -0.0462
 5623SOL     OW17767   3.268   0.791   5.343  0.0525  0.2117 -0.0437
 5623SOL    HW117768   3.356   0.750   5.369 -0.7349 -0.3242  1.9936
 5623SOL    HW217769   3.197   0.759   5.406 -1.1308  2.6113 -0.0723
 5624SOL     OW17770   1.143   0.296   1.125 -0.4906  0.3254  0.4086
 5624SOL    HW117771   1.240   0.300   1.104 -1.0047 -0.7454 -2.7694
 5624SOL    HW217772   1.118   0.201   1.146 -0.9492  0.4789  0.5630
 5625SOL     OW17773   3.085   0.628   0.901  0.3591  0.6653 -0.3638
 5625SOL    HW117774   3.024   0.581   0.966 -0.1376  0.7158 -0.7837
 5625SOL    HW217775   3.163   0.569   0.881 -0.9135 -0.5957 -1.9016
 5626SOL     OW17776   4.706   5.788   3.721  0.1114  0.3544  0.5953
 5626SOL    HW117777   4.666   5.720   3.660  0.0163  0.9557 -0.0229
 5626SOL    HW217778   4.657   5.787   3.808 -1.1304  0.9317 -0.0727
 5627SOL     OW17779   1.982   4.148   2.579  0.0923  0.2836 -0.0535
 5627SOL    HW117780   2.063   4.117   2.628  0.0365  0.2843  0.0390
 5627SOL    HW217781   1.965   4.244   2.599  1.1365  0.8065 -1.5161
 5628SOL     OW17782   5.393   0.782   2.350 -0.5828  0.1759 -0.3588
 5628SOL    HW117783   5.321   0.851   2.351 -0.8707 -0.1264  0.3860
 5628SOL    HW217784   5.475   0.819   2.307 -0.9265  0.7813 -0.4960
 5629SOL     OW17785   0.858   1.480   1.147  0.0459 -0.2779  0.1532
 5629SOL    HW117786   0.849   1.525   1.058  1.5045 -0.3409 -0.0373
 5629SOL    HW217787   0.809   1.534   1.216 -0.8472 -0.0689 -0.6227
 5630SOL     OW17788   1.039   0.661   1.560  0.4844  0.0524  0.5681
 5630SOL    HW117789   1.118   0.684   1.616  0.9484  0.9003 -0.3937
 5630SOL    HW217790   1.054   0.695   1.466 -0.4648 -0.8991  0.0530
 5631SOL     OW17791   5.143   6.218   6.550  0.0294 -0.5746  0.7955
 5631SOL    HW117792   5.087   6.207   6.468  0.4842 -0.6220  0.4868
 5631SOL    HW217793   5.238   6.229   6.523  0.2138 -0.8430  1.3313
 5632SOL     OW17794   1.930   4.918   3.578  0.5958 -0.1999 -0.0476
 5632SOL    HW117795   1.846   4.892   3.624  0.2095  1.1149  0.0228
 5632SOL    HW217796   2.008   4.903   3.638  0.2279  0.2494  0.5444
 5633SOL     OW17797   2.057   0.570   6.440 -0.1092  0.0698 -0.0803
 5633SOL    HW117798   2.042   0.585   6.538 -1.8652  0.8039 -0.4306
 5633SOL    HW217799   2.020   0.648   6.388 -0.8859 -1.1424 -1.4235
 5634SOL     OW17800   1.447   4.363   6.211  0.1260 -0.0533 -0.0607
 5634SOL    HW117801   1.436   4.396   6.304  0.6552 -1.4182  0.5257
 5634SOL    HW217802   1.360   4.329   6.176  0.5127 -2.6374  1.2366
 5635SOL     OW17803   2.809   5.321   0.292  0.1292  0.3653 -0.2692
 5635SOL    HW117804   2.763   5.240   0.328  0.4570  0.9315  1.5472
 5635SOL    HW217805   2.755   5.361   0.218 -0.5252 -0.9241 -0.5153
 5636SOL     OW17806   6.356   5.300   0.621 -0.0635  0.1752 -0.0034
 5636SOL    HW117807   6.381   5.226   0.684  2.2803 -0.4094 -1.4961
 5636SOL    HW217808   6.299   5.264   0.547  0.7187 -0.0657 -0.4962
 5637SOL     OW17809   3.172   4.351   1.363  0.2110  0.8284  0.0225
 5637SOL    HW117810   3.186   4.449   1.346 -1.1312  0.9912 -0.2386
 5637SOL    HW217811   3.145   4.306   1.278 -0.4281  0.4802  0.4032
 5638SOL     OW17812   5.523   2.260   6.756 -0.0976 -0.2592  0.4467
 5638SOL    HW117813   5.578   2.276   6.674 -2.5027  1.6230 -0.9622
 5638SOL    HW217814   5.444   2.203   6.733  0.0071 -1.0216  1.8538
 5639SOL     OW17815   3.423   5.595   4.360 -0.2206 -0.6418  0.1231
 5639SOL    HW117816   3.327   5.623   4.359  0.0170  0.2197  0.3843
 5639SOL    HW217817   3.442   5.544   4.444 -0.9201 -2.6283 -0.8548
 5640SOL     OW17818   0.631   3.553   0.533  0.4420  0.5221  0.0458
 5640SOL    HW117819   0.602   3.633   0.480 -1.4800 -0.3289 -0.2657
 5640SOL    HW217820   0.642   3.475   0.473 -2.5857 -0.6764  0.8279
 5641SOL     OW17821   4.853   4.160   1.964  0.2196 -0.4149 -0.3372
 5641SOL    HW117822   4.828   4.124   1.874  1.7174 -1.0132 -0.5362
 5641SOL    HW217823   4.919   4.099   2.008  0.0305  0.2208  0.8868
 5642SOL     OW17824   5.253   0.349   0.063  0.1690 -0.0119 -0.1233
 5642SOL    HW117825   5.350   0.356   0.084 -0.3108 -2.6450  4.3846
 5642SOL    HW217826   5.214   0.440   0.052  2.8634  1.1491 -0.8378
 5643SOL     OW17827   4.245   0.917   2.940  0.0945 -0.9394  0.3343
 5643SOL    HW117828   4.199   0.829   2.950 -1.8969 -0.1287 -1.2142
 5643SOL    HW217829   4.208   0.981   3.007 -1.7824 -0.0289 -1.4988
 5644SOL     OW17830   1.908   0.114   1.348  0.8509 -0.1128  0.1608
 5644SOL    HW117831   1.919   0.131   1.250  2.8274  1.4124  0.5783
 5644SOL    HW217832   1.872   0.196   1.392  1.1108 -0.3773  0.8723
 5645SOL     OW17833   3.147   5.888   2.633  0.4712  0.2717 -0.3086
 5645SOL    HW117834   3.237   5.846   2.624  0.9147  0.9091  0.9804
 5645SOL    HW217835   3.157   5.987   2.639 -0.3835  0.4077 -0.9271
 5646SOL     OW17836   0.551   6.472   1.217 -0.8438  0.7147 -0.6349
 5646SOL    HW117837   0.465   6.461   1.267 -0.1722  1.6281  0.7796
 5646SOL    HW217838   0.573   6.569   1.208  0.5131  0.4811 -0.1183
 5647SOL     OW17839   5.167   0.875   4.785 -0.4261  0.1511  0.0161
 5647SOL    HW117840   5.079   0.831   4.766 -1.6303  1.9002  1.2535
 5647SOL    HW217841   5.241   0.817   4.750 -2.1063 -0.2736 -3.1644
 5648SOL     OW17842   5.306   3.624   4.500  0.3159 -0.1585 -0.1409
 5648SOL    HW117843   5.349   3.678   4.573 -2.3106  2.1383 -0.1215
 5648SOL    HW217844   5.286   3.683   4.422 -0.7419 -1.6028 -1.0087
 5649SOL     OW17845   2.811   0.034   4.108 -0.7752 -0.1593 -0.6412
 5649SOL    HW117846   2.775  -0.001   4.021  1.4735 -0.7362 -1.4322
 5649SOL    HW217847   2.844   0.127   4.094 -1.7582  0.2963  0.0149
 5650SOL     OW17848   6.916   0.273   5.778 -0.4053 -0.1226  0.4178
 5650SOL    HW117849   6.861   0.301   5.700  0.6971  0.3886 -0.1953
 5650SOL    HW217850   6.910   0.342   5.850  1.1829  1.0874 -0.5384
 5651SOL     OW17851   6.065   1.325   2.249 -0.0820  0.0901 -0.5034
 5651SOL    HW117852   6.161   1.321   2.276 -0.0745 -1.8889 -0.7431
 5651SOL    HW217853   6.035   1.421   2.249  1.3166  0.5899  1.5059
 5652SOL     OW17854   1.642   1.234   5.407  0.0072 -0.3826  0.1232
 5652SOL    HW117855   1.580   1.183   5.347  0.5840 -1.2864  0.2834
 5652SOL    HW217856   1.615   1.331   5.407 -0.7574 -0.5771 -0.6207
 5653SOL     OW17857   5.490   2.917   5.998  0.0302  0.0651  0.4074
 5653SOL    HW117858   5.446   2.964   5.921  0.3626  0.6430  0.5636
 5653SOL    HW217859   5.575   2.964   6.021  0.1295 -0.3409  0.8761
 5654SOL     OW17860   3.119   0.426   3.540 -0.6501 -0.1254 -0.2664
 5654SOL    HW117861   3.214   0.425   3.509 -0.8920 -1.7648 -1.0622
 5654SOL    HW217862   3.116   0.445   3.638  0.4174  0.9837 -0.4306
 5655SOL     OW17863   1.702   0.451   6.205  0.3820  0.3017 -0.0194
 5655SOL    HW117864   1.685   0.367   6.154  1.4484  0.0102  0.0858
 5655SOL    HW217865   1.793   0.448   6.244  0.0240  1.0491  0.9003
 5656SOL     OW17866   3.837   5.104   2.324  0.1325  0.1291  0.3915
 5656SOL    HW117867   3.782   5.156   2.258 -1.3890 -1.5381  0.2783
 5656SOL    HW217868   3.932   5.101   2.293 -0.6245 -1.0601 -2.0519
 5657SOL     OW17869   4.799   3.358   6.470 -0.7276  0.5547  0.3404
 5657SOL    HW117870   4.802   3.370   6.370 -1.5513  2.6808  0.5195
 5657SOL    HW217871   4.765   3.266   6.491 -0.4805  0.0421 -1.3239
 5658SOL     OW17872   3.093   1.044   1.154  0.3573  0.7051  0.9331
 5658SOL    HW117873   3.038   0.970   1.194  0.7338  0.6473  1.3510
 5658SOL    HW217874   3.047   1.132   1.170  0.2240  0.6271  0.9844
 5659SOL     OW17875   0.644   1.670   2.713  0.0087 -0.2135  0.2895
 5659SOL    HW117876   0.724   1.721   2.681  1.2706 -1.1530  1.7983
 5659SOL    HW217877   0.674   1.588   2.762 -1.8539  0.0452  1.9810
 5660SOL     OW17878   5.014   5.598   1.161 -0.0897 -0.4028  0.6023
 5660SOL    HW117879   5.052   5.642   1.242  0.9663  0.9425 -0.5652
 5660SOL    HW217880   5.079   5.531   1.126 -0.2445 -0.4825  0.4635
 5661SOL     OW17881   0.255   5.979   6.732 -0.1946  0.2782  0.2318
 5661SOL    HW117882   0.235   6.030   6.815  1.2399  2.1955 -0.5214
 5661SOL    HW217883   0.176   5.983   6.670 -1.0939 -0.7710  1.2605
 5662SOL     OW17884   2.656   6.166   0.673  0.2620  0.3336 -0.7730
 5662SOL    HW117885   2.741   6.129   0.637  0.1122  0.7045 -1.5194
 5662SOL    HW217886   2.676   6.251   0.723  0.6950 -1.0280  1.5074
 5663SOL     OW17887   3.075   6.737   6.022 -0.0126  0.8445  0.1837
 5663SOL    HW117888   3.042   6.831   6.022 -0.9582  0.5247  0.6963
 5663SOL    HW217889   3.037   6.688   6.101 -0.9440 -0.4353 -1.0065
 5664SOL     OW17890   6.948   6.364   6.040  0.2393 -0.2080  0.0021
 5664SOL    HW117891   6.865   6.397   6.086 -0.1158  0.8018 -1.3188
 5664SOL    HW217892   7.022   6.356   6.107 -0.7196 -0.4629  1.0696
 5665SOL     OW17893   3.923   6.403   2.662 -0.2154 -0.2918  0.2497
 5665SOL    HW117894   3.977   6.475   2.705  1.2317 -1.3882  0.3344
 5665SOL    HW217895   3.923   6.415   2.563  0.4136 -0.4287  0.2322
 5666SOL     OW17896   5.550   5.960   0.691 -0.0097 -0.0632  0.2140
 5666SOL    HW117897   5.457   5.985   0.666 -0.4946 -0.3522  1.6345
 5666SOL    HW217898   5.579   6.015   0.769  0.8321 -0.3349  0.1005
 5667SOL     OW17899   5.746   1.700   3.321  0.0995 -0.3527 -0.6143
 5667SOL    HW117900   5.690   1.774   3.358 -1.2169 -2.9090  3.0606
 5667SOL    HW217901   5.841   1.732   3.311 -0.1262  1.5361  2.1033
 5668SOL     OW17902   2.173   0.946   3.848 -0.2211 -0.0319 -0.0212
 5668SOL    HW117903   2.163   0.848   3.835 -0.0635 -0.0968  0.3399
 5668SOL    HW217904   2.130   0.994   3.771 -0.5724 -0.3731 -0.0416
 5669SOL     OW17905   0.607   2.296   6.149  0.2222  0.1824 -0.4815
 5669SOL    HW117906   0.649   2.353   6.219  1.0766  0.9136 -1.5496
 5669SOL    HW217907   0.508   2.311   6.149  0.1865  0.0218  0.6847
 5670SOL     OW17908   2.825   1.071   6.915 -0.2039 -0.5980  0.2018
 5670SOL    HW117909   2.778   1.016   6.846  0.5956  1.2686 -1.9891
 5670SOL    HW217910   2.758   1.126   6.965 -0.6974 -0.7649 -0.2627
 5671SOL     OW17911   5.514   3.624   1.968  0.2289 -0.4099 -0.0641
 5671SOL    HW117912   5.499   3.676   1.884  0.2800 -1.2827 -0.6280
 5671SOL    HW217913   5.470   3.534   1.960 -1.1949  0.1016  1.4986
 5672SOL     OW17914   0.832   2.648   3.358  0.2605 -0.0409  0.7739
 5672SOL    HW117915   0.787   2.693   3.281  0.0453 -0.0748  0.8803
 5672SOL    HW217916   0.922   2.690   3.373 -0.0415  0.5190  1.0316
 5673SOL     OW17917   6.134   4.519   6.878 -0.2351  0.0357  0.1979
 5673SOL    HW117918   6.124   4.538   6.975  0.4254 -1.5597  0.6080
 5673SOL    HW217919   6.231   4.519   6.854 -0.4188  1.0882 -0.6262
 5674SOL     OW17920   1.174   5.784   3.878  0.2120  0.0310 -0.2325
 5674SOL    HW117921   1.243   5.853   3.856  0.6122 -0.1893  0.3259
 5674SOL    HW217922   1.148   5.793   3.974 -1.2254  0.7277 -0.6555
 5675SOL     OW17923   1.437   6.532   5.123  0.2000  0.2251  0.0254
 5675SOL    HW117924   1.386   6.602   5.173 -0.8556 -0.2837 -0.3265
 5675SOL    HW217925   1.376   6.457   5.099  1.4741 -1.2395  1.1345
 5676SOL     OW17926   6.602   5.596   2.126  0.3133  0.1398 -0.3954
 5676SOL    HW117927   6.547   5.680   2.126  0.2659  0.1097  0.1306
 5676SOL    HW217928   6.564   5.532   2.059 -1.9272 -0.9284  1.7235
 5677SOL     OW17929   5.618   0.818   1.885 -0.1272 -0.1445  0.4736
 5677SOL    HW117930   5.626   0.904   1.835 -0.2993 -0.9671 -1.0199
 5677SOL    HW217931   5.705   0.769   1.881  0.2326  0.3007  2.0330
 5678SOL     OW17932   6.359   1.367   2.960  0.2543 -0.2367 -0.5582
 5678SOL    HW117933   6.393   1.279   2.927  1.1709  0.3878 -1.3148
 5678SOL    HW217934   6.360   1.434   2.885 -1.5474  0.1215 -0.3077
 5679SOL     OW17935   5.899   7.023   0.525 -0.1172  0.4986  0.0307
 5679SOL    HW117936   5.967   7.096   0.523  1.6694 -1.0427  0.7437
 5679SOL    HW217937   5.872   7.000   0.432 -1.0169  2.2853 -0.1866
 5680SOL     OW17938   2.683   5.492   0.788 -0.3770 -0.3344  0.1585
 5680SOL    HW117939   2.676   5.588   0.815  0.5449  0.0443 -0.8181
 5680SOL    HW217940   2.721   5.488   0.695  1.6462 -1.6854  0.9777
 5681SOL     OW17941   0.026   3.638   4.276 -0.1696 -0.4933 -0.2581
 5681SOL    HW117942  -0.051   3.701   4.289 -0.8308 -1.5109  1.0019
 5681SOL    HW217943   0.098   3.684   4.224 -1.1544  0.8621 -0.4915
 5682SOL     OW17944   6.007   3.963   6.487 -0.5730  0.1808  0.0039
 5682SOL    HW117945   6.052   3.974   6.576  1.3909 -0.7323 -0.8071
 5682SOL    HW217946   5.984   3.867   6.473  0.5871  0.0211 -1.0720
 5683SOL     OW17947   1.433   5.126   6.763 -0.0413 -0.7486  0.1992
 5683SOL    HW117948   1.367   5.200   6.751 -0.2695 -1.2078 -1.7679
 5683SOL    HW217949   1.524   5.160   6.739  0.1443 -0.6473  1.0159
 5684SOL     OW17950   3.963   3.468   2.893 -0.0595  0.0095 -0.2668
 5684SOL    HW117951   3.870   3.505   2.887 -0.0933 -0.0963 -0.3878
 5684SOL    HW217952   3.996   3.478   2.987  0.4261  1.5186 -0.5784
 5685SOL     OW17953   6.966   0.666   3.447 -0.0200 -0.2761  0.0217
 5685SOL    HW117954   6.891   0.730   3.428  1.0939  2.0233  2.6790
 5685SOL    HW217955   6.928   0.581   3.483 -1.4405 -0.1136 -1.0001
 5686SOL     OW17956   3.422   4.193   5.980  0.5706  0.1749  0.1896
 5686SOL    HW117957   3.511   4.177   5.937  0.1677 -0.2739 -0.4990
 5686SOL    HW217958   3.368   4.109   5.977 -0.1978  0.6645 -0.1665
 5687SOL     OW17959   6.060   2.853   0.987 -0.3339 -0.7075  0.3452
 5687SOL    HW117960   6.108   2.772   0.951 -1.4777 -1.1121 -0.3212
 5687SOL    HW217961   5.999   2.889   0.916 -0.3910  0.2973  0.8980
 5688SOL     OW17962   3.065   4.849   2.797 -0.1176  0.2736 -0.0508
 5688SOL    HW117963   3.070   4.865   2.896 -0.5927 -0.7476  0.1406
 5688SOL    HW217964   2.970   4.843   2.768 -0.0126 -2.4620 -0.0468
 5689SOL     OW17965   6.059   4.878   6.415  0.6753 -0.3746  0.0566
 5689SOL    HW117966   5.998   4.884   6.493  2.0337 -1.4786  1.2459
 5689SOL    HW217967   6.005   4.861   6.332 -0.7188  0.1089  0.8270
 5690SOL     OW17968   2.635   6.983   1.945  0.0474  0.0743 -0.2156
 5690SOL    HW117969   2.555   6.942   1.900 -0.5811  0.9763  0.0499
 5690SOL    HW217970   2.695   6.910   1.978 -1.0783 -0.6519  0.3038
 5691SOL     OW17971   0.003   6.462   0.186 -0.5580 -0.0211  0.3774
 5691SOL    HW117972   0.075   6.393   0.187 -0.2374  0.2931  2.2050
 5691SOL    HW217973  -0.060   6.445   0.262 -1.3795  0.7763 -0.1042
 5692SOL     OW17974   2.457   6.505   2.223  0.1455 -0.4129 -0.5701
 5692SOL    HW117975   2.364   6.543   2.221  0.2205 -0.2496 -0.8519
 5692SOL    HW217976   2.467   6.437   2.151  0.6950  0.6050 -1.4699
 5693SOL     OW17977   4.535   4.298   5.624 -0.2547  0.0487  0.6276
 5693SOL    HW117978   4.510   4.345   5.709 -0.9717 -0.9845  1.0109
 5693SOL    HW217979   4.516   4.358   5.546  0.6679  1.1105  1.2038
 5694SOL     OW17980   5.384   0.368   0.811 -0.1833  0.1671 -0.2716
 5694SOL    HW117981   5.449   0.313   0.864 -1.0993 -1.9783 -1.2453
 5694SOL    HW217982   5.433   0.444   0.767  1.0618  0.4241  1.4421
 5695SOL     OW17983   6.326   5.150   3.044 -0.3916  0.1767 -0.3250
 5695SOL    HW117984   6.342   5.197   2.957 -4.1654  0.7464 -0.8670
 5695SOL    HW217985   6.410   5.104   3.072  1.4573  1.3513 -3.3901
 5696SOL     OW17986   0.601   3.633   5.067 -0.2405  0.3061  0.0339
 5696SOL    HW117987   0.532   3.660   5.134 -0.7316 -1.0338  0.0916
 5696SOL    HW217988   0.565   3.646   4.975  0.3627  1.9590 -0.0056
 5697SOL     OW17989   1.485   1.659   1.313  0.2477 -0.3233  0.2889
 5697SOL    HW117990   1.459   1.755   1.300 -0.7115 -0.3238  1.8539
 5697SOL    HW217991   1.558   1.653   1.381  0.1796 -0.7143  0.3306
 5698SOL     OW17992   6.535   0.533   0.358 -0.5598  0.7364  0.4116
 5698SOL    HW117993   6.573   0.455   0.409 -0.6008 -0.7957 -1.7489
 5698SOL    HW217994   6.469   0.582   0.416 -0.8740 -1.0908  1.7009
 5699SOL     OW17995   3.679   1.468   6.655 -0.0977  0.2599 -0.6058
 5699SOL    HW117996   3.645   1.383   6.696  0.5319  0.1240 -0.3494
 5699SOL    HW217997   3.606   1.536   6.653 -0.2931  0.0835  0.2541
 5700SOL     OW17998   6.412   6.777   1.019 -0.7353 -0.4662 -0.0095
 5700SOL    HW117999   6.488   6.824   0.975 -0.5431 -1.5008 -0.8236
 5700SOL    HW218000   6.336   6.841   1.034  0.1081  0.4649  0.3923
 5701SOL     OW18001   6.864   1.599   2.728  0.4790 -0.5174 -0.2575
 5701SOL    HW118002   6.929   1.655   2.676  1.1286 -1.6111 -0.6588
 5701SOL    HW218003   6.786   1.577   2.671  0.4169 -0.3592 -0.2335
 5702SOL     OW18004   1.299   6.906   6.092  0.6060 -0.3836  0.2823
 5702SOL    HW118005   1.355   6.903   6.009 -0.0502 -0.6597 -0.1726
 5702SOL    HW218006   1.220   6.844   6.080 -1.0107  1.6182 -0.0135
 5703SOL     OW18007   5.327   6.292   5.527 -0.0607 -0.2539 -0.6545
 5703SOL    HW118008   5.304   6.385   5.554  0.0592  0.1585 -1.9200
 5703SOL    HW218009   5.302   6.278   5.431  2.0023 -0.7957 -1.1557
 5704SOL     OW18010   3.730   4.904   3.732 -0.0101  0.0726 -0.3530
 5704SOL    HW118011   3.763   4.997   3.749 -1.4932  0.9055 -1.7656
 5704SOL    HW218012   3.649   4.887   3.789  0.4742 -0.5161  0.1775
 5705SOL     OW18013   4.397   2.448   5.273  0.2620 -0.0384 -0.6817
 5705SOL    HW118014   4.409   2.350   5.260 -1.2314 -0.2679 -0.5256
 5705SOL    HW218015   4.333   2.484   5.204 -2.6233 -0.0494  1.7586
 5706SOL     OW18016   4.234   2.878   5.911  0.1001 -0.2255  0.1785
 5706SOL    HW118017   4.217   2.796   5.855  0.3422 -1.2857  1.6034
 5706SOL    HW218018   4.332   2.887   5.928 -0.1145 -1.1879  2.2117
 5707SOL     OW18019   0.795   3.073   3.585  0.1161  0.3191  0.6295
 5707SOL    HW118020   0.734   3.151   3.568 -0.2760 -0.2811 -0.9285
 5707SOL    HW218021   0.744   3.000   3.629  0.1306  0.4141  0.8063
 5708SOL     OW18022   0.834   0.796   4.430 -0.0285 -0.0262 -0.2605
 5708SOL    HW118023   0.860   0.711   4.385 -1.8435  0.1946 -1.8751
 5708SOL    HW218024   0.751   0.782   4.483 -0.2342  0.6893 -0.3829
 5709SOL     OW18025   3.044   5.369   1.453  0.3065 -0.1588  0.1959
 5709SOL    HW118026   2.992   5.453   1.438 -1.3213 -0.8715  1.5323
 5709SOL    HW218027   3.019   5.330   1.542 -2.3765 -4.3209 -2.0335
 5710SOL     OW18028   2.726   1.554   4.047 -0.8151  0.0312 -0.2949
 5710SOL    HW118029   2.676   1.531   4.131 -1.6032  2.0405 -0.1433
 5710SOL    HW218030   2.661   1.563   3.972 -0.4959  1.1161 -0.4516
 5711SOL     OW18031   4.931   2.412   1.185 -0.3791 -0.0759  0.4144
 5711SOL    HW118032   4.975   2.454   1.265 -1.1187 -0.6134  1.1151
 5711SOL    HW218033   4.880   2.331   1.213  2.1877 -2.3949 -1.0890
 5712SOL     OW18034   4.875   4.406   1.784 -0.1862  0.1574 -0.5308
 5712SOL    HW118035   4.910   4.341   1.852  0.8220  1.7891  0.5807
 5712SOL    HW218036   4.775   4.398   1.779 -0.1220 -1.1873 -0.1586
 5713SOL     OW18037   0.089   1.470   6.943 -0.3440  0.5170 -0.3542
 5713SOL    HW118038   0.051   1.378   6.932 -0.2604  0.7743 -4.1413
 5713SOL    HW218039   0.106   1.510   6.853  2.8493  2.9512  1.1127
 5714SOL     OW18040   5.693   2.863   6.487 -0.3550 -0.1757 -0.0239
 5714SOL    HW118041   5.776   2.838   6.438 -0.2496  2.4683 -1.3652
 5714SOL    HW218042   5.712   2.938   6.549 -1.5634 -0.1537  0.3625
 5715SOL     OW18043   3.708   5.872   3.596  0.3672 -0.1516  0.1583
 5715SOL    HW118044   3.798   5.916   3.593 -0.1503  0.9493  0.2382
 5715SOL    HW218045   3.641   5.930   3.551 -0.2560 -1.1213 -0.2038
 5716SOL     OW18046   0.423   2.845   4.071 -0.4087 -0.0215  0.3525
 5716SOL    HW118047   0.470   2.810   4.152  0.8527  0.3927 -0.1705
 5716SOL    HW218048   0.471   2.927   4.039 -0.9431 -0.1420 -0.7681
 5717SOL     OW18049   3.397   1.344   5.551  0.2673 -0.3203 -0.3040
 5717SOL    HW118050   3.304   1.358   5.518  1.1154  0.2529 -2.6934
 5717SOL    HW218051   3.439   1.433   5.570  0.8152 -0.4661 -0.7891
 5718SOL     OW18052   0.596   2.197   3.626  0.8687  0.5902  0.0127
 5718SOL    HW118053   0.658   2.157   3.693 -2.1195 -0.4207  2.3806
 5718SOL    HW218054   0.557   2.282   3.662 -0.2211  0.4459 -0.7475
 5719SOL     OW18055   0.987   0.290   4.509  0.5639  0.4320  0.2733
 5719SOL    HW118056   0.970   0.310   4.413  0.8611 -1.0268 -0.1135
 5719SOL    HW218057   0.917   0.227   4.543  2.0921 -1.4246  0.1391
 5720SOL     OW18058   2.029   2.463   6.618  0.1367 -0.3415  0.1191
 5720SOL    HW118059   2.007   2.437   6.712  0.5192  1.3236  0.7001
 5720SOL    HW218060   2.023   2.562   6.609  1.1425 -0.3897 -1.3427
 5721SOL     OW18061   6.227   1.630   2.367  0.1892  0.4980 -0.0005
 5721SOL    HW118062   6.255   1.588   2.453  2.2283  2.4205  0.3551
 5721SOL    HW218063   6.213   1.728   2.380 -2.0338  0.4328 -1.3400
 5722SOL     OW18064   0.109   5.123   5.297 -0.2337  0.3076  0.5497
 5722SOL    HW118065   0.068   5.064   5.227  1.1960  1.0159 -0.9467
 5722SOL    HW218066   0.150   5.065   5.368 -1.0929 -0.4416  0.4554
 5723SOL     OW18067   1.692   3.533   5.055  1.2448 -0.2189  0.0438
 5723SOL    HW118068   1.683   3.437   5.083 -0.3123 -0.6916 -1.8798
 5723SOL    HW218069   1.727   3.537   4.962 -1.5836  0.8796 -1.0732
 5724SOL     OW18070   5.096   6.554   4.864 -0.2819 -0.1742  1.4609
 5724SOL    HW118071   5.033   6.484   4.896 -2.0188  0.2601 -0.7981
 5724SOL    HW218072   5.056   6.603   4.787  1.5966  2.1731  1.8553
 5725SOL     OW18073   6.873   0.521   5.909  0.1467  0.2242 -0.9821
 5725SOL    HW118074   6.945   0.561   5.851 -0.5083  0.1781 -1.8418
 5725SOL    HW218075   6.798   0.586   5.918  0.3810  0.3699  0.1202
 5726SOL     OW18076   1.171   2.538   0.982 -0.0060  0.2631  0.0605
 5726SOL    HW118077   1.167   2.560   1.080  1.6615  1.5762 -0.1211
 5726SOL    HW218078   1.266   2.518   0.957  0.1025  2.6545 -1.8059
 5727SOL     OW18079   6.601   4.787   3.186 -0.4015  0.3289 -0.1867
 5727SOL    HW118080   6.572   4.725   3.112  0.3558 -0.2544 -0.0031
 5727SOL    HW218081   6.587   4.742   3.274  0.6393  0.1900 -0.0749
 5728SOL     OW18082   0.764   4.230   3.936  0.4552  0.3100 -0.2200
 5728SOL    HW118083   0.748   4.281   3.851  0.3717  1.2645  0.3522
 5728SOL    HW218084   0.682   4.176   3.958  0.0857  0.8550 -0.2222
 5729SOL     OW18085   2.831   6.902   0.626 -0.1937  0.1988  0.6409
 5729SOL    HW118086   2.805   6.817   0.581  0.4361 -0.3225  1.2449
 5729SOL    HW218087   2.757   6.969   0.615 -0.2497 -0.0572 -0.7484
 5730SOL     OW18088   0.741   3.271   6.113  0.2011  0.9018 -0.5331
 5730SOL    HW118089   0.836   3.275   6.143  0.0367 -0.1015  0.1718
 5730SOL    HW218090   0.719   3.178   6.083 -0.2476  1.3866 -1.7844
 5731SOL     OW18091   2.092   0.815   1.942  0.1083 -0.1079 -0.7076
 5731SOL    HW118092   2.083   0.783   1.847  1.4475  0.6308 -1.1121
 5731SOL    HW218093   2.029   0.891   1.958 -0.1710 -0.2783 -0.9869
 5732SOL     OW18094   0.853   3.986   1.017 -0.2640  0.3958  0.0668
 5732SOL    HW118095   0.854   4.085   1.030  1.1716  0.5769 -1.1131
 5732SOL    HW218096   0.944   3.955   0.990 -0.8984 -1.1406 -0.4341
 5733SOL     OW18097   6.112   6.806   1.722  0.1240  0.3820 -0.2062
 5733SOL    HW118098   6.059   6.735   1.675  0.7536 -0.5040  0.4012
 5733SOL    HW218099   6.050   6.864   1.775 -0.4959  0.8479 -1.3930
 5734SOL     OW18100   4.509   2.217   6.450 -0.6569  0.5584  0.4171
 5734SOL    HW118101   4.506   2.298   6.391 -0.0616  0.9259  0.8784
 5734SOL    HW218102   4.529   2.245   6.544 -1.7075 -0.0086  0.8286
 5735SOL     OW18103   6.618   6.466   3.831 -0.1253  0.0509  0.3964
 5735SOL    HW118104   6.612   6.523   3.749  1.1775 -0.4356 -0.0599
 5735SOL    HW218105   6.683   6.392   3.816 -0.7883 -0.7769  1.4541
 5736SOL     OW18106   3.585   3.718   3.755  0.7309 -0.1124 -0.5904
 5736SOL    HW118107   3.635   3.632   3.766  1.4722  0.0466 -2.4726
 5736SOL    HW218108   3.574   3.739   3.658 -0.8981  1.1017 -0.1897
 5737SOL     OW18109   4.114   6.512   4.321  0.2843  0.0040 -0.1182
 5737SOL    HW118110   4.076   6.421   4.304 -0.8445  0.5295 -0.4788
 5737SOL    HW218111   4.195   6.503   4.379  0.0928 -1.2137  0.0028
 5738SOL     OW18112   6.473   5.438   5.985 -0.7252 -0.2002 -0.3640
 5738SOL    HW118113   6.423   5.358   6.017  0.0996 -0.8154 -0.5727
 5738SOL    HW218114   6.550   5.409   5.929 -0.3425  0.7396 -0.3522
 5739SOL     OW18115   6.624   0.431   4.942  0.1273 -0.2885 -0.0310
 5739SOL    HW118116   6.646   0.335   4.961 -2.4234 -0.8358  0.4267
 5739SOL    HW218117   6.529   0.449   4.966  0.0912  1.9868 -1.6019
 5740SOL     OW18118   6.382   1.997   1.521  0.3767  0.0243  0.3912
 5740SOL    HW118119   6.284   1.976   1.527  0.3498 -0.2258 -0.7131
 5740SOL    HW218120   6.434   1.917   1.549  0.2556 -0.6675 -1.2355
 5741SOL     OW18121   2.661   2.091   6.022 -0.0143 -0.3854  0.1819
 5741SOL    HW118122   2.595   2.110   5.950 -0.5712 -0.7766  0.5811
 5741SOL    HW218123   2.751   2.122   5.994 -0.2305 -0.5133 -0.6744
 5742SOL     OW18124   0.033   6.070   2.412  0.0599 -0.5766  0.6105
 5742SOL    HW118125   0.046   6.142   2.480  1.5911  0.2380 -0.4805
 5742SOL    HW218126   0.078   5.987   2.443  2.3592  0.3085 -0.1309
 5743SOL     OW18127   6.127   1.940   1.596  0.2132  0.1112  0.4033
 5743SOL    HW118128   6.073   1.856   1.591  1.3897 -0.6102 -0.7174
 5743SOL    HW218129   6.146   1.962   1.692 -2.2565  0.5633  0.8631
 5744SOL     OW18130   3.014   6.568   1.841  0.0178 -0.1571  0.1809
 5744SOL    HW118131   3.110   6.558   1.814 -0.4847 -2.1506 -1.0882
 5744SOL    HW218132   3.007   6.572   1.941  1.4712  1.0374  0.2614
 5745SOL     OW18133   1.313   0.613   1.934  0.4800 -0.4608  0.2085
 5745SOL    HW118134   1.237   0.555   1.964  1.2358 -1.8621 -0.5257
 5745SOL    HW218135   1.313   0.698   1.988 -0.5311 -1.2096  1.4366
 5746SOL     OW18136   2.376   6.751   2.579 -0.4060 -0.0463  0.4764
 5746SOL    HW118137   2.412   6.774   2.669  1.3222 -1.8783  0.3138
 5746SOL    HW218138   2.281   6.784   2.572  0.3425  2.7451  1.8223
 5747SOL     OW18139   4.686   2.467   1.424 -0.2750  0.0529  0.3946
 5747SOL    HW118140   4.638   2.549   1.456 -0.5274  0.2818 -0.5415
 5747SOL    HW218141   4.707   2.477   1.326  1.4615 -0.1481  0.7169
 5748SOL     OW18142   5.910   5.106   4.736  0.6504 -0.3986  0.0177
 5748SOL    HW118143   5.952   5.144   4.818  0.3124 -1.7578  0.8586
 5748SOL    HW218144   5.929   5.165   4.658  0.9366  0.9526  1.0730
 5749SOL     OW18145   2.202   0.316   0.336 -0.2295 -0.2019 -0.2512
 5749SOL    HW118146   2.140   0.351   0.267 -0.0565  1.1114  0.2400
 5749SOL    HW218147   2.232   0.390   0.396  1.3939 -0.8800 -0.1477
 5750SOL     OW18148   1.101   3.665   1.863 -0.1639  0.4526  0.0429
 5750SOL    HW118149   1.029   3.600   1.887 -0.9654  1.7294  1.1849
 5750SOL    HW218150   1.182   3.647   1.919 -0.6080  0.8461  0.8128
 5751SOL     OW18151   2.467   0.440   2.733  0.1670 -0.5197 -0.2047
 5751SOL    HW118152   2.375   0.448   2.695 -0.8485 -3.6184  1.2848
 5751SOL    HW218153   2.527   0.395   2.668 -0.5324 -2.2271  0.2634
 5752SOL     OW18154   3.892   4.205   0.084  0.2288  0.1520 -0.6202
 5752SOL    HW118155   3.813   4.251   0.043  0.3022  1.3737  0.5201
 5752SOL    HW218156   3.970   4.268   0.085 -0.1477  0.7448  2.5556
 5753SOL     OW18157   1.776   0.192   0.531 -0.4506  0.4381  0.6144
 5753SOL    HW118158   1.832   0.145   0.463 -0.5838  0.0629  0.7597
 5753SOL    HW218159   1.819   0.278   0.557  0.0779  0.1350  0.7535
 5754SOL     OW18160   0.817   1.401   1.573 -0.0644  0.1232  0.6303
 5754SOL    HW118161   0.896   1.403   1.635 -0.1657  2.1239  0.7831
 5754SOL    HW218162   0.810   1.489   1.527 -0.7632 -0.8885 -1.2903
 5755SOL     OW18163   6.993   1.213   5.381  0.3621 -0.5358 -0.1363
 5755SOL    HW118164   7.089   1.241   5.382 -0.0828  1.1422  1.4465
 5755SOL    HW218165   6.970   1.167   5.467 -0.3965 -0.3065 -0.2031
 5756SOL     OW18166   0.681   5.449   5.776  0.5084 -0.5226 -0.4297
 5756SOL    HW118167   0.745   5.471   5.703  0.4278  0.9120 -0.0918
 5756SOL    HW218168   0.720   5.478   5.864 -0.9152  1.1514 -0.3040
 5757SOL     OW18169   1.931   5.608   5.901  0.2042 -0.1527  0.2102
 5757SOL    HW118170   2.011   5.581   5.847 -0.4823  1.4766 -1.7295
 5757SOL    HW218171   1.961   5.664   5.978  1.0592 -1.1128  0.6080
 5758SOL     OW18172   1.579   6.930   4.491 -0.1960  0.0855 -0.7308
 5758SOL    HW118173   1.636   6.895   4.418  0.7495  0.8332 -0.3699
 5758SOL    HW218174   1.564   6.859   4.559  0.0991 -0.1922 -0.9557
 5759SOL     OW18175   1.806   5.174   2.751  0.1706 -0.5405 -0.0380
 5759SOL    HW118176   1.843   5.222   2.671 -0.4410  1.1354  0.6322
 5759SOL    HW218177   1.708   5.161   2.739  0.2184 -1.0182  0.0886
 5760SOL     OW18178   4.854   4.428   6.046  0.1497 -0.0935 -0.5448
 5760SOL    HW118179   4.778   4.413   5.982  0.4779 -0.9206 -0.7643
 5760SOL    HW218180   4.833   4.386   6.134  0.1693  0.0599 -0.4666
 5761SOL     OW18181   4.423   1.304   1.323  0.5718  0.0744 -0.1267
 5761SOL    HW118182   4.402   1.292   1.420 -0.3589  1.5326 -0.1150
 5761SOL    HW218183   4.445   1.400   1.305 -1.3870  0.3045 -1.7067
 5762SOL     OW18184   6.711   2.659   1.750  0.2250  0.2124  0.0752
 5762SOL    HW118185   6.786   2.695   1.694  0.6620 -0.8189 -0.0404
 5762SOL    HW218186   6.679   2.730   1.812  0.0307  1.2452 -1.1637
 5763SOL     OW18187   0.355   1.153   0.795 -0.2031 -0.2266 -0.2901
 5763SOL    HW118188   0.415   1.233   0.783  1.4845 -1.2157  1.0816
 5763SOL    HW218189   0.324   1.149   0.890 -0.4493 -1.0652 -0.4019
 5764SOL     OW18190   1.535   4.801   5.083 -0.0405 -0.0637  1.0271
 5764SOL    HW118191   1.545   4.889   5.037 -2.8610 -0.3076 -0.2594
 5764SOL    HW218192   1.583   4.803   5.170 -0.9904  3.1537  1.5868
 5765SOL     OW18193   6.050   3.925   6.901 -0.2117  0.0902 -1.1350
 5765SOL    HW118194   6.096   3.849   6.855  0.2111 -2.0495  2.4449
 5765SOL    HW218195   5.952   3.905   6.909 -0.0229 -0.3751  0.2384
 5766SOL     OW18196   4.777   1.477   5.627  0.4761 -0.1817  0.4815
 5766SOL    HW118197   4.859   1.499   5.680  1.0661 -0.2166 -0.3913
 5766SOL    HW218198   4.803   1.457   5.532 -0.4685 -0.8821  0.3589
 5767SOL     OW18199   3.808   5.618   0.031 -0.2890 -0.2837  0.0266
 5767SOL    HW118200   3.717   5.588   0.004 -0.7553  0.8423  0.3241
 5767SOL    HW218201   3.876   5.557  -0.010 -1.1345 -0.7464 -0.7303
 5768SOL     OW18202   5.574   4.946   6.738  0.0598  0.2742  0.1172
 5768SOL    HW118203   5.568   4.986   6.647  0.8306 -0.5170 -0.2949
 5768SOL    HW218204   5.571   4.847   6.731  2.2452  0.1119  0.7370
 5769SOL     OW18205   1.241   1.827   5.852 -0.2594  0.3328  0.4472
 5769SOL    HW118206   1.215   1.731   5.850  0.8500  0.0247 -0.1215
 5769SOL    HW218207   1.278   1.850   5.942 -0.4723  0.2127  0.5653
 5770SOL     OW18208   0.749   6.516   2.735  0.2406 -0.3073 -1.1828
 5770SOL    HW118209   0.692   6.598   2.741 -0.6055 -0.6101 -3.6826
 5770SOL    HW218210   0.832   6.529   2.789 -1.1082  1.0700  0.6964
 5771SOL     OW18211   0.197   1.488   3.018  0.4964  0.2404  0.3676
 5771SOL    HW118212   0.118   1.463   2.963 -0.2802  0.3090  1.4238
 5771SOL    HW218213   0.185   1.580   3.055  0.8747  0.0910  0.8760
 5772SOL     OW18214   6.531   3.154   5.918  0.5722  0.2415  0.0063
 5772SOL    HW118215   6.612   3.150   5.859  0.7311  0.9152  0.1660
 5772SOL    HW218216   6.558   3.185   6.009 -0.1970  3.1909 -0.6428
 5773SOL     OW18217   0.511   5.738   6.531 -0.1875  0.5046  0.2148
 5773SOL    HW118218   0.586   5.675   6.551 -0.1028  0.8897  1.1310
 5773SOL    HW218219   0.495   5.740   6.432  0.8772  0.2672  0.0258
 5774SOL     OW18220   3.852   6.031   1.307  0.0273 -0.4162  0.5937
 5774SOL    HW118221   3.786   6.103   1.286 -2.6370 -2.8747 -0.1660
 5774SOL    HW218222   3.876   6.035   1.404 -0.6265  1.0197  0.7199
 5775SOL     OW18223   5.554   1.029   1.427  0.2031 -0.3941  0.8444
 5775SOL    HW118224   5.642   1.042   1.382 -0.7633  0.9050 -0.7677
 5775SOL    HW218225   5.507   0.951   1.387 -0.0906 -0.0647  0.5531
 5776SOL     OW18226   0.927   4.124   6.009 -0.1484  0.0045  0.2131
 5776SOL    HW118227   1.005   4.154   5.955  0.2978  0.3850  1.0425
 5776SOL    HW218228   0.905   4.029   5.986 -1.8938  0.9942 -2.8104
 5777SOL     OW18229   7.009   3.782   1.184 -0.3908 -0.2023 -0.2848
 5777SOL    HW118230   7.038   3.772   1.279  1.4094 -1.7712 -0.9272
 5777SOL    HW218231   6.986   3.692   1.147 -0.0381  0.2417 -1.6310
 5778SOL     OW18232   0.265   4.506   3.553  0.1055  0.1965  0.3925
 5778SOL    HW118233   0.224   4.436   3.612  0.0165 -1.4995 -1.5671
 5778SOL    HW218234   0.192   4.551   3.501  0.2936  0.8590  0.6906
 5779SOL     OW18235   5.874   6.980   3.825 -0.1255  0.1972  0.3249
 5779SOL    HW118236   5.817   6.901   3.847  0.0874  0.2925  1.2556
 5779SOL    HW218237   5.955   6.980   3.884 -1.0221  2.0986  1.6488
 5780SOL     OW18238   5.002   1.775   2.774 -0.2824 -0.4569 -0.6764
 5780SOL    HW118239   5.056   1.772   2.690  0.0016  1.0069 -0.5778
 5780SOL    HW218240   5.063   1.772   2.853 -0.3073  1.0033 -0.5650
 5781SOL     OW18241   1.381   1.099   4.231 -0.1453  0.1901  0.0860
 5781SOL    HW118242   1.311   1.170   4.234 -1.5204 -1.1343  1.1747
 5781SOL    HW218243   1.471   1.140   4.245 -0.8962  1.6947  0.7549
 5782SOL     OW18244   1.022   4.766   5.671 -0.2455  0.7465  0.0202
 5782SOL    HW118245   1.057   4.723   5.754  0.4897  1.9227  0.3423
 5782SOL    HW218246   1.085   4.838   5.641  0.5203 -0.8771 -2.6515
 5783SOL     OW18247   5.455   0.641   4.762  0.7663 -0.3935 -0.3430
 5783SOL    HW118248   5.523   0.703   4.724  0.4709 -0.3219 -0.7632
 5783SOL    HW218249   5.372   0.645   4.707  1.7193 -3.3708 -2.2475
 5784SOL     OW18250   0.746   6.163   3.592 -0.3261  0.3491  0.1827
 5784SOL    HW118251   0.817   6.233   3.588  1.3625 -1.0048  3.1873
 5784SOL    HW218252   0.768   6.089   3.529 -0.5079  1.0683 -0.7612
 5785SOL     OW18253   6.757   6.857   1.130  1.3034 -0.0166  0.2792
 5785SOL    HW118254   6.840   6.801   1.134  0.9084 -0.7579 -1.2676
 5785SOL    HW218255   6.724   6.861   1.036 -0.2198  0.5930  0.8145
 5786SOL     OW18256   4.387   6.472   1.973 -0.0211  0.3380  0.4463
 5786SOL    HW118257   4.351   6.502   1.884  1.0416 -0.6535 -0.3483
 5786SOL    HW218258   4.313   6.436   2.029 -0.7481  1.2251  0.0660
 5787SOL     OW18259   5.079   6.324   1.365 -0.5579  0.5869  0.1134
 5787SOL    HW118260   5.158   6.339   1.424 -0.4303  1.1649 -0.2009
 5787SOL    HW218261   5.097   6.247   1.304 -1.0848 -0.6772  1.5010
 5788SOL     OW18262   3.824   4.028   2.714  0.3276 -0.3586 -0.2827
 5788SOL    HW118263   3.739   4.050   2.665 -1.3701 -2.5399  1.5138
 5788SOL    HW218264   3.886   3.978   2.653  0.1599  0.8028 -1.4530
 5789SOL     OW18265   4.783   2.889   4.208 -0.1112 -0.3264  0.3452
 5789SOL    HW118266   4.715   2.815   4.214 -0.2459 -0.2669 -0.3228
 5789SOL    HW218267   4.815   2.913   4.299  0.9749 -2.1810  0.5026
 5790SOL     OW18268   4.202   1.797   0.061  0.4830 -1.2438  0.4725
 5790SOL    HW118269   4.176   1.713   0.110  1.5417 -1.8863 -0.0298
 5790SOL    HW218270   4.246   1.860   0.125 -2.0307 -0.2022  1.3029
 5791SOL     OW18271   5.259   2.611   6.975 -0.6303  0.2029 -0.0319
 5791SOL    HW118272   5.204   2.527   6.974  0.5156 -0.5652 -0.9374
 5791SOL    HW218273   5.343   2.597   6.922 -1.0414  2.3516 -1.3964
 5792SOL     OW18274   1.221   3.944   5.631  0.0876  0.4829  0.5252
 5792SOL    HW118275   1.158   3.875   5.666 -0.3617 -0.0516 -1.2402
 5792SOL    HW218276   1.315   3.911   5.643 -0.1327 -0.7405 -0.7962
 5793SOL     OW18277   2.145   0.557   5.430  0.0671  0.2805  0.3470
 5793SOL    HW118278   2.162   0.475   5.376  1.3706  0.0758  1.0289
 5793SOL    HW218279   2.224   0.576   5.489  0.7180  3.1551 -1.2334
 5794SOL     OW18280   4.207   4.235   6.909  0.3990 -0.9351  0.3559
 5794SOL    HW118281   4.142   4.162   6.891  0.2691 -0.7017 -0.1583
 5794SOL    HW218282   4.254   4.260   6.824 -0.8624  0.8090  0.1090
 5795SOL     OW18283   7.012   1.376   3.766 -0.1702  0.4084 -0.2414
 5795SOL    HW118284   7.084   1.355   3.699  0.2254  1.2011 -0.0867
 5795SOL    HW218285   6.938   1.426   3.721  0.0282  0.8133 -0.1260
 5796SOL     OW18286   2.204   0.363   4.098 -0.0625  0.0002  0.1670
 5796SOL    HW118287   2.228   0.351   4.002 -1.0779  3.8316 -0.7377
 5796SOL    HW218288   2.105   0.368   4.108 -0.0921 -2.2013  1.8008
 5797SOL     OW18289   4.420   5.567   4.320  0.6042 -0.0294  0.4959
 5797SOL    HW118290   4.438   5.607   4.410  0.0593  0.2870  0.4697
 5797SOL    HW218291   4.341   5.506   4.326  0.3018  0.3176  0.1525
 5798SOL     OW18292   6.916   6.666   5.176 -0.5195  0.1488 -0.0620
 5798SOL    HW118293   6.996   6.635   5.124 -1.0726  1.8777 -2.1147
 5798SOL    HW218294   6.944   6.735   5.242 -0.2850  0.7409 -0.7653
 5799SOL     OW18295   6.092   3.528   0.025  0.0099  0.1423  0.0480
 5799SOL    HW118296   6.132   3.617   0.045 -1.7381  0.9783 -0.0416
 5799SOL    HW218297   6.024   3.536  -0.048 -0.5215 -1.1648  0.3565
 5800SOL     OW18298   6.923   4.193   1.704 -0.0460  0.6304 -0.2443
 5800SOL    HW118299   7.002   4.153   1.658 -1.0158 -0.3724 -1.0948
 5800SOL    HW218300   6.924   4.292   1.691  0.6714  0.5492 -0.8796
 5801SOL     OW18301   4.887   6.928   0.517  0.1920  0.1289  0.1283
 5801SOL    HW118302   4.803   6.965   0.558  0.4072  1.4952 -0.6146
 5801SOL    HW218303   4.863   6.863   0.445 -0.2984  1.3943 -0.9027
 5802SOL     OW18304   3.617   1.841   3.618 -0.2816  0.6950 -0.0353
 5802SOL    HW118305   3.568   1.753   3.624  1.8219 -0.4952  0.5301
 5802SOL    HW218306   3.675   1.852   3.698  0.8521  1.7568 -0.9692
 5803SOL     OW18307   6.975   1.346   1.692  0.0313 -0.2793 -0.0779
 5803SOL    HW118308   6.986   1.354   1.791  0.2770  0.1814 -0.1422
 5803SOL    HW218309   7.064   1.355   1.648 -0.2154  0.5734 -0.4109
 5804SOL     OW18310   5.243   3.650   6.548  0.0174 -0.3524  0.4861
 5804SOL    HW118311   5.261   3.652   6.450 -1.2088  1.0055  0.2444
 5804SOL    HW218312   5.161   3.595   6.566 -0.0003 -0.2605  0.6903
 5805SOL     OW18313   3.575   1.940   5.556 -0.6863  0.4165 -0.1880
 5805SOL    HW118314   3.630   2.005   5.504  0.1609  1.0859  1.4404
 5805SOL    HW218315   3.613   1.848   5.545 -0.9582  0.4227 -1.2870
 5806SOL     OW18316   5.836   5.477   3.187 -0.1266 -0.5583  0.0123
 5806SOL    HW118317   5.867   5.569   3.211  0.4450 -0.9889  0.9997
 5806SOL    HW218318   5.882   5.410   3.246 -2.1882 -1.3015  0.8513
 5807SOL     OW18319   5.698   6.537   2.391  0.6357  0.4526  0.4012
 5807SOL    HW118320   5.752   6.453   2.387  0.2405  0.1900  0.5751
 5807SOL    HW218321   5.728   6.599   2.319  0.0699 -0.3459 -0.5445
 5808SOL     OW18322   6.005   3.686   5.624  0.2100  0.0108  0.1817
 5808SOL    HW118323   5.988   3.661   5.528  0.6759  1.7873 -0.4109
 5808SOL    HW218324   5.967   3.616   5.684  1.3040 -1.9734 -1.3136
 5809SOL     OW18325   4.510   6.760   6.378 -0.1239 -0.3919 -0.2373
 5809SOL    HW118326   4.449   6.705   6.321 -1.3156 -0.4138  1.0171
 5809SOL    HW218327   4.605   6.731   6.364 -0.7380 -3.0978  0.7135
 5810SOL     OW18328   1.573   0.179   2.373 -0.0158 -0.2625  0.2222
 5810SOL    HW118329   1.593   0.249   2.442 -1.0582 -0.4649  0.7501
 5810SOL    HW218330   1.625   0.097   2.394 -0.3273 -0.3246  0.7843
 5811SOL     OW18331   2.991   1.874   4.980  0.2993 -0.2510  0.6719
 5811SOL    HW118332   3.052   1.876   5.059 -1.4203 -0.1445  2.0440
 5811SOL    HW218333   2.901   1.910   5.005 -0.0663  0.5929 -1.5594
 5812SOL     OW18334   2.611   2.058   3.286  0.8389  0.2106  0.1752
 5812SOL    HW118335   2.538   2.098   3.342  1.7916 -0.1625  1.7478
 5812SOL    HW218336   2.578   1.973   3.245  0.1891  0.3700  0.3479
 5813SOL     OW18337   1.345   2.621   2.739 -0.8132  0.0712 -0.3034
 5813SOL    HW118338   1.435   2.577   2.743 -0.0388  1.7132  0.8786
 5813SOL    HW218339   1.304   2.603   2.649  0.2574 -1.4914 -0.5179
 5814SOL     OW18340   6.345   5.168   1.206 -0.3258  0.1965 -0.2362
 5814SOL    HW118341   6.295   5.103   1.148  0.3169  1.5470 -2.4349
 5814SOL    HW218342   6.279   5.228   1.253 -0.8825 -1.3611  1.0598
 5815SOL     OW18343   2.889   3.763   3.185  0.4656 -0.3099 -0.3409
 5815SOL    HW118344   2.794   3.796   3.192  0.6217  0.1222 -0.2112
 5815SOL    HW218345   2.891   3.664   3.199  0.2225 -0.1066  1.3913
 5816SOL     OW18346   0.046   6.477   1.580  0.2367 -0.0763 -0.2874
 5816SOL    HW118347   0.052   6.575   1.565  0.9058 -0.2879 -1.4952
 5816SOL    HW218348   0.125   6.446   1.634  1.1712 -0.2598 -1.7219
 5817SOL     OW18349   0.527   1.996   0.348  0.8271 -0.0148  0.2517
 5817SOL    HW118350   0.614   1.962   0.383  1.0196 -1.0090 -1.1314
 5817SOL    HW218351   0.538   2.024   0.253 -0.5924 -1.1020 -0.2620
 5818SOL     OW18352   1.041   1.363   3.956 -0.0626  0.1013  0.1671
 5818SOL    HW118353   1.073   1.412   3.874 -1.1286  0.3008 -0.1391
 5818SOL    HW218354   0.943   1.377   3.967 -0.5512 -2.4565 -0.2578
 5819SOL     OW18355   1.549   0.118   6.709  0.3490  0.0619  0.5738
 5819SOL    HW118356   1.644   0.107   6.682 -0.0333 -1.2674 -0.3693
 5819SOL    HW218357   1.519   0.038   6.760  0.4113  1.5732  3.1471
 5820SOL     OW18358   1.430   5.231   3.122  0.1536  0.0025  0.0605
 5820SOL    HW118359   1.488   5.291   3.177  0.3779 -0.0762 -0.0896
 5820SOL    HW218360   1.460   5.136   3.132 -0.4658 -0.1400  0.6300
 5821SOL     OW18361   1.925   1.085   6.933 -0.0016 -0.7713  0.7568
 5821SOL    HW118362   2.001   1.040   6.979  0.1323  0.4916  1.8017
 5821SOL    HW218363   1.945   1.094   6.835  0.7389 -1.3309  0.8529
 5822SOL     OW18364   6.369   4.932   5.642  0.2819 -0.0820 -0.1359
 5822SOL    HW118365   6.371   4.872   5.563  0.4886 -1.1983  0.6943
 5822SOL    HW218366   6.295   4.999   5.631  0.5659  0.0492 -1.4391
 5823SOL     OW18367   0.510   5.023   0.257 -0.3813  0.4964 -0.1681
 5823SOL    HW118368   0.483   4.937   0.302 -0.0572  0.2891 -0.3720
 5823SOL    HW218369   0.465   5.100   0.303 -0.4641  0.2400  0.1800
 5824SOL     OW18370   1.406   0.449   5.397  0.1203  0.9942 -0.6138
 5824SOL    HW118371   1.375   0.543   5.407 -0.5864  0.7471 -0.4358
 5824SOL    HW218372   1.340   0.397   5.343 -0.7503 -0.0050  1.3075
 5825SOL     OW18373   4.776   0.840   7.006  0.2955  0.3422  0.1972
 5825SOL    HW118374   4.683   0.837   7.044  1.5060 -0.7741  3.5225
 5825SOL    HW218375   4.832   0.902   7.061  1.9425 -0.4064 -0.5754
 5826SOL     OW18376   6.776   2.515   2.521  0.1312  0.6567 -0.0678
 5826SOL    HW118377   6.728   2.506   2.433  1.4978 -0.3583 -0.7588
 5826SOL    HW218378   6.717   2.482   2.594 -1.5450  2.7412 -0.3731
 5827SOL     OW18379   6.875   3.942   2.772  0.0942 -0.2445 -0.0299
 5827SOL    HW118380   6.853   4.024   2.825 -1.1662 -0.5797 -0.0015
 5827SOL    HW218381   6.792   3.889   2.758  0.8197 -1.2896 -0.4446
 5828SOL     OW18382   6.826   5.090   4.112  0.1691 -0.2215  0.3184
 5828SOL    HW118383   6.773   5.159   4.064  0.5907  0.4347  0.7674
 5828SOL    HW218384   6.831   5.114   4.209  0.4300 -0.8172  0.4569
 5829SOL     OW18385   5.445   1.110   5.868  0.0171 -0.3911 -0.2321
 5829SOL    HW118386   5.392   1.090   5.786  1.1573 -2.7606 -0.4774
 5829SOL    HW218387   5.386   1.106   5.948 -0.9785  1.3293 -0.8251
 5830SOL     OW18388   3.214   5.751   0.072  0.0181  0.5109  0.1617
 5830SOL    HW118389   3.170   5.661   0.078  0.4382  0.3415  0.8453
 5830SOL    HW218390   3.286   5.749   0.003 -0.2996  0.4640 -0.1692
 5831SOL     OW18391   1.532   2.341   2.935  0.0868 -0.1683 -0.0868
 5831SOL    HW118392   1.515   2.242   2.939  1.1566 -0.3810 -0.4413
 5831SOL    HW218393   1.453   2.390   2.971  0.8891 -1.2296  3.4610
 5832SOL     OW18394   5.577   4.371   4.816  0.3550 -0.2754  0.3943
 5832SOL    HW118395   5.670   4.347   4.790  0.6149  0.0913  0.9829
 5832SOL    HW218396   5.524   4.390   4.733  0.4637 -1.6668 -0.0147
 5833SOL     OW18397   3.022   3.178   3.792  0.1263  0.1216  0.2805
 5833SOL    HW118398   3.100   3.165   3.731 -0.0096 -0.4322  0.2256
 5833SOL    HW218399   2.938   3.152   3.746  0.0687 -0.7239  0.8439
 5834SOL     OW18400   1.358   3.727   5.331 -0.1022  0.1911 -0.3801
 5834SOL    HW118401   1.391   3.636   5.306 -1.6582  0.0783 -2.2527
 5834SOL    HW218402   1.265   3.739   5.297 -0.6412  1.8210  1.4945
 5835SOL     OW18403   3.036   0.923   0.436  0.3423  1.0604  0.2632
 5835SOL    HW118404   3.131   0.949   0.424  0.5131 -0.5811 -3.0466
 5835SOL    HW218405   3.030   0.824   0.454 -0.7398  1.0314 -0.1781
 5836SOL     OW18406   5.332   6.776   6.374 -0.2808 -0.5172 -0.1598
 5836SOL    HW118407   5.335   6.819   6.465 -1.5433 -0.9553  0.1092
 5836SOL    HW218408   5.418   6.794   6.326  0.1866  0.2006  0.9006
 5837SOL     OW18409   2.899   6.168   1.023  0.0292  0.0826  0.3422
 5837SOL    HW118410   2.964   6.183   0.949  0.5000  0.2329  0.7810
 5837SOL    HW218411   2.949   6.144   1.107 -0.5745 -1.8705  0.1862
 5838SOL     OW18412   3.494   5.342   0.402 -0.2556  0.5411 -0.5160
 5838SOL    HW118413   3.481   5.291   0.487 -1.4993  0.8609 -0.5091
 5838SOL    HW218414   3.550   5.287   0.339 -2.5149 -1.4159 -0.9688
 5839SOL     OW18415   0.112   3.388   0.095 -0.4206 -0.1050 -0.0579
 5839SOL    HW118416   0.077   3.433   0.177  0.4224  0.6393 -0.0916
 5839SOL    HW218417   0.039   3.378   0.028 -1.2236 -1.0989  0.9384
 5840SOL     OW18418   6.387   2.658   0.388 -0.2818  0.6488 -0.0388
 5840SOL    HW118419   6.302   2.649   0.336 -0.0671  1.4113 -0.5458
 5840SOL    HW218420   6.462   2.681   0.326  0.0012  1.4515  0.5815
 5841SOL     OW18421   2.723   3.213   6.615 -0.5053 -0.5014  0.2813
 5841SOL    HW118422   2.636   3.209   6.566 -0.6826  1.0385  0.4358
 5841SOL    HW218423   2.707   3.196   6.712 -0.1754 -3.3904 -0.0915
 5842SOL     OW18424   0.371   3.241   0.553 -0.0779  0.7648  0.1330
 5842SOL    HW118425   0.298   3.217   0.618  0.3385  0.7969  0.6189
 5842SOL    HW218426   0.460   3.226   0.596  0.3151 -2.1543 -1.4320
 5843SOL     OW18427   4.649   2.448   0.051  0.9899 -0.4020 -0.0712
 5843SOL    HW118428   4.689   2.529   0.095 -0.3428 -0.3519  1.1259
 5843SOL    HW218429   4.644   2.463  -0.048  1.1079  0.8397  0.0925
 5844SOL     OW18430   6.328   0.044   4.058 -0.0505 -0.1299 -0.1455
 5844SOL    HW118431   6.423   0.069   4.077  0.1341  1.5836 -2.8808
 5844SOL    HW218432   6.278   0.036   4.145  2.0062  1.3235  1.2677
 5845SOL     OW18433   4.108   0.117   0.955  0.6883 -0.0010 -0.0722
 5845SOL    HW118434   4.126   0.184   0.884 -0.3508  1.5799  1.0759
 5845SOL    HW218435   4.012   0.089   0.952  0.7609 -0.3239  0.3715
 5846SOL     OW18436   6.174   6.567   5.177 -0.4945 -0.1425  0.0557
 5846SOL    HW118437   6.175   6.606   5.269 -0.1591  0.9214 -0.3907
 5846SOL    HW218438   6.103   6.610   5.122  0.9326  1.0747 -0.9318
 5847SOL     OW18439   2.942   6.134   6.330 -0.4504  0.1124  0.1902
 5847SOL    HW118440   2.862   6.194   6.322  1.6219  3.1377  0.5822
 5847SOL    HW218441   2.955   6.108   6.425 -1.1741 -0.7276  0.0671
 5848SOL     OW18442   0.138   6.465   5.626 -0.2857  0.4859  0.1401
 5848SOL    HW118443   0.087   6.390   5.584 -0.0690  0.3049  0.1939
 5848SOL    HW218444   0.109   6.475   5.722 -0.3607  0.5136  0.1144
 5849SOL     OW18445   0.796   0.572   5.259 -0.7572  0.5784  0.0306
 5849SOL    HW118446   0.726   0.562   5.330 -0.6063  0.5536  0.1783
 5849SOL    HW218447   0.790   0.663   5.219 -0.6486  0.7033  0.2911
 5850SOL     OW18448   6.923   5.604   3.706 -0.5428 -0.6405  0.0082
 5850SOL    HW118449   7.000   5.575   3.649  0.1626  0.2326  0.5109
 5850SOL    HW218450   6.940   5.578   3.801  0.6816  2.3743  0.7076
 5851SOL     OW18451   1.378   3.117   6.670 -0.2114 -0.0921 -0.3066
 5851SOL    HW118452   1.292   3.162   6.693 -0.4203 -0.4781 -0.3450
 5851SOL    HW218453   1.370   3.073   6.580  0.1461  0.1916 -0.4850
 5852SOL     OW18454   4.914   3.553   2.146  0.4745 -0.0403  0.4243
 5852SOL    HW118455   4.915   3.489   2.223 -1.3302 -0.0542  0.4862
 5852SOL    HW218456   4.907   3.501   2.060 -0.2613  0.0223  0.4348
 5853SOL     OW18457   1.608   2.925   0.750 -0.7738  0.0434 -0.4237
 5853SOL    HW118458   1.679   2.922   0.822 -1.1660  1.0553  0.0321
 5853SOL    HW218459   1.531   2.980   0.782 -1.2343 -0.0200 -1.3924
 5854SOL     OW18460   4.164   6.156   2.895 -0.1981 -0.0322  0.1560
 5854SOL    HW118461   4.177   6.163   2.993 -2.1028  1.2598  0.3735
 5854SOL    HW218462   4.126   6.067   2.872 -1.2367  0.2275  0.8136
 5855SOL     OW18463   4.449   3.923   5.932  0.3937 -0.6742  0.1189
 5855SOL    HW118464   4.479   3.998   5.991  1.6294 -0.5292 -0.6565
 5855SOL    HW218465   4.391   3.861   5.984  1.2855 -0.4502  1.4309
 5856SOL     OW18466   5.338   5.361   4.817  0.3003  0.0890  0.2486
 5856SOL    HW118467   5.394   5.302   4.758  2.7248  1.1122  1.3563
 5856SOL    HW218468   5.330   5.451   4.775 -0.9716 -0.1770 -0.1147
 5857SOL     OW18469   5.524   2.587   2.236 -0.0750 -0.0896  0.1632
 5857SOL    HW118470   5.527   2.657   2.307 -0.8817  0.0327  0.0978
 5857SOL    HW218471   5.467   2.511   2.267  0.4567 -0.5274  0.0697
 5858SOL     OW18472   4.253   5.298   6.302 -0.4363  0.4043  0.3882
 5858SOL    HW118473   4.250   5.280   6.204 -2.2314  0.4419  0.4039
 5858SOL    HW218474   4.257   5.396   6.318  1.4867  0.3609  0.3687
 5859SOL     OW18475   2.736   1.270   3.846 -0.0471  0.1232 -0.5241
 5859SOL    HW118476   2.655   1.328   3.839  0.2209  0.6671  0.6443
 5859SOL    HW218477   2.818   1.327   3.839  0.2484 -0.3722 -1.2881
 5860SOL     OW18478   1.068   2.804   3.299 -0.2427  0.2713  0.3083
 5860SOL    HW118479   1.095   2.824   3.205  0.1815  0.7541  0.5337
 5860SOL    HW218480   1.080   2.885   3.356 -1.9987  0.4705  0.4578
 5861SOL     OW18481   6.982   1.449   5.759 -0.2879  0.1580 -0.6806
 5861SOL    HW118482   7.055   1.515   5.741  0.0922 -0.3345 -0.9660
 5861SOL    HW218483   7.019   1.357   5.756 -1.1713 -0.1785 -2.1121
 5862SOL     OW18484   4.439   1.862   5.617  0.0208 -0.0957  0.5459
 5862SOL    HW118485   4.520   1.865   5.676  0.4288  0.5206 -0.0406
 5862SOL    HW218486   4.357   1.871   5.674  0.3856 -0.0108  1.0709
 5863SOL     OW18487   6.988   6.720   2.731  0.5084 -0.2673  0.4412
 5863SOL    HW118488   7.046   6.772   2.794  1.5636  0.6595 -1.2234
 5863SOL    HW218489   6.965   6.632   2.772 -0.5603  1.0872  2.9581
 5864SOL     OW18490   5.878   3.431   2.126 -0.1401  0.3455  0.0213
 5864SOL    HW118491   5.944   3.382   2.182 -1.3947 -0.1674  1.1111
 5864SOL    HW218492   5.874   3.527   2.154 -0.3726  0.2104  0.4598
 5865SOL     OW18493   2.026   3.047   2.872  0.2218  0.2144  0.1449
 5865SOL    HW118494   1.958   2.976   2.894  1.0293 -1.0087 -1.1349
 5865SOL    HW218495   2.058   3.090   2.957 -0.9358 -0.3293  0.8878
 5866SOL     OW18496   0.061   0.956   1.039  0.2470 -0.0016  0.5122
 5866SOL    HW118497   0.035   0.887   1.106 -0.9646  0.2941  0.3698
 5866SOL    HW218498  -0.000   0.951   0.960 -0.5123  1.8695  0.9303
 5867SOL     OW18499   3.346   2.996   2.030  0.6546  0.3427 -0.2924
 5867SOL    HW118500   3.418   2.944   1.983  0.5971  0.2015 -0.2261
 5867SOL    HW218501   3.381   3.085   2.057  0.7690  0.3198 -0.3654
 5868SOL     OW18502   1.958   6.873   0.831  0.2478 -1.1078 -0.0603
 5868SOL    HW118503   2.012   6.793   0.859 -0.9297 -1.8693  0.1323
 5868SOL    HW218504   1.876   6.842   0.783  0.4032  0.0552 -1.1318
 5869SOL     OW18505   0.284   2.281   5.625  0.2036 -0.1206 -0.0520
 5869SOL    HW118506   0.184   2.291   5.633  0.3545  1.3277  0.3331
 5869SOL    HW218507   0.316   2.209   5.686 -0.5809 -0.4203  0.0156
 5870SOL     OW18508   5.830   6.415   3.717  0.2245 -0.1996 -0.0198
 5870SOL    HW118509   5.754   6.377   3.664  0.7969 -1.0582 -0.2524
 5870SOL    HW218510   5.881   6.479   3.660 -1.4251  1.8961  0.7313
 5871SOL     OW18511   0.906   0.872   1.214 -0.4721  1.5180 -0.5023
 5871SOL    HW118512   0.904   0.934   1.293 -0.7779 -0.3460  1.0418
 5871SOL    HW218513   0.884   0.780   1.245  1.0577  0.4124 -2.5226
 5872SOL     OW18514   2.034   1.768   3.078  0.3566  0.0725  0.0394
 5872SOL    HW118515   2.017   1.839   3.010  0.5504 -0.0910 -0.1805
 5872SOL    HW218516   2.132   1.748   3.081  0.1922 -0.8583 -0.5768
 5873SOL     OW18517   2.824   2.138   5.335  0.4330 -0.0169 -0.0612
 5873SOL    HW118518   2.878   2.056   5.356 -0.7252 -0.3347  1.9719
 5873SOL    HW218519   2.847   2.171   5.243  0.7832 -2.7148 -1.0138
 5874SOL     OW18520   6.408   0.601   0.872 -0.1332 -0.6482 -0.0822
 5874SOL    HW118521   6.399   0.502   0.879 -1.4421 -0.5058  0.5690
 5874SOL    HW218522   6.318   0.643   0.883  0.7283  0.7568  2.3687
 5875SOL     OW18523   5.286   2.630   3.835 -0.0605 -0.1944  0.5062
 5875SOL    HW118524   5.254   2.702   3.774  0.0675 -0.7854 -0.2742
 5875SOL    HW218525   5.207   2.576   3.865 -0.0507 -0.3274  0.3003
 5876SOL     OW18526   0.395   0.070   1.425  0.4638  0.3059  0.0132
 5876SOL    HW118527   0.435   0.033   1.509 -0.6076 -2.2234 -0.5013
 5876SOL    HW218528   0.441   0.032   1.345 -0.1046  0.7895 -0.5635
 5877SOL     OW18529   2.211   2.570   2.533 -0.2443 -0.5301  0.0820
 5877SOL    HW118530   2.132   2.530   2.581 -0.2592 -0.0370  0.4810
 5877SOL    HW218531   2.184   2.656   2.489  0.4167  0.4725  1.5433
 5878SOL     OW18532   4.487   4.625   3.858  0.2610  0.4819  0.2038
 5878SOL    HW118533   4.515   4.558   3.926 -0.8152  0.0185  0.2032
 5878SOL    HW218534   4.566   4.651   3.803  0.5852 -1.2875 -0.2334
 5879SOL     OW18535   4.180   0.433   6.255  0.2324  0.4735  0.5341
 5879SOL    HW118536   4.109   0.421   6.186  1.0885 -0.7557 -0.1873
 5879SOL    HW218537   4.191   0.347   6.306 -0.7537  1.5101  2.6054
 5880SOL     OW18538   0.124   1.228   4.429 -0.1801 -0.2785 -0.4754
 5880SOL    HW118539   0.025   1.244   4.426 -0.2905 -0.4453  1.4069
 5880SOL    HW218540   0.169   1.291   4.365 -1.3510  1.0893 -0.0292
 5881SOL     OW18541   5.260   1.168   0.896 -0.0022  0.2308 -0.0514
 5881SOL    HW118542   5.292   1.201   0.984  2.2084  0.3837 -0.8364
 5881SOL    HW218543   5.312   1.213   0.823 -0.1975 -1.5037 -1.3190
 5882SOL     OW18544   5.330   3.838   1.491  0.3653  0.1137  0.0030
 5882SOL    HW118545   5.232   3.834   1.510 -0.1461  1.2420 -2.1154
 5882SOL    HW218546   5.363   3.931   1.509  1.0948 -0.3010  0.8527
 5883SOL     OW18547   0.264   6.512   4.798 -0.1759  0.2552  0.1749
 5883SOL    HW118548   0.340   6.447   4.800 -1.6867 -1.6217 -0.0941
 5883SOL    HW218549   0.213   6.502   4.712 -1.2571  0.8040  0.7251
 5884SOL     OW18550   1.688   6.406   2.044  0.0036 -0.3212 -0.2883
 5884SOL    HW118551   1.611   6.411   1.981  0.7157 -1.4854 -1.3232
 5884SOL    HW218552   1.727   6.313   2.041  1.0091  0.0450  0.7160
 5885SOL     OW18553   4.595   5.735   0.317 -0.2165 -0.2454 -0.4777
 5885SOL    HW118554   4.549   5.811   0.363 -1.9124 -1.9430  0.7995
 5885SOL    HW218555   4.593   5.655   0.377  2.2201 -1.1118 -1.4485
 5886SOL     OW18556   0.654   1.879   5.819  0.1366 -0.4559  0.7078
 5886SOL    HW118557   0.566   1.839   5.844 -0.5655  1.3985  1.3666
 5886SOL    HW218558   0.644   1.933   5.735  0.5317  0.0936  1.0067
 5887SOL     OW18559   5.201   4.346   0.087  0.1483  0.2703  0.0823
 5887SOL    HW118560   5.127   4.309   0.031 -0.1879 -1.5818  1.6513
 5887SOL    HW218561   5.163   4.411   0.154  0.2490  0.8504 -0.4151
 5888SOL     OW18562   0.652   2.397   0.561  0.5193  0.2139 -0.4879
 5888SOL    HW118563   0.667   2.389   0.659  0.8654  0.3572 -0.5289
 5888SOL    HW218564   0.582   2.331   0.532 -1.1230  1.5866  0.2094
 5889SOL     OW18565   4.225   6.328   4.883 -0.2904  0.0682  0.2588
 5889SOL    HW118566   4.159   6.256   4.864 -1.2427  0.6772  1.1634
 5889SOL    HW218567   4.187   6.417   4.855  0.4362  0.3422  0.1244
 5890SOL     OW18568   3.079   5.195   3.708 -0.4290  0.3691  0.1188
 5890SOL    HW118569   3.051   5.202   3.804  1.4745 -0.8224  0.8357
 5890SOL    HW218570   3.015   5.138   3.658 -1.1976  0.6264  0.7930
 5891SOL     OW18571   0.853   2.975   5.246  0.7944 -0.4179  0.2089
 5891SOL    HW118572   0.927   2.935   5.193  0.1627 -2.0331  0.5038
 5891SOL    HW218573   0.776   2.911   5.251 -0.5351  1.0820  0.1481
 5892SOL     OW18574   3.084   1.153   6.885 -0.0274  0.0667 -0.2318
 5892SOL    HW118575   2.988   1.127   6.896  0.1532 -0.2954  0.5022
 5892SOL    HW218576   3.114   1.129   6.792 -0.6783  0.3157 -0.5157
 5893SOL     OW18577   5.353   3.581   3.168 -0.2041  0.4828 -0.0860
 5893SOL    HW118578   5.305   3.538   3.245  0.3163 -1.6096 -0.8637
 5893SOL    HW218579   5.287   3.622   3.106 -0.9295 -1.0386 -0.3702
 5894SOL     OW18580   0.608   1.898   1.569 -0.0319  0.1961  0.1063
 5894SOL    HW118581   0.657   1.821   1.610 -0.7557 -0.2725  0.1079
 5894SOL    HW218582   0.638   1.983   1.612  1.9176  0.1189 -0.9398
 5895SOL     OW18583   1.521   6.299   1.163 -0.1162 -0.2660  0.3163
 5895SOL    HW118584   1.543   6.393   1.188 -0.4294 -0.1864  0.2901
 5895SOL    HW218585   1.598   6.239   1.187  0.3285  0.0831 -0.2112
 5896SOL     OW18586   1.421   2.071   1.932  0.1644 -0.5921  0.0654
 5896SOL    HW118587   1.510   2.045   1.969  0.6908  1.3456  0.3073
 5896SOL    HW218588   1.435   2.132   1.853 -0.8875  1.3723  1.3083
 5897SOL     OW18589   3.482   2.618   0.706  0.6423  0.2533  0.1152
 5897SOL    HW118590   3.465   2.547   0.775  0.6223 -1.0885 -1.2161
 5897SOL    HW218591   3.579   2.643   0.707  0.7452 -0.1407  0.2606
 5898SOL     OW18592   5.764   6.330   1.921  0.8338  0.2111 -0.3397
 5898SOL    HW118593   5.754   6.419   1.965  1.4851 -0.2625  0.8028
 5898SOL    HW218594   5.706   6.263   1.967 -0.4559  0.2300 -1.8432
 5899SOL     OW18595   0.073   5.291   6.733 -0.1425 -0.0936 -0.2469
 5899SOL    HW118596   0.050   5.352   6.657  1.0898 -0.6739 -1.1247
 5899SOL    HW218597   0.106   5.345   6.810  1.2952  0.3608 -1.1484
 5900SOL     OW18598   5.080   2.433   6.104  0.0287 -0.8622 -0.1071
 5900SOL    HW118599   5.098   2.429   6.005 -1.3280  0.4561 -0.4548
 5900SOL    HW218600   4.984   2.457   6.119  0.4593 -0.0286  1.5302
 5901SOL     OW18601   2.177   6.189   0.846  0.3037  0.1788  0.9089
 5901SOL    HW118602   2.213   6.244   0.771  0.3829 -1.7793 -0.5521
 5901SOL    HW218603   2.250   6.168   0.911  0.6590  0.3254  0.5546
 5902SOL     OW18604   4.395   6.467   6.587 -0.0359 -0.2306 -0.0185
 5902SOL    HW118605   4.462   6.465   6.513 -0.5802 -2.2361 -0.5040
 5902SOL    HW218606   4.310   6.508   6.554  0.6109  1.4696  0.3385
 5903SOL     OW18607   5.147   2.476   3.522 -0.5145 -0.5772 -0.1862
 5903SOL    HW118608   5.101   2.398   3.480 -2.3882  0.1286  0.4769
 5903SOL    HW218609   5.088   2.516   3.592  1.5688 -0.2840  1.5080
 5904SOL     OW18610   4.530   6.976   2.704 -0.2849  0.7852 -0.0281
 5904SOL    HW118611   4.579   6.892   2.681 -0.2814  0.5410  0.8391
 5904SOL    HW218612   4.438   6.974   2.664 -0.9449 -0.4463  1.4741
 5905SOL     OW18613   4.219   1.587   3.410 -0.3457 -0.0745 -0.1916
 5905SOL    HW118614   4.173   1.667   3.372 -0.5307 -0.0892  0.0051
 5905SOL    HW218615   4.300   1.616   3.461 -0.3980 -0.0138 -0.1430
 5906SOL     OW18616   1.386   5.530   5.481 -0.3165 -0.2369 -0.6468
 5906SOL    HW118617   1.370   5.467   5.556 -0.9076  1.7000  0.9525
 5906SOL    HW218618   1.484   5.547   5.471 -0.2859  0.3334  0.4712
 5907SOL     OW18619   0.722   1.726   6.313 -0.3883 -0.3599 -0.0788
 5907SOL    HW118620   0.644   1.722   6.251 -0.8137 -3.7936  0.4896
 5907SOL    HW218621   0.805   1.701   6.263 -0.2241 -0.1569  0.0917
 5908SOL     OW18622   2.760   3.596   6.132 -0.2755 -0.1118  0.1789
 5908SOL    HW118623   2.845   3.571   6.179 -0.3557  0.7613  0.8045
 5908SOL    HW218624   2.764   3.564   6.037  1.4536  1.3246 -0.2919
 5909SOL     OW18625   5.832   5.067   2.656 -0.0692  0.2466  0.2560
 5909SOL    HW118626   5.866   5.145   2.708  0.9729 -0.3461  0.4878
 5909SOL    HW218627   5.896   4.991   2.664 -0.5856 -0.3160 -0.7644
 5910SOL     OW18628   0.932   4.340   4.113 -0.3629 -0.2840  0.5063
 5910SOL    HW118629   0.978   4.271   4.168 -0.6372 -0.9135 -0.0365
 5910SOL    HW218630   0.862   4.296   4.056  1.9181 -0.2217 -2.6636
 5911SOL     OW18631   0.922   6.744   2.650 -0.2060  0.7548  0.0896
 5911SOL    HW118632   0.848   6.697   2.603 -1.5324 -0.3018  2.9550
 5911SOL    HW218633   1.008   6.732   2.600 -1.7294  1.0809 -2.7484
 5912SOL     OW18634   5.404   4.638   3.593  0.1781  0.1809 -0.8531
 5912SOL    HW118635   5.437   4.564   3.653  0.5640  0.1266 -1.1251
 5912SOL    HW218636   5.410   4.608   3.498  0.5136  0.6271 -0.9769
 5913SOL     OW18637   3.915   4.161   0.453 -0.2307  0.4242 -0.7452
 5913SOL    HW118638   4.008   4.132   0.475 -0.2617  0.4209 -0.6184
 5913SOL    HW218639   3.857   4.081   0.442 -0.4029  0.4413 -0.0190
 5914SOL     OW18640   1.902   4.905   6.504  0.2506 -0.6287  0.8065
 5914SOL    HW118641   1.997   4.872   6.504  0.0433 -1.2736 -0.1150
 5914SOL    HW218642   1.840   4.830   6.527 -0.2148 -0.9333 -1.1800
 5915SOL     OW18643   5.686   6.641   5.744  0.5690 -0.1254 -0.3031
 5915SOL    HW118644   5.741   6.611   5.667  3.9061  2.2376  0.9361
 5915SOL    HW218645   5.624   6.713   5.715  0.6390 -0.3635 -1.0602
 5916SOL     OW18646   0.124   3.020   2.630  0.2132 -0.3559 -0.1082
 5916SOL    HW118647   0.065   2.989   2.705 -1.5089 -1.0430 -1.6568
 5916SOL    HW218648   0.067   3.045   2.551  1.9547  0.4072 -1.1897
 5917SOL     OW18649   4.022   1.760   6.564 -0.6552  0.3531 -0.0384
 5917SOL    HW118650   3.977   1.708   6.636  0.1192 -2.0009 -1.1616
 5917SOL    HW218651   4.116   1.728   6.553 -0.6391  0.9093 -1.8301
 5918SOL     OW18652   1.665   1.907   3.837 -0.3697 -0.0009  0.1967
 5918SOL    HW118653   1.568   1.929   3.825 -0.6295 -1.1713  0.0110
 5918SOL    HW218654   1.675   1.846   3.916  0.1738 -0.1537  0.0101
 5919SOL     OW18655   4.559   6.764   0.532  0.4062 -0.0464 -0.3100
 5919SOL    HW118656   4.608   6.729   0.612 -0.5408  0.6292  0.5859
 5919SOL    HW218657   4.601   6.727   0.449  0.3774 -2.1168  0.5366
 5920SOL     OW18658   3.615   5.775   2.785  0.1349  0.5170 -0.0688
 5920SOL    HW118659   3.694   5.816   2.830 -1.3168 -0.4652  3.8262
 5920SOL    HW218660   3.604   5.680   2.816 -2.6029  0.6583 -0.3013
 5921SOL     OW18661   4.682   5.774   0.027 -0.0768 -0.5221  0.1538
 5921SOL    HW118662   4.711   5.717   0.103  1.5214  0.1827  0.1129
 5921SOL    HW218663   4.697   5.871   0.049 -1.3125 -0.1792 -0.3662
 5922SOL     OW18664   4.453   1.175   1.826  0.1775  0.1662 -0.6883
 5922SOL    HW118665   4.456   1.204   1.922 -0.7347 -0.5548 -0.4210
 5922SOL    HW218666   4.462   1.076   1.821  2.7861  0.3758 -1.5585
 5923SOL     OW18667   2.667   6.573   0.092  0.0515  0.5403  0.3084
 5923SOL    HW118668   2.731   6.629   0.038 -1.6825  0.7128 -1.7076
 5923SOL    HW218669   2.664   6.480   0.054  1.1282 -0.3068  2.1523
 5924SOL     OW18670   6.584   3.999   5.179  0.4735 -0.3251  0.2115
 5924SOL    HW118671   6.683   3.982   5.179  0.5748  0.2241 -0.9610
 5924SOL    HW218672   6.566   4.094   5.153 -0.3676 -0.3811  0.5511
 5925SOL     OW18673   5.895   0.751   2.872 -0.5949  0.2063  0.1992
 5925SOL    HW118674   5.912   0.848   2.889 -2.5132  0.4978  0.7779
 5925SOL    HW218675   5.808   0.741   2.823 -1.0984 -1.2452  1.3069
 5926SOL     OW18676   5.772   2.089   6.284  0.1491  0.2980  0.0875
 5926SOL    HW118677   5.744   2.014   6.225 -0.5842  1.3182 -0.9234
 5926SOL    HW218678   5.827   2.054   6.360  0.6371 -1.1112 -0.8854
 5927SOL     OW18679   6.089   3.746   4.923 -0.2712  0.5583  0.1190
 5927SOL    HW118680   6.037   3.721   4.841  2.4972  0.0308 -1.6551
 5927SOL    HW218681   6.107   3.663   4.977 -0.7948  0.6441  0.4235
 5928SOL     OW18682   1.084   3.000   3.854 -0.0746 -0.4559 -0.2189
 5928SOL    HW118683   1.067   3.098   3.839 -1.5909 -0.3692  1.6721
 5928SOL    HW218684   1.182   2.982   3.850  0.1787  1.0025 -1.3253
 5929SOL     OW18685   4.420   0.300   5.117  0.1682 -0.4163 -0.0531
 5929SOL    HW118686   4.475   0.348   5.050  1.4317 -0.3334  1.0018
 5929SOL    HW218687   4.452   0.323   5.209 -0.6951 -1.4995  0.5444
 5930SOL     OW18688   2.942   4.370   6.718  0.0255  0.2162  0.2114
 5930SOL    HW118689   2.919   4.455   6.765 -0.1447  0.3413 -0.0937
 5930SOL    HW218690   3.004   4.316   6.775  0.7531  0.8924  0.0859
 5931SOL     OW18691   7.014   6.723   1.060 -0.1779  0.1540 -0.1346
 5931SOL    HW118692   7.080   6.763   0.996 -1.2304  0.1497 -1.2702
 5931SOL    HW218693   7.024   6.623   1.058  0.7267  0.2098  0.7804
 5932SOL     OW18694   6.727   5.371   3.114  0.2849  0.6136 -0.2713
 5932SOL    HW118695   6.690   5.404   3.027 -0.9233  0.5289  0.2002
 5932SOL    HW218696   6.661   5.387   3.187  1.1944  0.4801  0.6081
 5933SOL     OW18697   4.958   5.321   3.987 -0.1096 -0.0228  0.8195
 5933SOL    HW118698   4.880   5.295   4.044  0.8077  0.0384  2.1514
 5933SOL    HW218699   5.038   5.339   4.046  1.0152 -0.4556 -0.5292
 5934SOL     OW18700   2.942   0.292   3.137  0.8081 -0.2114  0.1149
 5934SOL    HW118701   2.860   0.308   3.082  0.0907 -1.4282  0.7671
 5934SOL    HW218702   2.957   0.370   3.198 -1.2269 -0.8616  1.5956
 5935SOL     OW18703   5.799   4.877   5.982 -0.2788  0.6857 -0.2489
 5935SOL    HW118704   5.866   4.842   6.048 -2.1652  1.8269  2.4132
 5935SOL    HW218705   5.848   4.919   5.905  2.0398  0.6450  1.1070
 5936SOL     OW18706   4.399   0.910   1.783 -0.0944  0.5749  0.3083
 5936SOL    HW118707   4.405   0.927   1.685 -1.4016  1.6674  0.3941
 5936SOL    HW218708   4.319   0.855   1.803 -0.7845  1.7586  0.9080
 5937SOL     OW18709   2.160   6.591   1.866  0.0872  0.0421 -0.1170
 5937SOL    HW118710   2.215   6.581   1.783 -1.2319  1.8866 -1.2992
 5937SOL    HW218711   2.207   6.651   1.930  0.9010 -1.0240  0.3244
 5938SOL     OW18712   1.148   1.136   4.027  0.5605  0.2204  0.0002
 5938SOL    HW118713   1.241   1.129   3.989  0.8532 -0.4758  0.8121
 5938SOL    HW218714   1.109   1.224   4.001  1.2048  0.2663 -0.8858
 5939SOL     OW18715   5.487   7.023   0.301  0.3007  0.2675  0.4245
 5939SOL    HW118716   5.406   7.004   0.356 -0.6788 -1.5494 -1.4732
 5939SOL    HW218717   5.553   6.948   0.311  0.7682  0.6475  0.2599
 5940SOL     OW18718   3.391   0.415   6.840 -0.5168  0.1182  0.4791
 5940SOL    HW118719   3.449   0.391   6.918  0.5514 -1.0368 -0.6194
 5940SOL    HW218720   3.373   0.332   6.786 -1.5389  0.8310 -0.2954
 5941SOL     OW18721   0.680   4.186   0.008 -0.1490 -0.5071  0.4652
 5941SOL    HW118722   0.758   4.188  -0.054 -0.6047  0.3513 -0.1043
 5941SOL    HW218723   0.712   4.170   0.101  0.6991 -0.3044  0.2182
 5942SOL     OW18724   0.597   3.376   6.367 -0.0167  0.3862 -0.5416
 5942SOL    HW118725   0.650   3.390   6.451 -2.2396 -1.5393  1.3305
 5942SOL    HW218726   0.532   3.452   6.356 -0.8013 -0.1240  0.4074
 5943SOL     OW18727   4.809   6.872   5.704 -0.0501 -0.2946 -0.4782
 5943SOL    HW118728   4.871   6.861   5.627  0.6423 -2.8997  0.3625
 5943SOL    HW218729   4.847   6.828   5.785 -2.2363 -0.5174  0.5134
 5944SOL     OW18730   6.922   0.797   5.112 -0.0897 -0.8264 -0.2409
 5944SOL    HW118731   6.921   0.761   5.205  1.2085 -0.8965 -0.2312
 5944SOL    HW218732   6.855   0.748   5.056 -0.4966 -1.1472  0.5219
 5945SOL     OW18733   0.107   5.681   0.471  0.3515  0.4847  0.5058
 5945SOL    HW118734   0.160   5.750   0.422  0.0306  0.7220  0.4925
 5945SOL    HW218735   0.166   5.632   0.535  1.0713 -0.6382 -0.9487
 5946SOL     OW18736   4.314   5.648   4.730  0.0862 -0.1038  0.5352
 5946SOL    HW118737   4.399   5.631   4.680  1.2857  0.1925  2.3942
 5946SOL    HW218738   4.259   5.565   4.730  1.1854 -0.8621  0.7732
 5947SOL     OW18739   4.406   6.779   5.288  0.1534  0.1529  0.0647
 5947SOL    HW118740   4.496   6.769   5.245 -0.8401 -0.1468 -2.0577
 5947SOL    HW218741   4.345   6.708   5.254 -0.4694 -0.7396  2.7852
 5948SOL     OW18742   0.867   6.035   5.768  0.3651 -0.0987  0.5481
 5948SOL    HW118743   0.918   6.042   5.682 -1.7191  1.0062 -0.6622
 5948SOL    HW218744   0.875   6.121   5.818  0.8054 -0.4159  1.0317
 5949SOL     OW18745   0.270   6.528   3.042  0.4871  0.2206  0.7169
 5949SOL    HW118746   0.315   6.538   2.954  0.4829  2.3053  0.9148
 5949SOL    HW218747   0.320   6.462   3.098 -0.1143 -1.9646 -1.1790
 5950SOL     OW18748   5.828   5.074   0.396 -0.2572  0.4878 -0.1205
 5950SOL    HW118749   5.851   5.170   0.380 -2.0048  0.7301 -1.4874
 5950SOL    HW218750   5.771   5.040   0.321 -2.4031 -0.6654  1.8888
 5951SOL     OW18751   1.568   6.938   3.539 -0.2566  0.5502  0.5112
 5951SOL    HW118752   1.574   6.868   3.610  0.5022  1.1799  1.0932
 5951SOL    HW218753   1.659   6.952   3.498  0.0951  2.6221  1.8504
 5952SOL     OW18754   1.117   2.380   5.515 -0.0169  0.7205  0.0516
 5952SOL    HW118755   1.153   2.312   5.579 -2.5611  1.7238  2.7871
 5952SOL    HW218756   1.031   2.347   5.475 -0.0251  1.3551 -0.4778
 5953SOL     OW18757   6.440   5.112   3.347 -0.2935  0.2315 -0.4929
 5953SOL    HW118758   6.536   5.087   3.333 -0.1117  0.5092  0.2276
 5953SOL    HW218759   6.389   5.033   3.379 -0.3716  0.0119 -1.1364
 5954SOL     OW18760   2.859   5.177   1.954  0.3061  0.5661  0.5268
 5954SOL    HW118761   2.807   5.100   1.990 -0.4631  0.1671 -1.3621
 5954SOL    HW218762   2.855   5.177   1.855  0.5459  2.8786  0.4691
 5955SOL     OW18763   2.807   1.806   1.849  0.0478  0.3993  0.0362
 5955SOL    HW118764   2.849   1.889   1.884  0.5572 -0.1696  0.8171
 5955SOL    HW218765   2.829   1.795   1.752 -1.9938  2.3863 -0.7374
 5956SOL     OW18766   6.443   4.143   0.649  0.2194  0.1047  0.3601
 5956SOL    HW118767   6.349   4.173   0.664  0.2316  0.4368 -0.1885
 5956SOL    HW218768   6.506   4.215   0.679  0.2704  0.3092 -0.2335
 5957SOL     OW18769   5.508   2.510   6.867 -0.2826 -0.0956 -0.0893
 5957SOL    HW118770   5.481   2.438   6.803 -0.2149  0.2623 -0.5248
 5957SOL    HW218771   5.608   2.521   6.863 -0.2781 -0.0797  0.0860
 5958SOL     OW18772   0.913   0.114   0.435  0.1237 -0.2144  0.2576
 5958SOL    HW118773   0.883   0.041   0.496 -0.4713  0.8602  1.3047
 5958SOL    HW218774   1.013   0.123   0.439  0.1060 -0.2736  0.9621
 5959SOL     OW18775   4.439   1.593   1.331  0.7178 -0.1721 -0.2745
 5959SOL    HW118776   4.447   1.693   1.333  0.4246 -0.1471 -0.2671
 5959SOL    HW218777   4.369   1.565   1.398  0.8741 -0.3880 -0.2031
 5960SOL     OW18778   0.594   3.624   6.697  0.4622  0.1439 -0.5524
 5960SOL    HW118779   0.680   3.581   6.670  0.9167  0.0929  0.8601
 5960SOL    HW218780   0.573   3.700   6.636  2.0321  0.7874 -0.3445
 5961SOL     OW18781   1.171   0.358   0.720 -0.1561 -0.0580  0.0798
 5961SOL    HW118782   1.199   0.272   0.762  0.3207 -0.1936 -0.5008
 5961SOL    HW218783   1.250   0.417   0.708 -0.5823  0.7507  1.0941
 5962SOL     OW18784   2.755   6.155   4.339  0.4708 -0.2067  0.2210
 5962SOL    HW118785   2.734   6.086   4.271 -2.5089  0.2577  0.5453
 5962SOL    HW218786   2.818   6.117   4.407  1.3230 -1.5351 -1.2540
 5963SOL     OW18787   6.735   5.932   0.424  0.7067 -0.1124  0.1814
 5963SOL    HW118788   6.788   6.016   0.421  0.5147  0.0158 -2.8308
 5963SOL    HW218789   6.797   5.854   0.435  1.2555  0.2042 -0.5864
 5964SOL     OW18790   6.786   4.159   0.320 -0.2658 -0.5275 -0.0548
 5964SOL    HW118791   6.844   4.094   0.369  1.2401  0.1959 -0.8165
 5964SOL    HW218792   6.812   4.162   0.224 -0.7290  0.7409 -0.1665
 5965SOL     OW18793   1.531   2.442   0.407 -0.5996  0.1324 -0.3579
 5965SOL    HW118794   1.606   2.389   0.447 -0.1550  0.7674 -0.3380
 5965SOL    HW218795   1.566   2.528   0.371 -1.3829  0.6247  0.0112
 5966SOL     OW18796   0.314   0.757   5.536  0.6259  0.3410  0.0255
 5966SOL    HW118797   0.414   0.754   5.531  0.6191 -0.1329  0.1358
 5966SOL    HW218798   0.278   0.800   5.454  1.0050  2.2749  0.8117
 5967SOL     OW18799   1.692   6.932   6.317  0.0603  0.5547 -0.0816
 5967SOL    HW118800   1.726   7.025   6.331 -0.1429  0.8613 -1.5430
 5967SOL    HW218801   1.602   6.935   6.274  0.2728 -0.3190 -0.6214
 5968SOL     OW18802   1.905   4.171   4.054  0.4346 -0.1872  0.0675
 5968SOL    HW118803   1.859   4.186   4.142 -0.4655  1.0982 -0.5969
 5968SOL    HW218804   1.836   4.152   3.984  0.8874  1.6507 -0.9285
 5969SOL     OW18805   6.070   1.169   1.787 -0.2419  0.1241  0.1955
 5969SOL    HW118806   6.138   1.236   1.813 -0.6153  0.3593  0.5809
 5969SOL    HW218807   5.990   1.177   1.847  0.5414 -2.0572  1.6634
 5970SOL     OW18808   5.089   3.558   0.656  0.2945 -0.0580 -0.1166
 5970SOL    HW118809   5.176   3.525   0.694 -0.1655 -2.1254 -0.7157
 5970SOL    HW218810   5.079   3.524   0.563 -0.9971  0.4742 -0.1897
 5971SOL     OW18811   5.904   6.377   2.299 -0.5481  0.0897  0.4042
 5971SOL    HW118812   5.958   6.458   2.278 -1.7179  1.0553  0.9562
 5971SOL    HW218813   5.911   6.312   2.224  0.6006  0.5920  0.0490
 5972SOL     OW18814   4.576   2.704   5.013 -0.3271  0.2935 -0.5798
 5972SOL    HW118815   4.565   2.730   5.109 -0.2107  1.6560 -0.9057
 5972SOL    HW218816   4.518   2.625   4.993  0.9321 -1.0918  1.0000
 5973SOL     OW18817   0.299   6.674   2.791  0.1107  0.3779 -0.2204
 5973SOL    HW118818   0.267   6.668   2.696 -0.4648  1.5555 -0.1195
 5973SOL    HW218819   0.251   6.749   2.837  1.1250  0.4748  0.7000
 5974SOL     OW18820   6.592   0.049   2.215  0.1365  0.3374 -0.1971
 5974SOL    HW118821   6.670   0.105   2.242 -0.3442 -0.0515  2.2984
 5974SOL    HW218822   6.522   0.052   2.287 -1.1606 -1.1485 -1.3095
 5975SOL     OW18823   6.968   2.515   3.086 -0.0644 -0.0559 -0.0844
 5975SOL    HW118824   6.943   2.488   3.179 -0.8615 -0.3379 -0.3757
 5975SOL    HW218825   7.014   2.439   3.041 -2.1013 -0.9062 -0.8255
 5976SOL     OW18826   0.547   3.466   6.020  0.3049 -0.5047  0.3957
 5976SOL    HW118827   0.589   3.395   6.076  1.8304  1.2909  1.6540
 5976SOL    HW218828   0.592   3.470   5.931  0.5531 -0.7754  0.5100
 5977SOL     OW18829   2.666   2.395   0.519  0.0123 -0.2700  0.2897
 5977SOL    HW118830   2.587   2.423   0.573 -0.2614  1.8307 -1.1025
 5977SOL    HW218831   2.641   2.388   0.423  1.4913  0.4088 -0.1859
 5978SOL     OW18832   1.170   5.827   3.144  0.7055 -0.1084 -0.0088
 5978SOL    HW118833   1.139   5.752   3.086 -0.4311 -0.1271  0.6112
 5978SOL    HW218834   1.259   5.859   3.111  0.8805 -1.2527 -0.7053
 5979SOL     OW18835   2.676   6.332   4.557 -0.1229  0.7105  0.4549
 5979SOL    HW118836   2.720   6.260   4.504 -2.8115  2.0738 -4.2661
 5979SOL    HW218837   2.730   6.416   4.552 -0.4959  0.9074 -0.5047
 5980SOL     OW18838   0.861   0.582   5.596  0.2895  0.0563  0.6795
 5980SOL    HW118839   0.844   0.665   5.649 -2.0354 -0.1133  0.3100
 5980SOL    HW218840   0.916   0.605   5.516 -1.3608  1.5482 -0.1024
 5981SOL     OW18841   4.578   2.727   0.630  0.2342 -0.4909  0.3970
 5981SOL    HW118842   4.537   2.807   0.673  1.2826  1.4012 -1.8817
 5981SOL    HW218843   4.508   2.658   0.614 -1.5288  1.4437 -0.7963
 5982SOL     OW18844   2.869   1.180   1.285  0.2571  0.2178  0.4543
 5982SOL    HW118845   2.887   1.082   1.295  0.0818  0.3113  1.9401
 5982SOL    HW218846   2.792   1.206   1.343 -0.2036  1.1024 -0.5211
 5983SOL     OW18847   1.886   0.323   0.964 -0.3114  0.0865 -0.5433
 5983SOL    HW118848   1.884   0.404   1.023  0.9867 -0.7133  0.6643
 5983SOL    HW218849   1.976   0.317   0.920 -0.3708 -0.7562 -0.5496
 5984SOL     OW18850   5.780   6.030   4.781 -0.0371  0.7795 -0.1001
 5984SOL    HW118851   5.816   6.001   4.692 -1.9036 -2.7319  0.0841
 5984SOL    HW218852   5.707   6.097   4.767 -1.2596 -0.7347 -1.4630
 5985SOL     OW18853   0.502   6.823   1.818  0.1380  0.2634  0.3268
 5985SOL    HW118854   0.564   6.834   1.741  0.5163 -1.5879  0.3197
 5985SOL    HW218855   0.425   6.886   1.808  0.2311  0.1334 -1.5042
 5986SOL     OW18856   6.110   6.881   2.692  0.4033  0.1287  0.4217
 5986SOL    HW118857   6.052   6.827   2.632  1.5756 -0.2979 -0.3599
 5986SOL    HW218858   6.201   6.840   2.697  0.1771 -0.2149  3.0182
 5987SOL     OW18859   5.960   3.466   5.900  0.0709 -0.1064 -0.5475
 5987SOL    HW118860   5.914   3.411   5.830 -0.7262  1.9780 -1.7525
 5987SOL    HW218861   6.052   3.430   5.915  0.1273 -0.8418 -2.4173
 5988SOL     OW18862   2.385   7.008   5.309  0.0660  0.5699 -0.1014
 5988SOL    HW118863   2.425   7.099   5.319  1.6735 -0.1942  1.0498
 5988SOL    HW218864   2.358   6.993   5.214 -0.8933  2.4705 -0.1712
 5989SOL     OW18865   1.664   0.058   0.188 -0.4013 -0.1393  0.0310
 5989SOL    HW118866   1.683  -0.010   0.118  1.2685  0.0585  0.2636
 5989SOL    HW218867   1.721   0.139   0.172 -0.2373  0.0368  1.4177
 5990SOL     OW18868   6.407   4.054   6.078  0.0153 -0.3757  0.4947
 5990SOL    HW118869   6.477   4.124   6.087 -0.2457 -0.2352  1.5612
 5990SOL    HW218870   6.386   4.016   6.168  0.0825 -1.7607 -0.0617
 5991SOL     OW18871   1.708   3.596   4.168  0.1541 -0.1036 -0.1259
 5991SOL    HW118872   1.616   3.613   4.205 -0.8221 -2.2325 -1.3656
 5991SOL    HW218873   1.750   3.520   4.218  2.1466  2.0353  1.7250
 5992SOL     OW18874   0.392   2.680   5.092  0.1081  0.1566  0.2247
 5992SOL    HW118875   0.339   2.687   5.008  1.6397 -0.2614 -0.8093
 5992SOL    HW218876   0.446   2.596   5.092  1.8009  1.1865  0.6001
 5993SOL     OW18877   1.603   3.397   2.688  0.0839 -0.1429 -0.0964
 5993SOL    HW118878   1.648   3.429   2.771 -2.9590  0.9797  1.2660
 5993SOL    HW218879   1.630   3.456   2.611 -0.3179  1.6126  1.0385
 5994SOL     OW18880   5.450   1.510   3.249 -0.6466 -0.9678  0.5437
 5994SOL    HW118881   5.482   1.599   3.218  0.2249 -0.6238  2.3208
 5994SOL    HW218882   5.351   1.504   3.236 -0.7825  0.4301  0.7629
 5995SOL     OW18883   1.950   1.071   6.143  0.0854 -0.0741  0.1747
 5995SOL    HW118884   1.990   1.146   6.091  0.3486 -0.3046  0.0401
 5995SOL    HW218885   1.983   0.984   6.107 -0.5988 -0.2725  0.0163
 5996SOL     OW18886   6.212   4.528   3.253  0.3242 -0.3417 -0.1685
 5996SOL    HW118887   6.260   4.440   3.251  3.3079  1.1732 -1.5676
 5996SOL    HW218888   6.247   4.583   3.329 -0.8108  0.0346  0.0992
 5997SOL     OW18889   1.498   6.996   4.867 -0.6844 -0.9939  0.4338
 5997SOL    HW118890   1.562   7.063   4.905 -0.4358 -1.3788  0.6968
 5997SOL    HW218891   1.542   6.907   4.861 -0.7606 -0.9738 -0.6513
 5998SOL     OW18892   5.543   4.339   6.678  0.4972  0.0641  0.5009
 5998SOL    HW118893   5.500   4.345   6.768  0.3743  1.3294  0.3762
 5998SOL    HW218894   5.502   4.263   6.627 -1.6869  1.2743  0.3598
 5999SOL     OW18895   2.605   6.750   3.396  0.0522 -0.3288  0.4015
 5999SOL    HW118896   2.540   6.689   3.350  0.6181  2.1315 -4.2318
 5999SOL    HW218897   2.556   6.827   3.437 -0.2436 -1.1166  1.5805
 6000SOL     OW18898   5.737   2.780   4.456 -0.3685  0.3118  0.3698
 6000SOL    HW118899   5.777   2.870   4.437 -1.5775  0.6764 -0.5862
 6000SOL    HW218900   5.785   2.710   4.403 -0.4315  0.6266 -0.1144
 6001SOL     OW18901   2.779   2.050   6.807  0.0681  0.4314 -0.0112
 6001SOL    HW118902   2.734   2.087   6.727  3.8499  0.2020 -2.5037
 6001SOL    HW218903   2.768   1.950   6.809  0.5589  0.3556 -0.7155
 6002SOL     OW18904   6.095   4.543   5.718  0.0577 -0.6649 -0.0274
 6002SOL    HW118905   6.032   4.507   5.649 -1.6596 -0.1556  1.2331
 6002SOL    HW218906   6.078   4.640   5.732  0.6640 -0.6677  0.8136
 6003SOL     OW18907   1.686   1.220   4.190  0.3169  0.3477 -0.3181
 6003SOL    HW118908   1.697   1.144   4.126 -0.1766 -1.4243  1.6006
 6003SOL    HW218909   1.744   1.297   4.161  2.1569 -1.3650 -1.3968
 6004SOL     OW18910   5.398   2.104   3.431 -0.1208  0.3313  0.0506
 6004SOL    HW118911   5.395   2.200   3.403  1.0039  0.4813  0.3536
 6004SOL    HW218912   5.341   2.091   3.512  0.6144  1.0114  0.6937
 6005SOL     OW18913   5.631   0.168   3.908  0.1294  0.7379 -0.1284
 6005SOL    HW118914   5.606   0.124   3.994 -0.2625  0.5418 -0.3425
 6005SOL    HW218915   5.729   0.154   3.891  0.0751  0.2368 -0.0307
 6006SOL     OW18916   4.363   4.835   1.647 -0.3141 -0.3663  0.2019
 6006SOL    HW118917   4.452   4.798   1.673 -0.0319 -0.3412 -0.6930
 6006SOL    HW218918   4.291   4.775   1.681 -0.2255  1.5192  4.3381
 6007SOL     OW18919   1.448   3.260   4.825 -0.5457  0.1127  0.5042
 6007SOL    HW118920   1.506   3.273   4.745 -2.0586  0.8721 -0.5110
 6007SOL    HW218921   1.491   3.195   4.887  0.7915 -0.2814 -0.7888
 6008SOL     OW18922   0.579   1.737   6.586  0.2282 -0.2124  0.5239
 6008SOL    HW118923   0.517   1.659   6.589 -1.4198  1.0550  0.5785
 6008SOL    HW218924   0.626   1.739   6.497  1.0935 -1.8129  0.9047
 6009SOL     OW18925   4.122   6.276   6.913  0.5348  0.3395 -0.3479
 6009SOL    HW118926   4.066   6.359   6.905 -1.3946 -0.8594  0.0666
 6009SOL    HW218927   4.183   6.270   6.834  1.6402  2.7520  0.2172
 6010SOL     OW18928   5.024   1.904   6.382 -0.0776  0.0613  0.6990
 6010SOL    HW118929   4.929   1.886   6.407 -0.3454  0.9421  0.3570
 6010SOL    HW218930   5.037   2.002   6.370  0.1895 -0.2152 -1.8845
 6011SOL     OW18931   4.535   1.717   5.058  0.3885  0.2765 -0.3279
 6011SOL    HW118932   4.604   1.746   4.992 -0.1615  2.5742  0.0253
 6011SOL    HW218933   4.450   1.695   5.010  0.8719 -1.0495 -0.6191
 6012SOL     OW18934   2.316   4.430   4.177  0.1710 -0.2451  0.0200
 6012SOL    HW118935   2.316   4.408   4.275 -1.3398 -1.3202 -0.1811
 6012SOL    HW218936   2.275   4.354   4.127  1.0421  0.2432 -1.4790
 6013SOL     OW18937   5.410   1.629   0.319 -0.0496  0.2916 -0.1970
 6013SOL    HW118938   5.339   1.559   0.314  0.2450 -0.1498  1.1696
 6013SOL    HW218939   5.398   1.695   0.245 -1.3955 -0.2223 -0.4677
 6014SOL     OW18940   6.544   4.699   4.543 -0.1735 -0.1286 -0.2128
 6014SOL    HW118941   6.494   4.612   4.535 -1.3359  0.5173 -0.0823
 6014SOL    HW218942   6.635   4.681   4.581 -0.6523 -1.2057  0.4653
 6015SOL     OW18943   0.334   6.038   5.605  0.7752 -0.0586 -0.4124
 6015SOL    HW118944   0.422   6.071   5.640  1.5959 -1.3101 -1.2203
 6015SOL    HW218945   0.268   6.034   5.679  1.4328  0.7785  0.2384
 6016SOL     OW18946   1.338   3.126   0.448 -0.5107 -0.3894 -0.5930
 6016SOL    HW118947   1.351   3.102   0.544  1.7955 -1.1780 -1.0231
 6016SOL    HW218948   1.293   3.051   0.400  0.3499 -0.9698 -0.5296
 6017SOL     OW18949   6.807   4.024   0.849  0.9878 -0.1532  0.0100
 6017SOL    HW118950   6.803   3.964   0.929  1.6085 -0.8993 -0.5120
 6017SOL    HW218951   6.771   3.976   0.769  2.8785 -0.3943 -0.7357
 6018SOL     OW18952   5.121   2.261   2.405  0.1636  0.9764  0.5017
 6018SOL    HW118953   5.218   2.285   2.410  0.7002 -0.7196 -0.7451
 6018SOL    HW218954   5.071   2.311   2.475  1.8423  2.2954  0.8354
 6019SOL     OW18955   3.156   4.897   4.006 -0.2193  0.3304  0.0815
 6019SOL    HW118956   3.077   4.881   4.064  0.7759  0.5231  1.5344
 6019SOL    HW218957   3.196   4.987   4.027  0.5553  0.1158 -0.4029
 6020SOL     OW18958   1.823   5.870   4.088 -0.3103 -0.8845 -0.1067
 6020SOL    HW118959   1.737   5.838   4.047 -1.0989  1.6064 -0.6234
 6020SOL    HW218960   1.814   5.967   4.111  2.6111 -0.3236 -0.8662
 6021SOL     OW18961   2.844   1.700   4.408 -0.0077 -0.2006  0.5970
 6021SOL    HW118962   2.872   1.783   4.361 -0.6854  0.7143  1.7427
 6021SOL    HW218963   2.747   1.682   4.390  0.5134 -1.6728 -0.9439
 6022SOL     OW18964   6.888   0.086   4.280 -0.0805  0.7296  0.4469
 6022SOL    HW118965   6.951   0.099   4.204 -0.5024  2.4142  0.3652
 6022SOL    HW218966   6.903   0.156   4.349 -0.3021 -0.2455  1.5213
 6023SOL     OW18967   5.171   1.613   1.564  0.3887  0.4706 -0.0839
 6023SOL    HW118968   5.138   1.703   1.592 -1.1548  0.1694 -0.8349
 6023SOL    HW218969   5.260   1.595   1.607  0.9924  2.5627 -0.3636
 6024SOL     OW18970   2.025   5.329   1.168  0.1609  0.5252  0.3176
 6024SOL    HW118971   1.931   5.348   1.196  0.3979  1.8726  0.2384
 6024SOL    HW218972   2.073   5.284   1.243 -0.1952  0.9634  0.8157
 6025SOL     OW18973   2.939   3.809   4.589  0.6133  0.5911 -0.5355
 6025SOL    HW118974   2.941   3.710   4.573  0.3951  0.7303 -1.4944
 6025SOL    HW218975   2.852   3.834   4.631  1.1464  0.2315  0.8423
 6026SOL     OW18976   1.431   2.859   2.517  0.7856  0.4797  0.0017
 6026SOL    HW118977   1.526   2.858   2.549  0.7381  3.1274  0.5153
 6026SOL    HW218978   1.371   2.879   2.594  0.1664  2.0520 -0.8490
 6027SOL     OW18979   0.542   5.659   3.083 -0.2101  0.1933  0.1532
 6027SOL    HW118980   0.521   5.738   3.141 -1.8921  0.2208 -0.4223
 6027SOL    HW218981   0.583   5.586   3.139 -1.9643  0.1353  1.4550
 6028SOL     OW18982   5.285   0.892   1.590  0.3786 -0.3322 -0.5084
 6028SOL    HW118983   5.252   0.952   1.663  0.5459  0.1303 -0.8059
 6028SOL    HW218984   5.347   0.824   1.629  1.3348  0.5840 -0.3614
 6029SOL     OW18985   2.257   4.305   6.702 -0.2617  0.4036 -0.3340
 6029SOL    HW118986   2.338   4.310   6.761  0.2282  3.0476 -1.0753
 6029SOL    HW218987   2.193   4.377   6.727 -1.1687  0.0279 -1.4741
 6030SOL     OW18988   4.431   0.489   3.445  0.7057 -0.6365  0.4328
 6030SOL    HW118989   4.514   0.503   3.391 -0.2209  0.9135 -0.6783
 6030SOL    HW218990   4.423   0.562   3.512 -1.6153  1.6020 -2.0272
 6031SOL     OW18991   3.170   0.249   2.286 -0.5121  0.6514  0.1696
 6031SOL    HW118992   3.105   0.271   2.215 -0.4815 -0.7862 -0.3431
 6031SOL    HW218993   3.231   0.176   2.254 -0.2612  0.2352  1.5238
 6032SOL     OW18994   2.248   4.325   4.433  0.5972 -0.6122 -0.0455
 6032SOL    HW118995   2.165   4.304   4.485 -0.1880 -0.6492 -1.2711
 6032SOL    HW218996   2.321   4.351   4.496 -0.6188  0.4054  0.9994
 6033SOL     OW18997   1.689   5.267   5.087  0.3954 -0.5213 -0.1512
 6033SOL    HW118998   1.595   5.302   5.092  0.4190 -0.3006 -1.1588
 6033SOL    HW218999   1.732   5.275   5.177  0.2177  1.5532 -0.1996
 6034SOL     OW19000   3.765   0.586   6.213 -0.0686  0.0434  0.5631
 6034SOL    HW119001   3.720   0.670   6.243 -0.1334  0.1295  0.2341
 6034SOL    HW219002   3.738   0.510   6.272  0.3737  0.3484  1.1587
 6035SOL     OW19003   3.140   5.510   3.546  0.2035 -0.4313 -0.1394
 6035SOL    HW119004   3.226   5.538   3.589  0.4875 -0.7469 -0.4936
 6035SOL    HW219005   3.152   5.422   3.501 -0.7199 -1.2260  1.0874
 6036SOL     OW19006   4.687   0.543   4.208 -0.6325  0.3316  0.0675
 6036SOL    HW119007   4.702   0.457   4.159  1.9538  0.6009  0.2258
 6036SOL    HW219008   4.630   0.526   4.289 -2.6898 -0.6085 -1.4856
 6037SOL     OW19009   6.356   6.296   4.955 -0.6164 -0.4769 -0.0537
 6037SOL    HW119010   6.325   6.367   4.891 -1.3973  0.0447  0.8732
 6037SOL    HW219011   6.455   6.289   4.951 -0.4814  0.9443  0.1107
 6038SOL     OW19012   0.179   2.548   0.983 -0.6390  0.1978 -0.5682
 6038SOL    HW119013   0.133   2.617   0.927 -1.4445 -0.3396 -0.5865
 6038SOL    HW219014   0.179   2.577   1.079 -2.8895 -0.7313 -0.2410
 6039SOL     OW19015   3.593   3.819   2.987  0.0168 -0.4197  0.5314
 6039SOL    HW119016   3.554   3.911   2.996  0.5390  0.0343 -1.3533
 6039SOL    HW219017   3.544   3.756   3.046 -1.7052  0.6837  0.3393
 6040SOL     OW19018   1.118   4.790   2.628  0.4094  0.8217  0.1730
 6040SOL    HW119019   1.170   4.709   2.598 -1.6469  0.1544 -1.8981
 6040SOL    HW219020   1.093   4.779   2.724 -1.1729 -1.8880 -0.4231
 6041SOL     OW19021   0.714   4.314   1.526  0.5534 -0.4050 -0.3173
 6041SOL    HW119022   0.722   4.352   1.434 -1.5650  0.0590 -0.3555
 6041SOL    HW219023   0.621   4.328   1.560  1.6564  0.8011  2.5128
 6042SOL     OW19024   1.741   0.485   2.212  0.3276 -0.1751  0.0667
 6042SOL    HW119025   1.776   0.578   2.198  0.6044 -0.2119  0.5222
 6042SOL    HW219026   1.657   0.474   2.159  0.2714  0.3455  0.0370
 6043SOL     OW19027   3.333   4.143   0.950 -0.0102  0.5811 -0.0550
 6043SOL    HW119028   3.304   4.048   0.932 -2.2763  1.0713  0.6767
 6043SOL    HW219029   3.326   4.196   0.866  0.3705  0.3254 -0.2539
 6044SOL     OW19030   5.276   2.466   3.139  0.5085  0.0463 -0.2415
 6044SOL    HW119031   5.223   2.407   3.199  1.2453 -1.3187 -0.8783
 6044SOL    HW219032   5.317   2.541   3.191 -0.3202 -0.0855  0.6098
 6045SOL     OW19033   1.124   3.533   1.327  0.0132  0.5774 -0.1298
 6045SOL    HW119034   1.184   3.455   1.342  0.1665  0.6375 -0.4271
 6045SOL    HW219035   1.103   3.577   1.414 -0.3320  0.0112  0.0728
 6046SOL     OW19036   3.063   2.305   6.050  0.5673  0.3114 -0.8084
 6046SOL    HW119037   3.110   2.223   6.020 -0.8025 -0.6145 -0.5387
 6046SOL    HW219038   3.002   2.337   5.978 -0.9391 -0.5289  0.0384
 6047SOL     OW19039   6.028   2.150   2.686  0.1238  0.0957 -0.1290
 6047SOL    HW119040   6.109   2.095   2.704  1.6164  1.4504 -2.1430
 6047SOL    HW219041   5.961   2.096   2.635  0.4918 -0.5651  0.0870
 6048SOL     OW19042   1.882   2.999   0.173 -0.1042 -0.1794 -0.2263
 6048SOL    HW119043   1.860   3.036   0.082  0.2590  0.7487  0.0496
 6048SOL    HW219044   1.867   2.901   0.173  0.9854 -0.3804 -1.6383
 6049SOL     OW19045   2.534   0.148   1.129 -0.0942 -0.0300  0.1453
 6049SOL    HW119046   2.601   0.166   1.058  1.4060 -2.1925  0.9163
 6049SOL    HW219047   2.471   0.076   1.099 -1.7615  1.5262 -0.3147
 6050SOL     OW19048   4.586   5.173   3.041  0.3181  0.1813  0.1527
 6050SOL    HW119049   4.499   5.125   3.041  0.8018 -0.7402 -0.2930
 6050SOL    HW219050   4.607   5.203   2.948  0.1227  1.0962  0.3899
 6051SOL     OW19051   3.583   3.414   1.348 -0.0390 -0.4921 -0.3177
 6051SOL    HW119052   3.561   3.379   1.257  1.0011 -0.3203 -0.6520
 6051SOL    HW219053   3.667   3.469   1.343 -1.1990  1.4529  0.3226
 6052SOL     OW19054   2.327   6.405   0.686  0.1430 -0.3571  0.4291
 6052SOL    HW119055   2.370   6.493   0.670 -1.0600 -0.2389 -3.0121
 6052SOL    HW219056   2.383   6.332   0.645 -1.8760 -0.3641 -2.6418
 6053SOL     OW19057   6.228   0.851   3.500  0.5533 -0.6811  0.4084
 6053SOL    HW119058   6.165   0.928   3.507  1.6323  0.3724 -0.9997
 6053SOL    HW219059   6.301   0.873   3.436  1.9563 -2.1622  1.4205
 6054SOL     OW19060   6.666   6.738   3.332  0.3948 -0.1953 -0.4610
 6054SOL    HW119061   6.572   6.712   3.312 -0.9120  3.6428  0.0002
 6054SOL    HW219062   6.711   6.769   3.248  0.8021 -0.7042 -0.4360
 6055SOL     OW19063   1.719   3.872   3.216  0.5512 -0.2150 -0.1843
 6055SOL    HW119064   1.677   3.783   3.232 -0.2463  0.2847  0.6264
 6055SOL    HW219065   1.674   3.917   3.138 -1.4260  0.8814  1.4990
 6056SOL     OW19066   4.645   3.222   5.772  0.7845  0.2096  1.2018
 6056SOL    HW119067   4.577   3.190   5.707 -1.6345  3.9757  1.5241
 6056SOL    HW219068   4.735   3.223   5.729  0.1808 -2.1765 -0.2614
 6057SOL     OW19069   0.914   3.043   5.919 -0.2099  0.0618  0.1333
 6057SOL    HW119070   0.878   2.995   5.840  1.9947 -1.9184  0.2208
 6057SOL    HW219071   0.875   3.005   6.003 -1.1737  0.9378  0.1078
 6058SOL     OW19072   6.907   4.859   1.742  0.3001 -0.4443 -0.1541
 6058SOL    HW119073   6.850   4.815   1.673 -1.2203  1.3026 -0.0866
 6058SOL    HW219074   6.947   4.789   1.802 -0.6093 -1.8086 -1.0907
 6059SOL     OW19075   5.939   4.185   3.878 -0.3096 -0.1519  0.5765
 6059SOL    HW119076   5.903   4.179   3.785 -0.2594  0.1257  0.5396
 6059SOL    HW219077   5.913   4.103   3.929  2.7298 -2.1156 -0.7571
 6060SOL     OW19078   3.090   3.866   1.998  0.2428 -1.0138 -0.0056
 6060SOL    HW119079   3.140   3.924   2.062 -1.4300  1.0900 -0.4925
 6060SOL    HW219080   3.085   3.773   2.035  1.5276 -0.4765  1.6499
 6061SOL     OW19081   5.242   2.891   3.679 -0.5320 -0.1752  0.5418
 6061SOL    HW119082   5.150   2.930   3.672 -0.1086  0.7973  0.1927
 6061SOL    HW219083   5.291   2.934   3.755  0.1414  0.4264 -0.2046
 6062SOL     OW19084   0.277   1.066   2.843  0.4990  0.4411 -0.0845
 6062SOL    HW119085   0.240   1.083   2.752 -0.9632 -0.3990  0.3165
 6062SOL    HW219086   0.211   1.014   2.897 -0.1338  3.6652  2.5597
 6063SOL     OW19087   5.205   4.083   4.660 -0.4930  0.6152 -0.3241
 6063SOL    HW119088   5.168   4.027   4.734  0.3558 -0.0963 -0.4239
 6063SOL    HW219089   5.303   4.095   4.673 -0.4349  0.9624 -1.0320
 6064SOL     OW19090   0.650   2.371   4.651  0.0864  0.0534  0.0412
 6064SOL    HW119091   0.612   2.295   4.598 -0.7729  0.1012  0.5763
 6064SOL    HW219092   0.680   2.337   4.740 -1.7242  0.5817  0.8996
 6065SOL     OW19093   2.480   0.520   3.239  0.5053  0.1268 -0.2590
 6065SOL    HW119094   2.507   0.592   3.302  1.3011  0.6157 -1.1391
 6065SOL    HW219095   2.498   0.548   3.145  1.2093 -1.3647 -0.6048
 6066SOL     OW19096   4.770   1.781   6.456  0.2317 -0.1939 -0.2962
 6066SOL    HW119097   4.793   1.711   6.388 -1.0145  0.4897 -1.4618
 6066SOL    HW219098   4.709   1.741   6.525  0.4875 -0.5652 -0.2787
 6067SOL     OW19099   4.303   0.835   3.851 -0.6687  0.0514 -0.1577
 6067SOL    HW119100   4.246   0.906   3.892 -1.4027  0.4715 -1.8265
 6067SOL    HW219101   4.372   0.805   3.917 -3.6177 -1.4705  2.4990
 6068SOL     OW19102   4.978   0.669   0.717 -0.5617 -0.4131  0.2201
 6068SOL    HW119103   4.935   0.744   0.667 -1.6156 -1.3976 -0.3996
 6068SOL    HW219104   5.065   0.646   0.675  1.6439  2.7710  2.5160
 6069SOL     OW19105   1.808   1.842   5.093  0.0979 -0.1530 -0.5249
 6069SOL    HW119106   1.799   1.940   5.113  0.5684  0.5335 -3.2378
 6069SOL    HW219107   1.896   1.808   5.127  1.8020  1.4524 -2.9581
 6070SOL     OW19108   2.440   5.167   6.783  0.1906 -0.1702 -0.1978
 6070SOL    HW119109   2.498   5.104   6.731  0.1828 -0.3754  0.0384
 6070SOL    HW219110   2.350   5.174   6.740 -0.5770 -2.0569  0.9995
 6071SOL     OW19111   0.140   4.609   3.207 -0.3144  0.2336 -0.1118
 6071SOL    HW119112   0.067   4.632   3.272  0.4832  1.8210  0.2937
 6071SOL    HW219113   0.222   4.661   3.231  1.5073 -2.6614  0.4113
 6072SOL     OW19114   1.222   2.966   4.457  0.3341 -0.5334 -0.3533
 6072SOL    HW119115   1.187   2.900   4.525 -0.4368 -0.5106 -0.7110
 6072SOL    HW219116   1.161   2.966   4.378  2.3105 -2.0842 -1.9808
 6073SOL     OW19117   0.329   6.524   5.201  0.0965  0.4671  0.5052
 6073SOL    HW119118   0.268   6.470   5.143  0.5727  1.6940 -1.2420
 6073SOL    HW219119   0.282   6.549   5.286 -0.6438 -1.3458  0.6654
 6074SOL     OW19120   5.034   1.121   5.213  0.4353 -0.7658 -0.0649
 6074SOL    HW119121   4.966   1.096   5.282 -0.0769 -0.6241 -0.5142
 6074SOL    HW219122   5.031   1.056   5.137  0.6942 -0.6684 -0.1595
 6075SOL     OW19123   0.657   2.915   5.503  0.4994 -0.4362 -0.1307
 6075SOL    HW119124   0.654   2.925   5.404 -1.7737  2.0078  0.0629
 6075SOL    HW219125   0.585   2.971   5.544  1.4739 -1.2345  2.9343
 6076SOL     OW19126   0.226   4.482   0.119 -0.2491 -0.4087 -0.2437
 6076SOL    HW119127   0.270   4.392   0.116 -1.2758 -0.9913  1.3572
 6076SOL    HW219128   0.139   4.475   0.167 -0.6653  1.3234 -0.7010
 6077SOL     OW19129   4.755   3.079   0.888  0.1231 -0.2059 -0.0531
 6077SOL    HW119130   4.719   3.099   0.797 -2.3631  0.2576  0.9425
 6077SOL    HW219131   4.819   3.151   0.915  0.4121 -0.0260 -1.1799
 6078SOL     OW19132   3.954   5.142   6.498  0.1096 -0.9923  0.2838
 6078SOL    HW119133   3.924   5.142   6.594 -1.7295  1.6001 -0.1913
 6078SOL    HW219134   3.878   5.113   6.440  0.0748  0.7280 -0.5924
 6079SOL     OW19135   6.384   6.376   5.335  0.1884 -0.7815 -0.5989
 6079SOL    HW119136   6.343   6.393   5.425  2.8765 -0.1434  0.5858
 6079SOL    HW219137   6.328   6.421   5.265 -2.0950 -1.4827  0.6698
 6080SOL     OW19138   5.103   6.416   2.679  0.8234  0.1121 -0.1598
 6080SOL    HW119139   5.057   6.476   2.614 -1.4760 -1.0372  0.2958
 6080SOL    HW219140   5.090   6.451   2.771 -0.6421 -1.0639  0.1202
 6081SOL     OW19141   2.861   2.196   3.431 -0.2614 -0.1117 -0.1760
 6081SOL    HW119142   2.952   2.156   3.448 -1.2907 -1.9703  1.4153
 6081SOL    HW219143   2.801   2.126   3.393 -1.5976  0.4832  0.7833
 6082SOL     OW19144   4.645   5.801   5.153 -1.1322 -0.2102  0.4836
 6082SOL    HW119145   4.617   5.768   5.063 -0.5827  0.3872  0.0860
 6082SOL    HW219146   4.687   5.725   5.204 -1.0773 -0.4489  0.0884
 6083SOL     OW19147   3.645   5.132   1.940  0.1721  0.1814  0.5213
 6083SOL    HW119148   3.661   5.170   2.031  0.8607 -2.6373  1.6517
 6083SOL    HW219149   3.729   5.140   1.886  0.0509  0.9849  0.4350
 6084SOL     OW19150   4.915   2.131   6.619  0.0054  0.4212 -1.1615
 6084SOL    HW119151   4.827   2.143   6.664  0.7069  2.4182 -0.1682
 6084SOL    HW219152   4.903   2.081   6.534 -2.0017  0.2581 -0.8251
 6085SOL     OW19153   4.932   1.378   3.874  0.0610  0.3425  0.0841
 6085SOL    HW119154   4.874   1.345   3.799  1.3354 -0.3249 -0.6344
 6085SOL    HW219155   4.889   1.458   3.916 -1.8325 -0.6684  0.1875
 6086SOL     OW19156   6.940   2.573   4.458  0.3289 -0.3061  0.2515
 6086SOL    HW119157   7.007   2.641   4.427  0.5911 -0.5578  0.2636
 6086SOL    HW219158   6.964   2.483   4.419 -1.5079  0.0694 -1.9614
 6087SOL     OW19159   6.718   5.832   3.346 -0.2869  0.2604 -0.5847
 6087SOL    HW119160   6.722   5.931   3.358  0.5966  0.0213  1.4644
 6087SOL    HW219161   6.783   5.804   3.276  1.1693  0.9210  0.4730
 6088SOL     OW19162   6.918   1.913   0.582  0.1046  0.3994 -0.1912
 6088SOL    HW119163   7.013   1.911   0.552 -0.2789  0.3747 -1.4864
 6088SOL    HW219164   6.861   1.862   0.516 -0.3831 -2.5321  2.2863
 6089SOL     OW19165   1.095   1.344   4.863 -0.0856  0.3262 -0.2722
 6089SOL    HW119166   1.105   1.443   4.869  1.8351  0.2297 -1.2070
 6089SOL    HW219167   1.117   1.314   4.771 -0.9009 -0.9546 -0.0693
 6090SOL     OW19168   6.657   4.825   2.092 -0.2561  0.5034  0.5316
 6090SOL    HW119169   6.735   4.867   2.137  0.1111  0.9561 -0.4927
 6090SOL    HW219170   6.687   4.745   2.040 -0.6266  0.1526  0.8494
 6091SOL     OW19171   0.646   3.451   4.695  0.3220 -0.2279 -0.1594
 6091SOL    HW119172   0.626   3.499   4.610 -0.0659 -1.1083 -0.5746
 6091SOL    HW219173   0.629   3.512   4.772  1.2115  0.7597 -0.7193
 6092SOL     OW19174   5.042   5.376   6.384 -0.3099  0.1347 -0.9527
 6092SOL    HW119175   4.997   5.292   6.355  0.7352 -0.1532 -1.8370
 6092SOL    HW219176   5.019   5.450   6.320 -1.4845  0.6249  0.0036
 6093SOL     OW19177   4.367   6.556   6.258 -0.1275 -0.1180 -0.0254
 6093SOL    HW119178   4.344   6.605   6.174  0.0720  1.4591  0.7982
 6093SOL    HW219179   4.454   6.509   6.247 -0.1544 -0.0146 -0.7208
 6094SOL     OW19180   5.385   6.580   6.890  0.2078 -0.1367  0.0346
 6094SOL    HW119181   5.426   6.654   6.944  0.0779  0.3874 -0.5678
 6094SOL    HW219182   5.425   6.492   6.918 -0.2908  0.0474  1.3878
 6095SOL     OW19183   0.230   5.842   2.453  0.1928 -0.0753  0.5243
 6095SOL    HW119184   0.309   5.891   2.488  1.4892 -1.6303 -0.1144
 6095SOL    HW219185   0.260   5.760   2.403 -1.7997 -0.5550  0.0071
 6096SOL     OW19186   1.605   3.187   1.852  0.0825 -0.4706 -0.0776
 6096SOL    HW119187   1.562   3.132   1.924 -0.3796 -1.4129 -1.0503
 6096SOL    HW219188   1.619   3.131   1.771  1.3757  0.3535 -0.4579
 6097SOL     OW19189   0.966   5.511   4.616  0.1202 -0.5059 -0.8117
 6097SOL    HW119190   0.925   5.601   4.599  1.5157 -0.1028 -2.3713
 6097SOL    HW219191   1.066   5.518   4.605  0.3148 -2.1067 -0.2464
 6098SOL     OW19192   2.889   0.853   6.016  0.4519  0.6749  0.4805
 6098SOL    HW119193   2.828   0.849   5.937  0.5824 -0.0477  0.4096
 6098SOL    HW219194   2.984   0.864   5.985  0.5509 -0.0656  0.5171
 6099SOL     OW19195   5.829   1.224   4.084  0.0070 -0.0968 -0.4675
 6099SOL    HW119196   5.868   1.316   4.093  0.3642 -0.3369  0.5772
 6099SOL    HW219197   5.780   1.217   3.997 -2.0318  1.8477  0.4011
 6100SOL     OW19198   1.185   1.172   5.046  0.4841  0.2757  0.5571
 6100SOL    HW119199   1.091   1.139   5.059  0.9426 -0.2859  2.8365
 6100SOL    HW219200   1.188   1.231   4.966 -1.4265 -1.1468 -0.6803
 6101SOL     OW19201   2.926   3.582   5.065  0.2766  0.6619  0.6614
 6101SOL    HW119202   2.869   3.520   5.120 -1.5996  0.7350 -1.0848
 6101SOL    HW219203   2.923   3.674   5.104 -2.1520  1.0275 -0.2190
 6102SOL     OW19204   0.864   2.261   3.234  0.0842  0.1997 -0.0299
 6102SOL    HW119205   0.957   2.238   3.203 -0.3694 -0.8764 -0.6279
 6102SOL    HW219206   0.840   2.203   3.312 -1.1824 -1.6977 -1.7362
 6103SOL     OW19207   5.868   6.579   6.942 -0.0512 -0.7488 -0.1157
 6103SOL    HW119208   5.780   6.549   6.980 -0.0839 -0.3173  0.1665
 6103SOL    HW219209   5.852   6.651   6.874  0.1510  0.3752  0.9862
 6104SOL     OW19210   1.687   4.404   0.862  0.0402 -0.2488 -0.8905
 6104SOL    HW119211   1.645   4.400   0.953  0.6736 -0.2179 -0.5881
 6104SOL    HW219212   1.628   4.456   0.800  0.4319  1.3267 -0.0087
 6105SOL     OW19213   0.034   0.532   1.480 -0.0102  0.7332 -0.2405
 6105SOL    HW119214   0.023   0.512   1.383 -0.4259  1.1029 -0.2751
 6105SOL    HW219215  -0.026   0.472   1.534  0.7031  0.0765 -0.1629
 6106SOL     OW19216   6.778   2.640   2.112 -0.2749  0.2646 -0.3060
 6106SOL    HW119217   6.820   2.715   2.163 -1.0240  0.8555 -0.5308
 6106SOL    HW219218   6.738   2.676   2.027  1.1569 -0.7331 -1.4590
 6107SOL     OW19219   5.416   4.138   5.312 -0.4244 -0.1275  0.4977
 6107SOL    HW119220   5.336   4.152   5.370 -0.0394 -0.8155  1.2195
 6107SOL    HW219221   5.485   4.085   5.362  0.5875  0.6532 -0.0109
 6108SOL     OW19222   0.852   5.588   4.160  0.1748  0.5203  0.0433
 6108SOL    HW119223   0.772   5.631   4.200  0.2995 -0.1637  1.0577
 6108SOL    HW219224   0.828   5.497   4.127  0.9587 -0.5748  2.2813
 6109SOL     OW19225   6.322   4.041   5.470  0.3934 -0.3264  0.3041
 6109SOL    HW119226   6.400   4.030   5.531 -0.6210  0.0877  1.7206
 6109SOL    HW219227   6.323   4.133   5.430 -0.4682  0.4311  1.9517
 6110SOL     OW19228   5.243   0.863   5.963 -0.6002 -0.1242 -0.3328
 6110SOL    HW119229   5.241   0.947   6.018 -1.6182 -0.4097  0.0921
 6110SOL    HW219230   5.336   0.848   5.929 -0.5240  1.4813 -0.9086
 6111SOL     OW19231   6.347   3.880   5.211 -0.4817  0.5313 -0.0852
 6111SOL    HW119232   6.432   3.932   5.216 -0.6347  0.6826  1.6199
 6111SOL    HW219233   6.309   3.868   5.303 -1.2593 -1.2722 -0.5785
 6112SOL     OW19234   1.927   6.305   6.706  0.3573  0.1548 -0.0486
 6112SOL    HW119235   1.894   6.222   6.750  1.9397  0.2569  1.4370
 6112SOL    HW219236   1.975   6.280   6.621 -0.3705 -0.2944 -0.3399
 6113SOL     OW19237   4.679   1.627   4.537 -0.2048  0.1024 -0.0198
 6113SOL    HW119238   4.622   1.708   4.525 -0.8881 -0.5211 -1.1216
 6113SOL    HW219239   4.753   1.628   4.470 -1.0521 -0.8783 -0.9920
 6114SOL     OW19240   0.528   5.884   6.768 -0.2841  0.0615  0.1147
 6114SOL    HW119241   0.434   5.914   6.782 -0.1547  0.0689  1.0284
 6114SOL    HW219242   0.539   5.851   6.674 -1.4306 -0.7751  0.2591
 6115SOL     OW19243   3.382   0.317   1.683 -0.4862  0.1169 -0.0615
 6115SOL    HW119244   3.476   0.340   1.709  0.1424 -0.8059 -1.4447
 6115SOL    HW219245   3.383   0.254   1.606 -2.2486 -0.7433  0.5818
 6116SOL     OW19246   1.929   1.360   2.797  0.1270  0.4849  0.0903
 6116SOL    HW119247   1.930   1.272   2.846  2.0446  0.2067 -0.3722
 6116SOL    HW219248   1.989   1.425   2.843 -0.2873  1.1599 -0.2996
 6117SOL     OW19249   0.552   2.488   2.783  0.5602  1.1244 -0.0486
 6117SOL    HW119250   0.534   2.547   2.704 -0.3935  0.0888 -0.6292
 6117SOL    HW219251   0.613   2.414   2.756 -1.5890 -0.5901 -0.5049
 6118SOL     OW19252   3.807   1.080   1.235 -0.1740 -0.1559  0.8086
 6118SOL    HW119253   3.874   1.104   1.306  2.5678 -1.5647 -1.1262
 6118SOL    HW219254   3.732   1.147   1.236  3.0026  3.7815  0.8470
 6119SOL     OW19255   6.815   5.205   0.911  0.0161 -0.1784 -0.4030
 6119SOL    HW119256   6.771   5.173   0.995  1.3792 -0.2913  0.2894
 6119SOL    HW219257   6.834   5.303   0.920  2.7418 -0.7233  0.6557
 6120SOL     OW19258   6.704   6.417   0.656  0.3221 -0.0452  0.6441
 6120SOL    HW119259   6.605   6.432   0.652  0.1376 -0.6358  2.3636
 6120SOL    HW219260   6.722   6.321   0.675  1.2836 -0.2173 -0.9661
 6121SOL     OW19261   5.954   6.424   6.387  0.4467  0.4575  0.6034
 6121SOL    HW119262   5.938   6.506   6.333 -1.9105  0.2273  0.8516
 6121SOL    HW219263   5.956   6.448   6.484  0.9427  0.3532  0.6258
 6122SOL     OW19264   2.022   1.657   3.607  0.6146 -0.3884 -0.2031
 6122SOL    HW119265   1.980   1.731   3.659  0.6620 -0.9124  0.6151
 6122SOL    HW219266   2.053   1.691   3.519  0.1339  0.4298 -0.0695
 6123SOL     OW19267   5.913   2.108   0.842 -0.3607 -0.0649 -0.2736
 6123SOL    HW119268   5.907   2.017   0.883  1.1304  0.6504  1.6948
 6123SOL    HW219269   6.001   2.118   0.796 -0.4830  0.3942 -0.4121
 6124SOL     OW19270   0.600   0.573   5.448  0.1069 -0.3123  0.0347
 6124SOL    HW119271   0.621   0.662   5.490 -1.1892 -0.1293  0.3304
 6124SOL    HW219272   0.594   0.503   5.519  0.0893 -0.4313 -0.0846
 6125SOL     OW19273   1.543   0.114   5.877  0.1316 -0.5669  0.3130
 6125SOL    HW119274   1.451   0.151   5.868 -0.0531 -1.4417 -2.7830
 6125SOL    HW219275   1.538   0.014   5.878  1.0233 -0.6281 -0.1261
 6126SOL     OW19276   5.324   5.682   4.126 -0.1603  0.2221 -0.1814
 6126SOL    HW119277   5.230   5.687   4.159 -0.2137  1.3491 -0.4597
 6126SOL    HW219278   5.387   5.714   4.197 -0.1551  1.2303 -0.6163
 6127SOL     OW19279   6.251   4.338   5.823  0.1995 -0.2245  0.0244
 6127SOL    HW119280   6.196   4.414   5.790 -0.1974 -0.4860  0.0789
 6127SOL    HW219281   6.292   4.362   5.911  1.6985  0.6806 -0.8736
 6128SOL     OW19282   6.631   1.568   2.081  0.4724 -0.5610  0.2490
 6128SOL    HW119283   6.571   1.538   2.155  0.5609  0.1934  0.6310
 6128SOL    HW219284   6.663   1.661   2.099 -0.2740  0.0107 -1.2025
 6129SOL     OW19285   3.542   5.703   0.218  0.1298 -0.6413  0.1895
 6129SOL    HW119286   3.573   5.638   0.148  0.1677 -1.4718  0.9545
 6129SOL    HW219287   3.445   5.724   0.202  0.2651 -0.4241 -0.3989
 6130SOL     OW19288   5.867   2.324   5.009  0.1801 -0.4954  0.6943
 6130SOL    HW119289   5.945   2.384   5.020  0.9554 -1.5398  0.9983
 6130SOL    HW219290   5.791   2.356   5.066 -0.1618  1.3642 -0.6915
 6131SOL     OW19291   2.175   3.204   6.052 -0.7281  0.1889 -0.2230
 6131SOL    HW119292   2.241   3.259   6.001 -1.5010  0.5146 -0.8863
 6131SOL    HW219293   2.215   3.180   6.141  0.5347 -0.1884 -0.8642
 6132SOL     OW19294   0.941   4.138   2.602 -0.1943  0.4557  0.4772
 6132SOL    HW119295   1.022   4.178   2.560  0.3505  0.4875  1.5245
 6132SOL    HW219296   0.912   4.058   2.550  0.9350  0.0322  0.4755
 6133SOL     OW19297   5.898   1.947   2.303  0.5352  0.3477 -0.5115
 6133SOL    HW119298   5.889   1.971   2.400  1.7938 -1.2367  0.0419
 6133SOL    HW219299   5.821   1.891   2.274  0.4872  0.2800 -0.2490
 6134SOL     OW19300   6.238   6.911   6.219  0.6319 -0.2007 -0.2769
 6134SOL    HW119301   6.185   6.991   6.248  1.2977 -0.4543  1.8355
 6134SOL    HW219302   6.327   6.942   6.183 -0.1958  0.1199 -2.1567
 6135SOL     OW19303   5.918   7.008   0.246 -0.6059  0.2429  0.0268
 6135SOL    HW119304   6.004   6.991   0.197 -0.0782  0.0797  0.9861
 6135SOL    HW219305   5.841   6.981   0.188  0.0011 -0.0577 -0.6626
 6136SOL     OW19306   5.859   0.774   1.443 -0.1030 -1.1045  0.2494
 6136SOL    HW119307   5.956   0.757   1.460 -0.1744 -1.6280  0.1311
 6136SOL    HW219308   5.808   0.689   1.449 -0.6758 -0.7209  1.0703
 6137SOL     OW19309   1.455   3.057   2.107  0.0356 -0.0445  0.3883
 6137SOL    HW119310   1.400   3.134   2.137  0.5077  0.0604  1.0133
 6137SOL    HW219311   1.542   3.056   2.157 -0.6201 -1.9177  1.6009
 6138SOL     OW19312   1.286   3.288   2.194  0.3874 -0.1917 -0.0467
 6138SOL    HW119313   1.262   3.302   2.290  0.0344 -0.8380 -0.0384
 6138SOL    HW219314   1.347   3.362   2.164  1.1431 -0.4156  0.8886
 6139SOL     OW19315   5.260   1.803   4.385 -0.2940 -0.2419 -0.3112
 6139SOL    HW119316   5.222   1.713   4.365  0.5786 -0.8538  0.7211
 6139SOL    HW219317   5.208   1.845   4.459  1.3474 -1.3515  1.5524
 6140SOL     OW19318   6.681   5.651   0.435  0.1706  0.2341  0.1281
 6140SOL    HW119319   6.627   5.590   0.378 -0.0104  0.1643  0.3730
 6140SOL    HW219320   6.776   5.653   0.402  0.2286 -0.3532  0.2525
 6141SOL     OW19321   2.727   6.847   5.469  0.0791  0.4564 -0.2786
 6141SOL    HW119322   2.817   6.860   5.428 -0.0447 -0.8041 -1.0028
 6141SOL    HW219323   2.725   6.760   5.518 -0.7556  0.4559 -0.3011
 6142SOL     OW19324   2.987   5.617   0.732  0.4321 -0.1719  0.2481
 6142SOL    HW119325   3.067   5.649   0.683  0.8464  1.1084  1.6733
 6142SOL    HW219326   2.906   5.627   0.675  1.1283 -0.4917 -0.8220
 6143SOL     OW19327   5.444   1.288   0.724 -0.0853  0.3279  0.1761
 6143SOL    HW119328   5.484   1.378   0.745 -0.5443  0.6525 -0.3368
 6143SOL    HW219329   5.437   1.276   0.625  1.7613 -1.0698  0.1568
 6144SOL     OW19330   0.466   6.866   1.023 -0.4715  0.1048  0.1691
 6144SOL    HW119331   0.501   6.837   0.934 -0.6197  1.7601 -0.4669
 6144SOL    HW219332   0.401   6.798   1.057  0.3108 -1.0145 -0.5322
 6145SOL     OW19333   0.447   3.536   2.683  0.2779 -0.5102 -0.3364
 6145SOL    HW119334   0.477   3.626   2.716  1.9631 -0.0861 -2.7845
 6145SOL    HW219335   0.350   3.539   2.661  0.1259  0.4504  0.4063
 6146SOL     OW19336   0.235   5.911   0.397  0.4545  0.2238 -0.1666
 6146SOL    HW119337   0.157   5.970   0.379 -1.1928 -2.0930 -1.0590
 6146SOL    HW219338   0.284   5.893   0.312 -0.0902 -1.0224 -0.2391
 6147SOL     OW19339   2.583   1.996   2.059  0.0346 -0.5869  0.7395
 6147SOL    HW119340   2.590   2.007   2.158  2.6825 -3.1840  0.9914
 6147SOL    HW219341   2.601   1.901   2.035 -0.2797  0.0312 -2.2811
 6148SOL     OW19342   0.507   3.119   3.983  0.3491 -0.4891 -0.0148
 6148SOL    HW119343   0.463   3.110   3.894  0.0425 -0.8767  0.1756
 6148SOL    HW219344   0.583   3.183   3.976  0.8727 -1.1678 -0.7664
 6149SOL     OW19345   3.375   2.985   1.703 -0.5367 -0.0881 -0.6319
 6149SOL    HW119346   3.298   3.029   1.749  0.5155  0.4483  0.6498
 6149SOL    HW219347   3.450   2.972   1.767  2.0831  3.2180 -2.7399
 6150SOL     OW19348   0.933   1.208   6.264  0.0667  0.9110 -0.0784
 6150SOL    HW119349   1.000   1.236   6.195 -0.5335  1.0243 -0.6275
 6150SOL    HW219350   0.920   1.109   6.259  0.8321  0.7686  0.6203
 6151SOL     OW19351   6.065   5.502   3.552 -0.3245  0.4698  0.1264
 6151SOL    HW119352   6.125   5.579   3.533 -1.1295  1.2589  0.6996
 6151SOL    HW219353   6.032   5.508   3.647 -1.3862  0.1292 -0.2098
 6152SOL     OW19354   2.691   0.949   3.757  0.1278  0.0774  0.1156
 6152SOL    HW119355   2.638   1.021   3.711 -2.8037 -2.1768 -0.3629
 6152SOL    HW219356   2.724   0.983   3.845 -1.1073  2.0290 -0.1072
 6153SOL     OW19357   2.568   1.625   3.542  0.3818 -0.0551  0.1111
 6153SOL    HW119358   2.632   1.693   3.579  0.1567  0.6409 -0.7450
 6153SOL    HW219359   2.474   1.659   3.551  0.3775  0.7134 -2.1576
 6154SOL     OW19360   2.230   3.915   5.954 -0.0041  0.1546 -0.2451
 6154SOL    HW119361   2.233   3.844   6.025 -2.0239  0.9196  0.7141
 6154SOL    HW219362   2.146   3.969   5.966  0.5465  1.5057 -2.1030
 6155SOL     OW19363   0.824   0.656   1.759 -0.5352  0.4862  0.1192
 6155SOL    HW119364   0.733   0.636   1.723 -0.9121  0.9121  0.8288
 6155SOL    HW219365   0.890   0.656   1.683 -0.9366 -0.8746 -0.2571
 6156SOL     OW19366   2.391   3.945   1.275  0.7826  0.2466  0.5329
 6156SOL    HW119367   2.351   3.857   1.249  0.0232  1.0395 -1.1941
 6156SOL    HW219368   2.330   4.018   1.245  3.1084  1.4963 -1.4826
 6157SOL     OW19369   1.275   2.539   0.148 -0.4617 -0.1281  0.2126
 6157SOL    HW119370   1.329   2.505   0.224 -0.6577  1.7785  1.2675
 6157SOL    HW219371   1.312   2.505   0.062 -0.9640 -3.3540  1.1496
 6158SOL     OW19372   1.513   4.616   0.733 -0.1609 -0.1810 -0.7294
 6158SOL    HW119373   1.427   4.580   0.770 -0.0537 -0.0375 -0.3267
 6158SOL    HW219374   1.514   4.716   0.744  0.6799 -0.3090  0.6496
 6159SOL     OW19375   4.328   0.630   3.059  0.2049  0.7848  0.0626
 6159SOL    HW119376   4.252   0.601   3.116  1.6251 -1.0475  1.1555
 6159SOL    HW219377   4.369   0.713   3.098  0.4599  0.1917  1.1030
 6160SOL     OW19378   5.650   4.265   0.762 -0.1908 -0.6626 -0.2922
 6160SOL    HW119379   5.612   4.338   0.705 -1.4561 -0.0586  1.2587
 6160SOL    HW219380   5.726   4.221   0.714 -1.0025  0.0163 -2.3035
 6161SOL     OW19381   4.514   1.408   3.882 -0.8068  0.7776  0.2641
 6161SOL    HW119382   4.488   1.311   3.884  1.0872  0.2290 -0.0465
 6161SOL    HW219383   4.470   1.456   3.958 -2.0604 -0.2259  0.2133
 6162SOL     OW19384   3.593   5.830   3.220 -0.3559  0.3031  0.1727
 6162SOL    HW119385   3.668   5.895   3.208 -0.0767 -0.2094 -1.0106
 6162SOL    HW219386   3.628   5.737   3.213 -1.2998  0.0426 -2.2178
 6163SOL     OW19387   5.790   4.737   3.834 -0.0214 -0.0647  0.1255
 6163SOL    HW119388   5.841   4.810   3.879 -0.5658  0.5288 -0.1952
 6163SOL    HW219389   5.851   4.683   3.776  0.6053 -0.5929  1.2575
 6164SOL     OW19390   1.156   3.154   5.959 -0.1237 -0.3802  0.1153
 6164SOL    HW119391   1.058   3.137   5.946 -0.1640 -0.4257  0.4808
 6164SOL    HW219392   1.205   3.126   5.876 -0.3269 -1.1493  0.2443
 6165SOL     OW19393   6.312   5.548   1.481  0.1259 -0.1201  0.2609
 6165SOL    HW119394   6.286   5.522   1.574  2.0665 -1.6523  0.4492
 6165SOL    HW219395   6.343   5.643   1.480  1.0415 -0.3801  1.4341
 6166SOL     OW19396   3.864   3.659   6.805 -0.3022  0.0757  0.5748
 6166SOL    HW119397   3.960   3.645   6.781 -0.8609 -2.3972 -0.5212
 6166SOL    HW219398   3.818   3.706   6.730 -0.0487  1.0015  0.9799
 6167SOL     OW19399   4.126   5.100   2.259  0.0966  0.1849  0.1594
 6167SOL    HW119400   4.113   5.009   2.220  2.7876  0.7075 -2.2669
 6167SOL    HW219401   4.221   5.112   2.287 -0.2103  2.2312  0.5228
 6168SOL     OW19402   1.026   2.511   4.983  0.2355  0.5195 -0.2046
 6168SOL    HW119403   0.940   2.551   4.950  0.6467 -0.0968 -2.1730
 6168SOL    HW219404   1.100   2.577   4.970  0.3276  0.4444 -0.0569
 6169SOL     OW19405   1.415   3.586   4.188  0.6293  0.1482 -0.3856
 6169SOL    HW119406   1.427   3.675   4.145 -1.1558  0.5726 -0.0735
 6169SOL    HW219407   1.335   3.541   4.149  0.5574 -0.6155  0.6215
 6170SOL     OW19408   5.195   4.812   0.819  0.0584 -0.3332 -0.1032
 6170SOL    HW119409   5.114   4.758   0.843 -0.1750 -0.0710 -0.2901
 6170SOL    HW219410   5.172   4.874   0.743  0.2809  0.1277  0.1997
 6171SOL     OW19411   2.371   2.284   4.358 -0.5666  0.1792  0.3353
 6171SOL    HW119412   2.345   2.373   4.395  0.4376  0.8290 -0.4835
 6171SOL    HW219413   2.421   2.296   4.273  0.4964 -1.1248  0.7432
 6172SOL     OW19414   3.586   3.668   2.219 -0.0268  0.3618  0.3331
 6172SOL    HW119415   3.493   3.642   2.243  0.1510 -0.6941 -0.0705
 6172SOL    HW219416   3.633   3.590   2.177  1.3621  0.5441  1.4600
 6173SOL     OW19417   4.877   3.740   4.719  0.0420  0.0051 -0.5419
 6173SOL    HW119418   4.818   3.686   4.779  2.3158 -1.4960  0.4972
 6173SOL    HW219419   4.924   3.679   4.656  1.2152  1.0106 -0.6755
 6174SOL     OW19420   1.941   1.087   1.903  0.6493 -0.2566  0.2430
 6174SOL    HW119421   1.940   1.155   1.976 -0.6249 -0.7112  0.6776
 6174SOL    HW219422   1.855   1.036   1.903  1.8844 -2.4763  0.5127
 6175SOL     OW19423   6.854   6.129   6.723 -0.0592  0.6490  0.2570
 6175SOL    HW119424   6.756   6.143   6.715 -0.5223 -1.8814  0.8423
 6175SOL    HW219425   6.885   6.064   6.654  1.1973  1.2531  0.2085
 6176SOL     OW19426   4.338   2.113   5.546 -0.4796  0.2909 -0.3620
 6176SOL    HW119427   4.337   2.164   5.461 -1.1451  1.3381  0.2488
 6176SOL    HW219428   4.415   2.049   5.546  1.1960  2.2048 -0.6442
 6177SOL     OW19429   5.001   6.626   2.550  0.0298 -0.2474 -0.1524
 6177SOL    HW119430   5.099   6.615   2.530  0.4457 -0.7419  1.9221
 6177SOL    HW219431   4.953   6.655   2.467  2.0183  0.5464 -1.0881
 6178SOL     OW19432   3.606   1.011   0.063 -0.2191  0.2528 -0.0387
 6178SOL    HW119433   3.507   1.020   0.079 -0.2034  0.1883  0.0975
 6178SOL    HW219434   3.623   1.001  -0.035 -0.3331  0.4497 -0.0801
 6179SOL     OW19435   3.095   3.052   3.045  0.3208  0.0089  0.1625
 6179SOL    HW119436   3.109   2.973   3.105  1.0159  0.8628  1.1404
 6179SOL    HW219437   3.066   3.019   2.955  0.6826 -1.3671  0.5156
 6180SOL     OW19438   0.492   2.674   2.590  0.2876 -0.1194 -0.0599
 6180SOL    HW119439   0.396   2.701   2.602  0.0880  0.5006 -2.5103
 6180SOL    HW219440   0.535   2.732   2.521  1.8837 -1.6284 -0.4221
 6181SOL     OW19441   6.928   4.434   2.390  0.3085  0.2257  0.2056
 6181SOL    HW119442   6.966   4.357   2.440  1.2202  0.1364 -0.6012
 6181SOL    HW219443   6.963   4.520   2.430  2.4284  0.1278 -1.2913
 6182SOL     OW19444   3.783   6.656   1.168  0.3432  0.2844 -0.1005
 6182SOL    HW119445   3.786   6.688   1.263  0.1665 -1.1334  0.4063
 6182SOL    HW219446   3.693   6.617   1.149 -0.3300  2.3585 -1.5035
 6183SOL     OW19447   2.422   4.466   6.472  0.0827 -0.6486 -0.2122
 6183SOL    HW119448   2.346   4.428   6.527  0.0127  0.0512  0.1823
 6183SOL    HW219449   2.421   4.423   6.382 -0.1299 -1.4322  0.1455
 6184SOL     OW19450   5.621   0.932   3.294  0.4308  0.5558 -0.0006
 6184SOL    HW119451   5.571   0.849   3.317  1.4609 -0.1871 -0.4200
 6184SOL    HW219452   5.610   0.999   3.368 -0.9110  0.3075  0.0595
 6185SOL     OW19453   5.483   2.725   5.242  0.2306 -0.4137  0.5604
 6185SOL    HW119454   5.478   2.751   5.145  0.5936 -0.4896  0.5198
 6185SOL    HW219455   5.402   2.759   5.290 -0.1711 -0.7583  0.1408
 6186SOL     OW19456   0.946   1.359   4.540 -0.0307 -0.3846 -0.2421
 6186SOL    HW119457   1.045   1.369   4.528  0.1890 -1.3952  0.6371
 6186SOL    HW219458   0.908   1.309   4.462 -0.0311  0.8996 -1.0977
 6187SOL     OW19459   2.145   0.462   1.677 -0.6451 -0.3376 -1.2345
 6187SOL    HW119460   2.074   0.400   1.712 -0.4561 -0.7512 -1.5749
 6187SOL    HW219461   2.234   0.432   1.709 -0.5583 -0.1993 -1.3454
 6188SOL     OW19462   0.430   3.090   3.471  0.4055 -0.2202  0.5944
 6188SOL    HW119463   0.462   3.170   3.522  1.9894 -1.5104  1.7217
 6188SOL    HW219464   0.349   3.115   3.419  0.5972  2.0035  1.2370
 6189SOL     OW19465   6.740   0.327   1.375  0.2903 -0.4853 -0.0679
 6189SOL    HW119466   6.720   0.236   1.411  1.5329 -1.5533 -1.9231
 6189SOL    HW219467   6.693   0.339   1.288  1.6089 -0.0796 -0.7382
 6190SOL     OW19468   1.653   5.490   0.401  0.0797 -0.2262 -0.0382
 6190SOL    HW119469   1.624   5.508   0.495 -1.0746  0.4789 -0.5068
 6190SOL    HW219470   1.718   5.413   0.400  2.3472  1.5238  1.6243
 6191SOL     OW19471   3.158   2.735   6.670  0.7855  0.1642 -0.4008
 6191SOL    HW119472   3.148   2.820   6.618 -0.9355  0.3344  0.1570
 6191SOL    HW219473   3.157   2.756   6.768 -1.2263 -0.6103 -0.2179
 6192SOL     OW19474   1.716   5.040   6.066  0.0244  0.2668 -0.1969
 6192SOL    HW119475   1.776   4.961   6.067  0.1425  0.3573  1.0653
 6192SOL    HW219476   1.721   5.085   5.976  1.4559 -0.0074 -0.2673
 6193SOL     OW19477   1.853   0.201   2.853 -0.1279  0.5473 -0.0771
 6193SOL    HW119478   1.869   0.191   2.951 -0.1808  1.1144 -0.0093
 6193SOL    HW219479   1.766   0.159   2.829  0.1078 -0.0181  0.0338
 6194SOL     OW19480   4.053   1.825   3.755 -0.7003 -0.4230  0.1672
 6194SOL    HW119481   3.969   1.868   3.787 -0.7380  1.7049 -2.4185
 6194SOL    HW219482   4.035   1.730   3.729 -2.2140 -0.1257  0.0566
 6195SOL     OW19483   1.675   4.772   2.014  0.4673  0.6756 -0.5582
 6195SOL    HW119484   1.746   4.839   2.035  1.7876 -0.1919 -2.0898
 6195SOL    HW219485   1.629   4.798   1.929 -0.4121  0.6983 -0.0906
 6196SOL     OW19486   0.656   2.799   3.158  0.1373 -0.3767 -0.5359
 6196SOL    HW119487   0.625   2.842   3.243 -1.1129  0.7595 -1.5323
 6196SOL    HW219488   0.609   2.711   3.147 -2.5310  1.0824 -1.7610
 6197SOL     OW19489   2.214   3.902   3.157 -0.0045 -0.4970  0.1899
 6197SOL    HW119490   2.228   3.999   3.139  2.4232 -0.9700 -0.8959
 6197SOL    HW219491   2.204   3.853   3.071 -2.3713 -1.1283  0.7594
 6198SOL     OW19492   4.110   6.761   5.689  0.2512 -0.2256  0.0781
 6198SOL    HW119493   4.147   6.811   5.767 -1.4581  0.3532  0.5627
 6198SOL    HW219494   4.148   6.669   5.688  2.7947  0.7614 -0.3394
 6199SOL     OW19495   4.167   2.311   4.737 -0.5066 -0.4428  0.2841
 6199SOL    HW119496   4.077   2.269   4.723 -0.4244 -0.3772 -0.4623
 6199SOL    HW219497   4.181   2.328   4.835 -0.7762 -1.6382  0.5556
 6200SOL     OW19498   1.264   3.497   3.574  0.3599  0.2616 -0.3142
 6200SOL    HW119499   1.350   3.525   3.531  0.8818 -0.9443 -0.0920
 6200SOL    HW219500   1.208   3.578   3.592  0.0094  0.8433 -3.4347
 6201SOL     OW19501   3.150   3.040   4.915  0.1459 -0.0095 -0.1959
 6201SOL    HW119502   3.193   3.010   5.001  1.4238  0.7335 -0.5512
 6201SOL    HW219503   3.187   2.986   4.839  1.1245  1.2113 -0.6129
 6202SOL     OW19504   2.854   4.646   1.167  0.0559  0.2095 -0.0005
 6202SOL    HW119505   2.861   4.744   1.188  2.6830 -0.0051  0.5472
 6202SOL    HW219506   2.859   4.594   1.251  0.5699 -0.4220 -0.4104
 6203SOL     OW19507   6.825   1.075   0.685 -0.5857  0.2314 -0.0890
 6203SOL    HW119508   6.809   0.983   0.649  0.6120  0.0728 -0.2737
 6203SOL    HW219509   6.923   1.096   0.680 -0.7694  1.3034  0.4728
 6204SOL     OW19510   6.092   3.790   3.141  0.4931  0.2665 -0.2286
 6204SOL    HW119511   6.055   3.846   3.068  0.4342  1.9800  1.0560
 6204SOL    HW219512   6.186   3.818   3.161  0.5090 -0.1625  0.3499
 6205SOL     OW19513   0.621   3.876   0.888  0.0155 -0.5922 -0.1302
 6205SOL    HW119514   0.568   3.961   0.879 -1.0108 -1.0877  0.9416
 6205SOL    HW219515   0.673   3.878   0.973  1.0277 -0.5025 -0.7377
 6206SOL     OW19516   5.178   4.921   2.377  0.0728  0.3515 -0.0125
 6206SOL    HW119517   5.262   4.922   2.431 -0.7863  0.1567  1.3888
 6206SOL    HW219518   5.130   4.834   2.390 -1.8171  1.5477  1.6579
 6207SOL     OW19519   1.117   2.102   3.384  0.0170  0.4221 -0.0977
 6207SOL    HW119520   1.043   2.109   3.451  0.2894  0.9885  0.1519
 6207SOL    HW219521   1.204   2.123   3.429  0.3205 -0.1093 -0.4178
 6208SOL     OW19522   6.752   1.652   6.110 -0.3777 -0.1052  0.3889
 6208SOL    HW119523   6.719   1.564   6.145  1.6516 -0.5056  1.4510
 6208SOL    HW219524   6.782   1.709   6.186  3.2667 -0.6367 -0.4532
 6209SOL     OW19525   4.597   1.753   0.284  0.0390  0.2331  0.0493
 6209SOL    HW119526   4.607   1.789   0.376  0.8513 -0.3539  0.2087
 6209SOL    HW219527   4.654   1.671   0.274 -0.3428  0.0610 -0.8507
 6210SOL     OW19528   4.708   4.095   3.210 -0.1613 -0.3331  0.1627
 6210SOL    HW119529   4.672   4.147   3.287 -0.0879 -0.1546  0.0763
 6210SOL    HW219530   4.634   4.040   3.171 -0.5402  0.6084 -0.4849
 6211SOL     OW19531   2.387   2.406   5.526  0.4819  1.0720  0.0413
 6211SOL    HW119532   2.313   2.404   5.458  0.4327  0.5464  0.1043
 6211SOL    HW219533   2.474   2.387   5.480  0.0029 -3.9299  0.6556
 6212SOL     OW19534   0.829   2.469   2.520  0.2735  0.7419 -0.0435
 6212SOL    HW119535   0.786   2.506   2.437 -2.0905 -0.1178  0.7024
 6212SOL    HW219536   0.759   2.423   2.575  1.0537  3.7595  3.8934
 6213SOL     OW19537   3.688   6.724   2.725  0.1087 -0.1384  0.2880
 6213SOL    HW119538   3.697   6.630   2.757  1.2702  0.0630  0.6339
 6213SOL    HW219539   3.736   6.735   2.637 -0.9715 -0.1185 -0.3129
 6214SOL     OW19540   4.469   2.892   6.815 -0.0783  0.2779 -0.0827
 6214SOL    HW119541   4.448   2.821   6.748  0.1862 -0.7286  0.8844
 6214SOL    HW219542   4.405   2.886   6.891  0.0044  1.0244  0.0533
 6215SOL     OW19543   4.379   1.280   3.474  0.7685  0.4895  0.0304
 6215SOL    HW119544   4.328   1.218   3.534 -1.0689  1.4008 -0.5427
 6215SOL    HW219545   4.421   1.352   3.529 -0.5678  1.0882  0.2888
 6216SOL     OW19546   4.451   2.484   2.786  0.0950  0.1463 -0.5842
 6216SOL    HW119547   4.455   2.519   2.879  1.3144  2.0244 -1.2826
 6216SOL    HW219548   4.375   2.418   2.778 -0.7297  0.7834  1.4291
 6217SOL     OW19549   6.103   5.390   6.847 -0.2349  0.5733 -0.2276
 6217SOL    HW119550   6.092   5.379   6.945  0.1459  0.0281 -0.2393
 6217SOL    HW219551   6.121   5.301   6.805 -2.4123  0.4703 -1.0641
 6218SOL     OW19552   0.694   3.896   0.429  0.3965  0.1637 -0.4802
 6218SOL    HW119553   0.615   3.920   0.375  1.1604 -0.0657 -1.7427
 6218SOL    HW219554   0.753   3.833   0.377  1.5798  0.5972  0.2788
 6219SOL     OW19555   6.604   6.300   0.327  0.2388 -0.0529 -0.5469
 6219SOL    HW119556   6.524   6.350   0.360 -0.5935 -0.2054 -2.2048
 6219SOL    HW219557   6.686   6.355   0.339 -0.1041  0.1502  1.0999
 6220SOL     OW19558   3.557   2.269   1.632  0.1782  0.6558 -0.4089
 6220SOL    HW119559   3.600   2.308   1.714 -0.0015  0.7430 -0.3541
 6220SOL    HW219560   3.463   2.303   1.625 -0.5485 -1.0253  0.5519
 6221SOL     OW19561   0.517   4.658   2.986  0.2580  0.0436  0.4006
 6221SOL    HW119562   0.468   4.743   2.969  0.5131 -0.0687 -0.9872
 6221SOL    HW219563   0.546   4.618   2.899  0.4753 -1.2690  1.0541
 6222SOL     OW19564   0.190   3.127   3.287  0.6263 -0.1506 -0.4003
 6222SOL    HW119565   0.132   3.177   3.351  2.8017  1.1109  0.6770
 6222SOL    HW219566   0.175   3.161   3.194  0.9393  1.4097  0.1070
 6223SOL     OW19567   0.175   0.755   3.548 -0.0530 -0.5380 -0.3996
 6223SOL    HW119568   0.243   0.696   3.507 -0.3023  1.3590 -3.9734
 6223SOL    HW219569   0.083   0.721   3.525 -0.4954 -2.5281  3.5482
 6224SOL     OW19570   4.604   0.578   1.328  0.3866  0.0764  0.1473
 6224SOL    HW119571   4.567   0.496   1.372 -1.2787  1.8081  2.2179
 6224SOL    HW219572   4.598   0.568   1.229 -2.4352 -1.2246  0.3522
 6225SOL     OW19573   1.629   2.622   0.702 -0.0656  0.0018  0.0421
 6225SOL    HW119574   1.655   2.644   0.796 -0.8673 -0.0223  0.2747
 6225SOL    HW219575   1.687   2.672   0.639  1.1554 -0.7464  0.5350
 6226SOL     OW19576   0.087   3.802   6.783 -0.1689 -0.6551 -0.1060
 6226SOL    HW119577   0.153   3.734   6.751 -1.1216 -0.8311 -1.7944
 6226SOL    HW219578   0.011   3.808   6.719 -3.1427 -2.2818  2.9241
 6227SOL     OW19579   1.532   1.816   4.469 -0.0371 -0.4626 -0.2634
 6227SOL    HW119580   1.520   1.914   4.482 -1.6720 -0.8298  1.4250
 6227SOL    HW219581   1.629   1.794   4.467  0.3606  1.1950 -0.8804
 6228SOL     OW19582   2.614   4.630   6.984  0.0121  0.1660  0.6569
 6228SOL    HW119583   2.651   4.585   7.065 -2.0276 -0.5078  1.2559
 6228SOL    HW219584   2.558   4.708   7.011  0.2556  0.6530 -0.1879
 6229SOL     OW19585   6.412   2.514   3.777  0.3048  0.0076  0.0261
 6229SOL    HW119586   6.356   2.490   3.857  2.7112 -1.4289  1.3690
 6229SOL    HW219587   6.462   2.599   3.796  3.6470 -2.1299  1.7088
 6230SOL     OW19588   1.373   1.883   6.101  0.1396  0.7559  0.3250
 6230SOL    HW119589   1.429   1.938   6.162 -1.4801  0.9002  1.7477
 6230SOL    HW219590   1.416   1.794   6.087  1.2781  1.2702  0.4247
 6231SOL     OW19591   1.141   5.819   6.086  0.8464 -0.1889 -0.1033
 6231SOL    HW119592   1.080   5.786   6.014 -1.1097  1.3618  0.7645
 6231SOL    HW219593   1.104   5.794   6.175  0.0396  2.8677  0.5343
 6232SOL     OW19594   6.440   1.959   2.237 -0.1359  0.1186  0.4998
 6232SOL    HW119595   6.515   1.920   2.290 -0.8532 -1.6564  0.2549
 6232SOL    HW219596   6.472   1.984   2.146  0.5235  0.9222  0.9387
 6233SOL     OW19597   3.077   6.078   1.823 -0.2922  0.4598  0.5564
 6233SOL    HW119598   3.031   6.047   1.906  1.6109 -1.5003  0.9688
 6233SOL    HW219599   3.127   6.002   1.782 -0.8015  1.4784 -2.1874
 6234SOL     OW19600   6.521   0.608   5.441 -0.5470 -0.1276 -0.1568
 6234SOL    HW119601   6.478   0.604   5.531  1.9704  1.4767  1.2225
 6234SOL    HW219602   6.553   0.700   5.423  3.5507 -1.3819 -0.3536
 6235SOL     OW19603   1.852   6.835   3.823 -0.1931 -0.4297  0.2724
 6235SOL    HW119604   1.931   6.835   3.884  1.0225 -2.3172 -1.1950
 6235SOL    HW219605   1.867   6.900   3.748 -0.1890 -0.5010  0.2105
 6236SOL     OW19606   1.336   6.828   1.677  0.8261 -0.0480  0.2537
 6236SOL    HW119607   1.312   6.911   1.729  0.8553 -0.1541  0.4378
 6236SOL    HW219608   1.391   6.853   1.598  0.8548  0.1081  0.3226
 6237SOL     OW19609   1.994   2.617   5.799 -0.8095  0.0629  0.0356
 6237SOL    HW119610   1.946   2.555   5.736 -1.4283 -0.0554  0.6105
 6237SOL    HW219611   2.092   2.599   5.797 -0.9970 -1.0203  0.2923
 6238SOL     OW19612   1.384   6.261   1.739  0.0321 -0.8063  0.1012
 6238SOL    HW119613   1.308   6.212   1.782 -1.3776  0.2405 -1.0828
 6238SOL    HW219614   1.440   6.305   1.810 -1.5247 -0.1209  0.9585
 6239SOL     OW19615   0.103   2.725   5.775  0.1772  0.2859  0.1442
 6239SOL    HW119616   0.092   2.751   5.679 -1.0218  1.7414  0.6352
 6239SOL    HW219617   0.174   2.780   5.818  0.0357  0.3342  0.3227
 6240SOL     OW19618   4.542   4.533   4.331  0.6721 -0.1842  0.0893
 6240SOL    HW119619   4.482   4.606   4.364 -0.0137 -0.8334  0.3034
 6240SOL    HW219620   4.580   4.484   4.408  1.8301  0.4787 -0.0347
 6241SOL     OW19621   1.814   2.943   4.311  0.4957 -0.2367  0.0439
 6241SOL    HW119622   1.722   2.974   4.335  0.9500  0.6471  0.7242
 6241SOL    HW219623   1.837   2.976   4.219  0.5550  0.5291  0.3258
 6242SOL     OW19624   1.932   2.439   2.581 -0.2475 -0.8454  0.1063
 6242SOL    HW119625   1.889   2.352   2.602 -0.7749 -0.6451 -0.1324
 6242SOL    HW219626   1.868   2.514   2.599 -0.0739 -0.5562 -0.4502
 6243SOL     OW19627   4.982   5.260   0.535  0.4372  0.9947 -0.0803
 6243SOL    HW119628   4.953   5.227   0.445  1.4242  0.3138 -0.1716
 6243SOL    HW219629   4.914   5.235   0.604 -0.3752  1.6089 -0.6412
 6244SOL     OW19630   1.808   3.681   5.882 -0.3824  0.2549 -0.1222
 6244SOL    HW119631   1.840   3.586   5.882 -1.3056 -0.0807 -1.7736
 6244SOL    HW219632   1.821   3.719   5.974 -0.4842 -1.6277  0.7437
 6245SOL     OW19633   1.565   2.852   1.103  0.6881 -0.1879 -0.0120
 6245SOL    HW119634   1.525   2.932   1.058  0.4995 -0.3444 -0.1210
 6245SOL    HW219635   1.499   2.777   1.104  0.7776 -0.2661  0.3069
 6246SOL     OW19636   4.060   5.041   1.219  0.0058 -0.0435 -0.0290
 6246SOL    HW119637   3.967   5.072   1.237  0.4269  2.0063 -1.0084
 6246SOL    HW219638   4.099   5.001   1.302 -1.2116  0.5224  0.8423
 6247SOL     OW19639   0.723   0.448   4.529 -0.5723 -0.3076 -0.1677
 6247SOL    HW119640   0.650   0.454   4.597  0.0715  0.5402  0.4747
 6247SOL    HW219641   0.802   0.500   4.560 -0.7860  1.4076 -2.2251
 6248SOL     OW19642   5.946   3.925   5.718  0.0031  0.0105 -0.0774
 6248SOL    HW119643   5.875   3.918   5.788 -0.2120  0.6365 -0.2288
 6248SOL    HW219644   5.967   3.834   5.683 -0.0237 -0.2929  0.6653
 6249SOL     OW19645   6.518   0.838   1.169 -0.0231 -0.0894  0.1872
 6249SOL    HW119646   6.448   0.785   1.217  0.2036 -0.8078 -0.2683
 6249SOL    HW219647   6.498   0.839   1.071  0.7858 -0.5930  0.0077
 6250SOL     OW19648   6.393   4.115   3.524  0.7268 -0.2937 -0.3364
 6250SOL    HW119649   6.350   4.025   3.527 -1.7601  0.8271  0.1626
 6250SOL    HW219650   6.381   4.162   3.612  0.4366  1.1606 -1.1099
 6251SOL     OW19651   4.431   5.646   1.323 -0.0434 -0.5545 -0.4170
 6251SOL    HW119652   4.479   5.639   1.235 -0.3902 -0.9063 -0.5841
 6251SOL    HW219653   4.383   5.560   1.341  0.9451 -0.9130  0.6616
 6252SOL     OW19654   4.877   2.878   3.937  0.2774  0.4908  0.0386
 6252SOL    HW119655   4.959   2.935   3.931  0.2889  0.6729  1.5494
 6252SOL    HW219656   4.824   2.905   4.018 -0.4492 -0.7106 -0.0180
 6253SOL     OW19657   4.998   4.999   3.934  0.2151  0.1310 -0.2720
 6253SOL    HW119658   5.027   5.079   3.882  0.0002  0.4219  0.0543
 6253SOL    HW219659   4.900   5.004   3.953  0.5664  0.8745  1.5996
 6254SOL     OW19660   0.950   2.298   6.358  0.7356  0.3500  0.6748
 6254SOL    HW119661   0.890   2.228   6.323  1.5366  0.4944 -1.0620
 6254SOL    HW219662   0.912   2.389   6.339  1.6078  0.4509 -0.7215
 6255SOL     OW19663   3.921   4.834   3.142 -0.2563  0.6228  0.7283
 6255SOL    HW119664   3.885   4.846   3.235  0.6879 -1.1407  1.3574
 6255SOL    HW219665   3.854   4.869   3.076 -0.5336  2.8161  2.0668
 6256SOL     OW19666   6.129   2.617   1.264 -0.8735  0.1871 -0.0452
 6256SOL    HW119667   6.036   2.600   1.232 -0.2462 -2.9285 -0.4813
 6256SOL    HW219668   6.161   2.539   1.318  1.8179  0.7464 -0.6596
 6257SOL     OW19669   6.717   3.574   4.824 -0.2194 -0.1676 -0.2754
 6257SOL    HW119670   6.623   3.547   4.846 -0.3841  0.5421 -0.0993
 6257SOL    HW219671   6.777   3.494   4.831 -0.6496 -0.4237  0.5522
 6258SOL     OW19672   0.648   4.861   3.758 -0.1505 -0.2544 -0.0732
 6258SOL    HW119673   0.605   4.816   3.680 -0.1736 -0.1766 -0.1062
 6258SOL    HW219674   0.711   4.931   3.724  1.8597 -1.9914 -0.1107
 6259SOL     OW19675   1.045   0.404   2.415  0.2098  0.3113  0.7692
 6259SOL    HW119676   1.095   0.447   2.340 -2.1748  1.6288 -0.1879
 6259SOL    HW219677   1.099   0.328   2.452  2.1240  0.5733 -1.2499
 6260SOL     OW19678   5.624   4.592   6.885 -0.1931 -0.0898 -0.2308
 6260SOL    HW119679   5.721   4.574   6.900 -0.2679 -1.9051 -1.6292
 6260SOL    HW219680   5.571   4.553   6.961  0.0964  0.0751  0.0588
 6261SOL     OW19681   1.010   6.394   4.603  0.0529 -0.1899  0.1388
 6261SOL    HW119682   1.013   6.493   4.612  0.9171 -0.0220 -1.6309
 6261SOL    HW219683   0.947   6.369   4.530 -0.7604 -1.0206  1.0829
 6262SOL     OW19684   5.029   4.172   6.994  0.2861 -0.1775 -0.1764
 6262SOL    HW119685   4.940   4.165   6.948  1.0678 -1.3676 -1.5786
 6262SOL    HW219686   5.050   4.086   7.039  0.5342  0.2615  0.5634
 6263SOL     OW19687   4.799   1.751   0.920  0.4956  0.0857 -0.0348
 6263SOL    HW119688   4.867   1.696   0.968 -1.0890 -3.6311 -1.6119
 6263SOL    HW219689   4.832   1.772   0.828  0.1564 -0.4619 -0.2927
 6264SOL     OW19690   6.279   4.053   2.643 -0.1106  0.6326  0.4098
 6264SOL    HW119691   6.282   4.151   2.625  0.3024  0.4226 -0.6834
 6264SOL    HW219692   6.326   4.003   2.571 -1.2053 -0.4508  0.3985
 6265SOL     OW19693   4.681   4.144   0.101  0.3307 -0.7619 -0.3954
 6265SOL    HW119694   4.745   4.126   0.176  0.1999  0.5523  0.0568
 6265SOL    HW219695   4.598   4.185   0.138 -0.2529 -1.2564 -1.1318
 6266SOL     OW19696   5.228   6.822   5.921  0.6926  0.1505  0.1082
 6266SOL    HW119697   5.263   6.825   5.827  2.2330 -0.8383  0.6249
 6266SOL    HW219698   5.130   6.802   5.919  0.7128  0.1099 -1.2864
 6267SOL     OW19699   5.194   0.805   2.651  0.1258  1.1072  0.3274
 6267SOL    HW119700   5.272   0.745   2.631  0.3869  2.0928 -1.8560
 6267SOL    HW219701   5.227   0.898   2.664 -0.6019  1.3431  0.5347
 6268SOL     OW19702   6.210   0.442   0.562 -0.0528  0.1369  0.0395
 6268SOL    HW119703   6.273   0.518   0.550  2.4044 -1.8304 -0.4701
 6268SOL    HW219704   6.260   0.362   0.596 -2.9464 -0.5981  3.2061
 6269SOL     OW19705   1.266   5.258   2.635 -0.3378 -0.2681  0.3291
 6269SOL    HW119706   1.296   5.178   2.689  1.0793 -0.9836 -1.4172
 6269SOL    HW219707   1.168   5.270   2.646 -0.5183 -2.0090  0.9653
 6270SOL     OW19708   3.858   2.163   4.374 -0.2571  0.1943 -0.2660
 6270SOL    HW119709   3.775   2.111   4.396 -1.0845  1.6430  0.1582
 6270SOL    HW219710   3.921   2.158   4.451  0.3813 -1.4520 -0.8366
 6271SOL     OW19711   4.481   1.919   6.791 -0.9849  0.0560  0.3001
 6271SOL    HW119712   4.469   1.829   6.831  1.1496 -0.9369 -1.1135
 6271SOL    HW219713   4.539   1.975   6.851  1.5330 -1.1552 -0.8370
 6272SOL     OW19714   1.170   3.529   3.048 -0.3366 -0.0299  1.0242
 6272SOL    HW119715   1.151   3.451   2.988  1.2781  1.2086 -1.2459
 6272SOL    HW219716   1.256   3.513   3.096  0.7035  0.8464 -0.4692
 6273SOL     OW19717   1.466   6.582   1.645 -0.2517  0.1311 -0.4689
 6273SOL    HW119718   1.405   6.659   1.665 -1.9334 -1.1918 -0.3118
 6273SOL    HW219719   1.420   6.518   1.583  0.8281 -1.1158 -0.0306
 6274SOL     OW19720   3.394   2.228   5.260 -0.5123 -0.3115 -0.0840
 6274SOL    HW119721   3.332   2.305   5.248 -0.4868 -0.6148 -2.6615
 6274SOL    HW219722   3.378   2.160   5.188  0.0270 -2.3542  1.6250
 6275SOL     OW19723   4.351   1.976   0.562  0.3473  0.0100  0.0091
 6275SOL    HW119724   4.450   1.967   0.565  0.4030  0.7826  0.8308
 6275SOL    HW219725   4.312   1.933   0.643  0.0991  0.7028  0.2628
 6276SOL     OW19726   4.563   6.427   2.575  0.1927 -0.3338 -0.1566
 6276SOL    HW119727   4.576   6.523   2.600 -1.6369 -0.4727  1.5359
 6276SOL    HW219728   4.623   6.369   2.631  1.9191 -0.2055 -1.7523
 6277SOL     OW19729   1.694   1.803   4.087 -0.1149 -0.0448 -0.1769
 6277SOL    HW119730   1.735   1.866   4.153 -0.3099  0.8100 -0.8576
 6277SOL    HW219731   1.726   1.710   4.106 -0.1479  0.1896  1.0957
 6278SOL     OW19732   5.989   0.355   2.041 -0.5281 -0.0167 -0.2273
 6278SOL    HW119733   5.902   0.320   2.005 -1.0761 -0.7190  1.6619
 6278SOL    HW219734   5.970   0.424   2.111  0.3587 -1.2892  1.3295
 6279SOL     OW19735   0.780   3.724   2.444 -0.2236  0.0013  0.1467
 6279SOL    HW119736   0.784   3.703   2.541  2.8832  0.1985  0.1349
 6279SOL    HW219737   0.835   3.659   2.392  2.7344  2.9304 -0.7849
 6280SOL     OW19738   5.940   0.049   2.452 -0.2552 -0.0841  0.1329
 6280SOL    HW119739   6.014   0.024   2.513 -0.8639  3.3505  2.5666
 6280SOL    HW219740   5.852   0.029   2.496 -0.8636 -2.2864 -1.8885
 6281SOL     OW19741   5.038   5.782   0.920 -0.3332 -0.2616  0.1439
 6281SOL    HW119742   4.991   5.744   1.000 -0.0454 -0.6950  0.1078
 6281SOL    HW219743   4.974   5.787   0.843 -0.3094 -0.8789  0.0844
 6282SOL     OW19744   6.066   0.316   3.080  0.0703  0.5632 -0.3988
 6282SOL    HW119745   6.087   0.219   3.090  2.2584  0.7790 -2.0264
 6282SOL    HW219746   5.989   0.328   3.017  0.3309 -0.0969 -0.8477
 6283SOL     OW19747   1.178   5.140   0.785  0.1458  0.8285 -0.2082
 6283SOL    HW119748   1.081   5.117   0.799  0.2779 -0.0543 -0.6748
 6283SOL    HW219749   1.187   5.239   0.772 -0.6575  0.9579  0.1471
 6284SOL     OW19750   6.227   3.691   6.293  0.2718  0.4049 -0.1669
 6284SOL    HW119751   6.252   3.689   6.197  0.5312 -0.5957 -0.0944
 6284SOL    HW219752   6.127   3.688   6.301  0.2471 -2.5137 -0.4247
 6285SOL     OW19753   6.626   2.098   3.668  0.5486  0.0781  0.1902
 6285SOL    HW119754   6.722   2.095   3.639  1.4469  1.3616  2.6702
 6285SOL    HW219755   6.586   2.186   3.641  1.4792  1.4090  2.7265
 6286SOL     OW19756   5.733   5.970   0.490  0.0120  0.2594 -0.5679
 6286SOL    HW119757   5.686   5.940   0.573  0.9026  0.2550 -0.0510
 6286SOL    HW219758   5.778   5.892   0.446 -0.7789  0.1910 -1.2779
 6287SOL     OW19759   4.218   1.157   5.256 -0.1978  0.4268  0.4000
 6287SOL    HW119760   4.147   1.227   5.249 -1.4180 -0.9151 -1.4920
 6287SOL    HW219761   4.177   1.072   5.288  0.5427 -0.3952 -0.8106
 6288SOL     OW19762   3.242   6.004   0.930 -0.0007 -0.1531 -0.0970
 6288SOL    HW119763   3.270   6.063   0.853  2.8434 -0.0784  0.8764
 6288SOL    HW219764   3.158   5.955   0.906  0.5857  0.1407 -3.1039
 6289SOL     OW19765   6.672   3.351   3.879 -0.4624 -0.1962  0.4228
 6289SOL    HW119766   6.650   3.255   3.864  0.1597 -0.3478  0.4595
 6289SOL    HW219767   6.771   3.364   3.873 -0.6834  0.9445 -2.5190
 6290SOL     OW19768   5.152   0.898   6.252  0.0653 -0.3817  0.5328
 6290SOL    HW119769   5.061   0.866   6.226  0.2683  0.6603 -1.7173
 6290SOL    HW219770   5.208   0.820   6.281 -1.3164 -1.1270  1.2904
 6291SOL     OW19771   5.364   3.201   1.575 -0.6565  0.0971 -0.4772
 6291SOL    HW119772   5.326   3.290   1.602 -0.9136 -0.4236  0.9205
 6291SOL    HW219773   5.438   3.216   1.508 -0.0923  1.4320  0.3882
 6292SOL     OW19774   0.884   4.995   5.028  0.2716  0.3966  0.5262
 6292SOL    HW119775   0.914   4.985   4.933  1.0949  3.0394  0.4341
 6292SOL    HW219776   0.884   5.091   5.053  0.0024 -0.2249  3.2231
 6293SOL     OW19777   1.887   3.470   0.686  0.0050 -0.2281 -0.2777
 6293SOL    HW119778   1.904   3.565   0.712  0.6347 -0.3847 -0.0882
 6293SOL    HW219779   1.945   3.410   0.742 -1.6516 -0.8432  0.8570
 6294SOL     OW19780   6.275   6.530   1.778  0.6362 -0.0594  0.4170
 6294SOL    HW119781   6.257   6.442   1.734  1.6180 -0.7993  1.4369
 6294SOL    HW219782   6.200   6.593   1.758  0.7377 -0.5600 -1.7331
 6295SOL     OW19783   4.987   5.118   3.041  0.5621  0.6318 -0.2588
 6295SOL    HW119784   5.039   5.130   2.956  0.7060  0.4787 -0.1924
 6295SOL    HW219785   5.031   5.170   3.114  0.1894  1.1178 -0.3809
 6296SOL     OW19786   2.884   5.672   6.248 -0.2044  0.3990  0.1854
 6296SOL    HW119787   2.931   5.759   6.238  2.6543 -1.1589 -1.4466
 6296SOL    HW219788   2.915   5.626   6.331 -0.7861  0.3980  0.4098
 6297SOL     OW19789   2.635   5.323   4.756 -0.1307 -0.2189  0.3590
 6297SOL    HW119790   2.636   5.408   4.704 -0.8095 -1.7044 -2.3073
 6297SOL    HW219791   2.546   5.310   4.799 -0.7911 -0.5159 -1.0287
 6298SOL     OW19792   5.125   3.880   1.052 -0.1492  0.4125 -0.2016
 6298SOL    HW119793   5.199   3.847   1.111 -0.4713 -0.6557 -0.3622
 6298SOL    HW219794   5.040   3.832   1.077 -0.2455 -0.2151 -1.6670
 6299SOL     OW19795   3.729   1.000   6.771 -0.1572  0.0350 -0.0690
 6299SOL    HW119796   3.798   1.011   6.700  1.2831  0.9504  1.3881
 6299SOL    HW219797   3.709   0.903   6.785 -0.9637 -0.1388 -2.1182
 6300SOL     OW19798   1.419   3.199   5.695  0.0522  0.1443 -0.3742
 6300SOL    HW119799   1.452   3.286   5.658 -3.1132  2.0479  0.8977
 6300SOL    HW219800   1.371   3.149   5.623 -0.7369  0.9029 -0.3848
 6301SOL     OW19801   3.699   2.329   0.623 -0.6820 -0.7212  0.3514
 6301SOL    HW119802   3.691   2.276   0.708  0.3857  0.3961  1.1990
 6301SOL    HW219803   3.790   2.314   0.583 -0.3403  0.4735  0.6365
 6302SOL     OW19804   6.438   2.874   0.541  0.2907 -0.0433  0.1682
 6302SOL    HW119805   6.406   2.856   0.635 -0.8493  0.6383 -0.0691
 6302SOL    HW219806   6.386   2.817   0.477  0.2966  0.2885 -0.1343
 6303SOL     OW19807   6.354   0.499   4.562  0.2065  0.1630 -0.2757
 6303SOL    HW119808   6.384   0.574   4.504  0.8348  1.0736  1.1809
 6303SOL    HW219809   6.256   0.510   4.583 -0.3574 -0.8679 -2.1298
 6304SOL     OW19810   0.051   4.477   0.789  0.5424  0.4276 -0.4645
 6304SOL    HW119811   0.013   4.429   0.868  0.0905  2.4774  0.6386
 6304SOL    HW219812   0.064   4.413   0.714 -2.2570 -0.9913  0.1289
 6305SOL     OW19813   4.470   0.336   5.859  0.1395  0.1973 -0.1660
 6305SOL    HW119814   4.486   0.395   5.780 -1.4933 -0.3653 -0.9640
 6305SOL    HW219815   4.486   0.388   5.944  0.4049  1.2531 -0.8421
 6306SOL     OW19816   2.683   2.612   6.059  0.0782 -0.1410  0.4911
 6306SOL    HW119817   2.665   2.610   5.960 -0.4284  1.6466  0.5175
 6306SOL    HW219818   2.691   2.706   6.089 -2.7067 -0.4654  2.6675
 6307SOL     OW19819   6.033   3.627   1.684 -0.4681 -0.1598 -0.6682
 6307SOL    HW119820   6.106   3.621   1.616  0.7297 -0.8887  0.6415
 6307SOL    HW219821   5.971   3.549   1.672 -1.0710  0.4642 -1.7851
 6308SOL     OW19822   2.774   0.697   6.619  0.0362 -0.0233 -0.5696
 6308SOL    HW119823   2.874   0.693   6.615  0.0550  0.7047 -0.8921
 6308SOL    HW219824   2.746   0.781   6.664 -0.4379 -0.1420 -0.6395
 6309SOL     OW19825   6.834   3.928   2.068  0.5049 -0.8295  0.3749
 6309SOL    HW119826   6.832   3.835   2.104  1.9978 -0.7248  0.8410
 6309SOL    HW219827   6.802   3.992   2.139  0.2608 -0.9153  0.3418
 6310SOL     OW19828   1.207   0.151   5.550  0.4297  0.3114 -0.4937
 6310SOL    HW119829   1.250   0.165   5.461  2.0493  0.6290  0.3075
 6310SOL    HW219830   1.137   0.221   5.564  1.4582  1.4229 -0.7560
 6311SOL     OW19831   0.947   6.968   6.644 -0.0787  0.3102 -0.4087
 6311SOL    HW119832   0.912   6.881   6.679 -0.5858  0.4822 -0.4847
 6311SOL    HW219833   0.878   7.040   6.657  0.0676  0.5555 -0.9768
 6312SOL     OW19834   4.210   4.716   3.845 -0.1313 -0.0372 -0.4152
 6312SOL    HW119835   4.232   4.721   3.943 -1.2383 -1.9081 -0.0216
 6312SOL    HW219836   4.283   4.667   3.797  0.7404  1.4709 -0.6727
 6313SOL     OW19837   5.470   2.248   1.740 -0.2530  0.0948 -0.5020
 6313SOL    HW119838   5.498   2.182   1.670  0.2536  0.9901 -1.1689
 6313SOL    HW219839   5.436   2.331   1.696 -0.8111  0.3158  0.3218
 6314SOL     OW19840   3.529   4.090   3.070 -0.4094 -0.6040  0.0675
 6314SOL    HW119841   3.622   4.125   3.078 -0.7042  0.5889 -1.3333
 6314SOL    HW219842   3.497   4.060   3.160  1.4660 -1.4725  0.4982
 6315SOL     OW19843   4.917   6.119   3.808 -0.5078 -0.1111  0.6612
 6315SOL    HW119844   4.912   6.033   3.756  0.0722 -1.8283  3.2400
 6315SOL    HW219845   4.881   6.194   3.752  2.6832 -1.1847 -3.2668
 6316SOL     OW19846   0.405   1.095   2.026 -0.1240  0.0383  1.0307
 6316SOL    HW119847   0.490   1.042   2.034  0.2158  0.6700  1.6828
 6316SOL    HW219848   0.426   1.187   1.994 -0.8138 -0.4720 -1.0136
 6317SOL     OW19849   6.335   2.670   2.380 -0.5134  0.0773 -0.1888
 6317SOL    HW119850   6.376   2.672   2.472 -2.6417  0.4328  0.8217
 6317SOL    HW219851   6.251   2.615   2.383 -0.9834  0.6655 -1.7615
 6318SOL     OW19852   3.791   0.163   6.225 -0.1075  0.0401 -0.3738
 6318SOL    HW119853   3.813   0.155   6.322 -1.0484  1.5615 -0.0006
 6318SOL    HW219854   3.717   0.229   6.213 -0.5025 -0.6622 -2.0735
 6319SOL     OW19855   5.205   1.099   2.612  0.0485  0.4312 -0.0889
 6319SOL    HW119856   5.305   1.102   2.603 -0.1270  0.2884 -2.5551
 6319SOL    HW219857   5.176   1.168   2.678  1.6397  1.7431 -0.6809
 6320SOL     OW19858   2.461   2.394   0.691 -0.3546 -0.8141 -0.2608
 6320SOL    HW119859   2.390   2.457   0.660 -0.4536 -0.2454  1.0638
 6320SOL    HW219860   2.501   2.428   0.776  0.8320 -1.6305 -0.4645
 6321SOL     OW19861   1.576   1.201   3.558 -0.6827 -0.5969 -0.2183
 6321SOL    HW119862   1.564   1.118   3.612 -1.2805 -0.1775  0.3159
 6321SOL    HW219863   1.486   1.234   3.528 -0.4236 -0.3287 -0.7141
 6322SOL     OW19864   6.086   1.412   2.919  0.4385  0.8617 -0.1318
 6322SOL    HW119865   6.181   1.384   2.914 -0.0286 -0.4933 -2.5432
 6322SOL    HW219866   6.032   1.340   2.962  0.0611  0.2965 -1.5135
 6323SOL     OW19867   1.873   3.023   4.019 -0.7088  0.1584 -0.3375
 6323SOL    HW119868   1.813   3.091   3.977 -1.5223 -0.3422 -0.0095
 6323SOL    HW219869   1.921   3.065   4.096 -0.9180  0.4720 -0.3747
 6324SOL     OW19870   4.694   2.308   4.006  0.1424  0.0716  0.0599
 6324SOL    HW119871   4.640   2.389   3.980 -0.3695 -0.8731 -2.0183
 6324SOL    HW219872   4.632   2.232   4.025  0.6387  0.0455  1.7425
 6325SOL     OW19873   5.439   5.659   6.978 -0.9517  0.0045 -0.3727
 6325SOL    HW119874   5.414   5.750   7.011  0.6112  0.4930 -0.4636
 6325SOL    HW219875   5.515   5.624   7.032 -0.1535 -0.3387 -1.6740
 6326SOL     OW19876   5.838   0.824   3.733 -0.3841 -0.4032  0.9330
 6326SOL    HW119877   5.917   0.776   3.772  1.7079  0.8055 -1.4791
 6326SOL    HW219878   5.779   0.759   3.685 -0.9091 -1.3239  2.7448
 6327SOL     OW19879   1.039   2.438   3.380 -0.0756  0.2518 -0.3714
 6327SOL    HW119880   0.953   2.484   3.358 -0.9810 -1.8404 -1.5132
 6327SOL    HW219881   1.034   2.402   3.474 -0.8156 -0.5954 -0.7239
 6328SOL     OW19882   1.487   3.424   5.546  0.3660  0.1007  0.5763
 6328SOL    HW119883   1.430   3.501   5.519 -0.4901 -0.6790  0.0701
 6328SOL    HW219884   1.583   3.445   5.529  0.0955  0.8293 -0.0964
 6329SOL     OW19885   4.657   5.356   4.985  0.0377  0.3853 -0.2257
 6329SOL    HW119886   4.647   5.405   4.899  1.0754 -0.5488 -0.8958
 6329SOL    HW219887   4.651   5.257   4.969 -1.3613  0.2198  1.0060
 6330SOL     OW19888   6.883   6.557   3.598 -0.2777  0.3924  0.5542
 6330SOL    HW119889   6.883   6.495   3.677 -0.3904 -0.0367  0.2244
 6330SOL    HW219890   6.791   6.561   3.560 -0.0325 -0.1433 -0.1215
 6331SOL     OW19891   1.846   2.707   0.524 -0.2380  0.2703  0.2958
 6331SOL    HW119892   1.899   2.791   0.535  1.6912 -0.8587  0.2124
 6331SOL    HW219893   1.789   2.714   0.442  0.2377  1.3169  0.0345
 6332SOL     OW19894   3.977   0.886   2.547 -0.1604  0.1550 -0.6453
 6332SOL    HW119895   3.976   0.814   2.477 -0.4945  0.4211 -0.9192
 6332SOL    HW219896   4.070   0.898   2.581 -0.3498 -1.5076  0.5570
 6333SOL     OW19897   1.345   3.582   6.662  0.4076 -0.2713 -0.4148
 6333SOL    HW119898   1.266   3.601   6.604  1.2256 -0.4085 -1.6295
 6333SOL    HW219899   1.421   3.551   6.605  0.3198 -3.5833  1.0016
 6334SOL     OW19900   4.647   0.548   3.773  0.2781  0.5992 -0.4345
 6334SOL    HW119901   4.714   0.498   3.718 -0.1016 -0.8984  0.3980
 6334SOL    HW219902   4.556   0.510   3.758  0.1622  0.1255  1.1878
 6335SOL     OW19903   3.759   1.771   5.219 -1.0435  0.2124 -0.0592
 6335SOL    HW119904   3.718   1.852   5.177 -0.5840  0.2818 -0.3862
 6335SOL    HW219905   3.842   1.798   5.267  0.5499 -0.3879 -2.2818
 6336SOL     OW19906   3.174   4.656   0.485 -0.3221 -0.2948  0.3125
 6336SOL    HW119907   3.091   4.703   0.516  0.2120  1.1851 -0.4344
 6336SOL    HW219908   3.215   4.707   0.410 -0.2365 -2.4676 -1.2343
 6337SOL     OW19909   1.138   1.602   3.805 -0.1120  0.2091 -0.1288
 6337SOL    HW119910   1.166   1.686   3.851 -0.2437  0.4058 -0.4071
 6337SOL    HW219911   1.209   1.574   3.740  0.2542 -0.2846  0.4683
 6338SOL     OW19912   0.572   6.488   3.017  0.0403 -0.3165 -0.4938
 6338SOL    HW119913   0.631   6.457   3.092  0.0504 -0.1677 -0.4412
 6338SOL    HW219914   0.551   6.585   3.028 -2.2099 -0.8886  0.8486
 6339SOL     OW19915   2.461   6.785   0.883 -0.5945  0.8929  0.4156
 6339SOL    HW119916   2.411   6.732   0.815  1.7552  1.0020 -1.5615
 6339SOL    HW219917   2.518   6.724   0.938  0.4778  1.1044 -0.4179
 6340SOL     OW19918   1.685   0.506   3.174  0.0212 -0.2274  0.1666
 6340SOL    HW119919   1.686   0.419   3.124 -2.1471 -0.6747  0.7979
 6340SOL    HW219920   1.769   0.514   3.228  0.4265 -1.7558 -0.1799
 6341SOL     OW19921   1.420   4.729   6.200 -0.1342 -0.6835  0.2993
 6341SOL    HW119922   1.443   4.645   6.248  1.3769 -0.8385 -0.6356
 6341SOL    HW219923   1.466   4.806   6.244  0.2240 -0.6519 -0.1283
 6342SOL     OW19924   1.537   5.420   6.407 -0.1208 -0.3338  0.2792
 6342SOL    HW119925   1.557   5.336   6.357 -0.6382 -0.2669 -0.0465
 6342SOL    HW219926   1.623   5.459   6.442  0.2297 -0.5014 -0.3711
 6343SOL     OW19927   5.666   0.185   0.216  0.6385 -0.0777 -0.1629
 6343SOL    HW119928   5.623   0.210   0.130  0.6838  0.2326 -0.0966
 6343SOL    HW219929   5.613   0.113   0.261 -1.7794  2.5506  1.5541
 6344SOL     OW19930   4.518   1.366   4.966  0.2119  0.1051  0.2912
 6344SOL    HW119931   4.498   1.280   4.919 -0.1798 -0.5673  1.6431
 6344SOL    HW219932   4.439   1.426   4.961  0.6571  0.6156 -1.0843
 6345SOL     OW19933   6.509   0.618   0.090  0.1654 -0.1615 -0.0794
 6345SOL    HW119934   6.586   0.679   0.077 -0.3992  0.6134  0.1247
 6345SOL    HW219935   6.508   0.585   0.185  0.1926 -0.1073 -0.0607
 6346SOL     OW19936   1.553   4.768   4.636 -0.7346  0.2925  0.8503
 6346SOL    HW119937   1.566   4.696   4.568 -2.2904  0.1039  0.7091
 6346SOL    HW219938   1.580   4.735   4.726 -1.1145 -0.3572  0.7314
 6347SOL     OW19939   3.172   3.007   2.482  0.1445 -0.1500  0.5147
 6347SOL    HW119940   3.241   2.982   2.414 -0.7793 -0.2769 -0.4108
 6347SOL    HW219941   3.085   3.024   2.435 -1.0709 -2.2559  1.8370
 6348SOL     OW19942   0.566   1.141   5.244 -0.0917  0.1148  0.3887
 6348SOL    HW119943   0.518   1.227   5.264  1.0178  0.2809  2.6167
 6348SOL    HW219944   0.636   1.158   5.174 -1.8352  0.3014 -1.3979
 6349SOL     OW19945   4.086   1.140   6.776 -0.0073  0.4355  0.5893
 6349SOL    HW119946   4.021   1.124   6.701 -0.3737 -0.5510  1.1000
 6349SOL    HW219947   4.170   1.179   6.739  0.0786 -0.6731 -0.4397
 6350SOL     OW19948   6.771   0.478   4.516 -0.2248 -0.2559  0.2879
 6350SOL    HW119949   6.815   0.495   4.604  0.7364  0.6878 -0.3570
 6350SOL    HW219950   6.726   0.389   4.518 -0.3377 -0.1870  1.7767
 6351SOL     OW19951   6.992   6.443   3.859 -0.6889  0.5630 -0.1111
 6351SOL    HW119952   6.976   6.461   3.956 -2.1544  0.0044 -0.2130
 6351SOL    HW219953   6.925   6.377   3.826  0.7863 -0.4778 -1.1450
 6352SOL     OW19954   3.163   5.158   4.099 -0.5849  0.5474 -0.0254
 6352SOL    HW119955   3.125   5.247   4.073 -3.5638  0.1888  2.5122
 6352SOL    HW219956   3.170   5.153   4.199  1.2047 -1.4776 -0.1886
 6353SOL     OW19957   2.482   4.825   2.756  0.3294  0.3768 -0.1943
 6353SOL    HW119958   2.487   4.729   2.784 -2.1216  0.0375 -0.7071
 6353SOL    HW219959   2.506   4.833   2.660  0.5807  0.2910 -0.1394
 6354SOL     OW19960   4.463   1.288   0.791 -0.1769  0.5775 -0.0244
 6354SOL    HW119961   4.428   1.380   0.811 -2.8497 -0.2858 -0.2743
 6354SOL    HW219962   4.519   1.257   0.867  1.4356  2.6727 -0.2733
 6355SOL     OW19963   5.602   3.970   6.744  0.1143 -0.4953 -0.3287
 6355SOL    HW119964   5.537   3.958   6.669 -0.4232 -0.5482  0.1437
 6355SOL    HW219965   5.674   4.033   6.715 -0.1231 -0.4640 -0.8690
 6356SOL     OW19966   0.760   3.627   5.402  0.0796  0.0363 -0.1004
 6356SOL    HW119967   0.831   3.589   5.462 -0.1534  0.1175  0.2340
 6356SOL    HW219968   0.799   3.699   5.346  0.4048 -0.3343 -0.3601
 6357SOL     OW19969   5.201   6.016   1.468  0.1236 -0.0830  0.4630
 6357SOL    HW119970   5.118   6.004   1.413  0.8367 -0.8968 -0.4788
 6357SOL    HW219971   5.198   5.956   1.548  0.2819 -0.9480 -0.1623
 6358SOL     OW19972   2.486   5.836   1.095 -0.3257  0.0445 -0.4109
 6358SOL    HW119973   2.533   5.748   1.099 -0.3999  0.0217 -0.0143
 6358SOL    HW219974   2.550   5.910   1.113 -0.7606 -0.0890  2.0057
 6359SOL     OW19975   5.334   3.779   1.192 -0.0392  0.4077  0.1607
 6359SOL    HW119976   5.387   3.815   1.269  1.1716  0.0337 -0.4809
 6359SOL    HW219977   5.378   3.697   1.156 -0.1799  0.9699 -1.3786
 6360SOL     OW19978   1.873   5.212   4.892  0.0311  0.4249  0.4745
 6360SOL    HW119979   1.836   5.229   4.801  1.0903 -0.5985 -0.1849
 6360SOL    HW219980   1.834   5.276   4.957 -1.6185  0.4283 -0.4779
 6361SOL     OW19981   3.758   6.140   5.610 -0.0206 -0.6854  0.5847
 6361SOL    HW119982   3.665   6.119   5.641 -0.4221  1.0236  0.6566
 6361SOL    HW219983   3.770   6.239   5.607  1.5049 -0.8714 -0.3620
 6362SOL     OW19984   3.817   2.040   6.606  0.7023 -0.1520  1.0766
 6362SOL    HW119985   3.848   1.946   6.592 -1.5604 -0.5960 -2.3956
 6362SOL    HW219986   3.839   2.094   6.525 -2.6554  0.7983  0.6368
 6363SOL     OW19987   4.607   2.667   6.436  0.3481  0.1342 -0.4096
 6363SOL    HW119988   4.574   2.755   6.403 -1.0586  1.0975  3.0858
 6363SOL    HW219989   4.689   2.681   6.492  0.4545 -0.8377 -0.3096
 6364SOL     OW19990   1.615   5.020   4.957  0.0202  0.0942 -0.3963
 6364SOL    HW119991   1.646   5.091   5.020  0.4861  0.9732 -1.5591
 6364SOL    HW219992   1.690   4.993   4.897 -0.5429 -0.2966 -0.9491
 6365SOL     OW19993   1.120   4.692   0.615  0.4707 -0.3611 -0.5140
 6365SOL    HW119994   1.194   4.757   0.636 -0.9222  1.0204  0.2974
 6365SOL    HW219995   1.069   4.673   0.698  0.1459 -1.6334 -0.9891
 6366SOL     OW19996   6.191   3.891   3.869 -0.5214 -0.5132  0.3630
 6366SOL    HW119997   6.106   3.840   3.856 -0.9330 -0.1893  1.6396
 6366SOL    HW219998   6.206   3.908   3.966 -0.4968  1.9103  0.0133
 6367SOL     OW19999   2.144   4.565   5.223  0.3578  0.3871 -0.6124
 6367SOL    HW120000   2.052   4.601   5.235  0.3808  0.1126  0.4918
 6367SOL    HW220001   2.139   4.472   5.188  0.2712  0.9251 -2.1195
 6368SOL     OW20002   6.124   3.037   5.872  0.8943 -0.5218 -0.0272
 6368SOL    HW120003   6.029   3.069   5.868  0.6046 -1.4330 -1.0590
 6368SOL    HW220004   6.186   3.112   5.851  0.3674 -0.0629  0.0499
 6369SOL     OW20005   6.563   3.391   1.609 -0.0525  0.3123  0.6915
 6369SOL    HW120006   6.550   3.384   1.510  1.5963  0.6596  0.4246
 6369SOL    HW220007   6.483   3.353   1.656  0.1113 -2.0699 -0.7556
 6370SOL     OW20008   3.956   2.402   5.638  0.2792 -0.2750 -0.3926
 6370SOL    HW120009   3.906   2.317   5.621 -0.9203  0.2149  0.4402
 6370SOL    HW220010   3.967   2.414   5.737 -1.5472  1.5595 -0.3323
 6371SOL     OW20011   4.267   2.712   5.403 -0.0984 -0.5263  0.0041
 6371SOL    HW120012   4.283   2.802   5.362 -2.8921 -0.1169 -0.4148
 6371SOL    HW220013   4.230   2.650   5.333  0.0481 -1.4285  0.7102
 6372SOL     OW20014   1.434   1.575   4.050 -0.1728  0.0171  0.4597
 6372SOL    HW120015   1.414   1.477   4.061 -1.2080  0.1170 -0.3507
 6372SOL    HW220016   1.403   1.624   4.132  1.5584 -0.4584  1.4653
 6373SOL     OW20017   5.402   0.734   2.040 -0.2259 -1.0168  0.3571
 6373SOL    HW120018   5.478   0.768   1.984 -0.1347 -0.9996  0.4902
 6373SOL    HW220019   5.321   0.790   2.024  0.4354  0.4726  1.9997
 6374SOL     OW20020   5.348   3.353   0.270  0.3190 -0.1102 -0.2300
 6374SOL    HW120021   5.409   3.326   0.195 -0.3685  1.9660 -1.6419
 6374SOL    HW220022   5.255   3.362   0.236  0.1669  1.9095  0.5570
 6375SOL     OW20023   1.182   4.545   1.290  0.0898 -0.0235 -0.3783
 6375SOL    HW120024   1.112   4.474   1.287  2.7539 -3.1289  2.7269
 6375SOL    HW220025   1.193   4.578   1.384  2.0135  1.2162 -0.9668
 6376SOL     OW20026   6.301   4.746   3.998  0.5003  0.3198  0.5071
 6376SOL    HW120027   6.377   4.771   3.940  1.5462 -0.7402  1.3583
 6376SOL    HW220028   6.273   4.824   4.054 -0.5735  1.3645 -1.4177
 6377SOL     OW20029   0.461   0.909   4.271  0.5005  0.1599  0.2537
 6377SOL    HW120030   0.438   0.812   4.268  0.2149  0.2188 -2.6083
 6377SOL    HW220031   0.417   0.952   4.350  0.2181 -1.9087  1.2856
 6378SOL     OW20032   5.557   3.778   5.530  0.6213  0.2940 -0.3155
 6378SOL    HW120033   5.585   3.820   5.444  0.2271  0.3199 -0.4369
 6378SOL    HW220034   5.637   3.754   5.584  0.9050 -0.8725 -1.2314
 6379SOL     OW20035   0.543   1.978   3.131 -0.7343 -0.4696  0.7675
 6379SOL    HW120036   0.501   2.046   3.192 -0.5872  0.2884  0.0279
 6379SOL    HW220037   0.474   1.944   3.067 -0.4925 -0.0163  0.2571
 6380SOL     OW20038   1.040   5.844   1.786  0.0973 -0.0663 -0.4150
 6380SOL    HW120039   0.947   5.864   1.755  0.7747  1.9056 -1.3909
 6380SOL    HW220040   1.082   5.779   1.723 -0.2808 -0.1160 -0.6203
 6381SOL     OW20041   6.342   3.942   2.415  0.9448 -0.1146 -0.3249
 6381SOL    HW120042   6.351   3.979   2.323  0.7769  1.1301  0.1436
 6381SOL    HW220043   6.281   3.862   2.413 -0.1793  0.7331 -1.0818
 6382SOL     OW20044   6.237   3.528   2.606 -0.3885  0.4009 -0.0987
 6382SOL    HW120045   6.326   3.504   2.645  0.1610  2.3894 -0.0062
 6382SOL    HW220046   6.178   3.564   2.677 -1.1456 -0.5224 -0.2419
 6383SOL     OW20047   3.466   5.978   1.401 -0.0164 -0.1049 -0.5917
 6383SOL    HW120048   3.418   6.066   1.404  0.8170  0.3357  0.8933
 6383SOL    HW220049   3.492   5.958   1.307 -0.9766  0.8082 -1.0794
 6384SOL     OW20050   2.843   1.360   2.579 -0.0517 -0.1878  0.4443
 6384SOL    HW120051   2.853   1.270   2.622  0.4919 -0.1009  0.5081
 6384SOL    HW220052   2.797   1.423   2.642 -2.4640 -1.0003 -0.3949
 6385SOL     OW20053   0.891   3.173   6.554  0.0069 -0.5354  0.3960
 6385SOL    HW120054   0.909   3.085   6.510 -1.0243  0.7509 -2.9086
 6385SOL    HW220055   0.966   3.236   6.534  0.0281 -0.2105  1.4638
 6386SOL     OW20056   0.687   0.272   2.404 -0.0454 -0.2713  0.1559
 6386SOL    HW120057   0.690   0.371   2.395 -1.9178 -0.2913 -1.2465
 6386SOL    HW220058   0.754   0.231   2.341  0.5068  0.0740  0.5076
 6387SOL     OW20059   4.997   0.729   6.577  0.2108  0.2886 -0.4855
 6387SOL    HW120060   5.035   0.821   6.589  1.2751 -0.2665  0.5400
 6387SOL    HW220061   4.923   0.715   6.643 -1.1338  0.9943 -1.7863
 6388SOL     OW20062   2.490   1.127   2.481  0.3953 -0.1821  0.2580
 6388SOL    HW120063   2.437   1.042   2.485 -1.4964  0.9711  1.3610
 6388SOL    HW220064   2.587   1.106   2.472 -0.1958 -2.4112 -2.1811
 6389SOL     OW20065   1.830   6.492   1.833  0.0540  0.2945  0.2905
 6389SOL    HW120066   1.791   6.484   1.924 -0.6410  0.4275  0.0052
 6389SOL    HW220067   1.883   6.409   1.812 -0.6868 -0.2089  0.3912
 6390SOL     OW20068   0.239   2.764   2.573 -0.0689  0.0263 -0.1862
 6390SOL    HW120069   0.203   2.758   2.666  3.0480  0.2080  1.1656
 6390SOL    HW220070   0.226   2.856   2.538 -0.9636  0.0580  0.1977
 6391SOL     OW20071   6.950   2.885   2.770 -0.6243  0.0770 -0.2195
 6391SOL    HW120072   6.893   2.849   2.842  0.2249  0.9286  0.9253
 6391SOL    HW220073   6.918   2.852   2.681 -2.0828 -0.4585  0.4862
 6392SOL     OW20074   3.693   6.918   6.189  0.4781 -0.5164 -0.0786
 6392SOL    HW120075   3.695   7.014   6.219 -0.5256 -0.7121  0.6706
 6392SOL    HW220076   3.627   6.909   6.114 -0.0953 -0.7774  0.4537
 6393SOL     OW20077   6.267   6.633   4.537 -0.1202 -0.0509 -0.6203
 6393SOL    HW120078   6.249   6.562   4.606 -0.9719  0.1692 -0.6049
 6393SOL    HW220079   6.183   6.656   4.489  0.2584  0.5474 -1.0245
 6394SOL     OW20080   1.344   0.314   3.250 -0.1430  0.4485  0.6378
 6394SOL    HW120081   1.277   0.316   3.176 -0.1069 -2.3819  0.3999
 6394SOL    HW220082   1.435   0.332   3.213 -0.2370 -0.1208  0.1055
 6395SOL     OW20083   6.239   5.265   4.985 -0.1165 -0.6044 -0.1958
 6395SOL    HW120084   6.153   5.217   5.002  0.1743 -1.3489 -0.7439
 6395SOL    HW220085   6.282   5.287   5.073 -1.4909  0.9867  0.1132
 6396SOL     OW20086   1.981   3.152   4.248 -0.4060  0.2667  0.1966
 6396SOL    HW120087   2.033   3.238   4.250 -0.4417  0.2780  1.5964
 6396SOL    HW220088   1.919   3.149   4.326 -1.0005 -0.6825 -0.2977
 6397SOL     OW20089   3.772   3.999   6.201 -0.0326 -0.2151 -0.1882
 6397SOL    HW120090   3.762   3.965   6.108 -1.8571  0.0024 -0.1069
 6397SOL    HW220091   3.778   4.099   6.200  1.9838 -0.3078 -0.1905
 6398SOL     OW20092   5.069   3.160   3.520 -0.0135 -0.0464 -0.5549
 6398SOL    HW120093   5.153   3.128   3.477 -0.1173 -0.9385 -0.1100
 6398SOL    HW220094   5.002   3.085   3.523 -0.2391  0.1822  0.5775
 6399SOL     OW20095   5.313   3.788   0.309  0.5582  0.2558  0.3862
 6399SOL    HW120096   5.378   3.814   0.380  0.6241  2.5514 -0.4527
 6399SOL    HW220097   5.354   3.804   0.219 -0.7658  0.6727 -0.1578
 6400SOL     OW20098   5.422   6.408   5.053 -0.0826 -0.1739  0.1030
 6400SOL    HW120099   5.446   6.498   5.089  1.1584 -0.9429  1.3259
 6400SOL    HW220100   5.394   6.416   4.958  0.1148  1.4831  0.1583
 6401SOL     OW20101   3.947   3.356   5.415 -0.4265  0.2278 -0.2792
 6401SOL    HW120102   4.040   3.393   5.411 -0.1394 -0.4062  0.2881
 6401SOL    HW220103   3.881   3.430   5.401  0.1677  0.4310 -2.2930
 6402SOL     OW20104   5.971   1.847   3.359  0.1040 -0.3970  0.1990
 6402SOL    HW120105   5.961   1.943   3.385 -0.2469 -0.1191 -0.9062
 6402SOL    HW220106   6.055   1.835   3.307 -0.5589 -0.3822 -0.9211
 6403SOL     OW20107   6.674   0.974   1.353 -0.0332 -0.1969 -0.0505
 6403SOL    HW120108   6.608   0.914   1.308  0.9177 -0.5653 -0.9844
 6403SOL    HW220109   6.689   1.056   1.298  0.8530 -0.4699 -0.2265
 6404SOL     OW20110   5.954   2.437   1.009  0.7391 -0.0748  0.2291
 6404SOL    HW120111   5.967   2.348   1.053  2.0227 -0.5634 -1.0336
 6404SOL    HW220112   5.936   2.423   0.912  1.1807  1.0518 -0.0243
 6405SOL     OW20113   3.196   5.989   1.471 -0.3610 -0.6624 -0.1674
 6405SOL    HW120114   3.169   5.942   1.555  1.2572  0.6753  1.1857
 6405SOL    HW220115   3.286   5.957   1.443 -0.1072  0.1768 -0.3444
 6406SOL     OW20116   1.070   3.290   6.927  0.1660 -0.3256  0.2227
 6406SOL    HW120117   1.122   3.308   6.844  1.8137 -1.7071  0.8938
 6406SOL    HW220118   0.976   3.324   6.916  0.2015 -0.8524 -2.3408
 6407SOL     OW20119   1.555   1.680   0.794  0.2042  0.3319  0.5428
 6407SOL    HW120120   1.629   1.722   0.847 -0.7842  0.8830  1.5165
 6407SOL    HW220121   1.576   1.686   0.697  0.0249  3.3178  0.5922
 6408SOL     OW20122   3.361   1.128   6.120 -0.0036  0.1438 -0.2960
 6408SOL    HW120123   3.345   1.143   6.023  1.2591 -0.2356 -0.5803
 6408SOL    HW220124   3.339   1.212   6.171  0.8205  0.8647 -1.1006
 6409SOL     OW20125   0.522   4.157   3.452 -0.1999 -0.0286 -0.3951
 6409SOL    HW120126   0.441   4.102   3.472  1.0468 -1.3256  1.3845
 6409SOL    HW220127   0.600   4.096   3.435  0.8597  1.1759  0.0269
 6410SOL     OW20128   3.650   5.664   2.180 -0.1922 -0.4095 -0.2034
 6410SOL    HW120129   3.679   5.602   2.106 -0.8790 -1.1804  0.1488
 6410SOL    HW220130   3.551   5.679   2.172 -0.2741 -0.5162  0.5661
 6411SOL     OW20131   0.342   6.683   1.552  0.2399  0.1122  0.0431
 6411SOL    HW120132   0.441   6.673   1.570 -0.2311  0.0118  3.3501
 6411SOL    HW220133   0.327   6.752   1.481  2.6637  0.9807  0.2765
 6412SOL     OW20134   2.623   0.497   4.691 -0.4458 -0.2566  0.4573
 6412SOL    HW120135   2.541   0.441   4.685 -0.8113  0.3647 -0.6039
 6412SOL    HW220136   2.615   0.574   4.628  1.1950 -0.5029 -0.0991
 6413SOL     OW20137   6.530   5.275   5.456 -0.2230 -0.8497 -0.2016
 6413SOL    HW120138   6.611   5.319   5.496  1.1650 -0.6644 -2.9406
 6413SOL    HW220139   6.550   5.179   5.438  0.5346 -0.1907 -3.4341
 6414SOL     OW20140   6.826   1.951   4.571  0.2690  0.0043  0.5410
 6414SOL    HW120141   6.789   1.888   4.640  0.5312 -0.0190  0.6615
 6414SOL    HW220142   6.810   1.913   4.480  2.7907 -1.6057  0.6549
 6415SOL     OW20143   6.612   6.083   1.528 -0.0060  0.2901  0.4188
 6415SOL    HW120144   6.595   6.143   1.449 -2.3042 -0.3512  0.3437
 6415SOL    HW220145   6.553   6.110   1.604 -0.7417 -1.5356  0.5493
 6416SOL     OW20146   5.324   6.000   4.035 -0.0393  0.8374 -0.1953
 6416SOL    HW120147   5.379   6.046   3.966  0.2072  1.2284  0.2556
 6416SOL    HW220148   5.320   5.902   4.015  0.0492  0.9415 -0.7456
 6417SOL     OW20149   4.837   5.348   5.644 -0.5551 -0.2850 -0.3149
 6417SOL    HW120150   4.799   5.387   5.727 -2.4623 -2.9993  0.2020
 6417SOL    HW220151   4.925   5.305   5.664 -1.2561 -1.3960  0.4724
 6418SOL     OW20152   1.355   0.721   5.421  0.4132 -0.3323 -0.6379
 6418SOL    HW120153   1.391   0.773   5.344 -1.4171 -0.4755 -1.6255
 6418SOL    HW220154   1.256   0.713   5.414 -0.1325  1.4473  2.8497
 6419SOL     OW20155   3.838   3.558   5.661 -0.4483  0.2638  0.3222
 6419SOL    HW120156   3.777   3.518   5.592  0.2324  1.4074 -0.9814
 6419SOL    HW220157   3.932   3.554   5.629 -0.3898  3.2673 -0.1006
 6420SOL     OW20158   2.415   0.772   6.314 -0.3588 -0.0768  0.3692
 6420SOL    HW120159   2.343   0.841   6.301 -1.5043 -1.3237 -0.0818
 6420SOL    HW220160   2.504   0.816   6.307 -1.0072  1.8942  2.8920
 6421SOL     OW20161   5.754   4.179   3.652  0.4801 -0.2431 -0.3726
 6421SOL    HW120162   5.702   4.094   3.662 -0.6625  0.3818 -0.7757
 6421SOL    HW220163   5.790   4.186   3.559 -2.4016  1.2554 -1.5361
 6422SOL     OW20164   6.695   3.410   6.572  0.1345  0.5870 -0.4312
 6422SOL    HW120165   6.610   3.458   6.555  0.2413  0.7810 -0.4156
 6422SOL    HW220166   6.739   3.387   6.485  0.5323  1.3171 -0.4302
 6423SOL     OW20167   1.240   3.916   4.372 -0.0324 -0.1466 -0.1995
 6423SOL    HW120168   1.214   3.838   4.429 -0.4860 -0.7624 -1.2177
 6423SOL    HW220169   1.168   3.986   4.376  0.1000 -0.0308  0.2436
 6424SOL     OW20170   5.690   5.071   5.104  0.7991 -0.1161 -0.2613
 6424SOL    HW120171   5.597   5.105   5.093  0.0483 -1.6657  0.9370
 6424SOL    HW220172   5.708   5.002   5.034  1.5704  1.1103 -1.3374
 6425SOL     OW20173   1.556   4.082   5.701  0.4599  0.3238 -0.5534
 6425SOL    HW120174   1.549   4.137   5.785 -1.2985  0.1510 -0.5535
 6425SOL    HW220175   1.623   4.010   5.714  2.3961  2.0549 -0.3395
 6426SOL     OW20176   2.873   0.571   2.872 -0.3238  0.0434  0.2317
 6426SOL    HW120177   2.827   0.512   2.938  0.7547 -0.1529  0.8350
 6426SOL    HW220178   2.910   0.515   2.797  0.6985 -0.0658  0.8034
 6427SOL     OW20179   0.137   5.258   3.928  0.7780  0.3261  0.2264
 6427SOL    HW120180   0.105   5.313   3.850  0.7239  0.0986  0.0890
 6427SOL    HW220181   0.177   5.319   3.997  1.6583  0.4594 -0.3769
 6428SOL     OW20182   4.166   1.983   2.197  0.1199 -0.3127 -0.2282
 6428SOL    HW120183   4.148   1.970   2.294  2.0720 -1.9649 -0.0261
 6428SOL    HW220184   4.088   2.029   2.154 -0.3581  1.3595  2.2669
 6429SOL     OW20185   4.952   4.529   0.644 -0.9743 -0.0441 -0.2042
 6429SOL    HW120186   4.947   4.488   0.735 -1.2997  0.5320  0.0458
 6429SOL    HW220187   5.045   4.520   0.609 -0.4180  1.1423  0.8757
 6430SOL     OW20188   2.467   2.421   6.107 -0.6868  0.5722 -0.1577
 6430SOL    HW120189   2.548   2.385   6.153  1.4360 -0.2103 -4.1552
 6430SOL    HW220190   2.488   2.510   6.067 -1.4209 -0.0479 -2.0370
 6431SOL     OW20191   4.025   5.964   3.831 -0.4734 -0.4324  0.1303
 6431SOL    HW120192   4.026   5.867   3.809  1.6156 -0.5775  0.6500
 6431SOL    HW220193   4.090   6.013   3.773 -1.8048  0.7559 -0.4198
 6432SOL     OW20194   0.478   2.502   6.862  0.2609 -0.4932  0.0491
 6432SOL    HW120195   0.483   2.600   6.840  2.8425 -0.4347  0.6160
 6432SOL    HW220196   0.392   2.483   6.910 -1.4795  0.9698 -2.2655
 6433SOL     OW20197   3.501   4.588   6.634 -0.3939  0.2247 -0.1522
 6433SOL    HW120198   3.509   4.588   6.733 -2.7045  0.7516  0.0956
 6433SOL    HW220199   3.472   4.497   6.603 -0.3669  0.2520 -0.2581
 6434SOL     OW20200   5.879   0.938   4.148  0.3126  0.4058  0.0636
 6434SOL    HW120201   5.909   0.899   4.235 -2.4417 -0.6755  0.6387
 6434SOL    HW220202   5.860   1.035   4.160 -1.2257  0.0173  1.0776
 6435SOL     OW20203   5.897   5.903   2.959 -0.7699 -0.1536 -0.6217
 6435SOL    HW120204   5.817   5.843   2.963 -1.3403  0.5013 -1.6005
 6435SOL    HW220205   5.968   5.861   2.902 -1.0482 -0.0451 -1.0537
 6436SOL     OW20206   6.947   3.351   3.903 -0.9957  0.4309 -0.1380
 6436SOL    HW120207   6.970   3.256   3.881  0.7856  0.9825 -0.8956
 6436SOL    HW220208   6.936   3.361   4.002 -0.5549 -0.4551  0.0128
 6437SOL     OW20209   3.970   2.209   1.404 -0.3862  0.1732  0.3592
 6437SOL    HW120210   3.971   2.112   1.427  1.4311  0.2263  0.6758
 6437SOL    HW220211   3.876   2.242   1.401 -1.1021 -1.8272 -0.8181
 6438SOL     OW20212   5.846   5.090   5.313 -0.2727 -0.0883  0.1504
 6438SOL    HW120213   5.841   5.187   5.337  1.9489  0.4131 -1.1319
 6438SOL    HW220214   5.781   5.070   5.240 -1.7099  0.0861  1.3402
 6439SOL     OW20215   5.094   1.999   5.547 -0.2982  0.5180 -0.0749
 6439SOL    HW120216   5.059   2.091   5.530  1.4390  1.0087 -1.3167
 6439SOL    HW220217   5.165   1.978   5.480 -0.0942 -1.4312  0.6909
 6440SOL     OW20218   3.885   2.356   6.984 -0.6792  0.5559 -0.2356
 6440SOL    HW120219   3.834   2.426   6.933 -1.9133 -0.0348  0.1311
 6440SOL    HW220220   3.877   2.269   6.936 -1.0721  0.1925  0.4809
 6441SOL     OW20221   4.400   2.168   5.238 -0.6420 -0.6154  0.3107
 6441SOL    HW120222   4.317   2.173   5.182  0.9590 -1.3254 -2.3452
 6441SOL    HW220223   4.433   2.073   5.241  1.7359  0.0478 -1.4930
 6442SOL     OW20224   0.125   1.855   5.690 -0.7602  0.1376  0.4564
 6442SOL    HW120225   0.085   1.918   5.623  0.9833  0.7711 -0.0331
 6442SOL    HW220226   0.078   1.866   5.778 -2.1337  0.3057 -0.2815
 6443SOL     OW20227   3.589   0.284   1.378  0.4202  0.1462  0.2953
 6443SOL    HW120228   3.579   0.208   1.314 -1.0705 -1.1989  1.9847
 6443SOL    HW220229   3.508   0.342   1.374 -1.1211 -1.5822  2.7954
 6444SOL     OW20230   4.003   0.626   5.053 -0.0237  0.2431  0.2080
 6444SOL    HW120231   3.937   0.574   4.999 -1.2444  0.3216  1.5692
 6444SOL    HW220232   4.083   0.569   5.071  0.0419 -0.0560 -0.9755
 6445SOL     OW20233   0.335   1.534   0.024 -0.4147  0.6306  0.4459
 6445SOL    HW120234   0.243   1.517  -0.012  0.3391 -0.6622 -0.9940
 6445SOL    HW220235   0.394   1.567  -0.050  0.7539 -0.4105  0.8914
 6446SOL     OW20236   3.648   1.259   4.833  0.0558  0.0867 -0.2555
 6446SOL    HW120237   3.648   1.188   4.764  0.1133 -1.0926  0.9188
 6446SOL    HW220238   3.556   1.271   4.870  0.4206 -0.9131  1.0456
 6447SOL     OW20239   1.420   6.873   6.327  0.2178 -0.1407  0.0871
 6447SOL    HW120240   1.383   6.890   6.235  2.3549  1.6135 -0.5331
 6447SOL    HW220241   1.392   6.946   6.389  0.8230  0.0334  0.1644
 6448SOL     OW20242   6.030   4.816   6.796  0.3049  0.5287  0.1980
 6448SOL    HW120243   6.067   4.724   6.810  1.4463  1.0941  1.0868
 6448SOL    HW220244   5.960   4.813   6.725 -0.3412 -1.1857  0.8438
 6449SOL     OW20245   6.113   1.816   4.602  0.1932  0.3877 -0.0694
 6449SOL    HW120246   6.129   1.737   4.662 -0.4850  0.1302 -0.2264
 6449SOL    HW220247   6.200   1.845   4.562  0.2839 -1.0086 -0.9349
 6450SOL     OW20248   2.507   2.777   1.687  0.4062  0.0902 -0.0148
 6450SOL    HW120249   2.601   2.747   1.706  0.4116  0.5839  0.7988
 6450SOL    HW220250   2.461   2.709   1.630  1.1158 -0.3735 -0.0474
 6451SOL     OW20251   0.623   3.620   0.815  0.4032 -0.2987  0.0975
 6451SOL    HW120252   0.626   3.714   0.849  2.4578 -0.4214  0.3763
 6451SOL    HW220253   0.614   3.621   0.715 -0.8469  0.1354  0.1886
 6452SOL     OW20254   4.170   1.740   1.598 -0.1140  0.0311  0.3316
 6452SOL    HW120255   4.160   1.707   1.692 -0.2195 -0.6173  0.1020
 6452SOL    HW220256   4.171   1.661   1.536 -2.7388  0.5477 -0.4629
 6453SOL     OW20257   5.878   1.709   2.702 -0.1950  0.7074  0.2046
 6453SOL    HW120258   5.919   1.619   2.692  0.9817  1.3262 -0.8000
 6453SOL    HW220259   5.814   1.708   2.778 -1.5199 -1.4325 -0.8411
 6454SOL     OW20260   2.298   5.753   1.863  0.4938 -0.1329 -0.2151
 6454SOL    HW120261   2.251   5.802   1.790 -1.9035 -0.8662  0.7356
 6454SOL    HW220262   2.272   5.791   1.952  0.7246 -1.3519  0.4088
 6455SOL     OW20263   2.483   2.860   1.289  0.4645 -0.0139  0.1498
 6455SOL    HW120264   2.489   2.940   1.350  2.2828  0.6460 -0.8042
 6455SOL    HW220265   2.447   2.782   1.340 -0.9217  1.2730  1.2410
 6456SOL     OW20266   4.753   5.761   5.746  0.2374 -0.0018  0.4167
 6456SOL    HW120267   4.724   5.668   5.726 -3.6108  0.3895  3.0364
 6456SOL    HW220268   4.747   5.777   5.845  1.3451  2.8799  0.1213
 6457SOL     OW20269   5.806   2.401   2.568 -0.2904  0.0478 -0.2285
 6457SOL    HW120270   5.840   2.495   2.576 -0.7878  0.2248 -0.1414
 6457SOL    HW220271   5.856   2.342   2.632  0.2670  0.1820 -0.5318
 6458SOL     OW20272   1.897   6.605   3.431 -0.1714 -0.1625  0.4623
 6458SOL    HW120273   1.983   6.585   3.383  0.4650  1.8039  0.7106
 6458SOL    HW220274   1.888   6.544   3.509  0.5902 -0.9376 -0.0335
 6459SOL     OW20275   4.064   5.779   3.298 -0.4822  0.3135  0.4875
 6459SOL    HW120276   4.117   5.708   3.344  2.8548  1.3013 -1.4781
 6459SOL    HW220277   4.006   5.738   3.229 -0.5944 -0.6650  1.1438
 6460SOL     OW20278   0.462   6.869   6.603 -0.5311 -0.2027 -0.7380
 6460SOL    HW120279   0.364   6.869   6.582 -0.8263  0.4961  0.5341
 6460SOL    HW220280   0.475   6.844   6.699  0.3547  2.0360 -0.2065
 6461SOL     OW20281   2.938   4.665   5.802 -0.4751  0.5945  0.2951
 6461SOL    HW120282   2.867   4.631   5.740 -0.6146 -0.0643  0.8069
 6461SOL    HW220283   3.025   4.669   5.753 -0.7938  1.0980 -0.2446
 6462SOL     OW20284   2.024   1.004   3.613 -0.1644 -0.0282  0.1105
 6462SOL    HW120285   1.973   1.086   3.588  0.9802  0.1589 -1.7941
 6462SOL    HW220286   1.961   0.938   3.655 -1.5001  1.0584 -0.1117
 6463SOL     OW20287   3.863   2.059   0.021  0.5447  0.2355  0.1759
 6463SOL    HW120288   3.840   2.024   0.111  2.0559  0.5518  0.7130
 6463SOL    HW220289   3.922   1.994  -0.027  3.0079  1.7169  1.0118
 6464SOL     OW20290   5.381   3.906   6.593  0.3043  0.0453 -0.4107
 6464SOL    HW120291   5.330   3.956   6.663 -0.7479 -0.8650 -0.5231
 6464SOL    HW220292   5.358   3.809   6.597  1.2869 -0.2301 -1.1183
 6465SOL     OW20293   2.438   1.744   3.909 -0.2325 -0.7276 -0.1444
 6465SOL    HW120294   2.455   1.820   3.845 -1.2504 -0.5595 -0.2351
 6465SOL    HW220295   2.347   1.755   3.950  0.3236 -0.9512  1.1835
 6466SOL     OW20296   5.433   2.513   5.449 -0.0590  0.4705 -0.0499
 6466SOL    HW120297   5.515   2.456   5.460 -1.8395 -2.3627 -0.4669
 6466SOL    HW220298   5.448   2.578   5.374  1.6595 -0.2427 -0.3889
 6467SOL     OW20299   5.562   1.515   0.764 -0.2126 -0.1537 -0.2187
 6467SOL    HW120300   5.653   1.540   0.797  0.6979 -0.8314 -2.0500
 6467SOL    HW220301   5.527   1.587   0.704 -0.5695 -0.2220 -0.0948
 6468SOL     OW20302   0.650   6.324   1.849  0.3331 -0.0563  0.5092
 6468SOL    HW120303   0.669   6.400   1.911  0.4809  0.9474 -0.7479
 6468SOL    HW220304   0.589   6.353   1.776  0.2871 -1.1742  0.0726
 6469SOL     OW20305   6.119   5.149   3.321 -0.2762 -0.1250 -0.2357
 6469SOL    HW120306   6.158   5.074   3.268 -0.8316  0.5643 -1.6512
 6469SOL    HW220307   6.192   5.207   3.356  0.0923 -0.5794 -0.2452
 6470SOL     OW20308   5.382   3.037   3.900  0.4256 -0.2498 -0.0001
 6470SOL    HW120309   5.438   2.968   3.946  1.5983  0.9416  0.4268
 6470SOL    HW220310   5.388   3.124   3.949  1.6546  1.0586 -2.2544
 6471SOL     OW20311   2.468   3.212   1.241  0.8080  0.6251 -0.1515
 6471SOL    HW120312   2.561   3.177   1.238  0.5711 -0.0687  0.4900
 6471SOL    HW220313   2.429   3.212   1.149  0.8192 -0.7919 -0.1775
 6472SOL     OW20314   0.394   3.306   0.141  0.3402  0.0713  0.5865
 6472SOL    HW120315   0.310   3.324   0.090  1.1509 -1.4736 -1.4618
 6472SOL    HW220316   0.403   3.207   0.157  2.5099 -0.0266 -0.7560
 6473SOL     OW20317   1.954   5.934   1.928  0.0740  1.7313  0.1824
 6473SOL    HW120318   2.025   5.957   1.861 -0.1275  1.5161 -0.1072
 6473SOL    HW220319   1.967   5.989   2.010  1.3419  0.8043  0.6387
 6474SOL     OW20320   6.137   3.944   2.863 -0.6406 -0.0442  0.2084
 6474SOL    HW120321   6.170   3.989   2.780 -0.2978 -1.4943 -0.4757
 6474SOL    HW220322   6.039   3.923   2.852 -0.3919 -1.0516 -0.2396
 6475SOL     OW20323   3.181   6.456   4.141  0.0079 -0.2366  0.0582
 6475SOL    HW120324   3.093   6.423   4.173 -0.6179 -0.7878 -2.0615
 6475SOL    HW220325   3.254   6.397   4.176 -0.7590 -1.6278 -0.6196
 6476SOL     OW20326   2.346   0.138   0.179 -0.3884  0.0557 -0.2187
 6476SOL    HW120327   2.296   0.204   0.235 -1.7226 -1.2624  0.1940
 6476SOL    HW220328   2.283   0.090   0.118  0.6037 -0.5946 -0.7616
 6477SOL     OW20329   4.187   0.215   2.064 -0.2493  0.5914 -0.7470
 6477SOL    HW120330   4.196   0.123   2.027  1.0440 -0.0599  1.0778
 6477SOL    HW220331   4.277   0.258   2.071 -0.9079  2.4099 -2.4500
 6478SOL     OW20332   5.637   0.235   4.374 -0.3021  0.0980 -0.8808
 6478SOL    HW120333   5.566   0.304   4.358 -0.8990 -0.2808  0.1112
 6478SOL    HW220334   5.689   0.222   4.289 -0.4313  1.4687 -1.2044
 6479SOL     OW20335   5.732   1.867   5.770  0.5001 -0.0384 -0.4496
 6479SOL    HW120336   5.789   1.914   5.703 -1.4473  1.5454 -1.0913
 6479SOL    HW220337   5.790   1.813   5.831  2.4195 -0.8422 -2.8165
 6480SOL     OW20338   2.912   4.674   1.644 -0.2688 -0.0934  0.3409
 6480SOL    HW120339   3.005   4.648   1.618  0.2178  1.3148  0.5654
 6480SOL    HW220340   2.885   4.624   1.726 -0.4135 -1.8262 -0.7090
 6481SOL     OW20341   3.126   1.851   5.194 -0.4966  0.1591 -0.0364
 6481SOL    HW120342   3.115   1.937   5.244 -1.0668 -0.5445  1.1060
 6481SOL    HW220343   3.114   1.774   5.257  0.0112 -0.7676 -1.0289
 6482SOL     OW20344   5.139   5.468   0.465 -0.0746 -0.4740 -0.0695
 6482SOL    HW120345   5.102   5.375   0.469 -0.7958 -0.3505 -2.2400
 6482SOL    HW220346   5.233   5.466   0.433  0.3107 -0.5128  1.0418
 6483SOL     OW20347   3.593   6.380   2.402 -0.0217  0.0076  0.2508
 6483SOL    HW120348   3.559   6.413   2.490  0.1382 -0.0141  0.3209
 6483SOL    HW220349   3.542   6.299   2.374  1.3073 -1.2748  1.3420
 6484SOL     OW20350   6.604   6.071   2.129 -0.6051 -0.1690 -0.2695
 6484SOL    HW120351   6.597   6.171   2.134 -2.0210 -0.2810  1.0158
 6484SOL    HW220352   6.643   6.037   2.215  0.2882 -0.7034 -0.8784
 6485SOL     OW20353   2.756   2.860   0.556  0.0356 -0.2697 -0.3844
 6485SOL    HW120354   2.776   2.777   0.504 -0.6435 -0.3839 -0.4645
 6485SOL    HW220355   2.661   2.860   0.585  0.5418 -0.4730  1.3590
 6486SOL     OW20356   0.726   4.012   3.635 -0.9677 -0.0107  0.1446
 6486SOL    HW120357   0.675   4.091   3.669  0.7141  1.3636 -0.4205
 6486SOL    HW220358   0.716   4.004   3.536 -0.6994 -0.1936  0.1289
 6487SOL     OW20359   1.728   1.631   5.277 -1.0327  0.3532  0.3417
 6487SOL    HW120360   1.827   1.635   5.260 -0.8406 -1.6416  0.7754
 6487SOL    HW220361   1.680   1.610   5.191 -0.6850 -2.5949  0.7767
 6488SOL     OW20362   0.613   1.351   6.428  0.2590  0.0422  0.0140
 6488SOL    HW120363   0.667   1.270   6.450 -0.3010 -0.0810  0.9650
 6488SOL    HW220364   0.651   1.395   6.347  1.4797 -0.3222  0.3717
 6489SOL     OW20365   5.541   1.127   6.387 -0.0189  0.0534  0.0508
 6489SOL    HW120366   5.614   1.169   6.442  1.8086 -2.4040 -0.3296
 6489SOL    HW220367   5.559   1.143   6.290  1.4334 -2.5315 -0.1729
 6490SOL     OW20368   1.881   3.620   1.149  0.2645 -0.3050 -0.1888
 6490SOL    HW120369   1.946   3.555   1.188  1.6417  1.7981  1.2482
 6490SOL    HW220370   1.930   3.685   1.090 -0.7056  0.6754  0.0419
 6491SOL     OW20371   5.406   0.390   4.378  0.2853  0.2654  0.0300
 6491SOL    HW120372   5.372   0.411   4.286  1.8944  0.5458 -0.5340
 6491SOL    HW220373   5.351   0.439   4.445 -0.6289  0.4251 -0.8111
 6492SOL     OW20374   1.123   0.729   0.614 -0.0537 -0.4042  0.1621
 6492SOL    HW120375   1.217   0.697   0.603  0.1081 -0.4429  1.5851
 6492SOL    HW220376   1.072   0.712   0.529  0.7038 -2.0926  0.0185
 6493SOL     OW20377   2.400   6.760   1.621 -0.6131 -0.4614  0.0031
 6493SOL    HW120378   2.369   6.670   1.649 -0.2064 -0.3110  0.9632
 6493SOL    HW220379   2.450   6.753   1.534  0.7529 -1.3963  0.8316
 6494SOL     OW20380   4.449   6.032   5.040 -0.4932 -0.2919 -0.2079
 6494SOL    HW120381   4.465   5.958   4.974 -1.4422  0.0422 -0.8425
 6494SOL    HW220382   4.528   6.042   5.099 -0.0802 -1.3684 -0.5555
 6495SOL     OW20383   1.040   4.086   4.285 -0.0185  0.0146  0.0868
 6495SOL    HW120384   0.949   4.126   4.300  0.1975  0.2210  0.9135
 6495SOL    HW220385   1.039   4.032   4.201 -0.7298  0.5344 -0.2546
 6496SOL     OW20386   0.982   3.106   0.947 -0.2923  0.2340 -0.5545
 6496SOL    HW120387   0.883   3.122   0.942 -0.2940  0.5568  0.3613
 6496SOL    HW220388   1.005   3.069   1.036  0.5730  1.3477 -0.3039
 6497SOL     OW20389   0.094   1.144   3.979 -0.1440 -0.3969 -0.4223
 6497SOL    HW120390   0.176   1.086   3.983 -1.8409 -3.1393 -2.4454
 6497SOL    HW220391   0.076   1.170   3.884 -1.0030  1.2075  0.1429
 6498SOL     OW20392   0.770   2.072   3.448 -0.0981  0.1639  0.1647
 6498SOL    HW120393   0.689   2.111   3.492  0.1411  1.2209 -0.2938
 6498SOL    HW220394   0.831   2.034   3.518 -0.7344 -0.1587  0.5517
 6499SOL     OW20395   3.967   5.426   2.799 -0.2903  0.1548  0.2524
 6499SOL    HW120396   3.998   5.332   2.782 -0.3724 -0.0761  1.3044
 6499SOL    HW220397   3.938   5.467   2.713  0.4120 -0.5391 -0.3373
 6500SOL     OW20398   4.667   0.691   5.620  1.1045 -0.3619  0.2580
 6500SOL    HW120399   4.574   0.673   5.652  0.7898 -0.2402 -0.5650
 6500SOL    HW220400   4.731   0.680   5.696  0.4851 -1.0050  0.7023
 6501SOL     OW20401   2.186   1.268   0.676 -0.0335  0.2808  0.5103
 6501SOL    HW120402   2.239   1.315   0.746  1.8814 -0.9035 -0.0760
 6501SOL    HW220403   2.155   1.335   0.608  1.3637  0.9236  0.4696
 6502SOL     OW20404   3.201   5.446   2.141 -0.0211  0.1138  0.0158
 6502SOL    HW120405   3.111   5.412   2.169  0.4948 -0.2060  1.3221
 6502SOL    HW220406   3.229   5.521   2.200  1.6075 -1.3548  1.1869
 6503SOL     OW20407   4.976   5.700   1.724 -0.0590 -0.4897  0.0354
 6503SOL    HW120408   4.973   5.665   1.818  0.8101 -0.9273 -0.0865
 6503SOL    HW220409   5.058   5.757   1.713  0.1956 -0.9800 -0.6362
 6504SOL     OW20410   0.924   6.816   2.931  0.1118 -0.8443 -0.3978
 6504SOL    HW120411   0.990   6.760   2.982 -0.3968 -0.4942  0.6736
 6504SOL    HW220412   0.939   6.803   2.833  2.4908  0.0367 -0.2366
 6505SOL     OW20413   6.917   2.202   0.357  0.2885 -0.4709 -0.1912
 6505SOL    HW120414   6.962   2.224   0.444 -2.7146 -0.0877  1.3731
 6505SOL    HW220415   6.883   2.286   0.315  1.3314 -0.7057 -1.5798
 6506SOL     OW20416   0.866   1.748   3.967  0.0596 -0.1636 -0.4948
 6506SOL    HW120417   0.860   1.749   3.867  0.1496  0.9368 -0.5068
 6506SOL    HW220418   0.962   1.749   3.995  0.0569 -1.7024 -0.3809
 6507SOL     OW20419   0.756   1.864   3.255 -0.9401 -0.5411  0.3454
 6507SOL    HW120420   0.789   1.921   3.331  1.5471 -0.3051 -0.8333
 6507SOL    HW220421   0.674   1.906   3.216 -0.4099  1.0861  0.8902
 6508SOL     OW20422   0.586   0.269   6.971  0.5302 -0.1771  0.8966
 6508SOL    HW120423   0.556   0.337   7.038 -0.9800  0.0374  0.0389
 6508SOL    HW220424   0.510   0.209   6.947  0.9601 -0.1243 -0.7732
 6509SOL     OW20425   6.102   2.061   4.194  0.1502 -0.5325 -0.0061
 6509SOL    HW120426   6.200   2.059   4.178  0.2202  1.2435  0.0139
 6509SOL    HW220427   6.056   2.105   4.117 -0.5200 -0.4089  0.4519
 6510SOL     OW20428   6.605   2.772   0.747  0.3810  0.4723 -0.9655
 6510SOL    HW120429   6.693   2.753   0.703  1.0687 -1.4909  1.0608
 6510SOL    HW220430   6.543   2.696   0.731  0.0456  0.5464 -0.0395
 6511SOL     OW20431   2.577   3.281   5.356  0.3725  0.0248 -0.7154
 6511SOL    HW120432   2.487   3.256   5.319 -0.0440 -0.1341  0.3758
 6511SOL    HW220433   2.633   3.198   5.366  0.6860  0.1372 -1.4963
 6512SOL     OW20434   1.903   3.215   4.505  0.3259  0.2228 -0.2221
 6512SOL    HW120435   1.973   3.278   4.540 -1.4307  1.2490  1.6925
 6512SOL    HW220436   1.929   3.121   4.527  1.0911  0.5913  0.5148
 6513SOL     OW20437   2.852   3.443   6.752  0.1693 -0.0213  0.6420
 6513SOL    HW120438   2.807   3.386   6.683 -0.5508  0.8289  0.3927
 6513SOL    HW220439   2.942   3.470   6.719  0.7360 -1.4190  0.9782
 6514SOL     OW20440   4.742   2.787   2.942 -0.4525  0.0093 -0.1249
 6514SOL    HW120441   4.822   2.842   2.970  0.4871 -1.4783  0.2297
 6514SOL    HW220442   4.697   2.831   2.865  1.9704 -0.1398 -1.7472
 6515SOL     OW20443   2.296   1.105   4.399  0.2581 -0.5092 -0.1136
 6515SOL    HW120444   2.213   1.160   4.409 -0.6357 -1.7780 -0.2925
 6515SOL    HW220445   2.285   1.040   4.323  0.7650 -1.8025  0.8686
 6516SOL     OW20446   1.406   4.280   5.114 -0.7167  0.2152 -0.3748
 6516SOL    HW120447   1.445   4.256   5.203 -0.9821  0.2134 -0.2575
 6516SOL    HW220448   1.330   4.343   5.127 -0.6317  0.3676 -0.6155
 6517SOL     OW20449   3.829   0.373   4.710  0.1142  0.0448 -0.0688
 6517SOL    HW120450   3.740   0.388   4.754  0.4157  0.9700  0.2522
 6517SOL    HW220451   3.826   0.289   4.657 -2.0211  1.6054 -2.6841
 6518SOL     OW20452   0.183   1.599   5.746  0.0057 -0.1285  0.1992
 6518SOL    HW120453   0.145   1.688   5.720 -1.0086  0.1937  2.5830
 6518SOL    HW220454   0.277   1.593   5.713  0.3803  2.1739  0.6757
 6519SOL     OW20455   6.203   2.749   6.731  0.0506 -0.0407 -0.1151
 6519SOL    HW120456   6.215   2.670   6.791  2.0726 -0.1761 -0.6125
 6519SOL    HW220457   6.228   2.832   6.781  0.8550 -0.0584 -0.4715
 6520SOL     OW20458   5.777   0.707   4.049 -0.2571  0.6924  0.4506
 6520SOL    HW120459   5.814   0.792   4.085 -0.4559  1.3495 -0.8303
 6520SOL    HW220460   5.839   0.669   3.981 -0.6553  0.3714  0.2571
 6521SOL     OW20461   2.278   5.954   6.374  0.5094 -0.4528 -0.1371
 6521SOL    HW120462   2.221   5.905   6.439  2.0787 -1.0731  0.8285
 6521SOL    HW220463   2.271   6.053   6.391 -0.6841 -0.4796 -0.4107
 6522SOL     OW20464   0.778   4.465   0.848  0.3234  0.1016 -0.8306
 6522SOL    HW120465   0.722   4.539   0.885  0.9268 -0.0182  0.3455
 6522SOL    HW220466   0.719   4.396   0.806 -0.6829 -1.2388  2.5158
 6523SOL     OW20467   7.016   6.428   2.846  0.0697 -0.0717  0.1094
 6523SOL    HW120468   7.034   6.360   2.775 -0.3381  1.4174 -1.4858
 6523SOL    HW220469   7.040   6.390   2.936 -0.1744 -2.3041 -0.7029
 6524SOL     OW20470   4.698   0.590   2.465 -0.0411 -0.6489  0.3133
 6524SOL    HW120471   4.647   0.551   2.388 -1.0985 -0.9424  1.1432
 6524SOL    HW220472   4.643   0.661   2.508  1.2553  0.7575 -0.2537
 6525SOL     OW20473   1.344   4.217   1.078  0.4514  0.7648 -0.1467
 6525SOL    HW120474   1.283   4.182   1.007 -2.8274  1.7337  1.9403
 6525SOL    HW220475   1.351   4.316   1.070 -0.6413  0.9867  1.2846
 6526SOL     OW20476   0.512   5.578   1.686 -0.4304 -0.3795  0.1496
 6526SOL    HW120477   0.437   5.590   1.621 -1.3713 -0.1063  1.2546
 6526SOL    HW220478   0.513   5.483   1.718 -2.7624  0.4046  2.9567
 6527SOL     OW20479   0.473   6.022   2.353 -0.3739  0.0984  0.0469
 6527SOL    HW120480   0.455   5.953   2.283 -0.5754  0.6021 -0.4045
 6527SOL    HW220481   0.569   6.015   2.382 -0.7200 -1.2135  0.9494
 6528SOL     OW20482   6.079   5.505   5.456 -0.6391  0.4903  0.0996
 6528SOL    HW120483   6.051   5.595   5.422  2.0750  1.6408  0.6721
 6528SOL    HW220484   6.080   5.507   5.556  0.5004  0.2031  0.1038
 6529SOL     OW20485   6.518   6.392   6.973 -0.3241 -0.0684  1.0445
 6529SOL    HW120486   6.586   6.351   6.912 -0.5569 -0.0766  0.7877
 6529SOL    HW220487   6.491   6.326   7.043  1.0277  0.4141  2.0632
 6530SOL     OW20488   2.023   2.732   4.344 -0.3722 -0.0120 -0.5975
 6530SOL    HW120489   2.009   2.635   4.366 -0.8851  0.0831 -0.4847
 6530SOL    HW220490   1.934   2.777   4.337 -0.1005  0.8057  0.8991
 6531SOL     OW20491   2.959   3.421   3.560  0.1258  0.6243 -0.4617
 6531SOL    HW120492   2.980   3.514   3.588  2.1713 -0.4366  1.9713
 6531SOL    HW220493   2.862   3.403   3.574  0.0657  1.8309  0.9285
 6532SOL     OW20494   5.491   6.831   2.240  0.7115  0.3608  0.2699
 6532SOL    HW120495   5.395   6.840   2.266  0.4832 -0.3367 -0.2800
 6532SOL    HW220496   5.500   6.840   2.141  1.0331 -0.8016  0.1765
 6533SOL     OW20497   2.628   1.717   2.022  0.5045 -0.2998  0.3434
 6533SOL    HW120498   2.655   1.673   2.107  0.8378 -2.2227 -0.6822
 6533SOL    HW220499   2.707   1.727   1.962  0.0048 -0.5054 -0.3730
 6534SOL     OW20500   2.642   2.175   6.604 -0.1219  0.2888 -0.2375
 6534SOL    HW120501   2.659   2.183   6.506  3.4947  0.3601  0.2712
 6534SOL    HW220502   2.595   2.257   6.636  0.9289  1.4542 -1.5396
 6535SOL     OW20503   3.925   2.181   4.716 -0.1373  0.4755  0.0147
 6535SOL    HW120504   3.866   2.150   4.790 -0.5124  0.4825 -0.2772
 6535SOL    HW220505   3.982   2.105   4.685 -0.6231  0.2289 -0.2906
 6536SOL     OW20506   2.336   6.041   5.895 -0.4099  0.6140  0.0202
 6536SOL    HW120507   2.377   6.082   5.813  1.0048 -0.5481  0.0943
 6536SOL    HW220508   2.396   6.057   5.973 -1.3127  0.9501  0.6476
 6537SOL     OW20509   1.444   5.698   6.940 -0.3580  0.3458 -0.2066
 6537SOL    HW120510   1.537   5.698   6.901 -0.2339  2.1990 -0.0187
 6537SOL    HW220511   1.425   5.609   6.981  1.0541 -0.3136 -0.9063
 6538SOL     OW20512   5.510   0.285   6.808 -0.7218 -0.4275 -0.0616
 6538SOL    HW120513   5.483   0.292   6.712 -2.0748 -0.1060  0.3110
 6538SOL    HW220514   5.610   0.285   6.815 -0.6011 -0.3073 -1.4459
 6539SOL     OW20515   2.070   2.323   1.849 -0.1819  0.1206 -0.1422
 6539SOL    HW120516   2.123   2.241   1.832 -1.1729 -0.8661  1.2680
 6539SOL    HW220517   2.131   2.402   1.854  1.0846 -0.8823  0.8738
 6540SOL     OW20518   5.115   0.080   0.488 -0.0739  0.1846 -0.1582
 6540SOL    HW120519   5.020   0.056   0.510  0.4396 -0.0142  2.1653
 6540SOL    HW220520   5.120   0.178   0.466 -0.7319  0.3526  0.3996
 6541SOL     OW20521   2.683   1.781   5.525 -0.3669  0.3695 -0.2790
 6541SOL    HW120522   2.675   1.715   5.600  2.5630 -0.8056 -0.8403
 6541SOL    HW220523   2.648   1.739   5.441  0.5114 -0.0946 -0.4242
 6542SOL     OW20524   7.016   2.188   3.565  0.6449  0.6002 -0.4243
 6542SOL    HW120525   6.931   2.239   3.579  0.3558 -0.2127  0.9828
 6542SOL    HW220526   7.006   2.096   3.603  1.3612 -0.3317 -2.3588
 6543SOL     OW20527   1.041   5.414   0.285 -0.9468 -0.0446  0.2488
 6543SOL    HW120528   1.104   5.336   0.284 -1.2106 -0.2608  0.3881
 6543SOL    HW220529   1.075   5.484   0.347 -1.6918 -0.8722  1.6415
 6544SOL     OW20530   3.900   5.547   6.450 -0.2063 -0.2110 -0.2015
 6544SOL    HW120531   3.979   5.493   6.477  0.4177 -0.4801 -2.3712
 6544SOL    HW220532   3.840   5.492   6.392 -1.0455  0.5729 -0.1113
 6545SOL     OW20533   5.261   3.196   2.375  0.1008 -0.7042 -0.5826
 6545SOL    HW120534   5.327   3.218   2.303  0.1766  0.2964 -0.2197
 6545SOL    HW220535   5.300   3.220   2.464  0.1709 -2.3191 -0.1566
 6546SOL     OW20536   2.660   6.019   0.901  0.1851  0.2656 -0.2690
 6546SOL    HW120537   2.653   6.028   0.802  3.5833 -0.3995 -0.6629
 6546SOL    HW220538   2.701   6.102   0.939 -1.8948  0.8833  0.7644
 6547SOL     OW20539   2.956   1.853   5.529  0.1695 -0.4449  0.2829
 6547SOL    HW120540   2.857   1.850   5.538  0.0009 -2.4624 -1.3917
 6547SOL    HW220541   2.992   1.933   5.576 -2.3000  0.6559  0.4293
 6548SOL     OW20542   5.345   0.956   3.555 -0.2562 -0.5420  0.3200
 6548SOL    HW120543   5.277   0.928   3.622 -1.8195  1.0256 -0.5310
 6548SOL    HW220544   5.425   0.993   3.602 -0.7625 -0.6756  1.3095
 6549SOL     OW20545   1.236   5.321   5.663  0.0824  0.1774 -0.1625
 6549SOL    HW120546   1.163   5.323   5.594 -0.0819  0.1515  0.0112
 6549SOL    HW220547   1.200   5.352   5.751 -0.5650 -2.9206  0.7558
 6550SOL     OW20548   0.152   3.993   1.678 -0.0755 -0.4820 -0.3926
 6550SOL    HW120549   0.164   3.943   1.592 -1.7510 -1.4228 -0.1427
 6550SOL    HW220550   0.107   3.933   1.745 -1.3010  1.0508  0.2334
 6551SOL     OW20551   3.337   1.913   2.069  0.2082 -0.1507  0.2399
 6551SOL    HW120552   3.395   1.843   2.027  0.8620 -1.1528  2.5948
 6551SOL    HW220553   3.260   1.934   2.009  0.7915 -1.8166 -1.1813
 6552SOL     OW20554   1.245   6.901   4.776  0.0269  0.1762 -0.0107
 6552SOL    HW120555   1.326   6.949   4.810  0.1996  0.9850 -1.4815
 6552SOL    HW220556   1.216   6.942   4.690 -1.8876 -0.1857  0.4287
 6553SOL     OW20557   3.320   6.513   1.836  0.3178 -0.1099 -0.0403
 6553SOL    HW120558   3.342   6.556   1.924  2.8356  1.0764 -1.1385
 6553SOL    HW220559   3.346   6.417   1.839  0.8468  0.0403  0.3754
 6554SOL     OW20560   5.216   6.278   4.484  0.4180  0.0324  0.9103
 6554SOL    HW120561   5.270   6.229   4.553  0.9010 -0.7552 -0.0073
 6554SOL    HW220562   5.119   6.264   4.502  0.5456 -0.6955  1.0700
 6555SOL     OW20563   4.608   0.032   6.805 -0.5373 -0.2044 -0.5875
 6555SOL    HW120564   4.668   0.112   6.812 -0.7785 -0.0221 -0.6036
 6555SOL    HW220565   4.660  -0.050   6.828 -0.6720  0.1115  0.9334
 6556SOL     OW20566   2.215   1.397   3.580  0.3712  0.3157 -0.4940
 6556SOL    HW120567   2.204   1.452   3.498  2.0828  0.9979 -0.3272
 6556SOL    HW220568   2.231   1.301   3.555  0.0548  0.3733 -0.9174
 6557SOL     OW20569   2.383   1.397   3.024 -0.1956  0.0236  0.3577
 6557SOL    HW120570   2.324   1.343   3.085  1.0084 -1.8378 -0.0302
 6557SOL    HW220571   2.457   1.339   2.990  0.8864  1.8346 -0.5174
 6558SOL     OW20572   1.076   4.556   0.371  0.1906  0.3891  0.0071
 6558SOL    HW120573   1.103   4.590   0.461 -0.8316  1.7345 -0.1564
 6558SOL    HW220574   0.992   4.602   0.342 -0.4524 -1.2572 -0.9014
 6559SOL     OW20575   3.235   4.039   2.170  0.4711 -0.7577  0.1384
 6559SOL    HW120576   3.326   4.066   2.140  1.9860 -1.6308  3.4525
 6559SOL    HW220577   3.176   4.119   2.177  1.4864  0.0603 -0.5261
 6560SOL     OW20578   6.473   5.854   1.772 -0.0030 -0.2095  0.5576
 6560SOL    HW120579   6.541   5.783   1.756 -0.6041 -0.3943 -1.4344
 6560SOL    HW220580   6.515   5.929   1.824  1.9103 -0.0669 -1.0989
 6561SOL     OW20581   5.683   6.010   1.378 -0.3805 -0.2302 -0.2108
 6561SOL    HW120582   5.686   5.997   1.477 -0.7643 -1.6722 -0.3757
 6561SOL    HW220583   5.595   5.981   1.343  0.5010 -1.8154 -1.2397
 6562SOL     OW20584   4.375   1.561   6.247  0.1032 -0.0319  0.1763
 6562SOL    HW120585   4.427   1.509   6.179 -2.1609 -0.4205 -1.3845
 6562SOL    HW220586   4.394   1.524   6.339  1.1600 -1.3482 -0.5344
 6563SOL     OW20587   1.611   4.223   3.179 -0.1683  0.4803  0.2776
 6563SOL    HW120588   1.522   4.251   3.215  0.3570 -0.4909  2.4758
 6563SOL    HW220589   1.604   4.131   3.139 -0.0329  0.1557  0.9946
 6564SOL     OW20590   6.221   1.476   5.693  0.6829 -0.0350 -0.6784
 6564SOL    HW120591   6.235   1.550   5.627  0.3821  0.4321 -0.2261
 6564SOL    HW220592   6.305   1.463   5.746  0.5783  0.3216 -0.4217
 6565SOL     OW20593   0.238   6.292   5.050  0.1506  0.2544 -0.3161
 6565SOL    HW120594   0.296   6.344   4.987 -0.7573  0.6755 -0.8148
 6565SOL    HW220595   0.222   6.201   5.013  1.6635 -0.3811  0.5130
 6566SOL     OW20596   3.710   0.645   5.894 -0.4712 -0.1359  0.4848
 6566SOL    HW120597   3.730   0.582   5.969  2.3430  0.2461  0.1702
 6566SOL    HW220598   3.667   0.727   5.930 -1.0304 -0.7963  1.3675
 6567SOL     OW20599   0.581   4.469   4.432  0.1304  0.6774 -0.3443
 6567SOL    HW120600   0.482   4.484   4.423  0.1407  1.0545  0.1443
 6567SOL    HW220601   0.598   4.374   4.456 -0.0320  0.2555 -1.7782
 6568SOL     OW20602   1.496   4.130   1.596 -0.3656 -0.6116 -0.0172
 6568SOL    HW120603   1.570   4.124   1.528 -1.0714 -0.7981 -0.7891
 6568SOL    HW220604   1.420   4.072   1.568 -0.9849 -0.0960  0.5423
 6569SOL     OW20605   0.909   2.139   1.867  0.5162 -0.3525 -0.3068
 6569SOL    HW120606   0.831   2.079   1.881  0.3030 -0.2915 -1.2153
 6569SOL    HW220607   0.948   2.124   1.777  1.6827 -0.5203  0.2124
 6570SOL     OW20608   1.987   4.417   2.905 -0.2204 -0.8197 -0.0413
 6570SOL    HW120609   1.966   4.421   2.807  1.2476  0.1291 -0.3512
 6570SOL    HW220610   1.941   4.338   2.946 -1.5747 -0.7383 -1.3014
 6571SOL     OW20611   3.699   0.920   0.764  0.1463 -0.4870  0.4786
 6571SOL    HW120612   3.712   0.886   0.671 -1.7999 -0.5815  0.1869
 6571SOL    HW220613   3.748   1.007   0.775  0.5725 -0.5769 -0.5631
 6572SOL     OW20614   0.111   0.976   5.084 -0.3560 -0.2913 -0.0285
 6572SOL    HW120615   0.131   1.001   4.989 -1.8904  0.7628 -0.1062
 6572SOL    HW220616   0.043   0.903   5.085 -1.4898  0.7500  0.2561
 6573SOL     OW20617   3.511   6.656   2.263 -0.0631 -0.1554 -0.2109
 6573SOL    HW120618   3.516   6.745   2.307 -0.1451  0.6732 -1.8114
 6573SOL    HW220619   3.528   6.584   2.331 -1.4226  0.9807  1.4080
 6574SOL     OW20620   0.273   5.299   2.788 -0.4360  0.0834  0.2691
 6574SOL    HW120621   0.272   5.199   2.781  0.7753  0.1420 -1.7006
 6574SOL    HW220622   0.250   5.339   2.699 -0.4079  1.5522  0.8881
 6575SOL     OW20623   3.676   5.305   4.268  0.0890  0.2712  0.1026
 6575SOL    HW120624   3.692   5.394   4.311  0.9284 -0.9864  2.6090
 6575SOL    HW220625   3.579   5.296   4.245 -0.7098  0.6846  2.8406
 6576SOL     OW20626   1.490   3.016   4.067  0.1570  0.2862  0.8584
 6576SOL    HW120627   1.399   3.050   4.091  0.1092  0.2064  0.7912
 6576SOL    HW220628   1.553   3.093   4.056  0.3776  0.2914  2.0239
 6577SOL     OW20629   4.208   0.469   5.162 -0.6761  0.3314 -0.0223
 6577SOL    HW120630   4.140   0.420   5.216  1.3509  0.1221  2.5208
 6577SOL    HW220631   4.279   0.406   5.132 -0.4771  0.9036 -0.7989
 6578SOL     OW20632   5.912   0.023   1.120  0.1299 -0.4252 -0.2729
 6578SOL    HW120633   5.923  -0.066   1.077 -0.6535 -0.1647 -1.0308
 6578SOL    HW220634   5.831   0.069   1.083  0.4093  0.5208  0.2459
 6579SOL     OW20635   1.515   6.287   3.629  0.4998 -0.0715 -0.2397
 6579SOL    HW120636   1.439   6.291   3.693 -0.5671  0.0576 -1.4616
 6579SOL    HW220637   1.575   6.211   3.652 -0.0241 -0.2096  0.7192
 6580SOL     OW20638   0.817   0.186   4.897  0.2942  0.1737 -0.8198
 6580SOL    HW120639   0.727   0.199   4.938  0.7888  0.4820  0.2164
 6580SOL    HW220640   0.858   0.275   4.877 -0.2345  0.0253 -2.7019
 6581SOL     OW20641   3.565   4.480   1.098  0.1275  0.6194  0.1002
 6581SOL    HW120642   3.505   4.546   1.053  0.5186  0.4815 -0.6313
 6581SOL    HW220643   3.658   4.517   1.103 -0.3151  1.6143  2.8449
 6582SOL     OW20644   0.235   1.174   1.051  0.0914 -0.1504  0.1384
 6582SOL    HW120645   0.153   1.118   1.040  0.3844 -0.4956 -0.3210
 6582SOL    HW220646   0.277   1.156   1.140 -0.2036 -0.1364  0.2819
 6583SOL     OW20647   2.600   4.993   6.599  0.1507 -0.2810  0.2444
 6583SOL    HW120648   2.611   4.898   6.627 -1.2602 -0.8336 -0.9531
 6583SOL    HW220649   2.658   5.012   6.520  0.6365 -0.0554  0.6494
 6584SOL     OW20650   4.456   0.218   0.767 -0.3554 -0.0404  0.3973
 6584SOL    HW120651   4.478   0.128   0.728  1.7270  1.7179 -3.0998
 6584SOL    HW220652   4.359   0.237   0.755 -0.4094 -0.9901 -0.9257
 6585SOL     OW20653   2.699   6.621   2.214 -0.4533 -0.4217 -0.2559
 6585SOL    HW120654   2.687   6.674   2.130 -0.7217 -1.0259 -0.6035
 6585SOL    HW220655   2.612   6.580   2.241 -0.7188  0.9757  1.1549
 6586SOL     OW20656   5.948   1.838   0.923 -0.1820  0.1431 -0.1920
 6586SOL    HW120657   5.935   1.861   1.019 -0.8806  0.1828 -0.2904
 6586SOL    HW220658   6.046   1.831   0.903  0.1050  3.1617 -0.2126
 6587SOL     OW20659   0.084   5.078   1.012  0.2193  0.0220  0.3257
 6587SOL    HW120660   0.105   5.143   0.939 -0.1804 -0.5289 -0.2916
 6587SOL    HW220661  -0.002   5.031   0.991  0.3264 -0.4640  0.9374
 6588SOL     OW20662   5.738   2.813   0.327 -0.1698  0.1235 -0.0917
 6588SOL    HW120663   5.653   2.859   0.302 -2.1923 -2.7942  0.8886
 6588SOL    HW220664   5.783   2.779   0.244 -1.1054 -0.1422 -0.5082
 6589SOL     OW20665   2.013   1.430   3.765 -0.2219  0.1672  0.7598
 6589SOL    HW120666   2.099   1.396   3.727 -0.2087 -0.7494  1.5609
 6589SOL    HW220667   1.996   1.522   3.732  1.1832  0.4485  0.7551
 6590SOL     OW20668   0.410   4.401   0.488 -0.2647 -0.2813  0.0486
 6590SOL    HW120669   0.412   4.478   0.423 -0.5827 -1.2003 -1.0827
 6590SOL    HW220670   0.401   4.315   0.437 -0.3386 -1.0421  1.3189
 6591SOL     OW20671   2.856   0.797   3.955  0.3817 -0.2010  0.0034
 6591SOL    HW120672   2.822   0.887   3.982  0.0645 -0.6912  1.3345
 6591SOL    HW220673   2.780   0.731   3.957 -0.1009  0.0359 -3.9466
 6592SOL     OW20674   2.201   4.006   4.437 -0.5301  0.7662  0.2242
 6592SOL    HW120675   2.209   3.927   4.499 -0.2757  0.4451 -0.2114
 6592SOL    HW220676   2.290   4.049   4.426 -0.3270  0.1171 -0.8272
 6593SOL     OW20677   1.875   4.915   1.375  0.2302 -0.3880  0.0267
 6593SOL    HW120678   1.822   4.974   1.436  1.1161  0.9176 -0.4212
 6593SOL    HW220679   1.972   4.938   1.383  0.3748 -0.2295 -1.8174
 6594SOL     OW20680   4.313   0.912   3.410 -0.4103 -0.1685 -0.6456
 6594SOL    HW120681   4.221   0.873   3.412 -0.6858  0.2692 -2.5765
 6594SOL    HW220682   4.363   0.878   3.331  0.1036  1.6777 -1.1800
 6595SOL     OW20683   6.263   1.487   3.189 -0.1917 -0.5237 -0.2780
 6595SOL    HW120684   6.298   1.419   3.125 -0.3513  0.9632 -2.0076
 6595SOL    HW220685   6.172   1.460   3.220 -0.3091 -1.0237 -1.0439
 6596SOL     OW20686   5.811   2.611   3.273 -0.8286 -0.0280  0.1436
 6596SOL    HW120687   5.861   2.591   3.358  0.3247 -1.6608 -0.8740
 6596SOL    HW220688   5.773   2.704   3.279  0.0452  0.2716  2.0436
 6597SOL     OW20689   1.129   5.411   6.988  0.0495 -0.1374 -0.0195
 6597SOL    HW120690   1.073   5.349   7.043 -0.3412  0.5915  0.4209
 6597SOL    HW220691   1.123   5.504   7.026 -0.4656  0.4558 -1.4753
 6598SOL     OW20692   0.408   1.718   0.671 -0.1553 -0.0915 -0.0835
 6598SOL    HW120693   0.335   1.653   0.648 -0.4090 -0.1189  0.7714
 6598SOL    HW220694   0.478   1.716   0.599 -0.4343 -0.9042 -0.3476
 6599SOL     OW20695   5.810   5.739   6.496  0.3123 -0.3253  0.1486
 6599SOL    HW120696   5.805   5.820   6.555  0.5731 -0.4356  0.3256
 6599SOL    HW220697   5.864   5.668   6.542  1.0193 -0.2017 -0.4639
 6600SOL     OW20698   4.665   5.001   2.728  0.2614  0.1305 -0.0554
 6600SOL    HW120699   4.685   4.937   2.654 -2.6938 -1.8200  0.6545
 6600SOL    HW220700   4.700   4.964   2.815  1.3581  1.1023 -0.0586
 6601SOL     OW20701   4.203   0.898   2.306  0.0780 -0.1442  0.1713
 6601SOL    HW120702   4.269   0.973   2.316 -1.0661  0.7352  1.3226
 6601SOL    HW220703   4.110   0.934   2.310 -0.5324 -1.7650  2.2827
 6602SOL     OW20704   5.721   3.188   1.172 -0.1562  0.0322  0.7749
 6602SOL    HW120705   5.800   3.201   1.232 -1.2287  0.5651  2.1334
 6602SOL    HW220706   5.693   3.092   1.176  0.5952 -0.2336  0.0290
 6603SOL     OW20707   5.076   4.506   3.526  0.2472  0.0799 -0.0452
 6603SOL    HW120708   5.120   4.589   3.492  0.5239 -0.3397 -0.7157
 6603SOL    HW220709   5.049   4.521   3.622 -1.2877  1.5473 -0.6612
 6604SOL     OW20710   6.504   6.003   6.018  0.1090  0.2935 -0.2225
 6604SOL    HW120711   6.410   5.968   6.016 -0.0574  0.6633  0.6492
 6604SOL    HW220712   6.568   5.926   6.028 -0.2354  0.1784  1.3851
 6605SOL     OW20713   3.579   6.519   4.501  0.0669 -0.2512 -0.4931
 6605SOL    HW120714   3.561   6.430   4.542 -0.5594  1.2630  2.9205
 6605SOL    HW220715   3.678   6.531   4.489  0.1274 -1.5448 -1.5377
 6606SOL     OW20716   4.943   4.883   1.951  0.0885 -0.4759 -0.1286
 6606SOL    HW120717   4.968   4.788   1.968 -1.0146 -0.8574 -0.5345
 6606SOL    HW220718   4.861   4.906   2.003  0.5660  0.3746  0.2639
 6607SOL     OW20719   6.775   5.207   0.438  0.2382  0.4037 -0.3039
 6607SOL    HW120720   6.827   5.159   0.509  2.3241  1.2282 -1.2045
 6607SOL    HW220721   6.743   5.141   0.370  1.3925  0.0162 -0.4937
 6608SOL     OW20722   4.931   0.734   4.670  1.3089  0.0852 -0.1219
 6608SOL    HW120723   4.976   0.651   4.639  0.6325 -0.9350  1.4789
 6608SOL    HW220724   4.834   0.731   4.644  1.5749  1.0512 -1.2853
 6609SOL     OW20725   1.804   1.902   0.559 -0.6140 -0.3201  0.4724
 6609SOL    HW120726   1.743   1.961   0.611 -0.0969  0.7764 -0.1369
 6609SOL    HW220727   1.898   1.910   0.594 -0.5594 -0.8926  0.4750
 6610SOL     OW20728   2.440   4.417   4.630 -0.2597  0.4248 -0.0535
 6610SOL    HW120729   2.445   4.468   4.716  2.1689  0.4289 -0.1091
 6610SOL    HW220730   2.533   4.400   4.597 -1.1064 -0.9515 -1.8816
 6611SOL     OW20731   2.355   5.174   0.637 -0.0522 -0.0487  0.6604
 6611SOL    HW120732   2.357   5.268   0.602 -0.7032  0.1892  1.2662
 6611SOL    HW220733   2.449   5.140   0.646  0.4312  1.7691  3.6991
 6612SOL     OW20734   4.494   1.898   4.852 -0.3194 -0.2449  0.3558
 6612SOL    HW120735   4.492   1.993   4.882  0.2316 -0.3861  0.8501
 6612SOL    HW220736   4.563   1.888   4.780 -1.1379 -0.0548 -0.4768
 6613SOL     OW20737   1.488   2.738   3.173  0.2437  0.5392 -1.0315
 6613SOL    HW120738   1.552   2.694   3.236  0.0352 -0.0017 -1.1941
 6613SOL    HW220739   1.443   2.669   3.117 -0.4461  0.9143 -0.9543
 6614SOL     OW20740   5.919   1.474   3.707  0.5653 -0.3639 -0.6275
 6614SOL    HW120741   5.937   1.572   3.713  0.8704 -0.4071 -0.8098
 6614SOL    HW220742   6.005   1.424   3.718  0.1304 -0.6981  1.5672
 6615SOL     OW20743   1.205   4.965   1.341 -0.2487 -0.7480 -0.4961
 6615SOL    HW120744   1.172   4.957   1.247 -2.8937  0.8916  0.1893
 6615SOL    HW220745   1.278   5.033   1.345  0.9761 -1.9489 -1.5533
 6616SOL     OW20746   1.235   4.422   6.815 -0.2649  0.7307 -0.5553
 6616SOL    HW120747   1.145   4.384   6.837  0.3084 -0.4999 -0.1861
 6616SOL    HW220748   1.261   4.393   6.723  0.8444 -1.2167  0.2977
 6617SOL     OW20749   2.070   0.267   4.815  0.2434  0.0199  0.2080
 6617SOL    HW120750   2.087   0.359   4.850 -2.0978 -0.2769  2.3956
 6617SOL    HW220751   2.023   0.273   4.727 -1.9002  1.0251  1.3517
 6618SOL     OW20752   3.304   5.011   0.723  0.6008 -0.6813 -0.2637
 6618SOL    HW120753   3.215   5.005   0.678 -0.5139  0.8157  1.6174
 6618SOL    HW220754   3.302   4.961   0.809  2.2408 -2.2679 -1.0820
 6619SOL     OW20755   0.280   2.149   2.775 -0.3339  0.0588  0.0625
 6619SOL    HW120756   0.378   2.143   2.759 -0.6457 -0.3083 -1.9792
 6619SOL    HW220757   0.250   2.244   2.761 -0.6503 -0.3112 -2.1060
 6620SOL     OW20758   6.790   0.774   0.088 -0.1700 -0.2013 -0.1950
 6620SOL    HW120759   6.777   0.862   0.135  1.9125  0.0138  0.0500
 6620SOL    HW220760   6.781   0.787  -0.011  1.9558  0.7172 -0.3142
 6621SOL     OW20761   3.592   2.353   5.839 -0.4356 -0.2442  0.0250
 6621SOL    HW120762   3.584   2.361   5.740  1.8470  2.4196 -0.0583
 6621SOL    HW220763   3.635   2.266   5.862 -1.4366 -1.1082 -1.2622
 6622SOL     OW20764   2.285   4.675   4.328  0.2477  0.4522  0.1146
 6622SOL    HW120765   2.326   4.590   4.295  0.8309  1.2889 -1.3819
 6622SOL    HW220766   2.254   4.662   4.423  0.1558 -1.4664 -0.1382
 6623SOL     OW20767   2.557   1.607   4.598  0.5094 -0.6626  0.0498
 6623SOL    HW120768   2.547   1.661   4.514 -0.9528  0.7021  1.0385
 6623SOL    HW220769   2.647   1.623   4.637 -0.1875  1.9454  0.8252
 6624SOL     OW20770   0.193   5.995   5.361 -0.1576  0.2394  0.2909
 6624SOL    HW120771   0.240   6.009   5.448  2.3138  0.9285 -1.0377
 6624SOL    HW220772   0.149   5.905   5.360  0.1894  0.0303  2.0458
 6625SOL     OW20773   0.825   5.633   1.827  0.7775  0.5913  0.6973
 6625SOL    HW120774   0.796   5.628   1.732  1.1281  0.8134  0.5757
 6625SOL    HW220775   0.806   5.725   1.862 -0.1791  0.2491  1.1188
 6626SOL     OW20776   1.831   3.835   5.038 -0.0579 -0.3874 -0.0395
 6626SOL    HW120777   1.805   3.896   4.963  0.8665  0.4612  0.2904
 6626SOL    HW220778   1.763   3.840   5.110 -0.4807 -0.4831 -0.4311
 6627SOL     OW20779   3.480   6.326   1.262  0.0503 -0.2075  0.0448
 6627SOL    HW120780   3.407   6.264   1.236  1.5987 -2.5967  1.0122
 6627SOL    HW220781   3.453   6.377   1.344  0.1263 -2.5419  1.6099
 6628SOL     OW20782   5.304   3.313   1.146  0.1427  0.0210 -0.0676
 6628SOL    HW120783   5.384   3.290   1.202 -0.1069  1.7864  1.0833
 6628SOL    HW220784   5.229   3.251   1.169  0.2220  0.3635  1.1722
 6629SOL     OW20785   0.504   3.309   5.478  0.2850  0.1295  0.2000
 6629SOL    HW120786   0.543   3.250   5.408 -1.1767 -1.9148  1.0081
 6629SOL    HW220787   0.463   3.253   5.550 -1.0336  2.1442  1.1122
 6630SOL     OW20788   3.769   0.640   4.060 -0.0644  0.4292  0.1739
 6630SOL    HW120789   3.776   0.714   3.993 -2.8629  1.2233  0.6429
 6630SOL    HW220790   3.810   0.670   4.146  2.7709 -0.2829 -0.8078
 6631SOL     OW20791   4.388   0.185   3.977 -0.6120  0.2613 -0.0199
 6631SOL    HW120792   4.478   0.174   4.019 -1.1717 -0.3442  1.0689
 6631SOL    HW220793   4.367   0.105   3.921  0.1315  1.0654 -1.5112
 6632SOL     OW20794   1.719   1.558   6.892 -0.5717  0.2199 -0.3498
 6632SOL    HW120795   1.751   1.480   6.840 -1.1030  0.7256 -1.4761
 6632SOL    HW220796   1.781   1.576   6.968  1.3424  0.6457 -1.9336
 6633SOL     OW20797   4.828   3.730   0.386 -0.4608 -0.0607 -0.1780
 6633SOL    HW120798   4.801   3.787   0.464  1.1312  0.6393 -0.0959
 6633SOL    HW220799   4.777   3.758   0.305 -1.5038 -0.2131  0.4112
 6634SOL     OW20800   2.612   2.829   0.038 -0.0403  0.2734 -0.2707
 6634SOL    HW120801   2.660   2.851  -0.047  0.2746 -0.3642 -0.2621
 6634SOL    HW220802   2.625   2.904   0.103  0.1204  0.5501 -0.6151
 6635SOL     OW20803   1.714   2.101   1.430 -0.2313  0.2466 -0.4231
 6635SOL    HW120804   1.723   2.102   1.529 -3.2240 -0.8733 -0.0334
 6635SOL    HW220805   1.777   2.034   1.391  2.5551  2.2159  0.3921
 6636SOL     OW20806   2.202   3.604   0.961  0.1205  0.7035  0.2901
 6636SOL    HW120807   2.134   3.677   0.962 -0.0892  0.5395 -1.0935
 6636SOL    HW220808   2.233   3.587   0.868  2.5178  1.1722  0.9320
 6637SOL     OW20809   2.256   3.471   6.189  0.7026 -0.4878  0.3672
 6637SOL    HW120810   2.179   3.408   6.181  2.2232 -2.2770 -0.9149
 6637SOL    HW220811   2.324   3.433   6.252  0.7217  0.9309  1.2600
 6638SOL     OW20812   2.286   1.817   7.021 -0.2504  0.1535  0.5954
 6638SOL    HW120813   2.376   1.857   7.037  0.0246 -0.0591 -0.3118
 6638SOL    HW220814   2.292   1.754   6.943 -1.0109 -0.4641  1.0282
 6639SOL     OW20815   1.995   4.213   4.541 -0.4606  0.0713 -0.1862
 6639SOL    HW120816   2.012   4.119   4.511 -0.9091 -0.6086  1.5446
 6639SOL    HW220817   2.026   4.223   4.636 -2.5563  0.9929  0.4546
 6640SOL     OW20818   2.436   5.166   0.903 -0.3260 -0.1863 -0.6260
 6640SOL    HW120819   2.419   5.106   0.981 -1.1405  1.2042  0.3164
 6640SOL    HW220820   2.364   5.151   0.835 -1.5706  0.9183  0.3863
 6641SOL     OW20821   6.355   1.050   5.924 -0.2772  0.3606 -0.2510
 6641SOL    HW120822   6.309   1.007   5.846  0.0124 -1.0642  0.3160
 6641SOL    HW220823   6.290   1.055   6.000 -0.1502  0.4218 -0.1484
 6642SOL     OW20824   6.296   0.027   2.116  0.3202  0.2108  0.2507
 6642SOL    HW120825   6.320  -0.068   2.095 -2.1039 -0.8215  1.6795
 6642SOL    HW220826   6.300   0.041   2.215 -0.5416  1.2169  0.1616
 6643SOL     OW20827   1.616   6.805   6.587 -0.6684 -0.1354 -0.6105
 6643SOL    HW120828   1.692   6.828   6.526 -0.8102 -3.0861 -2.0936
 6643SOL    HW220829   1.540   6.868   6.569 -0.1857  0.0023 -2.4778
 6644SOL     OW20830   5.866   2.508   0.704  0.2941  0.4145 -0.2855
 6644SOL    HW120831   5.907   2.571   0.638 -2.9385  2.2619 -0.7417
 6644SOL    HW220832   5.841   2.423   0.658  0.3404  0.7111 -0.8647
 6645SOL     OW20833   0.748   4.310   3.605 -0.2810 -0.1741 -0.4525
 6645SOL    HW120834   0.696   4.363   3.538  0.8204 -0.6232 -1.7104
 6645SOL    HW220835   0.833   4.359   3.627 -0.2019 -0.4743 -0.0880
 6646SOL     OW20836   5.557   0.132   6.307  0.1180  0.0505  0.0553
 6646SOL    HW120837   5.586   0.195   6.379  0.8502  2.1933 -1.9448
 6646SOL    HW220838   5.463   0.153   6.280  0.0659 -0.2906 -0.0301
 6647SOL     OW20839   4.552   5.473   0.394 -0.2872 -0.3872  0.5808
 6647SOL    HW120840   4.466   5.489   0.346 -0.1239  1.4249  0.8157
 6647SOL    HW220841   4.544   5.390   0.450 -0.9007 -1.8256 -1.5129
 6648SOL     OW20842   4.906   1.194   5.951 -0.2343  0.3505 -0.3323
 6648SOL    HW120843   4.975   1.154   5.890  0.5977  0.6490  0.3852
 6648SOL    HW220844   4.952   1.246   6.024 -1.2459  1.4060 -0.4115
 6649SOL     OW20845   5.425   3.930   5.734  0.4202  1.0326  0.3239
 6649SOL    HW120846   5.477   3.895   5.656  0.3437  1.5529  0.0341
 6649SOL    HW220847   5.443   4.028   5.744 -0.0522  1.0935  0.5775
 6650SOL     OW20848   5.916   5.349   1.163  0.0073 -0.3976  0.2554
 6650SOL    HW120849   5.988   5.364   1.231  1.0569  1.9955 -1.2908
 6650SOL    HW220850   5.934   5.263   1.115  1.1943 -0.3961  0.6512
 6651SOL     OW20851   2.056   5.512   0.065  0.1319  0.1002  0.0367
 6651SOL    HW120852   2.150   5.537   0.043  0.1057  0.2388  0.0839
 6651SOL    HW220853   2.055   5.451   0.144  0.3473 -1.6049 -1.2169
 6652SOL     OW20854   3.395   5.169   2.263 -0.0160  0.5594  0.0711
 6652SOL    HW120855   3.333   5.231   2.216 -1.4297 -0.1662  0.9154
 6652SOL    HW220856   3.381   5.076   2.230  1.8151  0.5912 -0.9143
 6653SOL     OW20857   2.901   5.758   1.748  0.1745 -0.5509 -0.6863
 6653SOL    HW120858   2.878   5.710   1.832  2.0345 -0.1504  0.1134
 6653SOL    HW220859   2.820   5.800   1.709 -0.8101 -1.2260  0.5913
 6654SOL     OW20860   0.650   5.123   1.038  0.5328 -0.8653  0.6882
 6654SOL    HW120861   0.709   5.042   1.030  0.9445 -0.5625  0.5850
 6654SOL    HW220862   0.558   5.095   1.063 -0.0092 -1.6072 -1.8409
 6655SOL     OW20863   6.780   6.854   4.965 -0.4945 -0.1978 -0.4054
 6655SOL    HW120864   6.831   6.787   4.912 -0.1308  1.0416 -1.6663
 6655SOL    HW220865   6.682   6.837   4.955 -0.3927 -1.2811  0.3002
 6656SOL     OW20866   3.085   3.823   6.396 -0.7087 -0.3103 -0.5566
 6656SOL    HW120867   3.016   3.882   6.356 -1.2357 -0.7238 -0.2756
 6656SOL    HW220868   3.058   3.798   6.489  0.1746  0.1086 -0.1714
 6657SOL     OW20869   3.729   0.769   0.178  0.7641 -0.1180 -0.8192
 6657SOL    HW120870   3.688   0.849   0.134 -2.0509 -1.4784 -0.8303
 6657SOL    HW220871   3.664   0.694   0.180  1.8449 -1.1796  2.8914
 6658SOL     OW20872   2.700   2.343   3.040 -0.1477  0.3997 -0.4140
 6658SOL    HW120873   2.662   2.251   3.050 -0.5738  0.5313 -0.7858
 6658SOL    HW220874   2.696   2.370   2.944 -0.9627  1.2058 -0.1624
 6659SOL     OW20875   2.199   4.341   4.734 -0.3277 -0.1156  0.1190
 6659SOL    HW120876   2.277   4.357   4.673  0.9207 -0.6686  1.5205
 6659SOL    HW220877   2.165   4.429   4.767  1.2112  0.0842  1.2987
 6660SOL     OW20878   5.305   1.788   2.736 -0.0828  0.2252 -0.2708
 6660SOL    HW120879   5.287   1.880   2.700  0.1763  0.2984 -0.2121
 6660SOL    HW220880   5.389   1.788   2.789 -0.4930  0.1238  0.3854
 6661SOL     OW20881   4.812   4.117   4.943  0.0040  0.2399 -0.7556
 6661SOL    HW120882   4.837   4.022   4.960 -0.6693  0.4610  2.0423
 6661SOL    HW220883   4.894   4.171   4.924  0.8216 -0.3325  0.9823
 6662SOL     OW20884   4.544   3.264   1.451 -0.0599  0.1848  1.0780
 6662SOL    HW120885   4.471   3.319   1.411 -2.2983 -1.8975  2.0140
 6662SOL    HW220886   4.521   3.243   1.546  0.3688 -2.7391  0.6301
 6663SOL     OW20887   1.982   0.467   5.858  0.3329  0.8452 -0.8076
 6663SOL    HW120888   1.900   0.422   5.822  1.1107 -0.4282 -1.0277
 6663SOL    HW220889   1.955   0.531   5.930 -0.6755 -1.4816  1.0314
 6664SOL     OW20890   1.224   4.199   2.477  0.1648 -0.7285 -0.2320
 6664SOL    HW120891   1.313   4.224   2.516  0.2270  0.1434 -0.8962
 6664SOL    HW220892   1.233   4.113   2.427  0.2157 -1.5602  1.1493
 6665SOL     OW20893   0.687   6.903   5.104 -0.7259 -0.4189  0.0200
 6665SOL    HW120894   0.608   6.931   5.159 -0.1379  0.7227  0.3099
 6665SOL    HW220895   0.683   6.949   5.015 -0.3744 -0.3167  0.0545
 6666SOL     OW20896   6.791   3.495   2.907  0.2675 -0.3236  0.4117
 6666SOL    HW120897   6.709   3.492   2.850  1.4313 -1.1495 -1.3031
 6666SOL    HW220898   6.783   3.427   2.981 -0.2116 -1.0357 -0.2840
 6667SOL     OW20899   6.350   2.393   5.452  0.9281 -0.3238 -0.5935
 6667SOL    HW120900   6.293   2.341   5.516  0.8257  1.7348  1.0583
 6667SOL    HW220901   6.295   2.418   5.372 -0.2319  0.7660  0.5136
 6668SOL     OW20902   4.267   6.608   5.134 -0.4806  0.1453 -0.0459
 6668SOL    HW120903   4.240   6.631   5.041 -3.1860  1.3930  0.9289
 6668SOL    HW220904   4.197   6.551   5.177  1.4696 -1.7549  0.7780
 6669SOL     OW20905   2.005   0.476   3.845 -0.0009 -0.2214 -0.5488
 6669SOL    HW120906   1.961   0.460   3.933 -0.2555  0.4549 -0.5456
 6669SOL    HW220907   1.938   0.512   3.780 -0.7342 -3.9585 -2.1209
 6670SOL     OW20908   4.710   3.595   0.634 -0.1673 -0.0351 -0.3676
 6670SOL    HW120909   4.703   3.691   0.609 -2.1220 -0.4311 -1.5782
 6670SOL    HW220910   4.739   3.542   0.555  1.8616 -0.3949  0.5401
 6671SOL     OW20911   5.928   1.045   2.810  0.0286  0.3913  0.5507
 6671SOL    HW120912   5.914   1.120   2.874 -2.2602  0.6991 -0.2219
 6671SOL    HW220913   5.969   1.079   2.725 -1.1909  0.8405  0.1237
 6672SOL     OW20914   0.970   2.615   4.654 -0.0226 -0.6560  0.3579
 6672SOL    HW120915   0.875   2.600   4.682  0.1211 -1.9431  0.2165
 6672SOL    HW220916   1.018   2.666   4.726 -0.3110 -1.7282  1.3472
 6673SOL     OW20917   4.625   6.745   3.105  0.1538 -0.3657  0.1344
 6673SOL    HW120918   4.625   6.845   3.113 -2.8135 -0.3415  1.0997
 6673SOL    HW220919   4.546   6.715   3.052  1.7499 -2.2025 -1.3424
 6674SOL     OW20920   5.697   0.343   0.800  0.2843  0.0200  0.0388
 6674SOL    HW120921   5.791   0.369   0.780 -0.5134  1.4990 -2.0457
 6674SOL    HW220922   5.653   0.310   0.717 -0.7761 -1.6899  1.2050
 6675SOL     OW20923   5.432   0.566   5.817  0.2834 -0.3683  0.6531
 6675SOL    HW120924   5.484   0.596   5.736  1.5776 -0.3199  1.4827
 6675SOL    HW220925   5.364   0.498   5.789 -0.1712  0.5803 -0.6769
 6676SOL     OW20926   5.416   6.779   0.070  0.0162  0.1674  0.0430
 6676SOL    HW120927   5.467   6.744   0.148 -0.8872  1.0397  1.0543
 6676SOL    HW220928   5.319   6.781   0.092 -0.7606 -2.8787 -2.3491
 6677SOL     OW20929   5.668   2.538   6.208  0.0893 -0.3087  0.2191
 6677SOL    HW120930   5.753   2.493   6.180 -0.3787 -1.0447 -0.0428
 6677SOL    HW220931   5.652   2.521   6.305 -0.2128 -0.9273  0.0651
 6678SOL     OW20932   2.020   0.093   0.763  0.1555 -0.3609  0.0752
 6678SOL    HW120933   2.001  -0.005   0.773  2.6606 -1.1772 -1.8789
 6678SOL    HW220934   2.054   0.129   0.849 -3.3496 -0.4251  1.6404
 6679SOL     OW20935   0.466   6.091   0.076 -0.0935  0.0731 -0.1947
 6679SOL    HW120936   0.510   6.113  -0.011 -1.2573  1.1998 -0.5358
 6679SOL    HW220937   0.536   6.072   0.145  0.9360  1.6660 -0.7476
 6680SOL     OW20938   2.543   0.062   5.942 -0.0586 -0.4972 -0.2246
 6680SOL    HW120939   2.622   0.077   5.883 -1.0566 -0.0360 -1.4975
 6680SOL    HW220940   2.487   0.145   5.944  0.2514 -0.2871  1.8938
 6681SOL     OW20941   6.385   0.307   5.600 -0.8856  0.2773  0.0458
 6681SOL    HW120942   6.390   0.401   5.631 -1.7676 -0.1352  1.5468
 6681SOL    HW220943   6.464   0.286   5.542 -0.8398  2.0002 -0.5514
 6682SOL     OW20944   0.318   6.784   4.582 -0.3545 -0.0165  0.3523
 6682SOL    HW120945   0.248   6.714   4.592  0.7687 -1.2228  0.0539
 6682SOL    HW220946   0.405   6.741   4.559  0.1111  1.5656 -1.0876
 6683SOL     OW20947   5.274   5.429   3.047 -0.0985  0.0318  0.3804
 6683SOL    HW120948   5.311   5.393   2.961  1.8057  0.9407  0.7505
 6683SOL    HW220949   5.237   5.354   3.101 -1.8912 -0.4854 -1.4420
 6684SOL     OW20950   6.027   1.431   5.427 -0.4064 -0.5074 -0.1145
 6684SOL    HW120951   6.104   1.419   5.366  0.7230  0.1354  1.1296
 6684SOL    HW220952   6.027   1.359   5.496  0.5716  0.8611  1.3765
 6685SOL     OW20953   6.861   3.416   5.734  0.2173  0.2845 -0.0131
 6685SOL    HW120954   6.887   3.510   5.708 -1.7039  0.6573 -0.7141
 6685SOL    HW220955   6.887   3.400   5.829  2.3340  0.8314 -0.4384
 6686SOL     OW20956   5.179   4.491   3.048 -0.2004  0.1624  0.4244
 6686SOL    HW120957   5.172   4.395   3.074 -1.3531  0.2884  0.6480
 6686SOL    HW220958   5.099   4.516   2.992  0.7148  0.6754 -0.6946
 6687SOL     OW20959   4.358   6.016   0.753  0.0092  0.4240 -0.0052
 6687SOL    HW120960   4.315   5.936   0.711  1.6455  0.7499 -2.4996
 6687SOL    HW220961   4.287   6.078   0.787 -1.5001  0.2106 -2.5340
 6688SOL     OW20962   1.629   2.708   0.309 -0.1546 -0.5429 -0.1191
 6688SOL    HW120963   1.558   2.753   0.255 -0.9895 -1.0030  0.5656
 6688SOL    HW220964   1.687   2.653   0.249 -0.0975  0.1794 -0.7467
 6689SOL     OW20965   0.760   2.720   6.216  0.2340  0.2767 -0.0258
 6689SOL    HW120966   0.717   2.737   6.127  1.2095  0.7620 -0.4313
 6689SOL    HW220967   0.742   2.797   6.277 -1.1830 -0.4601  0.5160
 6690SOL     OW20968   5.525   3.359   6.038  0.6559  0.3160 -0.4632
 6690SOL    HW120969   5.570   3.270   6.035  0.2740  0.0523  0.9647
 6690SOL    HW220970   5.444   3.354   6.096 -0.4629  1.1359 -1.8741
 6691SOL     OW20971   4.619   5.278   4.482 -0.0565 -0.8208 -0.0425
 6691SOL    HW120972   4.672   5.194   4.492  0.1442 -0.5889  0.9605
 6691SOL    HW220973   4.530   5.267   4.526  0.9178  0.2914  2.3938
 6692SOL     OW20974   1.454   6.453   5.399  0.4756  0.3245 -0.0878
 6692SOL    HW120975   1.547   6.417   5.407  1.3693  2.2435 -1.1095
 6692SOL    HW220976   1.438   6.485   5.305 -1.5418 -0.7409 -0.1671
 6693SOL     OW20977   3.233   3.898   5.172  0.3219 -0.1128 -0.4699
 6693SOL    HW120978   3.174   3.976   5.192  1.4224  0.2152  1.7790
 6693SOL    HW220979   3.297   3.922   5.099 -1.2750  0.0162 -1.8932
 6694SOL     OW20980   5.180   0.996   1.247 -0.0960  0.4061  0.2640
 6694SOL    HW120981   5.130   0.930   1.191 -0.3228 -2.2753  3.3455
 6694SOL    HW220982   5.123   1.027   1.322  0.8920  2.2099  0.3447
 6695SOL     OW20983   6.325   3.399   6.884 -0.0057 -0.3788  0.6141
 6695SOL    HW120984   6.353   3.372   6.976 -1.7066 -1.3995  0.8618
 6695SOL    HW220985   6.227   3.419   6.883  0.1873  0.6524 -0.7568
 6696SOL     OW20986   3.047   3.943   2.798  0.3330 -0.1019  0.0093
 6696SOL    HW120987   3.007   4.032   2.777  0.6311 -0.1623 -0.8676
 6696SOL    HW220988   3.110   3.951   2.875  0.7644  0.5589 -0.4001
 6697SOL     OW20989   6.056   6.003   5.409 -0.4388  0.2751  0.0914
 6697SOL    HW120990   6.155   6.017   5.396 -0.3226 -0.7339 -0.2144
 6697SOL    HW220991   6.009   6.090   5.397  0.1898  0.3904 -2.1141
 6698SOL     OW20992   5.262   2.288   0.371  0.3662 -0.2962  0.3172
 6698SOL    HW120993   5.224   2.380   0.361  0.7157 -0.2393 -0.5422
 6698SOL    HW220994   5.267   2.265   0.468  2.0220  1.3521  0.6936
 6699SOL     OW20995   6.042   2.650   5.748  0.0028 -0.1379 -0.1081
 6699SOL    HW120996   6.140   2.669   5.740  0.6266 -2.9209  0.0065
 6699SOL    HW220997   6.027   2.579   5.817 -2.1156  0.1925 -0.1624
 6700SOL     OW20998   6.139   0.254   0.239  0.0011 -0.3046  0.0952
 6700SOL    HW120999   6.101   0.227   0.150  0.1495  0.3254 -0.1665
 6700SOL    HW221000   6.234   0.283   0.226 -0.1202  0.2212  0.3886
 6701SOL     OW21001   6.510   2.661   4.101 -0.6137  0.0716  0.3320
 6701SOL    HW121002   6.474   2.568   4.100 -0.2561 -0.3454  5.0873
 6701SOL    HW221003   6.609   2.658   4.117 -0.8831  1.1516  2.5955
 6702SOL     OW21004   6.031   2.135   2.161  0.5951  0.6492  0.2117
 6702SOL    HW121005   5.976   2.086   2.228  1.0482 -0.2743 -0.0823
 6702SOL    HW221006   5.972   2.196   2.107 -0.2265 -0.6173 -0.3673
 6703SOL     OW21007   0.234   4.190   0.206 -1.0229 -0.2517 -0.2188
 6703SOL    HW121008   0.272   4.176   0.297 -0.0084 -0.5984 -0.6879
 6703SOL    HW221009   0.299   4.158   0.137 -1.8296 -0.1079 -1.0640
 6704SOL     OW21010   6.769   6.263   4.178 -0.1354 -0.3921 -0.3823
 6704SOL    HW121011   6.806   6.185   4.229 -0.7431 -1.4591 -1.5256
 6704SOL    HW221012   6.736   6.232   4.088 -1.7090  0.9235 -0.3078
 6705SOL     OW21013   5.813   1.532   6.374  0.2450  0.0920  0.0426
 6705SOL    HW121014   5.715   1.533   6.354  0.3774  1.1082 -0.6077
 6705SOL    HW221015   5.829   1.574   6.463  0.0556 -0.4896  0.3563
 6706SOL     OW21016   3.487   1.882   3.171 -0.1031  0.4667  1.0659
 6706SOL    HW121017   3.475   1.783   3.163  2.4454  0.2007 -0.7133
 6706SOL    HW221018   3.572   1.901   3.221  0.1996  1.6775  0.1378
 6707SOL     OW21019   2.808   0.344   4.964 -0.0698  0.2202 -0.4208
 6707SOL    HW121020   2.798   0.444   4.970 -2.5193  0.0865 -1.3843
 6707SOL    HW221021   2.720   0.303   4.942  0.3880 -2.3714  1.9905
 6708SOL     OW21022   2.564   1.004   5.410  0.2559 -0.1396 -1.0915
 6708SOL    HW121023   2.496   1.076   5.393 -1.0409 -1.1864 -0.4827
 6708SOL    HW221024   2.590   1.005   5.507 -2.5479 -2.7183 -0.1386
 6709SOL     OW21025   0.813   3.350   6.839  0.5907  0.1565  0.4959
 6709SOL    HW121026   0.790   3.294   6.760 -0.0077 -0.1975  0.9123
 6709SOL    HW221027   0.863   3.431   6.810  0.1074  0.1820 -0.2700
 6710SOL     OW21028   0.452   6.682   2.260  0.7158 -0.1127 -0.1450
 6710SOL    HW121029   0.479   6.679   2.164  1.2197  1.5251 -0.0992
 6710SOL    HW221030   0.377   6.747   2.271 -1.2394 -2.3138  0.2073
 6711SOL     OW21031   3.320   3.056   0.186  0.0628  0.3531 -0.0250
 6711SOL    HW121032   3.397   3.006   0.149  0.0164  0.1205  0.1838
 6711SOL    HW221033   3.254   2.991   0.225 -0.2613  0.5450 -0.2513
 6712SOL     OW21034   1.007   2.002   5.977  0.9598  0.4308  0.5923
 6712SOL    HW121035   1.022   1.948   5.894  0.1004 -1.4830  1.6143
 6712SOL    HW221036   1.081   2.068   5.986  0.7036  1.2178 -2.0447
 6713SOL     OW21037   5.238   3.061   0.055 -0.5553 -0.2030 -0.2884
 6713SOL    HW121038   5.325   3.015   0.072 -0.0489  0.1731 -1.7180
 6713SOL    HW221039   5.168   2.994   0.032 -1.1297 -0.6810  2.4596
 6714SOL     OW21040   3.052   6.998   6.009 -0.0190  0.7983 -0.1440
 6714SOL    HW121041   3.074   7.088   6.046 -0.0310  1.5607 -1.8678
 6714SOL    HW221042   3.052   7.003   5.909  3.2923 -1.8423 -0.4649
 6715SOL     OW21043   5.266   1.391   4.732  0.2795 -0.0148  0.1743
 6715SOL    HW121044   5.282   1.459   4.803 -1.6971 -0.3365  0.9898
 6715SOL    HW221045   5.315   1.417   4.649 -2.9348  4.3554 -0.7107
 6716SOL     OW21046   4.735   2.067   6.361  0.2554 -0.3633  0.1679
 6716SOL    HW121047   4.735   1.972   6.392 -0.3216 -1.1047 -1.9030
 6716SOL    HW221048   4.671   2.121   6.417 -2.4434 -2.1126 -0.9998
 6717SOL     OW21049   0.630   6.541   4.836  0.5776  0.1859  0.0501
 6717SOL    HW121050   0.546   6.592   4.858  0.4733 -1.1909  3.4965
 6717SOL    HW221051   0.705   6.576   4.891  2.3469  1.1759 -2.7579
 6718SOL     OW21052   4.647   1.070   2.873 -0.3454  0.2123 -0.0947
 6718SOL    HW121053   4.590   1.152   2.873 -0.5622  0.0627 -0.7518
 6718SOL    HW221054   4.678   1.050   2.780 -1.8921 -1.5643 -0.2847
 6719SOL     OW21055   1.074   0.947   6.766  0.4158 -0.5353 -0.3336
 6719SOL    HW121056   1.159   0.898   6.784 -0.6328 -2.4193 -0.2262
 6719SOL    HW221057   1.057   1.014   6.838  0.3359 -2.2575  1.3149
 6720SOL     OW21058   0.786   4.255   6.592 -0.4129 -0.0381  0.6565
 6720SOL    HW121059   0.822   4.334   6.641  0.9202 -0.4819  0.4363
 6720SOL    HW221060   0.721   4.285   6.523  1.2111  1.0490 -0.4733
 6721SOL     OW21061   5.279   5.000   1.537 -0.1393 -0.5119 -0.3989
 6721SOL    HW121062   5.256   5.060   1.614 -1.6244 -1.7545  0.1686
 6721SOL    HW221063   5.375   4.971   1.546  0.1338  0.5163  0.1750
 6722SOL     OW21064   2.663   5.633   1.054 -0.2595 -0.4905 -0.1130
 6722SOL    HW121065   2.762   5.641   1.044 -0.4652  1.3735 -1.0249
 6722SOL    HW221066   2.632   5.552   1.003  0.8751 -1.7561  1.1099
 6723SOL     OW21067   2.376   1.473   5.297  0.4764 -0.1332  0.3146
 6723SOL    HW121068   2.286   1.446   5.261  0.9228 -0.0377 -0.9345
 6723SOL    HW221069   2.370   1.484   5.396 -1.1896  1.0853  0.1253
 6724SOL     OW21070   1.290   2.067   0.177  0.0661 -0.1983 -0.3773
 6724SOL    HW121071   1.372   2.123   0.168  0.6374 -1.1262 -1.0960
 6724SOL    HW221072   1.311   1.973   0.152 -1.5882 -0.1619 -2.1944
 6725SOL     OW21073   3.909   3.740   5.263  0.2469  0.5023  0.0135
 6725SOL    HW121074   3.988   3.781   5.307 -0.4230  1.9658 -0.0847
 6725SOL    HW221075   3.827   3.795   5.282 -1.0984 -1.8484  1.4873
 6726SOL     OW21076   0.507   4.434   3.466  0.3396 -0.4998 -0.2299
 6726SOL    HW121077   0.413   4.463   3.480  0.5527  0.1696 -0.1609
 6726SOL    HW221078   0.509   4.338   3.439 -0.2595 -0.9721  1.3169
 6727SOL     OW21079   1.465   6.850   5.872  0.0720 -0.1636  0.2839
 6727SOL    HW121080   1.496   6.755   5.873  0.5393 -0.0139  0.3989
 6727SOL    HW221081   1.435   6.875   5.780 -0.9935 -0.7189  0.4707
 6728SOL     OW21082   0.912   3.385   2.615  0.1024 -0.4542  0.0047
 6728SOL    HW121083   1.008   3.408   2.603  0.1876 -1.3892 -1.2271
 6728SOL    HW221084   0.860   3.468   2.635  1.0445  0.1565 -0.0280
 6729SOL     OW21085   1.273   3.405   0.087 -0.2165 -0.4429  0.0494
 6729SOL    HW121086   1.228   3.344   0.023 -0.9755 -0.4533  0.5806
 6729SOL    HW221087   1.236   3.390   0.179 -1.9584  2.2303 -0.0986
 6730SOL     OW21088   3.993   3.884   2.559  0.2115  0.1802 -0.2835
 6730SOL    HW121089   4.040   3.834   2.632 -2.9149 -0.5663  1.3947
 6730SOL    HW221090   4.011   3.839   2.471  0.9878 -1.2287  0.5603
 6731SOL     OW21091   3.120   4.134   0.590 -0.6933  0.6941  0.0225
 6731SOL    HW121092   3.041   4.126   0.651 -0.8289  1.8960  0.0121
 6731SOL    HW221093   3.181   4.205   0.622  1.4507 -1.5031  1.1488
 6732SOL     OW21094   6.526   3.269   5.524  0.2487  0.3991 -0.3488
 6732SOL    HW121095   6.545   3.362   5.492 -0.3695 -0.0822 -2.2145
 6732SOL    HW221096   6.594   3.244   5.594 -0.6063  2.8440  1.5236
 6733SOL     OW21097   5.162   6.680   1.679  0.4868 -0.2679  0.3123
 6733SOL    HW121098   5.065   6.685   1.659  0.6108 -0.1675 -0.2661
 6733SOL    HW221099   5.179   6.605   1.742 -0.0125 -0.0485  0.7181
 6734SOL     OW21100   0.024   5.685   6.681  0.1339 -0.1380  0.1700
 6734SOL    HW121101   0.120   5.660   6.671  1.0282  2.6255  0.9487
 6734SOL    HW221102   0.006   5.770   6.630 -1.5404  0.1464  1.1519
 6735SOL     OW21103   0.913   1.177   4.325 -0.4727 -0.7239  1.2368
 6735SOL    HW121104   0.910   1.083   4.291  0.0107  0.0984 -1.2609
 6735SOL    HW221105   0.833   1.227   4.294 -0.3932 -0.1169  1.9791
 6736SOL     OW21106   1.310   0.197   1.797  0.6983 -0.0292  0.2119
 6736SOL    HW121107   1.383   0.264   1.782  1.8821 -1.0996  0.9366
 6736SOL    HW221108   1.244   0.202   1.723  0.7311  1.9387  0.2491
 6737SOL     OW21109   1.883   1.311   1.668 -0.2180 -0.0882 -0.6794
 6737SOL    HW121110   1.820   1.269   1.734 -2.4317  1.1345 -1.9032
 6737SOL    HW221111   1.955   1.360   1.717 -0.9180 -0.4755  0.7965
 6738SOL     OW21112   6.087   2.002   0.594 -0.5761 -0.5200 -0.4172
 6738SOL    HW121113   6.115   1.924   0.538 -0.5076 -0.9250  0.1743
 6738SOL    HW221114   6.123   2.087   0.554 -1.5591 -0.6529 -1.6947
 6739SOL     OW21115   0.320   2.673   1.685  0.5121  0.3316  0.1217
 6739SOL    HW121116   0.308   2.610   1.762  1.8513 -2.0858 -1.5120
 6739SOL    HW221117   0.400   2.646   1.632 -1.2307  0.9128 -3.0560
 6740SOL     OW21118   1.262   0.714   1.674  0.3714  0.2701 -0.2068
 6740SOL    HW121119   1.331   0.786   1.671 -0.8203  1.4137 -0.9802
 6740SOL    HW221120   1.267   0.667   1.762  0.3993  2.0867  0.8017
 6741SOL     OW21121   1.567   5.268   0.218  0.4597  0.5217 -0.5313
 6741SOL    HW121122   1.526   5.260   0.309  0.4896  0.0503 -0.5573
 6741SOL    HW221123   1.663   5.294   0.227  0.3597  0.8556 -0.4406
 6742SOL     OW21124   1.938   6.838   4.859 -0.5570  0.1171 -0.6978
 6742SOL    HW121125   1.902   6.915   4.912 -0.1264 -0.0786 -0.1138
 6742SOL    HW221126   1.935   6.860   4.762 -1.6801  0.3490 -0.6239
 6743SOL     OW21127   1.009   4.293   5.588  0.6511  0.3627 -0.4143
 6743SOL    HW121128   1.014   4.314   5.491  0.6523  0.3591 -0.4151
 6743SOL    HW221129   1.092   4.246   5.617  0.6584  0.3797 -0.4074
 6744SOL     OW21130   0.254   5.863   2.866 -0.3797  0.6289 -0.0170
 6744SOL    HW121131   0.168   5.843   2.819 -0.9878  0.6081  1.0700
 6744SOL    HW221132   0.320   5.900   2.801 -1.6046  1.8078 -0.6311
 6745SOL     OW21133   0.650   2.066   4.811  0.5697 -0.1879  0.4895
 6745SOL    HW121134   0.657   1.968   4.828  2.3300 -0.0523  0.7477
 6745SOL    HW221135   0.585   2.082   4.736 -0.2522 -1.4801  0.8902
 6746SOL     OW21136   4.668   0.135   2.119 -0.5813 -0.3677 -0.7633
 6746SOL    HW121137   4.590   0.100   2.171 -1.5048  0.1591 -1.7440
 6746SOL    HW221138   4.750   0.083   2.142 -1.2233 -0.9434  0.2865
 6747SOL     OW21139   5.239   5.194   3.914  0.4130  0.2521 -0.0191
 6747SOL    HW121140   5.235   5.262   3.841  1.0716  0.0047 -0.3010
 6747SOL    HW221141   5.329   5.198   3.957  0.9509 -1.2991 -0.9041
 6748SOL     OW21142   2.019   6.082   0.649  0.1572  0.3451 -0.0129
 6748SOL    HW121143   1.936   6.136   0.660  0.1559  0.3031  0.1889
 6748SOL    HW221144   2.077   6.093   0.730  0.7961  1.1562 -0.5657
 6749SOL     OW21145   2.213   2.309   3.321 -0.8730 -0.1963  0.1838
 6749SOL    HW121146   2.115   2.324   3.336 -0.7627  0.9486 -0.1594
 6749SOL    HW221147   2.265   2.364   3.387 -0.4522  0.4643 -0.6824
 6750SOL     OW21148   6.535   0.883   5.114  0.4571 -0.1356 -0.2893
 6750SOL    HW121149   6.512   0.963   5.058  1.2795 -0.0575 -0.5193
 6750SOL    HW221150   6.600   0.825   5.065  0.0595 -0.8217 -0.0169
 6751SOL     OW21151   2.824   6.814   4.239 -0.0596  0.5669  0.6384
 6751SOL    HW121152   2.875   6.810   4.324  1.6793  2.9128 -0.1890
 6751SOL    HW221153   2.834   6.905   4.198 -0.0103 -0.7356 -2.5426
 6752SOL     OW21154   0.582   6.050   1.896 -0.1834  0.1758 -0.5283
 6752SOL    HW121155   0.633   6.134   1.880  1.1147 -0.8043 -1.7412
 6752SOL    HW221156   0.537   6.021   1.812 -0.3772 -0.5128 -0.2001
 6753SOL     OW21157   6.135   1.575   1.069  0.3719 -0.1663 -0.1082
 6753SOL    HW121158   6.186   1.588   1.154  0.7187  1.5792 -0.5496
 6753SOL    HW221159   6.038   1.566   1.089  0.5290 -0.5377  0.5224
 6754SOL     OW21160   3.176   0.233   1.278  0.3014 -0.1613 -0.7421
 6754SOL    HW121161   3.168   0.217   1.180  0.1568  0.7908 -0.8891
 6754SOL    HW221162   3.233   0.314   1.294  1.0144 -0.7900 -0.0158
 6755SOL     OW21163   6.348   0.447   6.937  0.5698 -0.4377 -0.1141
 6755SOL    HW121164   6.252   0.473   6.947 -0.1281 -2.3734 -1.2452
 6755SOL    HW221165   6.405   0.506   6.995 -1.4009 -0.0476  1.5286
 6756SOL     OW21166   6.697   6.377   1.901  0.1229  0.3409  0.3569
 6756SOL    HW121167   6.787   6.416   1.924  0.3713  1.4813 -2.2529
 6756SOL    HW221168   6.640   6.448   1.860 -0.7527 -1.1941 -1.1619
 6757SOL     OW21169   6.912   5.461   0.879  0.3981  0.2403 -0.1120
 6757SOL    HW121170   6.963   5.501   0.803  1.5370  2.0573  1.5235
 6757SOL    HW221171   6.814   5.474   0.865  0.5522  0.0793 -1.4809
 6758SOL     OW21172   5.517   4.057   4.685  0.0641 -0.4588  0.5246
 6758SOL    HW121173   5.459   4.085   4.762  0.6492 -0.2894  0.9044
 6758SOL    HW221174   5.613   4.072   4.708  0.1816  1.0468 -0.8281
 6759SOL     OW21175   0.990   4.567   5.036  0.2181  0.4276  0.1861
 6759SOL    HW121176   0.946   4.627   5.102  0.4328  0.2808  0.4624
 6759SOL    HW221177   0.931   4.557   4.955  0.6427  1.8605 -0.3218
 6760SOL     OW21178   6.278   6.268   2.207  0.3287  0.4188  0.3577
 6760SOL    HW121179   6.288   6.184   2.259 -0.9329  0.4032  0.6109
 6760SOL    HW221180   6.182   6.279   2.179  0.8323  0.7785 -1.3500
 6761SOL     OW21181   5.656   0.757   3.073 -0.3693  0.5540  0.6143
 6761SOL    HW121182   5.652   0.834   3.136 -0.7342 -0.4865  1.9218
 6761SOL    HW221183   5.722   0.690   3.107  0.7106  0.7387 -1.0498
 6762SOL     OW21184   4.627   6.102   3.699  0.5190  0.1820 -0.6842
 6762SOL    HW121185   4.652   6.006   3.683  2.0018  0.4487 -0.1707
 6762SOL    HW221186   4.707   6.160   3.681 -0.0594  1.2213  0.0172
 6763SOL     OW21187   1.511   5.216   2.809 -0.8935 -0.5120  0.0819
 6763SOL    HW121188   1.482   5.306   2.777  1.3263  1.2551  2.6089
 6763SOL    HW221189   1.436   5.173   2.859 -0.5930  2.3232  3.3268
 6764SOL     OW21190   6.999   2.348   2.452 -0.0334  0.3183 -0.1725
 6764SOL    HW121191   6.927   2.403   2.495  0.8857 -0.4520  2.5397
 6764SOL    HW221192   7.086   2.395   2.460  0.3533 -0.4035 -0.0689
 6765SOL     OW21193   1.936   5.025   3.850 -0.6116 -0.2414  0.4152
 6765SOL    HW121194   2.018   5.019   3.793 -1.0595 -0.3405 -0.2385
 6765SOL    HW221195   1.922   5.120   3.878 -0.2172 -0.2407  0.6251
 6766SOL     OW21196   2.850   2.828   5.712  0.3257 -0.1591  0.2257
 6766SOL    HW121197   2.918   2.779   5.766  1.1041  2.7272  2.0647
 6766SOL    HW221198   2.885   2.842   5.619  0.8403 -1.4087  0.2097
 6767SOL     OW21199   2.307   1.170   1.378  0.2792 -0.1196 -0.3820
 6767SOL    HW121200   2.262   1.144   1.464 -0.3102  1.1038 -0.3056
 6767SOL    HW221201   2.242   1.218   1.320  0.9592 -0.0668 -1.1128
 6768SOL     OW21202   0.769   0.852   2.217 -0.0458 -0.9293  0.2038
 6768SOL    HW121203   0.720   0.938   2.233  0.5249 -0.1434 -1.9661
 6768SOL    HW221204   0.828   0.833   2.296 -0.7828  0.2380  1.0789
 6769SOL     OW21205   1.169   1.910   2.753  0.5245 -0.9485  0.2892
 6769SOL    HW121206   1.190   1.975   2.827  2.7752 -1.2896  0.0162
 6769SOL    HW221207   1.186   1.953   2.665 -0.1697 -1.2039  0.0249
 6770SOL     OW21208   0.566   5.445   3.605  0.2861 -0.7964  0.4420
 6770SOL    HW121209   0.488   5.445   3.542 -0.4068  1.4807  1.2173
 6770SOL    HW221210   0.538   5.411   3.694  0.5246 -1.1724  0.3796
 6771SOL     OW21211   2.346   1.705   1.998  0.0628 -0.0795  0.0517
 6771SOL    HW121212   2.296   1.694   2.084 -0.9226 -0.0631 -0.5116
 6771SOL    HW221213   2.444   1.700   2.016 -0.1498 -0.8250  1.0724
 6772SOL     OW21214   5.615   5.386   2.458  0.1405  0.5724 -0.0671
 6772SOL    HW121215   5.564   5.318   2.406 -1.0851  2.1916 -1.0736
 6772SOL    HW221216   5.555   5.428   2.526  0.5879  1.3409 -0.1321
 6773SOL     OW21217   4.793   5.126   6.660 -0.4566 -0.0384 -0.4853
 6773SOL    HW121218   4.833   5.036   6.674 -0.0874 -0.0067 -1.2892
 6773SOL    HW221219   4.735   5.149   6.738  1.5862  0.1965  1.0657
 6774SOL     OW21220   3.241   0.059   3.951  0.4415 -0.1391 -0.1340
 6774SOL    HW121221   3.173   0.008   4.004  1.3571 -0.4997  0.7242
 6774SOL    HW221222   3.212   0.155   3.943 -1.7847 -0.8725 -2.5581
 6775SOL     OW21223   6.972   7.007   0.336 -0.3290  0.1631 -0.3285
 6775SOL    HW121224   6.967   6.924   0.279  1.3364 -0.4290  0.3171
 6775SOL    HW221225   7.064   7.045   0.330 -0.6216  1.0636  0.6541
 6776SOL     OW21226   5.174   4.558   4.870 -0.3178  0.2197 -0.1318
 6776SOL    HW121227   5.095   4.498   4.859 -1.1070  1.1665  0.1730
 6776SOL    HW221228   5.217   4.574   4.780 -0.0798 -0.7910 -0.2103
 6777SOL     OW21229   2.989   3.344   4.375 -0.2148  0.1331 -0.7458
 6777SOL    HW121230   3.039   3.319   4.292 -1.5462 -0.0129 -1.5247
 6777SOL    HW221231   3.007   3.276   4.446 -0.0845 -0.4512 -1.3244
 6778SOL     OW21232   0.477   2.111   1.808  0.2478 -0.3481  0.3357
 6778SOL    HW121233   0.455   2.191   1.751  0.8033  0.6838  1.5439
 6778SOL    HW221234   0.459   2.132   1.904  1.1753 -1.3983  0.7606
 6779SOL     OW21235   2.271   3.792   6.830  0.4195 -0.0602  0.0664
 6779SOL    HW121236   2.367   3.805   6.856  0.4777 -0.8993  0.2934
 6779SOL    HW221237   2.226   3.881   6.826  1.3439  0.4006 -0.5939
 6780SOL     OW21238   3.189   1.371   0.041  0.1696 -0.6502 -1.0349
 6780SOL    HW121239   3.178   1.461  -0.002 -1.4344  0.2481  1.0688
 6780SOL    HW221240   3.139   1.302  -0.012 -1.9132  0.4507 -0.6204
 6781SOL     OW21241   6.286   4.964   3.576  0.4905 -0.2167 -0.7891
 6781SOL    HW121242   6.199   4.916   3.568  1.0047 -1.0318 -1.6272
 6781SOL    HW221243   6.268   5.061   3.593 -0.5592 -0.6692  1.0049
 6782SOL     OW21244   6.471   5.423   2.495 -0.1701  0.1922  0.0101
 6782SOL    HW121245   6.513   5.342   2.533  0.8617 -0.0362 -1.5159
 6782SOL    HW221246   6.371   5.416   2.502 -0.1553 -1.7340 -1.0711
 6783SOL     OW21247   4.279   2.515   0.971  0.3583 -0.5169 -0.6887
 6783SOL    HW121248   4.290   2.604   0.927  0.5581 -0.9816 -1.5999
 6783SOL    HW221249   4.347   2.505   1.043  1.0899 -0.3819 -1.3461
 6784SOL     OW21250   1.208   5.811   4.571 -0.0192  0.0261 -0.0352
 6784SOL    HW121251   1.241   5.802   4.477  0.4282 -0.2891  0.1484
 6784SOL    HW221252   1.258   5.884   4.617  0.4503 -0.4629  0.2479
 6785SOL     OW21253   0.157   6.389   4.155  0.8573  0.2807 -0.2643
 6785SOL    HW121254   0.248   6.407   4.193  0.3702  2.0772  0.1643
 6785SOL    HW221255   0.090   6.448   4.199 -0.5011 -0.8385 -0.7475
 6786SOL     OW21256   4.048   5.715   3.745  0.0134  0.1619  0.0026
 6786SOL    HW121257   3.995   5.712   3.660 -0.2133  0.4037  0.1330
 6786SOL    HW221258   4.121   5.646   3.742  1.2940  1.4932 -1.2400
 6787SOL     OW21259   2.394   2.631   5.936  0.3351  0.1678  0.2570
 6787SOL    HW121260   2.346   2.662   6.019 -0.2248  0.1633 -0.0618
 6787SOL    HW221261   2.431   2.710   5.888 -0.3383  0.2784 -0.0932
 6788SOL     OW21262   2.664   3.896   6.069 -0.2491  0.5090 -0.1014
 6788SOL    HW121263   2.665   3.802   6.103 -0.1480  0.4369 -0.3024
 6788SOL    HW221264   2.572   3.920   6.039 -0.1802  0.3313 -0.4481
 6789SOL     OW21265   6.266   5.362   4.574 -0.8983  0.0458  0.0925
 6789SOL    HW121266   6.352   5.406   4.549 -0.1693 -0.1503  2.0361
 6789SOL    HW221267   6.190   5.427   4.564 -0.8652 -0.2518 -3.2155
 6790SOL     OW21268   3.373   3.253   6.676  0.2023  0.2673 -0.1534
 6790SOL    HW121269   3.433   3.302   6.740 -0.0174  0.6816 -0.2617
 6790SOL    HW221270   3.427   3.220   6.599 -0.1485  3.6422 -2.0835
 6791SOL     OW21271   5.277   4.371   2.043 -0.1490  0.3503  0.2201
 6791SOL    HW121272   5.371   4.359   2.076 -0.5563 -1.5653  0.7671
 6791SOL    HW221273   5.279   4.389   1.944  0.7593 -0.3452  0.0967
 6792SOL     OW21274   1.196   6.540   0.531  0.3940  0.5495  0.6506
 6792SOL    HW121275   1.238   6.630   0.537  1.2592  0.1048  1.4103
 6792SOL    HW221276   1.256   6.479   0.480 -0.4276  0.5210 -0.3259
 6793SOL     OW21277   4.193   6.891   6.265  0.5478 -0.2035  0.4012
 6793SOL    HW121278   4.240   6.877   6.352 -0.6536 -1.8760  0.8377
 6793SOL    HW221279   4.164   6.803   6.228  0.9034  0.4806 -1.6525
 6794SOL     OW21280   1.085   6.781   5.289 -0.0840 -0.6602  0.7312
 6794SOL    HW121281   1.035   6.774   5.376 -1.2434 -2.4187 -0.0051
 6794SOL    HW221282   1.066   6.869   5.247  0.3749  0.1590  2.1790
 6795SOL     OW21283   0.611   1.319   0.114 -0.2924  0.7422 -0.0531
 6795SOL    HW121284   0.610   1.221   0.130 -2.1877  0.9463  1.5020
 6795SOL    HW221285   0.537   1.362   0.166 -0.7967  2.7548 -2.2551
 6796SOL     OW21286   4.518   5.645   4.568 -0.3122 -0.8368 -0.1233
 6796SOL    HW121287   4.541   5.741   4.554 -0.6762 -0.6486  0.5508
 6796SOL    HW221288   4.588   5.588   4.525 -0.8904 -0.3017 -1.8814
 6797SOL     OW21289   6.811   1.188   6.381  0.9110  0.4711  0.3156
 6797SOL    HW121290   6.712   1.200   6.378  1.0140  1.7200  1.1811
 6797SOL    HW221291   6.838   1.121   6.312 -0.4147  0.9416 -0.7226
 6798SOL     OW21292   6.625   3.709   5.886  0.4444  0.0066  0.5291
 6798SOL    HW121293   6.723   3.715   5.867  0.2479  0.3031 -0.4493
 6798SOL    HW221294   6.610   3.660   5.972  1.3552 -2.1349 -0.4697
 6799SOL     OW21295   4.987   6.902   1.613  0.2508  0.2136  0.3510
 6799SOL    HW121296   5.047   6.927   1.537  0.6008 -0.6334  0.3445
 6799SOL    HW221297   5.032   6.926   1.699  0.1198  0.5907  0.3199
 6800SOL     OW21298   1.828   5.689   1.917 -0.2343  0.6498 -0.5641
 6800SOL    HW121299   1.862   5.780   1.942  1.4095 -0.0412 -0.1688
 6800SOL    HW221300   1.827   5.630   1.998 -0.7587  0.1354 -0.9316
 6801SOL     OW21301   2.045   4.276   6.920 -0.3946 -0.0482 -0.2623
 6801SOL    HW121302   2.066   4.333   7.000 -0.1444 -0.2358 -0.1922
 6801SOL    HW221303   1.951   4.293   6.891 -0.3651  0.3044 -0.1618
 6802SOL     OW21304   2.938   4.796   0.532  0.2974 -0.4926  0.2781
 6802SOL    HW121305   2.895   4.803   0.442 -0.1195  0.5437  0.5430
 6802SOL    HW221306   2.867   4.788   0.602  0.5611  0.3224  0.6432
 6803SOL     OW21307   6.260   7.013   1.540 -0.7792  0.2607 -0.3185
 6803SOL    HW121308   6.186   6.961   1.582 -1.5153  0.7029 -1.0476
 6803SOL    HW221309   6.226   7.063   1.461  0.2534  0.6483 -0.5426
 6804SOL     OW21310   5.548   6.989   0.816 -0.1430 -0.3175  0.5992
 6804SOL    HW121311   5.589   7.012   0.728 -1.5667  0.9492  0.2205
 6804SOL    HW221312   5.479   6.918   0.802 -0.7654  0.2787  0.5762
 6805SOL     OW21313   0.313   1.575   2.616  0.2460  0.6128 -0.1385
 6805SOL    HW121314   0.311   1.596   2.714 -0.3698  1.5521 -0.3369
 6805SOL    HW221315   0.342   1.480   2.603  0.8633  0.6372  0.9201
 6806SOL     OW21316   0.852   6.443   3.907  0.0845 -0.4351  0.0691
 6806SOL    HW121317   0.919   6.447   3.833 -0.3566 -1.6388 -0.4147
 6806SOL    HW221318   0.760   6.450   3.870 -0.1218  2.8782  0.8523
 6807SOL     OW21319   6.758   2.498   6.843  0.2440  0.0893  0.4304
 6807SOL    HW121320   6.717   2.409   6.823 -0.9845  0.4253  1.3761
 6807SOL    HW221321   6.686   2.565   6.860  1.1467  1.3222 -0.4295
 6808SOL     OW21322   1.899   6.254   3.630 -0.5569  0.4009 -0.0502
 6808SOL    HW121323   1.938   6.241   3.539 -0.4428  0.5822 -0.0281
 6808SOL    HW221324   1.954   6.321   3.680 -1.2576  1.1217 -0.2353
 6809SOL     OW21325   0.359   0.031   6.397 -0.5445  0.2853 -0.3845
 6809SOL    HW121326   0.418  -0.046   6.423 -1.5621 -0.6326 -0.6885
 6809SOL    HW221327   0.408   0.090   6.333 -0.1213 -0.7582 -1.0658
 6810SOL     OW21328   2.837   2.092   2.356  0.3422  0.4567 -0.3186
 6810SOL    HW121329   2.794   2.167   2.306  2.3672  3.0908  1.5883
 6810SOL    HW221330   2.935   2.091   2.336  0.7150 -0.2358  1.3637
 6811SOL     OW21331   3.685   1.333   4.030  0.0733 -0.2311  0.1618
 6811SOL    HW121332   3.605   1.292   4.074  0.3115  0.2184  1.0340
 6811SOL    HW221333   3.655   1.395   3.958 -0.4426  0.8996  1.3000
 6812SOL     OW21334   2.708   5.858   3.924  0.2644  0.0079  0.0962
 6812SOL    HW121335   2.759   5.845   3.839 -0.4404  0.4215 -0.4020
 6812SOL    HW221336   2.610   5.863   3.904  0.2139  2.2350  0.6382
 6813SOL     OW21337   2.402   3.544   1.674 -0.2535 -0.0275  0.2574
 6813SOL    HW121338   2.335   3.517   1.605 -0.5510 -3.1635  1.5938
 6813SOL    HW221339   2.371   3.513   1.764  0.3933  3.4201  1.8054
 6814SOL     OW21340   6.150   2.877   1.244 -0.0852 -0.6829 -0.1954
 6814SOL    HW121341   6.178   2.792   1.291  0.6469 -0.8383 -0.8895
 6814SOL    HW221342   6.095   2.854   1.164 -0.5919 -0.4547  0.0820
 6815SOL     OW21343   0.874   2.295   2.956  0.5810 -0.4221  0.3055
 6815SOL    HW121344   0.868   2.304   3.056  0.2445 -0.5358  0.2958
 6815SOL    HW221345   0.915   2.378   2.918  0.3574 -0.2174  0.5049
 6816SOL     OW21346   1.684   1.120   6.168  0.0130 -0.0566 -0.5883
 6816SOL    HW121347   1.651   1.075   6.085  1.5796  0.0916 -1.3380
 6816SOL    HW221348   1.782   1.102   6.179 -0.2424 -0.4426  1.4885
 6817SOL     OW21349   1.153   5.701   6.356  0.1469 -0.5862  0.3863
 6817SOL    HW121350   1.190   5.609   6.347  2.8228  0.3221  1.1480
 6817SOL    HW221351   1.149   5.726   6.452  1.6345  0.8579  0.1159
 6818SOL     OW21352   5.864   6.135   0.891  0.2397 -0.2429 -0.0376
 6818SOL    HW121353   5.932   6.199   0.927  0.7647 -0.2366 -1.0101
 6818SOL    HW221354   5.908   6.048   0.868 -0.1561 -0.3762 -0.3030
 6819SOL     OW21355   5.311   0.356   1.460  0.0733 -0.0502  0.2134
 6819SOL    HW121356   5.316   0.288   1.533  1.8149  1.6028  1.7126
 6819SOL    HW221357   5.215   0.373   1.438 -0.4499 -2.9603 -0.2819
 6820SOL     OW21358   4.826   1.802   5.948 -0.4262  0.0788 -0.3643
 6820SOL    HW121359   4.897   1.870   5.930  1.1827 -1.2837  0.5658
 6820SOL    HW221360   4.762   1.799   5.871  1.3225  0.3583 -1.8896
 6821SOL     OW21361   2.186   5.977   0.213 -0.2638 -0.1747  0.0563
 6821SOL    HW121362   2.145   6.060   0.176 -1.1833 -0.5039  0.3176
 6821SOL    HW221363   2.144   5.955   0.300  1.0237 -0.0971  0.7186
 6822SOL     OW21364   6.190   0.023   4.713  0.3196 -0.0347  0.3628
 6822SOL    HW121365   6.265  -0.029   4.674 -0.2586  1.6333 -3.3754
 6822SOL    HW221366   6.138  -0.035   4.775  1.4322 -2.9420 -1.2505
 6823SOL     OW21367   7.009   4.361   5.656  0.3315 -1.3551 -0.1709
 6823SOL    HW121368   6.976   4.454   5.673  0.4832 -1.0450 -1.4667
 6823SOL    HW221369   6.955   4.296   5.710  1.7209 -0.3735  2.5969
 6824SOL     OW21370   6.638   0.264   5.864  0.6779 -0.6967  0.2758
 6824SOL    HW121371   6.736   0.262   5.880  0.9384 -0.5647 -1.1282
 6824SOL    HW221372   6.620   0.250   5.766 -0.5934  0.9931  0.2137
 6825SOL     OW21373   6.149   5.217   5.322  0.1016  0.4600  0.0724
 6825SOL    HW121374   6.072   5.242   5.263  0.0087  1.8587  0.7465
 6825SOL    HW221375   6.204   5.298   5.342  1.2755 -0.3620  0.2971
 6826SOL     OW21376   0.022   3.393   2.487 -0.3209  0.4187 -0.4501
 6826SOL    HW121377   0.015   3.294   2.474  1.6430 -0.1851  2.2927
 6826SOL    HW221378   0.108   3.425   2.447 -2.0191  1.5863 -3.5178
 6827SOL     OW21379   3.551   0.329   6.218 -0.1459 -0.1324  0.2389
 6827SOL    HW121380   3.470   0.379   6.250 -0.1536  1.1588 -1.6419
 6827SOL    HW221381   3.522   0.251   6.162 -0.0841 -0.1281  0.2012
 6828SOL     OW21382   0.237   3.452   2.303  0.1275  0.3620  0.0875
 6828SOL    HW121383   0.218   3.494   2.215  2.1906 -0.7336 -0.9619
 6828SOL    HW221384   0.332   3.423   2.306 -0.3026 -1.0559  2.0819
 6829SOL     OW21385   1.634   4.376   5.845 -0.3627 -0.2125 -0.1299
 6829SOL    HW121386   1.694   4.450   5.875  1.0091 -2.1419  2.2186
 6829SOL    HW221387   1.548   4.414   5.812 -0.3054  2.3899  2.3567
 6830SOL     OW21388   4.861   3.850   4.454  0.2903 -0.3319  0.4818
 6830SOL    HW121389   4.850   3.910   4.533  1.9480 -0.8311  1.1133
 6830SOL    HW221390   4.868   3.755   4.485  1.4335 -0.4840 -0.2199
 6831SOL     OW21391   6.382   1.464   3.714  0.2027 -0.1364  0.3953
 6831SOL    HW121392   6.406   1.496   3.622  1.7541 -0.9347  0.4926
 6831SOL    HW221393   6.460   1.415   3.754  0.1726  1.5513  2.7700
 6832SOL     OW21394   0.283   2.526   4.432 -0.5588  0.4652  0.8411
 6832SOL    HW121395   0.332   2.473   4.501  1.0022  1.3232  0.4412
 6832SOL    HW221396   0.228   2.596   4.476 -1.4429 -0.4804  1.2963
 6833SOL     OW21397   0.872   6.866   1.151  0.0215  0.0553 -0.6421
 6833SOL    HW121398   0.913   6.910   1.230 -1.8442  1.0234 -0.1427
 6833SOL    HW221399   0.943   6.836   1.088  1.4696  0.9840  0.4939
 6834SOL     OW21400   2.019   1.584   4.949  0.7678  0.4983  1.0198
 6834SOL    HW121401   2.001   1.599   4.852  1.9914  1.0050  0.8545
 6834SOL    HW221402   1.951   1.521   4.987  0.4560  0.0698 -0.2254
 6835SOL     OW21403   5.921   4.904   3.275  0.4375 -0.2955 -0.1135
 6835SOL    HW121404   6.020   4.905   3.259  0.4864  3.2398 -0.3236
 6835SOL    HW221405   5.902   4.933   3.369 -0.4151 -0.8982 -0.0914
 6836SOL     OW21406   1.270   1.420   3.563  0.2639 -0.5813  0.1953
 6836SOL    HW121407   1.188   1.370   3.535  1.0141 -0.9396 -1.5392
 6836SOL    HW221408   1.315   1.370   3.637 -0.3023 -1.1622  0.1627
 6837SOL     OW21409   5.373   2.283   4.473 -0.4087  0.0438 -0.4749
 6837SOL    HW121410   5.338   2.306   4.563 -0.8904 -0.5038 -0.5206
 6837SOL    HW221411   5.359   2.185   4.455  1.9627 -0.4496 -0.1030
 6838SOL     OW21412   1.044   4.377   3.457  0.1518  0.3413 -0.0346
 6838SOL    HW121413   1.103   4.401   3.534  1.8049 -0.0715 -1.1160
 6838SOL    HW221414   1.052   4.447   3.386  0.4137 -0.3901 -0.7453
 6839SOL     OW21415   2.365   1.217   5.008  0.1981 -0.1712 -0.4861
 6839SOL    HW121416   2.389   1.141   5.069  0.4980  0.5514  0.3102
 6839SOL    HW221417   2.275   1.201   4.969  0.4648 -1.1856 -0.7304
 6840SOL     OW21418   2.192   6.357   2.067 -0.4518  0.0558 -0.0585
 6840SOL    HW121419   2.150   6.423   2.006 -0.1166  0.7132  0.4137
 6840SOL    HW221420   2.159   6.373   2.161 -2.1848 -1.9145 -0.2435
 6841SOL     OW21421   0.100   1.818   4.579  0.2733  0.4130  0.3697
 6841SOL    HW121422   0.012   1.854   4.547  0.5808  1.9477  1.1442
 6841SOL    HW221423   0.095   1.718   4.585 -1.9685  0.5331  1.8985
 6842SOL     OW21424   2.788   0.824   6.280 -0.7528  0.1832  0.0831
 6842SOL    HW121425   2.711   0.887   6.290 -0.1067  0.8453  0.9411
 6842SOL    HW221426   2.820   0.825   6.185 -1.8850 -0.2083 -0.3190
 6843SOL     OW21427   0.555   2.311   4.030  0.0504 -0.4873  0.4875
 6843SOL    HW121428   0.530   2.218   4.058 -1.0596 -0.5197 -0.5466
 6843SOL    HW221429   0.512   2.377   4.092  0.1970 -0.6415  0.7539
 6844SOL     OW21430   2.526   6.779   3.778  0.2824 -0.2418  0.5806
 6844SOL    HW121431   2.573   6.707   3.727 -1.1360  0.8200 -2.5311
 6844SOL    HW221432   2.455   6.738   3.836 -0.1723 -1.4334 -0.7562
 6845SOL     OW21433   4.291   6.431   3.389  0.2261 -0.5694 -0.0870
 6845SOL    HW121434   4.321   6.518   3.426 -0.7292  0.0738 -0.7900
 6845SOL    HW221435   4.362   6.362   3.405  0.3858 -0.0252  1.7421
 6846SOL     OW21436   4.193   6.314   2.197  0.5059 -0.5874  0.0614
 6846SOL    HW121437   4.169   6.231   2.248  1.7294 -0.8684  0.1973
 6846SOL    HW221438   4.228   6.383   2.260  0.6656 -0.4159 -0.2110
 6847SOL     OW21439   6.730   5.891   1.629 -0.2894  0.0693 -0.2809
 6847SOL    HW121440   6.727   5.920   1.725 -1.1685 -1.0417  0.0452
 6847SOL    HW221441   6.697   5.966   1.571 -1.3021  0.1896  0.4245
 6848SOL     OW21442   4.770   4.698   2.290  0.0465 -0.1140 -0.2028
 6848SOL    HW121443   4.772   4.623   2.356  0.7589  0.4255  0.4025
 6848SOL    HW221444   4.776   4.661   2.197 -2.4326 -0.9920 -0.1009
 6849SOL     OW21445   0.464   3.814   3.941  0.3122  0.3361  0.1345
 6849SOL    HW121446   0.457   3.889   4.006 -0.7500  0.8150 -0.5029
 6849SOL    HW221447   0.455   3.849   3.848 -3.3048 -0.8108 -0.1188
 6850SOL     OW21448   2.235   2.902   4.370  0.0326  0.1323 -0.1817
 6850SOL    HW121449   2.210   2.981   4.426 -1.1852 -1.1967  1.2581
 6850SOL    HW221450   2.156   2.843   4.358  0.3055  0.2282 -3.2284
 6851SOL     OW21451   2.006   2.347   2.320 -0.1475  0.3045  0.8359
 6851SOL    HW121452   1.982   2.381   2.410  1.2944  2.4168  0.4895
 6851SOL    HW221453   2.045   2.421   2.265 -2.3118 -0.5115 -2.0644
 6852SOL     OW21454   0.591   1.856   4.390  0.0680 -0.1923 -0.4900
 6852SOL    HW121455   0.603   1.842   4.291  1.2867 -1.2310 -0.2248
 6852SOL    HW221456   0.671   1.905   4.426 -1.2116  1.8781 -0.2938
 6853SOL     OW21457   3.476   1.773   1.844 -0.1983  0.1767  0.0041
 6853SOL    HW121458   3.462   1.697   1.779 -2.2972  0.9735 -0.5358
 6853SOL    HW221459   3.499   1.856   1.793  0.9272  0.1932  0.5127
 6854SOL     OW21460   4.107   3.003   0.763 -0.1770  0.7120  0.5609
 6854SOL    HW121461   4.142   3.096   0.762 -1.6093  1.2797  0.8686
 6854SOL    HW221462   4.052   2.989   0.845 -0.9814 -0.0117 -0.0868
 6855SOL     OW21463   4.304   6.898   3.417 -0.6529  0.1143 -0.2388
 6855SOL    HW121464   4.204   6.890   3.420 -0.6830  0.2130 -0.8744
 6855SOL    HW221465   4.345   6.812   3.447 -0.9347  0.0067 -0.1624
 6856SOL     OW21466   0.330   0.776   1.998 -0.0024  0.5427  0.3625
 6856SOL    HW121467   0.429   0.773   1.986 -0.1904  1.1197 -1.7001
 6856SOL    HW221468   0.300   0.871   2.003 -0.5812  0.4101 -0.4243
 6857SOL     OW21469   1.016   4.242   6.866 -0.1351  0.3576 -0.2072
 6857SOL    HW121470   1.062   4.219   6.951 -0.1629  1.3894  0.1010
 6857SOL    HW221471   0.983   4.158   6.822 -0.4208 -0.1715  0.9635
 6858SOL     OW21472   0.365   3.393   3.087 -0.3687 -0.5753 -0.0906
 6858SOL    HW121473   0.308   3.317   3.054 -0.2870  0.3304 -2.4488
 6858SOL    HW221474   0.435   3.414   3.020  0.7281  0.4946  1.3221
 6859SOL     OW21475   0.059   0.605   5.755  0.3978 -0.4013  0.4518
 6859SOL    HW121476   0.097   0.570   5.670  1.1009 -0.5743  0.8293
 6859SOL    HW221477   0.132   0.640   5.813 -0.0732 -0.2633  0.9777
 6860SOL     OW21478   0.763   4.762   2.873 -0.4806  0.0606  0.0243
 6860SOL    HW121479   0.812   4.849   2.866 -0.5707  0.1495  0.4672
 6860SOL    HW221480   0.694   4.768   2.946 -0.7085 -0.2745 -0.1606
 6861SOL     OW21481   2.450   2.363   6.682  0.3861 -0.1539  0.6197
 6861SOL    HW121482   2.443   2.463   6.687 -0.5400 -0.0718 -1.3793
 6861SOL    HW221483   2.409   2.331   6.597  1.9213 -2.1323  0.5608
 6862SOL     OW21484   6.079   6.321   0.768 -0.0212  0.0157 -0.4675
 6862SOL    HW121485   6.063   6.410   0.724 -2.3896 -0.5998 -1.0048
 6862SOL    HW221486   6.100   6.335   0.865 -1.0405  1.1668 -0.3829
 6863SOL     OW21487   0.937   0.460   0.117 -0.9709 -0.0894 -0.2103
 6863SOL    HW121488   0.979   0.371   0.096 -1.1242  0.1136 -1.4903
 6863SOL    HW221489   0.959   0.525   0.044 -0.5373  1.0507  0.9064
 6864SOL     OW21490   4.582   0.637   1.788 -0.1510 -0.4370 -0.2506
 6864SOL    HW121491   4.522   0.701   1.836 -1.0113 -0.0481 -1.8095
 6864SOL    HW221492   4.599   0.670   1.695 -0.0638 -2.1439 -0.8693
 6865SOL     OW21493   6.565   5.155   2.584 -0.1993 -0.3743 -0.1157
 6865SOL    HW121494   6.631   5.183   2.653 -0.1817 -0.0553 -0.2630
 6865SOL    HW221495   6.569   5.055   2.573  0.6598 -0.3046 -0.5353
 6866SOL     OW21496   2.541   0.458   4.130  0.3638  0.1816  0.2689
 6866SOL    HW121497   2.591   0.453   4.216  1.6783 -0.9454 -0.5126
 6866SOL    HW221498   2.444   0.440   4.146  0.6737 -0.5371  1.4360
 6867SOL     OW21499   0.710   4.494   1.331 -0.0226 -0.3000  0.0272
 6867SOL    HW121500   0.709   4.576   1.389 -0.8879 -0.3616  0.1040
 6867SOL    HW221501   0.675   4.517   1.240 -2.8117 -1.1080  0.7987
 6868SOL     OW21502   3.454   5.658   3.979 -0.2152 -0.3763  0.2492
 6868SOL    HW121503   3.514   5.585   3.946 -0.9925 -0.4907 -0.9722
 6868SOL    HW221504   3.462   5.737   3.919 -1.2195 -0.3672  0.1024
 6869SOL     OW21505   3.321   1.560   4.463 -0.2474 -0.3038 -0.1448
 6869SOL    HW121506   3.241   1.542   4.406 -0.0705  1.6548 -1.0948
 6869SOL    HW221507   3.397   1.503   4.433 -0.7443 -0.8049 -0.4690
 6870SOL     OW21508   5.396   6.891   1.505  0.1579  0.3843  0.5506
 6870SOL    HW121509   5.330   6.826   1.468  0.7104 -1.2221  2.2397
 6870SOL    HW221510   5.487   6.852   1.502  0.8747  2.0223 -0.4556
 6871SOL     OW21511   4.870   1.844   5.549  0.0222 -0.1187 -0.5530
 6871SOL    HW121512   4.949   1.905   5.538 -0.1372 -0.2533 -3.4110
 6871SOL    HW221513   4.870   1.776   5.475 -0.7437 -2.5812  1.5423
 6872SOL     OW21514   6.931   2.503   6.426  0.2908  0.0610 -0.0166
 6872SOL    HW121515   7.005   2.479   6.489 -1.4939 -1.8500  1.4867
 6872SOL    HW221516   6.871   2.569   6.469  0.0220  0.0843 -0.4240
 6873SOL     OW21517   2.186   4.042   2.754 -0.0595 -0.1069 -0.3073
 6873SOL    HW121518   2.201   3.956   2.801 -2.1899 -0.3727 -0.0207
 6873SOL    HW221519   2.200   4.118   2.817 -0.0893 -0.3354 -0.0260
 6874SOL     OW21520   4.870   2.903   5.451  0.1299 -0.1276  0.0678
 6874SOL    HW121521   4.959   2.883   5.491  0.1565  0.4084  0.2830
 6874SOL    HW221522   4.813   2.821   5.454 -0.3049  0.1819  2.3457
 6875SOL     OW21523   2.931   3.818   2.325  0.5606 -0.0112  0.7531
 6875SOL    HW121524   2.867   3.893   2.310  0.2496  0.0354  2.1912
 6875SOL    HW221525   2.939   3.763   2.242 -1.3363 -0.0227  0.5489
 6876SOL     OW21526   1.760   2.693   1.307  0.0599 -0.0519 -0.0789
 6876SOL    HW121527   1.687   2.704   1.240  0.5074 -0.1460 -0.5841
 6876SOL    HW221528   1.795   2.600   1.303  0.7827  0.2279 -0.4324
 6877SOL     OW21529   2.158   4.082   4.813  0.2331  0.0183 -0.2392
 6877SOL    HW121530   2.223   4.070   4.888 -0.3779 -1.7002  0.0407
 6877SOL    HW221531   2.178   4.169   4.767  0.4096  1.3013  2.0856
 6878SOL     OW21532   6.892   5.716   4.621  0.1387 -0.0808  0.1449
 6878SOL    HW121533   6.974   5.686   4.573 -0.8153  0.0404 -1.6472
 6878SOL    HW221534   6.832   5.637   4.637 -0.7749  0.2413 -1.4067
 6879SOL     OW21535   0.831   0.650   0.943 -0.7013 -0.3758  0.1003
 6879SOL    HW121536   0.872   0.702   1.017  0.5147 -0.7877 -0.2692
 6879SOL    HW221537   0.785   0.713   0.880  2.9786  0.7256 -1.7956
 6880SOL     OW21538   2.354   2.024   6.510 -0.3831  0.4821  0.1945
 6880SOL    HW121539   2.441   1.990   6.545 -0.2959  1.1886  0.6858
 6880SOL    HW221540   2.279   1.971   6.550 -0.1368 -1.4585 -1.7348
 6881SOL     OW21541   0.890   6.527   4.173 -0.0619  0.1190  0.0730
 6881SOL    HW121542   0.831   6.607   4.175 -1.3172 -0.7349 -0.8689
 6881SOL    HW221543   0.887   6.486   4.081 -0.4709 -1.7124  0.8570
 6882SOL     OW21544   1.856   2.367   5.929  0.0631 -0.6283  0.5864
 6882SOL    HW121545   1.853   2.389   5.831  2.7915 -1.2571  0.2760
 6882SOL    HW221546   1.855   2.451   5.982  0.2930 -0.2060 -0.0647
 6883SOL     OW21547   4.115   5.172   5.606 -0.4107  0.2443  0.1308
 6883SOL    HW121548   4.179   5.095   5.610 -0.6836 -0.0081 -0.3197
 6883SOL    HW221549   4.022   5.138   5.625 -0.5227  0.4697 -0.0171
 6884SOL     OW21550   6.886   4.083   6.439 -0.2095  0.5582 -0.0702
 6884SOL    HW121551   6.940   4.166   6.424 -1.7458  1.6692  0.2072
 6884SOL    HW221552   6.831   4.064   6.358  0.8444 -0.7780 -0.4991
 6885SOL     OW21553   1.077   3.896   6.181  0.6410  0.5073 -0.2056
 6885SOL    HW121554   1.054   3.902   6.084  1.4305  0.8573 -0.3813
 6885SOL    HW221555   1.127   3.978   6.209  3.0358 -0.8595 -0.2437
 6886SOL     OW21556   6.103   2.524   4.116 -0.2519 -0.3928 -0.6470
 6886SOL    HW121557   6.200   2.525   4.138 -0.1560 -1.2747 -0.9786
 6886SOL    HW221558   6.066   2.433   4.134 -1.1787  0.1227  0.1391
 6887SOL     OW21559   4.457   2.082   3.176 -1.0330  0.0676  0.0029
 6887SOL    HW121560   4.504   1.998   3.203 -2.7989 -1.8733 -2.5040
 6887SOL    HW221561   4.499   2.119   3.093 -1.5964  0.4344 -0.1232
 6888SOL     OW21562   2.755   1.549   0.985 -0.0943 -0.0547  0.6023
 6888SOL    HW121563   2.744   1.539   1.084  1.4673  2.5031  1.1224
 6888SOL    HW221564   2.836   1.498   0.955 -0.2585 -0.3944  0.7354
 6889SOL     OW21565   1.453   5.874   0.685  0.5202  0.4585  0.2337
 6889SOL    HW121566   1.445   5.861   0.784 -1.3594 -1.9775 -0.1554
 6889SOL    HW221567   1.550   5.884   0.661  0.9536  2.0219  2.3650
 6890SOL     OW21568   5.516   2.637   3.964  0.0915 -0.1008 -0.6556
 6890SOL    HW121569   5.550   2.731   3.971  0.5149 -0.3342  0.6891
 6890SOL    HW221570   5.426   2.637   3.921 -1.2584  1.2785  1.9112
 6891SOL     OW21571   3.014   6.585   0.665  0.3284 -0.0712 -0.0862
 6891SOL    HW121572   3.000   6.622   0.757  0.2679 -0.2275 -0.0336
 6891SOL    HW221573   2.950   6.628   0.601  1.6599  1.5299 -0.4505
 6892SOL     OW21574   1.642   3.298   6.326 -0.1158  0.2319 -0.1248
 6892SOL    HW121575   1.660   3.326   6.232 -0.0926  0.2439 -0.1166
 6892SOL    HW221576   1.702   3.221   6.350  0.3108  0.6299  0.0851
 6893SOL     OW21577   1.316   5.652   2.459  0.5843  0.4812 -0.4158
 6893SOL    HW121578   1.397   5.650   2.518 -0.0999  1.1045  0.5624
 6893SOL    HW221579   1.278   5.560   2.452 -1.4331  0.8637  3.1537
 6894SOL     OW21580   6.760   6.746   6.915 -0.4086  0.2562 -0.4438
 6894SOL    HW121581   6.832   6.677   6.921 -0.7399 -0.4289 -3.0438
 6894SOL    HW221582   6.794   6.832   6.951  0.5469 -0.8298  1.4381
 6895SOL     OW21583   2.358   5.717   6.541  0.0929  0.1715  0.2969
 6895SOL    HW121584   2.430   5.786   6.531  0.8660 -0.5869  0.5115
 6895SOL    HW221585   2.328   5.687   6.450  1.1006 -0.5670  0.1870
 6896SOL     OW21586   3.404   6.462   3.178  0.0991  0.0355 -0.3055
 6896SOL    HW121587   3.375   6.398   3.107  0.9530 -0.6439 -0.0473
 6896SOL    HW221588   3.345   6.543   3.175 -0.0331 -0.0786 -1.6339
 6897SOL     OW21589   2.272   1.826   2.732 -0.4092  0.2651  0.4379
 6897SOL    HW121590   2.329   1.786   2.660  0.6900  0.4919  1.1494
 6897SOL    HW221591   2.242   1.917   2.704 -1.4089 -0.3199 -0.4324
 6898SOL     OW21592   3.109   1.014   3.107 -0.5791  0.3725  0.1097
 6898SOL    HW121593   3.117   0.970   3.017  0.2774  1.9115 -0.6160
 6898SOL    HW221594   3.200   1.024   3.146 -0.6517  2.1556 -0.1091
 6899SOL     OW21595   4.232   2.354   6.431 -0.0739  0.7458  0.0488
 6899SOL    HW121596   4.213   2.277   6.492  0.6605  0.8985  0.4830
 6899SOL    HW221597   4.147   2.387   6.391 -0.4504  0.0073  0.2231
 6900SOL     OW21598   4.683   0.970   2.464 -0.5016 -0.7627 -0.0875
 6900SOL    HW121599   4.727   1.033   2.528 -2.3130 -0.6486  1.1178
 6900SOL    HW221600   4.752   0.926   2.407  1.0905 -0.1812  1.3308
 6901SOL     OW21601   6.979   4.376   3.889  0.3131 -0.4979  0.0274
 6901SOL    HW121602   7.027   4.419   3.965  2.4200  0.1091 -1.5441
 6901SOL    HW221603   6.944   4.287   3.918  2.3657 -0.9494  1.3356
 6902SOL     OW21604   4.813   0.771   4.116  0.0187 -0.1689  0.2790
 6902SOL    HW121605   4.885   0.792   4.051 -1.5641 -0.6207 -1.7255
 6902SOL    HW221606   4.800   0.672   4.120  0.8414 -0.2296  2.1750
 6903SOL     OW21607   3.780   0.470   4.989  0.0415 -0.4817  0.3562
 6903SOL    HW121608   3.805   0.384   4.945  1.2230  0.8203 -1.6369
 6903SOL    HW221609   3.691   0.500   4.954  0.6310  0.1676 -0.6410
 6904SOL     OW21610   1.922   4.308   6.021  0.4404  0.0145 -0.0512
 6904SOL    HW121611   2.014   4.338   6.045  0.8082 -1.5348  0.6104
 6904SOL    HW221612   1.924   4.211   5.997 -1.2009 -0.4022  1.2584
 6905SOL     OW21613   2.750   0.695   3.638 -0.1322  0.0199  0.2755
 6905SOL    HW121614   2.727   0.787   3.670 -2.4579 -0.6242  0.6602
 6905SOL    HW221615   2.743   0.631   3.714 -0.3079 -0.7286 -0.3558
 6906SOL     OW21616   2.986   6.546   6.266 -0.1019 -0.4812 -0.6633
 6906SOL    HW121617   2.966   6.563   6.362  0.2963 -0.2827 -0.6146
 6906SOL    HW221618   3.056   6.475   6.258  1.7773  1.2992 -0.7107
 6907SOL     OW21619   4.241   6.797   1.111 -0.0901  0.0702  0.0659
 6907SOL    HW121620   4.227   6.698   1.117 -2.1201  0.3802  1.6754
 6907SOL    HW221621   4.158   6.841   1.077  0.4897  1.3022  0.1615
 6908SOL     OW21622   5.161   6.070   1.888  0.0580  0.2823 -0.2059
 6908SOL    HW121623   5.090   6.139   1.881  1.2009  1.4427 -0.8289
 6908SOL    HW221624   5.245   6.112   1.924  0.0016 -1.3899  2.0920
 6909SOL     OW21625   4.490   6.659   1.526 -0.3222  0.3518 -0.6536
 6909SOL    HW121626   4.477   6.684   1.622 -0.2146 -0.5918 -0.3785
 6909SOL    HW221627   4.402   6.640   1.484 -0.3255  0.1314 -0.5519
 6910SOL     OW21628   1.377   3.773   0.745 -0.3703 -0.7170  0.3228
 6910SOL    HW121629   1.418   3.695   0.699  0.7349  0.4734 -0.8098
 6910SOL    HW221630   1.311   3.817   0.684  0.5269  0.4147  0.1356
 6911SOL     OW21631   3.207   0.429   2.502  0.0282  0.1808 -0.5063
 6911SOL    HW121632   3.278   0.410   2.571 -0.2387  0.1218 -0.2466
 6911SOL    HW221633   3.214   0.362   2.429 -0.1478 -0.2005 -0.1791
 6912SOL     OW21634   2.245   5.915   3.202 -0.1366  0.2616  0.2238
 6912SOL    HW121635   2.188   5.995   3.184  0.9612  0.8614 -0.7192
 6912SOL    HW221636   2.187   5.834   3.213 -1.2022  0.9891  0.0728
 6913SOL     OW21637   6.730   3.748   5.043  0.1106 -0.2439 -0.0061
 6913SOL    HW121638   6.664   3.705   5.105 -0.5129 -1.6464 -1.5645
 6913SOL    HW221639   6.734   3.696   4.958  1.4483  1.2345 -0.8943
 6914SOL     OW21640   2.902   2.698   1.112  0.4003 -0.1120 -0.3347
 6914SOL    HW121641   2.959   2.727   1.189 -0.1216 -0.0960  0.0503
 6914SOL    HW221642   2.929   2.749   1.030  0.9079 -0.0756 -0.1518
 6915SOL     OW21643   2.767   4.586   0.505  0.7093 -0.1876  0.0299
 6915SOL    HW121644   2.788   4.494   0.538 -1.7708 -0.2545  1.7346
 6915SOL    HW221645   2.754   4.647   0.584 -0.2756  0.9645 -0.9839
 6916SOL     OW21646   5.401   2.911   0.682  0.5596 -0.9556  0.1155
 6916SOL    HW121647   5.332   2.838   0.685  1.2675 -1.6174  0.7796
 6916SOL    HW221648   5.482   2.878   0.634  1.0529 -0.7714  0.8001
 6917SOL     OW21649   6.695   6.014   0.074  0.2827 -0.1091 -0.3391
 6917SOL    HW121650   6.627   6.088   0.076 -0.2023 -0.5427 -0.5486
 6917SOL    HW221651   6.653   5.930   0.109  0.5961 -0.4782 -0.8402
 6918SOL     OW21652   2.600   3.497   6.847 -0.5564 -0.2782 -0.2375
 6918SOL    HW121653   2.608   3.552   6.930  1.0156  0.9122 -1.1194
 6918SOL    HW221654   2.690   3.461   6.822 -0.1094  2.5112 -3.3946
 6919SOL     OW21655   2.013   1.137   2.964 -0.0853  0.1210  0.7503
 6919SOL    HW121656   1.960   1.169   3.042 -0.6835  1.3160 -0.1233
 6919SOL    HW221657   1.965   1.063   2.918 -1.4622  1.7342 -0.5214
 6920SOL     OW21658   5.440   2.810   1.371 -0.4626  0.9741  0.1679
 6920SOL    HW121659   5.389   2.746   1.429 -0.7001 -1.6785 -2.7251
 6920SOL    HW221660   5.376   2.874   1.328 -0.4630  1.9561  1.5684
 6921SOL     OW21661   0.734   1.412   6.206  0.1711 -0.0401 -0.0435
 6921SOL    HW121662   0.817   1.461   6.180  1.2103 -1.5440  0.2774
 6921SOL    HW221663   0.753   1.314   6.210 -1.4546 -0.3666  0.7054
 6922SOL     OW21664   0.108   6.648   3.214 -0.0878 -0.9223 -0.9293
 6922SOL    HW121665   0.086   6.589   3.293  2.7606  0.3811  1.0145
 6922SOL    HW221666   0.165   6.597   3.150  1.2941 -0.7638  0.1158
 6923SOL     OW21667   6.108   6.271   2.703  0.0454  0.5900 -0.4023
 6923SOL    HW121668   6.206   6.274   2.681  0.4771 -2.4739  0.6631
 6923SOL    HW221669   6.097   6.260   2.802 -1.4854  2.3139 -0.3316
 6924SOL     OW21670   3.070   6.291   5.951  0.0256 -0.2972  0.2106
 6924SOL    HW121671   3.068   6.350   5.870  0.0927 -0.5290  0.0401
 6924SOL    HW221672   3.007   6.215   5.939  0.8833 -0.9690 -0.1092
 6925SOL     OW21673   3.821   0.727   4.302 -0.0935  0.8413  0.0583
 6925SOL    HW121674   3.916   0.715   4.329 -0.2413  1.1205  0.7280
 6925SOL    HW221675   3.761   0.703   4.378 -0.5612  0.7038 -0.3435
 6926SOL     OW21676   6.691   5.468   3.695  0.5517  0.3560 -0.1186
 6926SOL    HW121677   6.632   5.548   3.710 -0.1728  0.1375 -1.6131
 6926SOL    HW221678   6.786   5.499   3.682  0.5783  0.8139  1.0353
 6927SOL     OW21679   1.299   2.266   2.064  0.1494 -0.0788  0.5909
 6927SOL    HW121680   1.338   2.180   2.030 -0.3283 -0.2271  0.4057
 6927SOL    HW221681   1.340   2.343   2.015  0.5567 -0.1981  0.7358
 6928SOL     OW21682   1.749   4.261   4.893 -0.6038  0.0660 -0.0356
 6928SOL    HW121683   1.781   4.168   4.876 -0.3294  0.2398 -0.4668
 6928SOL    HW221684   1.746   4.277   4.992  0.2408 -0.0851  0.0155
 6929SOL     OW21685   4.167   4.942   3.668  0.1341 -0.5098 -0.2243
 6929SOL    HW121686   4.149   4.881   3.746 -0.6294  0.6865  0.5602
 6929SOL    HW221687   4.193   4.887   3.589 -1.0440 -1.9178  0.3168
 6930SOL     OW21688   3.419   1.228   2.541  0.9921  0.0527 -0.0095
 6930SOL    HW121689   3.351   1.265   2.604 -0.5028 -0.3266 -1.3193
 6930SOL    HW221690   3.491   1.295   2.526 -0.0309  1.1918  0.0377
 6931SOL     OW21691   2.740   4.570   0.240  0.3105 -0.0600  0.5456
 6931SOL    HW121692   2.774   4.476   0.227  1.3410  0.3446  0.2326
 6931SOL    HW221693   2.748   4.595   0.336 -1.4963 -0.8486  0.9492
 6932SOL     OW21694   0.290   5.556   0.638  0.4683 -0.5776 -0.7892
 6932SOL    HW121695   0.328   5.633   0.689 -0.4221 -1.0586  0.6873
 6932SOL    HW221696   0.332   5.471   0.670 -1.2395 -1.0501  0.3908
 6933SOL     OW21697   5.442   1.950   0.832 -0.1109 -0.5361  0.2900
 6933SOL    HW121698   5.511   1.977   0.765 -0.7513  1.2094  0.2683
 6933SOL    HW221699   5.387   1.875   0.796  0.7599 -0.8885 -0.3335
 6934SOL     OW21700   1.870   4.012   4.821 -0.0408  0.5147 -0.2313
 6934SOL    HW121701   1.848   3.992   4.725 -1.4691 -1.0298  0.3669
 6934SOL    HW221702   1.970   4.015   4.832  0.1582  0.0124 -1.6404
 6935SOL     OW21703   3.584   6.929   3.815 -0.7625  0.3739 -0.3525
 6935SOL    HW121704   3.522   6.959   3.744 -0.8996 -1.8749 -1.2531
 6935SOL    HW221705   3.556   6.840   3.850  1.4056 -0.3026 -0.1378
 6936SOL     OW21706   4.481   2.417   2.056 -0.0210  0.0267 -0.0381
 6936SOL    HW121707   4.423   2.355   2.108 -0.2795 -0.0451 -0.4088
 6936SOL    HW221708   4.574   2.381   2.053 -0.0456 -0.0602  0.2208
 6937SOL     OW21709   5.967   1.659   1.587 -0.3200  0.1727  0.0058
 6937SOL    HW121710   5.911   1.597   1.532  0.2830  0.3226 -0.7923
 6937SOL    HW221711   6.061   1.624   1.592  0.5085  1.8820 -1.9886
 6938SOL     OW21712   2.210   2.575   0.391 -0.2249  0.2486  0.1354
 6938SOL    HW121713   2.183   2.666   0.424 -2.6451 -0.2708 -0.1980
 6938SOL    HW221714   2.153   2.550   0.313  0.1676 -1.6914  0.4184
 6939SOL     OW21715   5.781   4.889   1.633 -0.6833 -0.2122 -0.4403
 6939SOL    HW121716   5.776   4.796   1.668  0.1813 -0.6355 -1.3983
 6939SOL    HW221717   5.816   4.950   1.704 -1.0347 -0.6515  0.1163
 6940SOL     OW21718   0.474   4.622   1.810  0.1236 -0.2044 -0.6583
 6940SOL    HW121719   0.435   4.566   1.884 -0.3690 -0.4794 -1.1158
 6940SOL    HW221720   0.498   4.712   1.846 -0.5940 -0.1578 -0.2707
 6941SOL     OW21721   5.351   0.327   4.683  0.0103  0.2406  0.4965
 6941SOL    HW121722   5.297   0.355   4.762 -1.9520  0.4139 -0.8545
 6941SOL    HW221723   5.441   0.371   4.687 -0.4958  1.2128  1.9787
 6942SOL     OW21724   4.883   5.937   6.432 -0.0129 -0.0233 -0.0188
 6942SOL    HW121725   4.968   5.919   6.382 -0.6569  1.5992 -1.7807
 6942SOL    HW221726   4.902   5.934   6.530  1.4010 -2.7521 -0.2621
 6943SOL     OW21727   4.810   2.607   0.726  0.2137 -0.9104 -0.4408
 6943SOL    HW121728   4.720   2.614   0.683 -0.2544 -1.9664  0.3520
 6943SOL    HW221729   4.808   2.651   0.816  0.4822 -0.9743 -0.4025
 6944SOL     OW21730   2.466   4.244   5.702 -0.0023 -0.3070  0.1669
 6944SOL    HW121731   2.525   4.224   5.780 -0.3840 -0.7616  0.3468
 6944SOL    HW221732   2.521   4.272   5.624  0.3998 -0.0720  0.5317
 6945SOL     OW21733   5.817   1.490   2.168 -0.8981  0.1170 -0.3547
 6945SOL    HW121734   5.768   1.494   2.255 -1.0391  0.6867 -0.4598
 6945SOL    HW221735   5.828   1.582   2.131 -2.5867 -0.2551 -1.9057
 6946SOL     OW21736   4.862   2.982   4.457 -0.0256 -0.1483  0.7090
 6946SOL    HW121737   4.922   3.052   4.417 -0.5605  0.8214  1.5300
 6946SOL    HW221738   4.865   2.989   4.557 -0.9273 -0.5788  0.7801
 6947SOL     OW21739   3.035   4.272   5.827 -0.3359  0.4243  0.0641
 6947SOL    HW121740   3.064   4.312   5.914 -0.9682  0.0516  0.4561
 6947SOL    HW221741   3.085   4.188   5.810 -0.0110  0.6425 -0.0736
 6948SOL     OW21742   1.421   5.171   3.660  0.2599  0.2255  0.3154
 6948SOL    HW121743   1.366   5.103   3.612 -0.6186 -0.1330  1.7743
 6948SOL    HW221744   1.454   5.132   3.747  0.2821  1.4410  0.8710
 6949SOL     OW21745   5.245   1.916   1.020 -0.1187 -0.0427 -0.0915
 6949SOL    HW121746   5.169   1.980   1.032 -1.4855 -1.5069 -0.6270
 6949SOL    HW221747   5.303   1.948   0.945  2.0354  3.0691  2.5737
 6950SOL     OW21748   4.214   4.741   6.404 -0.0956  0.0735 -0.2066
 6950SOL    HW121749   4.236   4.680   6.328 -1.3358 -0.4285 -0.1802
 6950SOL    HW221750   4.291   4.744   6.468  1.5533  1.6288 -2.1565
 6951SOL     OW21751   0.663   4.426   6.425 -0.3328 -0.0407 -0.7693
 6951SOL    HW121752   0.682   4.492   6.498  0.7011  0.1544 -1.1993
 6951SOL    HW221753   0.641   4.475   6.341 -1.1155 -0.2645 -0.7009
 6952SOL     OW21754   5.555   2.247   3.719 -0.4318  0.1358 -0.2526
 6952SOL    HW121755   5.557   2.305   3.800  1.9626  1.6578 -1.3147
 6952SOL    HW221756   5.545   2.152   3.747 -1.6913  0.7699  1.6807
 6953SOL     OW21757   6.294   4.898   2.783  0.2943 -0.6119 -0.4181
 6953SOL    HW121758   6.232   4.903   2.862 -0.3205 -0.7353 -0.8849
 6953SOL    HW221759   6.253   4.946   2.706 -0.1199 -2.3012 -1.3089
 6954SOL     OW21760   5.705   0.010   2.622 -0.4179  0.0331  0.2552
 6954SOL    HW121761   5.706  -0.011   2.720  0.0607 -0.1246  0.2197
 6954SOL    HW221762   5.631   0.075   2.603 -2.0332 -1.7082  0.3369
 6955SOL     OW21763   2.708   6.371   1.390  0.2154  0.2252 -0.0544
 6955SOL    HW121764   2.628   6.340   1.441  1.2601 -2.7608 -0.0350
 6955SOL    HW221765   2.716   6.471   1.398 -3.1125  0.6013  0.3991
 6956SOL     OW21766   5.014   1.777   3.889 -0.6712 -1.1264 -0.1413
 6956SOL    HW121767   4.962   1.859   3.913  0.7405 -0.0009 -0.8022
 6956SOL    HW221768   4.950   1.700   3.875 -2.0007 -0.1997  0.6335
 6957SOL     OW21769   0.942   4.480   1.629  0.3530 -0.5919 -0.7407
 6957SOL    HW121770   0.888   4.424   1.567  0.0549 -0.7625 -0.3278
 6957SOL    HW221771   1.038   4.477   1.601  0.0933  0.0902 -1.7587
 6958SOL     OW21772   6.873   6.263   4.469 -0.1389 -0.3397  0.1714
 6958SOL    HW121773   6.829   6.238   4.556 -1.1427 -0.8055 -0.4570
 6958SOL    HW221774   6.839   6.352   4.439 -1.9560 -1.4299 -1.1430
 6959SOL     OW21775   6.239   4.227   4.564  0.7287  0.0379 -0.6722
 6959SOL    HW121776   6.197   4.316   4.549  0.3745 -0.0041  0.0239
 6959SOL    HW221777   6.266   4.188   4.476  0.4546  0.6201 -1.0223
 6960SOL     OW21778   2.078   5.538   1.434 -0.9081 -0.1466 -0.5582
 6960SOL    HW121779   1.993   5.546   1.381 -1.4247 -0.1306  0.2535
 6960SOL    HW221780   2.095   5.442   1.454 -0.8673 -0.1297 -0.5131
 6961SOL     OW21781   4.672   0.096   0.995  0.2917  0.2079  0.0068
 6961SOL    HW121782   4.623   0.108   0.909 -0.6173 -0.3378  0.4391
 6961SOL    HW221783   4.614   0.049   1.061  1.3626 -0.3612  0.5742
 6962SOL     OW21784   5.362   4.545   4.237 -0.2143 -0.4565  0.5936
 6962SOL    HW121785   5.403   4.457   4.260 -0.4467 -1.1363 -1.4441
 6962SOL    HW221786   5.368   4.561   4.139 -0.7151  1.5526  0.8326
 6963SOL     OW21787   5.669   5.764   4.532 -0.0632 -1.1089 -0.4649
 6963SOL    HW121788   5.751   5.748   4.477  0.4824  1.0245 -0.3856
 6963SOL    HW221789   5.622   5.678   4.548  2.7563 -2.5992  0.4471
 6964SOL     OW21790   2.365   5.751   3.420  0.2122 -0.3486 -0.2290
 6964SOL    HW121791   2.296   5.680   3.435 -0.1801  0.5363  2.6555
 6964SOL    HW221792   2.324   5.827   3.370 -1.7769  1.1590  3.3344
 6965SOL     OW21793   0.652   3.166   6.686 -0.7566  0.4539  0.1363
 6965SOL    HW121794   0.735   3.164   6.630 -0.3074 -0.5831  0.8152
 6965SOL    HW221795   0.574   3.140   6.629 -0.0725 -2.3029  0.3158
 6966SOL     OW21796   3.755   3.590   4.039  0.1494  0.3989  0.1517
 6966SOL    HW121797   3.721   3.528   3.968 -0.6291 -0.2571  1.0683
 6966SOL    HW221798   3.836   3.637   4.006 -0.5424  0.5615 -1.3973
 6967SOL     OW21799   0.647   6.443   4.570 -0.2974  0.1188 -0.1517
 6967SOL    HW121800   0.666   6.346   4.585  0.4798  0.2864  0.0154
 6967SOL    HW221801   0.637   6.490   4.658 -0.1275  0.2907 -0.2224
 6968SOL     OW21802   1.590   2.121   6.960  0.0230 -0.5865 -0.0739
 6968SOL    HW121803   1.657   2.126   6.886  0.4595 -1.4637  0.2486
 6968SOL    HW221804   1.588   2.028   6.996 -1.3159 -0.5441 -0.0170
 6969SOL     OW21805   2.168   5.584   4.453  0.2113 -0.7167 -0.3935
 6969SOL    HW121806   2.250   5.545   4.496 -0.9919 -1.8746  0.9733
 6969SOL    HW221807   2.159   5.548   4.360  0.4503 -1.8249 -0.0120
 6970SOL     OW21808   6.524   5.280   3.619  0.2020  0.7583  0.4142
 6970SOL    HW121809   6.582   5.354   3.652  1.3404  0.7338 -1.3827
 6970SOL    HW221810   6.437   5.317   3.586  0.3542  1.1609  0.4602
 6971SOL     OW21811   1.801   2.043   6.284  0.0703 -0.1311 -0.4886
 6971SOL    HW121812   1.706   2.032   6.313  0.6598 -1.0621  1.1839
 6971SOL    HW221813   1.805   2.111   6.210 -1.6578  1.5177  0.8228
 6972SOL     OW21814   4.448   1.353   3.207  0.0278  0.2320 -0.5582
 6972SOL    HW121815   4.406   1.356   3.298  0.5697 -0.3646 -0.2877
 6972SOL    HW221816   4.415   1.272   3.158  1.6138 -0.8267  0.0382
 6973SOL     OW21817   2.199   6.774   0.019  0.0682  0.3919  0.6079
 6973SOL    HW121818   2.185   6.734  -0.072  1.0760 -0.5233  0.8369
 6973SOL    HW221819   2.178   6.872   0.015  0.5552  0.4679 -0.7298
 6974SOL     OW21820   3.954   2.695   5.297 -0.6910 -0.1243 -0.4047
 6974SOL    HW121821   4.031   2.648   5.255 -0.5540 -0.6029  0.3620
 6974SOL    HW221822   3.919   2.641   5.373 -0.0820  1.3152  0.9630
 6975SOL     OW21823   1.210   5.355   6.717 -0.2532 -0.0508  0.0577
 6975SOL    HW121824   1.168   5.380   6.804  0.5120  0.4580  0.2821
 6975SOL    HW221825   1.150   5.291   6.669 -1.5585  1.0725  0.1294
 6976SOL     OW21826   2.230   2.642   6.340  0.2421 -0.3946  0.9656
 6976SOL    HW121827   2.231   2.545   6.313  1.9272  0.0983 -1.1008
 6976SOL    HW221828   2.163   2.692   6.284  2.5966  0.3415 -1.4512
 6977SOL     OW21829   3.791   6.527   2.927 -0.3032 -0.9038  0.2742
 6977SOL    HW121830   3.768   6.429   2.922  1.3296 -1.3792  1.2386
 6977SOL    HW221831   3.873   6.544   2.874  1.1955 -0.6973  2.5291
 6978SOL     OW21832   0.636   5.721   3.708 -0.5915 -0.4053 -0.1261
 6978SOL    HW121833   0.733   5.706   3.724 -0.9757 -1.1627  1.7661
 6978SOL    HW221834   0.585   5.637   3.725 -1.9669  0.8829  3.1916
 6979SOL     OW21835   5.167   0.258   4.485 -0.1486 -0.0911  0.1643
 6979SOL    HW121836   5.194   0.176   4.435  0.7983  0.5997 -0.4913
 6979SOL    HW221837   5.237   0.280   4.553 -0.0314  0.5858 -0.1723
 6980SOL     OW21838   0.927   4.450   6.270  0.7696  0.0268  0.0559
 6980SOL    HW121839   0.835   4.413   6.286 -0.1523  2.1751 -0.0135
 6980SOL    HW221840   0.973   4.394   6.200 -1.2459  0.0525 -1.3879
 6981SOL     OW21841   6.668   4.610   6.224 -0.0491 -0.0282  0.4304
 6981SOL    HW121842   6.568   4.611   6.220 -0.0138 -0.0733 -1.3897
 6981SOL    HW221843   6.704   4.557   6.147  1.4096  3.2627 -1.4037
 6982SOL     OW21844   0.448   6.033   6.173  0.5338  0.0853  0.4573
 6982SOL    HW121845   0.462   5.985   6.086 -1.2703  2.9305 -1.6076
 6982SOL    HW221846   0.350   6.039   6.192  0.6838  2.3297  0.8567
 6983SOL     OW21847   5.088   5.651   5.870 -0.0921 -0.4863 -0.0106
 6983SOL    HW121848   5.147   5.677   5.946 -0.3882 -0.7181  0.3009
 6983SOL    HW221849   5.111   5.558   5.840  1.0523  0.1609 -1.2053
 6984SOL     OW21850   6.659   3.599   1.297  0.0577  0.2174 -0.1884
 6984SOL    HW121851   6.583   3.540   1.269  1.1520 -0.9838 -0.7036
 6984SOL    HW221852   6.625   3.692   1.310 -1.6745 -0.4500  0.4361
 6985SOL     OW21853   3.512   3.254   5.892 -0.2050 -0.6724  0.4854
 6985SOL    HW121854   3.484   3.184   5.827 -2.8235 -0.3444  1.1577
 6985SOL    HW221855   3.472   3.342   5.865 -0.9249 -0.4330  2.2360
 6986SOL     OW21856   5.692   7.014   6.619 -0.1603 -0.1898 -0.1006
 6986SOL    HW121857   5.733   7.042   6.532 -0.7778 -1.4848 -0.8386
 6986SOL    HW221858   5.594   7.001   6.608 -0.2618 -0.3031  0.8215
 6987SOL     OW21859   0.284   6.756   0.262  0.1175  0.2523 -0.4870
 6987SOL    HW121860   0.346   6.823   0.301  0.8412  0.4830 -1.9778
 6987SOL    HW221861   0.237   6.707   0.336  1.6281  0.4712  0.6622
 6988SOL     OW21862   2.474   0.749   3.874 -0.1670  0.5252  0.3492
 6988SOL    HW121863   2.493   0.846   3.862 -1.4180  0.7900  0.4141
 6988SOL    HW221864   2.560   0.699   3.882  0.5461  1.3605 -1.6123
 6989SOL     OW21865   4.059   4.898   0.191  0.8936  0.5290 -0.1427
 6989SOL    HW121866   4.131   4.873   0.255  1.0608  1.5735  0.1037
 6989SOL    HW221867   3.973   4.855   0.218  0.8086  1.4825  1.1918
 6990SOL     OW21868   3.954   4.480   1.421 -0.2730  0.1194 -0.5563
 6990SOL    HW121869   3.872   4.536   1.437  0.9133  2.0890 -0.9683
 6990SOL    HW221870   3.980   4.486   1.325  0.6585 -0.0048 -0.3225
 6991SOL     OW21871   1.811   2.110   3.763  0.7439 -0.4218 -0.2548
 6991SOL    HW121872   1.756   2.039   3.805 -0.2772  0.7214  0.4041
 6991SOL    HW221873   1.903   2.109   3.802  0.8042 -1.5005 -0.4099
 6992SOL     OW21874   3.309   2.860   2.871 -0.1528 -0.6344 -0.4166
 6992SOL    HW121875   3.283   2.774   2.826  0.4144 -0.5741 -0.8730
 6992SOL    HW221876   3.232   2.924   2.866 -1.7405 -2.0790  2.5410
 6993SOL     OW21877   0.828   6.965   4.773  0.4157  0.5504 -0.2641
 6993SOL    HW121878   0.902   6.914   4.815 -0.5405 -0.0272  0.7725
 6993SOL    HW221879   0.813   7.050   4.824  0.5491  0.8085 -0.6495
 6994SOL     OW21880   5.357   4.041   2.931 -0.4079 -0.4364  0.2950
 6994SOL    HW121881   5.281   4.101   2.908  0.7314  0.2244 -2.0200
 6994SOL    HW221882   5.365   3.969   2.861  0.1760 -1.4120  1.3322
 6995SOL     OW21883   3.877   5.104   1.774  0.4507  0.3213  0.5800
 6995SOL    HW121884   3.886   5.013   1.816  1.0397  1.6055  3.4438
 6995SOL    HW221885   3.892   5.096   1.675 -1.0193 -2.9023  0.4820
 6996SOL     OW21886   1.412   1.317   3.775 -0.7226  0.3990  0.7068
 6996SOL    HW121887   1.425   1.320   3.874  0.0195 -0.3396  0.6401
 6996SOL    HW221888   1.435   1.406   3.736  1.5183 -0.0337  0.9212
 6997SOL     OW21889   6.913   5.738   6.123  0.3073 -0.1362  0.0547
 6997SOL    HW121890   6.925   5.659   6.184  2.0281 -0.9592 -1.2677
 6997SOL    HW221891   6.846   5.801   6.163  0.0843 -1.4763  1.9240
 6998SOL     OW21892   0.538   1.275   4.118  0.1380  0.0982 -0.2021
 6998SOL    HW121893   0.549   1.188   4.070 -2.0895  0.5685 -1.7410
 6998SOL    HW221894   0.506   1.345   4.053 -1.5898  1.1482  1.6645
 6999SOL     OW21895   1.193   0.034   3.316 -0.3851  0.2919  0.4379
 6999SOL    HW121896   1.262  -0.035   3.290 -0.7497  0.0053  0.2107
 6999SOL    HW221897   1.234   0.125   3.311  0.2156  0.0714  1.1122
 7000SOL     OW21898   2.408   1.316   1.052 -0.0516 -0.1384 -0.0118
 7000SOL    HW121899   2.377   1.270   1.136 -0.7108  1.2407  0.5493
 7000SOL    HW221900   2.503   1.292   1.034  0.0443 -0.6254  1.0347
 7001SOL     OW21901   3.584   4.217   4.803 -0.0154 -0.3407  0.2730
 7001SOL    HW121902   3.588   4.317   4.792  1.7175 -0.6619 -3.9429
 7001SOL    HW221903   3.673   4.183   4.830  0.3432 -0.8834 -1.4397
 7002SOL     OW21904   2.261   3.372   1.468  0.1931 -0.3504  0.6109
 7002SOL    HW121905   2.223   3.302   1.528  1.2205 -1.2167  0.2645
 7002SOL    HW221906   2.253   3.343   1.373 -0.1524  0.3954  0.4020
 7003SOL     OW21907   4.854   1.703   5.300 -0.1933  0.3809 -0.3162
 7003SOL    HW121908   4.806   1.618   5.278 -0.2025  0.4774 -0.6615
 7003SOL    HW221909   4.881   1.749   5.216  1.4286 -0.1924 -0.1504
 7004SOL     OW21910   3.812   1.517   5.175  0.2187 -0.1318 -0.3308
 7004SOL    HW121911   3.796   1.616   5.177 -0.5431 -0.2553  0.7408
 7004SOL    HW221912   3.807   1.481   5.268  0.3784 -1.1955 -0.7236
 7005SOL     OW21913   0.741   1.118   5.005  0.7702  0.6949 -0.2127
 7005SOL    HW121914   0.691   1.196   4.967 -0.5924  0.3802  0.8648
 7005SOL    HW221915   0.691   1.034   4.986  1.1915  0.3038  0.3880
 7006SOL     OW21916   2.665   6.195   2.815  0.1696  0.1605  0.0017
 7006SOL    HW121917   2.667   6.101   2.781  3.4462 -0.8242  2.4231
 7006SOL    HW221918   2.695   6.257   2.743  2.3190 -1.2748 -0.4507
 7007SOL     OW21919   0.417   2.790   5.605  0.0598 -0.3229 -0.1981
 7007SOL    HW121920   0.406   2.693   5.628 -0.1042 -0.6710 -1.6221
 7007SOL    HW221921   0.383   2.805   5.512 -2.6028  1.6726  0.9643
 7008SOL     OW21922   4.521   0.797   2.569 -0.5977 -0.6494  0.2834
 7008SOL    HW121923   4.519   0.812   2.668  0.8787  1.5811  0.0234
 7008SOL    HW221924   4.584   0.862   2.526 -2.2122 -0.6615 -2.2939
 7009SOL     OW21925   5.620   4.012   1.356 -0.0363  0.1445  0.3307
 7009SOL    HW121926   5.709   4.039   1.393 -0.4364  2.3344 -0.1869
 7009SOL    HW221927   5.547   4.046   1.415 -0.5832  0.6113 -0.5917
 7010SOL     OW21928   3.470   3.855   4.750  0.0640 -0.0698 -0.0184
 7010SOL    HW121929   3.472   3.762   4.787 -1.4592 -0.1561 -0.0670
 7010SOL    HW221930   3.556   3.874   4.702  0.7922 -1.0849  0.8355
 7011SOL     OW21931   1.446   4.284   2.614 -0.1353 -0.0298 -0.1011
 7011SOL    HW121932   1.506   4.364   2.617 -0.5309  0.2775 -0.1606
 7011SOL    HW221933   1.434   4.248   2.707  1.9709 -1.5151 -0.3364
 7012SOL     OW21934   2.150   4.931   2.067 -0.2383 -0.2517  0.2563
 7012SOL    HW121935   2.236   4.980   2.075 -0.2410 -0.3094  0.6496
 7012SOL    HW221936   2.122   4.897   2.157 -0.4740 -0.5680  0.0659
 7013SOL     OW21937   4.252   2.983   6.157  0.4385 -0.0900 -0.9780
 7013SOL    HW121938   4.221   2.928   6.080 -4.2817 -0.7984  1.0913
 7013SOL    HW221939   4.232   3.079   6.139 -0.0261 -0.1773 -0.9478
 7014SOL     OW21940   0.033   3.429   2.783 -0.7153  0.4971  0.1242
 7014SOL    HW121941   0.056   3.332   2.784 -0.8844  0.4590  0.5765
 7014SOL    HW221942  -0.056   3.442   2.827  0.4060  1.1319  2.3581
 7015SOL     OW21943   6.507   6.177   4.383 -0.1132  0.3977  0.3194
 7015SOL    HW121944   6.436   6.247   4.386  0.5870  1.1258  0.6116
 7015SOL    HW221945   6.597   6.222   4.384  0.3672 -0.5325  1.5318
 7016SOL     OW21946   2.846   1.139   0.838 -0.5120  0.0311  0.3794
 7016SOL    HW121947   2.871   1.152   0.742  0.0915 -0.5213  0.4497
 7016SOL    HW221948   2.870   1.046   0.866 -0.4078  0.2836  1.1470
 7017SOL     OW21949   4.855   3.077   2.756 -0.1293 -0.5425  0.0726
 7017SOL    HW121950   4.930   3.017   2.728 -0.3180 -1.0091  0.5600
 7017SOL    HW221951   4.825   3.132   2.677  0.3222 -0.7799 -0.2702
 7018SOL     OW21952   2.951   0.509   3.311  0.0243  0.4538  0.0870
 7018SOL    HW121953   2.970   0.600   3.274  0.0287  0.8222  0.9714
 7018SOL    HW221954   3.019   0.487   3.382 -0.3666  0.0407  0.3381
 7019SOL     OW21955   2.364   5.252   2.287  0.3347 -0.4856  0.0756
 7019SOL    HW121956   2.378   5.291   2.196 -0.3978 -0.4905 -0.0469
 7019SOL    HW221957   2.445   5.198   2.313  1.1253  0.6465  0.0218
 7020SOL     OW21958   0.879   3.274   0.380 -0.3091  0.4992  0.0520
 7020SOL    HW121959   0.973   3.256   0.351 -0.4547  0.0018 -0.1227
 7020SOL    HW221960   0.837   3.188   0.411 -0.3046  0.9294  1.3072
 7021SOL     OW21961   3.695   1.316   0.710 -0.3636 -0.4890  0.2457
 7021SOL    HW121962   3.645   1.284   0.630 -1.3863 -0.6797  0.9386
 7021SOL    HW221963   3.652   1.279   0.793  0.6850 -0.3192  0.8854
 7022SOL     OW21964   1.751   2.245   2.599 -0.0478  0.1873  0.5169
 7022SOL    HW121965   1.724   2.222   2.505  0.7555  0.8338  0.1084
 7022SOL    HW221966   1.701   2.188   2.663 -1.3149  0.3678 -0.2628
 7023SOL     OW21967   3.616   0.539   2.452  0.2183 -0.3837  0.0926
 7023SOL    HW121968   3.711   0.570   2.465  0.8940 -0.7565 -3.1214
 7023SOL    HW221969   3.616   0.453   2.402 -1.8396  0.3521 -1.2746
 7024SOL     OW21970   2.938   3.690   1.372 -0.2430  0.3261 -0.2540
 7024SOL    HW121971   2.974   3.783   1.365  0.6162 -0.0303 -0.7937
 7024SOL    HW221972   2.958   3.653   1.463 -0.4162  0.5992 -0.1042
 7025SOL     OW21973   6.713   1.386   1.798  0.2020  0.1105 -0.2095
 7025SOL    HW121974   6.751   1.339   1.877  1.3918  0.1507 -0.7395
 7025SOL    HW221975   6.786   1.410   1.735 -0.4825  1.8059 -0.4232
 7026SOL     OW21976   0.290   1.987   2.094  0.0682 -1.0298  0.5134
 7026SOL    HW121977   0.220   2.011   2.162  0.4013 -1.1357  0.8989
 7026SOL    HW221978   0.246   1.939   2.018 -0.3486 -0.6843  0.5297
 7027SOL     OW21979   3.546   2.020   4.013  0.7377  0.2050 -0.0884
 7027SOL    HW121980   3.596   2.103   4.039 -1.4951  2.3663 -2.1591
 7027SOL    HW221981   3.595   1.974   3.940  0.7882  1.1482 -0.6706
 7028SOL     OW21982   1.829   1.430   0.561 -0.0305  0.1366  0.1152
 7028SOL    HW121983   1.915   1.461   0.520 -0.2802  3.0324  1.5368
 7028SOL    HW221984   1.849   1.374   0.641  0.5051 -0.1007 -0.1770
 7029SOL     OW21985   3.778   4.285   6.131  0.2869  0.0133  0.0985
 7029SOL    HW121986   3.805   4.298   6.227  1.1139  1.7475 -0.3328
 7029SOL    HW221987   3.857   4.301   6.072 -0.6854  0.9736 -0.9733
 7030SOL     OW21988   2.009   4.408   5.550  0.3404 -0.2781 -0.2524
 7030SOL    HW121989   1.961   4.453   5.625 -1.2799  1.5105 -2.2697
 7030SOL    HW221990   1.972   4.316   5.537 -2.3286  0.8882 -1.4464
 7031SOL     OW21991   0.660   6.357   6.383 -0.9949  0.1689 -0.1756
 7031SOL    HW121992   0.631   6.266   6.412 -2.4415  0.2522 -1.1982
 7031SOL    HW221993   0.723   6.350   6.306 -0.7638  0.0293  0.0263
 7032SOL     OW21994   6.219   6.966   4.316  0.1093 -0.1173 -0.1279
 7032SOL    HW121995   6.187   6.873   4.329  1.6806 -0.9235 -1.5193
 7032SOL    HW221996   6.142   7.030   4.319 -1.3534 -1.7357 -1.6042
 7033SOL     OW21997   4.783   1.996   5.137  0.4931 -0.4051 -0.0472
 7033SOL    HW121998   4.790   1.918   5.075 -1.7126  0.7803 -1.9307
 7033SOL    HW221999   4.696   1.993   5.187  0.1798  1.0091 -0.4432
 7034SOL     OW22000   1.320   6.077   5.700  0.0802  0.6845  0.1549
 7034SOL    HW122001   1.293   6.167   5.665 -0.0392  0.7254  0.3485
 7034SOL    HW222002   1.397   6.042   5.647  1.0900  1.5528  1.0111
 7035SOL     OW22003   1.305   4.017   4.120 -0.0575 -0.3138 -0.2717
 7035SOL    HW122004   1.267   4.109   4.114 -1.0548 -0.7077 -0.1862
 7035SOL    HW222005   1.288   3.980   4.212  2.6396  0.3798  0.6009
 7036SOL     OW22006   6.686   4.597   4.310  0.3395  0.4045  0.7107
 7036SOL    HW122007   6.784   4.593   4.326  0.7437  2.3370 -0.8147
 7036SOL    HW222008   6.641   4.647   4.383  0.7674  1.0554  0.5316
 7037SOL     OW22009   4.032   5.262   5.927  0.2890  0.3503 -0.3252
 7037SOL    HW122010   4.130   5.247   5.944  0.4017 -0.0470 -1.3147
 7037SOL    HW222011   4.000   5.199   5.857 -0.6128  0.6922 -0.2273
 7038SOL     OW22012   5.049   4.522   6.819 -0.4417 -0.4155 -0.0110
 7038SOL    HW122013   5.066   4.461   6.742 -0.0068 -0.7254  0.3197
 7038SOL    HW222014   5.134   4.568   6.845 -0.3006 -1.2237  1.0393
 7039SOL     OW22015   3.701   0.931   3.621  0.1514  0.0460 -0.4458
 7039SOL    HW122016   3.713   0.948   3.524 -1.2580  0.4610 -0.5781
 7039SOL    HW222017   3.661   0.840   3.634 -0.0603  0.1588 -0.2945
 7040SOL     OW22018   4.610   4.841   4.336  0.6073 -0.3341  0.2628
 7040SOL    HW122019   4.651   4.753   4.315 -0.4220 -0.6209 -0.6696
 7040SOL    HW222020   4.516   4.828   4.366  0.2410  0.4620 -0.4629
 7041SOL     OW22021   2.233   1.322   5.735 -0.8015  0.5295  0.1717
 7041SOL    HW122022   2.179   1.238   5.742 -0.6967  0.5492  1.6342
 7041SOL    HW222023   2.173   1.399   5.715 -0.8888  0.1239 -1.2692
 7042SOL     OW22024   2.092   6.840   2.679 -0.1955  0.4610 -0.4644
 7042SOL    HW122025   2.160   6.907   2.708  0.7466 -1.0585  1.0374
 7042SOL    HW222026   2.046   6.802   2.759 -1.0848 -0.3098 -1.3084
 7043SOL     OW22027   1.383   5.425   3.786  0.3070 -0.2368  0.0428
 7043SOL    HW122028   1.385   5.331   3.752 -0.3681 -0.2138 -0.0741
 7043SOL    HW222029   1.292   5.446   3.821  0.0212  0.8280 -1.2526
 7044SOL     OW22030   3.583   6.268   4.873 -0.1148 -0.1265 -0.0315
 7044SOL    HW122031   3.644   6.329   4.925 -0.3616 -0.8319  1.1258
 7044SOL    HW222032   3.504   6.319   4.841  1.2059  0.8900 -1.8570
 7045SOL     OW22033   4.668   0.945   0.357  0.4452 -0.3289 -0.0323
 7045SOL    HW122034   4.606   1.005   0.408 -1.0880 -0.9095 -1.1543
 7045SOL    HW222035   4.637   0.851   0.365 -0.4169 -0.3522 -2.7812
 7046SOL     OW22036   6.233   4.261   5.078 -0.0177  0.2633  0.6656
 7046SOL    HW122037   6.252   4.315   4.996 -2.5397  1.6433  0.8806
 7046SOL    HW222038   6.197   4.171   5.050  0.1850  0.3068  0.2561
 7047SOL     OW22039   6.545   2.700   4.409  0.0219 -0.5824 -0.0631
 7047SOL    HW122040   6.630   2.751   4.421 -0.5976  0.8130 -1.3713
 7047SOL    HW222041   6.539   2.666   4.315  0.1865 -2.7089  0.6451
 7048SOL     OW22042   3.426   1.217   3.449  0.3862  0.3391 -0.1943
 7048SOL    HW122043   3.411   1.217   3.350 -0.5533 -0.7499 -0.0820
 7048SOL    HW222044   3.515   1.258   3.470  0.3962  1.0018 -1.4473
 7049SOL     OW22045   4.080   1.295   4.947  0.0860 -0.1466  0.0245
 7049SOL    HW122046   4.009   1.351   4.903  0.7422 -0.9271 -2.1660
 7049SOL    HW222047   4.074   1.306   5.046 -2.9454 -0.0306 -0.0749
 7050SOL     OW22048   2.810   5.151   1.525 -0.0428  0.0634  0.0235
 7050SOL    HW122049   2.784   5.070   1.472 -1.6294 -0.1426  1.0425
 7050SOL    HW222050   2.782   5.233   1.476 -1.1907 -0.1167  0.3443
 7051SOL     OW22051   4.932   0.266   4.938 -0.5482 -0.2401 -0.1800
 7051SOL    HW122052   4.856   0.240   4.878 -1.1852  0.7602  0.1680
 7051SOL    HW222053   4.900   0.335   5.003  0.8638  0.7715 -0.5265
 7052SOL     OW22054   4.454   1.949   2.233  0.1186 -0.3019  0.0346
 7052SOL    HW122055   4.363   1.970   2.196  0.6013 -2.0753 -2.4472
 7052SOL    HW222056   4.496   2.033   2.266 -1.2392  1.1220 -1.6083
 7053SOL     OW22057   4.483   5.674   4.931  0.1654  0.1536 -0.1320
 7053SOL    HW122058   4.442   5.609   4.995  0.4098  0.3699  0.2511
 7053SOL    HW222059   4.414   5.704   4.865  0.0572 -0.5152 -0.3314
 7054SOL     OW22060   5.224   4.704   0.470 -0.0374  0.6022 -0.0403
 7054SOL    HW122061   5.166   4.668   0.396  0.6877  0.1346 -0.4034
 7054SOL    HW222062   5.316   4.719   0.435 -0.5492  4.0521 -0.2441
 7055SOL     OW22063   0.910   3.967   0.017  0.1888 -0.5313 -0.4507
 7055SOL    HW122064   0.817   3.935   0.032 -0.2616  0.6577 -0.6242
 7055SOL    HW222065   0.954   3.910  -0.053 -0.6238 -0.6835 -0.8462
 7056SOL     OW22066   3.612   6.627   1.986  0.3076  0.0013 -0.2260
 7056SOL    HW122067   3.599   6.531   1.958 -0.2729  0.2740 -0.9226
 7056SOL    HW222068   3.570   6.641   2.076  1.0695 -0.5785  0.2299
 7057SOL     OW22069   0.616   3.751   3.445 -0.4824 -0.5805  0.0287
 7057SOL    HW122070   0.649   3.659   3.422 -1.9996 -0.9087 -1.0438
 7057SOL    HW222071   0.534   3.771   3.391  0.0836  1.6092 -0.1231
 7058SOL     OW22072   0.077   3.658   4.932  0.2707  0.1214  0.0801
 7058SOL    HW122073   0.084   3.735   4.995  0.3651  0.4608 -0.3343
 7058SOL    HW222074   0.054   3.575   4.982  1.3840  0.1673  0.7118
 7059SOL     OW22075   6.456   2.289   5.808  0.6520  0.1611 -0.3705
 7059SOL    HW122076   6.490   2.374   5.768  0.8355 -0.0842 -0.7430
 7059SOL    HW222077   6.367   2.305   5.851  1.2962  0.8519  0.7743
 7060SOL     OW22078   3.249   4.900   1.203  0.6619 -0.2426  0.3448
 7060SOL    HW122079   3.265   4.917   1.106  1.1394 -1.8397  0.1223
 7060SOL    HW222080   3.233   4.987   1.250 -0.9722  0.4640 -1.4000
 7061SOL     OW22081   3.621   5.777   4.547 -0.1713 -0.1667 -0.0240
 7061SOL    HW122082   3.616   5.822   4.459 -1.6546 -0.4879 -0.1302
 7061SOL    HW222083   3.666   5.688   4.537  2.1589  0.9137  0.0738
 7062SOL     OW22084   1.884   5.943   6.408 -0.0607 -0.5065 -0.2303
 7062SOL    HW122085   1.850   5.854   6.378 -1.8451 -0.1833  0.7065
 7062SOL    HW222086   1.835   5.972   6.490  0.7451  1.1838 -0.2984
 7063SOL     OW22087   0.103   4.363   2.817 -0.0645 -0.1350 -0.0680
 7063SOL    HW122088   0.036   4.344   2.888  0.1047 -0.6997 -0.0551
 7063SOL    HW222089   0.147   4.451   2.835  1.6500 -1.3182  1.8274
 7064SOL     OW22090   6.065   3.211   4.617  0.1013  0.1600  0.2269
 7064SOL    HW122091   6.074   3.205   4.517  1.3460 -0.0897  0.3331
 7064SOL    HW222092   6.040   3.121   4.654  2.1303 -0.4105  0.3347
 7065SOL     OW22093   0.318   2.758   0.539  0.3638  0.2339 -1.0117
 7065SOL    HW122094   0.368   2.678   0.575  1.1407  1.7180  1.4416
 7065SOL    HW222095   0.384   2.825   0.505 -0.1469  0.7093 -1.0721
 7066SOL     OW22096   4.189   5.875   5.521 -0.2387 -0.1917 -0.3353
 7066SOL    HW122097   4.113   5.824   5.560 -0.1649  0.6714  0.9947
 7066SOL    HW222098   4.157   5.932   5.446 -0.9589  0.3172  0.3459
 7067SOL     OW22099   6.935   3.022   2.060 -0.0969  0.1804  0.0412
 7067SOL    HW122100   6.975   3.001   1.971 -0.5486 -0.5320 -0.0029
 7067SOL    HW222101   6.931   2.939   2.116  1.4689  0.8809  1.2640
 7068SOL     OW22102   2.180   5.271   2.957  0.1864  0.4976  0.1321
 7068SOL    HW122103   2.162   5.352   2.901  0.5387 -0.4817 -1.4278
 7068SOL    HW222104   2.095   5.221   2.973  0.2010  0.3988 -0.1085
 7069SOL     OW22105   0.317   4.318   6.390 -0.1994 -0.3592  0.3665
 7069SOL    HW122106   0.307   4.416   6.373  0.4107 -0.2660  0.5201
 7069SOL    HW222107   0.271   4.294   6.476  0.5968 -0.0019  0.9006
 7070SOL     OW22108   3.130   6.408   5.702 -0.5291 -0.0174  0.3530
 7070SOL    HW122109   3.111   6.350   5.623  1.3783  0.4863 -0.5285
 7070SOL    HW222110   3.221   6.449   5.693 -1.4376  2.4329  1.3793
 7071SOL     OW22111   5.222   4.314   2.590 -0.0122  0.3884 -0.1470
 7071SOL    HW122112   5.155   4.350   2.655  0.3759 -2.3335  1.9698
 7071SOL    HW222113   5.186   4.229   2.550  1.4391 -0.1696 -0.3057
 7072SOL     OW22114   4.987   3.716   1.740 -0.3514  0.6626 -0.1496
 7072SOL    HW122115   4.929   3.643   1.776  0.8427 -0.4103 -0.3526
 7072SOL    HW222116   5.037   3.758   1.816  1.5832 -1.0881 -0.3669
 7073SOL     OW22117   5.075   0.628   3.635  0.9338 -0.0875 -0.3261
 7073SOL    HW122118   5.048   0.687   3.559 -0.3841  0.5846  0.6130
 7073SOL    HW222119   5.167   0.593   3.619 -0.4421 -2.6484 -3.8033
 7074SOL     OW22120   0.792   5.995   1.318 -0.2278  0.9379  0.0008
 7074SOL    HW122121   0.753   6.032   1.234  0.2382 -2.1019 -1.7268
 7074SOL    HW222122   0.890   6.015   1.321 -0.2859  1.2340 -0.0669
 7075SOL     OW22123   0.091   1.544   4.618 -0.3627 -0.0839  0.1725
 7075SOL    HW122124   0.053   1.471   4.673  0.6396 -0.4982  0.3312
 7075SOL    HW222125   0.138   1.505   4.539 -0.2640  0.4211 -0.0229
 7076SOL     OW22126   2.971   0.201   1.455  0.0302  0.1082  0.8008
 7076SOL    HW122127   2.994   0.236   1.546  2.0257  1.0591  0.0127
 7076SOL    HW222128   3.039   0.234   1.389 -1.0844 -0.9457 -0.9639
 7077SOL     OW22129   0.893   3.459   0.658  0.5121  0.7802  0.1608
 7077SOL    HW122130   0.803   3.495   0.634  0.5909  1.8464  1.3467
 7077SOL    HW222131   0.945   3.438   0.575 -1.3216 -1.2303 -0.5852
 7078SOL     OW22132   2.101   2.579   2.843  0.6460  0.1561 -0.3634
 7078SOL    HW122133   2.012   2.625   2.843  0.2999 -0.5081 -0.5578
 7078SOL    HW222134   2.088   2.480   2.841  1.3908  0.0571 -0.6851
 7079SOL     OW22135   5.502   6.059   3.851 -0.1713 -0.2742 -0.3800
 7079SOL    HW122136   5.581   6.003   3.828 -1.0761 -1.4291 -0.7771
 7079SOL    HW222137   5.465   6.101   3.768 -1.3188 -1.5920 -0.5733
 7080SOL     OW22138   3.939   1.577   0.473 -0.6807 -0.5085  0.7510
 7080SOL    HW122139   3.943   1.676   0.480 -0.4506 -0.4459 -0.1365
 7080SOL    HW222140   3.925   1.537   0.564 -0.3943  0.3105  1.1584
 7081SOL     OW22141   6.199   0.692   1.531  0.2776 -0.6424  0.0762
 7081SOL    HW122142   6.128   0.648   1.587 -0.0045  1.3397  1.3990
 7081SOL    HW222143   6.261   0.743   1.591  0.0963  1.3953 -1.3651
 7082SOL     OW22144   4.372   0.355   6.605 -0.1432 -0.4074  0.5455
 7082SOL    HW122145   4.301   0.418   6.575 -0.7902 -0.8957  1.0355
 7082SOL    HW222146   4.437   0.403   6.664 -1.0376 -0.3694  1.5120
 7083SOL     OW22147   5.846   5.370   3.730  0.3271  0.1466 -0.3510
 7083SOL    HW122148   5.873   5.357   3.826  0.2007  1.4677 -0.1240
 7083SOL    HW222149   5.783   5.297   3.703 -0.0351  0.0448  0.7272
 7084SOL     OW22150   6.295   7.008   3.081 -0.0979 -0.6519 -0.5611
 7084SOL    HW122151   6.256   7.069   3.150 -0.3528  0.5346 -1.7193
 7084SOL    HW222152   6.395   7.009   3.088 -0.0916  0.1017 -0.7350
 7085SOL     OW22153   0.008   5.557   3.424 -0.3475  0.0904 -1.1066
 7085SOL    HW122154   0.027   5.530   3.330 -0.9021  0.6487 -1.3850
 7085SOL    HW222155  -0.081   5.521   3.452 -1.0076  1.4090 -1.4154
 7086SOL     OW22156   0.209   0.365   5.056  0.2326  0.2114  0.0150
 7086SOL    HW122157   0.305   0.351   5.080  0.0796  1.5494  1.5891
 7086SOL    HW222158   0.170   0.437   5.114 -1.7646 -0.3806 -0.4996
 7087SOL     OW22159   3.292   6.272   3.804 -0.2983 -0.4853  0.1204
 7087SOL    HW122160   3.387   6.272   3.835  0.5445 -1.2081 -2.2375
 7087SOL    HW222161   3.250   6.360   3.825  1.2594  0.2749  0.1892
 7088SOL     OW22162   0.044   2.995   1.546 -0.1152 -0.1820 -0.2191
 7088SOL    HW122163  -0.035   3.021   1.489  0.3744  0.1112 -0.7703
 7088SOL    HW222164   0.121   2.972   1.488  0.1654 -0.6285  0.3214
 7089SOL     OW22165   2.884   6.367   6.708  0.3158 -0.2278 -0.1539
 7089SOL    HW122166   2.829   6.422   6.645  0.1132  2.0293  1.8496
 7089SOL    HW222167   2.856   6.271   6.701 -0.9618  0.2146 -2.1048
 7090SOL     OW22168   1.101   3.665   0.149  0.4941 -0.3980 -0.2767
 7090SOL    HW122169   1.163   3.601   0.104  1.9778  1.3085 -0.7803
 7090SOL    HW222170   1.154   3.730   0.204 -1.0205 -0.1079  0.8975
 7091SOL     OW22171   4.649   4.318   3.814  0.4160  0.1313 -0.0049
 7091SOL    HW122172   4.553   4.313   3.840  0.6390 -1.9793  0.5733
 7091SOL    HW222173   4.706   4.281   3.887  1.5919  0.4518 -0.7263
 7092SOL     OW22174   1.061   2.934   6.169 -0.1912 -0.3110  0.3260
 7092SOL    HW122175   1.134   2.998   6.143 -0.2902  0.1325  1.0785
 7092SOL    HW222176   1.070   2.849   6.117 -0.2675  0.4465 -0.9523
 7093SOL     OW22177   1.769   2.388   0.493 -0.3396 -0.1848  0.1915
 7093SOL    HW122178   1.818   2.306   0.463 -0.9997 -0.2355 -0.7919
 7093SOL    HW222179   1.813   2.469   0.453 -1.2724 -0.2580 -1.0247
 7094SOL     OW22180   2.735   0.697   5.200 -0.5439  0.5147  0.0895
 7094SOL    HW122181   2.749   0.662   5.108  2.0676 -0.9770  0.9312
 7094SOL    HW222182   2.805   0.766   5.221 -0.3752  0.0093  1.3030
 7095SOL     OW22183   6.712   0.975   4.056  0.2135  0.0065 -0.0333
 7095SOL    HW122184   6.786   1.039   4.073  1.6747 -1.5664 -0.2456
 7095SOL    HW222185   6.663   0.957   4.142  1.4126 -0.5211  0.5551
 7096SOL     OW22186   3.742   5.025   4.319  0.5217 -0.0604  0.1629
 7096SOL    HW122187   3.722   5.123   4.311 -0.4652 -0.2479  0.1538
 7096SOL    HW222188   3.831   5.005   4.279 -0.2297  0.4812 -1.9244
 7097SOL     OW22189   2.482   6.235   0.487  0.1251 -0.0946 -0.7304
 7097SOL    HW122190   2.524   6.295   0.419  0.3388 -0.6869 -1.1240
 7097SOL    HW222191   2.553   6.201   0.549 -0.1622  0.9857  0.2298
 7098SOL     OW22192   2.981   3.070   5.740 -0.8248 -0.3662  0.3200
 7098SOL    HW122193   2.969   3.082   5.641  1.5655 -1.3457 -0.1685
 7098SOL    HW222194   2.926   2.994   5.772 -0.1534 -1.3011 -0.6770
 7099SOL     OW22195   2.831   0.183   5.487 -0.5059 -0.4933 -0.0329
 7099SOL    HW122196   2.924   0.221   5.493 -0.3469 -1.0473  1.6368
 7099SOL    HW222197   2.798   0.190   5.393  2.0770 -2.2943 -1.2059
 7100SOL     OW22198   3.617   6.900   4.440 -0.3250 -0.1495 -0.0438
 7100SOL    HW122199   3.547   6.961   4.403  1.3651  1.1703 -1.2026
 7100SOL    HW222200   3.650   6.839   4.368  0.0042 -0.4822  0.3836
 7101SOL     OW22201   6.454   6.484   1.506  0.1253  0.1286 -0.0834
 7101SOL    HW122202   6.393   6.558   1.475 -0.4045 -0.1865  0.1938
 7101SOL    HW222203   6.489   6.506   1.597  0.0635  0.0909 -0.0510
 7102SOL     OW22204   4.408   2.615   6.666 -0.1947  0.3833 -0.3639
 7102SOL    HW122205   4.325   2.560   6.681 -0.1717  0.2529 -0.7082
 7102SOL    HW222206   4.441   2.601   6.573  1.8046 -1.7599  0.5620
 7103SOL     OW22207   0.910   7.000   2.598  0.0535  0.8271  0.0423
 7103SOL    HW122208   0.933   6.907   2.627  2.4005  1.3332 -0.0022
 7103SOL    HW222209   0.834   7.034   2.653  0.3517 -0.4805  1.3384
 7104SOL     OW22210   4.151   5.813   0.690  0.1154 -0.1240 -0.1123
 7104SOL    HW122211   4.170   5.719   0.663  0.9655 -0.3838  1.2873
 7104SOL    HW222212   4.100   5.813   0.776  0.8259  0.6943  0.3226
 7105SOL     OW22213   6.570   3.615   6.134 -0.1563  0.3736  0.3378
 7105SOL    HW122214   6.473   3.638   6.134  0.0592  1.3708 -0.9941
 7105SOL    HW222215   6.603   3.613   6.229 -1.9605 -2.3162  1.0091
 7106SOL     OW22216   6.615   4.852   4.200  0.7233  0.0943 -0.6638
 7106SOL    HW122217   6.678   4.893   4.135  1.8773 -0.5117  0.0396
 7106SOL    HW222218   6.641   4.757   4.216 -0.3436 -0.1505 -0.3156
 7107SOL     OW22219   3.935   6.350   2.048  0.1525  0.1798  0.3620
 7107SOL    HW122220   3.948   6.290   1.969 -0.4116 -0.5877  0.8438
 7107SOL    HW222221   4.019   6.354   2.101 -0.0697 -0.9189  0.8227
 7108SOL     OW22222   5.721   4.874   0.801  0.2593  0.5566  0.0289
 7108SOL    HW122223   5.741   4.809   0.874 -0.4233  0.9629  0.5848
 7108SOL    HW222224   5.692   4.961   0.841  1.2473  1.2383 -0.7012
 7109SOL     OW22225   6.259   2.347   0.842 -0.6672  0.1484  0.3260
 7109SOL    HW122226   6.304   2.387   0.921  0.1911 -0.1109 -0.0247
 7109SOL    HW222227   6.206   2.266   0.870 -0.7763  0.3544  0.7088
 7110SOL     OW22228   6.820   2.100   6.070  0.0058 -0.1393  0.5060
 7110SOL    HW122229   6.757   2.025   6.051 -0.3073  0.3245 -0.3354
 7110SOL    HW222230   6.768   2.181   6.096  0.3088 -0.0122  0.7237
 7111SOL     OW22231   4.634   2.177   4.707  0.6017  0.2863  0.0835
 7111SOL    HW122232   4.682   2.261   4.732  0.0405  1.3755 -2.2145
 7111SOL    HW222233   4.667   2.145   4.618 -0.4838 -0.9028  0.0850
 7112SOL     OW22234   2.268   3.480   5.359 -0.0956 -0.7042 -0.2445
 7112SOL    HW122235   2.328   3.416   5.310  0.3613 -1.0228  0.7104
 7112SOL    HW222236   2.310   3.571   5.358 -1.2378 -0.1290 -2.5072
 7113SOL     OW22237   5.105   3.543   1.126  0.1732 -0.2783 -0.2541
 7113SOL    HW122238   5.178   3.500   1.072  0.0821 -3.1019  1.6846
 7113SOL    HW222239   5.141   3.570   1.215 -0.5198  1.0076 -0.3435
 7114SOL     OW22240   6.578   3.248   7.001  0.3575 -0.1122 -0.1617
 7114SOL    HW122241   6.498   3.233   7.059  0.7404 -1.2985  0.0964
 7114SOL    HW222242   6.550   3.245   6.905  0.3090 -2.2289 -0.1281
 7115SOL     OW22243   6.208   3.465   5.315  0.1012 -0.1244 -0.6700
 7115SOL    HW122244   6.115   3.479   5.350  0.5448  1.6427 -0.0777
 7115SOL    HW222245   6.231   3.368   5.318 -1.4660 -0.5041 -0.1377
 7116SOL     OW22246   5.259   1.105   2.916 -0.4775  0.0271 -0.3004
 7116SOL    HW122247   5.358   1.095   2.914 -0.4080  0.7354 -0.7439
 7116SOL    HW222248   5.223   1.066   3.001  0.0177 -1.5219 -0.7839
 7117SOL     OW22249   6.023   0.605   6.140  0.7970  0.2223 -0.0039
 7117SOL    HW122250   6.002   0.508   6.145 -2.6218  0.8955  1.3117
 7117SOL    HW222251   6.076   0.633   6.220  1.4212 -0.4338 -0.1796
 7118SOL     OW22252   4.631   1.044   5.063 -0.4152  0.1138  0.5766
 7118SOL    HW122253   4.643   1.142   5.048 -1.2605  0.4716  2.0145
 7118SOL    HW222254   4.536   1.026   5.090 -0.7418 -1.3532 -1.3699
 7119SOL     OW22255   3.275   1.992   2.650 -0.8760 -0.5532  0.0885
 7119SOL    HW122256   3.311   2.039   2.570  0.1070 -0.0084  0.8282
 7119SOL    HW222257   3.186   2.030   2.675 -0.5149  0.2805  0.1238
 7120SOL     OW22258   2.010   0.261   3.646  0.2308  0.2422 -0.4739
 7120SOL    HW122259   2.014   0.323   3.724  0.4769  0.8330 -0.9564
 7120SOL    HW222260   2.075   0.290   3.576  0.9569 -1.0261 -0.3651
 7121SOL     OW22261   6.848   6.997   6.983  0.8190  0.3715 -0.5914
 7121SOL    HW122262   6.934   7.039   6.952  0.9923 -0.0768 -0.7228
 7121SOL    HW222263   6.782   7.069   7.003  1.2577  0.7253 -0.3936
 7122SOL     OW22264   2.595   1.356   3.600  0.0058 -0.2796  0.2386
 7122SOL    HW122265   2.578   1.448   3.563  1.5161 -0.4003 -0.8222
 7122SOL    HW222266   2.686   1.325   3.573 -1.3711 -3.1542 -1.6601
 7123SOL     OW22267   5.637   6.538   0.019  0.2905 -0.5971  0.3927
 7123SOL    HW122268   5.578   6.458   0.025 -0.0276 -0.3571  0.4593
 7123SOL    HW222269   5.677   6.557   0.108  0.1293 -0.5024  0.4452
 7124SOL     OW22270   6.233   6.393   6.068  0.0328 -0.1974 -0.3403
 7124SOL    HW122271   6.158   6.452   6.039 -0.6457 -0.5848  0.6100
 7124SOL    HW222272   6.199   6.301   6.083  0.6959 -0.3659  0.1389
 7125SOL     OW22273   4.276   5.754   3.540 -0.0303 -0.3061 -0.0078
 7125SOL    HW122274   4.201   5.810   3.576  1.0866  1.2153  0.0602
 7125SOL    HW222275   4.284   5.671   3.596 -0.1738  0.6297  1.4717
 7126SOL     OW22276   6.519   1.442   1.110 -0.4625 -0.2109  0.0906
 7126SOL    HW122277   6.452   1.409   1.176  1.0002  0.9538  2.3008
 7126SOL    HW222278   6.611   1.429   1.148  0.4147  0.8280 -1.5835
 7127SOL     OW22279   4.886   5.548   0.572 -0.3662 -0.0450 -0.2161
 7127SOL    HW122280   4.817   5.552   0.499 -0.2296  0.4410 -0.3202
 7127SOL    HW222281   4.977   5.547   0.532 -0.3120 -0.7602 -0.0797
 7128SOL     OW22282   1.296   6.100   0.363  0.2720 -0.5945  0.2189
 7128SOL    HW122283   1.327   6.007   0.383  1.2231 -0.3186  0.1195
 7128SOL    HW222284   1.239   6.099   0.281  0.9697 -0.9890 -0.2792
 7129SOL     OW22285   1.969   4.016   5.973 -0.5311 -0.0569  0.2321
 7129SOL    HW122286   1.921   3.930   5.988  2.6200 -2.1616 -0.8375
 7129SOL    HW222287   1.945   4.052   5.882 -0.0666 -1.1173 -0.3207
 7130SOL     OW22288   5.942   4.553   0.350 -0.1555  0.4991  0.4752
 7130SOL    HW122289   5.843   4.562   0.342 -0.3543 -1.7650 -0.4318
 7130SOL    HW222290   5.970   4.463   0.317  1.9183  0.0230  3.1725
 7131SOL     OW22291   5.399   3.478   5.798  0.3223  0.1221  0.2913
 7131SOL    HW122292   5.448   3.440   5.876 -2.0373 -1.5619  1.1114
 7131SOL    HW222293   5.303   3.492   5.823 -0.0502  1.5685 -1.7004
 7132SOL     OW22294   4.829   3.993   2.922  0.2124 -0.1764  0.1776
 7132SOL    HW122295   4.803   3.918   2.861 -1.3677  1.6525 -1.5583
 7132SOL    HW222296   4.878   3.957   3.001  0.8129 -2.8410 -1.3092
 7133SOL     OW22297   6.009   6.520   6.642  0.5623 -0.0145  0.1620
 7133SOL    HW122298   6.080   6.512   6.713  1.4051 -1.2483 -0.7784
 7133SOL    HW222299   5.990   6.616   6.625  1.0172  0.3129  1.4107
 7134SOL     OW22300   1.352   6.750   0.577 -0.4059  0.0471 -0.4701
 7134SOL    HW122301   1.337   6.848   0.590 -2.2205 -0.3561  0.8895
 7134SOL    HW222302   1.369   6.707   0.665  3.7129 -0.4789 -1.3071
 7135SOL     OW22303   0.413   4.144   3.088 -0.4381  0.1289  0.0302
 7135SOL    HW122304   0.438   4.231   3.131 -0.0474 -0.7942  1.7171
 7135SOL    HW222305   0.423   4.069   3.153 -0.5676 -1.2429 -1.4516
 7136SOL     OW22306   1.549   6.285   2.723 -0.0736  0.7488  0.4085
 7136SOL    HW122307   1.511   6.378   2.720  0.9976  1.2358  1.2612
 7136SOL    HW222308   1.612   6.272   2.646  1.4887  1.5373  1.4926
 7137SOL     OW22309   0.486   5.885   5.945  0.2523  0.3922  0.6545
 7137SOL    HW122310   0.407   5.825   5.943 -0.5942  1.4815  0.1485
 7137SOL    HW222311   0.549   5.860   5.871 -1.4131  1.7985 -1.3515
 7138SOL     OW22312   4.950   2.917   3.613  0.6700 -0.2640 -0.3164
 7138SOL    HW122313   4.914   2.921   3.705  0.7289  1.2652 -0.3337
 7138SOL    HW222314   4.888   2.864   3.554 -1.3057  1.8181 -0.2264
 7139SOL     OW22315   1.625   0.027   5.612 -0.3065  0.2995  0.2374
 7139SOL    HW122316   1.619   0.073   5.523  0.7471  2.3547  1.1547
 7139SOL    HW222317   1.580   0.083   5.681  0.2204 -0.5106  1.2653
 7140SOL     OW22318   6.220   1.884   3.945 -0.3246 -0.4328  0.1921
 7140SOL    HW122319   6.257   1.794   3.966  1.2817 -0.1643 -1.2481
 7140SOL    HW222320   6.120   1.881   3.947 -0.3402 -1.3414  3.5879
 7141SOL     OW22321   0.732   3.796   5.737 -0.3835  0.3670 -0.0689
 7141SOL    HW122322   0.702   3.854   5.661  0.7094 -0.2538 -1.0123
 7141SOL    HW222323   0.735   3.701   5.707 -1.2438 -0.0709  1.1776
 7142SOL     OW22324   2.940   6.355   4.225 -0.4231  0.6091  0.2392
 7142SOL    HW122325   2.844   6.327   4.232 -0.4856  0.5646 -0.6349
 7142SOL    HW222326   2.996   6.302   4.288 -0.8692  0.1101  0.2180
 7143SOL     OW22327   4.729   4.279   2.185 -0.1747  0.2900 -0.4225
 7143SOL    HW122328   4.787   4.240   2.113  0.4664  0.2512  0.1040
 7143SOL    HW222329   4.633   4.274   2.157 -0.0642 -1.1649 -0.6097
 7144SOL     OW22330   4.502   0.345   5.387  0.0518  0.1987 -0.1248
 7144SOL    HW122331   4.536   0.439   5.384  0.2104  0.1329 -0.5220
 7144SOL    HW222332   4.423   0.340   5.448  1.0273  0.2512  1.1853
 7145SOL     OW22333   7.016   6.298   6.860  0.0633 -0.6417 -0.4146
 7145SOL    HW122334   6.942   6.255   6.809 -0.6830  2.3171 -2.0740
 7145SOL    HW222335   7.076   6.228   6.899 -2.0012 -3.0826 -1.3901
 7146SOL     OW22336   2.635   1.874   6.190 -0.3880 -0.4396 -0.5412
 7146SOL    HW122337   2.643   1.949   6.123  2.0020 -1.5063 -1.5948
 7146SOL    HW222338   2.679   1.902   6.275 -1.4010  0.1045 -0.1881
 7147SOL     OW22339   6.635   0.167   5.030  0.4913 -0.2874  0.3478
 7147SOL    HW122340   6.656   0.115   5.113  0.7390 -0.8064 -0.0313
 7147SOL    HW222341   6.541   0.146   5.001  0.1768  0.3863  0.8462
 7148SOL     OW22342   1.197   0.610   6.382  0.1807 -0.4429 -0.0440
 7148SOL    HW122343   1.233   0.699   6.410 -1.3320  0.0355  0.4550
 7148SOL    HW222344   1.273   0.546   6.369  1.1270 -0.0448  2.8296
 7149SOL     OW22345   4.816   6.691   1.549  0.2681  0.1500 -0.2306
 7149SOL    HW122346   4.833   6.788   1.566 -0.4906  0.0631  1.1752
 7149SOL    HW222347   4.718   6.676   1.532  0.3612 -0.3928 -0.3214
 7150SOL     OW22348   2.873   6.082   4.566  0.6784  0.0780  0.0422
 7150SOL    HW122349   2.884   6.103   4.663 -1.7048 -1.3140  0.6984
 7150SOL    HW222350   2.887   5.985   4.551  1.4368  0.3452 -1.1078
 7151SOL     OW22351   3.032   1.764   6.934  0.0097 -0.5610 -0.0718
 7151SOL    HW122352   2.985   1.840   6.979  0.8837 -0.5962  0.9184
 7151SOL    HW222353   2.965   1.700   6.897 -0.7261  0.2529 -0.1842
 7152SOL     OW22354   1.529   1.408   1.196  0.1640 -0.1399  0.6624
 7152SOL    HW122355   1.457   1.342   1.218 -0.4033 -0.0971 -0.9490
 7152SOL    HW222356   1.505   1.497   1.232 -1.3873  0.2301 -1.1218
 7153SOL     OW22357   5.622   6.459   6.430  0.3165  0.0067  0.3843
 7153SOL    HW122358   5.687   6.522   6.388 -0.0387  0.7388  0.8908
 7153SOL    HW222359   5.665   6.415   6.510 -0.0738  1.1725  1.2639
 7154SOL     OW22360   2.621   6.159   5.954 -0.2882 -0.6960 -0.1769
 7154SOL    HW122361   2.588   6.206   5.872  2.2211 -0.6371 -1.2392
 7154SOL    HW222362   2.590   6.208   6.035  0.5741  1.6938 -1.1901
 7155SOL     OW22363   4.470   1.759   3.561 -1.0773 -0.0085 -0.6602
 7155SOL    HW122364   4.444   1.826   3.630 -1.4313 -1.2812  0.4864
 7155SOL    HW222365   4.519   1.804   3.487 -1.0340  1.4506  0.2303
 7156SOL     OW22366   6.756   1.508   3.660 -0.4567 -0.1597  0.7039
 7156SOL    HW122367   6.748   1.520   3.561  2.3554 -0.6822  0.3243
 7156SOL    HW222368   6.758   1.598   3.704 -2.1404  0.0691  0.3930
 7157SOL     OW22369   1.622   0.635   6.520 -0.5164  0.1754  0.1385
 7157SOL    HW122370   1.679   0.661   6.442 -1.5771  0.0799 -0.6892
 7157SOL    HW222371   1.657   0.550   6.560 -0.3957 -0.1826 -0.7101
 7158SOL     OW22372   1.801   1.141   0.966  0.4073 -0.1664  0.2957
 7158SOL    HW122373   1.853   1.061   0.995 -0.3962 -0.1045  1.9947
 7158SOL    HW222374   1.798   1.208   1.040 -1.2213  0.2566 -0.1090
 7159SOL     OW22375   3.038   0.893   0.054  0.1668  0.1400 -0.1734
 7159SOL    HW122376   2.967   0.902   0.124 -0.9857 -1.5171 -1.0671
 7159SOL    HW222377   2.999   0.915  -0.036  1.1446  0.4810 -0.5220
 7160SOL     OW22378   5.053   5.917   5.134  0.2249 -0.0883 -0.7807
 7160SOL    HW122379   5.054   5.844   5.202 -0.1348  0.7207  0.1237
 7160SOL    HW222380   4.984   5.985   5.159  1.1614  1.0190 -1.1025
 7161SOL     OW22381   3.656   5.207   0.238 -0.1278 -0.4917 -0.0715
 7161SOL    HW122382   3.609   5.200   0.150 -0.6341  1.0409  0.0530
 7161SOL    HW222383   3.751   5.179   0.227 -0.5414 -1.7391 -0.7608
 7162SOL     OW22384   5.715   4.283   1.944  0.0859 -0.1441  0.4403
 7162SOL    HW122385   5.683   4.188   1.943  0.3037 -0.2212 -1.2446
 7162SOL    HW222386   5.657   4.336   2.007 -0.3964 -1.2543  0.9699
 7163SOL     OW22387   3.563   4.956   6.037 -0.2382 -0.6080  0.1323
 7163SOL    HW122388   3.626   4.918   5.969 -0.7208 -1.6562  0.2427
 7163SOL    HW222389   3.596   4.935   6.129  0.8808  1.5831  0.2743
 7164SOL     OW22390   0.913   6.355   1.223 -0.0092 -0.5223  0.5899
 7164SOL    HW122391   0.898   6.263   1.188  1.3284 -0.9018  0.9505
 7164SOL    HW222392   0.952   6.350   1.315 -0.1201  0.4037  0.7029
 7165SOL     OW22393   5.911   2.718   0.113  0.2575  0.5593  0.1337
 7165SOL    HW122394   5.911   2.620   0.093  0.0147  0.0037  2.6160
 7165SOL    HW222395   5.916   2.769   0.027  2.4029 -1.6111 -1.1662
 7166SOL     OW22396   6.191   5.600   2.055 -0.2283  0.6272  0.1165
 7166SOL    HW122397   6.200   5.699   2.064  1.9856  0.4302  0.7751
 7166SOL    HW222398   6.254   5.555   2.118 -2.1745 -1.2514  0.8325
 7167SOL     OW22399   1.527   4.917   6.383  0.0192 -0.3834 -0.4721
 7167SOL    HW122400   1.604   4.860   6.410  1.7600  0.8057 -2.6185
 7167SOL    HW222401   1.558   5.010   6.368 -1.9980  0.2845 -0.7459
 7168SOL     OW22402   4.873   3.799   1.117 -0.0592  0.1600  0.2355
 7168SOL    HW122403   4.843   3.876   1.174 -1.9589 -0.8504  0.6761
 7168SOL    HW222404   4.838   3.811   1.025 -1.6864 -0.8784  0.6784
 7169SOL     OW22405   4.111   1.687   4.705 -0.3914 -0.0816 -0.2801
 7169SOL    HW122406   4.070   1.746   4.774  0.4010  1.8759 -1.3884
 7169SOL    HW222407   4.049   1.612   4.683 -2.3522  1.4688 -0.2626
 7170SOL     OW22408   0.202   0.464   0.982 -0.2854 -0.1815 -0.0825
 7170SOL    HW122409   0.137   0.393   1.007 -0.3272 -0.0312  0.2377
 7170SOL    HW222410   0.289   0.422   0.954 -0.4034 -0.3675 -0.1690
 7171SOL     OW22411   3.527   2.859   6.212  0.6505 -0.4924 -0.3703
 7171SOL    HW122412   3.495   2.900   6.297 -0.6350  0.5950 -1.3359
 7171SOL    HW222413   3.500   2.762   6.210 -2.9370  0.3529 -1.1477
 7172SOL     OW22414   6.278   6.285   1.924  0.0382 -0.0309  0.0728
 7172SOL    HW122415   6.187   6.286   1.882 -0.2672 -1.2329  0.6551
 7172SOL    HW222416   6.270   6.253   2.019  1.0492  0.0433  0.1944
 7173SOL     OW22417   3.117   6.358   0.551  0.0233 -0.4044 -0.3532
 7173SOL    HW122418   3.058   6.319   0.481 -0.7841 -0.0440  0.1072
 7173SOL    HW222419   3.098   6.456   0.560 -1.3567 -0.7698  1.7163
 7174SOL     OW22420   2.974   5.122   5.822 -0.7702 -0.2286 -0.5847
 7174SOL    HW122421   2.964   5.030   5.784  1.9700 -1.0122  0.3272
 7174SOL    HW222422   3.007   5.184   5.751  0.2906 -0.6923 -0.5105
 7175SOL     OW22423   3.906   3.468   5.159 -0.0531  0.2194 -0.2736
 7175SOL    HW122424   3.983   3.426   5.208 -0.3998  1.0729  1.0588
 7175SOL    HW222425   3.892   3.560   5.194 -1.3842  0.2443 -0.8462
 7176SOL     OW22426   4.300   1.707   6.616  0.0600  0.0993 -0.2336
 7176SOL    HW122427   4.348   1.708   6.703 -0.8444 -1.5538  0.3253
 7176SOL    HW222428   4.307   1.797   6.573  2.9879  0.1537  0.1409
 7177SOL     OW22429   6.814   6.424   5.674  0.2708 -0.0791 -0.4681
 7177SOL    HW122430   6.844   6.487   5.602  0.5879 -0.1461 -0.3948
 7177SOL    HW222431   6.849   6.333   5.655 -0.7560 -0.3946 -0.9459
 7178SOL     OW22432   2.452   5.530   5.313 -0.1991 -0.3132  0.4106
 7178SOL    HW122433   2.454   5.435   5.345 -0.7504 -0.4126  0.1741
 7178SOL    HW222434   2.470   5.533   5.215 -2.5745 -0.4445 -0.0890
 7179SOL     OW22435   1.097   0.089   0.822 -0.5201 -0.5554 -0.0655
 7179SOL    HW122436   1.049   0.159   0.874  1.3602  0.5832  0.2239
 7179SOL    HW222437   1.166   0.045   0.880  0.7323 -0.1605 -1.2035
 7180SOL     OW22438   2.493   2.294   1.630  0.4523  0.4897 -0.2156
 7180SOL    HW122439   2.535   2.263   1.544 -1.9763 -2.1281 -0.5893
 7180SOL    HW222440   2.544   2.257   1.707  0.0821 -0.8787 -0.6155
 7181SOL     OW22441   2.929   1.174   4.823  0.1280 -0.7034 -0.2252
 7181SOL    HW122442   2.856   1.242   4.826  1.6601  1.0340 -0.3138
 7181SOL    HW222443   2.970   1.173   4.732  0.5545 -1.2768 -0.0333
 7182SOL     OW22444   2.199   4.197   6.367  0.1059 -0.0092 -0.1888
 7182SOL    HW122445   2.161   4.123   6.312 -1.4740 -0.2483  1.1359
 7182SOL    HW222446   2.289   4.170   6.402 -0.6075 -1.4875  0.5879
 7183SOL     OW22447   5.747   6.016   5.642 -0.3784  0.0717 -0.2715
 7183SOL    HW122448   5.841   6.035   5.672 -0.1905 -0.1732 -0.6841
 7183SOL    HW222449   5.708   6.098   5.601 -0.3035  0.1412 -0.2058
 7184SOL     OW22450   4.004   4.194   6.602 -0.5525 -0.1153  1.0360
 7184SOL    HW122451   4.066   4.164   6.675  0.4763 -0.1713  0.1777
 7184SOL    HW222452   3.986   4.117   6.540 -2.6493 -0.4865  2.0358
 7185SOL     OW22453   3.004   5.750   3.433  0.0940 -0.4150  0.3174
 7185SOL    HW122454   3.001   5.663   3.483 -1.2986 -1.4101 -1.3825
 7185SOL    HW222455   2.914   5.794   3.437 -0.0937 -0.5730 -1.3070
 7186SOL     OW22456   3.309   2.677   5.295  0.3711 -0.5105  0.3511
 7186SOL    HW122457   3.295   2.609   5.222 -1.6776 -0.2145  0.3901
 7186SOL    HW222458   3.319   2.629   5.382  1.1611 -0.8212  0.0955
 7187SOL     OW22459   5.243   1.833   6.836 -0.1898 -0.0919  0.2998
 7187SOL    HW122460   5.157   1.823   6.786 -1.2519 -0.7071  2.1707
 7187SOL    HW222461   5.245   1.921   6.883  0.2778 -0.0270  0.1708
 7188SOL     OW22462   3.730   6.145   2.170 -0.0123 -0.2480  0.1293
 7188SOL    HW122463   3.700   6.051   2.185 -0.4479  0.0027  0.9263
 7188SOL    HW222464   3.829   6.150   2.176 -0.0896 -0.3322  2.2381
 7189SOL     OW22465   2.346   5.444   3.885 -0.5491 -0.2424 -0.2360
 7189SOL    HW122466   2.251   5.415   3.892 -0.7664  0.7398  1.6972
 7189SOL    HW222467   2.395   5.419   3.969  1.2238 -1.7015 -1.6127
 7190SOL     OW22468   6.381   3.693   4.816  0.1691  0.1237  0.3359
 7190SOL    HW122469   6.352   3.659   4.727 -1.0600  3.3616 -0.6350
 7190SOL    HW222470   6.316   3.762   4.848  2.3318  1.4241  2.2228
 7191SOL     OW22471   4.599   6.506   1.069 -0.4144  0.5773  0.5704
 7191SOL    HW122472   4.554   6.580   1.020  0.5322 -0.7949 -2.7080
 7191SOL    HW222473   4.697   6.525   1.075 -0.2706 -0.0397  0.3247
 7192SOL     OW22474   1.833   5.821   3.671  0.1484  0.8000 -0.7640
 7192SOL    HW122475   1.917   5.779   3.636 -1.7054 -0.4564 -4.2148
 7192SOL    HW222476   1.796   5.766   3.745  0.7139 -0.4968 -1.4052
 7193SOL     OW22477   6.031   0.776   5.913 -0.0268 -0.3590  0.3336
 7193SOL    HW122478   5.986   0.701   5.962  0.8741 -0.0486  1.6762
 7193SOL    HW222479   6.042   0.854   5.974  2.0191 -0.3091 -0.0468
 7194SOL     OW22480   1.722   6.503   1.584 -0.0923  0.2702  0.0528
 7194SOL    HW122481   1.624   6.509   1.602  0.1537  0.2637  1.4774
 7194SOL    HW222482   1.772   6.496   1.670  1.1566  0.0661 -0.6585
 7195SOL     OW22483   5.721   5.374   4.395 -0.0068 -0.2276  0.3323
 7195SOL    HW122484   5.640   5.415   4.437  0.5918 -0.6764  1.9821
 7195SOL    HW222485   5.720   5.392   4.297 -2.5655 -0.9436  0.1426
 7196SOL     OW22486   3.911   5.657   0.294  0.1409 -1.1011  0.4636
 7196SOL    HW122487   3.879   5.659   0.200 -0.7124  1.6668  0.7395
 7196SOL    HW222488   3.833   5.657   0.356  0.6796 -0.4901  1.1587
 7197SOL     OW22489   4.363   5.540   1.981  0.1005  0.0863 -0.3498
 7197SOL    HW122490   4.314   5.625   2.002  1.1910  0.5333  0.4796
 7197SOL    HW222491   4.313   5.463   2.021 -0.8877  0.3141 -1.0943
 7198SOL     OW22492   5.062   5.509   4.366  0.2905  0.4065  0.1115
 7198SOL    HW122493   5.066   5.605   4.338 -0.1387  0.0719 -1.1608
 7198SOL    HW222494   5.129   5.457   4.313  1.0836  0.1192  1.3627
 7199SOL     OW22495   1.799   6.508   2.789  0.2281  0.1149  0.8663
 7199SOL    HW122496   1.766   6.547   2.875  1.6797 -0.0681  1.5230
 7199SOL    HW222497   1.830   6.414   2.805  0.8853  0.2210  0.2262
 7200SOL     OW22498   6.178   3.753   0.714 -0.0459 -0.0839 -0.3560
 7200SOL    HW122499   6.266   3.731   0.756  0.5415  0.5371 -1.2260
 7200SOL    HW222500   6.104   3.717   0.771  0.7872 -1.7082 -0.2418
 7201SOL     OW22501   5.738   2.000   4.374  0.1606  0.0045 -0.6559
 7201SOL    HW122502   5.641   2.003   4.400  0.1303 -1.3419 -0.5343
 7201SOL    HW222503   5.773   2.093   4.367 -0.1681  0.5258  2.8513
 7202SOL     OW22504   1.324   6.362   0.357 -0.2657 -0.1860 -0.7586
 7202SOL    HW122505   1.334   6.398   0.264  0.0472 -1.1765 -1.1141
 7202SOL    HW222506   1.320   6.262   0.354 -1.5104 -0.1840  0.1820
 7203SOL     OW22507   0.761   0.115   4.529  0.9549  0.2072 -1.0203
 7203SOL    HW122508   0.781   0.046   4.599 -1.2130 -2.1980 -2.5777
 7203SOL    HW222509   0.676   0.162   4.553  0.4447 -0.3148 -1.7362
 7204SOL     OW22510   5.286   5.066   5.322  0.0710 -0.1455 -0.2452
 7204SOL    HW122511   5.275   5.038   5.418 -0.4804 -1.1267 -0.5781
 7204SOL    HW222512   5.349   5.004   5.277  1.9329  1.5042 -0.0407
 7205SOL     OW22513   6.178   0.909   1.878  0.0429  1.1816 -0.6311
 7205SOL    HW122514   6.256   0.907   1.816  1.3127  3.6968  0.7337
 7205SOL    HW222515   6.113   0.978   1.848  0.2423  1.8047  0.3191
 7206SOL     OW22516   3.727   5.894   2.281  0.0116 -0.1160 -0.3977
 7206SOL    HW122517   3.714   5.806   2.237 -0.3551  1.0200 -2.7209
 7206SOL    HW222518   3.663   5.903   2.357  0.0422 -1.8126 -0.1365
 7207SOL     OW22519   1.177   5.068   5.039 -0.4806  0.2936 -0.3573
 7207SOL    HW122520   1.238   5.077   4.960 -0.3354  0.0843 -0.2717
 7207SOL    HW222521   1.098   5.012   5.013 -0.7186  0.7043 -0.5153
 7208SOL     OW22522   1.569   4.485   3.838  0.2808  0.1209  0.2688
 7208SOL    HW122523   1.637   4.501   3.909 -0.2238  2.4313  0.3074
 7208SOL    HW222524   1.546   4.571   3.793 -1.8061 -0.7533 -0.4945
 7209SOL     OW22525   5.968   5.298   1.506  0.1745 -0.3305 -0.0497
 7209SOL    HW122526   5.956   5.199   1.505 -0.7914 -0.2681  1.6147
 7209SOL    HW222527   5.887   5.342   1.466  0.2595 -0.2053 -0.0852
 7210SOL     OW22528   2.264   3.985   2.002 -0.2833 -0.8375  0.3373
 7210SOL    HW122529   2.219   3.907   2.046  1.3766 -2.1295 -0.1705
 7210SOL    HW222530   2.294   3.959   1.911 -1.3586  1.0142 -0.5953
 7211SOL     OW22531   4.869   4.683   2.761  0.2075 -0.1813  0.4015
 7211SOL    HW122532   4.826   4.729   2.838 -1.3073 -1.9940  0.7243
 7211SOL    HW222533   4.818   4.599   2.739  1.9769 -0.9670 -1.0470
 7212SOL     OW22534   0.939   0.711   3.460 -0.1057 -0.4604 -0.6750
 7212SOL    HW122535   0.898   0.733   3.371 -0.2298 -1.4153 -0.8653
 7212SOL    HW222536   1.038   0.713   3.452 -0.0789  1.4473 -0.3153
 7213SOL     OW22537   3.163   5.903   5.213  0.3922  0.6311  0.2039
 7213SOL    HW122538   3.160   5.905   5.313 -0.7276 -0.3355  0.2163
 7213SOL    HW222539   3.216   5.823   5.184 -2.3278 -1.2855  0.0970
 7214SOL     OW22540   2.836   3.183   1.600 -0.2225 -0.0255  0.4314
 7214SOL    HW122541   2.797   3.225   1.682 -1.2286 -2.2336  1.1660
 7214SOL    HW222542   2.776   3.109   1.569 -0.6169  1.5611 -3.1610
 7215SOL     OW22543   5.657   5.151   3.406 -0.1322  0.0070  0.2522
 7215SOL    HW122544   5.742   5.195   3.378  0.7269 -0.5548  1.8665
 7215SOL    HW222545   5.613   5.205   3.478 -0.2736 -0.5555  0.5961
 7216SOL     OW22546   0.899   3.795   5.950 -0.4464  0.1888  0.2196
 7216SOL    HW122547   0.857   3.754   6.031 -0.5450  0.3443  0.2471
 7216SOL    HW222548   0.832   3.803   5.877 -0.6308  1.0163  0.4725
 7217SOL     OW22549   3.785   2.958   6.135  0.0131 -0.4929 -0.3291
 7217SOL    HW122550   3.702   2.908   6.162 -0.7920 -0.0185 -1.8453
 7217SOL    HW222551   3.850   2.894   6.094 -0.0672 -0.6755 -0.1768
 7218SOL     OW22552   4.760   4.457   2.415 -0.0772  0.0920  0.0081
 7218SOL    HW122553   4.752   4.399   2.334  1.7288  1.6806 -1.3830
 7218SOL    HW222554   4.829   4.419   2.477  1.1300  0.7272 -0.9181
 7219SOL     OW22555   5.184   1.320   6.016  0.1732 -0.5251 -0.1579
 7219SOL    HW122556   5.224   1.376   5.943  2.4861  0.5898  1.8170
 7219SOL    HW222557   5.113   1.372   6.062  0.3103 -0.3421 -0.1524
 7220SOL     OW22558   1.855   0.727   2.155  0.0212  0.0514  0.6396
 7220SOL    HW122559   1.847   0.669   2.074  1.1977 -0.1736  0.6604
 7220SOL    HW222560   1.848   0.823   2.128  1.5599  0.0354  0.0713
 7221SOL     OW22561   4.113   6.654   0.835  0.1184  0.1015 -0.2704
 7221SOL    HW122562   4.067   6.570   0.862 -0.7145  0.5357 -0.3118
 7221SOL    HW222563   4.104   6.723   0.907  0.1154  0.4140 -0.5616
 7222SOL     OW22564   5.825   2.864   5.765 -0.0623 -0.3838  0.0718
 7222SOL    HW122565   5.868   2.875   5.675  0.0759  1.6838  0.3435
 7222SOL    HW222566   5.866   2.786   5.812  0.1803 -1.2278 -1.4563
 7223SOL     OW22567   4.166   4.756   3.441 -0.9274 -0.6041  0.0711
 7223SOL    HW122568   4.210   4.774   3.353  0.4399 -1.2893  0.5833
 7223SOL    HW222569   4.220   4.689   3.492 -1.4167  0.1410  1.6388
 7224SOL     OW22570   2.869   5.182   3.181  0.0102  0.4368  0.5024
 7224SOL    HW122571   2.776   5.180   3.217 -0.8433  0.2948 -1.5680
 7224SOL    HW222572   2.868   5.154   3.085  2.0936  1.2282  0.1997
 7225SOL     OW22573   4.125   6.257   0.601 -1.1344  0.6401  0.6355
 7225SOL    HW122574   4.092   6.164   0.581  0.3930  0.2761 -0.3799
 7225SOL    HW222575   4.185   6.287   0.528 -0.6625  1.9750  1.5365
 7226SOL     OW22576   1.020   1.702   5.044  0.1025 -0.4201  0.1423
 7226SOL    HW122577   1.102   1.692   4.988 -0.3935  1.3826 -1.0188
 7226SOL    HW222578   1.044   1.737   5.134  0.6737 -0.4120 -0.0113
 7227SOL     OW22579   6.065   2.098   4.482  0.4023 -0.0387  0.0789
 7227SOL    HW122580   6.085   2.068   4.388 -0.9713  1.2318 -0.6743
 7227SOL    HW222581   6.065   2.019   4.543  3.1048 -0.6797 -0.6281
 7228SOL     OW22582   0.633   2.126   0.905 -0.8332 -0.7224 -0.5073
 7228SOL    HW122583   0.714   2.070   0.921  0.0894  0.5642 -0.5221
 7228SOL    HW222584   0.565   2.108   0.977 -0.7137 -2.0787 -0.6995
 7229SOL     OW22585   5.087   6.297   3.338  1.2093 -0.2819 -0.7598
 7229SOL    HW122586   5.047   6.353   3.265 -0.8526 -1.7516 -0.8249
 7229SOL    HW222587   5.106   6.356   3.417 -0.2121  0.6652 -1.0782
 7230SOL     OW22588   0.271   2.269   6.357  0.2770  0.1141  0.1005
 7230SOL    HW122589   0.251   2.177   6.390 -0.5195 -0.3931 -1.6945
 7230SOL    HW222590   0.208   2.293   6.283 -1.0279  2.9812  1.9561
 7231SOL     OW22591   0.092   4.028   1.178 -0.5657  0.0867  0.1771
 7231SOL    HW122592   0.048   3.938   1.167 -0.3411  0.1241 -1.1704
 7231SOL    HW222593   0.098   4.050   1.276 -4.7691  0.6931  0.4641
 7232SOL     OW22594   5.163   5.734   6.149  0.1461  0.0620 -0.1607
 7232SOL    HW122595   5.150   5.783   6.236  0.3322  0.8217 -0.5507
 7232SOL    HW222596   5.261   5.728   6.129  0.1960 -1.3708  0.3718
 7233SOL     OW22597   1.265   2.870   1.009  0.3171 -0.3451 -0.0301
 7233SOL    HW122598   1.192   2.850   1.074 -2.0769 -1.1350 -2.7774
 7233SOL    HW222599   1.276   2.970   1.003 -4.0997  0.2728 -2.8977
 7234SOL     OW22600   1.732   0.425   6.659 -0.2788 -0.2306  0.2305
 7234SOL    HW122601   1.693   0.415   6.751 -0.5507  1.6875  0.3711
 7234SOL    HW222602   1.820   0.378   6.655 -0.9011 -1.5030  1.0483
 7235SOL     OW22603   0.891   3.422   1.761  0.7227 -0.2761  0.0198
 7235SOL    HW122604   0.842   3.482   1.698 -0.4669 -2.0712 -0.8392
 7235SOL    HW222605   0.954   3.363   1.709  2.0404  0.3161  0.8702
 7236SOL     OW22606   4.956   3.373   5.708 -0.3641  0.2867  0.2571
 7236SOL    HW122607   4.968   3.317   5.790 -1.5351 -0.9539 -0.3873
 7236SOL    HW222608   4.920   3.317   5.634 -2.0078  1.9676 -0.3000
 7237SOL     OW22609   2.660   4.767   4.096  0.0028 -0.2683  0.3789
 7237SOL    HW122610   2.578   4.817   4.123 -0.2407 -0.5389  0.1528
 7237SOL    HW222611   2.727   4.769   4.170 -1.2443 -2.3195  1.6541
 7238SOL     OW22612   0.106   0.131   2.795  0.1787  0.6137 -0.0022
 7238SOL    HW122613   0.102   0.189   2.714 -1.0884  0.3832 -0.1284
 7238SOL    HW222614   0.201   0.119   2.823  0.5135  2.2862 -0.2989
 7239SOL     OW22615   6.982   1.696   4.165  0.5869 -0.4955  0.2435
 7239SOL    HW122616   6.960   1.620   4.104  0.9904 -0.4803  0.0811
 7239SOL    HW222617   6.940   1.680   4.255 -2.8835  1.0000 -0.9143
 7240SOL     OW22618   6.661   4.064   6.682  0.3325 -0.0887  0.0677
 7240SOL    HW122619   6.702   3.981   6.718  0.5005 -0.6345 -1.3443
 7240SOL    HW222620   6.649   4.056   6.584  0.9397  1.8002 -0.2028
 7241SOL     OW22621   0.509   6.890   0.609 -0.4522  0.2549 -0.1164
 7241SOL    HW122622   0.497   6.969   0.669 -0.0744 -1.2200  2.0066
 7241SOL    HW222623   0.464   6.810   0.649  3.2255 -1.7950  0.4331
 7242SOL     OW22624   0.780   5.913   1.567 -0.0981 -0.3284  0.0655
 7242SOL    HW122625   0.787   5.943   1.472  0.0583  0.7379  0.4013
 7242SOL    HW222626   0.783   5.813   1.571 -0.4478 -0.3966 -1.0738
 7243SOL     OW22627   4.249   6.479   2.637  0.3620  0.1153  0.4833
 7243SOL    HW122628   4.214   6.386   2.624  0.3886 -0.8256  5.2524
 7243SOL    HW222629   4.349   6.478   2.633  0.3275  0.2434 -0.7016
 7244SOL     OW22630   6.122   4.454   4.414  0.2873  0.2397  0.1417
 7244SOL    HW122631   6.160   4.453   4.322 -0.9012  0.7349 -0.3682
 7244SOL    HW222632   6.109   4.549   4.443 -0.7191  0.0763  0.2364
 7245SOL     OW22633   4.884   1.723   3.302  0.2321  0.0230 -0.7262
 7245SOL    HW122634   4.848   1.658   3.235 -2.4279  1.7176 -1.0717
 7245SOL    HW222635   4.917   1.805   3.255  0.7017  0.1933 -0.1122
 7246SOL     OW22636   7.000   1.126   5.650 -0.3670 -0.5080  0.8674
 7246SOL    HW122637   6.901   1.114   5.651 -0.6737  1.4979 -0.3587
 7246SOL    HW222638   7.045   1.037   5.644 -2.1445 -1.3791 -0.1115
 7247SOL     OW22639   3.197   3.996   4.160  0.5297 -0.3118  0.0129
 7247SOL    HW122640   3.228   3.911   4.118  0.9534  0.6766 -1.7961
 7247SOL    HW222641   3.180   3.981   4.257  3.0473 -1.8415  0.3093
 7248SOL     OW22642   6.808   1.419   2.433 -0.0588  1.0879  0.4976
 7248SOL    HW122643   6.714   1.445   2.455 -0.5688  1.2109 -1.6309
 7248SOL    HW222644   6.809   1.360   2.352  1.6827  0.8433  0.6507
 7249SOL     OW22645   3.194   0.639   2.280 -0.2266 -0.4682  0.3287
 7249SOL    HW122646   3.100   0.631   2.246  0.8103 -2.1039 -2.5632
 7249SOL    HW222647   3.215   0.559   2.336 -0.7603  0.3288  1.7204
 7250SOL     OW22648   2.971   6.499   1.136 -0.7804  0.0225 -0.1068
 7250SOL    HW122649   2.953   6.454   1.224 -0.4658 -1.7584 -0.9069
 7250SOL    HW222650   3.039   6.446   1.085 -0.2886  1.5258 -1.0560
 7251SOL     OW22651   0.553   1.437   5.239  0.3632  0.4179 -0.1127
 7251SOL    HW122652   0.536   1.467   5.333  1.6560 -0.4845  0.4483
 7251SOL    HW222653   0.470   1.447   5.185 -0.2401  1.5123  0.9719
 7252SOL     OW22654   1.389   6.750   2.326 -0.1331  0.1453 -0.9051
 7252SOL    HW122655   1.293   6.767   2.346 -0.0791 -0.2074 -0.3290
 7252SOL    HW222656   1.445   6.783   2.403  0.1802  0.0265 -1.0801
 7253SOL     OW22657   2.109   1.861   0.240 -0.4916 -0.6953 -0.4834
 7253SOL    HW122658   2.141   1.916   0.317 -1.1184  0.4147 -0.9987
 7253SOL    HW222659   2.176   1.866   0.166 -0.6578 -0.4497 -0.6154
 7254SOL     OW22660   1.685   6.170   5.728  0.4171 -0.1752 -0.3294
 7254SOL    HW122661   1.621   6.202   5.798  0.5614 -2.0172  0.6985
 7254SOL    HW222662   1.779   6.188   5.759  0.4597  0.9081 -1.0336
 7255SOL     OW22663   0.301   4.455   1.397 -0.1014 -0.1662  0.1360
 7255SOL    HW122664   0.323   4.526   1.330 -0.2628  0.6397  0.9300
 7255SOL    HW222665   0.368   4.456   1.471 -1.3161  0.6174  1.2692
 7256SOL     OW22666   3.231   5.805   4.148 -0.5173 -0.7709  0.7310
 7256SOL    HW122667   3.146   5.783   4.099 -0.4324 -1.7832  1.0269
 7256SOL    HW222668   3.304   5.743   4.118  0.3892  0.6906 -0.2116
 7257SOL     OW22669   1.840   3.279   3.139  0.6371 -0.6260 -0.5342
 7257SOL    HW122670   1.935   3.280   3.171  0.7668  2.1155 -0.7254
 7257SOL    HW222671   1.778   3.291   3.217  0.7522  1.9115 -0.7264
 7258SOL     OW22672   5.170   2.842   5.848  0.4196 -0.2874  0.2571
 7258SOL    HW122673   5.112   2.797   5.916  0.7782 -2.5172 -0.8404
 7258SOL    HW222674   5.255   2.790   5.837  1.8663  1.8995  0.4912
 7259SOL     OW22675   1.654   1.849   2.500  0.0508  1.3895  0.1094
 7259SOL    HW122676   1.741   1.865   2.547  1.5625  2.2579 -2.7515
 7259SOL    HW222677   1.633   1.752   2.500  1.6153  1.0307 -0.1121
 7260SOL     OW22678   6.844   5.223   4.349  0.3253 -0.5628  0.1875
 7260SOL    HW122679   6.918   5.196   4.411 -0.3659  2.1708  2.4302
 7260SOL    HW222680   6.842   5.323   4.342 -2.8492 -0.5543 -0.1500
 7261SOL     OW22681   6.485   6.204   1.770 -0.0435  0.4291 -0.1679
 7261SOL    HW122682   6.546   6.280   1.793 -1.1799  1.8776 -1.6469
 7261SOL    HW222683   6.393   6.223   1.804 -0.4654  0.0068 -1.0300
 7262SOL     OW22684   2.085   0.557   4.832 -0.2294  0.0549 -0.1632
 7262SOL    HW122685   1.989   0.548   4.861 -0.4292 -2.3639 -1.3115
 7262SOL    HW222686   2.114   0.652   4.842 -1.8670  0.3706  2.8598
 7263SOL     OW22687   0.380   1.971   5.551  0.5198 -0.3851  0.0588
 7263SOL    HW122688   0.418   1.915   5.478  0.9308 -1.3467  0.9736
 7263SOL    HW222689   0.295   2.014   5.520  0.3251 -1.3187 -0.7624
 7264SOL     OW22690   0.465   2.380   1.218  0.3003  0.0287 -0.5427
 7264SOL    HW122691   0.551   2.329   1.223  1.1449  1.2605 -1.7547
 7264SOL    HW222692   0.408   2.343   1.145 -0.8133 -1.5829  1.0363
 7265SOL     OW22693   2.935   5.698   2.541 -0.4405  0.3539 -0.2942
 7265SOL    HW122694   2.993   5.760   2.595 -1.8363  0.5370  1.0471
 7265SOL    HW222695   2.914   5.617   2.595 -2.0794  0.6611 -0.4287
 7266SOL     OW22696   6.649   3.076   1.959  0.5099  0.2309  0.4918
 7266SOL    HW122697   6.737   3.069   2.004  1.3952 -1.2699 -1.3161
 7266SOL    HW222698   6.658   3.130   1.875 -0.4589  0.6802  0.6638
 7267SOL     OW22699   4.411   6.014   4.076  0.0086  0.0271  0.2339
 7267SOL    HW122700   4.391   5.923   4.038 -1.8317  0.1556  0.7505
 7267SOL    HW222701   4.509   6.033   4.070  0.2248 -1.3780 -1.2140
 7268SOL     OW22702   6.222   5.577   4.996  0.2331  0.3911 -0.3927
 7268SOL    HW122703   6.132   5.564   5.036  1.4240  0.8825  2.7517
 7268SOL    HW222704   6.267   5.488   4.985 -0.5169  0.1566 -1.8601
 7269SOL     OW22705   2.695   0.562   3.883 -0.7848  0.0009  0.2191
 7269SOL    HW122706   2.649   0.512   3.958 -1.2702  0.1182  0.0038
 7269SOL    HW222707   2.777   0.512   3.856 -0.8635 -0.2953  0.5100
 7270SOL     OW22708   3.357   0.102   1.496 -0.0492  0.0469 -0.5558
 7270SOL    HW122709   3.414   0.036   1.445  0.1394 -1.2375  1.2275
 7270SOL    HW222710   3.288   0.140   1.434  1.9286  0.7241 -2.4736
 7271SOL     OW22711   5.861   0.022   4.725  0.1909  0.5992 -0.4068
 7271SOL    HW122712   5.921   0.054   4.799 -1.0348 -0.9586  1.3371
 7271SOL    HW222713   5.909  -0.048   4.672  0.9368  1.4593 -0.9185
 7272SOL     OW22714   5.320   3.011   1.760 -0.0877 -0.8751 -1.0034
 7272SOL    HW122715   5.324   3.081   1.689 -1.0324 -1.6357 -1.8423
 7272SOL    HW222716   5.390   2.941   1.743  0.5592 -0.3823 -0.4199
 7273SOL     OW22717   6.370   4.514   1.681  0.1396  0.3740  0.5010
 7273SOL    HW122718   6.333   4.505   1.588  1.5199  1.0369 -0.1292
 7273SOL    HW222719   6.336   4.438   1.737 -1.6385  0.5997 -0.2088
 7274SOL     OW22720   0.452   3.852   3.225 -0.0528 -0.0014 -0.4793
 7274SOL    HW122721   0.380   3.821   3.164 -0.6742  2.0572 -0.8563
 7274SOL    HW222722   0.540   3.852   3.176 -0.5371  1.5997 -1.4286
 7275SOL     OW22723   4.636   0.563   1.040 -0.0840 -0.4494  0.2441
 7275SOL    HW122724   4.702   0.488   1.028 -1.5705 -1.5380 -1.8442
 7275SOL    HW222725   4.547   0.533   1.007 -0.7522  2.2306 -0.5715
 7276SOL     OW22726   3.183   6.355   3.534 -0.7791  0.5596  0.4435
 7276SOL    HW122727   3.275   6.371   3.499 -0.1043 -1.5136  1.1091
 7276SOL    HW222728   3.176   6.392   3.627 -0.9976  1.7222 -0.0273
 7277SOL     OW22729   0.907   2.028   2.312 -0.4089 -0.5675 -0.6619
 7277SOL    HW122730   0.920   2.065   2.404 -2.0182 -1.2807 -0.1140
 7277SOL    HW222731   0.983   2.056   2.254  0.6125 -0.0506  0.8605
 7278SOL     OW22732   3.689   3.331   4.949 -0.2186 -0.3671  0.0538
 7278SOL    HW122733   3.623   3.275   4.899  0.4996 -0.3748 -0.9277
 7278SOL    HW222734   3.782   3.297   4.931  0.1405  0.3907  0.4272
 7279SOL     OW22735   4.088   6.000   1.161  0.2146  0.2108 -0.4074
 7279SOL    HW122736   4.117   5.905   1.170  0.2958  0.2409 -0.3514
 7279SOL    HW222737   4.013   6.018   1.225  0.0715  0.1332 -0.5523
 7280SOL     OW22738   5.078   1.593   2.176  0.0550 -0.6616 -0.7219
 7280SOL    HW122739   4.981   1.573   2.191 -0.5038  0.5860 -2.3131
 7280SOL    HW222740   5.117   1.632   2.260 -0.6279 -1.7471  0.1324
 7281SOL     OW22741   0.409   2.043   0.726 -0.1682 -0.5626  0.3833
 7281SOL    HW122742   0.447   2.102   0.655 -0.6176  0.1236  0.7062
 7281SOL    HW222743   0.480   2.020   0.792  0.0200 -0.4241  0.2294
 7282SOL     OW22744   2.776   4.219   5.722 -0.5610  0.4123  0.3051
 7282SOL    HW122745   2.764   4.132   5.769  0.8953 -0.1648 -0.3096
 7282SOL    HW222746   2.869   4.252   5.737 -0.5611  0.9979 -0.8598
 7283SOL     OW22747   5.347   1.241   0.118 -0.6529 -0.4992  0.3604
 7283SOL    HW122748   5.357   1.266   0.022 -0.9810 -1.0855  0.1724
 7283SOL    HW222749   5.432   1.198   0.150 -0.6175 -0.4913  0.2786
 7284SOL     OW22750   4.463   1.708   2.091 -0.3243  0.3796  0.0550
 7284SOL    HW122751   4.475   1.734   1.995 -3.1014  1.4649 -0.1048
 7284SOL    HW222752   4.485   1.786   2.150  0.4643  0.0175  0.2441
 7285SOL     OW22753   1.075   6.767   0.994  0.0085  0.1251  0.5106
 7285SOL    HW122754   1.115   6.689   1.042  1.8863  0.0837 -0.9981
 7285SOL    HW222755   1.045   6.739   0.902  1.5801  1.3186 -0.4179
 7286SOL     OW22756   0.578   2.105   5.147  0.6141  0.4875 -0.4984
 7286SOL    HW122757   0.506   2.161   5.189  0.4732 -1.3389  1.9360
 7286SOL    HW222758   0.536   2.030   5.096  0.7469 -0.3168  0.5436
 7287SOL     OW22759   4.479   4.125   6.131  0.9821  0.2909  0.2909
 7287SOL    HW122760   4.388   4.162   6.148 -0.1555 -2.4447  0.6357
 7287SOL    HW222761   4.530   4.121   6.217 -0.1371 -1.8899  0.9293
 7288SOL     OW22762   0.909   3.640   3.030  0.3471  0.7066  0.3655
 7288SOL    HW122763   0.919   3.708   2.957  0.9092  1.5649  1.2281
 7288SOL    HW222764   1.000   3.603   3.053  0.2500  0.8901  1.0522
 7289SOL     OW22765   0.100   2.124   2.338  0.0870  0.0282  0.2570
 7289SOL    HW122766   0.193   2.117   2.374  0.9264  1.0405 -1.5397
 7289SOL    HW222767   0.062   2.213   2.364 -0.6667 -0.6473  1.5463
 7290SOL     OW22768   4.716   1.005   6.756  0.1647  0.1282  0.9749
 7290SOL    HW122769   4.769   0.975   6.835  0.2134  1.7459  1.6092
 7290SOL    HW222770   4.632   1.050   6.787  0.1629  0.7500  0.1177
 7291SOL     OW22771   3.354   1.140   6.749 -0.1159 -0.3448 -0.1282
 7291SOL    HW122772   3.337   1.076   6.824  1.2622 -0.7202 -0.1129
 7291SOL    HW222773   3.376   1.090   6.666 -1.1355  0.0842 -0.6792
 7292SOL     OW22774   5.851   6.878   5.565 -0.3390 -0.1754 -0.3242
 7292SOL    HW122775   5.804   6.789   5.563 -0.7663  0.0560 -1.6456
 7292SOL    HW222776   5.920   6.880   5.493  0.0210  0.3815  0.0323
 7293SOL     OW22777   4.476   4.956   2.487  0.1389 -0.0415  0.2721
 7293SOL    HW122778   4.573   4.948   2.510  0.2433 -2.2479 -0.7051
 7293SOL    HW222779   4.428   4.874   2.516 -0.9168 -0.1445 -1.6163
 7294SOL     OW22780   1.571   3.453   1.929  0.3843 -0.0200  0.2210
 7294SOL    HW122781   1.532   3.527   1.873  1.2167  0.1042 -0.2114
 7294SOL    HW222782   1.569   3.368   1.877  1.9651  0.2696 -0.3697
 7295SOL     OW22783   4.450   2.028   4.338 -0.6762  0.4425 -0.4867
 7295SOL    HW122784   4.506   2.088   4.281 -1.3106  0.8996 -0.6364
 7295SOL    HW222785   4.433   2.072   4.426  2.0630 -1.1090  0.9615
 7296SOL     OW22786   3.490   1.827   2.685 -0.9380 -0.2734 -0.4895
 7296SOL    HW122787   3.391   1.837   2.677 -1.1353 -1.1514  0.5786
 7296SOL    HW222788   3.531   1.829   2.593 -1.8798  0.5361 -0.9123
 7297SOL     OW22789   3.949   2.424   1.234  0.3840 -0.4180 -0.0842
 7297SOL    HW122790   3.989   2.343   1.276 -0.5299 -1.6174 -1.4250
 7297SOL    HW222791   3.959   2.418   1.134 -1.5190  0.0933 -0.3424
 7298SOL     OW22792   5.444   5.487   1.144 -1.0686  0.1050  0.6748
 7298SOL    HW122793   5.370   5.540   1.185 -1.6110  0.2547 -0.4731
 7298SOL    HW222794   5.410   5.437   1.064 -0.1639 -0.6222  0.7307
 7299SOL     OW22795   1.783   6.298   6.355  0.1759 -0.0991 -0.3915
 7299SOL    HW122796   1.851   6.252   6.413  0.8024  1.7260  0.4011
 7299SOL    HW222797   1.705   6.325   6.411 -0.7651 -1.2501 -1.0986
 7300SOL     OW22798   6.534   5.483   1.878 -0.7267 -0.6237  0.5038
 7300SOL    HW122799   6.567   5.389   1.868  1.4487  0.0437  0.9614
 7300SOL    HW222800   6.562   5.538   1.800 -0.7408 -0.0173  0.9138
 7301SOL     OW22801   4.036   3.586   3.146 -0.5551  0.6579 -0.1265
 7301SOL    HW122802   4.034   3.643   3.229  1.2479  1.1060 -0.3396
 7301SOL    HW222803   4.096   3.508   3.162  1.7831  2.0111 -1.7062
 7302SOL     OW22804   5.289   6.856   5.657  0.1406 -0.3228  0.0538
 7302SOL    HW122805   5.273   6.798   5.577 -0.6066 -0.6649  0.4368
 7302SOL    HW222806   5.281   6.952   5.630  0.1358 -0.4296 -0.3337
 7303SOL     OW22807   5.861   3.283   1.880  0.4069 -0.2208  0.0513
 7303SOL    HW122808   5.829   3.324   1.965 -0.4451 -0.3350 -0.2033
 7303SOL    HW222809   5.823   3.191   1.871 -0.5158  0.2532 -1.0342
 7304SOL     OW22810   4.607   3.735   6.077  0.5152  0.1012 -0.2713
 7304SOL    HW122811   4.630   3.645   6.043  0.1083 -0.1005 -0.0274
 7304SOL    HW222812   4.581   3.794   6.000  0.9809  0.0767 -0.4517
 7305SOL     OW22813   1.739   3.536   3.526  0.3605 -0.3250  0.0901
 7305SOL    HW122814   1.755   3.459   3.588  0.7793  0.3003  0.7767
 7305SOL    HW222815   1.816   3.545   3.463  2.3013  1.8654  2.5317
 7306SOL     OW22816   3.097   5.020   6.053  0.2684  0.0393 -0.1977
 7306SOL    HW122817   3.053   5.074   5.981  0.9458  0.5542 -0.2383
 7306SOL    HW222818   3.062   5.048   6.142 -0.3470 -0.3841 -0.3019
 7307SOL     OW22819   3.292   3.504   0.317 -0.6435 -0.0439  0.3138
 7307SOL    HW122820   3.345   3.422   0.335  1.1711  0.0299 -3.6151
 7307SOL    HW222821   3.336   3.583   0.360  0.4567 -0.4663 -0.0163
 7308SOL     OW22822   4.048   6.298   6.215 -0.0884  0.1863  0.0582
 7308SOL    HW122823   4.051   6.199   6.232  1.6769  0.3360  0.8169
 7308SOL    HW222824   4.057   6.347   6.302 -1.7267  1.0588 -0.2127
 7309SOL     OW22825   4.507   4.448   3.102  0.0483 -0.1700  0.0423
 7309SOL    HW122826   4.573   4.373   3.108 -0.6841 -0.7497  1.1469
 7309SOL    HW222827   4.530   4.518   3.169 -0.4525 -0.3705  0.4254
 7310SOL     OW22828   0.725   6.738   4.136 -0.0421  0.3687 -0.2063
 7310SOL    HW122829   0.783   6.806   4.091  1.6806  0.3978  1.8863
 7310SOL    HW222830   0.629   6.760   4.121  0.4403  3.5895  0.7770
 7311SOL     OW22831   5.172   5.265   6.647  0.3257  0.2858 -0.1820
 7311SOL    HW122832   5.129   5.261   6.556  0.4212  0.1439 -0.2203
 7311SOL    HW222833   5.186   5.173   6.682 -0.3589  0.3489  0.2835
 7312SOL     OW22834   1.907   1.290   0.769 -0.0889 -0.4021 -0.0848
 7312SOL    HW122835   1.859   1.240   0.841  0.4180  0.4928  0.8887
 7312SOL    HW222836   1.983   1.234   0.734 -1.5980 -1.7244 -1.4595
 7313SOL     OW22837   1.284   4.902   3.305  0.9380 -0.0061  0.5908
 7313SOL    HW122838   1.256   4.967   3.376 -0.1704 -1.7753  1.8627
 7313SOL    HW222839   1.375   4.866   3.327  0.1457 -1.3736  1.7909
 7314SOL     OW22840   0.103   2.546   5.231 -0.0834  0.1709 -0.1425
 7314SOL    HW122841   0.107   2.455   5.190  0.7719  0.1474 -0.0218
 7314SOL    HW222842   0.188   2.564   5.280 -0.6047  0.6816  0.5983
 7315SOL     OW22843   4.404   3.619   6.669  0.6113  0.4383  0.5478
 7315SOL    HW122844   4.438   3.708   6.640  2.5959  0.4118  2.5791
 7315SOL    HW222845   4.476   3.569   6.717 -0.7044 -1.9429  0.2078
 7316SOL     OW22846   5.421   1.557   4.522 -0.3999 -0.1613 -0.0341
 7316SOL    HW122847   5.376   1.644   4.542  0.9057  0.0237  2.4161
 7316SOL    HW222848   5.491   1.572   4.451 -1.3579  0.3868 -0.8884
 7317SOL     OW22849   1.458   5.643   1.653 -0.0723  0.2247  0.1442
 7317SOL    HW122850   1.539   5.692   1.686 -0.1559  0.6328 -0.2384
 7317SOL    HW222851   1.381   5.707   1.646 -0.2953 -0.0536  0.0270
 7318SOL     OW22852   5.237   5.684   2.120  0.7188  0.2276  0.0854
 7318SOL    HW122853   5.250   5.589   2.151  0.0485  1.0277  3.1823
 7318SOL    HW222854   5.142   5.697   2.091  1.2696 -0.4482 -2.2048
 7319SOL     OW22855   4.498   0.775   3.219 -0.1828 -0.3327 -0.5091
 7319SOL    HW122856   4.539   0.684   3.212 -1.2433 -0.7411 -1.9862
 7319SOL    HW222857   4.566   0.844   3.197  0.2637 -0.8656 -0.8183
 7320SOL     OW22858   1.937   0.730   0.087  0.6961 -0.1644 -0.0403
 7320SOL    HW122859   1.860   0.792   0.072  0.9408 -0.3102 -2.0704
 7320SOL    HW222860   2.022   0.775   0.057  1.3008 -0.3972  1.2217
 7321SOL     OW22861   6.614   5.231   1.850 -0.1761 -0.3110  0.4006
 7321SOL    HW122862   6.578   5.175   1.925  0.5255 -0.8982  0.3187
 7321SOL    HW222863   6.684   5.179   1.800 -1.6308 -0.4724 -1.5801
 7322SOL     OW22864   3.603   2.612   1.030  0.4918  0.2737 -0.6403
 7322SOL    HW122865   3.544   2.541   0.994  2.1058 -0.3818 -2.1474
 7322SOL    HW222866   3.649   2.579   1.112  0.6838 -0.1761 -0.9236
 7323SOL     OW22867   3.576   1.406   1.888 -0.1243 -0.3747  0.2833
 7323SOL    HW122868   3.491   1.425   1.838  0.8844  0.2383 -1.2605
 7323SOL    HW222869   3.651   1.456   1.846  1.1226 -1.3502  1.2854
 7324SOL     OW22870   0.416   4.344   5.105  0.0727  0.9536 -0.3314
 7324SOL    HW122871   0.350   4.418   5.094  0.1963  1.1196  0.0122
 7324SOL    HW222872   0.507   4.383   5.121 -0.1387  0.7604  1.5950
 7325SOL     OW22873   1.584   2.180   5.093  0.1218  0.0399 -1.1535
 7325SOL    HW122874   1.518   2.111   5.124  0.9433  0.6252  2.2522
 7325SOL    HW222875   1.538   2.267   5.080 -0.2331 -0.2072 -1.5964
 7326SOL     OW22876   3.814   5.943   2.883  0.0268  0.5012 -0.2899
 7326SOL    HW122877   3.819   5.950   2.983  0.8970  0.4353 -0.3233
 7326SOL    HW222878   3.810   6.035   2.844 -0.9027  0.5182 -0.1758
 7327SOL     OW22879   5.646   1.148   3.474  0.3110 -0.0822  0.1238
 7327SOL    HW122880   5.603   1.229   3.516  2.4304  1.3962 -0.4295
 7327SOL    HW222881   5.736   1.134   3.514  1.4513 -0.0052 -2.2710
 7328SOL     OW22882   5.539   1.943   5.453  0.0255 -0.4028 -1.1851
 7328SOL    HW122883   5.552   1.854   5.495 -0.6566  0.4065  0.8350
 7328SOL    HW222884   5.441   1.960   5.439  0.1308  0.1416 -1.3096
 7329SOL     OW22885   5.430   1.289   1.595 -0.5003 -0.5135 -0.0752
 7329SOL    HW122886   5.454   1.203   1.549  0.5132 -0.2791  0.0050
 7329SOL    HW222887   5.501   1.357   1.578 -0.7160 -0.0492  0.8518
 7330SOL     OW22888   5.889   3.939   5.402 -0.4108  0.6863 -0.1021
 7330SOL    HW122889   5.905   3.915   5.498  0.0056 -0.8141 -0.5275
 7330SOL    HW222890   5.977   3.949   5.355 -0.5705  2.6654 -0.0644
 7331SOL     OW22891   0.623   5.785   2.513  0.2509 -0.3226  0.3907
 7331SOL    HW122892   0.635   5.797   2.415 -1.9035  1.1789  0.2285
 7331SOL    HW222893   0.618   5.688   2.534  0.9352 -0.6745 -0.9460
 7332SOL     OW22894   1.403   5.455   0.055  0.7639 -0.1029  0.4374
 7332SOL    HW122895   1.310   5.421   0.041  0.5382  0.2650  1.0143
 7332SOL    HW222896   1.457   5.385   0.102  0.3644  0.2166  1.4120
 7333SOL     OW22897   2.860   6.980   6.577  0.5513  0.5231  0.5666
 7333SOL    HW122898   2.919   6.991   6.497  1.2923  1.6372  1.2437
 7333SOL    HW222899   2.903   7.021   6.657 -0.7702  0.6218  1.2657
 7334SOL     OW22900   5.629   0.932   2.626 -0.1374 -0.1954 -0.3354
 7334SOL    HW122901   5.703   0.936   2.559  0.9033 -0.2017  0.7871
 7334SOL    HW222902   5.641   0.853   2.685 -0.9324 -0.0809 -0.0061
 7335SOL     OW22903   0.689   3.826   3.104  0.8540  0.8322  0.1347
 7335SOL    HW122904   0.731   3.821   3.013  1.1836  1.6218  0.2390
 7335SOL    HW222905   0.761   3.825   3.174  0.5628 -1.2362  0.4709
 7336SOL     OW22906   3.867   2.232   6.381  0.7216 -0.2480  0.3816
 7336SOL    HW122907   3.779   2.257   6.423  0.9246 -0.9997  1.2806
 7336SOL    HW222908   3.857   2.233   6.281  0.2763  1.7264  0.4039
 7337SOL     OW22909   0.371   5.333   0.275 -0.2291 -0.0690  0.4216
 7337SOL    HW122910   0.288   5.315   0.221 -0.0579 -2.0139  0.7219
 7337SOL    HW222911   0.445   5.362   0.214 -0.1211 -1.9393 -0.3975
 7338SOL     OW22912   2.958   1.795   1.595  0.2008 -0.0413  0.0713
 7338SOL    HW122913   3.026   1.857   1.634  2.0641 -3.2398  2.4256
 7338SOL    HW222914   2.988   1.768   1.503  0.2345  1.1865 -0.3025
 7339SOL     OW22915   0.216   0.974   6.124 -0.3692 -0.0666 -0.1776
 7339SOL    HW122916   0.151   1.048   6.139 -0.0554 -0.0572  1.2650
 7339SOL    HW222917   0.271   0.994   6.043 -0.8486  0.8650 -0.2794
 7340SOL     OW22918   6.788   2.537   5.623  0.0745 -0.4344  0.2239
 7340SOL    HW122919   6.843   2.565   5.544  0.1903 -1.3673 -0.0300
 7340SOL    HW222920   6.804   2.601   5.699  0.9858 -0.3066 -0.0657
 7341SOL     OW22921   5.602   6.270   6.038  0.1005  0.2220 -0.1150
 7341SOL    HW122922   5.684   6.213   6.038  0.4166  0.6742 -0.2267
 7341SOL    HW222923   5.521   6.211   6.043  0.4216 -0.2377 -0.2262
 7342SOL     OW22924   1.662   1.468   3.666 -0.5734 -0.3830  0.5317
 7342SOL    HW122925   1.649   1.371   3.647  1.1332 -0.5165 -0.1752
 7342SOL    HW222926   1.699   1.513   3.585 -0.5363  0.6846  1.1214
 7343SOL     OW22927   0.185   2.560   3.364 -0.0519 -0.1601 -0.2651
 7343SOL    HW122928   0.227   2.650   3.352 -0.2394  0.3531  2.3356
 7343SOL    HW222929   0.243   2.504   3.423 -2.0567 -0.0511  1.9608
 7344SOL     OW22930   4.180   1.465   0.760 -0.1274  0.5569 -0.0480
 7344SOL    HW122931   4.207   1.500   0.850 -0.9586  0.5425  0.2164
 7344SOL    HW222932   4.088   1.498   0.738 -0.2015  0.0022 -0.5942
 7345SOL     OW22933   3.395   6.444   1.491  0.6256 -0.0711  0.4377
 7345SOL    HW122934   3.454   6.450   1.572 -0.5088  2.0789  1.1640
 7345SOL    HW222935   3.312   6.393   1.514  0.6052 -0.0312  0.4530
 7346SOL     OW22936   4.051   4.281   5.954  0.0816  0.6460  0.2758
 7346SOL    HW122937   4.104   4.313   5.875  0.8476  1.3943  1.0669
 7346SOL    HW222938   4.012   4.191   5.934 -0.7122  1.3172 -1.3885
 7347SOL     OW22939   1.833   3.937   4.564  0.1388  0.2633  0.1343
 7347SOL    HW122940   1.744   3.901   4.592  1.3873 -1.4479  2.1799
 7347SOL    HW222941   1.844   3.924   4.465 -0.2012 -3.6857  0.4307
 7348SOL     OW22942   5.293   6.088   5.731 -0.4452  0.1372  0.2772
 7348SOL    HW122943   5.347   6.006   5.715  0.9489  0.9702  0.4905
 7348SOL    HW222944   5.311   6.155   5.659 -1.8349  0.1304 -0.0895
 7349SOL     OW22945   5.538   0.990   4.740 -0.1705  0.1033 -0.4359
 7349SOL    HW122946   5.463   1.044   4.778 -1.1897 -1.0679 -0.6859
 7349SOL    HW222947   5.613   0.985   4.805 -1.0313 -0.1239  0.5598
 7350SOL     OW22948   1.006   6.772   4.873 -0.0162 -0.1608  0.5852
 7350SOL    HW122949   1.081   6.832   4.899  0.3107  0.3930 -1.4606
 7350SOL    HW222950   1.022   6.681   4.910  1.3468  0.1016  0.6871
 7351SOL     OW22951   5.304   2.051   4.113 -0.4583 -0.6533  0.2120
 7351SOL    HW122952   5.403   2.061   4.125 -0.3737  0.6613 -1.1383
 7351SOL    HW222953   5.280   1.954   4.107  0.5512 -1.0285  1.8478
 7352SOL     OW22954   5.616   2.752   5.667 -0.5214  0.0122  0.5941
 7352SOL    HW122955   5.608   2.757   5.568 -0.5892  1.6774  0.6405
 7352SOL    HW222956   5.699   2.799   5.696 -1.4952  1.3268  1.4100
 7353SOL     OW22957   5.019   6.726   4.680  0.2595  0.1206 -0.5666
 7353SOL    HW122958   5.057   6.818   4.671  1.6454 -0.4988 -1.3234
 7353SOL    HW222959   4.960   6.706   4.602  0.4542  0.1432 -0.7195
 7354SOL     OW22960   5.405   2.369   3.477  0.1114  0.0500 -0.3294
 7354SOL    HW122961   5.314   2.408   3.487 -0.2959 -0.0476 -2.9640
 7354SOL    HW222962   5.438   2.339   3.566 -1.4863  2.0769  1.0371
 7355SOL     OW22963   4.800   4.588   6.683 -0.1333 -0.6572 -0.7162
 7355SOL    HW122964   4.843   4.567   6.595 -2.0139 -2.6169 -1.2550
 7355SOL    HW222965   4.868   4.586   6.755  1.1673 -0.6802 -1.9053
 7356SOL     OW22966   3.038   3.627   2.135 -0.0968  0.2054 -0.3739
 7356SOL    HW122967   2.964   3.560   2.122  0.4791 -1.1549  2.6232
 7356SOL    HW222968   3.114   3.583   2.182  1.2743  2.4568 -0.3889
 7357SOL     OW22969   5.199   6.463   4.026  0.8493 -0.3613  0.2906
 7357SOL    HW122970   5.169   6.407   4.103  2.1505 -0.1488  0.9779
 7357SOL    HW222971   5.138   6.449   3.948  0.1234 -1.3664  1.0285
 7358SOL     OW22972   0.380   0.346   2.311 -0.0608  0.3120 -0.0111
 7358SOL    HW122973   0.303   0.338   2.248  0.8352  0.0767 -1.1158
 7358SOL    HW222974   0.448   0.409   2.273  1.0657 -0.7848  0.0873
 7359SOL     OW22975   0.469   1.728   0.942 -0.1953  0.6536 -0.4472
 7359SOL    HW122976   0.444   1.715   0.846 -0.5951  0.2829 -0.2925
 7359SOL    HW222977   0.569   1.725   0.950 -0.1089  1.6252 -0.9836
 7360SOL     OW22978   1.897   6.013   6.147 -0.4649  0.9796 -0.0436
 7360SOL    HW122979   1.901   5.987   6.244  0.8283 -0.4046 -0.4365
 7360SOL    HW222980   1.808   5.987   6.110 -0.4994  0.3413  0.4603
 7361SOL     OW22981   3.579   0.895   5.951  0.1827  0.3237  0.0079
 7361SOL    HW122982   3.589   0.933   6.043 -2.2257 -0.5931  0.7278
 7361SOL    HW222983   3.526   0.959   5.894 -0.2416 -0.0818 -0.0566
 7362SOL     OW22984   1.410   6.087   1.376 -0.0603  0.6787 -0.8078
 7362SOL    HW122985   1.339   6.145   1.337 -0.2784 -0.3951 -2.0988
 7362SOL    HW222986   1.490   6.087   1.315 -0.4896 -1.2086 -1.4633
 7363SOL     OW22987   0.520   2.846   2.394  0.3996 -0.3129 -0.0093
 7363SOL    HW122988   0.441   2.896   2.430 -0.8499 -1.4492 -1.0740
 7363SOL    HW222989   0.567   2.902   2.325  0.2995  0.2068  0.3381
 7364SOL     OW22990   0.276   2.125   7.020  0.2902 -0.0657  0.0149
 7364SOL    HW122991   0.327   2.199   7.062  1.3437 -0.2578 -0.8590
 7364SOL    HW222992   0.200   2.099   7.078 -0.4919  2.1078  0.0521
 7365SOL     OW22993   2.589   1.017   6.242  0.2699  0.3212 -0.5975
 7365SOL    HW122994   2.620   1.112   6.244  2.0182 -0.2186  0.0792
 7365SOL    HW222995   2.565   0.991   6.149 -2.7194  2.1220 -0.4637
 7366SOL     OW22996   6.294   1.589   3.974 -0.2224 -0.2872 -0.0247
 7366SOL    HW122997   6.310   1.572   3.876 -0.2243 -0.1842 -0.0426
 7366SOL    HW222998   6.240   1.513   4.012 -1.3794  0.3149 -0.4009
 7367SOL     OW22999   4.735   1.867   4.722  0.2335 -0.2778 -0.5366
 7367SOL    HW123000   4.763   1.778   4.686 -0.8557 -0.4696 -0.9231
 7367SOL    HW223001   4.773   1.939   4.664  3.5160 -0.2925  1.3204
 7368SOL     OW23002   4.280   3.088   1.596  0.2996 -0.0938 -0.1508
 7368SOL    HW123003   4.237   3.136   1.672  0.6045  0.0976 -0.1001
 7368SOL    HW223004   4.274   2.989   1.611  1.9150 -0.0578  1.0019
 7369SOL     OW23005   1.278   2.309   2.654 -0.0552  0.6935 -0.0473
 7369SOL    HW123006   1.360   2.307   2.597 -1.2998  1.2755 -1.9653
 7369SOL    HW223007   1.223   2.389   2.630 -1.5281 -0.0767  0.6697
 7370SOL     OW23008   6.594   0.758   2.930 -0.6733  0.4520  0.3024
 7370SOL    HW123009   6.685   0.721   2.947  0.2708  1.1983 -2.5301
 7370SOL    HW223010   6.594   0.856   2.949 -1.2128  0.2649  1.3073
 7371SOL     OW23011   5.779   2.572   6.819  0.2691  0.3158 -0.0071
 7371SOL    HW123012   5.820   2.523   6.897  0.4431  1.6925  0.7915
 7371SOL    HW223013   5.843   2.642   6.787 -0.4611  0.8317 -0.3501
 7372SOL     OW23014   3.456   6.683   3.521  1.0244 -0.4163 -0.0511
 7372SOL    HW123015   3.363   6.715   3.502  0.8476 -0.3157  0.9057
 7372SOL    HW223016   3.457   6.583   3.528  0.0587 -0.3421  4.0397
 7373SOL     OW23017   3.691   3.070   0.293 -0.1198  1.3372  0.1709
 7373SOL    HW123018   3.716   3.136   0.222  1.4142  0.9727  0.3306
 7373SOL    HW223019   3.719   3.105   0.382  2.4518 -0.2632  0.0895
 7374SOL     OW23020   0.146   4.131   4.283  0.6322 -0.0537 -0.1216
 7374SOL    HW123021   0.206   4.211   4.293 -0.8350  1.0701  0.0114
 7374SOL    HW223022   0.172   4.061   4.350  2.6531 -0.1933 -0.9678
 7375SOL     OW23023   2.979   4.032   5.155 -0.1006 -0.0083 -0.0286
 7375SOL    HW123024   2.882   4.019   5.176 -0.1426 -0.7400 -0.6825
 7375SOL    HW223025   2.993   4.035   5.056  0.5517  0.0563  0.0576
 7376SOL     OW23026   1.110   3.899   0.914  0.8737  0.0642 -0.2758
 7376SOL    HW123027   1.194   3.865   0.957  1.2844  0.8001 -0.4811
 7376SOL    HW223028   1.061   3.823   0.871  0.4447 -0.7102  1.4751
 7377SOL     OW23029   0.145   0.703   4.314 -0.2009 -0.2563  0.2308
 7377SOL    HW123030   0.138   0.700   4.214  0.8667 -1.3203  0.1680
 7377SOL    HW223031   0.143   0.610   4.350  0.1597  0.0802  1.1451
 7378SOL     OW23032   5.308   6.740   3.765  0.1479  0.2819 -0.3061
 7378SOL    HW123033   5.321   6.795   3.848 -1.6513 -1.6872  1.3923
 7378SOL    HW223034   5.393   6.693   3.742  0.8477  1.3632 -0.0148
 7379SOL     OW23035   3.785   1.099   3.807 -0.0764 -0.1167 -0.8863
 7379SOL    HW123036   3.772   1.038   3.729  0.1935 -0.7218 -0.4650
 7379SOL    HW223037   3.772   1.194   3.778  1.7290 -0.1801 -2.0821
 7380SOL     OW23038   6.959   4.352   6.364 -0.5356 -0.1680  0.0526
 7380SOL    HW123039   6.870   4.397   6.369  0.3785  1.6975  0.4625
 7380SOL    HW223040   7.010   4.370   6.448  0.1778 -1.3532 -0.1092
 7381SOL     OW23041   2.079   1.682   3.334 -0.1322  0.0106  0.2277
 7381SOL    HW123042   2.115   1.604   3.283  1.4618  0.2568  0.9160
 7381SOL    HW223043   2.058   1.756   3.270  2.0539  0.3986 -0.1291
 7382SOL     OW23044   5.327   6.618   0.944 -0.1160 -0.5786 -0.2011
 7382SOL    HW123045   5.384   6.681   0.891 -1.6817  0.7306 -0.3908
 7382SOL    HW223046   5.344   6.633   1.042 -1.1479  0.8239 -0.2170
 7383SOL     OW23047   6.865   0.235   3.422  0.0284 -0.5478 -0.4548
 7383SOL    HW123048   6.866   0.326   3.464  1.1316 -0.1797 -1.2406
 7383SOL    HW223049   6.886   0.167   3.492 -1.2108 -0.2631  0.2314
 7384SOL     OW23050   0.010   2.357   3.337  1.0146 -0.8649  0.1997
 7384SOL    HW123051   0.060   2.443   3.353 -1.9016  0.9172  0.4312
 7384SOL    HW223052   0.006   2.305   3.422 -0.6356  0.8039  1.2123
 7385SOL     OW23053   1.703   4.502   1.746 -0.0758 -0.3973  0.0341
 7385SOL    HW123054   1.731   4.429   1.808 -0.6237 -0.1717  0.5648
 7385SOL    HW223055   1.768   4.577   1.751  0.5733 -0.9069 -0.6297
 7386SOL     OW23056   2.100   6.682   4.977 -0.4292 -0.0608  0.2929
 7386SOL    HW123057   2.035   6.745   4.934 -0.2778 -0.3558 -0.3816
 7386SOL    HW223058   2.073   6.666   5.072 -2.3807 -1.5460 -0.4437
 7387SOL     OW23059   4.871   3.452   6.023  0.5854 -0.6800  0.1845
 7387SOL    HW123060   4.885   3.539   5.977  0.0160 -1.2875 -1.1830
 7387SOL    HW223061   4.869   3.466   6.122 -2.5186  1.3092 -0.0522
 7388SOL     OW23062   1.342   0.380   4.780  0.3430  0.0868 -0.3437
 7388SOL    HW123063   1.281   0.335   4.714  1.9509 -0.6467 -1.3952
 7388SOL    HW223064   1.434   0.384   4.742  1.2390  0.0394  1.7166
 7389SOL     OW23065   6.361   0.656   0.551 -0.1486  0.1478 -0.2642
 7389SOL    HW123066   6.438   0.680   0.611 -2.4047  1.0426  2.5662
 7389SOL    HW223067   6.291   0.728   0.558 -2.3859 -1.8746 -0.4882
 7390SOL     OW23068   4.763   2.364   2.280 -0.0772  0.0976 -0.2317
 7390SOL    HW123069   4.750   2.350   2.182 -0.1343 -1.1012 -0.0668
 7390SOL    HW223070   4.849   2.321   2.309  0.1196  0.7500  0.1850
 7391SOL     OW23071   6.907   2.714   1.570  0.2159 -0.0850 -0.2657
 7391SOL    HW123072   6.969   2.790   1.554  0.7462 -0.8619 -2.0639
 7391SOL    HW223073   6.905   2.653   1.491 -1.0672 -1.3526  0.6603
 7392SOL     OW23074   0.636   0.079   3.891 -0.5950 -0.1183 -0.1278
 7392SOL    HW123075   0.636   0.168   3.845  0.6296 -0.4324 -0.7708
 7392SOL    HW223076   0.561   0.023   3.857 -0.9626  0.4182 -0.2052
 7393SOL     OW23077   5.064   2.096   1.765 -0.3324  0.5024 -0.2380
 7393SOL    HW123078   5.043   2.187   1.801 -1.8478  0.0015  0.2108
 7393SOL    HW223079   5.137   2.055   1.820 -0.6525  0.8674  0.4755
 7394SOL     OW23080   1.901   6.036   6.804 -0.5342  0.2978 -0.2289
 7394SOL    HW123081   1.860   5.981   6.876  0.7350 -0.3110  0.0632
 7394SOL    HW223082   1.852   6.021   6.718 -1.1981 -0.0290  0.1992
 7395SOL     OW23083   2.769   3.960   0.654  0.2844 -0.4886  0.8368
 7395SOL    HW123084   2.818   3.889   0.704  0.8452 -0.3512  0.4916
 7395SOL    HW223085   2.765   3.936   0.557  2.5814  1.0343  0.2740
 7396SOL     OW23086   6.200   2.730   4.969  0.3051 -0.3356 -0.8085
 7396SOL    HW123087   6.213   2.760   5.064  0.0248  0.1527 -0.9224
 7396SOL    HW223088   6.285   2.742   4.918 -0.3037  2.1446 -1.3604
 7397SOL     OW23089   0.243   0.979   1.776  0.0325 -0.2126  0.2240
 7397SOL    HW123090   0.295   0.895   1.759 -0.5846 -0.7252  0.7823
 7397SOL    HW223091   0.302   1.058   1.765  0.9256 -0.7790  0.7937
 7398SOL     OW23092   6.608   3.259   5.080 -0.3757  0.0754 -0.2973
 7398SOL    HW123093   6.636   3.165   5.101 -1.1002  0.1232  0.9653
 7398SOL    HW223094   6.518   3.257   5.036 -0.3226  0.1765 -0.4112
 7399SOL     OW23095   2.608   6.835   0.440  0.0730  0.3929 -0.3524
 7399SOL    HW123096   2.570   6.899   0.507  1.0579 -0.2071  0.8167
 7399SOL    HW223097   2.583   6.864   0.348 -3.0060  0.1454  0.3121
 7400SOL     OW23098   1.615   2.429   6.230 -0.1432  0.2040 -0.8823
 7400SOL    HW123099   1.713   2.443   6.224 -0.2895  0.8869 -1.8649
 7400SOL    HW223100   1.595   2.331   6.230  0.4768  0.0709 -1.7361
 7401SOL     OW23101   6.620   5.891   5.065  0.2036  0.4196 -0.0414
 7401SOL    HW123102   6.676   5.972   5.083  1.5491 -0.3355 -0.6539
 7401SOL    HW223103   6.587   5.854   5.151  2.2971 -0.2265  0.5387
 7402SOL     OW23104   1.080   4.585   3.681  0.3037  1.0237 -0.1462
 7402SOL    HW123105   0.996   4.579   3.735 -0.0494 -0.7509 -0.8179
 7402SOL    HW223106   1.071   4.659   3.614 -0.8831  0.6503 -0.4323
 7403SOL     OW23107   6.710   6.224   1.290 -0.2882 -0.4043  0.6074
 7403SOL    HW123108   6.727   6.144   1.234 -0.5681  1.2415 -1.9951
 7403SOL    HW223109   6.779   6.230   1.362 -0.8018 -3.3820  1.4993
 7404SOL     OW23110   0.829   4.269   5.132 -0.4808  0.7123  1.2672
 7404SOL    HW123111   0.887   4.254   5.212  2.1545  3.4138  0.0652
 7404SOL    HW223112   0.789   4.361   5.137 -1.2733  0.4596  0.0262
 7405SOL     OW23113   2.368   1.905   2.252  0.0095  0.4165  0.6719
 7405SOL    HW123114   2.426   1.976   2.291 -0.2996  1.0119  0.0754
 7405SOL    HW223115   2.331   1.937   2.165  1.2628 -1.1433 -0.4842
 7406SOL     OW23116   6.996   4.852   6.547 -0.1510 -0.3577 -0.9014
 7406SOL    HW123117   7.015   4.903   6.631 -0.5391 -1.0449 -0.3784
 7406SOL    HW223118   7.082   4.818   6.508 -0.0697 -4.6144  2.1708
 7407SOL     OW23119   3.948   0.342   2.614  0.0460 -0.1084 -0.1380
 7407SOL    HW123120   4.028   0.371   2.667  1.8097 -2.5651 -1.2726
 7407SOL    HW223121   3.880   0.302   2.676  1.5971 -1.9280  0.4616
 7408SOL     OW23122   3.066   6.180   5.101  0.1908 -0.0134 -0.5864
 7408SOL    HW123123   3.162   6.177   5.073  1.2753 -0.9350  2.8016
 7408SOL    HW223124   3.050   6.112   5.172 -2.2700  2.0671  1.0227
 7409SOL     OW23125   2.220   0.386   3.509  0.2229  0.5639 -0.0834
 7409SOL    HW123126   2.182   0.470   3.468 -1.9785 -0.3149  0.0180
 7409SOL    HW223127   2.289   0.347   3.448 -2.1388 -0.0936 -2.5079
 7410SOL     OW23128   6.720   1.112   5.718 -0.0958  0.4423  0.4828
 7410SOL    HW123129   6.693   1.016   5.709 -1.4710  0.9934 -2.6155
 7410SOL    HW223130   6.662   1.157   5.786 -1.7611 -0.1860 -0.4802
 7411SOL     OW23131   3.616   0.716   6.412  0.1522 -0.4223  0.2232
 7411SOL    HW123132   3.565   0.675   6.488  0.9004  1.9829  2.1522
 7411SOL    HW223133   3.581   0.808   6.393  0.9148 -0.4329 -1.4230
 7412SOL     OW23134   2.485   2.027   1.187  0.2750  0.4396  0.1483
 7412SOL    HW123135   2.440   2.020   1.276 -0.4788 -0.8078 -0.3021
 7412SOL    HW223136   2.584   2.033   1.200  0.1099  1.5865  1.0956
 7413SOL     OW23137   5.713   0.252   0.517  0.3386 -0.0011 -0.1438
 7413SOL    HW123138   5.781   0.212   0.456  0.9352  0.0976  0.4495
 7413SOL    HW223139   5.694   0.346   0.488  2.0290  0.7132  0.9079
 7414SOL     OW23140   5.857   0.644   6.795  0.3029 -0.5586 -0.6303
 7414SOL    HW123141   5.820   0.734   6.774 -0.3998 -0.9708 -1.2028
 7414SOL    HW223142   5.801   0.600   6.865  1.3637 -0.0767  0.5841
 7415SOL     OW23143   6.855   1.091   5.134  0.3379 -0.6899  0.0676
 7415SOL    HW123144   6.873   0.995   5.111  0.2088 -0.4536 -1.0823
 7415SOL    HW223145   6.912   1.118   5.211  0.6858 -1.5669  0.1321
 7416SOL     OW23146   1.788   3.671   5.436  0.7043  0.1376 -0.2246
 7416SOL    HW123147   1.727   3.703   5.363  0.9158  1.4295  0.1296
 7416SOL    HW223148   1.853   3.744   5.458  2.5109 -1.2677 -0.7069
 7417SOL     OW23149   4.517   2.830   1.751  0.0796  0.1603  0.5350
 7417SOL    HW123150   4.553   2.921   1.771 -0.1540 -0.0750  2.1512
 7417SOL    HW223151   4.550   2.765   1.819  0.1284 -0.9519 -0.5200
 7418SOL     OW23152   2.450   4.833   7.003 -0.0713 -0.0625  0.2716
 7418SOL    HW123153   2.512   4.909   6.985 -0.0118 -0.0356  0.5817
 7418SOL    HW223154   2.364   4.867   7.042 -0.2802 -0.1014 -0.1466
 7419SOL     OW23155   2.063   2.327   3.701  0.5279 -1.1404  0.5871
 7419SOL    HW123156   2.031   2.276   3.621  1.3730 -0.8198  0.0350
 7419SOL    HW223157   2.009   2.411   3.711 -0.5300 -1.8720  1.2046
 7420SOL     OW23158   0.951   6.531   0.686  0.0046 -0.1038 -0.5118
 7420SOL    HW123159   0.945   6.450   0.742  2.6372  1.7859  2.8946
 7420SOL    HW223160   1.025   6.520   0.619  0.5111 -0.4554  0.0962
 7421SOL     OW23161   0.222   4.315   6.834 -0.3638 -0.0796  0.2252
 7421SOL    HW123162   0.288   4.273   6.897 -1.4035 -1.3488  0.4993
 7421SOL    HW223163   0.147   4.356   6.886  0.1970  1.4148 -0.0855
 7422SOL     OW23164   1.435   1.611   3.786 -0.2101 -0.1720 -0.0161
 7422SOL    HW123165   1.427   1.594   3.884  0.1802  1.4702  0.3315
 7422SOL    HW223166   1.531   1.608   3.759  0.2673  3.7607  0.6171
 7423SOL     OW23167   5.017   4.282   6.399 -0.3496 -0.2661  0.3224
 7423SOL    HW123168   4.945   4.232   6.351 -0.5588  0.7362 -0.4314
 7423SOL    HW223169   4.998   4.380   6.397  0.3214 -0.0910  1.3348
 7424SOL     OW23170   5.244   4.640   5.629  0.4022  0.2527  0.2665
 7424SOL    HW123171   5.335   4.662   5.596  0.1428  0.8538 -0.0682
 7424SOL    HW223172   5.250   4.568   5.698  1.1641  0.5847  0.5570
 7425SOL     OW23173   5.286   5.168   0.457 -0.1698  0.4235  0.1953
 7425SOL    HW123174   5.341   5.177   0.540 -0.6888  0.1915  0.5728
 7425SOL    HW223175   5.336   5.206   0.380  0.3774  0.5230  0.5895
 7426SOL     OW23176   1.594   0.577   1.203  0.5605 -0.5311 -0.1268
 7426SOL    HW123177   1.544   0.645   1.256  0.9181 -0.2985 -0.0824
 7426SOL    HW223178   1.592   0.602   1.106 -0.4293 -1.1659 -0.2874
 7427SOL     OW23179   0.290   4.693   5.748 -0.2014  0.3677  0.7070
 7427SOL    HW123180   0.385   4.714   5.772 -0.3104 -0.0850  1.5410
 7427SOL    HW223181   0.281   4.594   5.731  0.4721  0.8555 -3.8849
 7428SOL     OW23182   2.201   4.116   0.285  0.3700  0.1177 -0.7297
 7428SOL    HW123183   2.146   4.033   0.289  1.1283 -0.3445  1.0989
 7428SOL    HW223184   2.284   4.104   0.339 -0.2703  2.6338  0.9865
 7429SOL     OW23185   2.612   4.341   5.414  0.2739 -0.2282  0.1790
 7429SOL    HW123186   2.546   4.267   5.405  0.3863 -0.1664 -1.6159
 7429SOL    HW223187   2.582   4.420   5.360  0.6232  0.7052  1.3060
 7430SOL     OW23188   4.011   0.988   3.912 -0.1609  0.3294 -0.4647
 7430SOL    HW123189   3.917   1.007   3.887 -0.0168 -0.2097 -1.4739
 7430SOL    HW223190   4.067   1.070   3.899 -0.0898  0.0749 -2.0089
 7431SOL     OW23191   2.100   6.359   4.692  0.1471  0.1313 -0.1149
 7431SOL    HW123192   2.071   6.300   4.767  0.0662 -2.6843 -2.2416
 7431SOL    HW223193   2.026   6.370   4.627  1.3606 -0.6520 -1.6868
 7432SOL     OW23194   3.346   3.985   0.627  0.0821  0.0770  0.4019
 7432SOL    HW123195   3.297   4.052   0.571 -0.7766 -0.0943  0.9302
 7432SOL    HW223196   3.295   3.968   0.711  0.3484 -1.1669  0.3296
 7433SOL     OW23197   0.733   5.588   1.290  0.3836 -0.5348  0.1746
 7433SOL    HW123198   0.735   5.511   1.225 -0.7062  0.1787 -0.7424
 7433SOL    HW223199   0.698   5.669   1.244  1.3449  0.4773  1.1866
 7434SOL     OW23200   3.600   4.657   5.387 -0.2892  0.3805  0.8104
 7434SOL    HW123201   3.683   4.713   5.379 -0.2040 -0.0061 -2.1141
 7434SOL    HW223202   3.626   4.561   5.402 -0.2842  0.5129  1.6700
 7435SOL     OW23203   6.695   7.004   2.852  0.2925 -1.3951 -0.8451
 7435SOL    HW123204   6.650   7.085   2.889 -0.4680 -0.6592 -3.1693
 7435SOL    HW223205   6.778   7.033   2.802  0.4714 -2.1454 -0.9903
 7436SOL     OW23206   2.376   0.607   1.139  0.1540  0.0466  0.1337
 7436SOL    HW123207   2.306   0.549   1.181 -1.4101  1.6163 -0.1693
 7436SOL    HW223208   2.398   0.573   1.048 -0.3187 -0.4129  0.1860
 7437SOL     OW23209   4.046   3.017   0.239  0.0316 -0.2222 -0.2233
 7437SOL    HW123210   4.031   3.046   0.333  0.6276 -1.0523  0.1310
 7437SOL    HW223211   3.985   3.069   0.178  0.5501  1.2534  0.4632
 7438SOL     OW23212   5.404   4.482   4.665 -0.0065  0.1524  0.5108
 7438SOL    HW123213   5.431   4.563   4.612 -0.2886  0.1564  0.3695
 7438SOL    HW223214   5.350   4.421   4.607  1.1438 -0.6794  0.2783
 7439SOL     OW23215   6.304   3.226   5.812 -0.4051 -0.0070 -0.4117
 7439SOL    HW123216   6.341   3.288   5.742  1.3435 -0.7858 -0.2330
 7439SOL    HW223217   6.379   3.194   5.871 -1.4350 -1.4272  0.1762
 7440SOL     OW23218   6.874   5.765   4.322  0.7855  0.2042 -0.2817
 7440SOL    HW123219   6.879   5.840   4.257  1.9169 -0.5143 -1.0647
 7440SOL    HW223220   6.883   5.801   4.415  0.5677  1.0988 -0.5963
 7441SOL     OW23221   6.695   6.507   6.551  0.0174  0.1089 -0.3969
 7441SOL    HW123222   6.655   6.416   6.540  0.3528 -0.1397  0.3860
 7441SOL    HW223223   6.792   6.499   6.574 -0.2008  0.6212  0.7822
 7442SOL     OW23224   1.682   0.978   1.357  0.4092  0.2410 -0.7063
 7442SOL    HW123225   1.615   0.905   1.343  2.2328 -1.8687  0.9417
 7442SOL    HW223226   1.748   0.978   1.282 -0.3561  1.1362 -1.4017
 7443SOL     OW23227   4.615   1.917   0.554  0.2945  0.7710  0.1237
 7443SOL    HW123228   4.665   1.895   0.638  1.5200  1.3947 -0.4201
 7443SOL    HW223229   4.677   1.960   0.489 -1.1258  2.2614 -0.3135
 7444SOL     OW23230   4.958   1.777   2.002 -0.1107 -0.3463  0.3799
 7444SOL    HW123231   5.022   1.733   2.065  0.0292  0.2903  0.6906
 7444SOL    HW223232   4.987   1.871   1.986 -1.5332  0.3021  1.3677
 7445SOL     OW23233   0.270   6.165   0.521  0.6006 -0.2114 -0.6189
 7445SOL    HW123234   0.355   6.214   0.501  0.0113  0.1918 -2.2781
 7445SOL    HW223235   0.277   6.071   0.487  0.1257  0.0481 -1.4677
 7446SOL     OW23236   6.786   1.352   2.809 -0.3681 -0.4644  0.1289
 7446SOL    HW123237   6.879   1.335   2.777  0.0204 -0.4726  1.2300
 7446SOL    HW223238   6.779   1.445   2.846 -0.8929 -0.3471 -0.2392
 7447SOL     OW23239   6.506   6.639   6.856  0.3837 -0.3451  0.4981
 7447SOL    HW123240   6.594   6.686   6.857 -0.8364  2.1841 -1.2796
 7447SOL    HW223241   6.517   6.549   6.898  3.9723 -0.4740 -0.3502
 7448SOL     OW23242   5.014   4.902   6.415  0.7524  0.1049  0.0335
 7448SOL    HW123243   5.109   4.870   6.419  0.1900 -1.8773 -1.1161
 7448SOL    HW223244   4.972   4.892   6.506  1.3367 -0.0421  0.2935
 7449SOL     OW23245   3.550   3.279   4.111  0.0783 -0.1761 -0.6515
 7449SOL    HW123246   3.552   3.264   4.012  0.9569 -1.3773 -0.4902
 7449SOL    HW223247   3.527   3.193   4.156  0.5802  0.1363  0.2144
 7450SOL     OW23248   3.927   0.742   0.834  0.0937  0.5054 -0.5265
 7450SOL    HW123249   3.868   0.810   0.789 -0.2934  1.3066  1.1356
 7450SOL    HW223250   4.008   0.787   0.870  0.1665 -0.0313 -0.0084
 7451SOL     OW23251   2.181   0.293   0.936  0.0094  0.8162 -0.1524
 7451SOL    HW123252   2.259   0.237   0.907 -0.6787  0.5455 -1.5445
 7451SOL    HW223253   2.167   0.281   1.035  1.2209  0.2576 -0.0200
 7452SOL     OW23254   0.734   5.953   4.436  0.1559  0.2398 -0.0906
 7452SOL    HW123255   0.744   5.854   4.439 -1.7925 -0.1332 -2.3484
 7452SOL    HW223256   0.641   5.978   4.462 -0.0465  1.2202 -1.5721
 7453SOL     OW23257   4.613   6.694   2.745 -0.4050 -0.3171  0.0912
 7453SOL    HW123258   4.625   6.618   2.809 -1.2197 -1.7685 -1.4081
 7453SOL    HW223259   4.703   6.730   2.720 -0.0221 -0.5404  1.0690
 7454SOL     OW23260   1.561   0.724   6.883 -0.4067  0.1281 -0.4432
 7454SOL    HW123261   1.617   0.642   6.888 -1.5287 -0.5818  1.6642
 7454SOL    HW223262   1.614   0.803   6.916 -0.8992 -0.7346  2.6463
 7455SOL     OW23263   2.920   0.379   0.974  0.3028  0.5445  0.0497
 7455SOL    HW123264   2.856   0.367   1.050 -0.3543  0.4500 -0.5062
 7455SOL    HW223265   3.005   0.330   0.994 -0.6240 -1.2423 -0.1622
 7456SOL     OW23266   7.018   3.145   4.947  0.0650 -0.7906 -0.2992
 7456SOL    HW123267   7.072   3.061   4.939  0.5455 -0.5812  0.5915
 7456SOL    HW223268   7.073   3.216   4.991 -0.5101 -0.1706 -0.5656
 7457SOL     OW23269   2.295   4.546   0.788  0.1184 -0.4524 -0.2687
 7457SOL    HW123270   2.294   4.471   0.722 -1.5081  0.6273 -1.5627
 7457SOL    HW223271   2.265   4.512   0.877 -1.8074 -1.1539 -1.1292
 7458SOL     OW23272   1.581   1.488   5.464  0.0070 -0.0101  0.1251
 7458SOL    HW123273   1.562   1.543   5.545  2.2981  0.3091  0.5196
 7458SOL    HW223274   1.618   1.546   5.392 -1.6139 -0.3636 -1.0541
 7459SOL     OW23275   5.559   2.087   1.103 -0.1849 -0.4921 -0.0526
 7459SOL    HW123276   5.651   2.097   1.066 -0.0822 -0.5509  0.1811
 7459SOL    HW223277   5.513   2.010   1.059  0.0632 -0.7829  0.1926
 7460SOL     OW23278   4.940   0.473   3.319 -0.3258  0.5417  0.0749
 7460SOL    HW123279   4.911   0.561   3.282 -2.3791 -0.8085 -1.7807
 7460SOL    HW223280   4.930   0.402   3.249  0.8795 -1.2637  1.6236
 7461SOL     OW23281   4.893   2.575   3.184  0.2458 -0.2162  0.5016
 7461SOL    HW123282   4.888   2.527   3.096 -4.1905 -1.4896  1.1726
 7461SOL    HW223283   4.883   2.673   3.169  0.3708 -0.3415 -0.4805
 7462SOL     OW23284   2.107   3.284   4.916  0.2518  0.1795 -0.1281
 7462SOL    HW123285   2.094   3.320   5.009  0.8066  2.1509 -0.7634
 7462SOL    HW223286   2.025   3.303   4.862  1.0118  1.6763 -0.8080
 7463SOL     OW23287   5.771   2.829   2.629  0.6144 -0.4543 -0.2422
 7463SOL    HW123288   5.860   2.856   2.593  1.4115 -1.9114  0.5562
 7463SOL    HW223289   5.705   2.904   2.615  1.5852  0.1179 -2.1023
 7464SOL     OW23290   5.250   0.012   4.865  0.0828 -0.0477 -0.1286
 7464SOL    HW123291   5.203  -0.026   4.785 -0.5523 -1.3724  0.8453
 7464SOL    HW223292   5.188   0.011   4.943  1.6398 -1.7243  1.1697
 7465SOL     OW23293   6.320   3.265   1.112  0.4339  0.4447  0.2197
 7465SOL    HW123294   6.307   3.326   1.034  0.8327 -0.7900 -0.8368
 7465SOL    HW223295   6.347   3.174   1.080  2.3150  0.3535  1.8570
 7466SOL     OW23296   3.405   0.485   3.507  0.1776  0.2015 -0.3959
 7466SOL    HW123297   3.415   0.519   3.601 -0.9672 -1.9463  0.5528
 7466SOL    HW223298   3.494   0.457   3.472  0.5782  0.8173  0.1101
 7467SOL     OW23299   0.218   1.574   4.241 -0.0366  0.6003 -0.3580
 7467SOL    HW123300   0.248   1.484   4.210 -0.1418  0.4726 -0.0962
 7467SOL    HW223301   0.120   1.584   4.225  0.0579  0.8448 -0.8039
 7468SOL     OW23302   5.940   3.637   5.318  0.1339  0.0772  0.0697
 7468SOL    HW123303   5.854   3.586   5.319 -0.2931  0.7895 -0.1230
 7468SOL    HW223304   5.958   3.670   5.226  1.2005 -1.0372 -0.1438
 7469SOL     OW23305   3.302   1.081   3.828 -0.2237 -0.2169  0.2080
 7469SOL    HW123306   3.393   1.085   3.871 -0.3960  1.5233  0.4584
 7469SOL    HW223307   3.263   0.990   3.843  1.5275 -1.0622 -0.0404
 7470SOL     OW23308   0.508   0.200   6.247  0.3351 -0.0729  0.4587
 7470SOL    HW123309   0.509   0.300   6.249  2.2983 -0.0607  0.7309
 7470SOL    HW223310   0.586   0.164   6.299 -2.1348 -1.8683  3.1833
 7471SOL     OW23311   2.983   5.849   5.961 -0.2909  0.3319 -0.1816
 7471SOL    HW123312   2.976   5.853   6.060 -0.0675 -1.1327 -0.0833
 7471SOL    HW223313   2.893   5.864   5.920 -1.2250 -2.7971  0.4383
 7472SOL     OW23314   3.040   2.030   3.567  0.1762  0.4185 -0.0921
 7472SOL    HW123315   3.036   1.934   3.538  1.0240  0.6125 -0.8807
 7472SOL    HW223316   3.031   2.034   3.666 -2.5333 -0.2815 -0.2111
 7473SOL     OW23317   2.380   6.145   1.441 -0.2543 -0.5397 -0.3477
 7473SOL    HW123318   2.464   6.098   1.413 -0.5857 -1.3110 -0.0743
 7473SOL    HW223319   2.310   6.133   1.370  0.2949  1.3714 -1.2951
 7474SOL     OW23320   5.000   3.686   5.835 -0.3878  0.1172  0.0053
 7474SOL    HW123321   5.029   3.662   5.742  0.0608  1.4931 -0.2403
 7474SOL    HW223322   5.080   3.715   5.888 -0.8130  0.5136  0.4377
 7475SOL     OW23323   5.377   0.502   2.285  0.4630  0.9366 -0.5013
 7475SOL    HW123324   5.428   0.588   2.278 -0.8141  1.7365 -0.4502
 7475SOL    HW223325   5.309   0.498   2.211  2.4337 -1.4260 -2.3499
 7476SOL     OW23326   5.732   3.255   6.444 -0.3416  0.4671  0.1854
 7476SOL    HW123327   5.671   3.178   6.424  0.0527  0.4176 -0.8881
 7476SOL    HW223328   5.758   3.299   6.358  1.8766 -0.0781  0.5261
 7477SOL     OW23329   6.521   6.116   0.518 -0.3179  0.4012  0.1200
 7477SOL    HW123330   6.568   6.174   0.451  2.5618 -0.8381  0.8994
 7477SOL    HW223331   6.562   6.025   0.518 -1.0679 -0.0137  2.6727
 7478SOL     OW23332   4.273   5.795   6.411  0.0295  0.5954  0.8806
 7478SOL    HW123333   4.297   5.810   6.507  0.5881 -0.1061  0.8632
 7478SOL    HW223334   4.183   5.834   6.392  0.0053  0.9199  1.6371
 7479SOL     OW23335   0.488   5.521   1.115  0.8698 -0.2261  0.8002
 7479SOL    HW123336   0.536   5.490   1.033 -0.7915  1.0577 -0.7414
 7479SOL    HW223337   0.450   5.442   1.163 -1.8981 -0.9314 -2.1359
 7480SOL     OW23338   5.928   0.006   6.006 -0.2419 -0.0458  0.0336
 7480SOL    HW123339   5.877   0.092   5.997 -2.4799 -1.2119  0.6103
 7480SOL    HW223340   5.888  -0.062   5.946  2.3172 -0.4059 -1.3755
 7481SOL     OW23341   6.261   6.541   0.901 -0.3882  0.8334  0.1245
 7481SOL    HW123342   6.334   6.590   0.950 -0.3829 -0.4124  1.4468
 7481SOL    HW223343   6.197   6.503   0.967 -1.5726  0.8659 -0.9779
 7482SOL     OW23344   2.518   6.113   6.924 -0.2860  0.3579  0.2412
 7482SOL    HW123345   2.459   6.127   7.004  0.0281  1.2996  0.3190
 7482SOL    HW223346   2.533   6.015   6.910 -0.8808  0.1598  0.9384
 7483SOL     OW23347   5.559   0.885   3.758  0.5983 -0.2937 -0.2688
 7483SOL    HW123348   5.649   0.927   3.771  0.2920  0.3477 -0.1684
 7483SOL    HW223349   5.556   0.798   3.807  1.3290 -0.5603 -0.6824
 7484SOL     OW23350   2.085   5.287   0.231  0.0691 -0.2082 -0.0940
 7484SOL    HW123351   2.124   5.322   0.316 -1.5034 -1.2048  1.1035
 7484SOL    HW223352   2.136   5.206   0.201 -0.2043 -0.6795  0.6840
 7485SOL     OW23353   0.795   3.315   4.351 -0.1467  0.0418 -0.0445
 7485SOL    HW123354   0.852   3.382   4.303 -1.0353  1.2402  0.5161
 7485SOL    HW223355   0.819   3.313   4.448 -2.0009  1.7073  0.5272
 7486SOL     OW23356   4.647   5.188   6.161  0.7473  0.3694  0.3419
 7486SOL    HW123357   4.686   5.160   6.074  0.9029 -0.0014  0.5255
 7486SOL    HW223358   4.614   5.282   6.155  0.6668  0.3098 -0.1417
 7487SOL     OW23359   2.745   0.118   5.747  0.1504  0.2463 -0.3280
 7487SOL    HW123360   2.826   0.177   5.746  0.0623  0.3724 -1.2363
 7487SOL    HW223361   2.736   0.073   5.658 -0.8803  0.3839 -0.3039
 7488SOL     OW23362   7.019   1.763   5.347 -0.1929 -0.8703 -0.7701
 7488SOL    HW123363   6.982   1.844   5.302  1.3452  0.5675  0.3906
 7488SOL    HW223364   7.119   1.766   5.343  0.0529 -0.6541  2.5569
 7489SOL     OW23365   6.966   5.179   2.235  0.0875  0.4244 -0.1772
 7489SOL    HW123366   6.995   5.265   2.194  0.4662  0.8239  0.8835
 7489SOL    HW223367   6.866   5.175   2.237 -0.0782 -1.0507 -4.0367
 7490SOL     OW23368   2.454   2.537   2.593  0.2713 -0.1571  0.4642
 7490SOL    HW123369   2.356   2.547   2.574  0.2583  0.0510  0.6380
 7490SOL    HW223370   2.496   2.628   2.600  0.9142 -0.2049 -1.8203
 7491SOL     OW23371   5.577   1.974   0.592  0.0334  0.5253  0.2369
 7491SOL    HW123372   5.555   1.995   0.497  0.2353  0.1037  0.0962
 7491SOL    HW223373   5.654   2.032   0.622  0.5009  0.0905 -0.1093
 7492SOL     OW23374   4.809   1.737   1.580  0.5204  0.2030 -0.0933
 7492SOL    HW123375   4.726   1.790   1.597 -1.4873 -1.8412 -2.6294
 7492SOL    HW223376   4.823   1.672   1.655 -1.0098 -0.3456 -0.2345
 7493SOL     OW23377   1.047   5.037   3.569  0.4475  0.2172 -0.0087
 7493SOL    HW123378   1.117   5.096   3.530  1.6404  0.6521  2.5375
 7493SOL    HW223379   1.079   5.001   3.657 -2.1336 -0.3914  0.7792
 7494SOL     OW23380   4.115   5.509   1.689  0.5591 -0.0060  0.5972
 7494SOL    HW123381   4.160   5.449   1.623  3.0752  1.7821  0.5062
 7494SOL    HW223382   4.112   5.464   1.778  1.8648 -0.5249  0.4004
 7495SOL     OW23383   5.113   5.350   5.850 -0.0301  0.1221  0.0019
 7495SOL    HW123384   5.104   5.273   5.787  1.6539  0.9651 -1.3458
 7495SOL    HW223385   5.181   5.328   5.920  0.3455  0.3384 -0.2969
 7496SOL     OW23386   0.006   2.762   5.101  0.2062  0.7635  0.3910
 7496SOL    HW123387  -0.090   2.768   5.128 -0.2707  0.2585 -1.0768
 7496SOL    HW223388   0.041   2.671   5.123 -0.9106 -0.5657 -2.6808
 7497SOL     OW23389   4.141   5.350   0.094  0.6691  0.1906 -0.2956
 7497SOL    HW123390   4.064   5.297   0.128  0.8878  1.3019  2.1167
 7497SOL    HW223391   4.202   5.290   0.042 -0.4150 -1.2986  0.0901
 7498SOL     OW23392   1.906   4.587   4.385 -0.4829  0.2518  0.0082
 7498SOL    HW123393   1.813   4.594   4.422 -1.4104 -2.5335 -1.5395
 7498SOL    HW223394   1.921   4.495   4.349  2.4286  1.0457 -1.0686
 7499SOL     OW23395   0.979   4.679   1.139 -0.5815 -0.7655  0.1792
 7499SOL    HW123396   1.014   4.771   1.120  0.5366 -0.9265  1.3291
 7499SOL    HW223397   1.042   4.631   1.200 -0.3993 -2.8469 -1.5322
 7500SOL     OW23398   4.488   1.225   4.467  0.0072  0.3757  0.1886
 7500SOL    HW123399   4.473   1.317   4.431  1.0389  0.9376  1.1368
 7500SOL    HW223400   4.408   1.169   4.449 -0.5567  1.4023 -0.5864
 7501SOL     OW23401   4.290   3.195   0.717 -0.0137  0.1316 -0.2232
 7501SOL    HW123402   4.341   3.234   0.640  1.0880  0.6558  0.7394
 7501SOL    HW223403   4.300   3.254   0.797 -2.6374  0.5403 -0.1292
 7502SOL     OW23404   2.728   6.678   1.937 -0.0304  0.1835  0.5148
 7502SOL    HW123405   2.811   6.667   1.881  1.3272  2.1056  1.9879
 7502SOL    HW223406   2.684   6.590   1.949  0.2680 -0.5039 -2.5371
 7503SOL     OW23407   0.734   2.524   6.639  0.9039  0.7218 -0.4589
 7503SOL    HW123408   0.717   2.444   6.698  0.4934  2.4826  1.9713
 7503SOL    HW223409   0.646   2.563   6.612  1.0986  0.0873 -2.1079
 7504SOL     OW23410   3.404   2.798   1.030  0.3413 -0.0239  0.4141
 7504SOL    HW123411   3.420   2.840   1.119  1.8774 -0.2668  0.2803
 7504SOL    HW223412   3.483   2.741   1.006  0.7160  1.3182 -1.8230
 7505SOL     OW23413   5.578   1.059   0.726 -0.0750 -0.4778  0.5876
 7505SOL    HW123414   5.543   1.152   0.738 -0.6113 -0.7243  0.9714
 7505SOL    HW223415   5.618   1.027   0.812  0.2872 -0.5307  0.4009
 7506SOL     OW23416   0.762   6.995   0.619  0.1945 -0.5012  0.3630
 7506SOL    HW123417   0.682   6.945   0.587 -0.4263  0.4727  0.3596
 7506SOL    HW223418   0.779   6.975   0.715 -1.2295  0.7524  0.9113
 7507SOL     OW23419   4.463   4.282   0.165  0.1633  0.6926 -0.0788
 7507SOL    HW123420   4.367   4.258   0.148  0.5370 -0.0941 -1.1855
 7507SOL    HW223421   4.493   4.349   0.096  0.6640  0.2373 -0.3083
 7508SOL     OW23422   2.829   1.491   1.804  0.1632 -0.2239  0.0790
 7508SOL    HW123423   2.807   1.579   1.846  1.2572  0.5062 -0.8320
 7508SOL    HW223424   2.912   1.454   1.846  2.1220  1.2052 -2.2987
 7509SOL     OW23425   1.218   6.694   2.538 -0.5406  0.1259 -0.5569
 7509SOL    HW123426   1.190   6.600   2.558 -0.6867  0.1684 -0.5656
 7509SOL    HW223427   1.227   6.745   2.623 -0.7826  0.1967 -0.5727
 7510SOL     OW23428   2.026   5.789   5.553 -0.1290 -0.5125  0.0226
 7510SOL    HW123429   1.951   5.747   5.604  0.6743 -0.1587  1.5598
 7510SOL    HW223430   2.064   5.865   5.606  2.0124 -1.3466 -0.2257
 7511SOL     OW23431   3.955   5.111   6.915 -0.4770  0.1706  0.5245
 7511SOL    HW123432   3.972   5.124   7.012  1.0774  1.3107  0.1336
 7511SOL    HW223433   3.992   5.023   6.886 -2.9951 -1.2751  1.3648
 7512SOL     OW23434   3.831   3.756   5.982  0.0392 -0.1916 -0.5649
 7512SOL    HW123435   3.913   3.748   5.926  0.4883  1.5877 -0.2400
 7512SOL    HW223436   3.755   3.790   5.926  0.2022  0.5416 -0.3577
 7513SOL     OW23437   4.507   4.429   2.782 -0.5246 -0.1885  0.5512
 7513SOL    HW123438   4.451   4.488   2.840  0.3762  0.6434  0.6091
 7513SOL    HW223439   4.532   4.346   2.832 -1.1115 -0.2386  0.7672
 7514SOL     OW23440   3.372   0.194   3.197 -0.5711  0.0112 -0.2082
 7514SOL    HW123441   3.384   0.220   3.293 -0.7685  1.3494 -0.5140
 7514SOL    HW223442   3.358   0.277   3.142  0.5562 -0.6424 -1.5422
 7515SOL     OW23443   2.414   3.725   6.383  0.2075 -0.2713 -0.8691
 7515SOL    HW123444   2.418   3.819   6.415 -0.4639 -0.3222 -0.6019
 7515SOL    HW223445   2.480   3.669   6.433 -0.4673 -0.2438  0.0911
 7516SOL     OW23446   7.016   3.791   0.205  0.3077 -0.6954 -0.0546
 7516SOL    HW123447   7.025   3.691   0.213  0.4690 -0.5878  1.3073
 7516SOL    HW223448   6.940   3.822   0.262  0.2530 -0.0299 -0.4849
 7517SOL     OW23449   5.467   2.230   1.992 -0.0619  0.2708 -0.4865
 7517SOL    HW123450   5.469   2.227   1.892  0.8208 -0.4367 -0.4617
 7517SOL    HW223451   5.437   2.142   2.028 -2.3078  1.1041 -0.1256
 7518SOL     OW23452   1.574   5.505   2.501  0.2114  0.6290  0.1983
 7518SOL    HW123453   1.507   5.461   2.561  0.6584  1.4063  1.2974
 7518SOL    HW223454   1.665   5.499   2.543  0.4131  1.8511 -0.0463
 7519SOL     OW23455   2.883   6.296   4.836  0.0293  0.7121 -0.2671
 7519SOL    HW123456   2.932   6.209   4.841 -0.1926  0.6508  1.2005
 7519SOL    HW223457   2.785   6.278   4.827 -0.0950  0.7754  0.7884
 7520SOL     OW23458   4.872   0.015   5.341 -0.0789 -0.4051  0.1917
 7520SOL    HW123459   4.936  -0.052   5.303  0.2901 -0.6841  1.2882
 7520SOL    HW223460   4.785   0.010   5.291  0.4479 -0.6300 -0.7340
 7521SOL     OW23461   2.844   4.834   0.248  0.2186  1.0112 -0.2807
 7521SOL    HW123462   2.790   4.751   0.234  1.4566  0.0246  0.6567
 7521SOL    HW223463   2.914   4.840   0.178  1.3101  0.2622  0.7094
 7522SOL     OW23464   0.122   3.248   1.654 -0.7801 -0.2021  0.5317
 7522SOL    HW123465   0.088   3.162   1.618 -0.8719 -0.4180  1.1257
 7522SOL    HW223466   0.074   3.270   1.739 -1.3583  0.8547 -0.0493
 7523SOL     OW23467   6.869   1.140   2.523  0.0297 -0.2848  0.3215
 7523SOL    HW123468   6.837   1.228   2.488 -1.5282 -0.8111  0.3411
 7523SOL    HW223469   6.884   1.078   2.446 -1.7564 -0.9085  0.4318
 7524SOL     OW23470   3.318   1.859   1.182 -0.7775 -0.1260 -0.3643
 7524SOL    HW123471   3.238   1.918   1.177  0.1405  1.1687 -0.3882
 7524SOL    HW223472   3.303   1.788   1.250 -1.5656  0.7121  0.3653
 7525SOL     OW23473   0.150   6.281   4.477 -0.5699 -0.3334  0.5749
 7525SOL    HW123474   0.070   6.247   4.429 -0.1214 -1.1553  0.3933
 7525SOL    HW223475   0.227   6.219   4.462 -0.4874 -0.8204  2.6337
 7526SOL     OW23476   5.521   3.888   0.479  0.1559 -0.0859  0.1953
 7526SOL    HW123477   5.601   3.858   0.531  0.3156  0.2418  0.1420
 7526SOL    HW223478   5.455   3.930   0.541  0.2430  0.0925  0.1674
 7527SOL     OW23479   4.030   6.681   3.835 -0.5924 -0.2273  0.0607
 7527SOL    HW123480   3.980   6.717   3.914  1.5547 -2.8154  2.8245
 7527SOL    HW223481   4.084   6.754   3.793 -0.0540  0.8189  2.4408
 7528SOL     OW23482   5.465   4.881   2.184  0.3004  0.3326  0.7395
 7528SOL    HW123483   5.420   4.942   2.118  0.5373 -0.8259 -0.5496
 7528SOL    HW223484   5.407   4.870   2.264 -1.9960 -1.4000 -1.0030
 7529SOL     OW23485   6.106   6.665   5.695  0.1565 -0.5497  0.1629
 7529SOL    HW123486   6.122   6.761   5.719  0.8252 -0.7798  0.6453
 7529SOL    HW223487   6.048   6.622   5.764  0.3217 -0.6445  0.2423
 7530SOL     OW23488   2.430   4.358   2.673 -0.4102 -0.3698 -0.7951
 7530SOL    HW123489   2.433   4.453   2.702 -0.6970 -0.7397  0.5513
 7530SOL    HW223490   2.429   4.353   2.573  1.3829  0.9682 -0.9341
 7531SOL     OW23491   5.337   2.517   6.553 -0.6037 -0.4624  0.6637
 7531SOL    HW123492   5.255   2.546   6.603  0.0363  0.5999  1.1080
 7531SOL    HW223493   5.321   2.527   6.454 -0.6091  0.8787  0.7824
 7532SOL     OW23494   4.356   5.738   0.966 -0.0660 -0.0102 -0.6301
 7532SOL    HW123495   4.422   5.812   0.977  0.0942 -0.3055  0.4496
 7532SOL    HW223496   4.274   5.758   1.020 -0.8248  0.2863 -1.8506
 7533SOL     OW23497   3.268   4.065   3.469  0.5792  0.2385  0.1404
 7533SOL    HW123498   3.246   4.118   3.387 -2.1248  2.0766  1.8730
 7533SOL    HW223499   3.195   3.999   3.486  1.4333 -0.5694  0.7360
 7534SOL     OW23500   1.772   5.500   6.570  0.7730 -0.7505 -0.4879
 7534SOL    HW123501   1.820   5.538   6.649  0.4466 -0.7426 -0.2942
 7534SOL    HW223502   1.840   5.470   6.502  1.0480 -0.3959 -0.3796
 7535SOL     OW23503   1.229   6.341   5.545 -0.1732 -0.3321 -0.1605
 7535SOL    HW123504   1.154   6.407   5.530 -0.4673 -0.5874  0.1749
 7535SOL    HW223505   1.314   6.380   5.510 -0.4712 -0.0573 -0.5928
 7536SOL     OW23506   2.910   0.370   0.427  0.4684 -0.2539 -0.0088
 7536SOL    HW123507   2.892   0.389   0.523 -2.5273 -0.1438 -0.4854
 7536SOL    HW223508   2.861   0.286   0.400  1.6642 -0.5621 -1.3252
 7537SOL     OW23509   2.501   4.593   5.181  0.2840  0.1799  0.0259
 7537SOL    HW123510   2.486   4.495   5.171 -1.1330  0.1277  2.1794
 7537SOL    HW223511   2.418   4.643   5.157  0.4765  0.7524  0.5207
 7538SOL     OW23512   0.500   6.566   6.246 -0.2492  0.6140 -0.4251
 7538SOL    HW123513   0.552   6.508   6.183 -1.1643 -0.1363 -0.5205
 7538SOL    HW223514   0.562   6.619   6.303  0.6335 -0.5918 -0.2285
 7539SOL     OW23515   0.642   4.932   1.795 -0.6197 -0.4140 -0.1794
 7539SOL    HW123516   0.644   5.004   1.726  1.8652  0.0627  0.3121
 7539SOL    HW223517   0.725   4.877   1.788 -1.0166 -1.2750  1.4856
 7540SOL     OW23518   0.378   3.565   4.312  0.2495  0.9509  0.2815
 7540SOL    HW123519   0.401   3.594   4.219 -1.4401  0.6445 -0.2729
 7540SOL    HW223520   0.369   3.466   4.315 -0.9178  1.0463  0.4464
 7541SOL     OW23521   0.129   3.453   6.420 -0.2241  0.3745 -0.2351
 7541SOL    HW123522   0.051   3.474   6.361  0.6224  0.5427 -1.3423
 7541SOL    HW223523   0.124   3.358   6.451 -1.4432  0.7051  0.6412
 7542SOL     OW23524   5.195   4.284   3.427  0.3394  0.4031 -0.3309
 7542SOL    HW123525   5.159   4.373   3.457  0.2982  0.2228  0.1618
 7542SOL    HW223526   5.295   4.289   3.421  0.3846  0.3176  0.2675
 7543SOL     OW23527   5.101   6.040   6.116  0.1272 -0.2531 -0.4941
 7543SOL    HW123528   5.022   5.978   6.111  1.3048 -1.9094  0.3691
 7543SOL    HW223529   5.074   6.125   6.161 -1.2089 -0.7081 -0.3929
 7544SOL     OW23530   0.130   5.024   1.697 -0.1378  0.1942 -0.2337
 7544SOL    HW123531   0.191   4.948   1.675  1.6963  1.3593  0.5435
 7544SOL    HW223532   0.044   4.989   1.734 -0.0762 -1.5195 -1.6392
 7545SOL     OW23533   5.172   0.913   1.854  0.9817  0.3537  0.2010
 7545SOL    HW123534   5.106   0.926   1.780 -0.9273 -1.9805  1.3434
 7545SOL    HW223535   5.126   0.930   1.942  1.7213 -1.8132  1.0589
 7546SOL     OW23536   1.810   5.963   2.684 -0.5943 -1.1309 -0.2868
 7546SOL    HW123537   1.841   5.887   2.627 -0.6073 -1.0535 -0.3970
 7546SOL    HW223538   1.725   5.937   2.730 -1.7855 -0.4253 -1.9917
 7547SOL     OW23539   3.492   1.664   5.211  0.1780 -0.4587  0.4117
 7547SOL    HW123540   3.445   1.674   5.123 -1.0895  1.1196  1.2094
 7547SOL    HW223541   3.584   1.702   5.205  0.5118 -1.3623 -0.5028
 7548SOL     OW23542   3.841   1.387   1.189  0.1266 -0.4535  0.2097
 7548SOL    HW123543   3.845   1.422   1.095 -0.8564 -1.6729 -0.3149
 7548SOL    HW223544   3.933   1.359   1.218  0.4974  0.2500 -0.2522
 7549SOL     OW23545   5.290   1.976   5.350  0.1536  0.2112 -0.3444
 7549SOL    HW123546   5.260   1.938   5.263 -2.0395 -0.1486  0.5250
 7549SOL    HW223547   5.289   2.076   5.346 -0.7348  0.1964 -0.4753
 7550SOL     OW23548   3.025   6.100   3.914  0.5238 -0.2531  0.9101
 7550SOL    HW123549   3.109   6.146   3.884  1.3049 -1.7344  0.7239
 7550SOL    HW223550   2.995   6.038   3.842 -0.3146 -0.2980  1.2964
 7551SOL     OW23551   3.291   2.378   0.372  0.3262 -0.1603 -0.1376
 7551SOL    HW123552   3.213   2.424   0.414  0.7698  2.6705 -2.1384
 7551SOL    HW223553   3.374   2.402   0.422  0.1527 -2.2408  1.2845
 7552SOL     OW23554   5.657   6.021   6.980 -0.0063  0.0260  0.3177
 7552SOL    HW123555   5.713   6.078   7.041 -1.0802  1.4673  0.0209
 7552SOL    HW223556   5.602   5.959   7.035 -0.8443  1.1989  0.8601
 7553SOL     OW23557   2.115   0.175   3.219 -0.5952  0.1232 -0.5127
 7553SOL    HW123558   2.182   0.241   3.184 -0.2864  1.3559  2.1611
 7553SOL    HW223559   2.158   0.085   3.224  0.0134  0.3591 -1.2459
 7554SOL     OW23560   3.127   5.329   1.855  0.4632  0.5819  0.1227
 7554SOL    HW123561   3.119   5.341   1.954 -0.3842 -0.2605  0.1689
 7554SOL    HW223562   3.041   5.353   1.811  0.9656  1.3507 -0.4605
 7555SOL     OW23563   1.485   2.995   0.057 -0.3981  0.1178 -0.8909
 7555SOL    HW123564   1.405   2.936   0.048 -0.0741 -0.7649  1.4374
 7555SOL    HW223565   1.494   3.027   0.151  1.3315  1.1882 -1.3519
 7556SOL     OW23566   4.973   5.665   2.472  0.3889 -0.0396 -0.5460
 7556SOL    HW123567   5.027   5.747   2.456 -0.2010  0.4463 -0.0788
 7556SOL    HW223568   4.954   5.620   2.384  0.4302  0.5102 -0.8368
 7557SOL     OW23569   2.756   5.087   4.654 -0.2399 -0.2991 -0.5811
 7557SOL    HW123570   2.706   5.012   4.698  0.4394 -0.3466  0.1417
 7557SOL    HW223571   2.729   5.174   4.696  1.6386 -0.4897  1.1997
 7558SOL     OW23572   2.941   3.592   1.623  0.6151 -0.0919 -0.0544
 7558SOL    HW123573   2.844   3.585   1.600  0.0747 -0.4252  2.1492
 7558SOL    HW223574   2.974   3.505   1.658  0.4214  1.1424  3.6079
 7559SOL     OW23575   2.521   5.951   6.261 -0.0694 -0.2953 -0.0902
 7559SOL    HW123576   2.530   5.862   6.215  0.8886 -0.1031 -0.3123
 7559SOL    HW223577   2.436   5.953   6.314 -1.7437 -0.1826 -2.6155
 7560SOL     OW23578   6.687   5.534   2.652  0.4292  0.2605  0.5702
 7560SOL    HW123579   6.605   5.531   2.596  0.2567 -0.0580  0.8380
 7560SOL    HW223580   6.767   5.511   2.596  0.0240 -2.1164  0.8824
 7561SOL     OW23581   6.707   0.301   5.574  0.6547  0.3463  0.4962
 7561SOL    HW123582   6.696   0.355   5.490 -0.0692 -1.4390 -0.6003
 7561SOL    HW223583   6.675   0.208   5.558  0.5124 -0.0379  2.7837
 7562SOL     OW23584   2.386   0.881   5.031  0.2696  0.0184  0.0292
 7562SOL    HW123585   2.361   0.810   5.096 -0.4435  0.4422  0.2298
 7562SOL    HW223586   2.471   0.925   5.061  0.5149 -0.4944  0.0991
 7563SOL     OW23587   0.198   0.114   3.828  0.2128  0.2005 -0.5109
 7563SOL    HW123588   0.154   0.154   3.747  0.9093  0.1323 -0.9360
 7563SOL    HW223589   0.130   0.069   3.884 -0.4827  1.3339 -0.4094
 7564SOL     OW23590   5.269   4.933   4.497 -0.1571 -0.2846 -0.2623
 7564SOL    HW123591   5.202   4.869   4.532  0.0507 -0.6857 -0.5879
 7564SOL    HW223592   5.237   4.972   4.410 -1.0575  1.3398  0.7367
 7565SOL     OW23593   0.147   4.171   1.436  0.8609 -0.6972  0.1938
 7565SOL    HW123594   0.189   4.254   1.400 -2.6649  1.7035  1.1171
 7565SOL    HW223595   0.182   4.152   1.528  1.4301 -0.0165  0.1207
 7566SOL     OW23596   3.161   1.842   0.803  0.1609  0.0796 -0.0240
 7566SOL    HW123597   3.156   1.930   0.852 -1.5771 -0.4312  0.7957
 7566SOL    HW223598   3.232   1.848   0.732  0.7080  1.8347  0.6025
 7567SOL     OW23599   6.449   3.454   0.237  0.1176 -0.5758 -0.0974
 7567SOL    HW123600   6.410   3.374   0.192  0.5027 -1.9302  1.8294
 7567SOL    HW223601   6.534   3.428   0.285  1.4679  1.4889 -1.1960
 7568SOL     OW23602   0.873   6.833   2.051 -0.1372 -0.6100  0.7321
 7568SOL    HW123603   0.840   6.848   2.144  0.0140  0.8369  0.5681
 7568SOL    HW223604   0.867   6.918   1.999  0.8272 -1.1233 -0.2554
 7569SOL     OW23605   5.785   4.563   4.706 -0.0916 -0.2263 -0.8774
 7569SOL    HW123606   5.796   4.526   4.799 -0.4463 -0.2386 -0.8400
 7569SOL    HW223607   5.783   4.663   4.710 -0.2444 -0.2299 -0.8555
 7570SOL     OW23608   2.930   3.548   4.548 -0.0330  0.2981 -0.2253
 7570SOL    HW123609   2.901   3.520   4.639  2.6094  1.1077  0.9709
 7570SOL    HW223610   2.960   3.468   4.496 -0.4321 -0.0242  0.0308
 7571SOL     OW23611   2.728   0.183   0.344 -0.4426 -0.7223  0.7188
 7571SOL    HW123612   2.693   0.276   0.353  1.8323  0.2522  0.2017
 7571SOL    HW223613   2.705   0.147   0.253 -0.5074 -0.3034  0.5697
 7572SOL     OW23614   2.634   0.172   4.810  0.4170 -0.2147  0.1574
 7572SOL    HW123615   2.634   0.199   4.714  2.1179 -0.0354  0.1732
 7572SOL    HW223616   2.719   0.124   4.831  0.4655  0.5163  1.7792
 7573SOL     OW23617   5.053   1.067   1.462 -0.7850  0.2829 -0.2414
 7573SOL    HW123618   4.985   1.015   1.515 -0.1254 -0.7282 -0.3600
 7573SOL    HW223619   5.106   1.125   1.524  0.1126 -1.0371  0.2647
 7574SOL     OW23620   0.766   5.277   3.149  0.3060  0.2558  0.4044
 7574SOL    HW123621   0.798   5.209   3.215  0.4958 -0.0970 -0.0459
 7574SOL    HW223622   0.707   5.233   3.081  0.8213  0.4359 -0.1769
 7575SOL     OW23623   4.321   5.558   2.642 -0.1213  0.2026  0.4655
 7575SOL    HW123624   4.401   5.577   2.586  0.3913 -1.8029  0.4524
 7575SOL    HW223625   4.306   5.459   2.647 -3.0752  0.5128 -0.2066
 7576SOL     OW23626   3.274   2.931   4.711 -0.2902  0.1611 -0.0764
 7576SOL    HW123627   3.322   2.926   4.623 -0.7180  0.7874 -0.3530
 7576SOL    HW223628   3.286   2.846   4.760  1.5033  0.4608  0.0681
 7577SOL     OW23629   4.780   0.012   1.331  0.5659 -0.0942 -0.0874
 7577SOL    HW123630   4.831  -0.025   1.254 -1.7917  0.1126 -1.8864
 7577SOL    HW223631   4.689   0.041   1.300 -0.0354  1.1948  2.5410
 7578SOL     OW23632   1.949   4.486   5.825 -0.3514 -0.4503 -0.1977
 7578SOL    HW123633   1.930   4.412   5.890  0.4756  1.2421  2.0935
 7578SOL    HW223634   1.960   4.572   5.875 -1.0297  1.2169 -2.7487
 7579SOL     OW23635   2.112   2.834   0.033 -0.2191  0.6909  0.4991
 7579SOL    HW123636   2.188   2.895   0.057  0.3745 -0.0114  0.4528
 7579SOL    HW223637   2.045   2.883  -0.022  1.4158  0.6969 -1.6050
 7580SOL     OW23638   6.553   5.373   0.420  0.0791 -0.1285 -0.6174
 7580SOL    HW123639   6.500   5.367   0.505  2.1561 -0.6925  0.7090
 7580SOL    HW223640   6.631   5.312   0.425  0.7102  0.4380 -2.6327
 7581SOL     OW23641   3.034   4.863   0.018 -0.1001  0.0892 -0.2081
 7581SOL    HW123642   3.126   4.854  -0.020 -0.2905  0.3712 -0.7441
 7581SOL    HW223643   3.019   4.958   0.047 -0.1686  0.0085  0.0274
 7582SOL     OW23644   0.674   6.852   3.012 -0.1196 -0.1457  0.0452
 7582SOL    HW123645   0.767   6.852   2.976  0.7179  0.8669  2.0766
 7582SOL    HW223646   0.666   6.920   3.085 -2.1070 -1.1032  0.8002
 7583SOL     OW23647   2.677   4.286   1.233  0.2482  0.1820  0.2100
 7583SOL    HW123648   2.684   4.188   1.212 -0.8874  0.2111 -0.3582
 7583SOL    HW223649   2.662   4.297   1.331  0.2144 -0.2185  0.2539
 7584SOL     OW23650   4.068   0.649   6.407  0.1525  0.0518  0.0779
 7584SOL    HW123651   4.116   0.625   6.491  2.0518  1.3319 -0.5560
 7584SOL    HW223652   4.075   0.573   6.342  0.5317 -0.1395  0.3348
 7585SOL     OW23653   3.139   0.605   6.843  0.0100  0.1926 -0.1735
 7585SOL    HW123654   3.168   0.701   6.843  0.9491 -0.0812  0.3582
 7585SOL    HW223655   3.218   0.546   6.861 -1.0523 -0.5173  2.8300
 7586SOL     OW23656   5.510   0.216   2.580  0.9032  0.4343 -0.3252
 7586SOL    HW123657   5.413   0.212   2.604  1.2693 -0.6998  1.0986
 7586SOL    HW223658   5.519   0.240   2.483 -0.7460  1.5378 -0.2419
 7587SOL     OW23659   6.489   1.326   5.295 -0.5149 -0.7370 -0.0645
 7587SOL    HW123660   6.497   1.403   5.358 -0.3723 -0.0262 -0.9389
 7587SOL    HW223661   6.563   1.261   5.313  1.1935  0.7877 -1.2675
 7588SOL     OW23662   5.894   1.240   2.988 -0.6466 -0.0531 -0.4396
 7588SOL    HW123663   5.879   1.159   3.046 -0.6505  0.5146  0.3643
 7588SOL    HW223664   5.809   1.292   2.981 -0.1646  0.9328  0.6877
 7589SOL     OW23665   5.362   0.278   0.333  0.0361  0.5044  0.2864
 7589SOL    HW123666   5.427   0.257   0.407  1.7889 -0.7856 -1.5177
 7589SOL    HW223667   5.399   0.246   0.246 -2.3900  1.1129 -1.0616
 7590SOL     OW23668   0.775   4.688   0.313  0.4805  0.4001  0.2810
 7590SOL    HW123669   0.763   4.771   0.259  2.8590  1.0516  0.6283
 7590SOL    HW223670   0.735   4.610   0.265 -0.9408  1.5674 -0.5038
 7591SOL     OW23671   2.932   3.593   4.047  0.3081  0.5876 -0.2369
 7591SOL    HW123672   2.844   3.588   4.093  0.6423  0.2724  0.3930
 7591SOL    HW223673   3.005   3.591   4.115  0.7845  2.4036 -0.6552
 7592SOL     OW23674   5.469   0.748   4.268  0.8337  0.4646  0.1037
 7592SOL    HW123675   5.412   0.672   4.236  2.4336 -1.7897  2.3184
 7592SOL    HW223676   5.486   0.811   4.192 -0.7152 -1.2553 -1.7627
 7593SOL     OW23677   2.347   3.750   0.126  0.2595  0.7005  0.0214
 7593SOL    HW123678   2.306   3.835   0.095  2.7884  1.3296 -1.9605
 7593SOL    HW223679   2.329   3.678   0.058 -0.9195 -0.1229  1.1454
 7594SOL     OW23680   6.876   0.482   4.786 -0.3475  0.0851  0.2760
 7594SOL    HW123681   6.964   0.435   4.795 -0.4358  0.0078  0.7268
 7594SOL    HW223682   6.811   0.447   4.853 -0.0784  1.6216  1.4044
 7595SOL     OW23683   1.359   1.009   1.088  0.0386  0.0345  0.0474
 7595SOL    HW123684   1.403   1.042   1.004  0.8180 -1.2716 -0.0766
 7595SOL    HW223685   1.260   1.007   1.074  0.1267  0.3146 -0.6728
 7596SOL     OW23686   0.371   1.317   2.627  0.1632  0.0178  0.1002
 7596SOL    HW123687   0.327   1.245   2.573  0.2892  0.9807 -1.3310
 7596SOL    HW223688   0.429   1.276   2.696  1.6871 -1.3028 -1.8615
 7597SOL     OW23689   3.799   1.816   0.804  0.1623  0.0476  0.0204
 7597SOL    HW123690   3.825   1.767   0.887  0.0651 -0.0327  0.0042
 7597SOL    HW223691   3.701   1.803   0.787  0.1340  0.2552  0.0200
 7598SOL     OW23692   5.639   6.378   1.167  0.5243 -0.5461 -0.3792
 7598SOL    HW123693   5.582   6.308   1.125  1.8419 -1.1644 -1.1847
 7598SOL    HW223694   5.583   6.434   1.228 -0.5416 -2.3412  0.3665
 7599SOL     OW23695   0.444   0.689   4.700  0.0486 -0.2007  0.2854
 7599SOL    HW123696   0.380   0.615   4.719 -0.4542  0.6754  2.2050
 7599SOL    HW223697   0.529   0.672   4.749  0.4236 -0.1360 -0.3276
 7600SOL     OW23698   4.052   4.860   2.121  0.0958 -0.1943  0.1388
 7600SOL    HW123699   4.000   4.804   2.186 -2.0592  1.0681 -0.4001
 7600SOL    HW223700   4.134   4.810   2.093 -0.9855 -2.4737  0.7374
 7601SOL     OW23701   2.972   2.163   0.441  0.0083  0.3596 -0.2601
 7601SOL    HW123702   2.977   2.261   0.426 -0.5455  0.6534  1.2379
 7601SOL    HW223703   2.877   2.135   0.454  0.1953 -0.3034 -0.2422
 7602SOL     OW23704   2.752   1.406   2.309  0.7648 -0.5876 -0.4123
 7602SOL    HW123705   2.770   1.363   2.397 -1.1846  0.1406  0.4019
 7602SOL    HW223706   2.748   1.336   2.238  1.3253 -1.3127  0.2560
 7603SOL     OW23707   4.174   0.764   4.389  0.2382 -0.8169 -0.3253
 7603SOL    HW123708   4.125   0.764   4.476  0.6465 -0.5150 -0.0889
 7603SOL    HW223709   4.269   0.739   4.405  0.3463 -0.6316 -0.6640
 7604SOL     OW23710   5.578   3.639   3.020  0.3856  0.2509  0.1782
 7604SOL    HW123711   5.506   3.606   3.080  0.0404 -0.9594 -0.8616
 7604SOL    HW223712   5.636   3.705   3.069 -1.3261  1.1509  1.0610
 7605SOL     OW23713   2.227   5.620   0.792  0.2887  0.0322  0.3216
 7605SOL    HW123714   2.272   5.707   0.774  0.6634  0.1785  1.7818
 7605SOL    HW223715   2.185   5.623   0.883 -0.7548 -0.8911 -0.1088
 7606SOL     OW23716   4.130   0.658   1.148  0.1375 -0.3866  0.4060
 7606SOL    HW123717   4.121   0.724   1.073  2.0136 -1.2306 -0.6136
 7606SOL    HW223718   4.117   0.566   1.113  0.2787 -0.7474  1.2867
 7607SOL     OW23719   5.023   4.179   1.609 -0.0363  0.8099 -0.4819
 7607SOL    HW123720   5.056   4.122   1.534 -0.0713  1.0891 -0.7119
 7607SOL    HW223721   4.949   4.131   1.657  0.8732  0.0689  0.2092
 7608SOL     OW23722   1.183   1.371   1.283  0.2079  0.2394 -0.0728
 7608SOL    HW123723   1.254   1.302   1.297  0.0185 -0.4091 -2.0579
 7608SOL    HW223724   1.104   1.329   1.240 -1.8678  0.7199  2.9740
 7609SOL     OW23725   4.778   4.928   3.442 -0.5140 -0.3477 -0.8537
 7609SOL    HW123726   4.787   4.978   3.357  0.0749 -0.9970 -1.1774
 7609SOL    HW223727   4.857   4.869   3.456 -1.5358 -1.7889 -0.8793
 7610SOL     OW23728   2.617   1.565   3.278 -0.0649  0.1998  0.1510
 7610SOL    HW123729   2.610   1.469   3.251 -0.1241  0.3524 -0.3839
 7610SOL    HW223730   2.574   1.578   3.367 -0.0884 -0.2613  0.2084
 7611SOL     OW23731   2.659   1.327   5.419 -0.4275 -0.3357  0.4912
 7611SOL    HW123732   2.568   1.298   5.447 -1.2236  1.3004 -0.2472
 7611SOL    HW223733   2.666   1.326   5.319 -0.3653  1.4461  0.4353
 7612SOL     OW23734   6.135   3.334   3.623 -0.1461  0.0629  0.4329
 7612SOL    HW123735   6.194   3.413   3.608  0.0096  0.0724  1.0487
 7612SOL    HW223736   6.123   3.320   3.721  1.1663 -1.6622  0.3882
 7613SOL     OW23737   6.281   6.446   3.410 -0.0412  0.1805  0.0553
 7613SOL    HW123738   6.278   6.513   3.484  0.4974  0.2283  0.0411
 7613SOL    HW223739   6.202   6.458   3.350  0.1677  0.9626 -0.0771
 7614SOL     OW23740   2.464   4.938   5.964 -0.2435 -0.5325  0.0994
 7614SOL    HW123741   2.529   4.929   6.039 -1.9156 -1.3030  1.5176
 7614SOL    HW223742   2.485   5.022   5.912  2.5718 -1.3605 -0.2747
 7615SOL     OW23743   3.323   2.538   6.770  0.1571 -0.6797  0.1172
 7615SOL    HW123744   3.256   2.541   6.844 -0.1414 -0.4953 -0.1576
 7615SOL    HW223745   3.296   2.602   6.698 -1.4381 -3.2228 -1.7126
 7616SOL     OW23746   0.386   4.859   0.809 -0.7098  0.9574 -0.0010
 7616SOL    HW123747   0.409   4.906   0.724  1.3298  0.2676  0.1229
 7616SOL    HW223748   0.433   4.771   0.813 -1.1258  0.7640  1.6519
 7617SOL     OW23749   4.544   4.778   5.795 -0.6195 -0.2974  0.2334
 7617SOL    HW123750   4.635   4.765   5.755 -1.1343 -0.0788 -1.0458
 7617SOL    HW223751   4.479   4.805   5.724 -1.7520 -0.6876  1.0805
 7618SOL     OW23752   1.702   3.109   4.657  0.2558  0.1419  0.2369
 7618SOL    HW123753   1.717   3.013   4.680 -2.3359 -0.6306 -0.9177
 7618SOL    HW223754   1.774   3.140   4.595  1.2738 -0.9356  0.8377
 7619SOL     OW23755   5.789   5.563   5.688  0.6790  0.0160  0.2947
 7619SOL    HW123756   5.752   5.620   5.762 -1.5627  1.1539 -1.5809
 7619SOL    HW223757   5.888   5.555   5.700  0.7823  2.4232  1.9431
 7620SOL     OW23758   1.952   2.322   3.226  0.0401  0.4393  0.5685
 7620SOL    HW123759   1.902   2.368   3.152  1.9200  1.9494  0.1421
 7620SOL    HW223760   1.908   2.235   3.247 -1.4070  0.6469 -1.3105
 7621SOL     OW23761   1.116   4.774   2.910  0.5959  0.3411  0.4433
 7621SOL    HW123762   1.200   4.777   2.965  0.6207 -0.7161  0.4814
 7621SOL    HW223763   1.060   4.697   2.939  0.1808  0.3121 -0.4110
 7622SOL     OW23764   0.991   5.937   2.522 -0.2975 -0.2663 -0.3322
 7622SOL    HW123765   1.032   5.851   2.552 -1.2111 -0.2432  1.0571
 7622SOL    HW223766   0.986   6.000   2.599  1.3936  1.5045 -1.5646
 7623SOL     OW23767   0.529   1.397   1.108 -0.4412  0.3008 -0.0025
 7623SOL    HW123768   0.460   1.419   1.177  0.2971  1.0447  0.5120
 7623SOL    HW223769   0.609   1.456   1.120  0.9846 -1.6128  0.4338
 7624SOL     OW23770   2.002   6.099   4.454 -0.2269  0.0583 -0.0507
 7624SOL    HW123771   1.932   6.151   4.503  0.1775 -1.0615  1.8151
 7624SOL    HW223772   2.011   6.135   4.361 -1.3885  1.9463  0.5050
 7625SOL     OW23773   1.606   0.929   2.970  0.3277 -0.2355  0.0697
 7625SOL    HW123774   1.657   0.843   2.974 -2.0967 -1.8290 -1.0013
 7625SOL    HW223775   1.612   0.975   3.059  4.7022  0.4764 -0.3683
 7626SOL     OW23776   4.806   0.877   3.588 -0.5453  0.3168  0.3881
 7626SOL    HW123777   4.821   0.976   3.598  0.5923  0.2191 -0.1753
 7626SOL    HW223778   4.744   0.846   3.660 -1.0298  1.4616  0.4895
 7627SOL     OW23779   4.596   6.956   5.281  0.4420 -0.3055 -0.1424
 7627SOL    HW123780   4.590   7.052   5.307 -1.7209 -0.1932 -0.9002
 7627SOL    HW223781   4.508   6.911   5.297  0.1993 -1.2006 -3.3288
 7628SOL     OW23782   2.912   4.566   6.062 -0.2360  0.7252  0.9518
 7628SOL    HW123783   2.912   4.583   5.964 -0.6985 -1.4906  0.5161
 7628SOL    HW223784   3.006   4.560   6.095 -0.0711  2.1965  0.8193
 7629SOL     OW23785   4.718   1.503   0.284 -0.0941  0.4997  0.6012
 7629SOL    HW123786   4.630   1.456   0.273 -0.3580  1.1502 -0.1405
 7629SOL    HW223787   4.776   1.449   0.344 -0.7618 -0.2738  0.5814
 7630SOL     OW23788   1.460   3.552   6.923  0.0502 -0.2935 -0.0754
 7630SOL    HW123789   1.402   3.521   6.998  1.6426 -3.3776  0.0424
 7630SOL    HW223790   1.404   3.569   6.842 -1.5252  1.7629  1.3311
 7631SOL     OW23791   1.342   1.002   5.686 -0.5034 -0.6518  0.5109
 7631SOL    HW123792   1.332   0.905   5.709 -1.4591 -0.4672  0.9167
 7631SOL    HW223793   1.261   1.033   5.637  0.2536 -0.3132 -0.5765
 7632SOL     OW23794   6.225   3.786   6.703  0.1965  0.0207 -0.2700
 7632SOL    HW123795   6.282   3.718   6.750 -0.3757  0.4590  1.1263
 7632SOL    HW223796   6.275   3.873   6.699 -0.1518  0.2679  0.5030
 7633SOL     OW23797   3.566   5.104   4.956 -0.3399  0.0962  0.1150
 7633SOL    HW123798   3.578   5.140   5.048 -1.5105  1.0182 -0.0604
 7633SOL    HW223799   3.476   5.062   4.948 -0.5883  0.7570 -0.8142
 7634SOL     OW23800   1.970   0.305   6.610  0.4688  0.5303  0.5869
 7634SOL    HW123801   2.064   0.288   6.638  0.5531  0.9564  0.5751
 7634SOL    HW223802   1.967   0.324   6.512  0.1142 -1.4462  0.1776
 7635SOL     OW23803   5.980   0.322   4.995  0.0308 -0.9305  0.1708
 7635SOL    HW123804   6.005   0.304   5.090 -1.3216 -0.4607  0.6434
 7635SOL    HW223805   5.938   0.413   4.988 -0.1747 -1.0873 -0.8131
 7636SOL     OW23806   1.549   4.807   3.372 -0.7107  0.5290  0.0170
 7636SOL    HW123807   1.604   4.726   3.392 -1.9794 -0.1265  1.0803
 7636SOL    HW223808   1.607   4.888   3.370  0.1153  0.1545  3.0698
 7637SOL     OW23809   5.222   5.047   3.479 -0.0396 -0.3154  0.7174
 7637SOL    HW123810   5.306   5.015   3.435 -0.6111 -0.3685 -0.3586
 7637SOL    HW223811   5.156   5.074   3.409 -0.2704  1.4567  1.5484
 7638SOL     OW23812   6.894   2.440   0.705  0.1041  0.0070  0.2224
 7638SOL    HW123813   6.890   2.453   0.804 -2.3584  1.5744  0.0008
 7638SOL    HW223814   6.839   2.360   0.679 -0.4458  0.4512  0.0102
 7639SOL     OW23815   1.877   2.525   6.177  0.6460  0.2355  0.0682
 7639SOL    HW123816   1.914   2.614   6.203  0.0872 -0.0588  1.9626
 7639SOL    HW223817   1.943   2.454   6.201  0.7852  0.0637 -0.7877
 7640SOL     OW23818   2.024   4.429   4.089 -0.2062  0.2791 -0.1146
 7640SOL    HW123819   2.000   4.333   4.104 -0.9645  0.1762 -1.7295
 7640SOL    HW223820   2.120   4.437   4.063  0.5066  0.2413  2.3452
 7641SOL     OW23821   4.996   2.708   6.427 -0.2980 -0.2815 -0.1050
 7641SOL    HW123822   4.961   2.614   6.427  0.4019 -0.5888  2.0543
 7641SOL    HW223823   4.921   2.771   6.446 -0.4632 -0.5709  0.2221
 7642SOL     OW23824   5.990   1.447   2.674  0.4032 -0.2043 -0.3293
 7642SOL    HW123825   6.071   1.432   2.617  0.6827 -2.3649  0.5227
 7642SOL    HW223826   6.013   1.431   2.769 -1.4370 -3.2125 -0.2427
 7643SOL     OW23827   1.802   0.017   2.339 -0.1274  0.2361 -0.2158
 7643SOL    HW123828   1.794   0.052   2.245  1.3859 -1.2815 -0.9588
 7643SOL    HW223829   1.890   0.046   2.377 -0.4760  0.3299  0.5364
 7644SOL     OW23830   5.777   2.659   5.005 -0.3865 -0.0623 -0.1190
 7644SOL    HW123831   5.730   2.695   4.925  2.4818  1.5819 -1.2218
 7644SOL    HW223832   5.729   2.577   5.038 -4.6519  2.1291 -0.2138
 7645SOL     OW23833   3.635   0.524   5.649 -0.3297 -0.0583 -0.6406
 7645SOL    HW123834   3.714   0.506   5.591 -1.8920  0.9646 -3.2944
 7645SOL    HW223835   3.662   0.581   5.727  1.6312 -0.3332 -1.0771
 7646SOL     OW23836   3.396   4.805   5.210 -0.2933 -0.2444  0.2598
 7646SOL    HW123837   3.449   4.741   5.265 -1.1031 -0.8947  0.3000
 7646SOL    HW223838   3.299   4.783   5.218 -0.6622  1.4840  0.9152
 7647SOL     OW23839   6.133   3.983   4.683  0.2188  0.0169  0.5223
 7647SOL    HW123840   6.198   4.035   4.738  0.7715  0.8421 -0.8675
 7647SOL    HW223841   6.045   4.030   4.682  0.1879 -0.0329  0.7279
 7648SOL     OW23842   1.783   5.717   5.694  0.0669 -0.4520  0.2864
 7648SOL    HW123843   1.835   5.673   5.766 -0.1464 -1.6025 -0.2362
 7648SOL    HW223844   1.732   5.795   5.731 -0.7753 -1.5833  1.5821
 7649SOL     OW23845   6.062   4.789   3.584 -0.3914  0.5949  0.9324
 7649SOL    HW123846   5.986   4.844   3.548 -0.2673 -0.4250 -1.0614
 7649SOL    HW223847   6.026   4.702   3.618 -0.2310  0.5306  0.9363
 7650SOL     OW23848   1.662   5.797   5.332 -0.3507 -0.1517 -0.4332
 7650SOL    HW123849   1.611   5.789   5.247 -0.9316  0.7659 -0.1812
 7650SOL    HW223850   1.663   5.709   5.379  0.9394 -0.9820 -1.9107
 7651SOL     OW23851   3.158   3.408   1.318 -0.2799 -0.2776  0.4421
 7651SOL    HW123852   3.223   3.423   1.392 -2.6442  1.1864  2.4056
 7651SOL    HW223853   3.159   3.487   1.256 -1.5936  0.8002  1.7128
 7652SOL     OW23854   3.657   1.376   3.475  0.2985  0.5723 -0.2567
 7652SOL    HW123855   3.710   1.423   3.404  1.4507 -0.4959 -0.1362
 7652SOL    HW223856   3.715   1.362   3.555 -0.4496  0.1686  0.2251
 7653SOL     OW23857   3.159   6.739   4.373 -0.0876 -0.1781 -0.2053
 7653SOL    HW123858   3.085   6.723   4.438  0.4469 -0.5291  0.3300
 7653SOL    HW223859   3.121   6.747   4.281 -0.5277 -3.6864 -0.4529
 7654SOL     OW23860   6.841   3.274   5.439 -0.7461 -0.5054  0.5444
 7654SOL    HW123861   6.791   3.310   5.361  2.2756 -2.0732 -2.3237
 7654SOL    HW223862   6.826   3.175   5.446 -0.5823 -0.4699  1.6714
 7655SOL     OW23863   6.367   0.943   4.790 -0.0588  0.3365 -0.0685
 7655SOL    HW123864   6.416   0.996   4.859  0.0066  1.2335 -0.7831
 7655SOL    HW223865   6.369   0.846   4.814  0.3555  0.5881  0.9401
 7656SOL     OW23866   5.173   2.447   1.629  0.7425 -0.6100 -0.0907
 7656SOL    HW123867   5.084   2.458   1.583  0.3291  1.7186  1.1008
 7656SOL    HW223868   5.180   2.354   1.666 -2.1998 -0.2977  1.6297
 7657SOL     OW23869   6.718   3.918   6.205 -0.0180 -0.6816  0.0326
 7657SOL    HW123870   6.638   3.926   6.145  0.6963 -2.0850 -1.1480
 7657SOL    HW223871   6.801   3.933   6.152  0.6380 -2.1087  0.6068
 7658SOL     OW23872   5.533   4.348   5.230  0.2628 -0.2813  0.0423
 7658SOL    HW123873   5.485   4.274   5.275  1.7975  0.5432  3.3147
 7658SOL    HW223874   5.479   4.381   5.152 -2.0940 -2.4374  0.6532
 7659SOL     OW23875   2.098   6.308   6.956 -0.4831  0.1488  0.1836
 7659SOL    HW123876   2.169   6.377   6.943 -0.2821  0.2038  1.4456
 7659SOL    HW223877   2.039   6.306   6.875  0.3557  0.7868 -0.4729
 7660SOL     OW23878   0.036   6.765   5.596 -0.5864 -0.6548  0.3751
 7660SOL    HW123879  -0.037   6.780   5.664 -1.5005 -1.4262 -0.4138
 7660SOL    HW223880   0.125   6.776   5.640 -1.1003  3.0034  0.8055
 7661SOL     OW23881   6.829   3.058   1.429 -1.0607  0.1743 -0.3099
 7661SOL    HW123882   6.808   3.134   1.491 -2.1522  0.8718 -1.4822
 7661SOL    HW223883   6.746   3.031   1.380 -0.1949 -0.1532 -1.6731
 7662SOL     OW23884   0.955   2.151   2.547  0.5969 -0.1967  0.2107
 7662SOL    HW123885   1.050   2.182   2.547  1.1087 -1.6836 -0.7046
 7662SOL    HW223886   0.904   2.200   2.618  1.8873  1.0364  0.3358
 7663SOL     OW23887   1.133   2.368   6.615 -0.2339 -0.3131  0.0346
 7663SOL    HW123888   1.099   2.300   6.550 -0.1650 -0.7812  0.4764
 7663SOL    HW223889   1.211   2.417   6.575 -0.6469 -0.0937 -0.5056
 7664SOL     OW23890   3.027   0.251   5.824  0.5072 -0.0284 -0.3444
 7664SOL    HW123891   3.099   0.308   5.784 -0.3669  1.1917 -0.2351
 7664SOL    HW223892   2.966   0.308   5.879 -1.7009 -0.6203 -2.0315
 7665SOL     OW23893   3.485   6.372   5.375  0.2096 -0.0992 -0.3263
 7665SOL    HW123894   3.518   6.408   5.462  0.5471 -2.7290  0.7395
 7665SOL    HW223895   3.411   6.307   5.392 -0.0591 -0.2918 -2.0522
 7666SOL     OW23896   4.639   0.752   1.529 -0.1797 -0.1465 -0.2752
 7666SOL    HW123897   4.561   0.813   1.525  0.8112  1.0899 -1.7014
 7666SOL    HW223898   4.638   0.690   1.451  0.4281  0.1052 -0.4925
 7667SOL     OW23899   4.879   0.479   6.331 -0.2559 -0.2602  0.1606
 7667SOL    HW123900   4.914   0.554   6.275 -0.7136  0.2379  0.5319
 7667SOL    HW223901   4.792   0.507   6.373 -0.3787 -0.9633  0.3786
 7668SOL     OW23902   2.107   1.441   1.802  0.0537  0.1275 -0.1072
 7668SOL    HW123903   2.187   1.417   1.856  0.0620 -0.2406 -0.2775
 7668SOL    HW223904   2.127   1.522   1.746 -0.1020  0.7765  0.7641
 7669SOL     OW23905   2.875   4.308   1.651  0.5913 -0.1199 -0.0147
 7669SOL    HW123906   2.870   4.369   1.730  0.2766  0.3853 -0.4165
 7669SOL    HW223907   2.859   4.214   1.680  1.1245 -0.0240  0.6211
 7670SOL     OW23908   2.882   6.587   4.050  0.7103 -0.4000 -0.0631
 7670SOL    HW123909   2.857   6.655   4.120 -0.4442  0.1205 -0.9356
 7670SOL    HW223910   2.911   6.503   4.094 -1.0835 -0.4740  1.0804
 7671SOL     OW23911   5.928   2.098   3.425  0.1838 -0.7636  0.3239
 7671SOL    HW123912   5.841   2.130   3.464  0.8184 -0.6684  1.7249
 7671SOL    HW223913   6.003   2.126   3.485  1.1210 -1.5085 -0.4770
 7672SOL     OW23914   3.641   2.209   5.338  0.5304  0.0733  0.2585
 7672SOL    HW123915   3.667   2.245   5.427 -0.0938  1.4022 -0.0646
 7672SOL    HW223916   3.543   2.225   5.323 -0.1151 -2.9041  0.5826
 7673SOL     OW23917   5.135   3.994   0.328 -0.8171  0.1642 -0.4546
 7673SOL    HW123918   5.186   4.079   0.341 -1.0701  0.1213  0.9379
 7673SOL    HW223919   5.194   3.916   0.347 -1.5969  0.1304  2.1912
 7674SOL     OW23920   1.517   2.973   6.179  0.3199  0.3577  0.7142
 7674SOL    HW123921   1.493   2.876   6.167 -2.3363  1.0930 -0.7788
 7674SOL    HW223922   1.525   3.016   6.089  2.1215  1.4311  1.3534
 7675SOL     OW23923   0.713   3.181   5.114 -0.0704  0.6967  0.1333
 7675SOL    HW123924   0.698   3.257   5.178 -2.1254 -0.1223  0.6798
 7675SOL    HW223925   0.738   3.099   5.165 -0.1980  0.4141 -0.2558
 7676SOL     OW23926   3.919   3.145   4.259  0.2000 -0.1750  0.7478
 7676SOL    HW123927   3.841   3.206   4.271  0.5696  0.6082 -0.6986
 7676SOL    HW223928   3.942   3.138   4.162  1.2746 -1.2307  1.0573
 7677SOL     OW23929   2.259   4.662   3.258  0.3991 -0.6259  0.2319
 7677SOL    HW123930   2.321   4.736   3.230  0.4606 -0.9805 -0.5684
 7677SOL    HW223931   2.313   4.583   3.286  0.3029 -0.9670 -0.5541
 7678SOL     OW23932   4.755   1.244   6.984 -0.6383 -0.3181  0.2551
 7678SOL    HW123933   4.834   1.247   6.923  0.5447  1.0826  1.7570
 7678SOL    HW223934   4.780   1.195   7.068 -1.6452 -0.6115  0.3944
 7679SOL     OW23935   6.177   1.239   1.017 -0.2374  0.5277  0.3053
 7679SOL    HW123936   6.162   1.309   0.947 -1.7248  0.4037  0.4578
 7679SOL    HW223937   6.114   1.255   1.093  0.0547 -0.4348  0.7646
 7680SOL     OW23938   5.781   6.384   5.346  0.2645 -0.2738 -1.0873
 7680SOL    HW123939   5.751   6.382   5.250 -1.4803 -0.3147 -0.5714
 7680SOL    HW223940   5.873   6.345   5.353  0.4341 -0.2470 -2.7391
 7681SOL     OW23941   0.829   6.083   4.687  0.3406 -0.3268  0.2175
 7681SOL    HW123942   0.801   6.039   4.773  0.1829  0.2040  0.4456
 7681SOL    HW223943   0.807   6.023   4.610  1.0293 -1.0634  0.5863
 7682SOL     OW23944   3.277   3.451   4.811  0.0667 -0.4039 -0.0878
 7682SOL    HW123945   3.219   3.419   4.736 -1.4646  2.0546 -0.0527
 7682SOL    HW223946   3.227   3.441   4.897 -0.0115  0.9398  0.0412
 7683SOL     OW23947   1.657   4.535   4.807 -0.0586 -0.0101  0.5582
 7683SOL    HW123948   1.709   4.453   4.828  0.4988  0.0523 -0.5360
 7683SOL    HW223949   1.704   4.615   4.845 -0.3407 -0.1289  1.1819
 7684SOL     OW23950   5.477   5.711   4.994  0.2982 -0.8262 -0.3528
 7684SOL    HW123951   5.485   5.658   5.078 -0.4657  1.5010  1.3077
 7684SOL    HW223952   5.402   5.777   5.003  1.4770  0.8603 -2.0343
 7685SOL     OW23953   5.311   5.734   0.917  0.3725  0.0497 -0.2473
 7685SOL    HW123954   5.215   5.761   0.920  0.6431  0.9627  0.5675
 7685SOL    HW223955   5.318   5.643   0.877 -0.9117 -0.4460  0.6051
 7686SOL     OW23956   5.202   4.195   5.461  0.3582  0.0076  0.6219
 7686SOL    HW123957   5.122   4.136   5.476 -1.0437  1.7143  0.2035
 7686SOL    HW223958   5.199   4.271   5.527  2.0120 -0.2353  1.0159
 7687SOL     OW23959   0.062   5.638   5.561 -0.0363 -0.6864 -0.6410
 7687SOL    HW123960   0.115   5.651   5.478  0.1428  0.5305 -0.3633
 7687SOL    HW223961   0.052   5.541   5.581  0.8360 -0.9537 -1.4898
 7688SOL     OW23962   0.912   0.942   6.303  0.2579  0.4181 -0.0978
 7688SOL    HW123963   0.827   0.892   6.320  0.4314  0.3014  0.4647
 7688SOL    HW223964   0.974   0.928   6.380  0.8670  0.3438 -0.5980
 7689SOL     OW23965   1.406   2.269   6.797  0.2784 -0.7590 -0.2468
 7689SOL    HW123966   1.309   2.274   6.822  0.2036  0.0232 -0.6690
 7689SOL    HW223967   1.457   2.225   6.871 -0.3939 -1.1741 -0.0210
 7690SOL     OW23968   6.039   0.026   4.973 -0.7967  0.3820 -0.2988
 7690SOL    HW123969   6.097   0.079   5.034  0.8052  1.1034 -2.3275
 7690SOL    HW223970   5.973  -0.027   5.027  1.2537  0.0662  2.0750
 7691SOL     OW23971   4.170   4.986   5.291  0.3415 -0.0404  0.1931
 7691SOL    HW123972   4.160   4.938   5.378  2.1796  1.2742  1.1908
 7691SOL    HW223973   4.204   4.922   5.222  2.0515 -0.4055  1.3111
 7692SOL     OW23974   3.938   4.407   1.145  0.2976  0.0757 -0.1271
 7692SOL    HW123975   3.980   4.368   1.063 -1.1330 -0.1304 -0.7910
 7692SOL    HW223976   3.927   4.335   1.214  2.6328  0.4918  0.7901
 7693SOL     OW23977   3.822   1.088   4.667  0.0363  0.4261 -0.1406
 7693SOL    HW123978   3.841   0.996   4.703  0.7270  0.0151 -1.4384
 7693SOL    HW223979   3.908   1.127   4.632 -0.5928  0.6959 -1.4567
 7694SOL     OW23980   1.670   2.905   2.685 -0.4974 -0.0430 -0.2606
 7694SOL    HW123981   1.714   2.994   2.699  0.7367 -0.6984  0.1741
 7694SOL    HW223982   1.631   2.874   2.772 -0.2471 -0.2782 -0.2331
 7695SOL     OW23983   5.371   3.010   4.467 -0.0452 -0.6180 -0.1390
 7695SOL    HW123984   5.445   3.053   4.520  1.1222 -3.5918  0.8364
 7695SOL    HW223985   5.294   2.990   4.528 -1.0203  0.9199 -0.8063
 7696SOL     OW23986   6.221   3.747   0.104 -0.1792 -0.0987 -1.0957
 7696SOL    HW123987   6.197   3.779   0.195  0.7847 -1.4565 -0.3303
 7696SOL    HW223988   6.320   3.738   0.097 -0.2236  0.2368 -2.3818
 7697SOL     OW23989   1.558   4.314   6.560  0.4367  0.0556  0.1596
 7697SOL    HW123990   1.493   4.384   6.532 -0.6916 -0.9888  0.0991
 7697SOL    HW223991   1.511   4.243   6.614  1.9914  0.5528  2.3329
 7698SOL     OW23992   0.616   6.910   0.133 -0.1789 -0.1735 -0.1817
 7698SOL    HW123993   0.664   6.827   0.162 -2.6314 -1.5024  0.4251
 7698SOL    HW223994   0.682   6.982   0.114  2.0433 -2.0675 -0.1782
 7699SOL     OW23995   3.372   1.057   6.502  0.7516  0.1435 -0.0659
 7699SOL    HW123996   3.371   0.983   6.434 -2.9507 -0.4129  0.3723
 7699SOL    HW223997   3.403   1.141   6.458  1.1758 -0.8076 -1.6951
 7700SOL     OW23998   5.571   6.544   2.637  0.1469 -0.0842 -0.0724
 7700SOL    HW123999   5.603   6.460   2.682  0.8339 -0.1409 -0.6565
 7700SOL    HW224000   5.599   6.543   2.541  0.1497  0.8139 -0.0870
 7701SOL     OW24001   2.932   0.913   5.211  0.2668  0.4437  0.2874
 7701SOL    HW124002   3.026   0.924   5.179  0.1872  1.2704  0.3334
 7701SOL    HW224003   2.913   0.980   5.282 -0.5232  0.6294 -0.0931
 7702SOL     OW24004   5.319   2.232   5.964 -0.5869  0.0687  0.4186
 7702SOL    HW124005   5.350   2.215   5.871 -1.6548  0.9149 -0.1084
 7702SOL    HW224006   5.394   2.268   6.019  0.1773 -0.8944  0.0290
 7703SOL     OW24007   5.145   6.735   2.044 -0.3926 -0.0887  0.2727
 7703SOL    HW124008   5.052   6.705   2.067 -0.4595  0.8863  1.3250
 7703SOL    HW224009   5.142   6.792   1.962 -0.7247 -0.0151  0.3345
 7704SOL     OW24010   1.787   3.419   5.530 -0.8429  0.1420  0.1021
 7704SOL    HW124011   1.786   3.509   5.485 -0.6248  0.1978  0.2077
 7704SOL    HW224012   1.876   3.376   5.518 -0.2037  0.8728  1.8846
 7705SOL     OW24013   4.283   4.530   6.232  0.2808 -0.0123 -0.6868
 7705SOL    HW124014   4.188   4.521   6.200  0.3708  0.4367 -1.0795
 7705SOL    HW224015   4.341   4.559   6.157  0.6222  0.3289 -0.2969
 7706SOL     OW24016   1.618   4.105   1.179  0.3036  0.1073  0.1461
 7706SOL    HW124017   1.538   4.147   1.136 -0.2459 -1.0334  0.0023
 7706SOL    HW224018   1.612   4.113   1.278 -0.8934 -1.4755  0.2371
 7707SOL     OW24019   5.523   5.781   4.288  0.2882  0.0102 -0.1524
 7707SOL    HW124020   5.569   5.816   4.207  1.3933  0.5207  0.6680
 7707SOL    HW224021   5.575   5.806   4.370 -1.8843  1.3611  0.9029
 7708SOL     OW24022   5.304   2.807   5.428  0.0971  0.0667 -0.4989
 7708SOL    HW124023   5.227   2.749   5.456 -0.1069 -0.6507 -2.3989
 7708SOL    HW224024   5.289   2.900   5.462  0.0044 -0.7339  1.8677
 7709SOL     OW24025   2.482   0.544   0.866  0.0664 -0.0691 -0.1501
 7709SOL    HW124026   2.528   0.478   0.807 -2.2931 -1.6076 -0.4086
 7709SOL    HW224027   2.409   0.590   0.816 -0.3143  0.4794  0.8643
 7710SOL     OW24028   2.491   2.775   5.277 -0.0703 -0.2499  0.2207
 7710SOL    HW124029   2.418   2.708   5.265  0.4860 -0.5640 -1.7723
 7710SOL    HW224030   2.473   2.855   5.219 -0.8961  1.5769  2.7824
 7711SOL     OW24031   3.369   5.016   0.379  0.1291  0.0550  0.5187
 7711SOL    HW124032   3.451   5.039   0.431  1.0919 -0.0964 -0.8922
 7711SOL    HW224033   3.294   4.995   0.442  0.7280  1.6891  1.8383
 7712SOL     OW24034   5.783   1.727   1.808 -0.3534  0.2820 -0.4556
 7712SOL    HW124035   5.708   1.782   1.769 -1.2361 -0.0058  0.7771
 7712SOL    HW224036   5.843   1.697   1.735 -0.7312  1.5833 -1.3432
 7713SOL     OW24037   3.160   1.563   0.786 -0.1482 -0.6996 -0.3169
 7713SOL    HW124038   3.149   1.663   0.779  2.0693 -0.4122 -0.3715
 7713SOL    HW224039   3.163   1.524   0.694  2.2055 -0.3557 -0.4410
 7714SOL     OW24040   2.430   4.032   6.622 -0.4090 -0.4863  0.3102
 7714SOL    HW124041   2.370   4.071   6.692 -1.1749 -3.6303  1.5889
 7714SOL    HW224042   2.474   3.950   6.658  0.7605 -1.0831 -2.2762
 7715SOL     OW24043   1.169   6.502   4.171  0.5562  0.0448 -0.0557
 7715SOL    HW124044   1.069   6.494   4.170  0.4374  1.1406  0.7295
 7715SOL    HW224045   1.197   6.574   4.107  0.8048  0.0609  0.0697
 7716SOL     OW24046   5.997   3.750   3.774 -0.0198  0.2394  0.2205
 7716SOL    HW124047   6.015   3.775   3.679 -0.4716 -4.2819 -1.3194
 7716SOL    HW224048   5.900   3.760   3.794 -0.3486 -0.9359 -0.6572
 7717SOL     OW24049   5.606   0.614   2.172 -0.1756  0.1890  0.5393
 7717SOL    HW124050   5.527   0.653   2.125  0.1196  0.1493 -0.0045
 7717SOL    HW224051   5.623   0.664   2.257 -0.2440  0.7809  0.2140
 7718SOL     OW24052   0.481   1.419   5.488  0.2219  0.4453  0.6687
 7718SOL    HW124053   0.425   1.433   5.570 -0.2758 -3.7874  1.2894
 7718SOL    HW224054   0.576   1.406   5.515  0.1281 -0.5094  0.5781
 7719SOL     OW24055   1.726   2.648   6.575  0.3654  0.1121  0.4329
 7719SOL    HW124056   1.679   2.562   6.553 -1.1357  0.6568  1.3534
 7719SOL    HW224057   1.658   2.719   6.593  1.4828  2.3822 -3.3272
 7720SOL     OW24058   2.113   4.456   0.534  0.1511 -0.1876  0.2122
 7720SOL    HW124059   2.124   4.550   0.564 -0.2966 -0.7065  2.1705
 7720SOL    HW224060   2.202   4.417   0.511  1.0347 -0.5529  3.6695
 7721SOL     OW24061   4.594   5.912   4.517  0.0964 -0.9943 -0.0576
 7721SOL    HW124062   4.525   5.976   4.483  0.0042 -0.5011  1.0201
 7721SOL    HW224063   4.668   5.905   4.450 -1.1315 -1.7932 -1.3918
 7722SOL     OW24064   5.948   2.009   5.950  0.5862  0.6996  0.4466
 7722SOL    HW124065   5.896   2.078   5.900 -0.2000 -0.1998  0.0046
 7722SOL    HW224066   5.893   1.975   6.027  0.6269 -0.0384  0.1571
 7723SOL     OW24067   3.883   2.977   6.595 -0.0455 -0.3134  0.6200
 7723SOL    HW124068   3.861   2.880   6.579 -2.6515  0.1886  0.7293
 7723SOL    HW224069   3.864   3.029   6.512  0.5257  0.2400  0.8342
 7724SOL     OW24070   0.093   2.247   5.052 -0.0321  0.3167 -0.2178
 7724SOL    HW124071  -0.004   2.229   5.067  0.5632 -1.1013  2.5103
 7724SOL    HW224072   0.124   2.197   4.972 -0.9494 -1.6513  0.5931
 7725SOL     OW24073   4.031   3.635   1.196 -0.2707  0.1035 -0.6854
 7725SOL    HW124074   4.116   3.673   1.233 -0.2408  0.2891 -0.9485
 7725SOL    HW224075   4.049   3.595   1.107 -0.3593 -0.2860 -0.5299
 7726SOL     OW24076   1.318   2.843   2.212 -0.5458 -0.3737  0.1333
 7726SOL    HW124077   1.369   2.922   2.177 -1.6295  0.2745 -0.0170
 7726SOL    HW224078   1.354   2.818   2.302 -0.6946  0.7967  0.5356
 7727SOL     OW24079   0.658   5.294   6.610  0.0821 -0.2182  0.4004
 7727SOL    HW124080   0.581   5.282   6.673  0.0593  0.4196  0.5009
 7727SOL    HW224081   0.666   5.213   6.551  0.0021 -0.7461  1.1094
 7728SOL     OW24082   6.129   6.930   5.737  0.2238 -0.2061  0.2106
 7728SOL    HW124083   6.187   6.907   5.815  2.2165  1.0087 -0.8227
 7728SOL    HW224084   6.092   7.022   5.749 -0.1874 -0.3540  0.1041
 7729SOL     OW24085   0.461   1.999   1.111 -0.4512  0.0425 -0.5177
 7729SOL    HW124086   0.393   2.058   1.067 -0.0558 -1.3302 -3.1471
 7729SOL    HW224087   0.457   2.013   1.210 -2.5798  2.0645 -0.7891
 7730SOL     OW24088   5.587   1.366   4.710  0.2226  0.0357 -0.1796
 7730SOL    HW124089   5.566   1.422   4.630  0.2980 -0.2557 -0.4053
 7730SOL    HW224090   5.504   1.351   4.763  0.3798  1.1880  0.4256
 7731SOL     OW24091   6.212   6.630   3.613  0.1697  0.0759 -0.1199
 7731SOL    HW124092   6.118   6.626   3.578  0.5259 -0.5785 -1.0375
 7731SOL    HW224093   6.213   6.603   3.710 -0.7503  1.3276  0.2667
 7732SOL     OW24094   4.702   1.514   0.746  0.1616 -0.5837 -0.5533
 7732SOL    HW124095   4.694   1.476   0.837 -1.1654 -0.0798 -0.4342
 7732SOL    HW224096   4.622   1.571   0.726  1.6194  1.4215 -1.0514
 7733SOL     OW24097   2.410   1.691   6.473  0.4796  0.2956  0.0291
 7733SOL    HW124098   2.324   1.740   6.456  0.2400 -0.5117 -1.2219
 7733SOL    HW224099   2.486   1.746   6.440  0.2392  0.0192 -1.0358
 7734SOL     OW24100   1.911   2.785   5.592 -0.1387  0.5257 -0.2389
 7734SOL    HW124101   1.952   2.741   5.671 -0.8290 -0.2512 -0.2971
 7734SOL    HW224102   1.982   2.805   5.524  0.2596 -0.0391  0.0067
 7735SOL     OW24103   1.723   0.753   2.435  0.6377 -0.2555  0.1408
 7735SOL    HW124104   1.700   0.819   2.363 -2.3214 -0.6415  0.5857
 7735SOL    HW224105   1.724   0.661   2.397 -0.4197 -0.4103  0.4495
 7736SOL     OW24106   0.470   5.937   2.685 -0.0352 -0.0306  0.0176
 7736SOL    HW124107   0.530   5.954   2.763  0.5532  0.2777 -0.4933
 7736SOL    HW224108   0.519   5.884   2.616 -0.9434 -1.3958  0.3716
 7737SOL     OW24109   3.017   0.082   1.846  0.8488  0.0200 -0.2591
 7737SOL    HW124110   3.102   0.058   1.800  0.8535 -1.9764  0.6774
 7737SOL    HW224111   2.940   0.041   1.798  0.6979 -0.6269  0.5144
 7738SOL     OW24112   3.021   3.247   4.076 -0.0751 -0.0938 -0.1487
 7738SOL    HW124113   2.997   3.344   4.073  1.5486  0.3300 -0.8994
 7738SOL    HW224114   2.994   3.204   3.989 -1.0614 -0.4016  0.2984
 7739SOL     OW24115   2.691   1.647   5.162 -0.3295  0.2420  0.6932
 7739SOL    HW124116   2.608   1.682   5.204 -0.4548  0.5008  0.2363
 7739SOL    HW224117   2.681   1.548   5.146  0.1917 -0.1150  2.3749
 7740SOL     OW24118   5.735   5.310   5.813  0.0389  0.0197  1.0812
 7740SOL    HW124119   5.747   5.399   5.769  0.7585 -0.6194 -0.0593
 7740SOL    HW224120   5.779   5.311   5.903  0.5876  0.6219  0.8118
 7741SOL     OW24121   0.008   2.749   0.871 -0.2475  0.4051 -0.5126
 7741SOL    HW124122  -0.045   2.755   0.956  0.5195 -0.3359  0.0422
 7741SOL    HW224123  -0.053   2.728   0.795 -0.7355 -0.5831  0.1346
 7742SOL     OW24124   5.265   2.870   6.417 -0.2635  0.3087  0.8278
 7742SOL    HW124125   5.244   2.790   6.362  0.8743 -0.1413  1.0150
 7742SOL    HW224126   5.310   2.841   6.502 -0.4440  1.1036  1.2064
 7743SOL     OW24127   1.779   1.423   1.439  0.4776 -0.0780  0.0237
 7743SOL    HW124128   1.809   1.386   1.527  0.4736 -1.5536 -0.5591
 7743SOL    HW224129   1.813   1.364   1.365  3.0186  2.6845 -1.2280
 7744SOL     OW24130   6.127   0.949   4.345  0.0155  0.6006 -0.1324
 7744SOL    HW124131   6.211   0.962   4.398  0.2238 -0.3496 -0.1989
 7744SOL    HW224132   6.073   0.876   4.387  0.1013 -0.0479 -1.1130
 7745SOL     OW24133   3.632   3.041   2.349  0.7028 -0.6514  0.1306
 7745SOL    HW124134   3.538   3.010   2.358  0.2799  0.2815 -0.8231
 7745SOL    HW224135   3.654   3.104   2.424  1.5561 -3.1111  2.0471
 7746SOL     OW24136   3.088   0.803   4.298 -0.4434 -0.0132  0.2221
 7746SOL    HW124137   3.009   0.786   4.357  0.4375 -0.3246  1.3387
 7746SOL    HW224138   3.080   0.893   4.256 -0.3152  0.9255  2.1099
 7747SOL     OW24139   3.884   1.290   1.587  0.0375  0.3735  0.1404
 7747SOL    HW124140   3.825   1.240   1.650  0.1276  1.5913  1.2550
 7747SOL    HW224141   3.833   1.368   1.549  1.0929  1.9155  1.7364
 7748SOL     OW24142   6.368   4.617   0.898 -0.1706  0.0820 -0.6632
 7748SOL    HW124143   6.270   4.628   0.880 -0.4441 -2.3540 -1.0514
 7748SOL    HW224144   6.420   4.641   0.816 -0.4440  1.1182 -0.5436
 7749SOL     OW24145   5.229   2.028   1.465  0.4965 -0.2381 -0.7318
 7749SOL    HW124146   5.185   2.092   1.401 -0.9689 -1.0377 -0.5810
 7749SOL    HW224147   5.159   1.970   1.506  1.8546 -2.4589 -1.4222
 7750SOL     OW24148   2.068   0.730   5.712  0.4333 -0.5364  0.3711
 7750SOL    HW124149   1.976   0.735   5.753  0.9808 -0.9080  1.7014
 7750SOL    HW224150   2.079   0.640   5.669  1.0744 -1.5887  2.5701
 7751SOL     OW24151   1.809   5.544   3.842  0.3814 -0.3029 -0.0733
 7751SOL    HW124152   1.729   5.503   3.799  0.6976 -0.8750 -0.1263
 7751SOL    HW224153   1.800   5.540   3.941 -0.0025  0.3341 -0.0744
 7752SOL     OW24154   4.416   6.831   4.386 -0.0489 -0.9233 -0.1455
 7752SOL    HW124155   4.464   6.819   4.473  1.0162  0.3399 -0.5240
 7752SOL    HW224156   4.471   6.790   4.313 -0.3886 -0.9786 -0.3665
 7753SOL     OW24157   5.931   4.764   6.194 -0.7258 -0.1047  0.3530
 7753SOL    HW124158   5.971   4.678   6.225 -0.0460 -0.4599 -1.3992
 7753SOL    HW224159   5.832   4.762   6.210 -0.5897 -0.8175  1.1910
 7754SOL     OW24160   0.106   2.909   4.893  0.3086  0.2687  0.1501
 7754SOL    HW124161   0.178   2.852   4.854  0.6030  1.7864 -1.6770
 7754SOL    HW224162   0.060   2.859   4.966  0.9296 -2.0641 -0.9464
 7755SOL     OW24163   3.596   1.418   2.386 -0.0229  0.3686 -0.5683
 7755SOL    HW124164   3.532   1.496   2.389 -1.2880 -0.6719  0.3857
 7755SOL    HW224165   3.589   1.374   2.297 -0.5702  0.3342 -0.5158
 7756SOL     OW24166   4.805   0.072   3.289 -0.4477  0.0870  0.4345
 7756SOL    HW124167   4.837   0.067   3.384  2.0230  1.4589 -0.2407
 7756SOL    HW224168   4.883   0.066   3.227 -1.8826  0.4368 -1.5081
 7757SOL     OW24169   5.808   2.886   3.278  0.5910 -0.0989  0.2435
 7757SOL    HW124170   5.874   2.861   3.207  1.3141  0.2825  0.7661
 7757SOL    HW224171   5.846   2.960   3.334  0.2535 -0.7421  1.3552
 7758SOL     OW24172   4.716   2.004   3.799 -0.1873 -0.6862 -0.9067
 7758SOL    HW124173   4.702   1.936   3.872 -0.9041 -0.5098 -0.8691
 7758SOL    HW224174   4.782   2.072   3.829 -0.3427 -0.7162 -0.4925
 7759SOL     OW24175   2.962   0.550   5.367 -0.0199 -0.8965 -0.2294
 7759SOL    HW124176   2.871   0.590   5.358 -0.7760 -2.4629  0.0534
 7759SOL    HW224177   3.013   0.598   5.439 -0.5672  0.0726 -0.4741
 7760SOL     OW24178   0.120   3.738   1.831 -0.0655 -0.2466  0.4715
 7760SOL    HW124179   0.205   3.731   1.779 -1.6396  1.2643 -2.4944
 7760SOL    HW224180   0.134   3.799   1.909  1.6164 -0.2553  0.2242
 7761SOL     OW24181   2.388   1.576   5.541 -0.3788  0.1789  0.3104
 7761SOL    HW124182   2.462   1.521   5.578 -2.5284 -2.5774  0.8070
 7761SOL    HW224183   2.341   1.624   5.615 -0.2714  0.4099  0.2312
 7762SOL     OW24184   0.492   4.738   1.540 -0.6152  0.6081  0.1625
 7762SOL    HW124185   0.497   4.725   1.639 -0.7061  0.5150  0.1547
 7762SOL    HW224186   0.582   4.761   1.505 -0.9178  2.7080  0.5695
 7763SOL     OW24187   4.780   5.059   3.212 -0.0723  0.6831 -0.1291
 7763SOL    HW124188   4.704   5.097   3.158  0.8008 -0.7987 -2.5569
 7763SOL    HW224189   4.865   5.066   3.160  0.5766 -2.1333  0.3599
 7764SOL     OW24190   3.081   5.998   0.075 -0.1430 -0.3162 -0.0063
 7764SOL    HW124191   3.143   5.920   0.089  0.4373  0.2798  0.7979
 7764SOL    HW224192   3.024   5.980  -0.006  1.8814 -0.3729 -1.5173
 7765SOL     OW24193   6.543   2.864   6.715 -0.1026 -0.0202 -0.2041
 7765SOL    HW124194   6.556   2.934   6.644 -0.0873 -0.2951 -0.4720
 7765SOL    HW224195   6.460   2.884   6.766  1.1023  1.5678  1.2904
 7766SOL     OW24196   0.423   4.526   5.363  0.1765  0.2156  0.9852
 7766SOL    HW124197   0.421   4.620   5.331 -0.1050  0.0125  0.3881
 7766SOL    HW224198   0.329   4.490   5.366  0.4656 -1.1222 -2.1148
 7767SOL     OW24199   6.207   0.136   6.069  0.3561  0.3322 -0.2553
 7767SOL    HW124200   6.121   0.086   6.065 -0.0093  0.9258 -0.0269
 7767SOL    HW224201   6.251   0.135   5.979 -0.2148  0.5844 -0.5397
 7768SOL     OW24202   5.278   3.364   0.893 -0.2726 -0.1518  0.4822
 7768SOL    HW124203   5.314   3.444   0.846 -0.5745 -0.5090 -0.3799
 7768SOL    HW224204   5.306   3.366   0.989  0.0796  0.7582  0.3684
 7769SOL     OW24205   2.229   2.237   1.622  1.0123 -0.0685 -0.6806
 7769SOL    HW124206   2.174   2.321   1.615  2.3560  0.7245 -2.4351
 7769SOL    HW224207   2.325   2.261   1.637  1.2424 -1.3614  0.0876
 7770SOL     OW24208   3.500   5.996   4.701 -0.1688 -0.0224 -0.7977
 7770SOL    HW124209   3.508   5.918   4.640 -1.0330 -0.3928 -0.4543
 7770SOL    HW224210   3.586   6.009   4.751 -0.1667 -1.0589 -0.5040
 7771SOL     OW24211   3.961   2.256   3.673  0.5652  0.5594 -0.4760
 7771SOL    HW124212   4.023   2.179   3.659  1.1029  0.6574  1.0906
 7771SOL    HW224213   3.867   2.226   3.659  0.8068 -0.2446 -0.4404
 7772SOL     OW24214   2.671   4.582   3.172  0.0056  0.7177  0.2545
 7772SOL    HW124215   2.761   4.544   3.196 -0.3920 -0.6449 -0.3052
 7772SOL    HW224216   2.682   4.648   3.098  0.6686  1.4086  0.9499
 7773SOL     OW24217   1.263   6.072   5.972 -0.0278 -0.4411  0.4280
 7773SOL    HW124218   1.278   6.042   5.878 -0.0161 -0.0658  0.3092
 7773SOL    HW224219   1.256   5.992   6.031  0.7930 -0.6667  0.2353
 7774SOL     OW24220   1.663   0.447   6.945 -0.1656 -0.1153 -0.0016
 7774SOL    HW124221   1.590   0.383   6.921  0.0667 -0.1184 -0.7438
 7774SOL    HW224222   1.714   0.413   7.024 -2.7468  1.2669  2.4298
 7775SOL     OW24223   6.210   4.421   2.139  0.2287 -0.6324 -0.1680
 7775SOL    HW124224   6.261   4.400   2.055 -1.0055 -3.0942 -0.4033
 7775SOL    HW224225   6.117   4.385   2.131 -0.2701  0.0710  1.8544
 7776SOL     OW24226   2.669   6.089   4.074  0.1579 -0.1678 -0.1679
 7776SOL    HW124227   2.573   6.061   4.069 -0.1477  0.5645  1.1553
 7776SOL    HW224228   2.725   6.026   4.020 -1.0778 -0.4910 -1.1219
 7777SOL     OW24229   3.504   0.141   5.974  0.4388 -0.6517 -0.4589
 7777SOL    HW124230   3.492   0.042   5.960 -0.0545 -0.5553 -0.7618
 7777SOL    HW224231   3.543   0.182   5.891 -1.3622 -0.2676 -1.1712
 7778SOL     OW24232   1.851   2.002   5.915  0.0436 -0.0825 -0.2765
 7778SOL    HW124233   1.775   2.038   5.970  0.4185 -2.7915  2.2786
 7778SOL    HW224234   1.822   1.917   5.871  1.3592 -0.7498  0.1120
 7779SOL     OW24235   3.904   5.930   6.645  0.1238  0.5198  0.5764
 7779SOL    HW124236   3.857   6.015   6.622 -0.8594  0.3280  1.7938
 7779SOL    HW224237   3.916   5.923   6.744 -0.7584 -1.2174  0.6076
 7780SOL     OW24238   1.737   1.409   1.912 -0.0097 -0.6908 -0.6109
 7780SOL    HW124239   1.674   1.436   1.839  1.4361  0.5988 -1.4341
 7780SOL    HW224240   1.730   1.474   1.988 -0.3995 -1.1490 -0.2458
 7781SOL     OW24241   1.573   3.392   2.378  0.4669 -0.4345  0.0223
 7781SOL    HW124242   1.672   3.409   2.380  0.4133 -0.1810  0.9824
 7781SOL    HW224243   1.555   3.300   2.414  0.2337  0.1901  1.5616
 7782SOL     OW24244   2.873   3.458   5.857  0.2418  0.7379  0.0536
 7782SOL    HW124245   2.927   3.421   5.782  0.8203 -0.2176  0.9074
 7782SOL    HW224246   2.780   3.476   5.827  0.0931 -0.8918 -0.5648
 7783SOL     OW24247   1.402   2.501   6.038 -0.0265  0.4356 -0.5013
 7783SOL    HW124248   1.499   2.492   6.062  0.3205  1.6005 -1.3900
 7783SOL    HW224249   1.393   2.509   5.939 -1.1556 -0.9343 -0.5364
 7784SOL     OW24250   2.146   2.886   5.454  0.0442 -0.1388 -0.1147
 7784SOL    HW124251   2.162   2.898   5.356 -1.2360  1.0310 -0.2097
 7784SOL    HW224252   2.214   2.938   5.506 -0.6365  1.1057 -0.4322
 7785SOL     OW24253   4.625   5.779   3.977  0.6603 -0.9372  0.3573
 7785SOL    HW124254   4.641   5.877   3.984  0.6220 -0.9326  0.3823
 7785SOL    HW224255   4.532   5.758   4.006  0.3603 -0.8699 -0.5311
 7786SOL     OW24256   2.308   3.739   5.744 -0.0357 -0.2917  0.1608
 7786SOL    HW124257   2.365   3.738   5.662 -2.7961 -0.5965 -1.8617
 7786SOL    HW224258   2.313   3.830   5.786  0.2018  0.3591 -1.2304
 7787SOL     OW24259   0.456   3.068   4.270 -0.6303  0.3553 -0.5801
 7787SOL    HW124260   0.488   2.978   4.298 -1.3557 -0.0717 -1.0881
 7787SOL    HW224261   0.489   3.088   4.178  2.5663  2.1616  0.7831
 7788SOL     OW24262   4.076   0.789   5.947  0.3833  0.0564 -0.3377
 7788SOL    HW124263   4.103   0.842   6.027 -0.4638  0.3891 -0.2628
 7788SOL    HW224264   4.004   0.838   5.897  0.0574 -0.7049 -0.6394
 7789SOL     OW24265   1.020   2.283   4.769  0.0076 -0.2516  0.3304
 7789SOL    HW124266   0.992   2.379   4.771 -1.9475 -0.7872  1.6132
 7789SOL    HW224267   0.996   2.240   4.856  0.9945 -1.8816 -0.1666
 7790SOL     OW24268   4.212   6.462   3.084 -0.2347 -0.3229 -0.2457
 7790SOL    HW124269   4.177   6.370   3.064 -0.1629 -0.4662  0.2739
 7790SOL    HW224270   4.260   6.461   3.171  0.8204 -0.0590 -0.7992
 7791SOL     OW24271   6.783   4.700   4.678  0.9872  0.0838 -0.4158
 7791SOL    HW124272   6.834   4.785   4.664  1.9515  0.0882  2.3552
 7791SOL    HW224273   6.838   4.639   4.735 -0.7918 -1.3095 -0.1292
 7792SOL     OW24274   3.196   1.950   3.182  0.3938 -0.3230 -0.0406
 7792SOL    HW124275   3.178   1.858   3.147 -0.2231  0.1467 -0.9910
 7792SOL    HW224276   3.295   1.964   3.188  0.4961 -1.0834  0.2339
 7793SOL     OW24277   0.821   4.574   3.802 -0.1874 -0.4027 -0.0132
 7793SOL    HW124278   0.753   4.574   3.875 -2.7800 -1.0863 -2.2686
 7793SOL    HW224279   0.787   4.627   3.724  1.5525 -1.3670 -1.5166
 7794SOL     OW24280   4.431   0.910   1.508 -0.2861 -0.5027  0.1097
 7794SOL    HW124281   4.378   0.857   1.442 -1.5625  0.3033  0.4525
 7794SOL    HW224282   4.436   1.005   1.478 -0.3748 -0.2510  0.8541
 7795SOL     OW24283   2.826   5.744   3.697  0.1654 -0.1349  0.4686
 7795SOL    HW124284   2.891   5.668   3.698  1.1789  0.6885 -0.0190
 7795SOL    HW224285   2.741   5.715   3.652  0.6725 -0.8708 -0.0423
 7796SOL     OW24286   6.334   7.012   0.717 -0.1774 -0.2316 -0.2883
 7796SOL    HW124287   6.369   6.933   0.667  0.0629 -0.0642 -0.3877
 7796SOL    HW224288   6.350   7.095   0.663  2.1308  0.2572  1.0079
 7797SOL     OW24289   4.858   1.528   3.112 -0.2378  0.1138  0.2313
 7797SOL    HW124290   4.946   1.509   3.069  0.6189  1.5858  1.2342
 7797SOL    HW224291   4.784   1.496   3.053  0.9423 -0.4829 -0.9743
 7798SOL     OW24292   5.999   6.291   4.463 -0.4835 -0.1229  0.4685
 7798SOL    HW124293   6.015   6.317   4.558 -1.4346  0.3670  0.5050
 7798SOL    HW224294   5.948   6.205   4.459  0.5047 -0.7254  0.3733
 7799SOL     OW24295   5.428   4.716   0.930  0.0180 -0.0158  0.1385
 7799SOL    HW124296   5.353   4.755   0.876  0.7310  0.4384 -0.5374
 7799SOL    HW224297   5.449   4.778   1.006 -0.7518 -0.4859  0.7496
 7800SOL     OW24298   5.422   1.110   2.363  0.1243 -0.0209  0.4582
 7800SOL    HW124299   5.332   1.066   2.366 -0.0986  0.4546  1.0200
 7800SOL    HW224300   5.439   1.157   2.450  0.7056  0.3006  0.1774
 7801SOL     OW24301   6.070   5.357   0.101  0.1372  0.4897 -0.4096
 7801SOL    HW124302   6.133   5.280   0.115 -0.8291 -0.2917 -0.2692
 7801SOL    HW224303   6.118   5.443   0.122  1.3571 -0.0210 -0.9663
 7802SOL     OW24304   1.967   3.085   1.425 -0.3150 -0.2289 -0.3201
 7802SOL    HW124305   1.912   3.028   1.364 -1.0282 -0.8207  0.8315
 7802SOL    HW224306   1.911   3.160   1.461 -1.0859 -1.9320  2.3847
 7803SOL     OW24307   5.670   3.163   2.266 -0.1885 -0.5368  0.2040
 7803SOL    HW124308   5.577   3.189   2.241  0.0483 -0.8666 -1.0748
 7803SOL    HW224309   5.715   3.241   2.312 -1.3126 -0.6298  1.5088
 7804SOL     OW24310   1.675   4.847   2.594 -0.1501 -0.1592  0.4075
 7804SOL    HW124311   1.606   4.824   2.526 -0.7454  0.8842  0.6474
 7804SOL    HW224312   1.754   4.890   2.549 -0.4852  0.4067  0.3493
 7805SOL     OW24313   2.451   5.267   1.937  0.2458  0.1774  0.1635
 7805SOL    HW124314   2.537   5.261   1.887 -1.0194  1.6517 -2.3800
 7805SOL    HW224315   2.456   5.343   2.003  0.4711  1.1914 -0.9764
 7806SOL     OW24316   0.162   5.237   1.927  0.4231 -0.3023  0.2063
 7806SOL    HW124317   0.080   5.283   1.894  1.6481  0.5384 -1.8502
 7806SOL    HW224318   0.170   5.147   1.885 -0.9017 -1.7031  2.6796
 7807SOL     OW24319   1.131   0.914   1.874  0.5712 -0.5535 -0.4814
 7807SOL    HW124320   1.038   0.879   1.887  0.3756  0.5165  1.4447
 7807SOL    HW224321   1.140   0.952   1.782 -1.7866  1.7268  0.1078
 7808SOL     OW24322   4.841   1.787   4.980  0.0590  0.1998 -0.5836
 7808SOL    HW124323   4.822   1.810   4.885 -1.0490  0.5560 -0.2906
 7808SOL    HW224324   4.913   1.717   4.984 -0.7727 -0.7557 -1.7284
 7809SOL     OW24325   3.285   4.880   3.230 -0.3485 -0.1791 -0.0397
 7809SOL    HW124326   3.356   4.948   3.209  0.7516 -0.7964  1.4708
 7809SOL    HW224327   3.202   4.926   3.260 -0.2915  0.5342 -0.9311
 7810SOL     OW24328   2.177   1.124   2.688 -0.2070 -0.1542 -0.1548
 7810SOL    HW124329   2.144   1.201   2.632 -0.1904 -0.1302 -0.1316
 7810SOL    HW224330   2.114   1.110   2.764  0.4965  0.7043  0.6110
 7811SOL     OW24331   5.447   6.094   5.086 -0.0324  0.3459  0.5925
 7811SOL    HW124332   5.435   6.193   5.093 -1.0185  0.1504  2.3530
 7811SOL    HW224333   5.506   6.062   5.160 -0.5153 -0.4822  0.6304
 7812SOL     OW24334   4.390   4.644   3.558  0.4541  0.3987  0.1161
 7812SOL    HW124335   4.453   4.571   3.585  0.7713  0.5081 -0.3122
 7812SOL    HW224336   4.417   4.729   3.602  0.6254  0.4503 -0.0834
 7813SOL     OW24337   6.681   0.292   0.117 -0.0413 -0.2023  0.5309
 7813SOL    HW124338   6.756   0.271   0.181 -0.6130 -1.6348  0.7743
 7813SOL    HW224339   6.597   0.306   0.168 -0.3726 -0.7261  0.1381
 7814SOL     OW24340   5.401   4.873   1.845  0.5523  0.2040  0.0600
 7814SOL    HW124341   5.370   4.958   1.886 -0.9875  0.9619 -2.4386
 7814SOL    HW224342   5.469   4.893   1.774  0.7136 -0.7217 -0.0599
 7815SOL     OW24343   0.489   3.915   0.249  0.2154 -0.2710 -0.8539
 7815SOL    HW124344   0.545   3.880   0.173  1.5163  1.1413 -0.5960
 7815SOL    HW224345   0.393   3.906   0.225  0.4377 -3.4395 -1.0267
 7816SOL     OW24346   6.441   3.309   3.635  0.1230  0.4154 -0.1730
 7816SOL    HW124347   6.341   3.313   3.636  0.1054  0.0136  0.4027
 7816SOL    HW224348   6.476   3.349   3.719  0.2811 -2.6504  1.3567
 7817SOL     OW24349   1.803   2.963   1.239  0.1641 -0.7238 -0.2559
 7817SOL    HW124350   1.712   2.974   1.198 -0.2883 -1.5664  0.4826
 7817SOL    HW224351   1.810   2.872   1.280  1.4126 -0.7362 -0.4606
 7818SOL     OW24352   3.344   0.092   5.256  0.0791  0.0253 -0.1374
 7818SOL    HW124353   3.420   0.084   5.320  0.5003 -0.2291 -0.6583
 7818SOL    HW224354   3.360   0.170   5.195 -0.0810 -0.0231 -0.2441
 7819SOL     OW24355   2.777   6.335   2.393  0.0332 -0.0299 -0.2429
 7819SOL    HW124356   2.813   6.427   2.386  1.2515 -0.4962 -0.3239
 7819SOL    HW224357   2.801   6.283   2.311  1.2107 -1.0264  0.6960
 7820SOL     OW24358   3.326   6.235   1.848  0.5646 -0.0970 -0.1902
 7820SOL    HW124359   3.361   6.199   1.935 -0.6181  1.1114  0.8296
 7820SOL    HW224360   3.237   6.193   1.829  1.0059 -0.6687 -1.0643
 7821SOL     OW24361   6.354   1.570   2.769  0.2780  0.1153 -0.2899
 7821SOL    HW124362   6.266   1.611   2.746 -0.4378 -0.6378  1.0124
 7821SOL    HW224363   6.422   1.642   2.782 -0.5185  0.7929  0.1904
 7822SOL     OW24364   4.749   5.775   0.992 -0.2178  0.1149  0.0492
 7822SOL    HW124365   4.674   5.840   1.008 -0.3655 -0.0913  0.2055
 7822SOL    HW224366   4.751   5.749   0.896 -0.8873 -0.5258  0.1960
 7823SOL     OW24367   6.895   1.536   5.269  0.5196  0.1543 -0.2073
 7823SOL    HW124368   6.961   1.463   5.252  1.4300  0.9583 -0.1770
 7823SOL    HW224369   6.943   1.619   5.297 -0.6080  0.2898  1.4535
 7824SOL     OW24370   5.254   2.236   0.644 -0.6821 -0.0866 -0.0194
 7824SOL    HW124371   5.164   2.279   0.656 -0.7936 -0.7456  1.9347
 7824SOL    HW224372   5.313   2.263   0.720 -0.2918 -2.1963  0.4780
 7825SOL     OW24373   2.748   6.814   1.219  0.0367  0.4194 -0.5287
 7825SOL    HW124374   2.755   6.847   1.125  0.1539  1.7999 -0.0689
 7825SOL    HW224375   2.762   6.891   1.282  2.1908 -0.8304  0.6538
 7826SOL     OW24376   3.827   6.970   3.947 -0.4337 -0.1674  0.5708
 7826SOL    HW124377   3.749   6.935   3.894 -0.4200 -1.1284  1.1645
 7826SOL    HW224378   3.876   7.038   3.892 -0.4635 -1.0776 -0.6313
 7827SOL     OW24379   3.088   0.899   2.854 -0.1845  0.2931  0.9972
 7827SOL    HW124380   2.998   0.887   2.813 -0.1066  1.3157  0.5013
 7827SOL    HW224381   3.159   0.878   2.787 -0.0321 -0.5854  1.4084
 7828SOL     OW24382   1.369   0.243   3.961 -0.0018 -0.0946  0.3199
 7828SOL    HW124383   1.293   0.250   3.897 -1.0587 -0.8247  1.4659
 7828SOL    HW224384   1.425   0.163   3.937 -0.5109 -0.4867  0.4226
 7829SOL     OW24385   2.429   2.559   1.525  0.1391  0.1112  0.2737
 7829SOL    HW124386   2.435   2.541   1.426 -0.3732 -1.4170  0.5022
 7829SOL    HW224387   2.477   2.487   1.575 -0.1865  0.5099  1.1820
 7830SOL     OW24388   0.702   6.537   3.324 -0.5080  0.4749  1.0522
 7830SOL    HW124389   0.771   6.487   3.271  0.8001  2.2064  1.0488
 7830SOL    HW224390   0.613   6.495   3.310 -0.3176  1.0170 -2.8225
 7831SOL     OW24391   3.897   6.191   3.775  0.0488 -0.3325  0.1575
 7831SOL    HW124392   3.970   6.125   3.758  0.1344 -0.8505  2.2588
 7831SOL    HW224393   3.938   6.278   3.803 -0.0912  0.4584 -1.8879
 7832SOL     OW24394   6.692   0.559   4.265  0.5709  0.1934  0.2560
 7832SOL    HW124395   6.709   0.521   4.355  1.0579 -0.1020  0.0420
 7832SOL    HW224396   6.769   0.539   4.205 -0.7018 -1.6253 -0.8786
 7833SOL     OW24397   4.086   0.218   1.677 -0.3736 -0.4066  0.0601
 7833SOL    HW124398   4.041   0.279   1.742 -0.5043  0.2473 -0.6325
 7833SOL    HW224399   4.034   0.217   1.591 -1.0499 -2.4098  0.4346
 7834SOL     OW24400   3.364   1.795   6.493  0.2531  0.0872  0.7124
 7834SOL    HW124401   3.307   1.869   6.529 -0.4928 -0.4573  0.6789
 7834SOL    HW224402   3.453   1.832   6.465 -0.2842  1.0566  0.2342
 7835SOL     OW24403   1.868   0.126   3.110 -0.5070  0.3621 -0.0293
 7835SOL    HW124404   1.946   0.176   3.147 -0.7886  2.2500 -1.8035
 7835SOL    HW224405   1.789   0.140   3.170 -0.3011  1.1858  0.0617
 7836SOL     OW24406   1.374   6.801   5.197  0.3606  0.8227  0.6556
 7836SOL    HW124407   1.427   6.838   5.121  1.7504  2.6421  2.3909
 7836SOL    HW224408   1.281   6.836   5.194  0.6028  1.4410  0.1627
 7837SOL     OW24409   4.004   0.353   5.292 -0.0902  0.5798 -0.2030
 7837SOL    HW124410   3.959   0.366   5.381  1.6311 -0.6161  0.8957
 7837SOL    HW224411   3.942   0.384   5.220 -1.5616  1.5707  1.3787
 7838SOL     OW24412   2.712   5.346   1.360 -0.3366  0.0699 -0.1412
 7838SOL    HW124413   2.782   5.358   1.290  0.8650  0.3346  1.0760
 7838SOL    HW224414   2.622   5.360   1.319  0.3613  0.6916 -1.5248
 7839SOL     OW24415   2.473   6.484   5.915  0.4609 -0.2437  0.4519
 7839SOL    HW124416   2.374   6.480   5.928  0.3853  1.2085  0.4856
 7839SOL    HW224417   2.518   6.435   5.990 -0.1990  0.1084  1.0896
 7840SOL     OW24418   0.825   6.534   6.511 -0.8339  0.1131  0.3604
 7840SOL    HW124419   0.924   6.523   6.500 -0.7576  0.7071  0.4213
 7840SOL    HW224420   0.781   6.445   6.500 -0.1637 -0.4457  1.8460
 7841SOL     OW24421   5.490   5.571   5.980 -0.0874 -0.4040 -0.2299
 7841SOL    HW124422   5.481   5.651   6.039 -1.0160 -0.9725  0.4245
 7841SOL    HW224423   5.502   5.601   5.885 -1.5666  0.5099 -0.1551
 7842SOL     OW24424   6.137   3.995   5.015 -0.1627 -0.4189 -0.1455
 7842SOL    HW124425   6.215   3.961   5.067 -1.4798 -2.9448  0.3550
 7842SOL    HW224426   6.100   3.921   4.959 -2.0567  0.7596 -0.5317
 7843SOL     OW24427   5.147   6.294   2.979  0.0355  0.7146 -0.2608
 7843SOL    HW124428   5.218   6.354   3.016 -0.4073  1.0187  0.1213
 7843SOL    HW224429   5.065   6.302   3.036 -0.2249  0.1902 -0.5567
 7844SOL     OW24430   6.883   6.899   3.436  0.3287 -0.3310 -0.1656
 7844SOL    HW124431   6.931   6.835   3.496 -0.7260 -1.2142 -0.2273
 7844SOL    HW224432   6.789   6.868   3.424 -0.0342  0.9323 -0.6751
 7845SOL     OW24433   3.727   2.681   0.013 -0.2445 -0.2112  0.0331
 7845SOL    HW124434   3.720   2.729   0.100 -1.5914 -0.5288  0.1271
 7845SOL    HW224435   3.778   2.737  -0.052  2.7210 -0.8958  1.6192
 7846SOL     OW24436   1.156   0.429   3.711 -0.1042 -0.1767  0.0112
 7846SOL    HW124437   1.212   0.458   3.634 -1.9471  0.8032 -1.0248
 7846SOL    HW224438   1.160   0.329   3.719  1.7635 -0.1283 -0.0055
 7847SOL     OW24439   0.437   1.161   6.691 -0.2835  0.1644 -0.0225
 7847SOL    HW124440   0.534   1.187   6.689 -0.1159 -0.2028  1.7715
 7847SOL    HW224441   0.386   1.225   6.748 -0.6520 -0.9174  0.9019
 7848SOL     OW24442   3.617   6.844   0.621  0.1546  0.1355 -0.0897
 7848SOL    HW124443   3.690   6.807   0.679  0.6124  1.4693  0.2216
 7848SOL    HW224444   3.627   6.943   0.615 -0.8692  0.1922 -1.1229
 7849SOL     OW24445   5.088   2.725   5.579  0.2094  0.0318 -0.0200
 7849SOL    HW124446   5.056   2.632   5.596 -0.7914  0.0484 -1.5605
 7849SOL    HW224447   5.110   2.770   5.665 -1.7224 -0.7817  0.9529
 7850SOL     OW24448   4.364   1.926   0.239  0.3626 -0.1032  0.1491
 7850SOL    HW124449   4.443   1.867   0.259  0.9250  0.1951 -1.0751
 7850SOL    HW224450   4.338   1.976   0.321  2.7936  1.3870  0.0971
 7851SOL     OW24451   4.876   3.116   6.851  0.0856  0.8388  0.1593
 7851SOL    HW124452   4.865   3.112   6.951  1.2003  1.4574  0.3255
 7851SOL    HW224453   4.785   3.118   6.808 -0.4344 -1.3789  1.0399
 7852SOL     OW24454   4.148   3.596   6.712 -0.2422 -0.2269 -0.3584
 7852SOL    HW124455   4.127   3.595   6.614 -0.6926  1.4708 -0.3223
 7852SOL    HW224456   4.247   3.602   6.725 -0.2304  0.6009 -0.7519
 7853SOL     OW24457   0.256   4.104   3.536 -0.1143  0.8166 -0.5784
 7853SOL    HW124458   0.166   4.143   3.555 -1.5175 -0.8035 -3.1814
 7853SOL    HW224459   0.244   4.013   3.495  2.6920  0.8667 -1.7110
 7854SOL     OW24460   4.266   3.331   6.732 -0.0949  0.1593  0.0952
 7854SOL    HW124461   4.220   3.395   6.671 -1.2512 -0.9011 -0.1928
 7854SOL    HW224462   4.215   3.245   6.735  2.9694 -1.9391 -1.9443
 7855SOL     OW24463   3.496   2.149   2.795  0.0324 -0.1707 -0.1360
 7855SOL    HW124464   3.444   2.065   2.808 -0.9851  0.4553 -0.0002
 7855SOL    HW224465   3.476   2.213   2.869  0.6889  0.2433 -0.3018
 7856SOL     OW24466   4.078   2.355   5.374  0.1305  0.6239  0.8345
 7856SOL    HW124467   4.055   2.394   5.464 -0.1966  1.4939  0.3823
 7856SOL    HW224468   4.127   2.423   5.320  0.6289 -0.0173  0.4708
 7857SOL     OW24469   5.601   3.227   5.029 -0.2779 -0.7883  0.3899
 7857SOL    HW124470   5.684   3.259   4.983 -0.9233 -1.6325 -1.4584
 7857SOL    HW224471   5.616   3.135   5.064  0.8564  0.5230  3.7748
 7858SOL     OW24472   5.449   2.754   6.596 -0.2555 -0.4775 -0.2216
 7858SOL    HW124473   5.547   2.756   6.578 -0.2101 -1.3930 -0.1058
 7858SOL    HW224474   5.416   2.660   6.595 -1.6296 -0.0603 -2.8483
 7859SOL     OW24475   5.921   6.410   4.727  0.1326  0.4763  0.5033
 7859SOL    HW124476   5.900   6.353   4.806  0.5952  1.1172  1.0980
 7859SOL    HW224477   5.874   6.498   4.736  1.3781  1.1291  0.8211
 7860SOL     OW24478   1.818   2.410   2.977  0.4243  0.2864  0.1038
 7860SOL    HW124479   1.722   2.389   2.962  0.4352 -1.1416  1.7258
 7860SOL    HW224480   1.833   2.508   2.966 -0.7235  0.2787 -2.4513
 7861SOL     OW24481   5.337   0.419   1.803 -0.2475  0.0123 -0.6282
 7861SOL    HW124482   5.422   0.458   1.769 -0.4070  1.6201  0.6963
 7861SOL    HW224483   5.260   0.457   1.753 -0.3776  1.1630  0.4035
 7862SOL     OW24484   4.678   0.849   1.087 -0.0013 -0.8147  0.7770
 7862SOL    HW124485   4.687   0.886   0.994  0.1641 -1.0538  0.6992
 7862SOL    HW224486   4.676   0.749   1.084  0.0422 -0.8252  1.0346
 7863SOL     OW24487   5.834   6.973   3.207 -0.1017 -0.3532  0.0662
 7863SOL    HW124488   5.754   7.005   3.258  0.3124 -0.6895  0.9366
 7863SOL    HW224489   5.895   6.922   3.268  1.8867  1.7680 -0.0388
 7864SOL     OW24490   3.211   2.069   6.042 -0.3098  0.1788  0.0922
 7864SOL    HW124491   3.272   2.101   6.114 -0.2151  0.7377 -0.2331
 7864SOL    HW224492   3.165   1.986   6.073 -0.4036  0.5047  0.8669
 7865SOL     OW24493   2.036   6.183   4.208  0.1843 -0.4808  0.4228
 7865SOL    HW124494   2.129   6.210   4.233 -0.4698  1.7939  0.5921
 7865SOL    HW224495   2.011   6.226   4.121 -1.7085  1.4050  1.8152
 7866SOL     OW24496   5.703   2.678   3.663 -0.4708  0.2482  0.4933
 7866SOL    HW124497   5.659   2.604   3.714  0.1011 -0.6604 -0.2884
 7866SOL    HW224498   5.770   2.639   3.600  0.6959  1.5224  0.8966
 7867SOL     OW24499   0.161   2.444   4.051  0.0922 -0.0635  0.3701
 7867SOL    HW124500   0.247   2.412   4.090 -0.5394 -1.1952  0.8948
 7867SOL    HW224501   0.154   2.543   4.060 -0.0805 -0.2617  3.2948
 7868SOL     OW24502   1.150   0.559   1.184  0.8541  0.2251  0.0386
 7868SOL    HW124503   1.214   0.589   1.113 -0.0697  0.5697 -0.6650
 7868SOL    HW224504   1.139   0.459   1.178 -0.3294  0.4057 -1.2862
 7869SOL     OW24505   1.425   1.191   2.610 -0.0950 -0.4205 -0.0726
 7869SOL    HW124506   1.471   1.197   2.521 -0.2984  1.1877 -0.0927
 7869SOL    HW224507   1.493   1.170   2.681 -0.1882 -3.6028 -0.7857
 7870SOL     OW24508   3.851   4.139   1.661  0.0844 -0.2469 -0.0796
 7870SOL    HW124509   3.809   4.155   1.750 -0.0916 -2.9288  0.3832
 7870SOL    HW224510   3.791   4.175   1.589 -0.3706  0.8057  0.8061
 7871SOL     OW24511   2.182   2.500   1.627  0.4653  0.2800 -0.2129
 7871SOL    HW124512   2.268   2.523   1.581  0.3935  2.3710  0.6343
 7871SOL    HW224513   2.134   2.583   1.654 -1.3533 -0.8583  0.2544
 7872SOL     OW24514   5.458   2.361   1.233  0.6584  0.0321  0.0954
 7872SOL    HW124515   5.508   2.274   1.223 -0.2284 -0.3945 -0.8285
 7872SOL    HW224516   5.511   2.423   1.290  0.7267 -1.5672  1.8857
 7873SOL     OW24517   5.056   2.469   5.654  0.1933 -0.1221  0.0006
 7873SOL    HW124518   5.142   2.422   5.675 -0.3471 -1.4234 -0.5514
 7873SOL    HW224519   4.989   2.448   5.725  0.6281  1.8348  1.0598
 7874SOL     OW24520   6.334   0.410   6.046 -0.4092 -0.0003 -0.1192
 7874SOL    HW124521   6.287   0.393   5.959 -0.6219  1.3146 -0.2768
 7874SOL    HW224522   6.294   0.351   6.116 -1.0679 -0.2081 -0.6518
 7875SOL     OW24523   5.289   4.208   0.368 -0.2730 -0.7560  0.3043
 7875SOL    HW124524   5.236   4.278   0.416 -0.4109  0.0515 -0.9886
 7875SOL    HW224525   5.386   4.231   0.373 -0.2744 -0.7562  0.3327
 7876SOL     OW24526   1.735   3.611   2.553 -0.3945 -1.2038 -0.0701
 7876SOL    HW124527   1.743   3.711   2.558 -1.2456 -1.1861  1.5200
 7876SOL    HW224528   1.787   3.578   2.475  0.4797  0.4218 -0.2289
 7877SOL     OW24529   5.872   3.535   2.975 -0.1524  0.2443 -0.1914
 7877SOL    HW124530   5.792   3.477   2.964  0.2083 -0.0896 -1.1745
 7877SOL    HW224531   5.847   3.616   3.029 -1.8350  1.4146 -2.5197
 7878SOL     OW24532   6.274   3.585   3.928 -0.8277 -0.2485  0.5015
 7878SOL    HW124533   6.284   3.623   4.020  1.7835  1.1960 -0.2811
 7878SOL    HW224534   6.232   3.653   3.868 -0.6339 -0.4223  0.1660
 7879SOL     OW24535   5.988   4.564   3.684 -0.0045  0.4321  0.2260
 7879SOL    HW124536   6.035   4.487   3.728 -0.5076  0.6128  1.0968
 7879SOL    HW224537   5.946   4.533   3.599 -0.2535 -0.2791  0.5971
 7880SOL     OW24538   2.830   0.615   6.977 -0.1086 -0.0566 -0.1145
 7880SOL    HW124539   2.829   0.557   6.896 -0.3114 -1.2774  0.7420
 7880SOL    HW224540   2.906   0.589   7.036  0.1403  0.9325  0.0185
 7881SOL     OW24541   3.194   0.195   0.317 -0.9346  0.6983  0.5995
 7881SOL    HW124542   3.191   0.185   0.217 -0.3654  0.0813  0.6357
 7881SOL    HW224543   3.100   0.204   0.352 -1.1284  1.0732 -0.0019
 7882SOL     OW24544   4.999   2.077   0.983  0.1134 -0.6817  0.6342
 7882SOL    HW124545   4.929   2.034   1.039 -0.6911 -0.7030 -0.3467
 7882SOL    HW224546   4.966   2.167   0.952 -0.2664 -1.4248 -1.2834
 7883SOL     OW24547   4.065   1.154   6.248 -0.0398  0.2805 -0.1417
 7883SOL    HW124548   4.094   1.060   6.266  1.3590  0.9084  1.1976
 7883SOL    HW224549   4.135   1.201   6.193 -1.0963  0.3365 -1.4793
 7884SOL     OW24550   1.219   5.724   3.394 -0.3746  0.4187 -0.4769
 7884SOL    HW124551   1.313   5.715   3.425 -0.4431 -1.2333 -0.6454
 7884SOL    HW224552   1.217   5.772   3.306  0.3267  0.3799 -0.5168
 7885SOL     OW24553   4.844   6.804   2.673  0.1371  0.3711 -0.1848
 7885SOL    HW124554   4.899   6.737   2.623  0.2360 -0.3981  0.9145
 7885SOL    HW224555   4.837   6.888   2.620 -1.3297 -1.0254 -2.3660
 7886SOL     OW24556   5.863   2.028   5.017  0.3487  0.4618 -0.3267
 7886SOL    HW124557   5.886   2.124   5.030 -1.5271  0.7626  1.3047
 7886SOL    HW224558   5.765   2.020   4.997 -0.0144 -1.2052  1.7823
 7887SOL     OW24559   3.295   5.300   6.537  0.0377  0.8133 -0.4589
 7887SOL    HW124560   3.362   5.286   6.610 -0.6011 -2.8160 -0.4221
 7887SOL    HW224561   3.204   5.313   6.578 -0.0479  0.6686 -0.6039
 7888SOL     OW24562   3.595   0.338   0.921 -0.5621 -0.2535 -0.1721
 7888SOL    HW124563   3.626   0.399   0.848  1.1354 -0.4491  0.3415
 7888SOL    HW224564   3.654   0.349   1.001  0.9419 -3.7241 -0.6363
 7889SOL     OW24565   5.418   4.112   1.513  0.1323 -0.1681  0.7579
 7889SOL    HW124566   5.470   4.155   1.587  1.8600 -1.2959  0.2698
 7889SOL    HW224567   5.379   4.183   1.454  1.4946  0.7589  0.9228
 7890SOL     OW24568   0.137   3.189   5.712 -0.0984 -0.0866  0.0670
 7890SOL    HW124569   0.108   3.232   5.627 -0.6078 -2.1980 -0.9021
 7890SOL    HW224570   0.062   3.133   5.748  0.9491 -1.2283  0.5294
 7891SOL     OW24571   6.411   5.300   0.956 -0.0393 -0.3800  0.0700
 7891SOL    HW124572   6.410   5.246   1.040 -1.1905  1.4283  1.2806
 7891SOL    HW224573   6.322   5.292   0.910  0.3130 -0.7201 -0.5747
 7892SOL     OW24574   3.356   1.505   1.049 -0.0887  0.9620  0.0400
 7892SOL    HW124575   3.428   1.565   1.085  0.8568  0.8097 -1.5147
 7892SOL    HW224576   3.304   1.554   0.978 -0.3056  0.4471 -0.1583
 7893SOL     OW24577   5.833   3.507   6.593 -0.2332 -0.3438  0.5404
 7893SOL    HW124578   5.878   3.478   6.678  0.5190 -1.0976 -0.1008
 7893SOL    HW224579   5.807   3.426   6.540  0.6762  0.1085 -0.6477
 7894SOL     OW24580   5.048   5.042   6.079 -0.2550 -0.6847  0.1331
 7894SOL    HW124581   5.070   5.108   6.151 -1.3231 -1.4688  1.2107
 7894SOL    HW224582   4.960   5.065   6.039 -1.7627 -2.6565  2.0745
 7895SOL     OW24583   2.986   3.234   2.702  0.3233 -0.2230  0.4613
 7895SOL    HW124584   2.927   3.266   2.776 -0.7278 -0.2716 -0.3299
 7895SOL    HW224585   3.041   3.310   2.669 -0.0935  0.0950  0.4841
 7896SOL     OW24586   0.790   6.144   2.984  0.2006  0.4603  0.1391
 7896SOL    HW124587   0.792   6.080   3.060  1.4482  0.7682  0.3926
 7896SOL    HW224588   0.856   6.115   2.915 -1.0498  0.0799 -0.9357
 7897SOL     OW24589   5.106   2.475   3.984  0.3729  0.3231 -0.1021
 7897SOL    HW124590   5.017   2.521   3.987 -0.3225 -0.8928 -1.4254
 7897SOL    HW224591   5.125   2.434   4.073 -0.6592  0.0887  0.0181
 7898SOL     OW24592   5.364   6.185   3.644 -0.2717 -0.0403  0.3457
 7898SOL    HW124593   5.348   6.104   3.588  0.8713 -1.3371  1.8141
 7898SOL    HW224594   5.286   6.248   3.634 -1.0998 -1.2086 -0.9675
 7899SOL     OW24595   0.434   2.005   1.383  0.7391  0.3812 -0.3307
 7899SOL    HW124596   0.356   2.024   1.442 -1.8229 -1.4227 -2.8834
 7899SOL    HW224597   0.501   1.950   1.433 -0.1765  0.9185  1.5570
 7900SOL     OW24598   4.558   0.642   2.203  0.4241  0.7720  0.0129
 7900SOL    HW124599   4.628   0.595   2.150  0.0407  0.0059  0.1789
 7900SOL    HW224600   4.534   0.728   2.157  0.6669  0.4997 -0.6350
 7901SOL     OW24601   5.065   5.715   0.294  0.0850  0.1314  0.1115
 7901SOL    HW124602   5.116   5.631   0.315 -2.0779 -2.2296 -2.9899
 7901SOL    HW224603   5.003   5.736   0.369  0.3255 -1.3475  0.7726
 7902SOL     OW24604   6.650   6.750   1.947  0.3615  0.2625 -0.8909
 7902SOL    HW124605   6.577   6.814   1.968  1.6267  1.8064 -1.0360
 7902SOL    HW224606   6.702   6.729   2.029  1.1019  0.9108 -1.1864
 7903SOL     OW24607   6.916   0.091   4.969  0.7868  0.3657 -0.4687
 7903SOL    HW124608   6.847   0.162   4.952  0.7913  0.6704  0.6495
 7903SOL    HW224609   6.871   0.003   4.980  0.3304  0.8306  1.9881
 7904SOL     OW24610   6.541   3.595   3.754  0.4847 -0.5106 -0.1373
 7904SOL    HW124611   6.617   3.538   3.785  0.0863 -0.4074  1.0843
 7904SOL    HW224612   6.465   3.587   3.818  0.9025  2.4326  0.9052
 7905SOL     OW24613   3.030   2.149   4.215 -0.2215 -0.3258 -0.5096
 7905SOL    HW124614   3.087   2.098   4.151 -1.6440 -2.1732 -0.3910
 7905SOL    HW224615   3.069   2.144   4.307 -1.7040 -3.7623  0.0916
 7906SOL     OW24616   6.673   6.215   4.680  0.7115 -0.7871 -0.4334
 7906SOL    HW124617   6.651   6.310   4.698  2.7883  0.1215 -2.2628
 7906SOL    HW224618   6.608   6.156   4.728 -1.8937  1.5385 -0.8511
 7907SOL     OW24619   1.096   0.145   6.787  0.3379  0.1544  0.0518
 7907SOL    HW124620   1.075   0.048   6.772 -2.1337  0.3582  1.6594
 7907SOL    HW224621   1.165   0.175   6.721 -0.6605 -2.0405 -2.1367
 7908SOL     OW24622   4.474   4.947   6.034  0.4157  0.3532 -0.7277
 7908SOL    HW124623   4.527   4.990   6.107 -0.1124  1.2039 -0.8322
 7908SOL    HW224624   4.530   4.941   5.951  0.8489 -0.1566 -0.4039
 7909SOL     OW24625   5.317   1.230   1.149  0.9922  0.3306  0.0802
 7909SOL    HW124626   5.341   1.306   1.209  3.9952 -1.1761  1.0060
 7909SOL    HW224627   5.258   1.165   1.198 -0.0465  1.1212 -0.0912
 7910SOL     OW24628   6.386   5.580   3.121 -0.4260  0.3947 -0.5053
 7910SOL    HW124629   6.403   5.493   3.167 -4.3111 -0.7622 -0.8948
 7910SOL    HW224630   6.445   5.587   3.041 -0.2098 -2.0386 -0.6363
 7911SOL     OW24631   2.089   5.254   4.649 -0.1218 -0.3157  0.4951
 7911SOL    HW124632   2.021   5.304   4.595 -0.9031 -2.3611 -0.5170
 7911SOL    HW224633   2.042   5.205   4.723 -0.0771 -3.1059 -1.2126
 7912SOL     OW24634   6.344   0.111   4.979 -0.4703 -0.7010  0.4041
 7912SOL    HW124635   6.369   0.021   4.943  1.4403 -0.8297  1.8824
 7912SOL    HW224636   6.291   0.161   4.910  1.0894 -1.7638 -1.6727
 7913SOL     OW24637   1.279   5.275   6.119  0.4141  0.1986 -0.4104
 7913SOL    HW124638   1.335   5.306   6.042 -1.2734  1.0547 -1.3592
 7913SOL    HW224639   1.237   5.188   6.095  0.2149  0.2619 -0.2906
 7914SOL     OW24640   1.477   5.422   5.035 -0.3243 -0.3857 -0.0492
 7914SOL    HW124641   1.449   5.494   5.099  0.1277 -0.2338 -0.0211
 7914SOL    HW224642   1.420   5.426   4.953  0.3757  0.6709 -0.4951
 7915SOL     OW24643   3.158   3.131   1.289 -0.2742  0.3708  0.3267
 7915SOL    HW124644   3.149   3.099   1.194  2.7537 -0.0545  0.0767
 7915SOL    HW224645   3.151   3.231   1.291  0.8393  0.4827 -0.5563
 7916SOL     OW24646   7.005   6.779   1.538 -0.2151 -0.1945  0.0788
 7916SOL    HW124647   6.937   6.706   1.534 -0.8768  0.4555 -0.6968
 7916SOL    HW224648   6.980   6.852   1.475  0.4849  0.6773  0.7850
 7917SOL     OW24649   3.895   2.863   6.890  0.6995  0.2282 -0.3419
 7917SOL    HW124650   3.977   2.919   6.896  2.0981 -1.7242 -0.2862
 7917SOL    HW224651   3.907   2.793   6.819 -0.8830 -0.1554 -0.2815
 7918SOL     OW24652   3.135   5.464   0.053 -0.0676  0.2204 -0.2671
 7918SOL    HW124653   3.081   5.453   0.137  0.4679  0.1474  0.0754
 7918SOL    HW224654   3.214   5.401   0.056  0.1451  0.4646 -0.6681
 7919SOL     OW24655   1.864   1.154   4.399  0.6218 -0.2524 -0.3995
 7919SOL    HW124656   1.946   1.119   4.353  0.7115 -0.3527 -0.1656
 7919SOL    HW224657   1.795   1.177   4.331  1.3096  1.0478 -0.6846
 7920SOL     OW24658   3.008   5.133   0.126  0.6266 -0.8495  0.1728
 7920SOL    HW124659   3.108   5.132   0.128  0.6607 -1.0149 -0.8616
 7920SOL    HW224660   2.975   5.223   0.154  1.0848 -0.6701  0.1426
 7921SOL     OW24661   3.863   6.457   1.522 -0.1065 -0.3455  0.0665
 7921SOL    HW124662   3.891   6.444   1.427 -0.7168 -1.6339  0.0445
 7921SOL    HW224663   3.931   6.417   1.582 -0.2396 -0.4830  0.1273
 7922SOL     OW24664   1.765   6.782   4.321 -0.2965  0.1720 -0.1187
 7922SOL    HW124665   1.717   6.705   4.278  1.7502 -0.4927 -1.3418
 7922SOL    HW224666   1.857   6.754   4.345 -0.4864  1.3774  2.2909
 7923SOL     OW24667   4.581   6.979   4.099  0.0644  0.1199 -0.1106
 7923SOL    HW124668   4.617   7.004   4.189  0.3073 -3.1214  0.8145
 7923SOL    HW224669   4.481   6.981   4.102  0.0728  0.3030  0.1425
 7924SOL     OW24670   3.017   6.093   2.101  0.4896 -0.2171 -0.2939
 7924SOL    HW124671   2.949   6.163   2.081 -1.8567 -1.6749  1.9906
 7924SOL    HW224672   3.080   6.126   2.171  1.9562  0.9667 -2.0824
 7925SOL     OW24673   3.584   3.603   4.510 -0.4556  0.2471 -0.0532
 7925SOL    HW124674   3.654   3.643   4.451  0.1217 -1.9359 -0.9550
 7925SOL    HW224675   3.606   3.506   4.526 -3.2492 -0.5062 -0.3544
 7926SOL     OW24676   1.788   6.617   0.150 -0.4120 -0.4411  0.1286
 7926SOL    HW124677   1.768   6.542   0.214 -0.2586  0.4090  1.2115
 7926SOL    HW224678   1.862   6.673   0.187 -0.5855  0.3029 -0.6240
 7927SOL     OW24679   7.011   3.159   6.673 -0.5764  0.6725  0.1192
 7927SOL    HW124680   6.940   3.189   6.736  0.3868  1.0552  1.0619
 7927SOL    HW224681   7.075   3.099   6.721 -2.0730 -2.5131 -1.5493
 7928SOL     OW24682   0.457   5.137   6.741  0.0549 -0.1563 -0.0075
 7928SOL    HW124683   0.433   5.120   6.837  0.9283  0.0723  0.2543
 7928SOL    HW224684   0.453   5.050   6.691 -2.1734 -0.0157 -0.1914
 7929SOL     OW24685   3.441   4.641   5.859  0.1359 -0.2149  0.3543
 7929SOL    HW124686   3.524   4.695   5.871  0.3707 -0.3555 -0.5595
 7929SOL    HW224687   3.366   4.685   5.908  0.3940  0.7759 -0.1087
 7930SOL     OW24688   6.348   5.013   0.824  0.0558 -0.2179 -0.1114
 7930SOL    HW124689   6.306   4.977   0.741 -1.3932 -1.1684  0.9891
 7930SOL    HW224690   6.447   5.001   0.820 -0.0657 -0.8932 -1.3803
 7931SOL     OW24691   4.977   1.672   4.722  0.3086  0.6015  0.1954
 7931SOL    HW124692   5.032   1.634   4.796 -0.2893  1.8262  1.3080
 7931SOL    HW224693   4.930   1.598   4.674 -0.4805 -0.1353  2.0045
 7932SOL     OW24694   3.461   3.077   5.644  0.5125 -0.0601 -0.0959
 7932SOL    HW124695   3.432   2.986   5.614 -0.0738  0.0281  0.1787
 7932SOL    HW224696   3.465   3.139   5.566  1.0665 -0.3604 -0.3056
 7933SOL     OW24697   5.302   4.480   5.839  0.8553  0.1103 -0.3495
 7933SOL    HW124698   5.393   4.462   5.878  0.3506  1.5245  1.6448
 7933SOL    HW224699   5.234   4.480   5.912 -0.5050  0.7697 -1.5629
 7934SOL     OW24700   5.539   2.423   3.018 -0.8755  0.1959 -0.1735
 7934SOL    HW124701   5.441   2.424   3.036 -1.0724 -0.2194 -1.1612
 7934SOL    HW224702   5.556   2.455   2.924 -0.1269 -0.3911 -0.2513
 7935SOL     OW24703   2.075   4.723   0.527  0.1747 -0.0659  0.1980
 7935SOL    HW124704   2.130   4.806   0.522  1.3279 -0.8710 -1.0100
 7935SOL    HW224705   1.982   4.747   0.557 -0.1169  1.9536 -2.0000
 7936SOL     OW24706   1.133   1.438   2.126 -0.3155  0.3156  0.3683
 7936SOL    HW124707   1.082   1.471   2.205  0.7748  1.0697  0.7864
 7936SOL    HW224708   1.203   1.505   2.102  1.2380 -1.1887  0.5314
 7937SOL     OW24709   1.288   1.356   4.251  0.1967 -0.2684  0.3735
 7937SOL    HW124710   1.281   1.455   4.241  1.2781 -0.1909  0.2353
 7937SOL    HW224711   1.263   1.331   4.345  0.9104  0.2696  0.7264
 7938SOL     OW24712   1.137   0.848   3.301 -0.3665  0.4225 -0.1925
 7938SOL    HW124713   1.185   0.871   3.217 -0.9764 -1.1584 -1.0110
 7938SOL    HW224714   1.093   0.930   3.338  0.4947  1.2741 -1.0202
 7939SOL     OW24715   3.655   4.327   0.320  0.0630  0.0294  0.5611
 7939SOL    HW124716   3.705   4.252   0.277 -0.0355 -0.6616  1.6316
 7939SOL    HW224717   3.712   4.370   0.389 -0.8725 -0.9303  1.9785
 7940SOL     OW24718   0.502   4.618   0.813  0.1074 -0.1303 -0.7096
 7940SOL    HW124719   0.556   4.580   0.737 -1.5683 -0.6337 -1.6892
 7940SOL    HW224720   0.433   4.551   0.841 -1.5304  1.3675 -1.0508
 7941SOL     OW24721   2.618   6.369   4.069 -0.0598  0.8901  0.4191
 7941SOL    HW124722   2.669   6.284   4.083  0.0660  1.1473  1.5591
 7941SOL    HW224723   2.550   6.355   3.997 -1.0913 -0.6367  1.6278
 7942SOL     OW24724   0.004   4.143   3.505 -0.1770 -0.3465  0.0206
 7942SOL    HW124725  -0.030   4.191   3.425  0.7486  0.5441  0.1350
 7942SOL    HW224726  -0.029   4.049   3.504 -0.4822 -0.2464 -1.2002
 7943SOL     OW24727   1.773   6.417   0.344  0.7689  0.2812 -0.0261
 7943SOL    HW124728   1.766   6.341   0.280  0.1230 -0.3152  0.7356
 7943SOL    HW224729   1.851   6.401   0.406  1.2386  0.7336 -0.4898
 7944SOL     OW24730   0.343   2.427   3.580  0.4537  0.7186 -0.1461
 7944SOL    HW124731   0.411   2.416   3.653  1.5579  1.6748 -1.0105
 7944SOL    HW224732   0.301   2.338   3.561  2.9982 -0.3673 -1.0714
 7945SOL     OW24733   3.163   1.650   4.024 -0.0200 -0.7512  0.3694
 7945SOL    HW124734   3.187   1.603   3.939 -1.6401  1.1854 -1.2636
 7945SOL    HW224735   3.195   1.745   4.020 -0.8371 -0.4036  1.5598
 7946SOL     OW24736   3.689   3.915   4.604  0.4529 -0.2184  0.3163
 7946SOL    HW124737   3.738   3.857   4.540 -2.1903 -2.0646 -0.1895
 7946SOL    HW224738   3.746   3.994   4.628  3.4128 -1.9744 -0.4717
 7947SOL     OW24739   2.769   5.357   4.014  0.0396  0.5328  0.1386
 7947SOL    HW124740   2.747   5.449   4.047 -0.1145  0.4272  0.3378
 7947SOL    HW224741   2.698   5.327   3.950 -1.5950 -0.6363  2.3700
 7948SOL     OW24742   5.879   0.771   5.213  0.6838  0.0732 -0.1875
 7948SOL    HW124743   5.853   0.726   5.299 -1.5450 -0.3436 -1.0060
 7948SOL    HW224744   5.978   0.773   5.205  0.9279 -2.5332  1.0643
 7949SOL     OW24745   6.117   0.269   5.215 -0.4252 -0.8815  0.6237
 7949SOL    HW124746   6.160   0.322   5.288 -1.3204  0.0964  0.4598
 7949SOL    HW224747   6.050   0.207   5.255 -0.9243 -0.3374  0.6394
 7950SOL     OW24748   2.680   3.929   6.460 -0.3258  0.5674 -0.4337
 7950SOL    HW124749   2.672   3.876   6.545 -0.3606  0.4474 -0.5120
 7950SOL    HW224750   2.742   3.881   6.397 -3.1356 -1.2963 -1.9708
 7951SOL     OW24751   3.358   4.453   5.294  0.1353 -0.4448 -0.0223
 7951SOL    HW124752   3.456   4.445   5.313  0.2583 -0.8700 -0.8072
 7951SOL    HW224753   3.316   4.362   5.297  0.0976 -0.4915 -1.3954
 7952SOL     OW24754   2.021   6.608   5.224  0.3069  0.1723 -0.3339
 7952SOL    HW124755   1.948   6.665   5.261 -0.7196 -0.2578 -1.6171
 7952SOL    HW224756   2.098   6.606   5.288 -1.2236 -0.2592  1.5975
 7953SOL     OW24757   6.336   1.917   4.444  0.3694 -0.4198 -0.3903
 7953SOL    HW124758   6.307   1.855   4.372  2.3792 -1.9812  0.0685
 7953SOL    HW224759   6.360   2.005   4.404 -0.2336 -0.6786 -1.3650
 7954SOL     OW24760   1.786   4.306   1.942 -0.2991 -0.2206 -0.4534
 7954SOL    HW124761   1.883   4.290   1.958 -0.1637 -1.1644 -1.9349
 7954SOL    HW224762   1.732   4.240   1.994 -0.0696 -0.5598 -0.6377
 7955SOL     OW24763   3.601   6.503   1.651  0.0356 -0.1963 -0.2993
 7955SOL    HW124764   3.608   6.459   1.741  0.8453  0.0120 -0.2522
 7955SOL    HW224765   3.677   6.473   1.594  0.7626  1.3555 -0.1707
 7956SOL     OW24766   1.208   6.408   2.543 -0.5887  0.2138 -0.4241
 7956SOL    HW124767   1.269   6.427   2.467 -0.9207  0.7076 -0.5732
 7956SOL    HW224768   1.124   6.366   2.508 -1.4976  2.0584 -0.5632
 7957SOL     OW24769   3.883   0.878   5.097  0.0649 -0.6412 -0.0564
 7957SOL    HW124770   3.794   0.858   5.138 -0.9024 -0.4857 -1.9583
 7957SOL    HW224771   3.933   0.792   5.082  0.3907 -0.7038  1.2927
 7958SOL     OW24772   5.437   5.588   6.693 -0.0600 -0.5330 -0.0769
 7958SOL    HW124773   5.423   5.491   6.712  3.3277 -1.1281  0.0130
 7958SOL    HW224774   5.453   5.637   6.778  1.2921 -0.5271 -0.3158
 7959SOL     OW24775   6.328   4.469   4.085  0.4853  0.3067 -0.3112
 7959SOL    HW124776   6.335   4.564   4.054  0.1171 -0.4353 -2.8913
 7959SOL    HW224777   6.250   4.425   4.040 -0.1752 -0.8765  1.8859
 7960SOL     OW24778   1.398   6.670   4.117 -0.2562 -0.4663  0.1172
 7960SOL    HW124779   1.374   6.763   4.143 -1.1856 -0.7197  0.1791
 7960SOL    HW224780   1.366   6.651   4.024  0.8025 -0.4128 -0.2842
 7961SOL     OW24781   5.292   3.987   3.684 -0.4421 -0.4753 -0.3464
 7961SOL    HW124782   5.269   3.898   3.722  1.3576 -0.2344  1.5189
 7961SOL    HW224783   5.306   4.052   3.759 -0.5026  1.0514 -1.6178
 7962SOL     OW24784   0.462   5.014   2.007 -0.1223  0.2165  0.2390
 7962SOL    HW124785   0.502   4.963   1.930  2.6783 -0.1248  1.7841
 7962SOL    HW224786   0.497   5.107   2.006 -1.5191  0.7525  0.0998
 7963SOL     OW24787   3.573   1.022   2.440  0.0627 -0.3051  0.3124
 7963SOL    HW124788   3.536   0.934   2.470 -0.2772  0.1478  1.2524
 7963SOL    HW224789   3.500   1.090   2.437  0.3391 -0.0247 -0.3353
 7964SOL     OW24790   4.355   6.946   6.513 -0.2180 -0.0362 -0.5007
 7964SOL    HW124791   4.405   6.880   6.457  0.0566 -0.8100  0.6393
 7964SOL    HW224792   4.401   7.035   6.509  2.3694 -1.1305  1.9087
 7965SOL     OW24793   7.005   2.322   4.375 -0.0514  0.6793 -0.4253
 7965SOL    HW124794   6.966   2.260   4.307  0.5713 -2.1167  1.5982
 7965SOL    HW224795   7.104   2.310   4.378 -0.1251  0.2483  1.3782
 7966SOL     OW24796   6.778   3.907   1.119  0.2496 -0.0288 -0.1069
 7966SOL    HW124797   6.722   3.971   1.171  0.6401  1.0766 -1.0013
 7966SOL    HW224798   6.853   3.874   1.175  0.5000  0.9164  0.1279
 7967SOL     OW24799   0.046   4.486   4.593 -0.7427 -0.0692  0.0676
 7967SOL    HW124800   0.067   4.389   4.605 -0.9953 -0.0713  0.5619
 7967SOL    HW224801   0.031   4.506   4.496  0.3224 -0.3072 -0.1526
 7968SOL     OW24802   2.173   2.894   5.201  0.0233 -0.5116 -0.1435
 7968SOL    HW124803   2.108   2.889   5.126 -0.3855 -3.2084  0.2996
 7968SOL    HW224804   2.253   2.947   5.172 -1.3447  0.9303 -1.4541
 7969SOL     OW24805   6.206   2.317   2.003  0.1426  0.0502 -0.0059
 7969SOL    HW124806   6.208   2.405   2.050  0.5259  0.2172 -0.3374
 7969SOL    HW224807   6.166   2.248   2.064 -0.2680  0.4747  0.2080
 7970SOL     OW24808   0.601   6.614   6.963  0.6798  0.0103 -0.3803
 7970SOL    HW124809   0.534   6.670   6.914  0.8160 -0.9738 -1.7420
 7970SOL    HW224810   0.573   6.604   7.058 -1.1979 -0.4936 -0.9499
 7971SOL     OW24811   4.502   0.050   2.325 -0.5912  0.0637 -0.2924
 7971SOL    HW124812   4.403   0.065   2.315 -0.9847 -1.8369  0.3993
 7971SOL    HW224813   4.536   0.104   2.402 -1.4162 -0.4201  0.4347
 7972SOL     OW24814   5.927   4.411   1.806  0.8954  0.1659 -0.1025
 7972SOL    HW124815   5.846   4.392   1.862  1.0969  0.1238  0.1768
 7972SOL    HW224816   5.968   4.324   1.776  0.5703  0.1942 -0.6309
 7973SOL     OW24817   4.745   3.329   5.271  0.2908  0.2582  0.1591
 7973SOL    HW124818   4.783   3.270   5.201 -0.8213 -1.7696  1.1796
 7973SOL    HW224819   4.718   3.417   5.230  0.2054 -0.6450 -1.8033
 7974SOL     OW24820   6.623   6.988   2.564 -0.1116 -1.2183 -0.4076
 7974SOL    HW124821   6.721   6.971   2.572  0.1439  0.0525 -0.7019
 7974SOL    HW224822   6.597   7.063   2.626 -0.6007 -0.4819 -1.4820
 7975SOL     OW24823   4.442   6.458   2.884  0.1302 -0.2809 -0.5664
 7975SOL    HW124824   4.403   6.404   2.959  0.0097  1.6566  0.8237
 7975SOL    HW224825   4.368   6.487   2.822 -0.1701  0.3786  0.0861
 7976SOL     OW24826   2.298   5.480   3.563 -0.1618  0.1800  0.2075
 7976SOL    HW124827   2.301   5.503   3.660  0.0502 -0.4326  0.3520
 7976SOL    HW224828   2.380   5.428   3.539 -0.0928  0.5476 -0.3589
 7977SOL     OW24829   0.556   5.279   4.613  0.3914 -0.0800 -0.3324
 7977SOL    HW124830   0.590   5.258   4.522  0.1723  0.5428 -0.5603
 7977SOL    HW224831   0.483   5.346   4.607  0.5560  0.1637  0.3206
 7978SOL     OW24832   6.214   0.484   5.379  0.5018 -0.4020  0.3007
 7978SOL    HW124833   6.148   0.452   5.446  1.0346  0.1362  1.1045
 7978SOL    HW224834   6.273   0.553   5.421 -1.2015  2.3870 -1.5637
 7979SOL     OW24835   5.371   6.161   3.282 -0.1642 -0.2064  0.2842
 7979SOL    HW124836   5.281   6.205   3.281  0.5473  1.3494  1.3364
 7979SOL    HW224837   5.366   6.078   3.338 -1.9621 -2.6757 -3.1455
 7980SOL     OW24838   0.217   5.671   3.565 -0.5539  0.2259 -0.4518
 7980SOL    HW124839   0.159   5.641   3.489  3.1469 -2.7166 -2.4577
 7980SOL    HW224840   0.284   5.600   3.587  3.0053  3.5734  0.8899
 7981SOL     OW24841   3.208   6.141   6.462 -0.2561 -0.3209 -0.8750
 7981SOL    HW124842   3.267   6.184   6.531 -0.9940 -0.9081  0.1573
 7981SOL    HW224843   3.262   6.117   6.382  0.3133  1.8944 -1.2218
 7982SOL     OW24844   3.870   5.285   4.877  0.0508 -0.4748  0.2909
 7982SOL    HW124845   3.959   5.298   4.832 -0.6226  0.9176 -0.7305
 7982SOL    HW224846   3.828   5.201   4.844 -0.8654  0.9748 -2.6006
 7983SOL     OW24847   4.467   5.470   3.882 -0.2512  0.1318  0.3587
 7983SOL    HW124848   4.487   5.414   3.802 -0.0316 -0.0494  0.5396
 7983SOL    HW224849   4.516   5.434   3.962 -1.1302 -0.2084  0.7653
 7984SOL     OW24850   1.008   2.595   0.746 -0.3641 -0.1392  0.0472
 7984SOL    HW124851   1.097   2.569   0.786  0.4230 -0.3762 -1.7716
 7984SOL    HW224852   1.004   2.694   0.737 -0.0973 -0.1544 -0.2608
 7985SOL     OW24853   2.930   4.962   5.267  0.0196 -0.0097 -0.0545
 7985SOL    HW124854   3.003   4.900   5.295  1.3186  1.3948 -0.2267
 7985SOL    HW224855   2.948   4.996   5.175 -0.7067  0.5886  0.0109
 7986SOL     OW24856   6.600   6.793   2.304 -0.0170 -0.1181  0.6947
 7986SOL    HW124857   6.642   6.822   2.390 -0.6724  0.9261  0.6845
 7986SOL    HW224858   6.574   6.874   2.251 -2.0510 -0.7008  0.7105
 7987SOL     OW24859   1.308   5.955   2.686 -0.2403 -0.1556 -0.0758
 7987SOL    HW124860   1.257   6.020   2.743 -1.6762 -2.0559  0.9502
 7987SOL    HW224861   1.319   5.993   2.594 -0.2160  1.8782  0.7129
 7988SOL     OW24862   2.275   7.004   5.060  0.2935  0.1282 -0.0052
 7988SOL    HW124863   2.327   7.085   5.033  0.7906 -0.2484 -0.2000
 7988SOL    HW224864   2.188   7.002   5.011  0.6216  0.1374 -0.6000
 7989SOL     OW24865   5.995   0.504   0.694 -0.6005  0.5341  0.0683
 7989SOL    HW124866   6.066   0.464   0.636 -0.0519  2.0718 -0.3721
 7989SOL    HW224867   6.037   0.552   0.770 -1.2158  0.7602  0.2709
 7990SOL     OW24868   4.376   4.092   5.698  0.7573 -0.4510 -0.0319
 7990SOL    HW124869   4.423   4.059   5.780 -0.4879 -0.0144  0.8819
 7990SOL    HW224870   4.436   4.154   5.648  1.2747 -0.1371  0.9505
 7991SOL     OW24871   3.940   3.190   2.327  0.3283  0.3065 -0.3420
 7991SOL    HW124872   4.023   3.243   2.341 -0.1081  0.7280  0.8037
 7991SOL    HW224873   3.905   3.158   2.415  0.2402 -1.3866 -0.9541
 7992SOL     OW24874   3.296   2.253   6.954  0.3178 -0.8323  0.1042
 7992SOL    HW124875   3.228   2.272   7.025 -1.1017 -2.4689 -0.7323
 7992SOL    HW224876   3.353   2.175   6.982  0.5359 -0.7260 -0.0416
 7993SOL     OW24877   2.779   6.278   5.214 -0.3635 -0.4710 -0.3988
 7993SOL    HW124878   2.715   6.211   5.250 -1.1990  0.5053  0.0019
 7993SOL    HW224879   2.824   6.325   5.291 -0.9969  0.5370 -0.6132
 7994SOL     OW24880   3.446   5.475   5.032 -0.3165  0.1157  0.1486
 7994SOL    HW124881   3.511   5.534   4.983 -0.0073  0.8882  1.4238
 7994SOL    HW224882   3.491   5.389   5.055  0.3167  0.6764  1.0956
 7995SOL     OW24883   2.215   5.823   2.117  0.0498  0.1325  0.4322
 7995SOL    HW124884   2.240   5.790   2.208  2.3986  0.3784 -0.0522
 7995SOL    HW224885   2.155   5.902   2.126 -1.0477 -0.7978  1.7010
 7996SOL     OW24886   3.627   1.722   5.852  0.2969 -0.9079  0.3706
 7996SOL    HW124887   3.631   1.786   5.929  0.9442  1.2681 -1.3667
 7996SOL    HW224888   3.712   1.669   5.848  0.1359 -1.2544  1.2965
 7997SOL     OW24889   3.341   6.279   4.286  0.2709  0.4003  0.0961
 7997SOL    HW124890   3.434   6.317   4.289  0.0434  1.0225 -0.6173
 7997SOL    HW224891   3.347   6.179   4.283  0.9261  0.4468 -0.2842
 7998SOL     OW24892   5.702   2.041   2.794 -0.4360  0.4571 -0.4774
 7998SOL    HW124893   5.711   2.050   2.894  0.0735  0.1561 -0.4918
 7998SOL    HW224894   5.626   2.097   2.762 -0.4986  0.6854  0.0625
 7999SOL     OW24895   5.218   3.798   6.830  0.8090  0.0511 -0.0953
 7999SOL    HW124896   5.151   3.725   6.842  0.7388  0.1110 -0.1210
 7999SOL    HW224897   5.310   3.759   6.832  0.8263  0.1322  1.1810
 8000SOL     OW24898   5.013   2.701   1.353 -0.4074  0.3028  0.1809
 8000SOL    HW124899   4.930   2.755   1.350 -0.1261  0.7978  0.9019
 8000SOL    HW224900   5.058   2.702   1.264 -0.2611  1.5030  0.2515
 8001SOL     OW24901   3.115   2.140   2.993  0.3234 -0.5026 -0.7379
 8001SOL    HW124902   3.061   2.201   3.051 -0.2461 -0.3598 -1.4099
 8001SOL    HW224903   3.149   2.064   3.048  0.2776 -0.0680 -0.0911
 8002SOL     OW24904   6.558   4.309   3.131  0.1304 -0.0564  0.2596
 8002SOL    HW124905   6.475   4.291   3.184  0.2922  0.1554  0.5904
 8002SOL    HW224906   6.575   4.408   3.129  0.4095 -0.1038  0.2479
 8003SOL     OW24907   3.182   4.064   5.720 -0.6476 -0.4562  0.8144
 8003SOL    HW124908   3.161   3.969   5.699  1.1261 -0.6583 -0.3411
 8003SOL    HW224909   3.281   4.079   5.711 -1.1256  2.1141 -1.9412
 8004SOL     OW24910   5.593   0.947   5.221  0.1474 -0.0019 -0.5465
 8004SOL    HW124911   5.536   0.873   5.186  0.1015  0.5151 -1.5953
 8004SOL    HW224912   5.689   0.927   5.202  0.0688  0.6335 -1.6802
 8005SOL     OW24913   3.815   6.400   6.187 -0.2127 -0.4935  0.4188
 8005SOL    HW124914   3.753   6.362   6.120  0.3268 -0.4773 -0.0955
 8005SOL    HW224915   3.902   6.350   6.186 -0.1016 -0.3241  0.9151
 8006SOL     OW24916   6.205   1.389   6.229  0.0495 -0.0144 -0.8621
 8006SOL    HW124917   6.142   1.451   6.277 -0.4568 -0.6126 -0.7323
 8006SOL    HW224918   6.244   1.435   6.150 -1.5234 -0.0118 -1.6777
 8007SOL     OW24919   6.406   4.037   0.102 -0.3039 -0.0915 -0.0731
 8007SOL    HW124920   6.306   4.036   0.103 -0.3458  1.1129 -0.5576
 8007SOL    HW224921   6.440   4.011   0.192 -0.9893 -2.1649 -0.3587
 8008SOL     OW24922   2.443   4.998   5.610 -0.4060 -0.5781  0.2469
 8008SOL    HW124923   2.447   5.098   5.612  0.7244 -0.6134  2.0214
 8008SOL    HW224924   2.536   4.961   5.609 -0.8089 -1.6407 -0.7869
 8009SOL     OW24925   5.650   6.431   1.496 -0.6486  0.1407  0.6913
 8009SOL    HW124926   5.651   6.338   1.532  0.9592 -0.1471 -0.0143
 8009SOL    HW224927   5.575   6.441   1.431  0.2262 -1.2235 -0.5816
 8010SOL     OW24928   6.651   1.902   6.022 -0.3553  0.6475  0.6590
 8010SOL    HW124929   6.589   1.924   5.947 -1.3086  2.4030  1.8951
 8010SOL    HW224930   6.667   1.804   6.025 -0.4802  0.5112 -1.6698
 8011SOL     OW24931   3.127   4.546   1.556  0.1265  0.3039 -0.2408
 8011SOL    HW124932   3.129   4.446   1.548  0.6419  0.3841 -1.3675
 8011SOL    HW224933   3.202   4.577   1.614  0.1364  0.0536 -0.1179
 8012SOL     OW24934   5.248   0.680   4.568 -0.4683 -0.6000  0.1663
 8012SOL    HW124935   5.240   0.771   4.527 -1.0412 -0.4957  0.5125
 8012SOL    HW224936   5.215   0.611   4.503  0.8001 -0.6631 -0.4556
 8013SOL     OW24937   1.278   4.822   0.248 -0.6863  0.2066 -0.1153
 8013SOL    HW124938   1.190   4.791   0.213  0.0702 -0.2314 -1.7053
 8013SOL    HW224939   1.339   4.744   0.261  0.6057  0.7448 -2.3837
 8014SOL     OW24940   4.542   0.135   3.723 -0.2593  0.5596 -0.4405
 8014SOL    HW124941   4.630   0.167   3.757  0.4945  1.2529 -2.8414
 8014SOL    HW224942   4.503   0.069   3.787  1.3943  1.1832  1.2838
 8015SOL     OW24943   3.842   0.528   1.956 -0.3440 -0.5484  0.3164
 8015SOL    HW124944   3.803   0.437   1.948  0.2859 -0.7695 -0.3920
 8015SOL    HW224945   3.922   0.525   2.016 -0.2101 -0.5002  0.1413
 8016SOL     OW24946   4.196   5.834   6.920  0.1757  0.2931 -0.5990
 8016SOL    HW124947   4.279   5.854   6.972 -0.9895  2.2960  0.6146
 8016SOL    HW224948   4.208   5.748   6.869  2.8998  0.4574 -0.3643
 8017SOL     OW24949   3.284   6.129   0.650 -0.1606 -0.1579 -0.3737
 8017SOL    HW124950   3.277   6.217   0.604 -1.4978  0.2363  0.5466
 8017SOL    HW224951   3.287   6.056   0.581  1.5578  0.5920 -1.1585
 8018SOL     OW24952   1.940   0.009   1.657 -0.2512  0.5834  0.4280
 8018SOL    HW124953   1.876  -0.027   1.589  0.1158 -0.1876  0.4818
 8018SOL    HW224954   1.953  -0.059   1.730 -0.8449  1.5049  1.4180
 8019SOL     OW24955   5.566   5.106   6.493 -0.1791  0.7782 -0.6378
 8019SOL    HW124956   5.520   5.190   6.521 -1.6485  0.2222 -1.3207
 8019SOL    HW224957   5.519   5.066   6.414  1.3864  0.0923 -1.2635
 8020SOL     OW24958   5.214   4.815   3.667 -0.0481  0.2919  1.1799
 8020SOL    HW124959   5.283   4.751   3.633 -0.4384 -0.2136  1.3349
 8020SOL    HW224960   5.231   4.906   3.629  0.4027  0.0576  0.8194
 8021SOL     OW24961   5.463   1.428   5.908  0.5129  0.3876  0.4081
 8021SOL    HW124962   5.450   1.340   5.954  0.5329  0.5397  0.7121
 8021SOL    HW224963   5.558   1.456   5.918  0.6145  0.2216 -0.0944
 8022SOL     OW24964   3.457   3.919   1.334 -0.1408  0.2394  0.5611
 8022SOL    HW124965   3.434   3.865   1.415 -0.0133  0.0880  0.4993
 8022SOL    HW224966   3.456   4.016   1.356  0.4154  0.1768  0.8821
 8023SOL     OW24967   0.577   1.149   5.742 -0.2233 -0.3573  0.4789
 8023SOL    HW124968   0.555   1.247   5.741  1.3105  0.0836  2.2854
 8023SOL    HW224969   0.607   1.121   5.651 -0.1237  1.0222  0.0565
 8024SOL     OW24970   4.669   2.250   5.500 -0.3603  0.5148 -0.1021
 8024SOL    HW124971   4.666   2.237   5.401 -1.6537 -1.0665  0.0945
 8024SOL    HW224972   4.618   2.332   5.525 -1.1842  0.1878 -0.6709
 8025SOL     OW24973   0.741   6.344   2.444  0.3010 -0.0822  0.0210
 8025SOL    HW124974   0.744   6.419   2.510  0.4081  0.3596 -0.4820
 8025SOL    HW224975   0.667   6.360   2.379  0.0062 -0.6677  0.2118
 8026SOL     OW24976   3.075   0.656   4.033  0.0878  0.0382 -0.4287
 8026SOL    HW124977   3.083   0.702   4.121  1.1037  0.2985 -0.6457
 8026SOL    HW224978   2.995   0.691   3.983 -0.4734 -0.0923  0.3663
 8027SOL     OW24979   1.320   3.437   0.944  0.0968 -0.0265 -0.2605
 8027SOL    HW124980   1.250   3.489   0.992 -0.0733  0.1658 -0.7135
 8027SOL    HW224981   1.403   3.493   0.935  0.2160 -0.1542  0.0304
 8028SOL     OW24982   1.017   2.957   4.266 -0.0745 -0.3344  0.2661
 8028SOL    HW124983   0.995   2.862   4.287  3.0026 -0.9277  1.4525
 8028SOL    HW224984   0.956   2.990   4.194 -2.3704 -2.5989  1.0126
 8029SOL     OW24985   1.917   0.954   4.922  0.0422 -0.3048  0.0870
 8029SOL    HW124986   1.888   1.024   4.857 -1.0660 -0.8262  0.0079
 8029SOL    HW224987   2.012   0.929   4.902  0.4422  1.1059  0.0745
 8030SOL     OW24988   2.710   0.305   2.638 -0.1359 -0.1084  0.2616
 8030SOL    HW124989   2.776   0.350   2.698 -1.0774  2.5401 -0.5543
 8030SOL    HW224990   2.755   0.283   2.551  0.0185  0.4697  0.1900
 8031SOL     OW24991   6.236   6.437   5.572 -0.0161  0.2560 -0.3541
 8031SOL    HW124992   6.202   6.528   5.594 -0.2189  0.1939 -0.4131
 8031SOL    HW224993   6.253   6.386   5.656  0.7419  0.5823 -0.2963
 8032SOL     OW24994   1.061   3.272   3.859 -0.4776  0.5030  0.3042
 8032SOL    HW124995   1.116   3.333   3.915  1.0780  0.6280 -1.2750
 8032SOL    HW224996   1.009   3.326   3.793 -0.1896  0.2127 -0.1652
 8033SOL     OW24997   0.730   4.900   0.697  0.0874 -0.2616  0.6149
 8033SOL    HW124998   0.750   4.810   0.659 -1.1394  0.2181 -1.3113
 8033SOL    HW224999   0.632   4.908   0.715 -0.0293  1.1302 -0.5229
 8034SOL     OW25000   4.312   2.923   0.472 -0.1472 -0.1970 -0.0314
 8034SOL    HW125001   4.314   2.830   0.434 -1.3889 -0.3987  0.3370
 8034SOL    HW225002   4.354   2.922   0.563  3.4671  0.4186 -1.5083
 8035SOL     OW25003   2.183   5.224   3.942  0.2702 -0.1871 -0.0264
 8035SOL    HW125004   2.086   5.223   3.964  0.4709  0.8365  0.9723
 8035SOL    HW225005   2.198   5.175   3.856 -1.0769 -0.6263 -0.0332
 8036SOL     OW25006   2.686   1.256   6.324 -0.4016 -0.1578 -0.0483
 8036SOL    HW125007   2.620   1.326   6.351 -1.3648 -0.7785 -0.6834
 8036SOL    HW225008   2.736   1.224   6.404  0.3098  1.4869  0.1909
 8037SOL     OW25009   6.459   1.486   5.834 -0.3057 -1.1081  0.1433
 8037SOL    HW125010   6.496   1.393   5.838 -0.9167 -1.3456  0.3747
 8037SOL    HW225011   6.442   1.519   5.928  0.8129 -0.3906  0.1168
 8038SOL     OW25012   5.603   2.796   1.055 -0.5148  0.3730 -0.9356
 8038SOL    HW125013   5.661   2.830   1.129 -1.2321 -2.5221  1.1192
 8038SOL    HW225014   5.541   2.869   1.025 -0.3031  1.6055  1.4198
 8039SOL     OW25015   5.260   1.851   5.093  0.1341 -0.2773  0.2180
 8039SOL    HW125016   5.359   1.839   5.083  0.5346  1.8206  1.0783
 8039SOL    HW225017   5.233   1.937   5.051 -1.1501 -0.3391  0.8780
 8040SOL     OW25018   3.007   1.277   5.899 -0.3091 -0.1366  0.0841
 8040SOL    HW125019   3.100   1.295   5.866 -0.7880  1.1969 -0.6400
 8040SOL    HW225020   3.004   1.288   5.998  0.6911 -2.0750  0.3861
 8041SOL     OW25021   0.432   6.984   2.635  0.6758  0.2832  0.0335
 8041SOL    HW125022   0.468   7.035   2.557  0.1285  1.7031  0.6625
 8041SOL    HW225023   0.350   6.934   2.606  0.1143  1.2964 -0.1815
 8042SOL     OW25024   1.726   4.999   5.555  0.5737  0.3836 -0.3540
 8042SOL    HW125025   1.757   5.011   5.650 -1.3270  1.2670  0.2062
 8042SOL    HW225026   1.780   5.058   5.495  0.3741  1.4591  0.4972
 8043SOL     OW25027   3.107   2.111   5.266 -0.7325  0.1684  0.7041
 8043SOL    HW125028   3.105   2.157   5.355 -2.2108 -0.0387  0.8011
 8043SOL    HW225029   3.146   2.174   5.198  0.5104  0.2937  1.4877
 8044SOL     OW25030   5.020   2.930   6.694  0.2583  0.1257  0.2790
 8044SOL    HW125031   5.053   2.965   6.607  1.0153 -0.8805  0.1350
 8044SOL    HW225032   4.994   3.006   6.754  0.9553  0.8673 -0.3442
 8045SOL     OW25033   3.677   2.948   2.105 -0.1437 -0.5071  0.2455
 8045SOL    HW125034   3.658   2.997   2.190  0.5727  0.4231 -0.1145
 8045SOL    HW225035   3.735   2.868   2.126 -0.9916 -0.9915  0.7805
 8046SOL     OW25036   0.498   6.071   4.523 -0.4693  0.4039  0.2841
 8046SOL    HW125037   0.542   6.140   4.466  0.8537  0.6489  1.5593
 8046SOL    HW225038   0.402   6.060   4.494 -0.5879  2.4347 -0.2182
 8047SOL     OW25039   5.075   5.702   3.500 -0.2658  0.7135  0.0508
 8047SOL    HW125040   5.132   5.725   3.578  0.4970 -0.5020 -0.1123
 8047SOL    HW225041   4.998   5.645   3.530  1.6364 -2.3159 -0.3564
 8048SOL     OW25042   4.489   2.757   0.994  0.2070  0.0870  0.2310
 8048SOL    HW125043   4.564   2.822   0.980  0.0775  0.1462 -0.2162
 8048SOL    HW225044   4.424   2.766   0.919 -0.5520  0.4564  0.9177
 8049SOL     OW25045   3.128   5.676   5.829  0.1851 -0.0947 -0.0706
 8049SOL    HW125046   3.101   5.757   5.880 -1.5264 -0.8846  0.3355
 8049SOL    HW225047   3.062   5.659   5.755  2.0233  0.4133 -1.9248
 8050SOL     OW25048   6.949   2.345   6.933 -0.8498  0.0089  0.5953
 8050SOL    HW125049   7.031   2.364   6.879 -1.3082  0.3511  0.0117
 8050SOL    HW225050   6.873   2.400   6.899 -1.6987 -1.3588  0.1863
 8051SOL     OW25051   0.888   5.110   4.138  0.9609  0.2503 -0.3528
 8051SOL    HW125052   0.978   5.107   4.182  0.5021 -1.5304  0.5415
 8051SOL    HW225053   0.827   5.046   4.184  0.0843 -0.7721 -2.8194
 8052SOL     OW25054   0.105   4.784   6.075  0.3598  0.3599  0.3688
 8052SOL    HW125055   0.044   4.779   6.154 -0.0662 -2.9559  0.0073
 8052SOL    HW225056   0.054   4.758   5.993  1.8661 -0.9889 -0.1906
 8053SOL     OW25057   2.194   2.162   6.742  0.0614 -0.3010 -0.0271
 8053SOL    HW125058   2.184   2.222   6.663 -0.2487 -0.0781  0.1799
 8053SOL    HW225059   2.159   2.071   6.719  2.8731 -1.1981 -1.2149
 8054SOL     OW25060   6.655   6.759   6.477 -0.0625  1.1419  0.0469
 8054SOL    HW125061   6.661   6.669   6.521  1.5097  1.8619  1.3881
 8054SOL    HW225062   6.721   6.763   6.402  0.3689  1.3964  0.4338
 8055SOL     OW25063   4.964   1.636   5.759 -0.2390  0.5077 -0.3275
 8055SOL    HW125064   4.924   1.676   5.677 -0.3076 -0.6487 -0.8740
 8055SOL    HW225065   4.952   1.699   5.836 -0.3815  1.5022 -1.1433
 8056SOL     OW25066   6.810   1.529   0.555 -0.1187  0.4857 -0.3157
 8056SOL    HW125067   6.796   1.602   0.489 -1.5853 -0.5993 -1.2760
 8056SOL    HW225068   6.767   1.445   0.521 -2.8236  0.3642  2.9348
 8057SOL     OW25069   6.754   0.849   6.869 -0.1588  0.7500  0.2025
 8057SOL    HW125070   6.726   0.931   6.819  3.9380  1.6558 -1.0190
 8057SOL    HW225071   6.799   0.786   6.805 -2.7141 -2.3336  1.2153
 8058SOL     OW25072   5.779   3.358   2.412  0.6266  0.0695  0.6058
 8058SOL    HW125073   5.877   3.350   2.393  0.3860 -0.8217 -0.2666
 8058SOL    HW225074   5.750   3.453   2.397  2.0123  1.2413  4.1461
 8059SOL     OW25075   0.877   6.493   6.211 -0.2633  0.7749  0.7232
 8059SOL    HW125076   0.964   6.446   6.199 -1.3355 -1.6964  1.8696
 8059SOL    HW225077   0.883   6.553   6.290  0.1986  0.0379  1.2644
 8060SOL     OW25078   7.018   4.610   3.489 -0.1327  0.0272 -0.3135
 8060SOL    HW125079   7.057   4.674   3.555 -1.0328  0.4455 -0.1714
 8060SOL    HW225080   6.945   4.557   3.534  1.0434 -1.5914 -0.2316
 8061SOL     OW25081   0.585   0.501   0.844  0.6353  0.2370 -0.3834
 8061SOL    HW125082   0.638   0.428   0.801  0.3127 -0.0035 -0.3712
 8061SOL    HW225083   0.647   0.560   0.896  0.7015 -0.9393  0.9241
 8062SOL     OW25084   4.461   4.621   4.738  0.5964  0.4447 -0.5416
 8062SOL    HW125085   4.414   4.703   4.707  0.7523  1.0450  0.7286
 8062SOL    HW225086   4.409   4.579   4.813  2.0899  1.2012  0.9885
 8063SOL     OW25087   3.550   6.926   1.389 -0.2794 -0.2682  0.2426
 8063SOL    HW125088   3.612   6.959   1.461 -1.6806  0.0401  1.3574
 8063SOL    HW225089   3.523   6.832   1.409 -0.5644 -0.2326  0.0298
 8064SOL     OW25090   4.141   4.726   1.172 -0.6608 -0.5422  0.1501
 8064SOL    HW125091   4.124   4.762   1.080 -0.4811 -0.0240  0.3175
 8064SOL    HW225092   4.186   4.637   1.166  0.0151 -0.1748 -0.2543
 8065SOL     OW25093   3.389   4.291   0.288 -0.5542 -0.4881  0.4979
 8065SOL    HW125094   3.352   4.377   0.253 -3.2683 -1.2879  1.2399
 8065SOL    HW225095   3.487   4.303   0.306 -0.1454  1.4657 -2.3505
 8066SOL     OW25096   4.858   6.937   0.143  0.2930  0.4067  0.2645
 8066SOL    HW125097   4.806   6.898   0.220  1.0336  1.7675  1.5023
 8066SOL    HW225098   4.955   6.940   0.167  0.6127  0.3511 -0.9665
 8067SOL     OW25099   3.151   0.873   5.875  0.2527  0.3968 -0.2438
 8067SOL    HW125100   3.152   0.777   5.903  0.2198  0.2356 -0.7875
 8067SOL    HW225101   3.238   0.916   5.898  0.0178  0.4172  0.6200
 8068SOL     OW25102   4.545   2.631   4.685 -0.3433 -0.0970 -0.5794
 8068SOL    HW125103   4.594   2.680   4.614 -0.2215  0.0513 -0.3959
 8068SOL    HW225104   4.531   2.692   4.764 -0.4601 -0.2635 -0.4704
 8069SOL     OW25105   0.235   6.438   1.777  0.2008  0.2480 -0.0737
 8069SOL    HW125106   0.161   6.373   1.794  0.6603 -1.1191 -2.6709
 8069SOL    HW225107   0.235   6.509   1.848 -2.3571 -0.7633  1.0619
 8070SOL     OW25108   3.132   5.428   5.400 -0.2234 -0.3444  0.0452
 8070SOL    HW125109   3.191   5.500   5.436  2.9150 -1.7761 -1.8437
 8070SOL    HW225110   3.185   5.345   5.384 -2.9344 -2.0093 -1.1750
 8071SOL     OW25111   1.169   3.923   2.350  0.3823 -0.3727 -0.2232
 8071SOL    HW125112   1.259   3.912   2.309  0.2707  0.8446 -0.8394
 8071SOL    HW225113   1.166   3.875   2.438  1.4926 -0.7537 -0.3805
 8072SOL     OW25114   1.726   5.863   3.416  0.0753 -0.2348 -0.5272
 8072SOL    HW125115   1.760   5.853   3.509  0.1584 -0.7337 -0.6049
 8072SOL    HW225116   1.752   5.952   3.380 -0.7947  0.3495  0.2620
 8073SOL     OW25117   3.082   3.772   3.909 -0.3217  0.7835  0.3313
 8073SOL    HW125118   3.174   3.768   3.948 -0.0336  0.7141 -0.3588
 8073SOL    HW225119   3.019   3.722   3.969  0.4434 -0.9341 -0.2331
 8074SOL     OW25120   0.891   4.694   3.243  0.2913  0.2869 -0.2804
 8074SOL    HW125121   0.813   4.631   3.249  0.0624  0.6636  0.7487
 8074SOL    HW225122   0.932   4.705   3.333  1.0231  0.7554 -0.6649
 8075SOL     OW25123   4.119   6.187   3.412 -0.2718 -0.5104  0.4485
 8075SOL    HW125124   4.180   6.266   3.398 -0.0643 -0.6132  0.7657
 8075SOL    HW225125   4.025   6.219   3.420 -0.3107 -0.3844 -0.4478
 8076SOL     OW25126   5.103   0.492   5.105  0.2535 -0.4256 -0.2140
 8076SOL    HW125127   5.115   0.582   5.149 -0.1001  0.6110 -2.1358
 8076SOL    HW225128   5.067   0.427   5.172  2.1130  0.3786  1.6759
 8077SOL     OW25129   2.663   2.069   3.987 -0.0019  0.6844 -0.1060
 8077SOL    HW125130   2.707   2.000   3.929  0.7779  0.0574  1.1827
 8077SOL    HW225131   2.597   2.024   4.047 -1.9691  1.5284 -1.5475
 8078SOL     OW25132   0.453   3.572   4.065  0.1681  0.3269  0.1807
 8078SOL    HW125133   0.389   3.515   4.013  0.6236 -0.1184  0.0970
 8078SOL    HW225134   0.473   3.655   4.013  0.7640 -0.2011 -0.4609
 8079SOL     OW25135   5.796   4.718   1.044  0.5143  0.2916  0.0134
 8079SOL    HW125136   5.758   4.761   1.125 -0.7303  0.4823 -0.6333
 8079SOL    HW225137   5.887   4.683   1.063  0.5611  1.0537  1.2430
 8080SOL     OW25138   2.631   4.774   1.020 -0.1081 -0.0068 -0.3734
 8080SOL    HW125139   2.693   4.705   1.058 -0.5910  0.2695  0.9630
 8080SOL    HW225140   2.658   4.864   1.053  1.6092  0.7830 -3.4829
 8081SOL     OW25141   2.798   0.389   1.228  0.5323  0.4637  0.1343
 8081SOL    HW125142   2.794   0.298   1.269 -0.4925 -0.0654 -1.0810
 8081SOL    HW225143   2.718   0.442   1.256  2.4736  2.1398  3.2184
 8082SOL     OW25144   1.130   1.188   0.508  0.3190 -0.1311  0.5222
 8082SOL    HW125145   1.159   1.270   0.459 -1.0434  0.6911  1.0115
 8082SOL    HW225146   1.172   1.186   0.598 -0.2906  0.5085  0.8358
 8083SOL     OW25147   6.213   4.149   0.840 -0.5689 -0.3738 -0.5591
 8083SOL    HW125148   6.127   4.195   0.862 -0.1893  0.2990 -0.4741
 8083SOL    HW225149   6.223   4.068   0.898  0.0588  0.9578  1.2611
 8084SOL     OW25150   6.385   6.059   0.747 -0.1828  0.1086  0.0780
 8084SOL    HW125151   6.446   6.076   0.670 -1.5658  1.4147 -0.7699
 8084SOL    HW225152   6.290   6.063   0.717 -0.7566  0.4064  1.7998
 8085SOL     OW25153   2.634   1.545   0.368 -0.1714  0.6441  0.2490
 8085SOL    HW125154   2.677   1.634   0.354 -0.7904  0.8336 -0.5166
 8085SOL    HW225155   2.661   1.509   0.457  1.0981  1.0124  0.0280
 8086SOL     OW25156   5.719   0.084   5.527  0.2790  0.2219 -0.1036
 8086SOL    HW125157   5.784   0.018   5.566  2.5552  2.2038 -0.2913
 8086SOL    HW225158   5.714   0.072   5.428 -0.1235 -0.2989 -0.0275
 8087SOL     OW25159   0.471   6.511   6.539 -0.2467 -0.0674  0.3015
 8087SOL    HW125160   0.496   6.608   6.536 -0.2253  0.0495  2.4988
 8087SOL    HW225161   0.533   6.459   6.481  1.3106  0.9528  0.9902
 8088SOL     OW25162   5.624   6.208   1.644  0.8301 -0.1597 -0.3806
 8088SOL    HW125163   5.667   6.118   1.645  1.1565 -0.0117  1.4717
 8088SOL    HW225164   5.666   6.266   1.714 -0.4629  0.9209 -0.4607
 8089SOL     OW25165   0.749   6.079   2.371  0.3215  0.0647 -0.5381
 8089SOL    HW125166   0.747   6.173   2.402  1.3894 -0.3461  0.8502
 8089SOL    HW225167   0.836   6.037   2.396 -1.1309 -2.0843  1.3327
 8090SOL     OW25168   5.576   6.134   0.960 -0.0145 -0.1863  0.0024
 8090SOL    HW125169   5.674   6.125   0.938  0.3978  0.4869  1.4495
 8090SOL    HW225170   5.544   6.049   1.002  1.0472  0.9287  3.3403
 8091SOL     OW25171   2.992   2.047   3.848  0.2842  0.1888  0.1931
 8091SOL    HW125172   2.928   1.972   3.862  0.3497  0.2817  0.9992
 8091SOL    HW225173   2.953   2.132   3.884  0.1468  0.5858 -0.8468
 8092SOL     OW25174   3.709   2.305   1.411 -0.1600 -0.1962  0.5375
 8092SOL    HW125175   3.654   2.284   1.492 -2.9607  0.7003 -1.0046
 8092SOL    HW225176   3.727   2.403   1.408  0.6483 -0.3452  0.4949
 8093SOL     OW25177   2.501   5.342   6.072 -0.2917 -0.1194 -0.4047
 8093SOL    HW125178   2.559   5.264   6.048  0.1694  0.5508 -1.5314
 8093SOL    HW225179   2.457   5.324   6.160  1.4538 -0.7390  0.3990
 8094SOL     OW25180   2.083   1.934   2.338  0.3663  0.4741 -0.7152
 8094SOL    HW125181   2.150   1.861   2.322  0.2611  0.2706 -0.2350
 8094SOL    HW225182   2.131   2.021   2.349  0.5684  0.2956 -0.1692
 8095SOL     OW25183   0.590   6.448   2.249  0.3948  0.3646  0.2122
 8095SOL    HW125184   0.550   6.538   2.265  0.9720  0.7777 -0.5799
 8095SOL    HW225185   0.559   6.412   2.161  0.9126  0.2075  0.0900
 8096SOL     OW25186   2.278   0.003   2.770  0.3414 -0.6036 -0.3488
 8096SOL    HW125187   2.321  -0.048   2.845  2.2051  0.6415 -0.5267
 8096SOL    HW225188   2.347   0.029   2.703 -0.5501  2.0054 -0.3546
 8097SOL     OW25189   5.439   1.177   6.635 -0.3299 -0.0203  0.0891
 8097SOL    HW125190   5.453   1.177   6.536  1.7507 -0.5549  0.3434
 8097SOL    HW225191   5.435   1.083   6.668 -2.3197  0.1266  0.3974
 8098SOL     OW25192   1.361   5.027   4.146  0.0026  0.2712 -0.0743
 8098SOL    HW125193   1.368   4.934   4.108  0.6264  0.4537 -0.4294
 8098SOL    HW225194   1.427   5.037   4.220 -1.6329 -0.2817  1.5472
 8099SOL     OW25195   6.652   6.694   1.353 -0.0916 -0.3451 -0.3854
 8099SOL    HW125196   6.573   6.638   1.329  0.3971 -1.2349  0.0130
 8099SOL    HW225197   6.695   6.728   1.269 -1.3632  0.8358 -0.5754
 8100SOL     OW25198   6.951   6.784   1.804  0.3346  0.2819  0.2532
 8100SOL    HW125199   6.859   6.752   1.826  1.1151 -0.8467  2.1422
 8100SOL    HW225200   6.963   6.786   1.705 -1.5003 -0.1684 -0.0131
 8101SOL     OW25201   5.407   1.523   2.435 -0.1416  0.7583  0.2818
 8101SOL    HW125202   5.465   1.460   2.382 -0.8575  0.3177  0.0175
 8101SOL    HW225203   5.463   1.600   2.466  0.5182  0.5068 -0.2487
 8102SOL     OW25204   3.370   5.332   3.919  0.0765  0.5062  0.3133
 8102SOL    HW125205   3.361   5.254   3.858 -3.8957  0.4652  0.7081
 8102SOL    HW225206   3.365   5.302   4.014  0.5966  1.0768  0.5319
 8103SOL     OW25207   3.640   0.892   2.916  0.3365  0.0923 -0.6089
 8103SOL    HW125208   3.725   0.877   2.866 -0.1072 -0.5197 -1.1805
 8103SOL    HW225209   3.603   0.982   2.893  0.7997  0.3387 -0.3979
 8104SOL     OW25210   6.199   3.715   4.617  0.0961  0.3819  0.0811
 8104SOL    HW125211   6.126   3.650   4.595 -0.0048  1.3865 -3.0358
 8104SOL    HW225212   6.158   3.804   4.639  0.2786  1.1634 -2.4474
 8105SOL     OW25213   4.111   0.326   0.484  0.2072 -0.2713 -0.3513
 8105SOL    HW125214   4.200   0.361   0.454  1.0215  0.8714  2.9892
 8105SOL    HW225215   4.039   0.383   0.446  1.1414  1.0140 -0.2607
 8106SOL     OW25216   2.379   4.290   1.385  0.6132 -0.4509  0.2440
 8106SOL    HW125217   2.468   4.335   1.389  0.1269  0.5883 -0.5014
 8106SOL    HW225218   2.364   4.240   1.471  0.2222  2.6179  2.1057
 8107SOL     OW25219   3.545   5.865   6.329  0.0917 -0.1015  0.1272
 8107SOL    HW125220   3.576   5.890   6.420  1.7903 -1.2526 -0.0896
 8107SOL    HW225221   3.595   5.784   6.298 -2.4537 -1.4744 -0.6848
 8108SOL     OW25222   2.931   2.711   0.249 -0.1146  0.1112 -0.2621
 8108SOL    HW125223   2.899   2.804   0.229 -2.0712 -0.6595 -0.9539
 8108SOL    HW225224   2.874   2.645   0.199  0.5369 -1.5158  1.0658
 8109SOL     OW25225   3.671   6.032   4.960  0.3191  0.3894 -0.0072
 8109SOL    HW125226   3.730   5.991   4.890 -0.1263  1.2933 -0.9465
 8109SOL    HW225227   3.635   6.119   4.926  0.8346  1.3334  1.7181
 8110SOL     OW25228   3.914   5.452   2.533 -0.1227  0.6162 -0.1521
 8110SOL    HW125229   3.973   5.372   2.536  0.5256  1.0730 -0.3691
 8110SOL    HW225230   3.849   5.443   2.458  1.8926  1.5843 -2.1272
 8111SOL     OW25231   2.379   1.952   0.743  0.0658  0.1051 -0.1016
 8111SOL    HW125232   2.476   1.938   0.766  0.4073  0.7701 -1.0846
 8111SOL    HW225233   2.341   1.868   0.705  0.3346 -0.0677  0.0066
 8112SOL     OW25234   3.286   4.681   1.708 -0.5195 -0.2386  0.0647
 8112SOL    HW125235   3.376   4.685   1.752 -0.8926 -2.0442  1.0956
 8112SOL    HW225236   3.275   4.760   1.647  2.0328 -0.3294 -0.6367
 8113SOL     OW25237   3.635   1.309   2.138  0.3019 -0.4991  0.2289
 8113SOL    HW125238   3.732   1.287   2.131  0.5067  0.2100  0.7294
 8113SOL    HW225239   3.604   1.353   2.053  0.9031  1.0295  0.7553
 8114SOL     OW25240   3.750   6.052   6.133  0.0322 -0.0944  0.7364
 8114SOL    HW125241   3.837   6.004   6.125 -1.9573 -3.9495 -0.3397
 8114SOL    HW225242   3.749   6.130   6.070  2.1819 -0.8056 -0.2867
 8115SOL     OW25243   1.772   3.721   1.640  0.7294 -0.1174 -0.0986
 8115SOL    HW125244   1.842   3.792   1.649 -0.3988  1.1541 -0.9761
 8115SOL    HW225245   1.775   3.684   1.547  2.4585 -2.5419  0.8027
 8116SOL     OW25246   1.522   6.305   0.783 -0.0663  0.2895 -0.4031
 8116SOL    HW125247   1.548   6.346   0.696 -1.1278 -0.0540 -0.8904
 8116SOL    HW225248   1.446   6.242   0.770  0.8051 -1.0216  0.5126
 8117SOL     OW25249   2.660   2.990   5.819 -0.6028 -0.3446  0.3793
 8117SOL    HW125250   2.682   2.979   5.916  0.5500  0.0119  0.1639
 8117SOL    HW225251   2.733   2.951   5.763 -1.0200 -0.0982 -0.3566
 8118SOL     OW25252   1.450   3.668   6.238 -0.4945 -0.5986 -0.1591
 8118SOL    HW125253   1.470   3.628   6.148 -1.6405 -2.7077  0.4529
 8118SOL    HW225254   1.434   3.766   6.228 -0.1031 -0.6962 -2.1772
 8119SOL     OW25255   5.514   4.835   1.157  0.5774  0.3659  0.2473
 8119SOL    HW125256   5.435   4.792   1.201 -1.1917  1.6936 -1.4441
 8119SOL    HW225257   5.561   4.894   1.223  2.0501 -2.6111  2.1287
 8120SOL     OW25258   2.220   0.080   3.481 -0.9122 -0.0378  0.7899
 8120SOL    HW125259   2.187   0.003   3.425  0.4276 -1.3232  1.6755
 8120SOL    HW225260   2.271   0.143   3.423 -1.2750 -0.2733  0.1983
 8121SOL     OW25261   3.111   6.309   6.224 -0.4177 -0.5806  0.7956
 8121SOL    HW125262   3.118   6.279   6.129 -0.9493  0.7370  0.3272
 8121SOL    HW225263   3.049   6.248   6.273 -1.0611 -0.5956 -0.0066
 8122SOL     OW25264   6.004   3.684   4.316 -0.4886  0.4008 -0.5646
 8122SOL    HW125265   5.987   3.662   4.219 -2.2800  0.5447 -0.3247
 8122SOL    HW225266   6.035   3.601   4.363  1.2509  0.5264 -1.4032
 8123SOL     OW25267   4.105   4.817   2.733  0.4004 -0.6155  0.2380
 8123SOL    HW125268   4.097   4.776   2.824  0.1444 -0.0912  0.4599
 8123SOL    HW225269   4.199   4.849   2.719 -0.2165  2.1256  1.5953
 8124SOL     OW25270   0.554   0.355   1.479 -0.0266  0.1362 -0.3145
 8124SOL    HW125271   0.479   0.335   1.416  0.3197 -1.5602 -0.2468
 8124SOL    HW225272   0.540   0.444   1.520 -1.1510  0.5457 -1.5158
 8125SOL     OW25273   0.956   4.366   1.260  0.4083 -0.7278  0.5768
 8125SOL    HW125274   0.887   4.439   1.265  0.3962 -0.7516  0.7607
 8125SOL    HW225275   0.948   4.319   1.173  1.7217  0.7928 -0.4326
 8126SOL     OW25276   3.742   0.222   2.793  0.0401 -0.0655 -0.0871
 8126SOL    HW125277   3.652   0.220   2.749 -0.7449 -1.8052  1.4676
 8126SOL    HW225278   3.777   0.129   2.803  1.6330  0.5239  0.1368
 8127SOL     OW25279   6.185   3.701   2.402  0.6397 -0.4143  0.1650
 8127SOL    HW125280   6.172   3.644   2.484  2.0732  0.2139  0.8615
 8127SOL    HW225281   6.244   3.652   2.338 -0.4059 -0.8651 -0.4741
 8128SOL     OW25282   0.891   2.840   0.076  0.1358  0.0179  0.2295
 8128SOL    HW125283   0.849   2.915   0.128 -0.4518  0.2784 -0.6055
 8128SOL    HW225284   0.837   2.823  -0.006 -0.5853 -2.2970  1.1201
 8129SOL     OW25285   5.830   3.065   4.823 -0.0579 -0.2493  0.7839
 8129SOL    HW125286   5.798   3.050   4.916 -1.5597  1.2407  0.5547
 8129SOL    HW225287   5.876   3.153   4.817  0.7903 -0.7158  0.2879
 8130SOL     OW25288   2.775   1.380   6.799 -0.0426 -0.2619  0.3346
 8130SOL    HW125289   2.821   1.300   6.761  0.7727  0.9920 -1.4438
 8130SOL    HW225290   2.830   1.462   6.780 -1.6902  0.9445  0.6016
 8131SOL     OW25291   1.989   6.215   2.305 -0.4639 -0.4542 -0.0215
 8131SOL    HW125292   1.912   6.153   2.320  0.0550 -1.1241 -0.0813
 8131SOL    HW225293   1.986   6.289   2.372 -1.3795 -0.2463 -0.2714
 8132SOL     OW25294   0.757   2.126   1.558 -0.7732 -0.2183  0.4163
 8132SOL    HW125295   0.837   2.114   1.617 -0.2551  0.6621 -0.1031
 8132SOL    HW225296   0.698   2.198   1.596 -0.5290  0.2251 -0.0461
 8133SOL     OW25297   5.353   6.712   2.971  0.2025  0.5172  0.0503
 8133SOL    HW125298   5.426   6.730   2.905  0.5590  0.9864  0.5670
 8133SOL    HW225299   5.265   6.712   2.925  0.4618  0.6942 -0.4468
 8134SOL     OW25300   4.086   3.253   4.504  0.9331 -0.1248  0.1930
 8134SOL    HW125301   4.068   3.225   4.598  0.1091  0.5650  0.2548
 8134SOL    HW225302   4.014   3.218   4.444  0.8416  0.3744  0.0030
 8135SOL     OW25303   4.983   0.976   4.478  0.3755  0.2883  0.1311
 8135SOL    HW125304   4.938   0.996   4.565  1.9966 -0.2172  1.1234
 8135SOL    HW225305   4.964   0.882   4.451 -0.7550  0.6740 -0.4814
 8136SOL     OW25306   4.455   5.258   0.793  0.9325 -0.6841  0.0391
 8136SOL    HW125307   4.490   5.351   0.786  3.3196 -1.4868  0.5030
 8136SOL    HW225308   4.456   5.228   0.888  2.4934 -1.9602 -0.3313
 8137SOL     OW25309   6.854   6.683   2.235  0.2402 -0.1532  0.5426
 8137SOL    HW125310   6.857   6.603   2.175  0.4960  0.6824 -0.6151
 8137SOL    HW225311   6.759   6.705   2.257  0.2306 -2.0933  2.7788
 8138SOL     OW25312   6.520   5.404   6.650 -0.3568 -0.5904  0.2974
 8138SOL    HW125313   6.481   5.425   6.740  1.3184 -2.5692  1.5654
 8138SOL    HW225314   6.611   5.444   6.642 -1.0149  0.7521 -1.1348
 8139SOL     OW25315   4.489   0.854   2.057  0.1777  0.6381  0.5710
 8139SOL    HW125316   4.391   0.865   2.070  0.3619  1.9027  1.0590
 8139SOL    HW225317   4.520   0.914   1.983  0.9247  2.0336  1.9667
 8140SOL     OW25318   5.354   3.546   0.707  0.1869 -0.5020 -0.0736
 8140SOL    HW125319   5.311   3.607   0.640  1.3887  0.4854  0.0102
 8140SOL    HW225320   5.451   3.567   0.714  0.5503 -2.1463  0.3146
 8141SOL     OW25321   6.970   2.073   6.938 -0.2271 -0.1078 -0.4940
 8141SOL    HW125322   6.956   2.171   6.953 -1.0249 -0.1723 -0.7847
 8141SOL    HW225323   7.065   2.050   6.958 -0.2640  0.5443  0.4906
 8142SOL     OW25324   4.166   2.300   3.851  0.2913  0.4726  0.0959
 8142SOL    HW125325   4.258   2.313   3.815  0.7317  1.2411  1.4236
 8142SOL    HW225326   4.099   2.318   3.779  1.1616  0.7637 -0.6559
 8143SOL     OW25327   3.543   4.900   4.156 -0.0988  0.2254 -0.2207
 8143SOL    HW125328   3.614   4.946   4.210  0.1317  0.9731 -1.1404
 8143SOL    HW225329   3.573   4.807   4.134  0.6048  0.5358 -0.6006
 8144SOL     OW25330   4.357   5.535   3.104 -0.2166  1.0438  0.0234
 8144SOL    HW125331   4.342   5.437   3.119  0.4234  0.8455 -0.5987
 8144SOL    HW225332   4.291   5.569   3.037 -1.1330  1.2827  1.0183
 8145SOL     OW25333   6.157   1.394   4.095 -0.3094 -0.8103  0.2706
 8145SOL    HW125334   6.065   1.432   4.098 -0.9885 -2.4581  1.2359
 8145SOL    HW225335   6.153   1.297   4.073  1.2818 -0.7351 -0.5304
 8146SOL     OW25336   3.256   1.918   6.794 -0.4589 -0.7258 -0.3942
 8146SOL    HW125337   3.206   1.902   6.879 -0.2450  2.5199  0.4765
 8146SOL    HW225338   3.352   1.935   6.814 -0.5417  0.7900 -1.1439
 8147SOL     OW25339   1.744   6.364   4.019 -0.3471 -0.1459  0.6054
 8147SOL    HW125340   1.844   6.369   4.023 -0.2776  0.8230 -1.1508
 8147SOL    HW225341   1.705   6.434   4.079  0.1185  1.1748 -0.5570
 8148SOL     OW25342   5.937   5.497   1.952 -0.5181  0.2546 -0.0960
 8148SOL    HW125343   6.034   5.475   1.963 -0.7198 -1.0712 -0.7375
 8148SOL    HW225344   5.928   5.589   1.914  0.5303  0.0937 -0.7946
 8149SOL     OW25345   5.852   2.420   3.083  0.0641  0.3547 -0.6921
 8149SOL    HW125346   5.761   2.415   3.043 -0.0483  4.5543 -1.4424
 8149SOL    HW225347   5.849   2.473   3.168  1.8477  1.1610 -1.0723
 8150SOL     OW25348   4.731   6.140   0.998  0.8910 -0.6727 -0.3268
 8150SOL    HW125349   4.826   6.130   1.027  0.9408  1.0877  0.2713
 8150SOL    HW225350   4.724   6.213   0.930 -0.2347  0.5314  1.0014
 8151SOL     OW25351   5.057   3.909   6.439 -0.1793 -0.1591  0.2761
 8151SOL    HW125352   5.130   3.871   6.496  0.6563  0.4460 -0.3693
 8151SOL    HW225353   5.093   3.985   6.385 -0.8987 -0.8607 -1.2304
 8152SOL     OW25354   3.304   0.162   6.651 -0.5117 -0.2118  0.7395
 8152SOL    HW125355   3.292   0.097   6.726 -0.4353 -0.5302  0.4749
 8152SOL    HW225356   3.353   0.119   6.576 -2.5300 -0.6145 -0.4195
 8153SOL     OW25357   1.539   2.816   5.423  0.2016  0.1343  0.2104
 8153SOL    HW125358   1.571   2.910   5.435 -0.0883  0.1766  0.6525
 8153SOL    HW225359   1.443   2.809   5.451 -0.4119  0.1638 -1.6968
 8154SOL     OW25360   4.697   1.070   4.436 -0.0159 -0.2602 -0.2194
 8154SOL    HW125361   4.638   1.150   4.444  0.1167 -0.2508  0.8609
 8154SOL    HW225362   4.757   1.065   4.516  1.0075 -0.6268 -0.9809
 8155SOL     OW25363   6.498   6.998   4.414  0.3294 -0.1927 -0.2556
 8155SOL    HW125364   6.401   7.021   4.401  0.3683 -0.1848 -0.5365
 8155SOL    HW225365   6.554   7.079   4.393  0.3539  0.0410  0.6689
 8156SOL     OW25366   1.344   2.433   5.324 -0.2041  0.4917  0.1258
 8156SOL    HW125367   1.256   2.407   5.282 -1.7900 -0.7758  3.7643
 8156SOL    HW225368   1.405   2.354   5.324  0.1756  0.7791 -0.6142
 8157SOL     OW25369   6.275   6.438   6.743 -0.7113 -0.0688  0.2912
 8157SOL    HW125370   6.330   6.473   6.667  0.2739 -1.7673  0.1783
 8157SOL    HW225371   6.294   6.493   6.825 -0.5351  0.7422 -0.2799
 8158SOL     OW25372   4.615   1.912   1.623 -0.1894 -0.1820 -0.3389
 8158SOL    HW125373   4.605   2.006   1.656 -1.2293 -0.1061 -0.8242
 8158SOL    HW225374   4.595   1.909   1.525  4.4929 -0.0801 -1.5246
 8159SOL     OW25375   3.830   4.184   5.398 -0.1778 -0.4204  0.0307
 8159SOL    HW125376   3.801   4.141   5.312  3.0527 -1.5530 -0.6508
 8159SOL    HW225377   3.926   4.212   5.390 -0.4475  1.6042  2.5371
 8160SOL     OW25378   2.370   1.890   4.499 -0.0515 -0.0455 -0.2262
 8160SOL    HW125379   2.466   1.866   4.485 -0.2013 -0.5480 -0.4171
 8160SOL    HW225380   2.339   1.950   4.425  0.6615  1.7658  0.8960
 8161SOL     OW25381   4.858   4.674   3.165 -0.0997 -0.6653 -0.0612
 8161SOL    HW125382   4.930   4.682   3.235 -0.3818  1.6522  0.0440
 8161SOL    HW225383   4.884   4.604   3.099  2.0240 -0.2594  0.2576
 8162SOL     OW25384   5.857   4.125   0.601  0.0546  0.4796  0.0748
 8162SOL    HW125385   5.832   4.115   0.505  1.2887  0.7511 -0.2960
 8162SOL    HW225386   5.946   4.170   0.607 -0.3078  1.0605  1.3705
 8163SOL     OW25387   6.992   4.975   5.114 -0.6584  0.2230  0.0648
 8163SOL    HW125388   7.014   5.010   5.023 -1.0452  2.6625  0.8544
 8163SOL    HW225389   6.904   4.926   5.109 -2.4869  3.3087 -0.3145
 8164SOL     OW25390   5.284   3.787   5.915 -0.1981 -0.2339  0.7128
 8164SOL    HW125391   5.349   3.821   5.848 -0.1054 -0.7711  0.5236
 8164SOL    HW225392   5.302   3.690   5.933 -0.7854 -0.3249  0.8429
 8165SOL     OW25393   0.657   3.431   0.994 -0.3352 -0.3339 -0.0213
 8165SOL    HW125394   0.591   3.440   1.068 -0.2316  0.4932 -0.0264
 8165SOL    HW225395   0.644   3.505   0.928 -1.3641 -1.8079 -1.5821
 8166SOL     OW25396   0.916   1.086   2.682 -0.2839 -0.1554  0.1574
 8166SOL    HW125397   0.848   1.043   2.742  2.2330 -2.1675  1.8129
 8166SOL    HW225398   0.976   1.016   2.644 -0.7791  1.2485 -3.5907
 8167SOL     OW25399   2.088   3.883   5.648  0.3285 -0.1118 -0.0583
 8167SOL    HW125400   2.112   3.804   5.704  0.1993 -0.4195 -0.4302
 8167SOL    HW225401   2.166   3.945   5.642  0.0988  0.3178  1.1031
 8168SOL     OW25402   2.795   6.311   3.784 -0.2819  0.3238  0.0626
 8168SOL    HW125403   2.803   6.253   3.865 -1.4815 -0.9960 -0.7115
 8168SOL    HW225404   2.830   6.263   3.704 -0.7559  0.8881 -0.5021
 8169SOL     OW25405   0.420   5.784   0.228 -0.4753 -0.1084  0.2671
 8169SOL    HW125406   0.441   5.706   0.288 -0.2659 -1.2839 -1.2827
 8169SOL    HW225407   0.505   5.829   0.201 -0.3433 -1.1957 -1.2151
 8170SOL     OW25408   3.365   6.490   5.861 -0.2892 -0.0900  0.0685
 8170SOL    HW125409   3.419   6.520   5.939 -1.7397 -1.2068  1.5932
 8170SOL    HW225410   3.285   6.440   5.894 -0.3216 -1.6687 -2.1905
 8171SOL     OW25411   0.166   5.996   6.209 -0.0639 -0.0873  0.0207
 8171SOL    HW125412   0.121   6.051   6.279 -0.0275 -0.5444  0.4050
 8171SOL    HW225413   0.112   6.000   6.125 -1.1994 -1.1549  0.6605
 8172SOL     OW25414   0.417   1.264   4.702  0.1459  0.3313 -0.3482
 8172SOL    HW125415   0.432   1.313   4.616 -0.2447 -0.3860 -0.8302
 8172SOL    HW225416   0.489   1.289   4.767  0.5488  0.7477 -0.9448
 8173SOL     OW25417   4.473   4.069   0.690  0.1864  0.1433  0.4041
 8173SOL    HW125418   4.536   4.126   0.743  0.6426 -0.0994  0.1278
 8173SOL    HW225419   4.381   4.075   0.731  0.4858  0.1173  1.1010
 8174SOL     OW25420   0.394   3.874   5.517 -0.3977 -0.1381  0.5349
 8174SOL    HW125421   0.377   3.776   5.524 -0.1946 -0.6521 -3.8093
 8174SOL    HW225422   0.318   3.919   5.471  0.7367  1.2434 -0.0977
 8175SOL     OW25423   6.597   5.420   4.569  0.5215  0.1112 -0.1699
 8175SOL    HW125424   6.540   5.499   4.548  1.5159  0.8354 -0.2443
 8175SOL    HW225425   6.642   5.434   4.657  0.8978 -0.2549 -0.3002
 8176SOL     OW25426   2.750   2.492   5.508  0.0673  0.3129 -0.0189
 8176SOL    HW125427   2.713   2.442   5.430  0.7412  1.9083 -1.4411
 8176SOL    HW225428   2.780   2.583   5.478 -0.0159  1.1421  2.1991
 8177SOL     OW25429   2.622   5.936   2.708  0.1599  0.4827  0.3999
 8177SOL    HW125430   2.540   5.972   2.663  1.5469  0.3104 -2.4516
 8177SOL    HW225431   2.595   5.886   2.791 -2.9574 -1.7874 -1.7329
 8178SOL     OW25432   4.388   0.418   1.057  0.0724 -0.2082 -0.1517
 8178SOL    HW125433   4.381   0.485   0.984 -0.7592 -1.9103 -1.6954
 8178SOL    HW225434   4.425   0.332   1.021 -2.6478 -1.9148  0.7851
 8179SOL     OW25435   6.285   2.805   0.773 -0.5457  0.8348  0.0135
 8179SOL    HW125436   6.192   2.832   0.749 -0.4497 -1.3017 -3.3970
 8179SOL    HW225437   6.282   2.720   0.826 -0.5595  0.4332 -0.6196
 8180SOL     OW25438   1.942   3.179   1.894  0.1982  0.6062  0.3095
 8180SOL    HW125439   1.845   3.198   1.882  0.4443  1.3626 -0.5139
 8180SOL    HW225440   1.954   3.084   1.924 -0.7357  0.2571 -0.4069
 8181SOL     OW25441   5.372   0.811   1.346 -0.1661 -0.3561 -0.2858
 8181SOL    HW125442   5.339   0.817   1.440  2.3959  0.5278  0.6326
 8181SOL    HW225443   5.322   0.877   1.290 -0.9553 -0.0948  0.6864
 8182SOL     OW25444   2.568   0.527   1.326 -0.3470  0.0773  0.0365
 8182SOL    HW125445   2.539   0.582   1.248 -1.1283  0.1118  0.3460
 8182SOL    HW225446   2.489   0.479   1.365 -0.1826  0.8795  1.4388
 8183SOL     OW25447   1.224   2.358   1.667 -0.6578  0.4953  0.3872
 8183SOL    HW125448   1.143   2.325   1.619  0.5765 -0.3044 -1.2660
 8183SOL    HW225449   1.264   2.434   1.616  1.0008 -0.7312 -0.2173
 8184SOL     OW25450   0.994   6.595   5.695 -0.5794  0.0367  0.4768
 8184SOL    HW125451   1.081   6.551   5.716 -0.3827  0.3299  0.2717
 8184SOL    HW225452   0.933   6.585   5.774 -0.1661  0.3225  0.8388
 8185SOL     OW25453   5.304   1.643   5.849  0.8374  0.5128  0.1332
 8185SOL    HW125454   5.264   1.681   5.933 -2.7406 -2.3112 -0.0322
 8185SOL    HW225455   5.346   1.555   5.869  3.2399  1.4396 -0.5395
 8186SOL     OW25456   2.413   0.870   2.466 -0.1411 -0.0770  0.2535
 8186SOL    HW125457   2.345   0.813   2.420 -1.1663  0.4873  1.0180
 8186SOL    HW225458   2.504   0.829   2.457 -0.4763 -0.5172 -1.3339
 8187SOL     OW25459   5.657   3.102   6.123 -0.2379  0.3799 -0.4944
 8187SOL    HW125460   5.736   3.150   6.160 -1.0590  1.7360 -0.4550
 8187SOL    HW225461   5.590   3.086   6.195  0.2466 -1.3657 -0.3775
 8188SOL     OW25462   1.640   5.081   0.666  0.0799 -0.5294  0.3048
 8188SOL    HW125463   1.571   5.139   0.623 -0.4222 -1.2389  0.1303
 8188SOL    HW225464   1.731   5.116   0.645 -0.2215  0.4035  0.5153
 8189SOL     OW25465   3.539   0.376   0.140  0.5011 -0.1939 -0.0969
 8189SOL    HW125466   3.591   0.414   0.217  1.3935 -0.6119 -0.4765
 8189SOL    HW225467   3.567   0.282   0.125  0.4037 -0.0854 -0.9961
 8190SOL     OW25468   5.416   1.928   2.430  0.5069 -0.1726 -0.0570
 8190SOL    HW125469   5.354   1.955   2.504 -0.1307  0.1407 -0.6932
 8190SOL    HW225470   5.501   1.892   2.469 -0.1532 -0.8124  0.8305
 8191SOL     OW25471   0.762   3.144   3.160 -0.2951  0.2201 -0.2049
 8191SOL    HW125472   0.685   3.151   3.224  0.4155  0.1686  0.6774
 8191SOL    HW225473   0.798   3.235   3.142  1.9613  0.0290  2.5881
 8192SOL     OW25474   5.139   2.837   2.903 -0.0957  0.0459  0.1130
 8192SOL    HW125475   5.093   2.897   2.969  0.5220 -1.8078  2.3287
 8192SOL    HW225476   5.092   2.844   2.815 -2.0746  1.2841  1.1786
 8193SOL     OW25477   1.319   2.561   3.013  0.4594  0.2951  0.6148
 8193SOL    HW125478   1.243   2.619   3.042  0.3499  0.8929 -0.7837
 8193SOL    HW225479   1.330   2.568   2.914  2.3287  0.1991  0.7841
 8194SOL     OW25480   3.569   1.209   3.122 -0.0265 -0.1809 -0.5152
 8194SOL    HW125481   3.663   1.174   3.122  1.0473  2.4143 -0.5785
 8194SOL    HW225482   3.570   1.307   3.099 -2.8373 -0.2080 -1.1333
 8195SOL     OW25483   2.425   0.563   5.560 -0.6311 -0.2747 -0.0726
 8195SOL    HW125484   2.490   0.627   5.518 -0.3984  0.1785  0.9388
 8195SOL    HW225485   2.474   0.483   5.595 -0.7889 -0.5313 -0.4351
 8196SOL     OW25486   1.520   2.932   4.393 -0.1572 -0.0041 -0.7362
 8196SOL    HW125487   1.528   2.833   4.397  0.4125  0.0806  1.6295
 8196SOL    HW225488   1.424   2.958   4.393 -0.2971 -0.5256 -0.4877
 8197SOL     OW25489   2.081   2.046   4.164  0.1340  0.4660 -0.2825
 8197SOL    HW125490   2.051   2.040   4.069 -3.5317  0.3100  0.7188
 8197SOL    HW225491   2.021   1.991   4.221  0.4448  2.7465  2.4559
 8198SOL     OW25492   6.770   2.738   5.827  0.1581 -0.0346 -0.1480
 8198SOL    HW125493   6.821   2.796   5.764  0.8404 -0.5565 -0.0988
 8198SOL    HW225494   6.680   2.776   5.843 -0.3430 -0.3045 -2.0822
 8199SOL     OW25495   2.011   3.284   0.853 -0.4288 -0.1898 -0.3573
 8199SOL    HW125496   2.090   3.225   0.841 -0.6229 -0.4967 -0.1282
 8199SOL    HW225497   1.968   3.266   0.941 -1.1456 -0.4905 -0.7597
 8200SOL     OW25498   4.755   5.096   4.846  0.1808 -0.3463 -0.4068
 8200SOL    HW125499   4.794   5.060   4.761  0.6609  0.4128 -0.5139
 8200SOL    HW225500   4.674   5.042   4.871  0.0057 -0.5441 -1.3728
 8201SOL     OW25501   1.406   3.159   0.714 -0.4124  0.0315  0.1397
 8201SOL    HW125502   1.476   3.230   0.725  0.6184 -0.8438 -0.5349
 8201SOL    HW225503   1.328   3.180   0.772  0.8575  0.4907  1.7558
 8202SOL     OW25504   1.416   2.128   6.531  0.2927 -0.0876 -0.0350
 8202SOL    HW125505   1.413   2.175   6.620 -1.0613  0.0801 -0.1475
 8202SOL    HW225506   1.332   2.147   6.480 -0.0487 -2.1314 -0.3404
 8203SOL     OW25507   0.445   2.211   2.083  0.4522  0.4424 -0.2325
 8203SOL    HW125508   0.478   2.250   2.168  0.7747  1.0521 -0.6351
 8203SOL    HW225509   0.417   2.116   2.099  4.0832 -0.7861 -0.2352
 8204SOL     OW25510   6.390   4.473   3.740 -0.5621 -0.4795 -0.0277
 8204SOL    HW125511   6.310   4.432   3.783 -1.7139  1.8410  0.2192
 8204SOL    HW225512   6.362   4.525   3.660  0.6136  0.7544  0.3172
 8205SOL     OW25513   5.078   5.873   2.755 -0.2477 -0.4161 -0.2693
 8205SOL    HW125514   5.015   5.902   2.683  0.5647  1.5621 -0.2352
 8205SOL    HW225515   5.054   5.920   2.840 -0.7509 -2.1832  0.6150
 8206SOL     OW25516   2.113   1.367   5.226  0.7318 -0.2934 -0.8596
 8206SOL    HW125517   2.143   1.317   5.145 -0.7014  0.4244 -1.8770
 8206SOL    HW225518   2.025   1.330   5.256  2.4195 -2.3921  2.0824
 8207SOL     OW25519   1.813   4.617   3.405  0.5403  0.6673 -0.2892
 8207SOL    HW125520   1.747   4.552   3.367  2.4512 -1.5906  0.0170
 8207SOL    HW225521   1.892   4.625   3.345  1.8287  0.0900  1.2350
 8208SOL     OW25522   4.333   5.512   0.227 -0.3236 -0.2357  0.2631
 8208SOL    HW125523   4.276   5.462   0.161 -0.5711 -1.3012  1.2519
 8208SOL    HW225524   4.275   5.570   0.284 -0.4495 -1.3179  1.2669
 8209SOL     OW25525   3.955   7.007   0.624  0.3698  0.2583 -0.1233
 8209SOL    HW125526   3.990   7.043   0.538 -0.8062 -1.8505 -1.5790
 8209SOL    HW225527   3.875   7.059   0.653  1.6977  1.9925  0.6269
 8210SOL     OW25528   1.922   3.672   0.015  0.0463 -0.3753  0.5248
 8210SOL    HW125529   1.895   3.768   0.025  1.9024  0.3308 -0.6199
 8210SOL    HW225530   1.862   3.627  -0.051 -1.0314 -0.1104  1.3046
 8211SOL     OW25531   4.167   2.043   4.270 -0.5815  0.9370  0.6005
 8211SOL    HW125532   4.259   2.008   4.289 -0.4992  0.6572 -0.3033
 8211SOL    HW225533   4.156   2.133   4.314 -0.2122  0.5512  1.5038
 8212SOL     OW25534   3.956   6.308   5.099  0.6704 -0.3673  0.3931
 8212SOL    HW125535   3.897   6.229   5.086  2.8017 -1.8207 -1.2867
 8212SOL    HW225536   4.051   6.277   5.106  1.3536  1.8839  2.5071
 8213SOL     OW25537   6.664   5.467   1.438  0.3336  0.0887 -0.1522
 8213SOL    HW125538   6.595   5.397   1.455  0.6212 -0.0791  0.3574
 8213SOL    HW225539   6.670   5.486   1.340  0.8920 -1.2705 -0.4015
 8214SOL     OW25540   5.649   1.486   4.035 -0.2119 -0.2226  1.1574
 8214SOL    HW125541   5.578   1.419   4.055  0.9228 -2.5224 -1.7240
 8214SOL    HW225542   5.647   1.509   3.938  4.0469 -1.9746  0.4169
 8215SOL     OW25543   5.849   1.072   5.228  0.1111  0.2270 -0.1951
 8215SOL    HW125544   5.891   0.988   5.263 -1.3299 -0.0031  1.1186
 8215SOL    HW225545   5.803   1.120   5.303  0.0187  1.6558 -1.1306
 8216SOL     OW25546   3.081   2.512   1.498  1.1333 -0.1754 -0.1108
 8216SOL    HW125547   3.082   2.544   1.592  2.6132  0.8511 -0.4362
 8216SOL    HW225548   2.999   2.545   1.451  0.7289 -0.1360  0.6219
 8217SOL     OW25549   0.673   4.019   2.743 -0.0838  0.0029 -0.8371
 8217SOL    HW125550   0.621   4.019   2.657 -1.1727  0.5033 -0.1975
 8217SOL    HW225551   0.682   4.113   2.775  0.4336 -0.1734 -0.4595
 8218SOL     OW25552   1.879   5.696   1.140  0.0766 -0.6264  0.5140
 8218SOL    HW125553   1.788   5.669   1.171  0.5701 -1.2363  1.4651
 8218SOL    HW225554   1.875   5.790   1.105 -1.5641 -1.6443 -2.4107
 8219SOL     OW25555   0.755   0.333   0.737  0.1454  0.5549  0.0177
 8219SOL    HW125556   0.792   0.335   0.644  0.5732 -1.2868  0.1086
 8219SOL    HW225557   0.829   0.321   0.802 -0.2277  1.0880  0.5483
 8220SOL     OW25558   1.014   5.546   2.044  0.3561  0.2552 -0.0382
 8220SOL    HW125559   0.956   5.549   1.962  2.1492 -0.8560 -1.4144
 8220SOL    HW225560   0.969   5.596   2.118 -1.1966  1.5837 -1.7774
 8221SOL     OW25561   3.481   5.460   4.596  0.1943 -0.0691  0.2377
 8221SOL    HW125562   3.401   5.460   4.657  0.4599  1.5653  0.6412
 8221SOL    HW225563   3.561   5.493   4.647  0.7080  0.0841 -0.6582
 8222SOL     OW25564   6.528   1.709   0.094 -0.3234 -0.4097 -0.4720
 8222SOL    HW125565   6.614   1.740   0.054  0.1250 -0.0164  0.7597
 8222SOL    HW225566   6.459   1.781   0.084 -0.2555 -0.3666 -0.6372
 8223SOL     OW25567   2.417   6.427   5.336 -0.0173 -0.6395 -0.2377
 8223SOL    HW125568   2.487   6.416   5.406 -0.2552 -0.1500  0.0775
 8223SOL    HW225569   2.460   6.445   5.248  0.2320  1.6736  0.3082
 8224SOL     OW25570   6.929   0.977   2.268 -0.3539 -0.5071  0.4772
 8224SOL    HW125571   6.988   1.042   2.219 -0.7740 -0.2338  0.3296
 8224SOL    HW225572   6.880   0.920   2.203 -1.1014  0.0241  0.5641
 8225SOL     OW25573   0.444   6.728   4.280  0.0470 -0.2710  0.6109
 8225SOL    HW125574   0.358   6.769   4.310 -1.0961 -1.8621 -0.3719
 8225SOL    HW225575   0.460   6.752   4.184 -0.7600 -2.2199 -0.0510
 8226SOL     OW25576   3.871   3.035   5.004  0.5009 -0.2350 -0.1278
 8226SOL    HW125577   3.927   2.960   4.968  1.3962 -0.9001  2.3607
 8226SOL    HW225578   3.780   3.000   5.027  0.6691 -0.3871  0.3216
 8227SOL     OW25579   2.466   4.181   1.712 -0.3310  0.4255  0.2630
 8227SOL    HW125580   2.441   4.087   1.735 -0.8027  0.5347  0.2031
 8227SOL    HW225581   2.436   4.242   1.786 -1.4761  0.7267 -0.4218
 8228SOL     OW25582   2.501   0.364   0.373  0.7554 -0.6702 -0.4164
 8228SOL    HW125583   2.444   0.312   0.311  1.3171 -2.6089  0.6070
 8228SOL    HW225584   2.508   0.459   0.342  0.5674 -1.4361 -2.9587
 8229SOL     OW25585   5.796   5.311   0.184  0.3168 -0.5787 -0.2918
 8229SOL    HW125586   5.736   5.233   0.166 -0.8063  0.6832 -2.2953
 8229SOL    HW225587   5.885   5.295   0.140  0.3832 -1.0577  0.0001
 8230SOL     OW25588   1.837   6.918   0.060 -0.1573 -0.0809 -0.1974
 8230SOL    HW125589   1.810   6.860  -0.017 -1.5781 -0.2172  0.3562
 8230SOL    HW225590   1.862   6.860   0.138  0.5080  0.0575 -0.3041
 8231SOL     OW25591   3.105   6.478   3.782  0.4013  0.1032  0.1056
 8231SOL    HW125592   3.159   6.547   3.829 -0.9380  1.1684  0.1563
 8231SOL    HW225593   3.009   6.489   3.806 -0.1646 -0.1361 -1.8689
 8232SOL     OW25594   4.271   0.654   2.114  0.0527 -0.1269  0.1961
 8232SOL    HW125595   4.336   0.658   2.190 -0.3001  0.5226  0.4771
 8232SOL    HW225596   4.202   0.584   2.133 -0.4222  0.4912  0.8057
 8233SOL     OW25597   4.041   3.755   0.443 -0.2833 -0.1316 -0.4240
 8233SOL    HW125598   4.011   3.676   0.390 -0.5701  0.6523 -1.4513
 8233SOL    HW225599   4.008   3.839   0.400  0.2264  0.5681  0.5142
 8234SOL     OW25600   3.503   5.999   5.375 -0.1535 -0.6787 -0.1484
 8234SOL    HW125601   3.493   5.947   5.290 -1.7492  0.1212 -0.4649
 8234SOL    HW225602   3.600   6.020   5.389  0.1843 -1.1821 -1.5460
 8235SOL     OW25603   6.916   2.629   5.367 -0.2350  1.0035 -0.3976
 8235SOL    HW125604   6.818   2.630   5.343 -0.0071  2.1834 -1.4081
 8235SOL    HW225605   6.966   2.577   5.297  0.0638  1.9102 -0.8757
 8236SOL     OW25606   4.269   0.467   1.773 -0.2076 -0.4843 -0.0857
 8236SOL    HW125607   4.236   0.375   1.750 -1.1275  0.2270 -1.7668
 8236SOL    HW225608   4.347   0.490   1.715 -0.7398  0.2453 -0.5270
 8237SOL     OW25609   5.817   0.178   4.156 -0.3123 -0.2329  0.3288
 8237SOL    HW125610   5.868   0.157   4.240 -0.4198  0.0844  0.4764
 8237SOL    HW225611   5.864   0.251   4.107 -0.7486  0.2294  0.5858
 8238SOL     OW25612   0.473   5.938   4.162  0.7548 -0.9210 -0.9322
 8238SOL    HW125613   0.469   6.037   4.166  0.5676 -0.8920 -1.6804
 8238SOL    HW225614   0.387   5.899   4.194  0.3729 -0.7975 -1.7829
 8239SOL     OW25615   1.170   3.348   0.327 -0.2372  0.1797 -0.6714
 8239SOL    HW125616   1.165   3.413   0.403  1.0027 -0.1433 -0.2962
 8239SOL    HW225617   1.204   3.260   0.361  0.4216  0.0647 -1.6162
 8240SOL     OW25618   3.203   3.750   2.674 -0.0541 -0.0386  0.0267
 8240SOL    HW125619   3.261   3.807   2.617  0.5924 -0.4690  0.2367
 8240SOL    HW225620   3.136   3.807   2.722 -0.1488  0.3986 -0.6222
 8241SOL     OW25621   3.336   1.372   6.250 -0.4069 -0.3540 -0.0877
 8241SOL    HW125622   3.414   1.329   6.295  0.3142  1.5394  0.5639
 8241SOL    HW225623   3.283   1.424   6.317 -0.7575  0.4618 -0.9671
 8242SOL     OW25624   0.210   1.257   3.628  0.1682  0.4607  0.1819
 8242SOL    HW125625   0.272   1.329   3.599  1.7327 -0.9662 -0.1308
 8242SOL    HW225626   0.221   1.176   3.570 -1.6327 -0.0264  0.4305
 8243SOL     OW25627   1.788   4.328   4.429 -0.0669  0.8042  0.3879
 8243SOL    HW125628   1.857   4.271   4.474 -1.0782 -0.4992  0.3454
 8243SOL    HW225629   1.702   4.277   4.422 -1.2644  2.6316  1.0923
 8244SOL     OW25630   1.486   1.439   5.945  0.0956  0.5309  0.1900
 8244SOL    HW125631   1.424   1.371   5.905  0.3435  0.3737  0.0664
 8244SOL    HW225632   1.540   1.396   6.018  0.5983  0.4654 -0.2150
 8245SOL     OW25633   6.775   5.800   0.835 -0.2747  0.3049 -0.0156
 8245SOL    HW125634   6.853   5.753   0.793 -0.6422 -0.3227 -0.0080
 8245SOL    HW225635   6.760   5.765   0.927 -1.5754 -0.7859 -0.6019
 8246SOL     OW25636   1.309   2.742   5.247  0.0911  0.1867 -0.4954
 8246SOL    HW125637   1.396   2.692   5.243 -1.1855 -2.0547 -2.2001
 8246SOL    HW225638   1.247   2.697   5.311 -0.7494  0.1714 -1.3047
 8247SOL     OW25639   5.562   0.959   4.091  0.3531 -0.7763  0.3617
 8247SOL    HW125640   5.529   1.033   4.033 -0.3855 -1.1367  0.3102
 8247SOL    HW225641   5.658   0.975   4.114  1.0032 -1.1705 -1.8342
 8248SOL     OW25642   6.120   6.663   2.978  0.4435 -0.0792 -0.0557
 8248SOL    HW125643   6.126   6.762   2.964  0.1288 -0.0832 -0.2307
 8248SOL    HW225644   6.112   6.618   2.890 -0.3277 -0.1929  0.0583
 8249SOL     OW25645   5.168   0.830   4.191  0.0989 -0.2727 -0.6361
 8249SOL    HW125646   5.083   0.797   4.232 -1.1442  0.2347 -2.6867
 8249SOL    HW225647   5.226   0.869   4.263 -1.8650  0.3873  0.6843
 8250SOL     OW25648   0.904   6.969   5.247 -0.0555 -0.7958 -0.1545
 8250SOL    HW125649   0.826   6.941   5.191  0.9350  0.0997 -2.0587
 8250SOL    HW225650   0.871   7.015   5.329 -1.5426  0.2943 -1.3032
 8251SOL     OW25651   6.977   5.127   5.728  0.5661 -0.2727 -0.3055
 8251SOL    HW125652   7.032   5.046   5.747  2.2304  0.4481 -1.6587
 8251SOL    HW225653   6.902   5.103   5.666  0.5974 -0.9161 -0.0969
 8252SOL     OW25654   3.126   0.233   0.034  0.1497 -0.3816 -0.2574
 8252SOL    HW125655   3.122   0.324   0.074 -0.3383 -0.5700  0.1417
 8252SOL    HW225656   3.053   0.223  -0.034 -0.2203 -0.6857  0.1738
 8253SOL     OW25657   6.199   1.722   6.083 -0.2830 -0.3152 -0.3367
 8253SOL    HW125658   6.263   1.645   6.087  1.3523  1.0146  0.7215
 8253SOL    HW225659   6.136   1.718   6.160  1.0629  0.3762  0.8648
 8254SOL     OW25660   5.850   5.354   5.320 -0.2567 -0.3014 -0.0999
 8254SOL    HW125661   5.937   5.387   5.358  0.0350  0.2491 -1.2041
 8254SOL    HW225662   5.774   5.392   5.373  0.1330  0.6225 -0.1867
 8255SOL     OW25663   4.962   4.550   3.771  0.2064  0.3230 -0.0725
 8255SOL    HW125664   4.866   4.569   3.750  0.2947  0.8258 -0.0358
 8255SOL    HW225665   4.996   4.617   3.836  0.5194  0.0057  0.0967
 8256SOL     OW25666   3.051   3.195   4.624 -0.3801 -0.3572 -0.3053
 8256SOL    HW125667   3.102   3.115   4.656  1.1148 -0.1237 -1.9261
 8256SOL    HW225668   2.983   3.221   4.692  1.5504 -0.7860  1.9091
 8257SOL     OW25669   1.589   0.253   1.883  0.3987 -0.2800 -1.0667
 8257SOL    HW125670   1.579   0.163   1.841  1.4549 -0.5852 -0.6963
 8257SOL    HW225671   1.585   0.323   1.812 -0.1930 -0.6282 -1.3863
 8258SOL     OW25672   1.813   4.763   4.850  0.0563  0.7770 -0.0796
 8258SOL    HW125673   1.851   4.817   4.925 -0.2681 -0.2174  0.8300
 8258SOL    HW225674   1.830   4.809   4.763  1.8825  1.1444  0.4433
 8259SOL     OW25675   1.356   4.075   4.917 -0.0629 -0.2086 -0.3465
 8259SOL    HW125676   1.401   4.129   4.989  0.3904  0.5836 -1.1946
 8259SOL    HW225677   1.426   4.028   4.862 -0.3474 -0.0641 -0.8387
 8260SOL     OW25678   6.227   3.899   3.592 -0.4842  0.2455 -0.6941
 8260SOL    HW125679   6.232   3.808   3.552  1.4259  1.1237 -2.6616
 8260SOL    HW225680   6.227   3.892   3.692  0.2842 -1.8788 -0.8081
 8261SOL     OW25681   5.613   4.593   5.335 -0.1891 -0.1748  0.1741
 8261SOL    HW125682   5.708   4.618   5.318  0.6541 -2.1690  1.5588
 8261SOL    HW225683   5.594   4.504   5.294 -0.7683 -0.8417  1.8202
 8262SOL     OW25684   5.688   0.265   4.639 -0.1241  0.5141 -0.1707
 8262SOL    HW125685   5.739   0.187   4.676 -2.2671  0.1687  2.3040
 8262SOL    HW225686   5.670   0.250   4.542  1.5878 -0.8774 -0.3228
 8263SOL     OW25687   5.120   3.078   5.733  0.3098  0.3043 -0.0477
 8263SOL    HW125688   5.133   2.985   5.768 -1.4780 -0.1732 -0.5481
 8263SOL    HW225689   5.043   3.121   5.781  1.5624  1.8398  0.7024
 8264SOL     OW25690   5.719   6.566   4.861  0.1234  0.4491  0.2539
 8264SOL    HW125691   5.648   6.631   4.888 -0.0888  0.1473  0.4298
 8264SOL    HW225692   5.678   6.476   4.846  0.6271 -0.0028  1.4698
 8265SOL     OW25693   2.603   2.432   1.923  0.4400 -0.0045  0.6001
 8265SOL    HW125694   2.574   2.525   1.946  0.4305  0.2226 -0.2829
 8265SOL    HW225695   2.702   2.430   1.912  0.3107  0.2493 -0.8165
 8266SOL     OW25696   0.446   1.627   1.495 -0.3912  0.3566  0.1743
 8266SOL    HW125697   0.366   1.596   1.546 -1.0217  0.1562 -0.9103
 8266SOL    HW225698   0.513   1.665   1.559 -0.8115 -0.6105  1.2270
 8267SOL     OW25699   2.525   2.550   3.125 -0.1378 -0.6234  0.1611
 8267SOL    HW125700   2.519   2.571   3.223  0.0008 -0.4425  0.1300
 8267SOL    HW225701   2.596   2.481   3.111 -0.9735 -1.5450  0.3312
 8268SOL     OW25702   1.809   6.709   6.186  0.3696 -0.2369 -0.0536
 8268SOL    HW125703   1.789   6.719   6.089 -1.3738 -0.9205  0.1955
 8268SOL    HW225704   1.768   6.784   6.237 -1.9208 -1.7216  0.4803
 8269SOL     OW25705   4.626   6.309   0.759 -0.7720 -0.6350  0.5281
 8269SOL    HW125706   4.642   6.397   0.713  1.1813 -1.4372 -0.4851
 8269SOL    HW225707   4.535   6.308   0.800 -0.7422  1.9394  0.7885
 8270SOL     OW25708   4.635   0.922   0.828 -0.4948 -0.1397 -0.2185
 8270SOL    HW125709   4.551   0.930   0.775 -1.2197 -0.3330  0.8686
 8270SOL    HW225710   4.714   0.937   0.768 -1.2829 -0.2409 -1.3122
 8271SOL     OW25711   4.957   4.083   5.986  0.3904  0.3089 -0.2315
 8271SOL    HW125712   5.056   4.082   6.000  0.3416  2.4810  0.6572
 8271SOL    HW225713   4.910   4.058   6.071  0.1658  0.2566 -0.3689
 8272SOL     OW25714   2.470   5.362   1.235 -0.0459 -0.5225  0.5065
 8272SOL    HW125715   2.464   5.426   1.158  0.5292  0.3387  1.1632
 8272SOL    HW225716   2.447   5.270   1.203 -0.4134 -0.0800 -0.5595
 8273SOL     OW25717   3.881   4.333   6.372 -0.1498  0.4235  0.3929
 8273SOL    HW125718   3.887   4.432   6.363 -3.0868  0.8418  1.9214
 8273SOL    HW225719   3.937   4.302   6.448  1.0823  0.8225 -0.3315
 8274SOL     OW25720   2.959   1.700   0.573  0.2037  0.5716  0.6633
 8274SOL    HW125721   2.871   1.722   0.531  0.4246 -2.3658 -1.6718
 8274SOL    HW225722   3.032   1.747   0.524  0.1532  0.5971  0.6125
 8275SOL     OW25723   0.525   6.243   0.496 -0.1354  0.1841 -0.0858
 8275SOL    HW125724   0.614   6.206   0.522 -0.8435 -2.6754 -1.3562
 8275SOL    HW225725   0.529   6.277   0.402 -0.5883 -0.8121 -0.4757
 8276SOL     OW25726   6.927   0.805   4.388  0.3479  0.4141  0.0965
 8276SOL    HW125727   6.850   0.741   4.375 -0.2688  0.4811  2.8307
 8276SOL    HW225728   7.009   0.765   4.348 -0.6860 -0.5462 -1.2005
 8277SOL     OW25729   2.910   1.335   6.155 -0.1009  0.1998  0.0499
 8277SOL    HW125730   2.918   1.431   6.183  0.7781  0.2610 -0.3719
 8277SOL    HW225731   2.817   1.303   6.172  0.2706  0.3081  2.7805
 8278SOL     OW25732   1.205   3.099   5.490  0.3350 -0.3666  0.0476
 8278SOL    HW125733   1.106   3.108   5.478  0.2062 -0.3197  1.0770
 8278SOL    HW225734   1.227   3.004   5.512  0.4138 -0.1864  0.7575
 8279SOL     OW25735   4.708   1.390   2.163 -0.4822 -0.3265 -0.2267
 8279SOL    HW125736   4.620   1.420   2.126 -0.2295  0.5441 -0.1554
 8279SOL    HW225737   4.756   1.336   2.095 -0.8556 -0.3784 -0.4536
 8280SOL     OW25738   2.335   3.095   5.611  0.2810  0.3148  0.3280
 8280SOL    HW125739   2.358   3.018   5.670 -2.5419  0.7183  2.1631
 8280SOL    HW225740   2.403   3.167   5.622  1.5441 -0.8888  0.6067
 8281SOL     OW25741   5.289   1.076   6.105  0.1371 -0.1661 -0.2919
 8281SOL    HW125742   5.241   1.027   6.177  0.4511  0.6141  0.4611
 8281SOL    HW225743   5.249   1.167   6.094  0.2257 -0.2010 -0.9644
 8282SOL     OW25744   0.255   2.904   5.932 -0.5130 -0.5027  0.3151
 8282SOL    HW125745   0.319   2.835   5.964 -2.1799 -1.8900  0.8244
 8282SOL    HW225746   0.209   2.946   6.011 -1.9464 -1.2548 -0.0917
 8283SOL     OW25747   3.214   3.029   3.973  0.2810 -0.3141 -0.7124
 8283SOL    HW125748   3.179   3.107   3.921  0.9804 -0.7778 -1.9146
 8283SOL    HW225749   3.196   3.043   4.070 -0.4323  0.9043 -1.0018
 8284SOL     OW25750   4.670   1.163   6.105  0.0906 -0.5442 -0.5140
 8284SOL    HW125751   4.654   1.068   6.078  0.4810 -0.8611  0.3191
 8284SOL    HW225752   4.758   1.194   6.067  1.1961 -1.3600  1.2309
 8285SOL     OW25753   3.857   6.596   3.537 -0.1634  0.3379  0.1825
 8285SOL    HW125754   3.827   6.538   3.462 -2.0433 -1.4009  2.1289
 8285SOL    HW225755   3.956   6.587   3.549 -0.3370 -2.2239  0.1416
 8286SOL     OW25756   0.433   3.024   6.550  0.0528 -0.2818  0.2542
 8286SOL    HW125757   0.365   2.954   6.573 -0.0381 -0.2077  0.2111
 8286SOL    HW225758   0.394   3.088   6.484  0.4166 -0.6673 -0.3447
 8287SOL     OW25759   0.579   1.740   4.884 -0.0167  0.1200 -0.3371
 8287SOL    HW125760   0.516   1.675   4.841  0.1408  0.4172 -1.0379
 8287SOL    HW225761   0.645   1.690   4.940 -1.5919 -0.1094  1.3859
 8288SOL     OW25762   6.609   4.978   0.812  0.3787 -0.2232 -0.3220
 8288SOL    HW125763   6.646   5.065   0.844  0.6195 -0.6463  0.5737
 8288SOL    HW225764   6.651   4.903   0.862 -2.4687 -0.6899  1.6207
 8289SOL     OW25765   5.795   3.049   4.467 -0.0347  0.1136 -0.1211
 8289SOL    HW125766   5.882   3.024   4.509 -0.1994  1.6954  1.2790
 8289SOL    HW225767   5.722   3.042   4.535 -0.6069  1.0768 -0.6182
 8290SOL     OW25768   5.373   4.165   4.921  0.1467  0.4013 -0.1007
 8290SOL    HW125769   5.280   4.189   4.894  0.6202  0.6692 -1.5995
 8290SOL    HW225770   5.430   4.248   4.919  0.7718 -0.0249 -0.8487
 8291SOL     OW25771   2.909   1.947   0.065  0.1097  0.1341  0.4841
 8291SOL    HW125772   2.966   1.943   0.147 -0.2713  1.5671  0.8454
 8291SOL    HW225773   2.893   2.042   0.040 -0.6842 -0.2702 -0.6304
 8292SOL     OW25774   3.606   4.486   0.763 -0.3531  0.1602 -0.6906
 8292SOL    HW125775   3.624   4.390   0.787 -0.3838  0.6513  1.5755
 8292SOL    HW225776   3.510   4.497   0.738 -0.1585 -0.5199 -1.8016
 8293SOL     OW25777   3.025   4.966   2.196 -0.1388  0.7652  0.1907
 8293SOL    HW125778   2.981   4.880   2.223 -1.1959  1.2022 -0.0948
 8293SOL    HW225779   3.017   4.978   2.097  0.8039  0.7600  0.1092
 8294SOL     OW25780   1.854   4.864   0.648  0.1264 -0.0658  0.0928
 8294SOL    HW125781   1.823   4.888   0.740 -2.5631 -0.0735 -0.7305
 8294SOL    HW225782   1.815   4.776   0.622  0.6941  0.0379 -1.1400
 8295SOL     OW25783   3.932   6.904   1.517  0.3083  0.1282 -0.0475
 8295SOL    HW125784   3.878   6.983   1.545 -0.7134 -1.1414  1.6936
 8295SOL    HW225785   4.013   6.936   1.466 -1.9336  2.0824 -2.7061
 8296SOL     OW25786   2.152   4.650   4.577 -0.3522  0.2800  0.0033
 8296SOL    HW125787   2.066   4.609   4.547  0.2337 -0.0742 -1.2293
 8296SOL    HW225788   2.139   4.692   4.667 -2.2023  1.5113 -0.7905
 8297SOL     OW25789   5.451   5.181   2.366 -0.6559 -0.6153 -0.1602
 8297SOL    HW125790   5.356   5.184   2.398 -0.9051 -1.8180 -0.7188
 8297SOL    HW225791   5.491   5.092   2.388 -0.4851 -1.0726 -2.1482
 8298SOL     OW25792   2.508   0.595   2.938  0.1523  0.6177 -0.2613
 8298SOL    HW125793   2.420   0.641   2.929  0.3348  1.2832  1.0882
 8298SOL    HW225794   2.524   0.537   2.858 -0.1727  2.7136 -1.9372
 8299SOL     OW25795   4.144   7.011   1.925 -0.7727 -0.0260  0.1726
 8299SOL    HW125796   4.195   6.997   1.840 -4.9513 -0.9488 -2.4944
 8299SOL    HW225797   4.117   6.923   1.963  0.4488  0.4037  2.1893
 8300SOL     OW25798   4.307   4.754   4.440  0.0496  0.6088 -0.1341
 8300SOL    HW125799   4.240   4.803   4.383 -1.0132  0.2859  0.8152
 8300SOL    HW225800   4.273   4.748   4.534  0.6314 -1.0557 -0.0065
 8301SOL     OW25801   5.341   4.290   6.229  0.6218 -0.1075 -0.2302
 8301SOL    HW125802   5.414   4.290   6.160 -0.1513  1.3983 -1.1100
 8301SOL    HW225803   5.258   4.331   6.189  0.0423  0.4757  1.4868
 8302SOL     OW25804   1.965   2.532   0.737  0.3938 -0.5850  0.0376
 8302SOL    HW125805   1.928   2.595   0.669 -1.4850 -1.3049  0.3294
 8302SOL    HW225806   1.949   2.569   0.829  0.0088 -1.0990  0.1840
 8303SOL     OW25807   5.423   0.102   1.929  0.4476  0.0764  0.7197
 8303SOL    HW125808   5.403   0.023   1.871 -1.0356  1.3397 -0.6056
 8303SOL    HW225809   5.507   0.085   1.980  1.8497 -1.1520 -1.7569
 8304SOL     OW25810   2.574   4.891   4.750 -0.9042 -0.4771  0.2242
 8304SOL    HW125811   2.504   4.893   4.679  1.6690  0.6715 -2.4798
 8304SOL    HW225812   2.625   4.805   4.744 -0.1551 -0.0338  0.1268
 8305SOL     OW25813   3.795   3.811   4.980  0.0918 -0.2661 -0.5440
 8305SOL    HW125814   3.842   3.748   4.919 -0.6522 -0.6472 -0.7370
 8305SOL    HW225815   3.699   3.784   4.989  0.4873 -1.0982  1.9233
 8306SOL     OW25816   5.557   6.316   5.730  0.7190  0.2603 -0.2025
 8306SOL    HW125817   5.472   6.263   5.735 -1.3440  3.2843 -0.0306
 8306SOL    HW225818   5.598   6.304   5.640  0.3590 -1.5675 -0.1634
 8307SOL     OW25819   6.601   2.808   1.935 -0.5879  0.1810 -0.3875
 8307SOL    HW125820   6.533   2.759   1.991 -2.7887  0.9456 -2.2056
 8307SOL    HW225821   6.589   2.906   1.947 -0.4033  0.3349 -1.3636
 8308SOL     OW25822   1.771   1.730   2.810 -0.5216  0.1365 -0.1868
 8308SOL    HW125823   1.778   1.656   2.743  0.7849 -1.3019  1.4496
 8308SOL    HW225824   1.859   1.776   2.819 -0.5793  0.1002  0.7394
 8309SOL     OW25825   0.957   5.526   6.459 -0.3847  0.4557  0.3191
 8309SOL    HW125826   1.017   5.599   6.491 -0.0423 -0.2762  1.3919
 8309SOL    HW225827   1.012   5.455   6.415 -0.4171 -0.3131  1.4869
 8310SOL     OW25828   2.125   5.502   4.186 -0.2734 -0.3555  0.3931
 8310SOL    HW125829   2.093   5.434   4.120 -1.5027  0.3195  0.2585
 8310SOL    HW225830   2.225   5.505   4.185 -0.1149 -3.0360  1.3264
 8311SOL     OW25831   5.018   0.864   0.355 -0.6582  0.2136 -0.0852
 8311SOL    HW125832   5.025   0.904   0.264  1.2076  1.2098  0.4475
 8311SOL    HW225833   4.963   0.781   0.351  0.1394 -0.2650 -2.2917
 8312SOL     OW25834   6.642   2.523   1.463 -0.4624 -0.2624 -0.2577
 8312SOL    HW125835   6.679   2.578   1.538 -0.3277 -1.2534  0.4319
 8312SOL    HW225836   6.689   2.545   1.378 -0.6138  0.8805 -0.0646
 8313SOL     OW25837   2.403   6.033   2.538 -0.4654  0.3142 -0.7528
 8313SOL    HW125838   2.318   5.983   2.518  0.4078 -0.6891 -2.0985
 8313SOL    HW225839   2.429   6.086   2.458  0.4713  0.1866 -0.5356
 8314SOL     OW25840   0.230   3.149   4.040  0.1315  0.9444  0.1678
 8314SOL    HW125841   0.325   3.133   4.069  0.2013  1.6289  0.3314
 8314SOL    HW225842   0.174   3.167   4.120 -0.2506  0.0367  0.1182
 8315SOL     OW25843   2.780   3.700   1.042  0.1991  0.1679 -0.2178
 8315SOL    HW125844   2.790   3.612   1.089 -0.8527 -0.0707 -0.4125
 8315SOL    HW225845   2.695   3.700   0.989 -1.2135  2.2212  1.8292
 8316SOL     OW25846   3.562   2.695   5.529  0.0318  0.4599 -0.0015
 8316SOL    HW125847   3.537   2.762   5.460  1.1371  1.2776  0.3688
 8316SOL    HW225848   3.654   2.661   5.512 -0.6054 -1.1880 -0.3353
 8317SOL     OW25849   0.489   2.634   6.510 -0.2757  0.3436  0.3748
 8317SOL    HW125850   0.467   2.707   6.445  1.6301  0.0550 -0.6457
 8317SOL    HW225851   0.404   2.589   6.539 -1.1806 -1.2613 -3.9867
 8318SOL     OW25852   3.145   2.168   0.891 -0.3173  0.7243 -0.6209
 8318SOL    HW125853   3.235   2.184   0.851  0.9606 -0.2574  1.6238
 8318SOL    HW225854   3.122   2.244   0.953  0.5352 -0.4989  1.2977
 8319SOL     OW25855   6.105   3.580   0.497  0.2340 -0.7166  0.2659
 8319SOL    HW125856   6.006   3.594   0.488  0.1179 -1.0709  0.8926
 8319SOL    HW225857   6.140   3.637   0.571  0.9273  1.1751 -1.4487
 8320SOL     OW25858   4.037   6.697   1.708 -0.2655 -0.0177 -0.3662
 8320SOL    HW125859   3.979   6.674   1.786  0.8025 -1.2994  0.0961
 8320SOL    HW225860   3.995   6.770   1.655 -0.9121  1.0510  1.5432
 8321SOL     OW25861   5.499   2.427   0.692  0.0898 -0.0087  0.2104
 8321SOL    HW125862   5.430   2.403   0.760 -1.2793  1.3046 -0.6495
 8321SOL    HW225863   5.563   2.493   0.730 -0.1206  0.0127  0.5265
 8322SOL     OW25864   0.602   0.513   0.100 -0.3125 -0.1815 -0.9382
 8322SOL    HW125865   0.666   0.492   0.174 -0.0393 -0.7201 -1.3221
 8322SOL    HW225866   0.622   0.605   0.065 -0.2269 -0.0567 -0.5685
 8323SOL     OW25867   6.616   5.970   2.519  0.7324  0.1091  0.1007
 8323SOL    HW125868   6.522   5.990   2.545  0.6615  0.4332 -0.3962
 8323SOL    HW225869   6.672   5.957   2.602 -0.2279 -2.5280  0.4430
 8324SOL     OW25870   1.440   3.814   2.338  0.6793 -0.5613  0.3034
 8324SOL    HW125871   1.401   3.723   2.323  0.2182 -0.3171 -0.0237
 8324SOL    HW225872   1.539   3.809   2.338  0.6515 -1.0867  0.4195
 8325SOL     OW25873   2.158   0.867   4.873 -0.1540  0.3936  0.3620
 8325SOL    HW125874   2.231   0.870   4.942  2.0421 -1.6049 -1.7337
 8325SOL    HW225875   2.191   0.907   4.788 -1.2945 -1.0763 -0.8170
 8326SOL     OW25876   5.253   3.928   0.598 -0.1095 -1.0418  0.2993
 8326SOL    HW125877   5.229   4.023   0.581 -2.9145 -1.5343  1.0712
 8326SOL    HW225878   5.274   3.915   0.695  2.2048 -0.9084 -0.1197
 8327SOL     OW25879   6.198   1.899   2.386 -0.3300  0.5266 -0.6179
 8327SOL    HW125880   6.259   1.925   2.311 -0.7299 -1.8236 -1.8877
 8327SOL    HW225881   6.103   1.908   2.356 -0.5820  1.9388  0.5262
 8328SOL     OW25882   2.183   0.025   7.011 -0.0220 -0.2116 -0.1562
 8328SOL    HW125883   2.155   0.016   6.915 -0.3234  3.8699 -0.6150
 8328SOL    HW225884   2.103   0.031   7.069  0.0787  0.6236 -0.0939
 8329SOL     OW25885   0.255   1.690   5.269 -0.7617  0.8546 -0.1334
 8329SOL    HW125886   0.224   1.711   5.176  0.1260 -1.3371 -0.9942
 8329SOL    HW225887   0.343   1.735   5.286 -0.4819  0.5339 -0.7064
 8330SOL     OW25888   5.662   4.492   6.416  0.1402 -0.2666 -0.0410
 8330SOL    HW125889   5.754   4.532   6.423  0.0876  0.0533 -1.0582
 8330SOL    HW225890   5.620   4.489   6.507  1.0366 -0.1349  0.3890
 8331SOL     OW25891   6.130   4.690   3.039 -0.3925 -0.6040 -0.4221
 8331SOL    HW125892   6.135   4.641   3.126 -2.3430  2.3567  1.5378
 8331SOL    HW225893   6.034   4.702   3.014 -0.2320  3.7466  0.3387
 8332SOL     OW25894   4.568   6.572   5.823 -0.0079  0.6823 -0.0010
 8332SOL    HW125895   4.516   6.508   5.766  1.5361  1.0895 -1.9998
 8332SOL    HW225896   4.525   6.662   5.820 -0.1934  0.5904 -0.1354
 8333SOL     OW25897   6.812   1.189   3.045  0.4000  0.2015 -0.4558
 8333SOL    HW125898   6.799   1.252   2.968  0.7719 -0.7288 -1.3017
 8333SOL    HW225899   6.751   1.216   3.120 -1.0802  0.2569 -1.6198
 8334SOL     OW25900   7.012   4.496   4.316 -0.8607  0.3783  0.4658
 8334SOL    HW125901   6.978   4.408   4.283  0.0747 -1.4232  3.8138
 8334SOL    HW225902   7.046   4.550   4.239 -1.9281 -1.9464 -1.7804
 8335SOL     OW25903   0.057   0.737   2.690  0.0121  0.3540 -0.8707
 8335SOL    HW125904   0.015   0.752   2.600  0.2211  1.0764 -0.8569
 8335SOL    HW225905   0.045   0.818   2.746 -3.5513 -1.3801  1.2214
 8336SOL     OW25906   6.729   6.812   3.744  0.1894 -0.4276  0.2860
 8336SOL    HW125907   6.676   6.762   3.676  2.1711 -0.0645 -1.6281
 8336SOL    HW225908   6.706   6.909   3.739 -1.8596 -0.7145  2.3181
 8337SOL     OW25909   5.298   5.354   0.913 -0.3032 -0.7249  0.0946
 8337SOL    HW125910   5.348   5.319   0.834  1.6910  0.1496  0.8996
 8337SOL    HW225911   5.295   5.284   0.984 -1.1480 -1.1313 -0.3260
 8338SOL     OW25912   2.970   5.624   3.967 -0.3408  0.5943  0.0815
 8338SOL    HW125913   2.878   5.586   3.972  0.1086 -0.4885  0.3936
 8338SOL    HW225914   3.029   5.562   3.916  0.3841  0.9214  0.5026
 8339SOL     OW25915   6.840   5.865   3.962  0.2498 -0.0506  0.1883
 8339SOL    HW125916   6.913   5.924   3.929  1.8489 -1.3184  1.2661
 8339SOL    HW225917   6.830   5.786   3.901 -1.6244  1.0726 -1.0468
 8340SOL     OW25918   3.555   5.649   4.840  0.3993  0.1859 -0.3414
 8340SOL    HW125919   3.618   5.711   4.793 -1.2305  1.3405 -1.1014
 8340SOL    HW225920   3.463   5.687   4.838 -0.1885 -1.0103  1.5486
 8341SOL     OW25921   0.106   6.883   2.907 -0.0980  0.2561 -1.1150
 8341SOL    HW125922   0.083   6.884   3.004 -2.6499 -1.6430 -1.5910
 8341SOL    HW225923   0.092   6.975   2.869 -0.3492  0.7162  0.0471
 8342SOL     OW25924   5.643   4.600   3.288 -0.3789  0.0398 -0.1020
 8342SOL    HW125925   5.664   4.545   3.208  0.4717 -1.6664  1.2411
 8342SOL    HW225926   5.693   4.686   3.283 -0.2299 -0.0986 -1.3136
 8343SOL     OW25927   2.605   0.236   1.868  0.0090  0.1009 -0.4982
 8343SOL    HW125928   2.602   0.137   1.884  1.3537  0.4450  2.5995
 8343SOL    HW225929   2.631   0.254   1.773  1.0335 -2.5141 -0.8010
 8344SOL     OW25930   4.527   5.374   3.367 -0.3760  0.0645  0.1969
 8344SOL    HW125931   4.566   5.384   3.276  0.4667  0.4825  0.5903
 8344SOL    HW225932   4.432   5.343   3.360  0.4607 -2.5138 -0.7449
 8345SOL     OW25933   3.771   0.137   0.771  0.3426  0.2721 -0.4839
 8345SOL    HW125934   3.790   0.142   0.869 -0.0110  1.2182 -0.4542
 8345SOL    HW225935   3.706   0.209   0.746  1.4503  0.9191 -1.6393
 8346SOL     OW25936   5.080   2.407   0.951  0.1844 -0.2092  0.0329
 8346SOL    HW125937   5.143   2.476   0.916 -1.1986  1.5405  0.8728
 8346SOL    HW225938   5.039   2.439   1.036 -0.6108 -2.0310  0.3871
 8347SOL     OW25939   6.966   1.918   3.639  0.0585  0.1237 -0.0958
 8347SOL    HW125940   6.977   1.889   3.544 -3.0707 -1.6868 -0.0746
 8347SOL    HW225941   6.983   1.840   3.700 -1.4335  0.2340  0.5127
 8348SOL     OW25942   5.374   2.377   4.896 -0.0792  0.6087  0.0395
 8348SOL    HW125943   5.378   2.356   4.994 -0.7478 -1.4118 -0.3107
 8348SOL    HW225944   5.447   2.441   4.872  1.1358 -0.1456  1.5595
 8349SOL     OW25945   6.167   2.603   2.092 -0.2097 -0.7668 -0.6128
 8349SOL    HW125946   6.164   2.589   2.191  0.1614 -0.6342 -0.5819
 8349SOL    HW225947   6.113   2.685   2.068  0.9168  0.0693 -0.3543
 8350SOL     OW25948   6.953   3.648   5.197 -0.1712 -0.0935  0.3735
 8350SOL    HW125949   6.883   3.715   5.175 -0.3084  0.2547  1.7842
 8350SOL    HW225950   6.911   3.558   5.209  0.1335 -0.7315 -2.5404
 8351SOL     OW25951   4.546   3.523   0.829 -0.5650  0.2375 -0.0100
 8351SOL    HW125952   4.604   3.547   0.907 -0.8385 -1.1857  0.6723
 8351SOL    HW225953   4.594   3.544   0.744  0.3975  0.3268  0.5392
 8352SOL     OW25954   5.660   2.376   5.501 -0.2060 -0.1148  0.0070
 8352SOL    HW125955   5.731   2.417   5.559 -0.1307 -0.2863  0.0389
 8352SOL    HW225956   5.692   2.287   5.469  0.1213  0.3520 -1.0112
 8353SOL     OW25957   3.897   1.511   0.724 -0.3159 -0.0062 -0.1742
 8353SOL    HW125958   3.838   1.430   0.718  0.6865 -0.7376 -0.4378
 8353SOL    HW225959   3.885   1.554   0.813  2.1609 -2.8869  1.7309
 8354SOL     OW25960   1.536   1.861   2.907  0.6317 -0.1984  0.6794
 8354SOL    HW125961   1.626   1.821   2.894  0.3263 -1.5074  2.2854
 8354SOL    HW225962   1.473   1.792   2.942 -0.4528  1.1904  1.5828
 8355SOL     OW25963   0.233   5.762   6.346  0.4820  0.1033  0.6456
 8355SOL    HW125964   0.276   5.792   6.431  0.4971  1.6890  0.1009
 8355SOL    HW225965   0.216   5.841   6.287  2.5093 -1.1546 -1.8097
 8356SOL     OW25966   5.153   0.929   3.745  0.1538  0.3125  0.2418
 8356SOL    HW125967   5.067   0.905   3.701  0.5377  0.8797 -0.8531
 8356SOL    HW225968   5.185   0.851   3.800 -1.1646  0.1863  0.8893
 8357SOL     OW25969   3.174   2.693   1.270 -0.2656  0.1689 -0.6552
 8357SOL    HW125970   3.164   2.657   1.363 -2.6312  1.8407 -0.1752
 8357SOL    HW225971   3.271   2.708   1.251  0.2123  1.8176  2.4148
 8358SOL     OW25972   4.210   6.328   5.480  0.5088 -0.0174 -0.4335
 8358SOL    HW125973   4.162   6.388   5.416 -1.5137 -1.1767 -0.0881
 8358SOL    HW225974   4.201   6.233   5.449  1.4302 -0.3962  0.4056
 8359SOL     OW25975   2.229   6.938   4.301  0.2156 -0.1344  0.0173
 8359SOL    HW125976   2.151   6.986   4.340  0.6272  0.2982  0.3271
 8359SOL    HW225977   2.259   6.985   4.218 -1.0824 -1.4408 -1.2382
 8360SOL     OW25978   2.357   6.970   1.050  0.3143 -0.9485  0.0301
 8360SOL    HW125979   2.392   6.918   0.972  2.5302  2.9732 -1.9499
 8360SOL    HW225980   2.258   6.980   1.042  0.3942 -1.3183 -1.8700
 8361SOL     OW25981   2.271   0.697   4.532 -0.1815  0.4853  0.0935
 8361SOL    HW125982   2.190   0.651   4.567 -1.2049  1.4808 -0.8737
 8361SOL    HW225983   2.285   0.671   4.437 -0.5356  1.7991 -0.3415
 8362SOL     OW25984   3.400   7.014   0.323 -0.6896 -0.0829  0.4675
 8362SOL    HW125985   3.327   7.082   0.332 -0.7699 -0.3073  1.6729
 8362SOL    HW225986   3.361   6.922   0.329 -0.2698 -0.2020  1.5933
 8363SOL     OW25987   5.216   0.709   2.901  0.9259 -0.0746  0.1106
 8363SOL    HW125988   5.169   0.721   2.814  2.5121 -0.9321 -0.9072
 8363SOL    HW225989   5.265   0.792   2.925  1.4655 -0.2281 -0.4376
 8364SOL     OW25990   6.288   5.374   3.831 -0.8014  0.0809 -0.3045
 8364SOL    HW125991   6.199   5.375   3.878 -0.8060 -2.1108 -0.1343
 8364SOL    HW225992   6.348   5.307   3.876  0.4682  0.5489 -1.2495
 8365SOL     OW25993   0.633   3.239   0.631 -0.0362  0.0130 -0.7481
 8365SOL    HW125994   0.674   3.155   0.596 -0.8941 -1.5049  1.6640
 8365SOL    HW225995   0.691   3.276   0.704 -0.9829 -0.0189  0.0479
 8366SOL     OW25996   1.984   2.805   3.168 -0.3669 -0.7327  0.2755
 8366SOL    HW125997   2.069   2.855   3.183 -0.3212 -0.2546 -1.4589
 8366SOL    HW225998   1.965   2.749   3.249  0.4751  0.7384  1.5606
 8367SOL     OW25999   6.758   6.167   6.278  0.0663  1.1419 -0.0970
 8367SOL    HW126000   6.709   6.188   6.363 -1.7792 -2.4886 -0.0819
 8367SOL    HW226001   6.728   6.230   6.206 -3.0873  0.4458  0.4757
 8368SOL     OW26002   5.843   1.462   1.835  0.3222 -0.2566  0.2077
 8368SOL    HW126003   5.825   1.561   1.830 -1.3165 -0.5827 -2.0409
 8368SOL    HW226004   5.937   1.447   1.868  1.1178  2.1145 -0.7475
 8369SOL     OW26005   2.679   0.910   1.530 -0.3979 -0.2355  0.1636
 8369SOL    HW126006   2.641   0.942   1.443  0.9988  0.2025 -0.3121
 8369SOL    HW226007   2.754   0.970   1.557  0.2089 -1.3032  0.8763
 8370SOL     OW26008   0.596   6.171   1.131  0.2384 -0.4102  0.2439
 8370SOL    HW126009   0.588   6.088   1.075  1.6707  0.8208 -1.9044
 8370SOL    HW226010   0.529   6.239   1.101  2.1098  0.8815 -1.2532
 8371SOL     OW26011   0.483   4.427   1.996 -0.9110  0.1986  0.2544
 8371SOL    HW126012   0.565   4.406   1.942 -0.1587  2.5994  0.3394
 8371SOL    HW226013   0.509   4.440   2.092 -1.4335  0.6226  0.3458
 8372SOL     OW26014   5.634   4.018   1.944  0.1432 -0.2293  0.3080
 8372SOL    HW126015   5.540   4.010   1.910  0.0767  0.6548  0.2596
 8372SOL    HW226016   5.692   3.951   1.898 -0.5353 -1.0425  0.6185
 8373SOL     OW26017   3.852   1.217   4.211 -0.0504 -0.1083  0.7230
 8373SOL    HW126018   3.852   1.121   4.183 -0.2332 -0.1866  0.9842
 8373SOL    HW226019   3.803   1.272   4.143  2.8181  0.3366 -1.1714
 8374SOL     OW26020   5.096   2.098   4.275  0.2162 -0.1257 -0.7902
 8374SOL    HW126021   5.179   2.074   4.224 -0.5461  1.1659 -2.7629
 8374SOL    HW226022   5.051   2.014   4.306  2.9425 -0.8476  1.6612
 8375SOL     OW26023   0.224   0.856   4.703 -0.0620 -0.3571 -0.0262
 8375SOL    HW126024   0.289   0.784   4.678 -1.3535 -1.1481 -1.2668
 8375SOL    HW226025   0.131   0.820   4.697 -0.6928  1.1638  0.2561
 8376SOL     OW26026   3.519   2.491   0.470 -0.3721  0.0581 -0.2113
 8376SOL    HW126027   3.576   2.409   0.475  1.0213  0.9897 -0.1237
 8376SOL    HW226028   3.521   2.538   0.558  0.1810  1.0207 -0.7121
 8377SOL     OW26029   6.330   4.813   6.403  0.4531  0.5088 -0.4040
 8377SOL    HW126030   6.232   4.829   6.417  0.2214 -0.9239 -0.2278
 8377SOL    HW226031   6.377   4.813   6.491  0.5850  1.0149 -0.4730
 8378SOL     OW26032   4.000   5.233   0.771  0.2986 -0.4218  0.5392
 8378SOL    HW126033   3.908   5.240   0.734  0.1451  0.1307  1.0054
 8378SOL    HW226034   4.001   5.166   0.846  0.5074 -1.1915 -0.1377
 8379SOL     OW26035   0.458   6.298   4.853  0.1210 -0.7971 -0.0328
 8379SOL    HW126036   0.527   6.366   4.876 -1.2312  0.8411 -0.6700
 8379SOL    HW226037   0.501   6.208   4.844  2.1115  0.1389 -0.2055
 8380SOL     OW26038   3.759   1.486   1.487 -0.1557  0.2144  0.7272
 8380SOL    HW126039   3.759   1.463   1.390 -1.9804 -2.3970  1.2340
 8380SOL    HW226040   3.771   1.585   1.498  3.3224  0.2767 -1.9231
 8381SOL     OW26041   4.035   6.604   2.800  0.3079 -0.3906  0.5839
 8381SOL    HW126042   4.078   6.625   2.888  1.2920 -3.1928  0.8837
 8381SOL    HW226043   4.105   6.601   2.728 -0.3195  0.7319 -0.1035
 8382SOL     OW26044   6.368   2.767   1.780 -0.1415 -0.4039  0.3405
 8382SOL    HW126045   6.358   2.757   1.681 -0.0167 -2.2807  0.4709
 8382SOL    HW226046   6.464   2.787   1.802 -0.0942 -0.3728  0.1090
 8383SOL     OW26047   4.964   5.796   4.745 -0.1119 -0.8227 -0.5104
 8383SOL    HW126048   4.995   5.716   4.693  0.0054 -1.5376  0.6297
 8383SOL    HW226049   4.904   5.766   4.819  1.2399 -0.0339  0.9498
 8384SOL     OW26050   6.551   2.659   5.338 -1.0815 -0.2832  0.1763
 8384SOL    HW126051   6.469   2.661   5.281 -0.8307 -0.2830 -0.1850
 8384SOL    HW226052   6.564   2.748   5.382  0.0717  0.5329 -1.6871
 8385SOL     OW26053   6.896   4.199   4.310 -0.1578 -0.1620  0.5431
 8385SOL    HW126054   6.990   4.180   4.284 -0.0501 -2.6007  2.2916
 8385SOL    HW226055   6.872   4.143   4.390 -2.9310  0.7650  0.4644
 8386SOL     OW26056   4.584   5.405   4.122  0.6090  0.0401  0.3155
 8386SOL    HW126057   4.664   5.346   4.132  0.0962 -0.6274  0.5696
 8386SOL    HW226058   4.555   5.436   4.213  1.1334  1.0474  0.1506
 8387SOL     OW26059   5.592   4.076   0.265 -0.0665  0.0436 -0.2968
 8387SOL    HW126060   5.531   4.102   0.191  0.1354 -0.1875 -0.5485
 8387SOL    HW226061   5.548   4.005   0.321 -0.1955  0.1754 -0.2321
 8388SOL     OW26062   4.752   5.018   5.957 -0.3986 -0.2933  0.3370
 8388SOL    HW126063   4.796   4.938   5.916  2.4595  1.6672 -0.7306
 8388SOL    HW226064   4.692   5.061   5.889 -1.6796 -1.2410  0.8091
 8389SOL     OW26065   1.575   4.694   5.554  0.2184  0.3168  0.4339
 8389SOL    HW126066   1.522   4.638   5.617  0.3231  0.5032  0.6881
 8389SOL    HW226067   1.672   4.692   5.580  0.4882 -0.7753 -0.5796
 8390SOL     OW26068   3.906   1.240   2.104 -0.0677 -0.1262  0.1171
 8390SOL    HW126069   3.921   1.164   2.167  0.1236  0.3302  0.6291
 8390SOL    HW226070   3.975   1.311   2.121 -1.1073  0.7819  0.6048
 8391SOL     OW26071   3.048   3.357   1.708 -0.3706 -0.5376  0.7012
 8391SOL    HW126072   3.047   3.263   1.742 -1.1083 -1.1361 -0.8471
 8391SOL    HW226073   3.108   3.363   1.628 -1.2513  0.0041  0.0567
 8392SOL     OW26074   4.868   3.263   4.117  0.3896 -0.0449 -0.4295
 8392SOL    HW126075   4.942   3.211   4.160  0.5273 -2.0959 -2.8718
 8392SOL    HW226076   4.786   3.256   4.173  0.9665 -1.2299  0.3175
 8393SOL     OW26077   4.899   4.361   0.894 -0.8708 -0.1736  0.0477
 8393SOL    HW126078   4.904   4.442   0.952  0.9473  0.6937 -1.2155
 8393SOL    HW226079   4.908   4.279   0.951  0.9899  0.6494  1.0297
 8394SOL     OW26080   4.855   3.203   5.464  0.6974  0.1477  0.4365
 8394SOL    HW126081   4.806   3.251   5.391 -0.2309 -0.7432  0.4387
 8394SOL    HW226082   4.852   3.105   5.446  1.4318 -0.0027  1.0969
 8395SOL     OW26083   6.480   5.786   0.557 -0.1004  0.3063  0.1892
 8395SOL    HW126084   6.569   5.763   0.517 -0.3021 -0.7005  0.2701
 8395SOL    HW226085   6.474   5.747   0.649  0.6372  3.1952  1.5655
 8396SOL     OW26086   4.109   1.083   1.609  0.5716  0.4771 -0.5275
 8396SOL    HW126087   4.087   1.113   1.702  3.1029 -1.8661  0.9713
 8396SOL    HW226088   4.032   1.030   1.572 -0.5588  1.6273  0.0973
 8397SOL     OW26089   5.248   2.028   7.018  1.0272 -0.0101  0.1822
 8397SOL    HW126090   5.334   2.066   6.984 -0.7244  2.4950 -1.8824
 8397SOL    HW226091   5.206   2.092   7.082 -0.2594 -0.1524 -0.4749
 8398SOL     OW26092   4.903   0.776   2.372 -0.2084  0.0883  0.2663
 8398SOL    HW126093   4.853   0.700   2.414  0.4516 -0.0008  0.9142
 8398SOL    HW226094   5.001   0.756   2.373 -0.0538  0.8016  0.1288
 8399SOL     OW26095   3.797   0.591   4.559 -0.3827 -0.2245  0.2269
 8399SOL    HW126096   3.699   0.603   4.571 -1.3806 -3.5939 -2.8753
 8399SOL    HW226097   3.826   0.509   4.608  0.2674 -0.8180 -1.1079
 8400SOL     OW26098   1.476   3.966   2.567 -0.1794 -0.6023 -0.1943
 8400SOL    HW126099   1.430   3.930   2.486  1.3469 -1.0588 -0.8969
 8400SOL    HW226100   1.546   4.032   2.540  1.6164 -2.1056  0.5706
 8401SOL     OW26101   3.032   5.909   6.217  0.5464 -0.1837  0.3244
 8401SOL    HW126102   3.004   5.986   6.274  1.7468  0.9752 -0.5893
 8401SOL    HW226103   3.131   5.894   6.228  0.3570 -1.5407  0.3992
 8402SOL     OW26104   4.174   3.426   5.899  0.6347  0.3888 -0.3195
 8402SOL    HW126105   4.213   3.356   5.840 -0.6348 -1.7035  1.1709
 8402SOL    HW226106   4.074   3.423   5.893  0.4242 -0.3922  2.3713
 8403SOL     OW26107   6.250   1.111   6.167  0.4833 -0.4996 -0.4792
 8403SOL    HW126108   6.238   1.207   6.191 -0.8590 -0.7712  0.0479
 8403SOL    HW226109   6.286   1.061   6.246  0.2886 -0.5890 -0.4447
 8404SOL     OW26110   1.546   6.155   4.036 -0.1572  0.3407  0.2120
 8404SOL    HW126111   1.620   6.219   4.014  2.1710 -1.9879  0.7555
 8404SOL    HW226112   1.497   6.188   4.117 -0.8138  2.7135 -1.0605
 8405SOL     OW26113   4.549   4.861   0.082  0.5388  0.2259  0.1439
 8405SOL    HW126114   4.579   4.919   0.006 -0.7385 -0.0905 -0.6275
 8405SOL    HW226115   4.594   4.772   0.074  0.8580  0.3880  0.0960
 8406SOL     OW26116   3.344   5.518   3.029  0.3023  0.3053 -0.0861
 8406SOL    HW126117   3.330   5.617   3.033  0.5866  0.3685 -0.5418
 8406SOL    HW226118   3.330   5.479   3.120 -0.3814  0.6827 -0.0186
 8407SOL     OW26119   6.165   0.851   0.592 -0.2090  0.4878 -0.1562
 8407SOL    HW126120   6.070   0.878   0.605 -0.6668  0.3380 -2.7060
 8407SOL    HW226121   6.225   0.931   0.601 -1.1285  1.6767 -3.4612
 8408SOL     OW26122   2.477   2.181   4.588  0.6444 -0.4950  0.2692
 8408SOL    HW126123   2.534   2.108   4.549 -0.0163 -0.1992 -1.3420
 8408SOL    HW226124   2.406   2.206   4.522  1.3130  2.1423  0.4438
 8409SOL     OW26125   3.301   0.288   1.958  0.0117 -0.1682  0.2495
 8409SOL    HW126126   3.320   0.279   1.860 -0.8461  4.2676 -0.5184
 8409SOL    HW226127   3.206   0.261   1.976 -0.6607  1.4782 -0.6918
 8410SOL     OW26128   1.869   1.251   2.101  0.4532  0.4756 -0.1560
 8410SOL    HW126129   1.811   1.186   2.150  2.0952 -0.7669  0.2341
 8410SOL    HW226130   1.815   1.301   2.034 -0.8670 -1.3018 -0.4771
 8411SOL     OW26131   0.316   1.849   6.975  0.9477  0.3258  0.8577
 8411SOL    HW126132   0.290   1.792   7.053  0.1493  1.3823  1.3884
 8411SOL    HW226133   0.287   1.943   6.991 -0.4562  0.3314 -1.2947
 8412SOL     OW26134   0.092   3.796   3.855  0.3948  0.0071  0.5439
 8412SOL    HW126135   0.067   3.740   3.776  1.6308  2.0922 -1.4749
 8412SOL    HW226136   0.023   3.867   3.870 -0.3681 -0.9972  2.0856
 8413SOL     OW26137   4.886   2.695   4.897  0.0330  0.0722 -0.2899
 8413SOL    HW126138   4.817   2.629   4.925  1.7521 -1.6783 -0.0086
 8413SOL    HW226139   4.942   2.721   4.976  0.7780  0.1556 -0.8265
 8414SOL     OW26140   5.620   7.014   2.888  0.3462 -0.2365  0.1591
 8414SOL    HW126141   5.627   6.914   2.881  1.3570 -0.1011 -1.5554
 8414SOL    HW226142   5.700   7.050   2.935  0.0351 -0.2273  0.6808
 8415SOL     OW26143   6.770   4.757   3.581 -0.2778 -0.8586 -0.4825
 8415SOL    HW126144   6.835   4.683   3.601  0.6510 -0.4567 -1.8342
 8415SOL    HW226145   6.758   4.814   3.662  1.2787 -0.8049 -0.2512
 8416SOL     OW26146   3.643   6.282   3.641 -0.1211  0.6074 -0.2559
 8416SOL    HW126147   3.572   6.324   3.697 -1.0082  0.6295 -1.3586
 8416SOL    HW226148   3.718   6.250   3.700 -1.4576 -0.2517  1.0416
 8417SOL     OW26149   1.486   7.015   3.854  1.0175  0.1171  0.4080
 8417SOL    HW126150   1.559   6.966   3.805  0.7134  1.3738 -1.3482
 8417SOL    HW226151   1.398   6.975   3.831  0.9599 -0.0198  0.8540
 8418SOL     OW26152   5.729   5.805   5.457 -0.1405 -0.4694 -0.3019
 8418SOL    HW126153   5.730   5.872   5.532 -1.6794 -2.0560  1.2202
 8418SOL    HW226154   5.677   5.725   5.485  1.1255 -2.0807 -2.3061
 8419SOL     OW26155   5.870   4.489   6.947 -0.6250  0.0052  0.3006
 8419SOL    HW126156   5.962   4.514   6.915 -1.0570  0.4410 -0.6111
 8419SOL    HW226157   5.878   4.416   7.015  0.2353 -2.4436 -2.2242
 8420SOL     OW26158   4.704   0.236   0.150  0.0561 -0.0185  0.1477
 8420SOL    HW126159   4.774   0.218   0.081 -0.3799  1.5978 -0.7699
 8420SOL    HW226160   4.695   0.335   0.164 -0.8965 -0.2592  1.4497
 8421SOL     OW26161   5.556   1.512   6.372 -0.3662 -0.5069  0.0329
 8421SOL    HW126162   5.504   1.521   6.457  0.4557 -0.5356  0.5445
 8421SOL    HW226163   5.513   1.568   6.301 -0.0903  0.8994  0.9289
 8422SOL     OW26164   5.920   2.990   6.664  0.2076  0.5848 -0.0352
 8422SOL    HW126165   5.967   2.922   6.609  1.5085  0.8695  0.6868
 8422SOL    HW226166   5.970   3.077   6.661  0.9828  0.3172  2.4207
 8423SOL     OW26167   2.553   1.812   3.148  0.4500  0.0320  0.5104
 8423SOL    HW126168   2.625   1.796   3.081 -1.0170 -1.4259 -0.8099
 8423SOL    HW226169   2.539   1.728   3.202 -1.7491 -0.5635 -0.8370
 8424SOL     OW26170   5.275   0.435   4.122 -1.0253  0.5082  0.1012
 8424SOL    HW126171   5.330   0.358   4.092 -1.9210 -0.7982  1.6506
 8424SOL    HW226172   5.205   0.454   4.053 -0.4207  0.3455 -0.5711
 8425SOL     OW26173   4.341   1.442   6.984  0.0225  0.3658  0.2431
 8425SOL    HW126174   4.274   1.368   6.989  1.6708 -1.1067  1.8153
 8425SOL    HW226175   4.343   1.492   7.071  0.7105  0.6078  0.1006
 8426SOL     OW26176   3.323   3.243   3.753  0.2691 -0.7895 -0.1869
 8426SOL    HW126177   3.310   3.333   3.794 -1.6505 -1.1242  0.0576
 8426SOL    HW226178   3.403   3.199   3.793  0.4535  0.2800  0.6626
 8427SOL     OW26179   5.646   6.889   4.769  0.1774 -0.0830 -0.0967
 8427SOL    HW126180   5.572   6.950   4.742  1.1832  0.5684 -1.4898
 8427SOL    HW226181   5.734   6.932   4.749  0.9584 -0.7798  1.6548
 8428SOL     OW26182   2.919   0.913   1.291 -0.7396  0.3411 -0.1679
 8428SOL    HW126183   2.928   0.872   1.381 -1.8295  1.1354  0.3242
 8428SOL    HW226184   2.913   0.841   1.222  0.9363 -0.2690  0.2854
 8429SOL     OW26185   2.922   2.420   5.842  0.2162 -0.0481 -0.2482
 8429SOL    HW126186   2.992   2.470   5.792  1.2775 -0.4303  0.7952
 8429SOL    HW226187   2.832   2.450   5.812  0.8145  1.1752 -0.9216
 8430SOL     OW26188   3.405   5.747   0.783  0.3792  0.5288 -0.0257
 8430SOL    HW126189   3.375   5.819   0.844  1.3651  0.5802  0.4100
 8430SOL    HW226190   3.334   5.728   0.715 -1.2718 -0.3975  1.8699
 8431SOL     OW26191   5.366   6.125   4.674 -0.0610  0.1566  0.2060
 8431SOL    HW126192   5.444   6.097   4.617  1.1191 -0.1329  1.8774
 8431SOL    HW226193   5.318   6.044   4.707 -0.4173  0.3097  0.0713
 8432SOL     OW26194   1.541   4.042   0.352 -0.6053 -0.1462  0.6394
 8432SOL    HW126195   1.578   4.025   0.443 -0.4924 -1.7305  0.3280
 8432SOL    HW226196   1.539   3.956   0.300 -1.3645  0.5840 -0.5939
 8433SOL     OW26197   3.430   1.089   5.813 -0.0180 -0.1900 -0.2553
 8433SOL    HW126198   3.371   1.170   5.807 -0.2611 -0.4596 -2.4404
 8433SOL    HW226199   3.491   1.087   5.734 -0.9539 -2.8215 -1.0066
 8434SOL     OW26200   7.013   2.076   1.791  0.0058  0.5664  0.9238
 8434SOL    HW126201   6.930   2.019   1.789  1.4899 -1.9053 -3.2208
 8434SOL    HW226202   6.998   2.158   1.737  0.2544 -0.0234 -0.0754
 8435SOL     OW26203   5.915   2.250   6.772 -0.7822  0.2522  0.0986
 8435SOL    HW126204   5.856   2.290   6.842 -0.4465  0.0551  0.5004
 8435SOL    HW226205   5.997   2.306   6.762 -0.2349 -0.4051  0.7777
 8436SOL     OW26206   1.733   0.696   2.980 -0.2485  0.3180  0.2506
 8436SOL    HW126207   1.781   0.655   2.902  2.0177  0.3694  1.5236
 8436SOL    HW226208   1.731   0.631   3.056 -1.5192  0.6421  0.5161
 8437SOL     OW26209   6.141   5.587   2.831  0.5878 -0.3578  0.0928
 8437SOL    HW126210   6.125   5.543   2.919  0.6785  0.5632  0.5825
 8437SOL    HW226211   6.163   5.684   2.845  1.8705 -0.4751 -0.8442
 8438SOL     OW26212   3.481   0.704   0.459 -0.5375 -0.2564 -0.1447
 8438SOL    HW126213   3.386   0.677   0.441  0.0267 -1.2823 -1.8103
 8438SOL    HW226214   3.488   0.738   0.553 -2.5873  0.0716 -0.0480
 8439SOL     OW26215   1.422   3.632   2.536  0.0934 -0.5807  0.1451
 8439SOL    HW126216   1.430   3.731   2.548 -1.5439 -0.6320  2.3708
 8439SOL    HW226217   1.504   3.588   2.572 -0.3301 -0.1285  1.7453
 8440SOL     OW26218   1.730   4.234   0.254 -0.1752 -0.4083 -0.7194
 8440SOL    HW126219   1.761   4.314   0.304  0.4033 -0.3827 -1.1023
 8440SOL    HW226220   1.666   4.182   0.310 -0.2621  0.1174 -0.3230
 8441SOL     OW26221   1.718   2.457   1.641  0.0477  0.2158 -0.2648
 8441SOL    HW126222   1.750   2.371   1.680 -1.9998 -0.0680  0.9471
 8441SOL    HW226223   1.776   2.482   1.563  1.2659 -1.7444 -0.0627
 8442SOL     OW26224   4.841   5.400   6.570 -0.4701  0.2027 -0.8068
 8442SOL    HW126225   4.904   5.410   6.494  1.7856 -0.4902  0.8672
 8442SOL    HW226226   4.835   5.303   6.596 -2.2907  0.2376 -0.9221
 8443SOL     OW26227   0.285   4.830   2.610 -0.1490 -0.4889  0.2839
 8443SOL    HW126228   0.208   4.828   2.546  0.7702 -0.0573 -0.8693
 8443SOL    HW226229   0.368   4.800   2.564  0.3339 -1.2657  1.5976
 8444SOL     OW26230   3.486   1.872   1.513 -0.0862  0.4202  0.4783
 8444SOL    HW126231   3.409   1.934   1.524  0.5946  1.5630 -0.8156
 8444SOL    HW226232   3.534   1.894   1.428  0.1779 -1.9205 -0.0356
 8445SOL     OW26233   2.563   2.289   4.156 -0.4641  0.1457 -0.5418
 8445SOL    HW126234   2.595   2.252   4.069 -3.6118 -0.1774 -1.7003
 8445SOL    HW226235   2.614   2.372   4.178  0.1040  0.5065 -2.9530
 8446SOL     OW26236   6.753   6.648   1.591 -0.6512  0.0825 -0.3066
 8446SOL    HW126237   6.716   6.626   1.501 -1.2054 -2.5060  0.4628
 8446SOL    HW226238   6.706   6.593   1.660 -1.6348  3.3894  1.8627
 8447SOL     OW26239   0.417   1.543   2.327  0.2923  0.5782  0.0350
 8447SOL    HW126240   0.375   1.564   2.416 -0.0465  1.2751 -0.2787
 8447SOL    HW226241   0.514   1.523   2.339  0.1296  0.1200  0.6275
 8448SOL     OW26242   0.804   0.532   2.387 -0.1911  0.3776 -0.0971
 8448SOL    HW126243   0.823   0.629   2.375  0.9998  0.4082  1.7936
 8448SOL    HW226244   0.889   0.483   2.405 -0.7688 -1.0498 -1.0746
 8449SOL     OW26245   1.084   2.011   5.706 -0.0528  0.0080 -0.1570
 8449SOL    HW126246   1.153   1.975   5.769 -1.9182 -0.8468  1.5001
 8449SOL    HW226247   1.068   1.944   5.633  0.8069  0.1844 -0.5134
 8450SOL     OW26248   0.873   2.473   0.987  0.0617  0.9503  0.1369
 8450SOL    HW126249   0.935   2.395   0.984  0.2654  1.0940  0.5145
 8450SOL    HW226250   0.888   2.531   0.908 -0.0070  0.6710 -0.0829
 8451SOL     OW26251   4.834   2.579   1.882  0.8578 -0.1099 -0.1484
 8451SOL    HW126252   4.776   2.567   1.802  0.3022  0.0675  0.2248
 8451SOL    HW226253   4.778   2.605   1.961  1.5719  1.2977 -0.0728
 8452SOL     OW26254   3.085   3.267   2.128 -0.0453  0.0718  0.1462
 8452SOL    HW126255   3.055   3.221   2.212  2.1373  0.3552  1.1288
 8452SOL    HW226256   3.018   3.338   2.103 -0.5100  0.2844  1.8863
 8453SOL     OW26257   1.886   5.741   2.532  0.0604  0.0766  0.1346
 8453SOL    HW126258   1.795   5.731   2.493  0.4866 -2.5491 -0.3189
 8453SOL    HW226259   1.950   5.680   2.485  1.7641  0.8341  1.3651
 8454SOL     OW26260   2.389   1.230   5.499  0.0921 -0.0337 -0.5017
 8454SOL    HW126261   2.338   1.180   5.429  0.4615 -0.2816 -0.5989
 8454SOL    HW226262   2.329   1.294   5.545 -0.1645  0.1118 -1.0291
 8455SOL     OW26263   3.709   0.370   3.737 -0.4768 -0.5993 -0.5090
 8455SOL    HW126264   3.657   0.288   3.715  0.1093 -1.6095  1.5561
 8455SOL    HW226265   3.725   0.373   3.836  2.6737  0.0438 -0.9089
 8456SOL     OW26266   2.258   4.837   5.361  0.0146 -1.1922  0.1478
 8456SOL    HW126267   2.299   4.769   5.422  0.5861 -1.1862 -0.2142
 8456SOL    HW226268   2.306   4.836   5.274  1.4209  1.1068  0.8052
 8457SOL     OW26269   6.375   4.336   1.918 -0.0323 -0.1898 -0.0521
 8457SOL    HW126270   6.344   4.242   1.905  0.0084 -0.4635  1.5925
 8457SOL    HW226271   6.474   4.341   1.907  0.0070 -0.4127  0.1955
 8458SOL     OW26272   5.671   3.838   4.190  0.0782 -0.4962 -0.3267
 8458SOL    HW126273   5.682   3.754   4.138  1.2776  0.1391 -1.1533
 8458SOL    HW226274   5.686   3.819   4.287  1.2724 -1.0976 -0.6044
 8459SOL     OW26275   6.961   0.333   0.700  0.6080 -0.2432 -0.0970
 8459SOL    HW126276   6.915   0.406   0.750 -0.3448  0.8048 -2.3352
 8459SOL    HW226277   7.058   0.358   0.687  1.0041 -0.7930  1.6156
 8460SOL     OW26278   6.739   2.079   0.703 -0.4340  0.5185 -0.3180
 8460SOL    HW126279   6.705   2.141   0.632  0.8271  1.4230 -0.1611
 8460SOL    HW226280   6.805   2.015   0.663 -1.0025 -0.1024 -0.2824
 8461SOL     OW26281   5.292   1.674   5.562 -0.1881 -0.3946 -0.0566
 8461SOL    HW126282   5.288   1.672   5.662  1.0500  0.0189  0.0260
 8461SOL    HW226283   5.387   1.688   5.534 -0.3529 -1.6858 -1.3176
 8462SOL     OW26284   5.058   4.965   2.743 -0.0533 -0.5062 -0.2439
 8462SOL    HW126285   5.016   5.025   2.675  0.0681 -1.5592 -1.2733
 8462SOL    HW226286   5.055   4.871   2.711  2.4843 -0.7059 -0.0604
 8463SOL     OW26287   4.348   6.976   3.855 -0.5085  0.2051  0.2807
 8463SOL    HW126288   4.264   6.977   3.800 -0.1611 -0.9297 -0.2780
 8463SOL    HW226289   4.363   6.885   3.891  1.4753 -0.0940 -1.1616
 8464SOL     OW26290   0.072   5.018   6.755  0.2988  0.0018 -0.2463
 8464SOL    HW126291   0.152   4.971   6.791  0.1397  0.4289  0.6621
 8464SOL    HW226292   0.082   5.116   6.765 -0.5659  0.0383  0.3696
 8465SOL     OW26293   3.704   6.255   2.904 -0.0820 -0.0216  0.8970
 8465SOL    HW126294   3.607   6.255   2.881  0.1862 -0.1063 -0.3401
 8465SOL    HW226295   3.757   6.227   2.824  0.9451 -0.3038  1.6515
 8466SOL     OW26296   1.758   5.286   2.100  0.1692  0.1081 -0.1584
 8466SOL    HW126297   1.727   5.381   2.108  2.1462  0.7841  0.0467
 8466SOL    HW226298   1.685   5.225   2.131 -0.6334  1.6166  1.1047
 8467SOL     OW26299   7.007   3.203   0.586 -0.3811  0.1542  0.1400
 8467SOL    HW126300   7.083   3.222   0.648 -0.3464  1.9795 -0.4065
 8467SOL    HW226301   7.042   3.187   0.494 -0.6267  1.1288 -0.1410
 8468SOL     OW26302   1.732   6.707   1.167 -0.0598 -0.1256 -0.4050
 8468SOL    HW126303   1.704   6.729   1.261 -0.4177 -0.6301 -0.3912
 8468SOL    HW226304   1.743   6.792   1.115  2.3967  0.3160  0.7008
 8469SOL     OW26305   5.436   6.328   6.982 -0.1604  0.4412  0.8600
 8469SOL    HW126306   5.450   6.280   6.895 -0.7601  1.0265  0.4315
 8469SOL    HW226307   5.419   6.261   7.055 -0.6284 -0.0210  0.3338
 8470SOL     OW26308   5.067   1.584   0.469  0.6855 -0.3186  0.3071
 8470SOL    HW126309   5.104   1.515   0.407  1.0768  0.3796 -0.2426
 8470SOL    HW226310   4.996   1.542   0.527  1.0715 -1.2297  0.1388
 8471SOL     OW26311   1.279   5.380   4.834 -0.0714  0.1155 -0.0721
 8471SOL    HW126312   1.284   5.478   4.817 -1.1441  0.1479 -0.2677
 8471SOL    HW226313   1.184   5.353   4.844  0.1223 -1.1325 -1.3091
 8472SOL     OW26314   3.688   6.638   3.758 -0.1530 -0.3786 -0.4931
 8472SOL    HW126315   3.599   6.670   3.726 -0.5972 -1.9844 -0.9609
 8472SOL    HW226316   3.741   6.605   3.680  0.4112 -0.4754 -0.0742
 8473SOL     OW26317   2.721   1.790   0.467 -0.1685  0.0499  0.1128
 8473SOL    HW126318   2.652   1.780   0.538  0.9025  0.6689  1.2876
 8473SOL    HW226319   2.718   1.883   0.431 -1.0724 -0.4170 -1.0725
 8474SOL     OW26320   2.956   2.280   3.147 -0.0490 -0.3504 -0.0422
 8474SOL    HW126321   2.882   2.322   3.095 -0.7069 -1.3080  0.0957
 8474SOL    HW226322   2.925   2.260   3.240  0.1432 -1.3956 -0.1879
 8475SOL     OW26323   4.436   1.621   1.019 -0.6383 -0.1623  0.3269
 8475SOL    HW126324   4.510   1.559   0.991  0.1816  1.1417 -0.4661
 8475SOL    HW226325   4.466   1.674   1.098 -0.9004  0.0601  0.2766
 8476SOL     OW26326   2.805   6.325   2.058 -0.2597 -0.2909 -0.1828
 8476SOL    HW126327   2.727   6.328   1.995 -0.3137  1.3394 -0.0889
 8476SOL    HW226328   2.846   6.416   2.063  1.4467 -1.0471  0.0383
 8477SOL     OW26329   6.720   5.393   0.047  0.4083 -0.0957 -0.2002
 8477SOL    HW126330   6.655   5.417   0.120 -0.5292 -0.4310 -0.9153
 8477SOL    HW226331   6.726   5.469  -0.018 -0.8927 -0.8855 -1.2766
 8478SOL     OW26332   1.245   3.172   0.942 -0.1787 -0.1617  0.9925
 8478SOL    HW126333   1.277   3.267   0.942 -1.6360  0.3666  0.0264
 8478SOL    HW226334   1.145   3.171   0.935 -0.0979 -1.7883 -0.5165
 8479SOL     OW26335   4.054   0.396   3.021 -0.2180 -0.3354 -0.1765
 8479SOL    HW126336   4.060   0.297   3.019 -1.8487 -0.4623 -0.2723
 8479SOL    HW226337   4.105   0.434   2.943  2.3750 -0.9069  1.1316
 8480SOL     OW26338   0.910   5.964   4.242  0.0816 -0.2443  0.0531
 8480SOL    HW126339   0.858   5.963   4.327  0.4743  2.2753  0.4077
 8480SOL    HW226340   0.856   6.011   4.171 -0.0267 -1.8469 -0.9812
 8481SOL     OW26341   3.638   3.346   4.534 -0.2541  0.1640 -0.3172
 8481SOL    HW126342   3.682   3.283   4.599  1.5066  0.1911 -1.4211
 8481SOL    HW226343   3.687   3.345   4.447  0.6360  3.9129 -0.0481
 8482SOL     OW26344   1.920   6.582   5.604 -0.9521 -0.2557  0.2724
 8482SOL    HW126345   1.885   6.672   5.629  1.2705  1.2654 -1.5839
 8482SOL    HW226346   1.889   6.558   5.512 -0.1446 -0.5542  0.0656
 8483SOL     OW26347   3.829   6.261   3.129  0.1739  0.6125 -0.6836
 8483SOL    HW126348   3.781   6.262   3.042  2.7700 -0.1551 -2.2327
 8483SOL    HW226349   3.840   6.355   3.162  0.1513  1.0120 -1.7780
 8484SOL     OW26350   2.758   2.553   6.720  0.9284 -0.7889  0.0712
 8484SOL    HW126351   2.727   2.487   6.789 -0.3698  0.9248  1.1964
 8484SOL    HW226352   2.774   2.505   6.633  1.2526 -2.7655  1.1718
 8485SOL     OW26353   1.394   5.186   1.460 -0.5291  0.1991 -0.0281
 8485SOL    HW126354   1.335   5.177   1.540 -0.2303  1.1781  0.3219
 8485SOL    HW226355   1.388   5.279   1.425 -2.6035 -0.8035 -2.7132
 8486SOL     OW26356   1.891   5.677   6.297 -0.3421 -0.1366 -0.4796
 8486SOL    HW126357   1.823   5.623   6.346 -0.6847  0.2438 -0.5298
 8486SOL    HW226358   1.981   5.637   6.310 -0.5475 -0.5253 -0.2405
 8487SOL     OW26359   6.891   1.132   1.538  0.0914  0.5181  0.2199
 8487SOL    HW126360   6.934   1.043   1.551  1.3862  0.9358 -0.9986
 8487SOL    HW226361   6.925   1.196   1.607  0.1833  0.4303  0.2550
 8488SOL     OW26362   6.982   1.611   2.297 -0.0138 -0.3593  0.2615
 8488SOL    HW126363   6.940   1.689   2.345  0.1894 -0.0907  0.0089
 8488SOL    HW226364   6.968   1.528   2.350  0.2751 -0.0545  0.8324
 8489SOL     OW26365   2.250   3.107   6.307 -0.2597  0.2702 -0.1471
 8489SOL    HW126366   2.212   3.043   6.374 -2.3218  0.5526 -0.9787
 8489SOL    HW226367   2.340   3.074   6.278 -0.4839 -1.2797  0.7613
 8490SOL     OW26368   3.630   2.880   3.469  0.3453 -0.4158 -0.4325
 8490SOL    HW126369   3.559   2.884   3.539  1.1257 -1.9639  0.4995
 8490SOL    HW226370   3.715   2.919   3.505  0.3502  0.2005 -1.0780
 8491SOL     OW26371   1.466   4.217   2.191  0.1633  0.0958 -0.2429
 8491SOL    HW126372   1.511   4.263   2.268 -0.0628 -0.6155  0.3268
 8491SOL    HW226373   1.534   4.166   2.139 -0.1063 -2.0530  1.3803
 8492SOL     OW26374   2.121   5.472   5.758 -0.0883 -0.2211 -0.3779
 8492SOL    HW126375   2.156   5.390   5.804  1.4576 -0.3620 -1.7285
 8492SOL    HW226376   2.196   5.534   5.738 -0.9522  0.5788 -1.2324
 8493SOL     OW26377   6.106   5.744   1.609  0.3094 -0.2987  0.6656
 8493SOL    HW126378   6.115   5.767   1.512 -0.6781 -0.6898  0.4731
 8493SOL    HW226379   6.082   5.826   1.660  0.9025 -0.0769  0.5945
 8494SOL     OW26380   3.644   2.949   4.018  0.1404 -0.0285  0.5784
 8494SOL    HW126381   3.624   2.982   4.110  0.9485  0.4052  0.6052
 8494SOL    HW226382   3.560   2.915   3.976 -0.9482  2.7487  0.2961
 8495SOL     OW26383   4.727   2.478   5.009 -0.2187  0.7111  0.2832
 8495SOL    HW126384   4.650   2.540   4.993 -0.1539  0.6440 -0.3279
 8495SOL    HW226385   4.759   2.441   4.921 -0.3614 -0.3211  0.6522
 8496SOL     OW26386   4.069   6.627   3.317 -0.6021  0.3216  0.5980
 8496SOL    HW126387   4.121   6.543   3.306  0.1440  0.7492  0.8205
 8496SOL    HW226388   4.073   6.681   3.233  1.1340  1.3570  1.2888
 8497SOL     OW26389   5.966   1.046   1.362  0.1152 -0.3188  0.0895
 8497SOL    HW126390   5.927   0.993   1.287 -0.1083  0.1145 -0.1010
 8497SOL    HW226391   5.941   1.142   1.352  0.4885 -0.1795  0.4536
 8498SOL     OW26392   1.832   3.126   6.432  0.5294 -0.6187  0.1886
 8498SOL    HW126393   1.922   3.149   6.471  1.2108 -1.3109 -0.9329
 8498SOL    HW226394   1.838   3.039   6.384 -0.8898 -0.9284  0.5424
 8499SOL     OW26395   0.729   3.290   3.970 -0.2301  0.0814  0.5343
 8499SOL    HW126396   0.653   3.346   3.937 -0.4303 -0.6859 -0.3492
 8499SOL    HW226397   0.811   3.311   3.917  0.0428  0.5192  1.1244
 8500SOL     OW26398   0.702   1.381   4.305  0.5520  0.6472 -0.1170
 8500SOL    HW126399   0.658   1.399   4.393 -1.8460  1.8553 -1.4755
 8500SOL    HW226400   0.640   1.328   4.247  1.0662  1.9427 -1.9264
 8501SOL     OW26401   0.857   0.754   6.112  0.1409 -0.0405 -0.7268
 8501SOL    HW126402   0.911   0.675   6.144  0.5784  0.1099 -1.0910
 8501SOL    HW226403   0.893   0.837   6.154  0.7309  0.1609 -1.6233
 8502SOL     OW26404   4.083   2.403   0.341  0.3900 -0.0327 -0.2011
 8502SOL    HW126405   3.996   2.449   0.326 -1.3040 -3.0588 -0.3206
 8502SOL    HW226406   4.108   2.351   0.260  1.3720 -0.6853  0.4962
 8503SOL     OW26407   5.076   5.737   4.222 -0.4206  0.0937 -0.0071
 8503SOL    HW126408   4.985   5.738   4.180 -0.6118  0.1897  0.4113
 8503SOL    HW226409   5.090   5.820   4.275  0.8196  1.2279 -1.9766
 8504SOL     OW26410   4.684   2.235   6.728 -0.6559 -0.2428 -0.6152
 8504SOL    HW126411   4.707   2.191   6.815  0.5587 -0.0116 -0.7947
 8504SOL    HW226412   4.647   2.326   6.745  0.5861  0.2402 -0.3402
 8505SOL     OW26413   6.659   6.886   0.884 -1.0561 -0.0364 -0.3839
 8505SOL    HW126414   6.689   6.979   0.866 -2.0908  0.3692 -0.0677
 8505SOL    HW226415   6.603   6.853   0.808  0.2715 -0.8493 -1.0488
 8506SOL     OW26416   0.061   5.354   5.561 -0.2880 -0.9419  0.2421
 8506SOL    HW126417   0.152   5.335   5.526 -0.1531 -0.8190  0.5217
 8506SOL    HW226418   0.034   5.282   5.625  0.5125  0.1235  1.8491
 8507SOL     OW26419   0.694   1.542   2.438  0.3303 -0.5887  0.7755
 8507SOL    HW126420   0.771   1.607   2.440 -0.2343  0.0781  1.5137
 8507SOL    HW226421   0.647   1.544   2.526 -1.4461  0.1431 -0.1361
 8508SOL     OW26422   3.260   6.765   2.563  0.1304 -0.1406  0.7848
 8508SOL    HW126423   3.250   6.666   2.569 -0.4380 -0.1540 -0.2134
 8508SOL    HW226424   3.275   6.802   2.655  2.2617 -1.3299  0.9765
 8509SOL     OW26425   4.409   3.333   6.966 -0.1996 -0.0204  0.4087
 8509SOL    HW126426   4.404   3.365   6.871 -2.0575  1.1712  0.8550
 8509SOL    HW226427   4.321   3.292   6.991  0.3878 -0.6303  1.5393
 8510SOL     OW26428   3.993   0.265   6.061  0.4911 -0.1722 -0.0204
 8510SOL    HW126429   3.997   0.365   6.062  0.4326 -0.1462  2.3204
 8510SOL    HW226430   3.911   0.234   6.109  0.4415 -1.3705 -0.8241
 8511SOL     OW26431   0.766   1.589   5.023 -0.1911  0.5457 -0.8739
 8511SOL    HW126432   0.738   1.546   5.108  2.5138  2.3128  1.0675
 8511SOL    HW226433   0.850   1.642   5.038 -0.0723  1.6485 -4.4545
 8512SOL     OW26434   2.191   3.209   2.435 -0.2908 -0.3059  0.4302
 8512SOL    HW126435   2.127   3.242   2.504 -1.0569  2.3020 -1.3758
 8512SOL    HW226436   2.255   3.145   2.477 -2.1614 -0.6819  2.9829
 8513SOL     OW26437   4.221   6.055   3.164  0.8045 -0.0327  0.4123
 8513SOL    HW126438   4.206   5.957   3.177 -0.5393 -0.0539 -0.9676
 8513SOL    HW226439   4.188   6.106   3.244  0.0622 -0.6146  0.4855
 8514SOL     OW26440   3.753   3.144   4.683  0.2330  0.0953 -0.5840
 8514SOL    HW126441   3.833   3.142   4.743  1.2549  1.0415 -1.8579
 8514SOL    HW226442   3.675   3.103   4.730  0.6847  1.7929  1.8031
 8515SOL     OW26443   4.152   3.626   4.783  0.7410  0.1940  0.0791
 8515SOL    HW126444   4.061   3.593   4.809  0.6824 -0.2863 -0.7102
 8515SOL    HW226445   4.196   3.668   4.863 -0.0293  0.1166  0.5553
 8516SOL     OW26446   4.902   6.576   3.521 -0.0662 -0.6226 -0.0020
 8516SOL    HW126447   4.992   6.594   3.480 -0.9514  2.6845 -0.7803
 8516SOL    HW226448   4.830   6.603   3.456 -1.6859 -2.8566  0.7416
 8517SOL     OW26449   6.365   5.394   5.250 -0.0945  0.4713 -0.2776
 8517SOL    HW126450   6.420   5.435   5.177  1.1492 -1.1003 -0.2808
 8517SOL    HW226451   6.423   5.332   5.303 -1.1376  1.0841  1.6554
 8518SOL     OW26452   6.833   5.850   6.557 -0.2137  0.4502 -0.1104
 8518SOL    HW126453   6.781   5.804   6.629 -0.6315  1.2194  0.0901
 8518SOL    HW226454   6.798   5.821   6.467 -0.3409  0.2267  0.0093
 8519SOL     OW26455   4.113   1.240   0.015  0.4489  0.3646  0.1751
 8519SOL    HW126456   4.103   1.207  -0.079  0.5515 -0.3287  0.3998
 8519SOL    HW226457   4.023   1.269   0.049  0.4653  0.9165 -0.2379
 8520SOL     OW26458   6.298   2.678   5.653  0.2649 -0.1768 -0.5600
 8520SOL    HW126459   6.269   2.660   5.558 -2.2101 -1.1111  0.2833
 8520SOL    HW226460   6.370   2.615   5.679 -0.0780 -0.9263 -1.3802
 8521SOL     OW26461   2.918   5.528   5.261  0.8694 -0.0352  0.6859
 8521SOL    HW126462   3.006   5.488   5.286  1.5391  0.6817 -0.4331
 8521SOL    HW226463   2.853   5.513   5.335  1.8856 -0.7053  1.4786
 8522SOL     OW26464   1.867   1.744   1.995  0.2917 -0.7049  0.7041
 8522SOL    HW126465   1.886   1.822   2.054 -0.9975 -0.0546  0.3028
 8522SOL    HW226466   1.895   1.659   2.040 -1.2178 -0.2909  2.5320
 8523SOL     OW26467   3.397   2.001   5.818  0.2053  0.1853  0.4905
 8523SOL    HW126468   3.379   1.964   5.726 -0.9705 -1.1685  1.2330
 8523SOL    HW226469   3.313   2.041   5.855  0.8437  1.3508  0.7339
 8524SOL     OW26470   6.126   3.290   6.285 -0.4577 -0.1587 -0.1636
 8524SOL    HW126471   6.058   3.218   6.299 -0.8575 -0.1853 -2.0215
 8524SOL    HW226472   6.117   3.359   6.357 -3.3233  0.5133 -1.0784
 8525SOL     OW26473   6.713   1.763   4.734 -0.4494  0.5265  0.1218
 8525SOL    HW126474   6.685   1.706   4.656  0.5021  0.8344 -0.4561
 8525SOL    HW226475   6.638   1.767   4.800 -0.8288 -0.7384 -0.2042
 8526SOL     OW26476   5.406   1.067   3.853  0.0243  0.1646 -0.0410
 8526SOL    HW126477   5.331   1.012   3.889 -0.4924  1.1211  0.3905
 8526SOL    HW226478   5.472   1.008   3.806  0.5810 -1.1186  2.2144
 8527SOL     OW26479   2.527   1.003   0.543 -0.1917 -0.6743  0.7467
 8527SOL    HW126480   2.595   1.072   0.518 -0.8260  0.1456  1.2292
 8527SOL    HW226481   2.571   0.930   0.595  0.6856 -1.1786 -0.6363
 8528SOL     OW26482   0.834   3.108   4.143  0.6908  0.1434 -0.1109
 8528SOL    HW126483   0.823   3.152   4.232 -0.6763 -1.2837  0.4723
 8528SOL    HW226484   0.796   3.168   4.072  0.0846  0.4934  0.4929
 8529SOL     OW26485   6.337   5.322   4.206 -0.0502 -0.1816 -0.6393
 8529SOL    HW126486   6.410   5.295   4.269 -0.3350  0.5364  0.0104
 8529SOL    HW226487   6.333   5.257   4.130  0.3120 -1.0608  0.0715
 8530SOL     OW26488   0.584   5.338   0.068  0.1853 -0.2115 -0.1227
 8530SOL    HW126489   0.604   5.247   0.033 -1.1623 -0.1543 -1.1550
 8530SOL    HW226490   0.640   5.405   0.020  0.1204 -0.3655 -0.4171
 8531SOL     OW26491   3.883   0.696   2.796 -0.2829 -0.0122  0.5382
 8531SOL    HW126492   3.882   0.689   2.697  0.3478 -0.3388  0.5449
 8531SOL    HW226493   3.824   0.625   2.836  0.5259 -0.7785  0.4202
 8532SOL     OW26494   1.779   3.300   3.647 -0.0625 -0.2290 -0.2266
 8532SOL    HW126495   1.687   3.279   3.680 -0.1231  0.7962  0.2984
 8532SOL    HW226496   1.837   3.220   3.658 -0.8133 -0.7947 -0.2835
 8533SOL     OW26497   0.333   4.961   4.446  0.3994  0.6689  0.3971
 8533SOL    HW126498   0.403   5.032   4.453  2.5447 -1.1532 -1.1694
 8533SOL    HW226499   0.362   4.892   4.380 -0.9251 -2.4380  2.8096
 8534SOL     OW26500   5.056   4.717   4.485  0.6416 -0.1000  0.6104
 8534SOL    HW126501   5.083   4.697   4.391  2.3989  1.7617  0.6631
 8534SOL    HW226502   4.994   4.645   4.518  0.3261 -1.0013 -1.7937
 8535SOL     OW26503   4.805   1.080   1.202  0.0107 -0.5951  0.4558
 8535SOL    HW126504   4.882   1.092   1.266  1.8238  0.3087 -1.7631
 8535SOL    HW226505   4.800   0.985   1.172  0.0412 -0.7221  0.8484
 8536SOL     OW26506   0.368   4.010   5.209  0.4686  0.0867  0.4659
 8536SOL    HW126507   0.425   4.029   5.129  0.1299 -0.0043  0.1984
 8536SOL    HW226508   0.321   4.093   5.238 -0.0951 -0.0702  0.0222
 8537SOL     OW26509   3.051   1.811   6.659  0.1612  0.1657 -0.0179
 8537SOL    HW126510   3.123   1.843   6.720  0.4610  0.7872 -0.6817
 8537SOL    HW226511   3.067   1.847   6.567  0.6415 -2.0493 -0.8647
 8538SOL     OW26512   1.490   2.614   2.093  0.0512 -0.2894 -0.0480
 8538SOL    HW126513   1.441   2.557   2.027  0.0543 -1.3480  0.8214
 8538SOL    HW226514   1.428   2.681   2.132 -1.0693 -2.2558  1.7765
 8539SOL     OW26515   3.472   0.767   1.716 -0.0114 -0.1986  0.0533
 8539SOL    HW126516   3.517   0.783   1.804  0.7785 -1.1602 -0.1540
 8539SOL    HW226517   3.540   0.740   1.648 -0.7869 -0.8108 -0.4986
 8540SOL     OW26518   2.402   5.099   1.179 -0.1199  0.0639 -0.4725
 8540SOL    HW126519   2.316   5.091   1.127  0.6782  1.1507 -2.0525
 8540SOL    HW226520   2.391   5.058   1.269 -2.5558  0.8899 -0.3238
 8541SOL     OW26521   4.075   2.742   1.186 -0.6975 -0.3496 -0.4288
 8541SOL    HW126522   4.081   2.737   1.285  0.5716 -0.9722 -0.5083
 8541SOL    HW226523   4.020   2.666   1.151  0.4986 -1.3156 -0.2962
 8542SOL     OW26524   4.358   2.404   4.538 -0.5787  0.0175 -0.3209
 8542SOL    HW126525   4.288   2.406   4.610 -0.3099  2.2476 -0.0766
 8542SOL    HW226526   4.449   2.406   4.580 -0.4201  1.3507 -0.6846
 8543SOL     OW26527   6.374   5.650   1.027 -0.0989 -0.7233 -0.1940
 8543SOL    HW126528   6.417   5.561   1.038  0.1944 -0.4764  0.8202
 8543SOL    HW226529   6.421   5.702   0.957  0.0762 -1.1553 -0.3978
 8544SOL     OW26530   6.055   5.505   5.733  0.0842 -0.1874 -0.2557
 8544SOL    HW126531   6.146   5.540   5.712  0.8107 -1.5627  0.4599
 8544SOL    HW226532   6.063   5.416   5.778 -1.6340 -0.6250 -0.7315
 8545SOL     OW26533   6.436   3.423   4.835  0.3157 -0.5316 -0.3228
 8545SOL    HW126534   6.428   3.521   4.822  1.5854 -0.2585  0.7119
 8545SOL    HW226535   6.346   3.380   4.828 -0.3879  0.8304  0.1790
 8546SOL     OW26536   0.565   6.135   5.729 -0.5244  0.5927 -0.1161
 8546SOL    HW126537   0.655   6.180   5.722  0.4984 -1.3452  0.0276
 8546SOL    HW226538   0.536   6.135   5.825 -0.1077  0.1579  0.0111
 8547SOL     OW26539   6.601   3.802   3.977 -0.7813  0.3239  0.4843
 8547SOL    HW126540   6.586   3.820   3.880 -1.6635 -0.1353  0.5263
 8547SOL    HW226541   6.662   3.872   4.014  1.1968 -0.6022 -0.8259
 8548SOL     OW26542   1.792   4.392   1.483  0.2671 -0.0918 -0.1285
 8548SOL    HW126543   1.746   4.389   1.571  2.1992 -0.1722  0.9483
 8548SOL    HW226544   1.834   4.483   1.470 -0.6051  0.1662 -1.3147
 8549SOL     OW26545   2.670   2.369   2.743  0.8827 -0.3152 -0.1122
 8549SOL    HW126546   2.622   2.441   2.693 -0.2614 -0.3050  0.9674
 8549SOL    HW226547   2.766   2.366   2.713 -0.1864 -1.8588 -4.0017
 8550SOL     OW26548   6.901   4.509   1.680 -0.0729 -0.3471  0.2687
 8550SOL    HW126549   6.940   4.498   1.588  0.5816  0.6708  0.4024
 8550SOL    HW226550   6.811   4.551   1.672  0.1590  0.1332  0.0992
 8551SOL     OW26551   1.558   6.066   1.659 -0.1459  0.4932 -0.3228
 8551SOL    HW126552   1.518   6.157   1.672 -1.2370 -0.0408  0.1732
 8551SOL    HW226553   1.563   6.046   1.561  0.1320  1.0916 -0.4374
 8552SOL     OW26554   5.946   0.367   2.647  0.2808  0.0805 -0.4376
 8552SOL    HW126555   6.035   0.323   2.657  0.6276  0.7401 -0.5797
 8552SOL    HW226556   5.956   0.465   2.660 -0.5905  0.0584  0.5452
 8553SOL     OW26557   6.170   4.007   0.595  0.0296  0.1977 -0.3793
 8553SOL    HW126558   6.199   4.082   0.654  0.8021 -0.4267  0.0564
 8553SOL    HW226559   6.189   3.920   0.640 -1.0783 -0.2644 -0.7764
 8554SOL     OW26560   5.061   1.305   3.425 -0.0241  0.2432  0.3332
 8554SOL    HW126561   5.065   1.300   3.524 -0.8395 -0.2568  0.3534
 8554SOL    HW226562   4.965   1.306   3.395  0.1544 -1.8840 -0.5309
 8555SOL     OW26563   5.391   0.123   0.973 -0.1969 -0.2136  0.4472
 8555SOL    HW126564   5.473   0.066   0.979 -0.0021 -0.2458 -1.7889
 8555SOL    HW226565   5.335   0.093   0.896 -0.0144  2.6482 -0.9217
 8556SOL     OW26566   0.305   3.943   0.633 -0.3689  0.1800 -0.2133
 8556SOL    HW126567   0.303   3.843   0.623  2.0565 -0.2851  2.5217
 8556SOL    HW226568   0.218   3.974   0.672 -0.0950 -1.3818  1.8423
 8557SOL     OW26569   6.208   5.603   0.158  0.0344 -0.6643  0.3387
 8557SOL    HW126570   6.243   5.651   0.239 -0.5973  0.0866  0.1818
 8557SOL    HW226571   6.130   5.654   0.120  2.3491  0.9613 -2.7341
 8558SOL     OW26572   5.384   6.557   2.349 -0.1738  0.2851  0.0126
 8558SOL    HW126573   5.455   6.624   2.325 -1.5774  2.2039  0.9850
 8558SOL    HW226574   5.333   6.589   2.429 -3.6070  0.1660 -1.9362
 8559SOL     OW26575   1.776   1.307   5.003 -0.5541  0.2722 -0.4839
 8559SOL    HW126576   1.836   1.277   5.077 -2.5108 -0.8227  0.7454
 8559SOL    HW226577   1.681   1.287   5.027 -1.3908  1.3892 -2.6121
 8560SOL     OW26578   6.319   0.686   1.294 -0.2899 -0.1840  0.5869
 8560SOL    HW126579   6.239   0.672   1.236 -0.6102 -0.7771  1.1614
 8560SOL    HW226580   6.292   0.684   1.390  0.5791 -1.6123  0.8375
 8561SOL     OW26581   6.957   1.805   0.840  0.3416  0.6908 -0.5530
 8561SOL    HW126582   6.932   1.849   0.754 -1.2600  0.6525 -0.1378
 8561SOL    HW226583   7.056   1.815   0.855  0.6912  0.5409 -2.4582
 8562SOL     OW26584   1.078   1.108   2.228  0.4978 -0.4502 -0.2820
 8562SOL    HW126585   1.112   1.075   2.140  1.5576  1.6777 -0.7310
 8562SOL    HW226586   1.115   1.052   2.302  0.1496 -1.8270 -1.1170
 8563SOL     OW26587   5.170   5.634   5.595  0.0277  0.4059 -0.3719
 8563SOL    HW126588   5.165   5.541   5.558 -0.7717  0.6382 -0.8680
 8563SOL    HW226589   5.124   5.637   5.683 -0.5215  0.4663 -0.6549
 8564SOL     OW26590   5.794   0.349   5.395 -0.5682 -0.0575 -0.1751
 8564SOL    HW126591   5.764   0.254   5.407  0.4395 -0.4980 -0.9464
 8564SOL    HW226592   5.752   0.387   5.312  1.2116 -0.8167 -1.5001
 8565SOL     OW26593   6.981   4.224   0.091 -0.3940  0.0651 -0.6667
 8565SOL    HW126594   6.980   4.174   0.004  0.6902 -1.4003  0.1299
 8565SOL    HW226595   7.069   4.211   0.136 -1.4585 -0.4326  1.3630
 8566SOL     OW26596   1.275   6.307   1.259  0.2590 -0.3883  0.0486
 8566SOL    HW126597   1.262   6.358   1.345 -0.2075  0.0042 -0.2504
 8566SOL    HW226598   1.368   6.321   1.226  1.0005 -1.9202  1.3787
 8567SOL     OW26599   3.336   1.630   5.430  0.3890  0.2547  0.2115
 8567SOL    HW126600   3.405   1.645   5.501 -0.6515  4.4470  0.5887
 8567SOL    HW226601   3.375   1.654   5.341  0.3282 -0.5853 -0.0530
 8568SOL     OW26602   5.010   5.126   5.271  0.5267 -0.2987 -0.6096
 8568SOL    HW126603   5.101   5.114   5.310  1.0589  1.7372 -1.1178
 8568SOL    HW226604   5.016   5.126   5.172 -0.0195 -0.0572 -0.6442
 8569SOL     OW26605   1.745   2.640   5.417  0.0055  0.0797  0.4388
 8569SOL    HW126606   1.669   2.704   5.403 -0.0122  0.1856  1.0187
 8569SOL    HW226607   1.812   2.681   5.479  0.5260 -0.0250 -0.0436
 8570SOL     OW26608   5.493   1.727   6.837  0.1848 -0.1247 -0.3382
 8570SOL    HW126609   5.495   1.702   6.740  1.1210  0.6675 -0.5361
 8570SOL    HW226610   5.404   1.766   6.860 -0.0697 -0.3968 -0.8470
 8571SOL     OW26611   1.149   3.617   2.777  0.0020 -0.0650  0.1493
 8571SOL    HW126612   1.193   3.600   2.866 -0.0776 -1.5663 -0.0780
 8571SOL    HW226613   1.162   3.538   2.718  0.5388  1.1431 -1.4075
 8572SOL     OW26614   0.006   4.727   6.887  0.0352  0.4921  0.3336
 8572SOL    HW126615  -0.042   4.799   6.836  1.1580  1.2493  0.3168
 8572SOL    HW226616   0.104   4.747   6.890  0.3235 -0.8404  0.6729
 8573SOL     OW26617   0.419   4.409   1.634 -0.3386  0.0540 -0.1107
 8573SOL    HW126618   0.450   4.489   1.684 -1.5644  1.0116 -0.8340
 8573SOL    HW226619   0.352   4.358   1.689 -0.6171  0.3148 -0.2074
 8574SOL     OW26620   3.764   6.177   0.961  0.7237 -0.1565 -0.3016
 8574SOL    HW126621   3.684   6.141   0.913  1.8622 -2.3589 -0.6534
 8574SOL    HW226622   3.824   6.102   0.987  1.5137  1.2094  2.1643
 8575SOL     OW26623   4.800   0.411   5.462  0.3474 -0.3818 -0.6760
 8575SOL    HW126624   4.746   0.331   5.487  0.0413 -0.1625 -0.6331
 8575SOL    HW226625   4.739   0.489   5.448  0.7665  0.2589  0.8826
 8576SOL     OW26626   3.725   5.417   6.282  0.1587  0.6063  0.4974
 8576SOL    HW126627   3.710   5.322   6.308 -1.2185  0.5555 -0.3607
 8576SOL    HW226628   3.744   5.422   6.183  1.3467  1.1336  0.7311
 8577SOL     OW26629   4.600   1.224   0.509  0.1423  0.1652 -0.2356
 8577SOL    HW126630   4.690   1.258   0.482 -0.0673  0.8862 -0.0416
 8577SOL    HW226631   4.588   1.236   0.608 -0.7218  1.4377 -0.4682
 8578SOL     OW26632   1.823   2.987   5.832 -0.2848  0.2863 -0.3630
 8578SOL    HW126633   1.846   2.928   5.754  1.5769  2.5607 -1.6776
 8578SOL    HW226634   1.820   3.082   5.801 -0.5651  1.1613  2.1724
 8579SOL     OW26635   3.090   1.862   4.455 -0.0906  0.0151 -0.2174
 8579SOL    HW126636   3.174   1.824   4.418  1.6122  2.2837  1.0073
 8579SOL    HW226637   3.085   1.842   4.553  0.3526  1.9479  0.2430
 8580SOL     OW26638   6.287   4.491   5.411 -0.3325  0.5303  0.2406
 8580SOL    HW126639   6.346   4.418   5.446 -0.6467  0.4521  0.6094
 8580SOL    HW226640   6.344   4.560   5.366 -0.0579 -0.0515 -0.3090
 8581SOL     OW26641   0.546   5.827   3.457  0.1667 -1.3081 -0.5611
 8581SOL    HW126642   0.451   5.842   3.485  0.4045  0.7343 -0.7117
 8581SOL    HW226643   0.599   5.794   3.535  0.1098  1.2097  0.6546
 8582SOL     OW26644   0.954   5.337   3.757 -0.4094  0.0920  0.1706
 8582SOL    HW126645   0.924   5.391   3.679  1.3431 -0.8761 -1.2596
 8582SOL    HW226646   1.037   5.377   3.795 -0.2356 -0.4545  0.3778
 8583SOL     OW26647   3.736   1.881   3.379  0.6722 -0.2979 -0.4410
 8583SOL    HW126648   3.726   1.866   3.477 -0.2478 -1.1381 -0.6461
 8583SOL    HW226649   3.737   1.979   3.359 -1.5623 -0.1027  0.1901
 8584SOL     OW26650   4.158   3.361   2.301  0.2880  0.2978  0.3000
 8584SOL    HW126651   4.124   3.376   2.208  0.6106 -1.1872 -0.0871
 8584SOL    HW226652   4.255   3.338   2.298 -0.0704 -1.4231  0.8111
 8585SOL     OW26653   4.308   3.931   1.423 -0.3093  0.3676 -0.0759
 8585SOL    HW126654   4.311   3.969   1.515 -0.6245 -0.4171  0.2721
 8585SOL    HW226655   4.214   3.933   1.389 -1.1330 -3.3832  1.4299
 8586SOL     OW26656   4.311   0.683   4.973 -0.6080  0.1200  0.4002
 8586SOL    HW126657   4.304   0.600   5.027  1.1093 -0.1373  0.2782
 8586SOL    HW226658   4.302   0.763   5.032 -0.9340 -0.1592  0.7251
 8587SOL     OW26659   5.011   0.183   2.204  0.0878  0.2972  0.3577
 8587SOL    HW126660   5.093   0.131   2.181  0.1658  0.8823 -0.7399
 8587SOL    HW226661   4.950   0.126   2.258  0.9303 -0.3584  0.6414
 8588SOL     OW26662   4.059   1.000   5.614  0.3744  0.0641  0.0818
 8588SOL    HW126663   4.063   0.980   5.516  1.3458 -1.8367  0.4642
 8588SOL    HW226664   3.963   0.996   5.644  0.1068  0.2954 -0.6897
 8589SOL     OW26665   4.872   6.152   5.934 -0.0765  0.6264 -0.3262
 8589SOL    HW126666   4.856   6.103   6.020 -1.6202  1.0798 -0.3204
 8589SOL    HW226667   4.940   6.103   5.880 -0.7066 -0.8934  0.1905
 8590SOL     OW26668   6.329   1.571   6.558  0.0789  0.3024 -0.3171
 8590SOL    HW126669   6.388   1.604   6.484  0.2439  0.4011 -0.1432
 8590SOL    HW226670   6.244   1.623   6.560 -0.1188 -0.0028 -0.7239
 8591SOL     OW26671   1.651   2.201   6.044 -0.1276 -0.0852  0.4001
 8591SOL    HW126672   1.567   2.186   5.993  1.5183 -1.5723 -2.0817
 8591SOL    HW226673   1.711   2.263   5.993  1.8648 -2.1565  0.0568
 8592SOL     OW26674   4.840   2.377   4.228  0.0822 -0.2475  0.5255
 8592SOL    HW126675   4.822   2.367   4.130  0.7961  1.0310  0.2394
 8592SOL    HW226676   4.939   2.369   4.244 -0.0473 -0.6054  1.1648
 8593SOL     OW26677   5.627   4.466   1.561  0.0576 -0.0066 -0.7429
 8593SOL    HW126678   5.634   4.542   1.626 -0.7604 -0.0940 -0.5499
 8593SOL    HW226679   5.697   4.478   1.490  1.8983 -0.6268  0.8652
 8594SOL     OW26680   3.688   0.923   1.847  0.1304  0.0965 -0.3909
 8594SOL    HW126681   3.679   1.002   1.786  0.4624  1.1068  0.8213
 8594SOL    HW226682   3.785   0.902   1.859  0.0481 -0.4012 -0.5749
 8595SOL     OW26683   0.369   3.974   4.737 -0.4838 -0.0829 -0.0792
 8595SOL    HW126684   0.338   3.879   4.735 -1.3168  0.1881 -1.5038
 8595SOL    HW226685   0.445   3.983   4.801 -0.3068 -1.7331 -0.0170
 8596SOL     OW26686   4.721   4.742   1.594  0.3501 -0.3706 -0.6898
 8596SOL    HW126687   4.736   4.789   1.507 -0.6999  2.7022  0.6492
 8596SOL    HW226688   4.809   4.708   1.628  1.3383  1.2429 -1.4653
 8597SOL     OW26689   6.552   5.475   2.925  0.3251  0.0242  0.1729
 8597SOL    HW126690   6.484   5.402   2.924  1.1033 -0.7196  0.8480
 8597SOL    HW226691   6.585   5.491   2.832 -1.2490  0.8833 -0.2882
 8598SOL     OW26692   6.840   1.875   3.033 -0.7184 -0.0910 -0.6599
 8598SOL    HW126693   6.861   1.934   2.955  0.4550  0.1021 -0.2062
 8598SOL    HW226694   6.867   1.781   3.012 -0.6826 -0.0942 -0.5988
 8599SOL     OW26695   1.011   3.336   6.135 -0.5568  0.0947 -0.2325
 8599SOL    HW126696   1.052   3.427   6.127  1.6718 -0.6832  1.4958
 8599SOL    HW226697   1.066   3.270   6.085 -0.8928 -0.6586  0.3767
 8600SOL     OW26698   1.820   2.318   2.092 -0.3862 -0.4980  0.3840
 8600SOL    HW126699   1.856   2.312   1.999 -0.4601  4.8222 -0.3070
 8600SOL    HW226700   1.896   2.320   2.157  0.0917  1.1924 -0.1726
 8601SOL     OW26701   3.775   5.550   1.942  0.2227 -0.6740 -0.8232
 8601SOL    HW126702   3.782   5.641   1.902 -0.4801 -0.5582 -0.7029
 8601SOL    HW226703   3.728   5.489   1.877 -2.1271 -0.1597  0.2738
 8602SOL     OW26704   2.998   4.871   3.051  0.1167  0.0938  0.1153
 8602SOL    HW126705   2.968   4.962   3.024 -2.3393 -0.4802  0.6598
 8602SOL    HW226706   3.029   4.873   3.146 -0.0811  0.3353  0.1739
 8603SOL     OW26707   4.824   3.915   6.618 -0.3213 -0.0629  0.0512
 8603SOL    HW126708   4.905   3.924   6.561 -1.0055  1.3889 -0.7625
 8603SOL    HW226709   4.851   3.893   6.712  1.0875  1.3642  0.0265
 8604SOL     OW26710   6.620   0.860   5.376  0.1865  0.3575  0.4499
 8604SOL    HW126711   6.600   0.914   5.295 -0.3084 -1.1804 -0.4997
 8604SOL    HW226712   6.717   0.836   5.377 -0.0055 -0.5183 -0.2983
 8605SOL     OW26713   4.210   1.719   4.461 -0.1756  0.1745 -0.7998
 8605SOL    HW126714   4.206   1.702   4.560  2.0822 -1.0435 -0.8566
 8605SOL    HW226715   4.157   1.802   4.440  0.5833  1.4035  1.6555
 8606SOL     OW26716   6.292   2.957   6.869 -0.0461  0.4000 -0.3570
 8606SOL    HW126717   6.251   2.936   6.958 -3.3351  1.7644 -1.3815
 8606SOL    HW226718   6.277   3.053   6.848  1.7666  0.3944 -1.9215
 8607SOL     OW26719   5.581   0.933   2.244  0.1807 -0.2997  0.2666
 8607SOL    HW126720   5.641   0.959   2.168 -0.2214 -1.4213 -0.4622
 8607SOL    HW226721   5.524   1.011   2.269  0.8820  0.3283 -0.0330
 8608SOL     OW26722   1.869   4.797   3.999  0.5482 -0.2387  0.1354
 8608SOL    HW126723   1.898   4.872   3.940 -0.3054 -0.2992 -0.3695
 8608SOL    HW226724   1.935   4.786   4.074 -0.1249  2.0436  1.1334
 8609SOL     OW26725   5.713   5.742   1.230 -0.2063 -0.4070 -0.5507
 8609SOL    HW126726   5.711   5.805   1.308 -1.3403  0.7965 -1.5151
 8609SOL    HW226727   5.677   5.788   1.149 -0.8181 -2.2282 -1.3588
 8610SOL     OW26728   3.930   1.015   2.268  0.1573  0.3580  0.2366
 8610SOL    HW126729   3.880   0.970   2.194  0.0769  1.3565 -0.3452
 8610SOL    HW226730   3.911   0.969   2.354  1.5946 -1.9213 -0.5656
 8611SOL     OW26731   6.445   6.501   0.667  0.4864  0.8682 -0.4084
 8611SOL    HW126732   6.399   6.473   0.583  1.2347 -0.9135 -0.2877
 8611SOL    HW226733   6.386   6.482   0.746  0.6993  0.2576 -0.3846
 8612SOL     OW26734   5.212   3.077   5.455 -0.4797  0.3338 -0.7736
 8612SOL    HW126735   5.144   3.089   5.527  0.8966  0.2802  0.6016
 8612SOL    HW226736   5.259   3.164   5.439  0.7897 -0.1494  0.0907
 8613SOL     OW26737   1.852   3.430   1.762 -0.0144 -0.2165  0.0593
 8613SOL    HW126738   1.871   3.380   1.846  0.0774 -0.0494  0.1403
 8613SOL    HW226739   1.754   3.437   1.748 -0.0891  1.4582  1.1946
 8614SOL     OW26740   3.604   5.338   5.734  0.3879  0.5917 -0.6551
 8614SOL    HW126741   3.556   5.381   5.810 -0.3728  1.0527 -1.3745
 8614SOL    HW226742   3.685   5.391   5.711 -0.0437  1.1436 -0.9376
 8615SOL     OW26743   2.809   1.430   0.055  0.2403 -0.3246  0.7013
 8615SOL    HW126744   2.793   1.410  -0.042  1.1066  0.9762  0.2511
 8615SOL    HW226745   2.723   1.455   0.099 -0.2500 -1.4908  0.4168
 8616SOL     OW26746   0.193   6.866   6.159  0.0095  0.3879 -0.2299
 8616SOL    HW126747   0.190   6.894   6.255  0.2179 -0.9476  0.1767
 8616SOL    HW226748   0.205   6.947   6.102 -0.3595  1.2307  0.8441
 8617SOL     OW26749   0.209   0.973   3.159  0.1510  0.3756 -0.0174
 8617SOL    HW126750   0.174   0.883   3.186 -1.7977  1.3147  0.8098
 8617SOL    HW226751   0.308   0.976   3.174  0.2642 -1.6284 -0.1041
 8618SOL     OW26752   1.555   1.276   0.631  0.1430 -0.5094  0.3162
 8618SOL    HW126753   1.645   1.304   0.664  0.1027  0.2539 -0.2064
 8618SOL    HW226754   1.518   1.346   0.569 -0.5075 -1.1370 -0.0229
 8619SOL     OW26755   5.582   1.309   2.251  0.4335 -0.2032 -0.1502
 8619SOL    HW126756   5.676   1.291   2.280  0.2558 -0.1499  0.4761
 8619SOL    HW226757   5.523   1.233   2.279 -0.1321  0.8249  1.5861
 8620SOL     OW26758   5.574   4.311   0.462  0.2090 -0.2577 -0.3315
 8620SOL    HW126759   5.575   4.390   0.401 -0.1584 -1.2993 -1.7589
 8620SOL    HW226760   5.610   4.231   0.413 -1.6934 -1.5256  0.2340
 8621SOL     OW26761   5.599   4.959   4.633 -0.3069 -0.1136 -0.0255
 8621SOL    HW126762   5.675   4.909   4.591 -0.3834 -0.9033  0.7539
 8621SOL    HW226763   5.537   4.894   4.677 -1.7189  0.4693 -1.0788
 8622SOL     OW26764   5.156   1.037   3.377 -0.1013 -0.2205 -0.2910
 8622SOL    HW126765   5.231   1.021   3.442 -0.5325 -0.2878  0.1987
 8622SOL    HW226766   5.097   1.111   3.412 -0.2452 -0.1445 -0.6884
 8623SOL     OW26767   0.964   6.726   4.589  0.3683 -0.2903 -0.1171
 8623SOL    HW126768   1.011   6.754   4.674 -0.1900 -2.0407  0.8090
 8623SOL    HW226769   1.029   6.729   4.513  0.3574  3.4710 -0.1558
 8624SOL     OW26770   1.373   5.480   3.002 -0.4051  0.6612 -0.0361
 8624SOL    HW126771   1.367   5.397   3.057  1.8297  0.5681  0.1433
 8624SOL    HW226772   1.281   5.510   2.977 -1.3848 -0.3907  2.0801
 8625SOL     OW26773   5.177   2.123   5.050  0.0878  0.2575 -0.5460
 8625SOL    HW126774   5.136   2.092   4.964 -0.7356 -0.3414  0.0508
 8625SOL    HW226775   5.106   2.159   5.110  0.4080 -0.8241  0.5229
 8626SOL     OW26776   3.281   1.307   5.795  0.5234  0.2760 -0.7329
 8626SOL    HW126777   3.295   1.321   5.696  1.7292  2.0471 -0.3592
 8626SOL    HW226778   3.354   1.354   5.845 -0.0435 -0.6519  1.0163
 8627SOL     OW26779   0.246   6.876   1.766  0.7953 -0.1899 -0.2082
 8627SOL    HW126780   0.249   6.806   1.694 -0.1224  1.0863 -1.5551
 8627SOL    HW226781   0.216   6.834   1.851 -0.3727 -1.3475 -1.1307
 8628SOL     OW26782   1.732   4.079   2.791  0.3660  0.1639  0.0937
 8628SOL    HW126783   1.665   4.151   2.772  1.6102  0.9644 -1.4789
 8628SOL    HW226784   1.779   4.053   2.706 -0.5580 -3.0888  0.4625
 8629SOL     OW26785   5.048   3.720   5.392  0.3956  0.2329  0.3365
 8629SOL    HW126786   5.069   3.688   5.485 -1.7844 -0.5260  0.6207
 8629SOL    HW226787   5.050   3.643   5.329  0.0164  0.4137  0.1042
 8630SOL     OW26788   5.480   6.348   4.325  0.7421  0.1120  0.2249
 8630SOL    HW126789   5.460   6.353   4.423 -2.2970  1.2341 -0.3369
 8630SOL    HW226790   5.510   6.437   4.292  0.2960  0.1404 -0.1148
 8631SOL     OW26791   1.788   2.823   6.370  0.1184  0.0698 -0.2391
 8631SOL    HW126792   1.722   2.826   6.295  1.2487  1.2785 -1.2378
 8631SOL    HW226793   1.754   2.764   6.442 -1.1381 -0.9153 -1.5848
 8632SOL     OW26794   1.905   1.616   1.051 -0.4180  0.0036 -0.4588
 8632SOL    HW126795   1.984   1.674   1.073 -1.5129  0.9421  1.1596
 8632SOL    HW226796   1.831   1.673   1.016 -0.5111 -0.8362 -1.6871
 8633SOL     OW26797   1.938   3.151   1.103  0.0114 -0.0160 -0.1136
 8633SOL    HW126798   2.033   3.158   1.133  0.0406 -1.1139  0.0665
 8633SOL    HW226799   1.884   3.103   1.173 -1.5249  3.7715  1.5977
 8634SOL     OW26800   1.869   0.998   0.740  0.0389  0.1781  0.2393
 8634SOL    HW126801   1.812   1.069   0.698 -0.7324 -0.4569  0.2015
 8634SOL    HW226802   1.818   0.913   0.745  1.1635 -0.5494 -0.2754
 8635SOL     OW26803   6.599   4.390   3.409  0.4605 -0.3194 -0.1449
 8635SOL    HW126804   6.665   4.375   3.335  0.1442  2.8162 -1.2270
 8635SOL    HW226805   6.521   4.328   3.397  1.9531 -2.2583 -0.3519
 8636SOL     OW26806   1.747   2.497   3.554 -0.4970 -0.3565 -0.3053
 8636SOL    HW126807   1.675   2.462   3.613 -0.8526  1.3129  0.2882
 8636SOL    HW226808   1.829   2.515   3.609 -0.1366 -0.7518 -0.7030
 8637SOL     OW26809   5.126   1.537   4.359  0.0181  0.3959 -0.0054
 8637SOL    HW126810   5.166   1.466   4.299  1.2001  0.7930  0.2799
 8637SOL    HW226811   5.092   1.494   4.442  0.6508  0.1320  0.1279
 8638SOL     OW26812   5.227   6.147   1.141 -0.0575  0.1916  0.0696
 8638SOL    HW126813   5.277   6.078   1.192 -0.8600  0.0136  0.6298
 8638SOL    HW226814   5.292   6.203   1.088  0.7051 -0.1443  0.6311
 8639SOL     OW26815   5.644   5.070   0.182 -0.3145  0.0564 -0.4821
 8639SOL    HW126816   5.692   4.987   0.152 -1.3919 -0.5692 -0.5357
 8639SOL    HW226817   5.551   5.069   0.146 -1.0593  0.1935  1.3439
 8640SOL     OW26818   2.786   2.781   6.861 -0.3313  0.6758  1.1263
 8640SOL    HW126819   2.767   2.781   6.762  0.3698  3.1654  0.9228
 8640SOL    HW226820   2.840   2.701   6.884  0.0483  0.3681 -0.6442
 8641SOL     OW26821   5.847   1.174   0.064 -0.0633 -0.1349  0.5929
 8641SOL    HW126822   5.810   1.260   0.028  0.8256  0.0001 -0.0139
 8641SOL    HW226823   5.919   1.195   0.131  1.0412 -0.3907 -0.4813
 8642SOL     OW26824   4.863   1.320   0.412 -0.5292  0.0762  0.1048
 8642SOL    HW126825   4.894   1.334   0.507  0.2114  1.2999 -0.2916
 8642SOL    HW226826   4.919   1.249   0.369 -2.3908 -2.2386  1.2450
 8643SOL     OW26827   3.002   4.941   4.675 -0.5164  0.4305  0.3754
 8643SOL    HW126828   2.928   4.999   4.640 -0.5128 -0.9863 -2.2886
 8643SOL    HW226829   3.090   4.974   4.640 -0.3808 -0.3614 -0.0664
 8644SOL     OW26830   4.214   2.211   5.760  0.0857 -0.5970 -0.4518
 8644SOL    HW126831   4.272   2.174   5.688  0.0750  0.3426 -0.9636
 8644SOL    HW226832   4.268   2.230   5.842  0.7867  1.3741 -1.3088
 8645SOL     OW26833   6.381   0.255   0.637 -0.2675 -0.1530  0.1071
 8645SOL    HW126834   6.458   0.272   0.575  0.5196  0.6103  1.2480
 8645SOL    HW226835   6.400   0.298   0.725 -2.3161  0.6683  0.1996
 8646SOL     OW26836   6.128   6.207   5.117  0.4352  0.0224 -0.2767
 8646SOL    HW126837   6.193   6.242   5.051  0.2760 -0.7180 -0.8426
 8646SOL    HW226838   6.140   6.108   5.127 -0.1649 -0.0237  0.0963
 8647SOL     OW26839   2.204   6.660   0.382  0.2700  0.0260  0.0351
 8647SOL    HW126840   2.232   6.570   0.348  2.4958  0.6761 -0.0270
 8647SOL    HW226841   2.245   6.731   0.325  1.1582  1.1066  1.9236
 8648SOL     OW26842   2.158   4.165   3.124  0.2272  0.3517  0.0410
 8648SOL    HW126843   2.058   4.159   3.127  0.2666 -0.5218 -0.1704
 8648SOL    HW226844   2.186   4.197   3.034  0.2108 -1.5899 -0.6970
 8649SOL     OW26845   2.616   0.003   2.411 -0.1220 -0.0466 -0.2083
 8649SOL    HW126846   2.548  -0.069   2.397 -0.4396  0.3166 -0.5568
 8649SOL    HW226847   2.634   0.049   2.324 -0.2695  0.5979  0.0921
 8650SOL     OW26848   0.074   3.298   2.103  0.0388  0.3347 -0.1997
 8650SOL    HW126849   0.032   3.211   2.130 -1.4218  1.0817  0.0669
 8650SOL    HW226850   0.070   3.362   2.180 -0.7249  1.2753 -0.9931
 8651SOL     OW26851   0.769   1.824   0.741  0.5379  0.4044 -0.2792
 8651SOL    HW126852   0.715   1.866   0.669  0.1991 -0.1490 -0.3540
 8651SOL    HW226853   0.866   1.832   0.719  0.4183 -2.0091 -2.1527
 8652SOL     OW26854   3.646   2.042   1.334  0.5845 -0.3043  0.1078
 8652SOL    HW126855   3.556   2.066   1.296  0.4709 -1.3682 -0.3328
 8652SOL    HW226856   3.698   2.126   1.351 -0.2788  0.3029 -0.1577
 8653SOL     OW26857   2.564   4.952   3.113  0.1632  0.7027  0.1435
 8653SOL    HW126858   2.621   4.873   3.092  1.5126  1.3849  1.1129
 8653SOL    HW226859   2.491   4.959   3.046 -0.3179 -1.6671  0.3401
 8654SOL     OW26860   4.582   4.642   3.276 -0.2743  0.5142 -0.0775
 8654SOL    HW126861   4.527   4.724   3.292  0.6451  1.4360 -1.4414
 8654SOL    HW226862   4.675   4.668   3.252  0.4488 -0.9935  0.8937
 8655SOL     OW26863   3.410   3.697   4.313  0.6223 -0.2288  0.0352
 8655SOL    HW126864   3.373   3.783   4.347  0.5998 -0.3215  0.2475
 8655SOL    HW226865   3.451   3.646   4.388 -1.0720 -1.2758  0.3088
 8656SOL     OW26866   1.157   3.061   3.108  0.6285  0.0345 -1.0176
 8656SOL    HW126867   1.133   3.048   3.204  1.0714  2.2604 -0.5414
 8656SOL    HW226868   1.091   3.015   3.050  0.1169 -1.0005  0.3455
 8657SOL     OW26869   4.875   4.555   1.081  0.1094  0.2328  0.2616
 8657SOL    HW126870   4.901   4.613   1.004 -1.3526 -0.4830 -0.8144
 8657SOL    HW226871   4.797   4.596   1.129  0.9605  0.6370  1.3534
 8658SOL     OW26872   3.333   5.861   5.546  0.1156  0.6432 -0.0736
 8658SOL    HW126873   3.392   5.915   5.487  0.3544  0.1518 -0.2960
 8658SOL    HW226874   3.241   5.901   5.549  0.1981  0.8679 -0.4989
 8659SOL     OW26875   1.217   0.106   6.211 -0.2781 -0.1273  0.0775
 8659SOL    HW126876   1.256   0.021   6.175 -2.5293 -1.6534  1.0157
 8659SOL    HW226877   1.168   0.087   6.296 -0.4066  2.2432  0.6073
 8660SOL     OW26878   5.775   6.064   6.059  0.3899 -0.2354  0.7489
 8660SOL    HW126879   5.854   6.124   6.054  0.3092 -0.2154 -0.7036
 8660SOL    HW226880   5.791   5.993   6.128  1.3779  0.1740  0.9524
 8661SOL     OW26881   5.511   5.742   3.280 -0.2334  0.1142 -0.2356
 8661SOL    HW126882   5.488   5.777   3.189  0.5138  0.2226 -0.3929
 8661SOL    HW226883   5.473   5.650   3.291 -3.6148  1.4740  0.7787
 8662SOL     OW26884   5.827   0.885   2.419  0.2370  0.4682  0.5188
 8662SOL    HW126885   5.771   0.898   2.338 -0.5138 -1.9591  0.5494
 8662SOL    HW226886   5.912   0.937   2.411  0.7541 -0.6622 -2.4282
 8663SOL     OW26887   1.322   1.138   3.483  0.6356 -0.0507 -0.1845
 8663SOL    HW126888   1.296   1.076   3.558 -1.7718  2.4695  1.2372
 8663SOL    HW226889   1.244   1.151   3.422  0.8322  2.0641 -0.0492
 8664SOL     OW26890   5.381   4.554   6.456 -0.0109  0.3509  0.3453
 8664SOL    HW126891   5.335   4.565   6.368 -1.0797 -0.4437  0.7739
 8664SOL    HW226892   5.437   4.471   6.454 -1.0879 -0.4241  0.8054
 8665SOL     OW26893   0.166   4.168   6.597 -0.2211  0.4933  0.3884
 8665SOL    HW126894   0.232   4.164   6.673  0.1160  1.0620  0.1312
 8665SOL    HW226895   0.073   4.172   6.634 -0.0696  0.5482  0.7683
 8666SOL     OW26896   3.426   6.453   6.973 -0.5551 -0.4181 -0.3959
 8666SOL    HW126897   3.341   6.403   6.988  0.4421 -2.2944 -0.7029
 8666SOL    HW226898   3.504   6.392   6.988  0.8736  1.7943  2.0945
 8667SOL     OW26899   0.757   0.834   3.695 -0.0250 -0.1268  0.6343
 8667SOL    HW126900   0.857   0.843   3.686 -0.1500  0.0894 -0.8193
 8667SOL    HW226901   0.713   0.871   3.613 -1.2654 -0.9540  0.8996
 8668SOL     OW26902   2.519   6.273   5.745  0.5622  0.0180  0.5745
 8668SOL    HW126903   2.543   6.305   5.653 -0.2835 -1.3525 -0.1549
 8668SOL    HW226904   2.471   6.346   5.793  0.8026  0.6784 -0.1564
 8669SOL     OW26905   5.329   6.854   1.817  0.5168  0.4254  0.4365
 8669SOL    HW126906   5.406   6.803   1.855  1.3108  0.9155 -0.4645
 8669SOL    HW226907   5.285   6.800   1.745 -1.2450 -0.6771  2.2479
 8670SOL     OW26908   1.248   4.181   3.050  0.2628  0.2038  0.4001
 8670SOL    HW126909   1.263   4.197   3.147  0.2719  0.6076  0.3337
 8670SOL    HW226910   1.212   4.265   3.007 -1.5539 -0.5129  0.4209
 8671SOL     OW26911   2.639   3.868   1.620  0.0997 -0.0997 -0.3147
 8671SOL    HW126912   2.653   3.914   1.532 -0.3994  1.5370  0.4345
 8671SOL    HW226913   2.693   3.784   1.622  1.7264  0.8609 -1.3942
 8672SOL     OW26914   5.878   6.884   5.152  0.1638 -0.3917  0.1803
 8672SOL    HW126915   5.961   6.910   5.202  0.1845  0.1668 -0.1367
 8672SOL    HW226916   5.798   6.921   5.199  0.2035  0.3878 -0.3552
 8673SOL     OW26917   1.323   1.338   5.482  0.4306 -1.1455  0.1055
 8673SOL    HW126918   1.251   1.385   5.533  1.2516 -1.2292  1.3999
 8673SOL    HW226919   1.403   1.397   5.475  0.9910 -1.8355  0.5591
 8674SOL     OW26920   3.740   6.279   1.216 -0.3476  0.6090  0.3982
 8674SOL    HW126921   3.746   6.244   1.122 -0.7156  1.4619  0.0370
 8674SOL    HW226922   3.644   6.299   1.237 -0.2446  0.5671  0.9015
 8675SOL     OW26923   1.625   6.551   4.209 -0.3009 -0.4261 -0.2510
 8675SOL    HW126924   1.562   6.603   4.151  0.0700 -0.3833 -0.6298
 8675SOL    HW226925   1.576   6.513   4.288 -0.7106 -0.0608 -0.3279
 8676SOL     OW26926   0.664   5.755   6.971 -0.0925 -0.7860 -0.0370
 8676SOL    HW126927   0.758   5.787   6.986 -0.5606 -0.0646  1.6566
 8676SOL    HW226928   0.622   5.809   6.899 -0.3105  1.4368  1.6307
 8677SOL     OW26929   0.224   3.166   2.984  0.0952 -0.1169 -0.2335
 8677SOL    HW126930   0.260   3.080   3.020 -0.2998 -0.4499 -0.6220
 8677SOL    HW226931   0.140   3.148   2.933 -2.2364  0.9170  2.9118
 8678SOL     OW26932   1.570   6.500   3.791 -0.3548  0.4328  0.2662
 8678SOL    HW126933   1.547   6.440   3.715  0.8334 -0.7834  0.8179
 8678SOL    HW226934   1.616   6.447   3.862 -1.0583  1.6269  1.6526
 8679SOL     OW26935   6.852   3.308   4.771 -0.3525  0.0851 -0.2909
 8679SOL    HW126936   6.909   3.232   4.802 -0.8332  0.0155  0.4564
 8679SOL    HW226937   6.763   3.272   4.742  0.6182 -0.0696 -3.3966
 8680SOL     OW26938   4.837   1.268   1.951 -0.5927  0.4925  0.0413
 8680SOL    HW126939   4.758   1.313   1.910 -0.9456 -1.2199 -1.2456
 8680SOL    HW226940   4.921   1.302   1.908 -0.9221 -0.8467 -1.7583
 8681SOL     OW26941   6.495   5.817   0.830 -0.0925 -0.4595  0.3286
 8681SOL    HW126942   6.595   5.810   0.831 -0.1525 -2.5760 -1.1423
 8681SOL    HW226943   6.469   5.911   0.808  1.4380  1.0866  4.1935
 8682SOL     OW26944   2.966   4.888   1.220  0.1613 -0.1141 -0.1591
 8682SOL    HW126945   2.950   4.954   1.146 -0.9444  0.4623  0.5572
 8682SOL    HW226946   3.059   4.852   1.213  0.6771  1.2556 -0.7846
 8683SOL     OW26947   0.547   0.594   2.271 -0.0427 -0.3932  0.4414
 8683SOL    HW126948   0.558   0.666   2.203  0.1051 -0.7670  0.0624
 8683SOL    HW226949   0.636   0.573   2.312  0.1905 -1.3744 -0.5108
 8684SOL     OW26950   6.888   2.809   2.294  0.3526  0.1696 -0.1033
 8684SOL    HW126951   6.871   2.843   2.387 -0.2294  1.6041 -0.7029
 8684SOL    HW226952   6.984   2.785   2.285  0.0786 -1.7561  1.3934
 8685SOL     OW26953   0.191   0.511   6.897 -0.1226 -0.2860  0.4951
 8685SOL    HW126954   0.172   0.425   6.850 -0.0869  0.6805 -1.3772
 8685SOL    HW226955   0.259   0.563   6.845 -1.8330  1.8988  0.2832
 8686SOL     OW26956   1.726   0.919   6.967 -0.1485 -0.0823 -0.4597
 8686SOL    HW126957   1.646   0.972   6.996 -0.2789 -1.0430  1.0969
 8686SOL    HW226958   1.800   0.982   6.942 -0.9615  0.8232 -0.6625
 8687SOL     OW26959   3.455   0.078   0.838 -0.8181 -0.3215  0.0807
 8687SOL    HW126960   3.502   0.148   0.892  1.9482 -0.1120 -2.3113
 8687SOL    HW226961   3.504  -0.009   0.846 -2.3772 -1.1998  0.5399
 8688SOL     OW26962   0.991   6.420   1.638 -0.2743 -0.2717  0.1041
 8688SOL    HW126963   0.902   6.455   1.609  0.1368  0.9848  0.2877
 8688SOL    HW226964   1.011   6.335   1.589 -0.3774  0.8331 -1.9863
 8689SOL     OW26965   2.920   3.432   2.935 -0.0865 -0.2144  0.4574
 8689SOL    HW126966   2.914   3.506   2.868 -1.0994 -1.3130 -0.7006
 8689SOL    HW226967   3.015   3.399   2.939 -0.0297 -0.1974 -0.5040
 8690SOL     OW26968   1.130   5.664   6.647 -0.1071  0.3356  0.3119
 8690SOL    HW126969   1.185   5.580   6.652  0.2138  0.1191 -3.5550
 8690SOL    HW226970   1.184   5.741   6.681  0.3949 -0.6812  1.9188
 8691SOL     OW26971   6.828   6.234   1.722 -0.0415  0.8317  0.6736
 8691SOL    HW126972   6.778   6.296   1.782 -0.8597  1.9840 -1.1414
 8691SOL    HW226973   6.828   6.269   1.629  1.3455 -0.8253 -0.0141
 8692SOL     OW26974   3.773   0.953   6.152  0.6569 -0.0976 -0.1843
 8692SOL    HW126975   3.855   0.913   6.193 -0.1307 -0.2978  1.2481
 8692SOL    HW226976   3.793   1.046   6.121  1.1202  0.3282  1.3078
 8693SOL     OW26977   6.371   5.474   2.240  0.2970 -0.0494 -0.0686
 8693SOL    HW126978   6.439   5.502   2.173  0.5419 -0.5793 -0.0451
 8693SOL    HW226979   6.417   5.445   2.324 -0.0528  1.9696  0.8729
 8694SOL     OW26980   4.482   3.857   6.579  0.1353 -0.4461  0.0539
 8694SOL    HW126981   4.549   3.927   6.603  0.4972 -0.1848 -1.5955
 8694SOL    HW226982   4.418   3.894   6.511  0.7298 -1.8851 -1.3373
 8695SOL     OW26983   6.306   5.216   6.029 -0.3019  0.2698  0.0767
 8695SOL    HW126984   6.310   5.200   6.128 -0.9278  1.3688  0.2926
 8695SOL    HW226985   6.314   5.129   5.981 -1.2250 -0.4241  1.1331
 8696SOL     OW26986   3.009   6.088   0.346 -0.1031  0.1491 -0.3787
 8696SOL    HW126987   2.936   6.156   0.347  0.4304  0.7337  0.8463
 8696SOL    HW226988   3.020   6.052   0.253 -2.1617 -0.2056 -0.5296
 8697SOL     OW26989   3.493   6.972   3.205  0.0076  0.0587  0.1376
 8697SOL    HW126990   3.456   7.062   3.181  0.4668  0.4907  1.0066
 8697SOL    HW226991   3.513   6.969   3.303  0.9763 -0.6216 -0.0601
 8698SOL     OW26992   3.479   3.680   5.977 -0.4919 -0.1534  0.4550
 8698SOL    HW126993   3.468   3.611   5.905 -2.3769  1.6081 -1.0932
 8698SOL    HW226994   3.501   3.635   6.063  0.6374 -2.4643 -0.9332
 8699SOL     OW26995   0.967   6.860   3.286  0.3275  0.1915 -0.0430
 8699SOL    HW126996   0.904   6.853   3.208  0.1967 -0.6114  0.1260
 8699SOL    HW226997   0.917   6.894   3.366 -0.5676 -2.7427  0.7803
 8700SOL     OW26998   1.856   5.419   0.861  0.1895 -0.5842  0.1664
 8700SOL    HW126999   1.951   5.436   0.885  0.2610  0.3628 -0.7340
 8700SOL    HW227000   1.806   5.506   0.860 -0.4256 -0.9383 -0.4207
 8701SOL     OW27001   1.403   6.644   0.852 -0.2262  0.3643  0.3686
 8701SOL    HW127002   1.472   6.678   0.916 -0.0931 -0.6911  0.8139
 8701SOL    HW227003   1.345   6.576   0.898 -0.6870  0.2280 -0.3874
 8702SOL     OW27004   6.075   6.843   3.997  0.3005  0.0559  0.0788
 8702SOL    HW127005   6.147   6.869   3.933  0.0906 -1.3075 -0.7530
 8702SOL    HW227006   6.051   6.747   3.983 -0.8108  0.1451  1.1929
 8703SOL     OW27007   0.778   1.802   4.684 -0.3475  0.2830 -0.2565
 8703SOL    HW127008   0.712   1.763   4.748 -0.5062  1.8618  0.5994
 8703SOL    HW227009   0.830   1.729   4.640  0.8891 -0.8652  2.8407
 8704SOL     OW27010   4.074   2.598   1.428  0.1707  0.3713 -0.4405
 8704SOL    HW127011   4.100   2.581   1.523  2.1382  0.5854 -0.9075
 8704SOL    HW227012   4.024   2.519   1.393 -1.1180  0.5291  0.9167
 8705SOL     OW27013   0.380   2.244   5.297 -0.3206 -0.3940 -1.1771
 8705SOL    HW127014   0.346   2.289   5.379  1.1875 -1.2598 -0.0361
 8705SOL    HW227015   0.307   2.189   5.256 -0.7218 -1.0768  0.3955
 8706SOL     OW27016   3.933   5.945   0.892  0.4121  0.7621  0.4966
 8706SOL    HW127017   4.010   6.004   0.869  0.0322  1.5770  1.2219
 8706SOL    HW227018   3.963   5.871   0.952  0.7656  0.6072  0.1328
 8707SOL     OW27019   5.220   6.901   2.260 -0.3274 -0.3044 -0.0823
 8707SOL    HW127020   5.226   6.836   2.184 -0.1906 -0.1102 -0.2396
 8707SOL    HW227021   5.261   6.988   2.232  2.2925 -1.0658  1.1306
 8708SOL     OW27022   3.615   1.856   6.437 -0.2035  0.1557 -0.1432
 8708SOL    HW127023   3.686   1.897   6.378 -1.3900  0.8178 -1.1672
 8708SOL    HW227024   3.623   1.757   6.434  1.1326  0.2266  0.3423
 8709SOL     OW27025   3.379   1.581   2.039  0.6981  0.6724 -0.5550
 8709SOL    HW127026   3.340   1.643   1.971  1.0141  0.7009 -0.7111
 8709SOL    HW227027   3.443   1.519   1.995 -0.9663 -1.0050 -0.7223
 8710SOL     OW27028   5.687   6.372   5.119 -0.1201  0.0143  0.5750
 8710SOL    HW127029   5.748   6.334   5.048  0.9568  1.0048  0.9351
 8710SOL    HW227030   5.599   6.395   5.078  0.6108  0.9242 -0.5531
 8711SOL     OW27031   3.526   6.636   1.373 -0.6840  0.1418 -0.1891
 8711SOL    HW127032   3.477   6.565   1.423 -0.6865  1.3495  1.6219
 8711SOL    HW227033   3.614   6.653   1.416  0.0407  0.1090 -1.5959
 8712SOL     OW27034   1.039   2.104   4.543 -0.2359  0.0560  0.3750
 8712SOL    HW127035   1.038   2.171   4.617  0.3613  1.1218 -0.5434
 8712SOL    HW227036   1.102   2.135   4.472  0.5921 -1.8334  0.2294
 8713SOL     OW27037   2.846   3.427   2.094  0.0071 -0.2623 -0.1670
 8713SOL    HW127038   2.801   3.439   2.006  1.6253 -0.7859 -1.1080
 8713SOL    HW227039   2.791   3.368   2.153 -0.2828 -1.3490 -1.4902
 8714SOL     OW27040   4.691   0.549   0.696  0.3874  0.1674  0.3945
 8714SOL    HW127041   4.783   0.582   0.717  1.3178  2.4169 -5.3814
 8714SOL    HW227042   4.624   0.617   0.729  1.3505  1.6230 -0.5172
 8715SOL     OW27043   2.887   2.992   0.361  0.6179  0.3260  0.0047
 8715SOL    HW127044   2.933   3.078   0.382  0.3458  0.6116 -0.5510
 8715SOL    HW227045   2.825   2.968   0.436  1.9446 -0.2644  0.9397
 8716SOL     OW27046   6.712   5.772   3.640  0.0434  0.2676  0.4374
 8716SOL    HW127047   6.705   5.775   3.540 -2.6339 -0.5398  0.5270
 8716SOL    HW227048   6.789   5.714   3.666  1.5104  1.4068 -1.0967
 8717SOL     OW27049   3.903   3.658   2.004 -0.2625 -0.4234 -0.4516
 8717SOL    HW127050   3.838   3.655   1.928 -0.5419  1.9654 -0.3770
 8717SOL    HW227051   3.900   3.748   2.048  2.3781 -0.5616  0.2087
 8718SOL     OW27052   5.553   4.849   3.983  0.0786  0.1219 -0.3396
 8718SOL    HW127053   5.628   4.805   3.933 -0.0498  1.7662 -2.1067
 8718SOL    HW227054   5.469   4.841   3.929 -0.6135 -0.0863  0.7509
 8719SOL     OW27055   0.219   4.902   1.263  0.0645 -0.1476 -0.8195
 8719SOL    HW127056   0.143   4.851   1.222  0.5994  0.2854 -2.4555
 8719SOL    HW227057   0.297   4.901   1.200  0.8678  0.7589  0.1218
 8720SOL     OW27058   3.119   5.014   0.519  0.1117  0.1375 -0.1730
 8720SOL    HW127059   3.089   5.108   0.506  0.1222  0.2824  0.7793
 8720SOL    HW227060   3.044   4.952   0.500  0.0767  0.3337 -0.7072
 8721SOL     OW27061   4.393   0.944   1.020  0.4410  0.1962 -0.3488
 8721SOL    HW127062   4.473   0.884   1.025  0.5141  0.3667  0.7548
 8721SOL    HW227063   4.424   1.039   1.027  0.2521  0.3389 -1.2888
 8722SOL     OW27064   3.952   2.975   5.263  0.0046 -0.4745 -0.3447
 8722SOL    HW127065   3.960   2.876   5.276  0.3582 -0.5572 -1.1489
 8722SOL    HW227066   3.938   2.995   5.166 -0.2873  0.2560 -0.1593
 8723SOL     OW27067   1.364   4.259   3.275 -0.0361 -0.4545  0.4676
 8723SOL    HW127068   1.385   4.230   3.369 -1.5647 -0.4061  0.8482
 8723SOL    HW227069   1.317   4.347   3.277  0.1546 -0.3269 -0.3686
 8724SOL     OW27070   0.424   4.157   4.447  0.2337 -0.3159 -0.1574
 8724SOL    HW127071   0.496   4.138   4.514  0.2870  0.9706  0.1801
 8724SOL    HW227072   0.361   4.226   4.484  0.3310  0.5083 -1.4673
 8725SOL     OW27073   6.732   4.581   1.968 -0.3928 -0.0372  0.1592
 8725SOL    HW127074   6.809   4.560   2.028 -1.4467 -1.0833  1.2110
 8725SOL    HW227075   6.698   4.496   1.928 -1.3284  0.3403  0.1335
 8726SOL     OW27076   1.846   4.349   2.264 -0.1678  0.0037 -0.2355
 8726SOL    HW127077   1.917   4.391   2.320  0.2761 -0.3799 -0.4996
 8726SOL    HW227078   1.881   4.335   2.171 -1.4402  2.1875 -1.1124
 8727SOL     OW27079   2.053   4.238   3.819  0.0310 -0.0838  0.1945
 8727SOL    HW127080   2.092   4.161   3.768 -1.1320  0.9711 -2.5076
 8727SOL    HW227081   2.027   4.208   3.911 -1.2745 -3.2375 -1.0459
 8728SOL     OW27082   6.825   3.521   3.411 -0.0915  0.6076  0.5344
 8728SOL    HW127083   6.790   3.551   3.500  1.0402  1.5524  0.6873
 8728SOL    HW227084   6.763   3.552   3.339 -1.1909 -0.4447  0.9874
 8729SOL     OW27085   2.743   0.625   4.933 -0.5867 -0.7019 -0.1888
 8729SOL    HW127086   2.728   0.570   4.851 -2.7408 -0.6232  0.0825
 8729SOL    HW227087   2.742   0.722   4.910 -0.7830 -0.6904 -0.1364
 8730SOL     OW27088   6.609   0.261   2.028 -0.2517  0.2833 -0.2515
 8730SOL    HW127089   6.632   0.165   2.039 -0.8484 -0.0171 -1.3599
 8730SOL    HW227090   6.513   0.276   2.053  0.0700  0.7599  0.7195
 8731SOL     OW27091   0.552   1.197   2.809 -0.1901 -0.6067 -0.5964
 8731SOL    HW127092   0.506   1.203   2.898  0.8429 -0.3132 -0.0722
 8731SOL    HW227093   0.544   1.103   2.774 -1.1936 -0.5545 -0.5311
 8732SOL     OW27094   1.109   3.010   3.472 -0.5007  0.3256 -0.2191
 8732SOL    HW127095   1.026   3.024   3.526 -0.4394  0.2296 -0.1010
 8732SOL    HW227096   1.174   3.084   3.490 -0.5709  0.4161 -0.3330
 8733SOL     OW27097   4.045   1.553   3.678  0.4212  0.1028 -0.1088
 8733SOL    HW127098   4.092   1.522   3.761 -0.3588  2.1266  1.1600
 8733SOL    HW227099   4.113   1.573   3.607  1.3489  0.8926  0.9552
 8734SOL     OW27100   4.430   0.070   5.790 -0.1439  0.3790 -0.2225
 8734SOL    HW127101   4.474   0.159   5.779 -0.8411  0.7658  0.0567
 8734SOL    HW227102   4.342   0.081   5.836 -0.1838 -0.4715 -0.0658
 8735SOL     OW27103   3.344   6.813   0.668  0.2346 -0.4356  0.0721
 8735SOL    HW127104   3.440   6.831   0.647  0.0322 -1.0307 -1.5474
 8735SOL    HW227105   3.337   6.728   0.720  0.5750 -0.4761  0.0572
 8736SOL     OW27106   6.993   2.421   2.074  0.4931 -0.2285  0.1487
 8736SOL    HW127107   6.916   2.476   2.105  2.1642  1.2676  1.8771
 8736SOL    HW227108   6.962   2.355   2.005 -2.6105 -0.7466  1.8768
 8737SOL     OW27109   5.378   1.607   1.773 -0.4044 -0.7963 -0.3880
 8737SOL    HW127110   5.309   1.615   1.845  1.1273 -1.6074  1.2495
 8737SOL    HW227111   5.450   1.544   1.803  1.0322 -0.0135 -2.0423
 8738SOL     OW27112   2.196   5.065   3.187 -0.0076  0.6607  0.4852
 8738SOL    HW127113   2.104   5.026   3.198  1.1872 -2.0600  1.8587
 8738SOL    HW227114   2.214   5.082   3.090 -0.4923 -2.8925 -0.3502
 8739SOL     OW27115   4.966   0.298   5.266  0.2620  0.5362  0.3007
 8739SOL    HW127116   4.917   0.359   5.328 -4.1531 -0.8723 -1.4478
 8739SOL    HW227117   4.963   0.204   5.302 -0.4022  0.0695 -0.9128
 8740SOL     OW27118   3.988   6.846   1.041 -0.4122  0.3160 -0.1915
 8740SOL    HW127119   3.953   6.936   1.017 -0.9351  0.8627  2.3277
 8740SOL    HW227120   3.922   6.799   1.099  0.5511 -1.0273 -0.1279
 8741SOL     OW27121   2.087   2.532   4.036 -0.6254  0.0593  0.2877
 8741SOL    HW127122   2.184   2.549   4.052 -0.9608  1.4591  0.9995
 8741SOL    HW227123   2.038   2.619   4.031 -1.6054 -0.5501 -1.7757
 8742SOL     OW27124   4.834   1.067   0.189 -0.4353  0.3393  0.0209
 8742SOL    HW127125   4.926   1.073   0.229 -0.7737 -1.2839  1.1275
 8742SOL    HW227126   4.773   1.018   0.252 -1.8344  0.5776 -1.0955
 8743SOL     OW27127   1.370   3.846   3.645  0.2967  0.3792  0.4485
 8743SOL    HW127128   1.421   3.893   3.572  0.6505 -1.8780 -0.8819
 8743SOL    HW227129   1.431   3.829   3.722  0.8051  0.1164 -0.0026
 8744SOL     OW27130   1.930   0.659   0.373 -0.6137  0.0752  0.1421
 8744SOL    HW127131   1.836   0.635   0.399 -1.1644  1.2670 -0.6721
 8744SOL    HW227132   1.939   0.658   0.274  1.0434 -2.8173  0.2060
 8745SOL     OW27133   4.856   2.638   0.108 -0.5147 -0.2192  0.5853
 8745SOL    HW127134   4.814   2.685   0.186 -1.1538 -1.1297  0.8067
 8745SOL    HW227135   4.931   2.694   0.072 -1.4441  1.1198  0.6419
 8746SOL     OW27136   2.695   2.507   6.411  0.7051  0.2784 -0.0381
 8746SOL    HW127137   2.754   2.500   6.330  0.4971 -1.8426 -0.0751
 8746SOL    HW227138   2.640   2.423   6.419 -1.4162  1.6622  0.6980
 8747SOL     OW27139   0.335   6.186   0.782  0.7521 -0.5188  0.1125
 8747SOL    HW127140   0.312   6.154   0.690  0.2339  0.8721 -0.2592
 8747SOL    HW227141   0.276   6.263   0.807  3.1817  1.4683  0.1633
 8748SOL     OW27142   4.999   3.390   1.463  0.1642 -0.2631  0.0118
 8748SOL    HW127143   4.994   3.326   1.387 -1.0640  0.0621 -0.1927
 8748SOL    HW227144   4.957   3.477   1.437  2.1002  0.7778  0.1661
 8749SOL     OW27145   3.512   6.084   5.713 -0.0340 -0.3023 -0.2528
 8749SOL    HW127146   3.463   6.091   5.799  0.0164 -2.1067 -0.0342
 8749SOL    HW227147   3.478   6.005   5.662  1.3679 -0.4913 -0.9324
 8750SOL     OW27148   6.801   6.422   2.328 -0.3665  0.2790 -0.3721
 8750SOL    HW127149   6.897   6.442   2.348 -0.8274  0.3894  2.0723
 8750SOL    HW227150   6.784   6.324   2.336 -0.5487  0.3116 -0.3433
 8751SOL     OW27151   1.285   2.037   2.517 -0.0245 -0.0874 -0.6569
 8751SOL    HW127152   1.352   1.974   2.476 -0.3525 -0.3587 -0.7785
 8751SOL    HW227153   1.333   2.114   2.558  0.4783 -1.0027  0.5434
 8752SOL     OW27154   5.475   3.214   4.121 -0.0898  0.2605  0.1089
 8752SOL    HW127155   5.544   3.285   4.105 -1.2388  1.6363  1.0023
 8752SOL    HW227156   5.506   3.153   4.193  0.6298  0.2645 -0.1929
 8753SOL     OW27157   5.199   5.239   3.235 -0.2078  0.6023 -0.1808
 8753SOL    HW127158   5.297   5.222   3.242 -0.3913 -0.4041  0.1389
 8753SOL    HW227159   5.174   5.314   3.297  0.1328 -0.1324  0.8821
 8754SOL     OW27160   1.688   0.005   2.064 -0.3402 -0.0502 -0.3777
 8754SOL    HW127161   1.670   0.045   1.974 -0.2324  0.3153 -0.2359
 8754SOL    HW227162   1.601  -0.011   2.111 -0.3294  1.7693  0.3288
 8755SOL     OW27163   6.272   4.423   1.434 -0.5888  0.0262 -0.7618
 8755SOL    HW127164   6.327   4.343   1.457 -0.1209 -0.0221 -1.9586
 8755SOL    HW227165   6.194   4.394   1.379  0.0764  0.4658 -1.9834
 8756SOL     OW27166   2.674   6.781   6.591 -0.5240 -0.6261 -0.1757
 8756SOL    HW127167   2.735   6.859   6.577  0.2248 -1.3381 -1.0515
 8756SOL    HW227168   2.583   6.814   6.616 -0.0854  0.4981  0.0244
 8757SOL     OW27169   6.404   6.874   4.618  0.2121  0.1404  0.1439
 8757SOL    HW127170   6.350   6.792   4.597  0.2522  0.2644 -0.4782
 8757SOL    HW227171   6.445   6.908   4.534 -0.1484  1.0440  0.3303
 8758SOL     OW27172   0.616   5.695   4.245  0.8376  0.2786  0.1016
 8758SOL    HW127173   0.557   5.621   4.212  0.9442  0.7932 -1.3380
 8758SOL    HW227174   0.573   5.783   4.224  1.8914  0.6566 -0.5532
 8759SOL     OW27175   3.251   5.619   1.051  0.3737  0.3880 -0.5534
 8759SOL    HW127176   3.191   5.545   1.021 -0.0881  0.7576 -0.5565
 8759SOL    HW227177   3.335   5.581   1.089 -0.4586 -0.2018  0.7988
 8760SOL     OW27178   3.596   0.051   1.158 -0.8388 -0.2859  0.2460
 8760SOL    HW127179   3.504   0.046   1.117 -0.6029  1.5784 -0.5980
 8760SOL    HW227180   3.606  -0.022   1.226 -2.5096 -1.2682 -0.5012
 8761SOL     OW27181   6.781   1.496   5.532 -0.0568  0.5019  0.4725
 8761SOL    HW127182   6.850   1.506   5.460  0.0890  0.0550  0.5412
 8761SOL    HW227183   6.828   1.482   5.620 -0.2018  2.7914  0.9564
 8762SOL     OW27184   2.904   0.296   4.120 -0.3549  0.7778 -0.0149
 8762SOL    HW127185   2.923   0.378   4.066  1.4585 -0.0101 -0.6863
 8762SOL    HW227186   2.990   0.246   4.134 -1.5537 -1.6077 -0.6383
 8763SOL     OW27187   7.004   5.007   3.205  0.1612 -0.6957  0.2009
 8763SOL    HW127188   7.082   4.982   3.262 -0.3314 -0.4764  0.9937
 8763SOL    HW227189   6.919   4.989   3.256 -0.2686  2.5003  0.8349
 8764SOL     OW27190   1.495   3.929   4.485 -0.1133  0.5992  0.2890
 8764SOL    HW127191   1.531   4.009   4.438  0.2449  0.7754  0.8543
 8764SOL    HW227192   1.404   3.908   4.449  0.0975  0.8139 -0.3748
 8765SOL     OW27193   6.948   4.162   6.753  0.6320  0.1815  0.0637
 8765SOL    HW127194   6.985   4.114   6.833  3.0486 -1.3026 -1.8284
 8765SOL    HW227195   6.881   4.103   6.707 -1.8237  1.5695  1.6220
 8766SOL     OW27196   1.516   4.584   2.168  0.5317 -0.2196  0.3021
 8766SOL    HW127197   1.440   4.548   2.114 -0.0273  0.1764  0.8106
 8766SOL    HW227198   1.574   4.642   2.111 -0.4264  0.7397  0.2692
 8767SOL     OW27199   6.354   1.939   0.174  0.2849  0.1955 -0.3582
 8767SOL    HW127200   6.413   1.931   0.255 -0.6306  1.4989  0.4798
 8767SOL    HW227201   6.384   2.018   0.120 -0.3040  0.5069 -0.2377
 8768SOL     OW27202   3.276   0.437   6.266  0.0554  0.4749  0.1279
 8768SOL    HW127203   3.259   0.531   6.295 -1.4535  0.8223 -1.6520
 8768SOL    HW227204   3.212   0.376   6.311  0.3552  0.4416  0.5110
 8769SOL     OW27205   2.443   6.359   3.540  0.2251 -0.5021 -0.4003
 8769SOL    HW127206   2.451   6.272   3.491 -1.1493  0.7360 -3.0752
 8769SOL    HW227207   2.443   6.434   3.473 -0.0633  1.4663  1.7051
 8770SOL     OW27208   5.267   6.837   3.308  0.4077  0.2160  0.2355
 8770SOL    HW127209   5.261   6.900   3.231 -0.1042  0.1534  0.2223
 8770SOL    HW227210   5.363   6.819   3.329  0.5499 -0.3481 -0.8611
 8771SOL     OW27211   3.562   6.487   0.667 -0.0742 -0.0229 -0.2070
 8771SOL    HW127212   3.594   6.436   0.587  0.6449 -1.2808  0.8478
 8771SOL    HW227213   3.465   6.510   0.654  0.4359  1.3402 -2.1796
 8772SOL     OW27214   3.732   5.439   4.696  0.1013  0.4974  0.3343
 8772SOL    HW127215   3.806   5.443   4.629  0.4937 -1.1235  0.6059
 8772SOL    HW227216   3.765   5.392   4.778 -1.1322  0.0414  0.5924
 8773SOL     OW27217   6.663   4.374   0.491  0.0966 -0.0255  0.5604
 8773SOL    HW127218   6.682   4.286   0.447 -0.8496 -0.0408  0.1572
 8773SOL    HW227219   6.686   4.369   0.588 -1.9887 -1.4539  1.0425
 8774SOL     OW27220   2.655   5.140   5.895 -0.2123 -0.7780  0.3516
 8774SOL    HW127221   2.708   5.212   5.850 -1.4672 -0.3337 -0.4722
 8774SOL    HW227222   2.703   5.053   5.887  0.8061 -0.2308  0.3999
 8775SOL     OW27223   6.843   0.904   3.165  0.2461 -0.6225 -0.5145
 8775SOL    HW127224   6.909   0.978   3.158 -0.0798 -0.1945  0.6655
 8775SOL    HW227225   6.869   0.830   3.103  1.5726 -0.2738 -0.4005
 8776SOL     OW27226   1.108   3.355   6.398  0.0898  0.4057 -0.0357
 8776SOL    HW127227   1.061   3.350   6.310 -0.2705 -0.1873  0.1812
 8776SOL    HW227228   1.202   3.324   6.388  0.1505  0.6587 -0.2741
 8777SOL     OW27229   6.740   4.827   0.986 -0.1011 -0.8892  0.5526
 8777SOL    HW127230   6.811   4.792   0.925  0.1977 -0.8303  0.8593
 8777SOL    HW227231   6.768   4.811   1.081  1.0785  2.0298  0.8000
 8778SOL     OW27232   4.348   6.712   6.031  0.7432 -0.2889 -0.4033
 8778SOL    HW127233   4.267   6.768   6.012 -0.3357 -1.3139  0.9689
 8778SOL    HW227234   4.421   6.735   5.965  0.1671  2.3002 -0.2473
 8779SOL     OW27235   5.343   4.462   5.076  0.2170 -0.4195 -0.1536
 8779SOL    HW127236   5.307   4.529   5.011  2.6800  0.4745 -0.7272
 8779SOL    HW227237   5.267   4.413   5.119 -1.5351 -0.9840 -3.5615
 8780SOL     OW27238   1.348   2.986   3.836 -0.3620  0.6344 -0.3408
 8780SOL    HW127239   1.400   2.964   3.918 -0.1082 -1.6850 -1.0640
 8780SOL    HW227240   1.352   2.910   3.771 -0.0766  2.5960 -2.7958
 8781SOL     OW27241   1.287   6.491   2.267  0.3938  0.0617 -0.2343
 8781SOL    HW127242   1.241   6.456   2.185 -0.2095 -0.2263  0.2176
 8781SOL    HW227243   1.307   6.588   2.256  0.6189 -0.0528 -0.8578
 8782SOL     OW27244   2.228   3.998   0.040  0.1742  0.1227  0.3911
 8782SOL    HW127245   2.220   4.044  -0.048  0.2129  0.2354  0.4472
 8782SOL    HW227246   2.201   4.060   0.113 -0.3736 -0.1426  0.4181
 8783SOL     OW27247   3.807   6.169   6.555  0.0197 -0.3543  0.0582
 8783SOL    HW127248   3.755   6.160   6.470 -0.4790 -1.6956  0.4742
 8783SOL    HW227249   3.770   6.245   6.609 -0.4997 -0.3113 -0.3503
 8784SOL     OW27250   6.949   6.419   1.084  0.4775 -0.0962 -0.5355
 8784SOL    HW127251   6.874   6.391   1.145  0.0108  1.4693 -0.3326
 8784SOL    HW227252   7.037   6.402   1.129  0.1882 -0.3271 -0.0435
 8785SOL     OW27253   4.274   2.774   1.657  0.0910 -0.3451 -0.3030
 8785SOL    HW127254   4.249   2.678   1.654 -0.8574 -0.1185 -0.1786
 8785SOL    HW227255   4.366   2.784   1.696 -0.9396 -1.0217  2.5343
 8786SOL     OW27256   5.538   0.374   3.730 -0.7380 -0.2811  0.0414
 8786SOL    HW127257   5.563   0.346   3.638 -1.1271  0.9000 -0.4348
 8786SOL    HW227258   5.572   0.306   3.796  0.7800 -0.4086 -0.8396
 8787SOL     OW27259   3.600   3.890   0.266  0.1479  0.3928 -0.1096
 8787SOL    HW127260   3.691   3.925   0.244  0.0624  0.0439 -1.0576
 8787SOL    HW227261   3.531   3.945   0.219 -0.1996  1.2829  1.4010
 8788SOL     OW27262   2.201   2.384   5.338  0.3388  0.3112  0.2387
 8788SOL    HW127263   2.131   2.346   5.276  0.7367  0.0518 -0.0521
 8788SOL    HW227264   2.225   2.476   5.307  2.0192 -0.5644 -1.2320
 8789SOL     OW27265   1.628   4.481   3.269  0.5727 -0.2425  0.4831
 8789SOL    HW127266   1.529   4.484   3.255  0.1154 -2.3693  2.5406
 8789SOL    HW227267   1.670   4.423   3.199  0.2791  0.2311 -0.0836
 8790SOL     OW27268   1.237   4.615   3.945  0.3760  0.6434  0.0323
 8790SOL    HW127269   1.213   4.596   3.850  1.3887  1.5792 -0.4433
 8790SOL    HW227270   1.155   4.616   4.001 -0.2071 -0.2050 -0.7710
 8791SOL     OW27271   3.974   1.900   5.336  0.1340  0.5806 -0.4165
 8791SOL    HW127272   4.019   1.974   5.386 -0.9970 -0.8775  3.0372
 8791SOL    HW227273   4.042   1.851   5.281  2.1647  0.4211  2.0812
 8792SOL     OW27274   5.970   5.997   3.640  0.1377  0.3010  0.2462
 8792SOL    HW127275   5.972   6.006   3.740 -1.7376  0.6640  0.2874
 8792SOL    HW227276   5.879   5.969   3.611  0.9330 -0.8189 -1.3159
 8793SOL     OW27277   0.800   4.952   2.140 -0.1404  0.2951  0.0271
 8793SOL    HW127278   0.776   5.007   2.060  3.2544  0.7541 -0.8528
 8793SOL    HW227279   0.824   5.013   2.216 -0.4598 -0.0865  0.4397
 8794SOL     OW27280   5.826   3.357   4.918 -0.6456 -0.3562 -0.3364
 8794SOL    HW127281   5.785   3.431   4.866 -2.0395  0.1568  1.4176
 8794SOL    HW227282   5.900   3.393   4.976 -0.4251 -0.5791 -0.4735
 8795SOL     OW27283   3.648   1.037   1.571 -0.2631 -0.5727  0.0316
 8795SOL    HW127284   3.633   0.941   1.548  0.7492 -0.7748  0.1751
 8795SOL    HW227285   3.730   1.070   1.525  0.2706 -0.2173  1.1940
 8796SOL     OW27286   3.558   0.879   4.637  0.6106  0.5662 -0.0887
 8796SOL    HW127287   3.650   0.916   4.654  1.0042 -0.7208  0.6905
 8796SOL    HW227288   3.528   0.827   4.716 -0.0997 -0.4379 -0.9965
 8797SOL     OW27289   4.045   4.741   2.473 -0.0079  0.3262 -0.1692
 8797SOL    HW127290   4.128   4.711   2.425  1.1967  0.5335  1.6593
 8797SOL    HW227291   4.071   4.778   2.563 -1.9110  2.2296 -0.3232
 8798SOL     OW27292   6.399   2.812   6.125  0.7048  0.3044 -0.2754
 8798SOL    HW127293   6.312   2.859   6.136  0.7654  0.4709 -0.4952
 8798SOL    HW227294   6.425   2.811   6.028 -0.7778 -2.8292 -0.7610
 8799SOL     OW27295   6.924   6.630   4.790 -0.2284 -0.2585 -0.2737
 8799SOL    HW127296   6.871   6.556   4.750  1.1015 -1.2337 -0.3292
 8799SOL    HW227297   7.004   6.592   4.837  0.5866  1.1503 -0.4397
 8800SOL     OW27298   3.536   4.211   1.090  0.6488  0.2020 -0.2643
 8800SOL    HW127299   3.553   4.310   1.086  1.0192  0.1512 -0.0901
 8800SOL    HW227300   3.457   4.188   1.035  0.0939  0.7016  0.3051
 8801SOL     OW27301   3.511   4.893   6.695  0.6497  0.4815 -0.2129
 8801SOL    HW127302   3.550   4.881   6.786 -1.4259 -0.9939  0.5540
 8801SOL    HW227303   3.540   4.817   6.636 -0.8271 -0.5194  0.3062
 8802SOL     OW27304   2.380   5.810   4.437 -0.1044 -0.5151  0.5682
 8802SOL    HW127305   2.308   5.807   4.506 -0.4508  0.9599  0.3082
 8802SOL    HW227306   2.460   5.858   4.474 -0.2486  0.1865  0.0028
 8803SOL     OW27307   2.145   4.925   1.343 -0.5826  0.2672  0.3366
 8803SOL    HW127308   2.183   4.903   1.434  0.5375  1.3939  0.1630
 8803SOL    HW227309   2.191   5.005   1.306 -2.4340  1.0408 -0.3820
 8804SOL     OW27310   5.016   1.184   5.678  0.1770 -0.1856  0.5852
 8804SOL    HW127311   5.044   1.280   5.690  0.5114 -0.4323  1.9199
 8804SOL    HW227312   4.997   1.167   5.581  1.8559  0.7662  0.0414
 8805SOL     OW27313   4.365   5.325   5.733  0.3373 -0.4311  0.2080
 8805SOL    HW127314   4.356   5.413   5.687 -0.7332 -0.4874  0.2931
 8805SOL    HW227315   4.293   5.263   5.701 -0.1023 -0.6410  1.5508
 8806SOL     OW27316   5.639   6.814   6.323 -0.0571  0.3508  0.1119
 8806SOL    HW127317   5.586   6.869   6.259  1.9312  1.2297 -0.8840
 8806SOL    HW227318   5.727   6.859   6.341 -0.4595  0.0854  3.4102
 8807SOL     OW27319   2.017   0.630   6.746 -0.4523  0.2732 -0.3758
 8807SOL    HW127320   2.054   0.703   6.689 -1.7085  0.0063 -1.6172
 8807SOL    HW227321   1.988   0.667   6.834  1.2524  0.7607  0.0062
 8808SOL     OW27322   4.349   6.760   2.847  0.0077 -0.1460 -0.4799
 8808SOL    HW127323   4.340   6.859   2.836 -0.0640 -0.2482 -1.3876
 8808SOL    HW227324   4.440   6.731   2.816 -0.9768 -0.7301 -3.0135
 8809SOL     OW27325   5.761   1.277   6.484  0.1604  0.1835  0.3023
 8809SOL    HW127326   5.840   1.215   6.484 -0.5392 -0.7479  0.1222
 8809SOL    HW227327   5.781   1.357   6.427  0.4488 -0.7650 -0.9857
 8810SOL     OW27328   6.348   4.090   6.682 -0.0848  0.0877 -0.1856
 8810SOL    HW127329   6.443   4.117   6.674 -0.1759  0.5426  0.2110
 8810SOL    HW227330   6.297   4.120   6.601 -0.0990  0.7254  0.0625
 8811SOL     OW27331   6.560   2.768   1.132 -0.3618 -0.6660  0.6027
 8811SOL    HW127332   6.475   2.798   1.088  0.6065  1.4161  0.0221
 8811SOL    HW227333   6.600   2.845   1.182  1.8301 -1.2377 -0.1781
 8812SOL     OW27334   0.195   0.245   4.158 -0.5768  0.3232  0.7219
 8812SOL    HW127335   0.211   0.159   4.110 -0.0902 -0.0404  1.5176
 8812SOL    HW227336   0.260   0.314   4.125  0.5119 -0.2425  1.6395
 8813SOL     OW27337   0.059   2.839   0.491  0.0313  0.2733  0.5137
 8813SOL    HW127338   0.071   2.926   0.442 -0.3741 -0.4506 -0.9346
 8813SOL    HW227339   0.148   2.794   0.500  0.0856  0.3386  0.3087
 8814SOL     OW27340   3.337   4.927   4.360 -0.1439 -0.4203 -0.2383
 8814SOL    HW127341   3.390   4.942   4.277 -0.5103 -0.7240 -0.5305
 8814SOL    HW227342   3.275   4.849   4.347  0.2132 -0.8423  0.5217
 8815SOL     OW27343   5.876   4.181   3.383 -0.0717  0.5588  0.5542
 8815SOL    HW127344   5.972   4.156   3.382 -0.7078 -2.1362  0.1648
 8815SOL    HW227345   5.846   4.200   3.289 -0.3374 -0.5012  0.4124
 8816SOL     OW27346   0.654   2.028   6.387  0.3015 -0.0448 -0.0919
 8816SOL    HW127347   0.716   2.082   6.331  0.0610 -0.1931 -0.5063
 8816SOL    HW227348   0.658   1.932   6.359 -0.5510  0.0330 -0.5373
 8817SOL     OW27349   1.367   0.090   6.470  0.2758 -0.0459  0.0088
 8817SOL    HW127350   1.454   0.075   6.517 -0.4455  0.3889  1.5785
 8817SOL    HW227351   1.324   0.173   6.507 -1.2733 -0.8182  0.0166
 8818SOL     OW27352   5.177   6.576   5.178 -0.0598 -0.0691 -0.3724
 8818SOL    HW127353   5.127   6.491   5.189  2.7176 -1.7940 -0.3153
 8818SOL    HW227354   5.176   6.602   5.081  0.2195 -0.9159 -0.6096
 8819SOL     OW27355   2.610   1.367   4.231 -0.5372 -0.0075 -0.1886
 8819SOL    HW127356   2.690   1.317   4.264 -0.5219  0.8044  1.0897
 8819SOL    HW227357   2.538   1.363   4.301 -0.4651  1.8984  0.0368
 8820SOL     OW27358   6.259   4.950   2.110  0.4109  0.6131  0.1022
 8820SOL    HW127359   6.273   4.853   2.091  1.1988  0.1666  2.6123
 8820SOL    HW227360   6.163   4.973   2.094 -0.1983 -1.0376  1.1901
 8821SOL     OW27361   5.806   3.791   1.755  0.0911  0.3870  0.3108
 8821SOL    HW127362   5.735   3.776   1.686  0.1611 -0.2633  0.3713
 8821SOL    HW227363   5.871   3.715   1.752  0.4377  0.6665  0.6789
 8822SOL     OW27364   6.496   1.274   6.893  1.0242 -0.2079  0.2269
 8822SOL    HW127365   6.423   1.209   6.913  1.9469 -1.2591  0.2773
 8822SOL    HW227366   6.458   1.366   6.887 -0.2679 -0.7085  0.4262
 8823SOL     OW27367   1.973   1.103   4.683  0.7562  0.0651  0.3084
 8823SOL    HW127368   1.933   1.146   4.602  1.7604  1.2610  0.4053
 8823SOL    HW227369   2.064   1.068   4.660  0.9066  0.1122  0.8310
 8824SOL     OW27370   2.518   0.577   6.521  0.1948 -0.4528 -0.2299
 8824SOL    HW127371   2.613   0.608   6.532  1.0575 -3.2976  1.3429
 8824SOL    HW227372   2.476   0.625   6.444  2.9887  0.6760 -1.1725
 8825SOL     OW27373   1.426   2.640   1.257 -0.1878  0.5832 -0.2768
 8825SOL    HW127374   1.327   2.630   1.259 -0.1038 -0.4431 -0.8607
 8825SOL    HW227375   1.465   2.599   1.339 -0.0461 -1.8153 -1.4524
 8826SOL     OW27376   1.776   4.679   6.558 -0.1831 -0.3607  0.3142
 8826SOL    HW127377   1.719   4.689   6.639  0.8648 -0.6939  1.1292
 8826SOL    HW227378   1.793   4.582   6.541 -0.4142 -0.2925 -0.3169
 8827SOL     OW27379   4.805   6.119   0.642  0.2921 -0.0114 -0.3659
 8827SOL    HW127380   4.730   6.161   0.692  0.5785 -1.1048  1.0698
 8827SOL    HW227381   4.891   6.163   0.669  0.4481 -0.6122  0.1590
 8828SOL     OW27382   0.679   1.059   5.504 -0.2606 -0.4689 -0.5186
 8828SOL    HW127383   0.646   1.091   5.414 -0.0709  0.6348 -0.2182
 8828SOL    HW227384   0.753   1.119   5.535 -0.8910 -0.3130  0.7548
 8829SOL     OW27385   3.740   6.347   0.493  0.4365 -0.3283  0.2641
 8829SOL    HW127386   3.821   6.406   0.488  1.0510 -1.2435 -2.5446
 8829SOL    HW227387   3.769   6.251   0.495 -0.5225 -0.6947 -1.4512
 8830SOL     OW27388   2.444   2.254   5.880 -0.5986  0.6707  0.2815
 8830SOL    HW127389   2.440   2.315   5.959 -0.6989  0.2684  0.5859
 8830SOL    HW227390   2.362   2.265   5.825 -1.6254 -0.7292  1.4780
 8831SOL     OW27391   2.887   2.064   5.814  0.3113 -0.3154 -1.0372
 8831SOL    HW127392   2.976   2.055   5.768  1.2038 -0.4478  0.6243
 8831SOL    HW227393   2.824   2.113   5.755  1.3471 -0.6067 -2.4481
 8832SOL     OW27394   6.920   0.423   6.163  0.3480 -1.3145  0.7555
 8832SOL    HW127395   7.019   0.419   6.169  0.4044 -1.1895 -0.0267
 8832SOL    HW227396   6.893   0.448   6.070 -0.4110 -1.1923  1.0024
 8833SOL     OW27397   4.060   3.184   4.754  0.1087 -0.0316  0.0437
 8833SOL    HW127398   4.027   3.255   4.816 -3.0997 -1.1486 -0.1967
 8833SOL    HW227399   4.155   3.162   4.777  0.1039  1.8730  2.3671
 8834SOL     OW27400   0.299   6.801   5.687  0.3376 -0.0845 -0.6523
 8834SOL    HW127401   0.277   6.761   5.776 -0.7716 -0.7259 -1.1921
 8834SOL    HW227402   0.350   6.734   5.632  1.0587  0.3257 -0.4932
 8835SOL     OW27403   4.976   6.606   1.301 -0.4308 -0.3060 -0.2767
 8835SOL    HW127404   5.016   6.520   1.333 -0.4343 -0.8610 -1.6701
 8835SOL    HW227405   4.918   6.644   1.372 -2.0953 -2.5544 -0.3204
 8836SOL     OW27406   3.317   5.229   1.107  0.0759 -0.3124 -0.2072
 8836SOL    HW127407   3.367   5.297   1.160 -1.4991  0.3037  0.5758
 8836SOL    HW227408   3.332   5.243   1.009  1.6096 -0.3365  0.0079
 8837SOL     OW27409   5.100   4.051   2.464 -0.4140 -0.5162  0.3933
 8837SOL    HW127410   5.152   4.088   2.386 -0.6640  0.9619  0.8854
 8837SOL    HW227411   5.003   4.073   2.452 -0.5639 -0.9848  0.7350
 8838SOL     OW27412   4.010   0.533   6.058 -0.0685 -0.4634  0.6314
 8838SOL    HW127413   4.040   0.608   5.999  0.3482 -0.6707  0.5818
 8838SOL    HW227414   3.931   0.564   6.112 -1.1322 -0.6091 -0.7744
 8839SOL     OW27415   0.805   0.372   6.828  0.0942  0.5109  0.3645
 8839SOL    HW127416   0.890   0.397   6.873 -0.8762 -0.0479  2.6277
 8839SOL    HW227417   0.730   0.376   6.893 -1.3121 -0.8598 -1.0806
 8840SOL     OW27418   0.697   4.821   6.284 -0.2328  0.1227  0.1782
 8840SOL    HW127419   0.660   4.742   6.235  0.9656  0.0229 -0.5922
 8840SOL    HW227420   0.643   4.902   6.261 -0.5437 -0.1878 -0.2085
 8841SOL     OW27421   5.705   3.067   5.356  0.4698  0.2965 -0.2340
 8841SOL    HW127422   5.694   3.066   5.256 -0.3652 -1.6344 -0.1629
 8841SOL    HW227423   5.698   3.161   5.389 -0.7646  0.8189 -1.8332
 8842SOL     OW27424   1.088   6.126   4.558 -0.0333 -0.6835 -0.0648
 8842SOL    HW127425   1.004   6.089   4.597  0.2948 -0.4329  0.9013
 8842SOL    HW227426   1.095   6.224   4.578  0.9319 -0.8873  0.6943
 8843SOL     OW27427   1.234   6.391   3.529  0.4817  0.8126  0.1989
 8843SOL    HW127428   1.193   6.393   3.620  1.5184  0.0136  0.7064
 8843SOL    HW227429   1.323   6.436   3.531 -0.5997  3.1545 -1.0498
 8844SOL     OW27430   5.424   4.854   3.127 -0.1732 -0.1210  0.2059
 8844SOL    HW127431   5.513   4.840   3.084  0.1458  1.3126  0.3375
 8844SOL    HW227432   5.369   4.915   3.070 -1.2289 -1.2841 -0.0565
 8845SOL     OW27433   0.162   0.162   0.208 -0.1032  0.4665  0.3320
 8845SOL    HW127434   0.202   0.152   0.299 -0.3006  1.1115  0.4876
 8845SOL    HW227435   0.190   0.249   0.168  0.8658 -0.2602 -0.6686
 8846SOL     OW27436   0.597   1.190   3.315 -0.6119 -0.5913 -0.2116
 8846SOL    HW127437   0.571   1.099   3.345  0.7544 -0.7929  0.4145
 8846SOL    HW227438   0.635   1.186   3.223 -0.5769 -0.6391 -0.1944
 8847SOL     OW27439   2.514   0.028   3.063  0.6741 -0.7804 -0.1885
 8847SOL    HW127440   2.489   0.113   3.016  0.8940 -1.6310 -1.9331
 8847SOL    HW227441   2.539   0.048   3.157  0.6769  1.0863 -0.5452
 8848SOL     OW27442   1.711   2.068   1.084  0.5745  0.0353  0.2604
 8848SOL    HW127443   1.663   2.153   1.103 -2.7075 -1.4551 -0.4944
 8848SOL    HW227444   1.648   2.005   1.037  2.3492 -3.3278  2.0616
 8849SOL     OW27445   6.383   6.992   2.396  0.0498  0.2662 -0.6258
 8849SOL    HW127446   6.340   6.902   2.393  0.9310 -0.1791 -0.3927
 8849SOL    HW227447   6.437   7.000   2.480  0.2292  0.8862 -0.7983
 8850SOL     OW27448   6.972   0.055   5.523 -0.3082  0.1831  0.8350
 8850SOL    HW127449   6.884   0.100   5.535 -0.6330 -0.5338  1.1917
 8850SOL    HW227450   7.001   0.013   5.609 -0.3707 -0.9058  0.3499
 8851SOL     OW27451   0.785   6.175   0.587 -0.1745 -0.0266 -0.0205
 8851SOL    HW127452   0.802   6.239   0.662 -1.5196 -1.7196  1.8353
 8851SOL    HW227453   0.788   6.081   0.622 -1.0298 -0.8719 -2.0688
 8852SOL     OW27454   6.465   1.467   4.285 -0.7111  0.4821 -0.0042
 8852SOL    HW127455   6.422   1.386   4.326  1.8066  0.3230  2.6736
 8852SOL    HW227456   6.524   1.438   4.210  1.3101 -0.5539  1.8395
 8853SOL     OW27457   1.536   1.914   0.961 -0.2819  0.4556 -0.3683
 8853SOL    HW127458   1.462   1.981   0.950 -1.0606 -0.4089 -0.5426
 8853SOL    HW227459   1.506   1.826   0.924  0.3577 -0.2496  0.7640
 8854SOL     OW27460   2.138   5.881   1.682 -0.3979 -0.4064  0.1082
 8854SOL    HW127461   2.181   5.839   1.602 -0.6083  0.1664 -0.3140
 8854SOL    HW227462   2.121   5.978   1.664 -3.1862 -0.9059 -0.2969
 8855SOL     OW27463   1.661   3.988   1.796 -0.0756 -0.0027 -0.0504
 8855SOL    HW127464   1.758   3.966   1.785  0.4106  1.4082  0.9971
 8855SOL    HW227465   1.630   4.043   1.718  0.1584  0.0836 -0.0846
 8856SOL     OW27466   0.677   6.425   6.790  0.0399  0.1972 -0.6011
 8856SOL    HW127467   0.662   6.489   6.866 -1.6889 -1.5638  0.6173
 8856SOL    HW227468   0.604   6.436   6.722  2.5191  3.0313 -3.0991
 8857SOL     OW27469   6.132   5.609   6.415  0.1618 -0.0788  0.0738
 8857SOL    HW127470   6.105   5.587   6.510  1.8447 -0.7011  0.4419
 8857SOL    HW227471   6.208   5.674   6.416  0.4351 -0.3717 -0.8400
 8858SOL     OW27472   1.820   4.872   0.914  0.2641 -0.3615  0.0041
 8858SOL    HW127473   1.782   4.877   1.007 -0.0998 -1.4017 -0.0769
 8858SOL    HW227474   1.891   4.802   0.910  1.6245  0.9576 -0.0703
 8859SOL     OW27475   1.987   5.463   1.759 -0.1900  0.0043  0.0943
 8859SOL    HW127476   2.074   5.431   1.797 -0.1724 -0.3220 -0.2242
 8859SOL    HW227477   1.953   5.539   1.814 -0.1580 -0.4599  0.7723
 8860SOL     OW27478   2.920   0.424   3.848  0.0710  0.1572 -0.3132
 8860SOL    HW127479   2.930   0.327   3.868  0.8154  0.3134  0.1098
 8860SOL    HW227480   3.010   0.464   3.827  0.0887  1.1752  1.5052
 8861SOL     OW27481   2.646   6.551   4.317  0.0150 -0.2135 -0.2995
 8861SOL    HW127482   2.651   6.482   4.245 -0.1898  0.6587 -1.1745
 8861SOL    HW227483   2.629   6.641   4.276  0.1051  0.3363  0.8252
 8862SOL     OW27484   2.117   4.647   6.994  0.0765  0.2284  0.0915
 8862SOL    HW127485   2.114   4.583   7.071 -0.4238  1.3531  1.0540
 8862SOL    HW227486   2.053   4.617   6.923  0.0672 -0.4905  0.3914
 8863SOL     OW27487   2.230   6.008   3.854  0.7188 -0.1758 -0.7326
 8863SOL    HW127488   2.290   6.031   3.931  0.3551  1.3823 -0.8649
 8863SOL    HW227489   2.176   5.927   3.877  0.4746  0.3697  0.7656
 8864SOL     OW27490   6.107   4.632   0.141 -0.2036  0.5157  0.1161
 8864SOL    HW127491   6.205   4.638   0.158 -0.3016  0.1663  0.8576
 8864SOL    HW227492   6.059   4.625   0.228 -0.7348 -1.5087 -0.2820
 8865SOL     OW27493   5.156   5.474   2.616 -0.0867 -0.5484  0.4919
 8865SOL    HW127494   5.143   5.535   2.693 -0.4354  0.0814 -0.0551
 8865SOL    HW227495   5.132   5.521   2.531  0.0176 -1.3148  0.0215
 8866SOL     OW27496   2.855   6.023   0.550 -0.4263  0.1201 -0.4459
 8866SOL    HW127497   2.937   6.040   0.495 -2.1969  2.5238 -2.5815
 8866SOL    HW227498   2.827   5.928   0.538  1.2470 -0.3745 -0.7739
 8867SOL     OW27499   6.293   0.900   2.730 -0.1904 -0.2335 -0.2836
 8867SOL    HW127500   6.303   0.816   2.677 -1.0219 -0.6031  0.1310
 8867SOL    HW227501   6.268   0.878   2.824  0.4425  0.4502  0.0647
 8868SOL     OW27502   5.523   1.894   5.158 -0.0282 -0.2962  0.3633
 8868SOL    HW127503   5.513   1.922   5.254  0.6535 -0.1929  0.4092
 8868SOL    HW227504   5.577   1.810   5.153 -0.2882 -0.4482  0.0854
 8869SOL     OW27505   3.073   1.131   2.043 -0.2959  0.5765  0.0364
 8869SOL    HW127506   3.077   1.227   2.072  1.0111  0.5691 -0.0801
 8869SOL    HW227507   3.117   1.074   2.112  0.0174  0.1959 -0.4801
 8870SOL     OW27508   1.132   3.596   1.055  0.1237  0.7703 -0.4331
 8870SOL    HW127509   1.127   3.590   1.154 -1.7198  1.3555 -0.4567
 8870SOL    HW227510   1.059   3.542   1.014 -0.0551  1.7100 -1.4124
 8871SOL     OW27511   6.709   6.448   6.168  0.0738 -0.1361  0.1514
 8871SOL    HW127512   6.672   6.510   6.237 -0.6929  1.0694 -1.2644
 8871SOL    HW227513   6.656   6.457   6.084  1.4374 -0.9909 -0.8443
 8872SOL     OW27514   1.166   4.975   0.438 -0.7784  0.0148  0.1177
 8872SOL    HW127515   1.201   4.905   0.376 -1.2986 -0.3221  0.1996
 8872SOL    HW227516   1.203   4.959   0.530 -0.7188 -0.0187  0.0881
 8873SOL     OW27517   3.197   1.061   2.496 -0.3682  0.4870 -0.0470
 8873SOL    HW127518   3.129   1.086   2.427  0.0451  1.4692 -0.1024
 8873SOL    HW227519   3.280   1.114   2.483 -0.7052  1.6212  1.9582
 8874SOL     OW27520   5.623   1.286   6.161 -0.2992  0.2231  0.8256
 8874SOL    HW127521   5.603   1.323   6.252  0.6430 -0.0772  1.1679
 8874SOL    HW227522   5.655   1.359   6.101  2.0437 -0.0392  1.6429
 8875SOL     OW27523   5.489   3.404   3.739 -0.1535  0.2126  0.0813
 8875SOL    HW127524   5.540   3.318   3.739  0.5920  0.6356 -0.6204
 8875SOL    HW227525   5.396   3.388   3.707  0.1576 -0.2454 -0.6394
 8876SOL     OW27526   3.439   1.093   1.289 -0.0740  0.0994 -0.1832
 8876SOL    HW127527   3.388   1.172   1.253 -0.0192  0.3800  0.3401
 8876SOL    HW227528   3.429   1.015   1.228 -1.6044 -0.0232  0.1999
 8877SOL     OW27529   1.378   6.789   3.104 -0.3493 -0.2411 -0.1294
 8877SOL    HW127530   1.375   6.834   3.193  0.6452 -0.3317 -0.0414
 8877SOL    HW227531   1.453   6.724   3.102  1.9890  2.2906 -2.2019
 8878SOL     OW27532   4.807   0.692   6.782 -0.4727 -0.1796 -0.2221
 8878SOL    HW127533   4.735   0.759   6.761  0.7652  1.1756 -0.3066
 8878SOL    HW227534   4.839   0.707   6.875 -1.0914 -1.5638  0.2332
 8879SOL     OW27535   0.865   1.662   3.137 -0.1455  0.4666 -0.1876
 8879SOL    HW127536   0.826   1.745   3.176  0.1561  0.2468  0.5959
 8879SOL    HW227537   0.965   1.668   3.138 -0.1259  0.6212 -1.3032
 8880SOL     OW27538   3.779   6.700   1.424 -0.3021  0.3279  0.1360
 8880SOL    HW127539   3.843   6.762   1.469  1.2955 -1.8943  1.1142
 8880SOL    HW227540   3.794   6.606   1.457 -1.1851 -0.9453 -2.7205
 8881SOL     OW27541   3.656   3.198   6.926 -0.1904 -1.2752  0.5529
 8881SOL    HW127542   3.634   3.263   6.854 -0.9892 -2.3392 -0.1964
 8881SOL    HW227543   3.670   3.247   7.012  2.2171  0.1614 -0.5716
 8882SOL     OW27544   4.960   2.176   5.210  0.4078  0.7273  0.6556
 8882SOL    HW127545   4.895   2.109   5.174  0.3155  1.2036 -0.0922
 8882SOL    HW227546   4.942   2.191   5.307 -0.9079  1.1717  0.3683
 8883SOL     OW27547   6.106   5.551   3.088 -0.1275 -0.6952  0.2051
 8883SOL    HW127548   6.036   5.595   3.144  0.7481  0.0534  0.7315
 8883SOL    HW227549   6.195   5.591   3.107  0.3043 -0.8872 -1.2429
 8884SOL     OW27550   0.419   6.808   6.863  0.2761 -0.2770 -0.2211
 8884SOL    HW127551   0.326   6.775   6.853  0.1368 -0.0181  0.1592
 8884SOL    HW227552   0.421   6.881   6.932  0.6622  0.1131 -0.6346
 8885SOL     OW27553   4.664   4.604   0.075  0.3656  0.6792 -0.1667
 8885SOL    HW127554   4.674   4.580   0.172  3.4282 -2.1048 -0.9655
 8885SOL    HW227555   4.581   4.562   0.038  0.6053 -0.5986  0.6825
 8886SOL     OW27556   5.364   1.326   6.879  0.2852 -0.3899 -0.1912
 8886SOL    HW127557   5.365   1.254   6.809  0.3962  0.6334 -1.2753
 8886SOL    HW227558   5.318   1.407   6.843  2.2079  0.9040  0.1319
 8887SOL     OW27559   5.013   2.366   1.853  0.2704 -0.5344  0.1355
 8887SOL    HW127560   5.046   2.345   1.945  2.4212  0.2283 -0.3882
 8887SOL    HW227561   4.966   2.455   1.854  2.9217  0.9910  0.0808
 8888SOL     OW27562   3.489   6.740   5.720  0.5197  0.3032  0.6068
 8888SOL    HW127563   3.445   6.653   5.698  0.4523  0.6909 -0.9008
 8888SOL    HW227564   3.436   6.815   5.680  2.0244  0.8495 -0.4580
 8889SOL     OW27565   5.405   4.123   0.070 -0.0238 -0.3631 -0.5386
 8889SOL    HW127566   5.357   4.193   0.123  0.0257 -0.9273  0.2550
 8889SOL    HW227567   5.384   4.135  -0.027 -1.3677 -0.2896 -0.2566
 8890SOL     OW27568   1.633   0.449   4.190  0.0116  0.6392 -0.1618
 8890SOL    HW127569   1.694   0.380   4.229 -0.8511  0.5663  1.1317
 8890SOL    HW227570   1.546   0.448   4.240 -0.8821  1.0615 -1.6583
 8891SOL     OW27571   6.510   2.529   5.684  0.1162  0.0431 -0.2682
 8891SOL    HW127572   6.462   2.479   5.612 -0.7331 -0.9487  0.9515
 8891SOL    HW227573   6.607   2.537   5.660 -0.3110  0.6166 -1.9716
 8892SOL     OW27574   1.352   3.044   5.171 -0.2113  0.3594  0.3818
 8892SOL    HW127575   1.415   3.053   5.094 -0.9199  0.5550 -0.1973
 8892SOL    HW227576   1.355   2.950   5.207 -0.1187  0.1721 -0.1107
 8893SOL     OW27577   3.714   0.660   3.687  0.2480 -0.2152 -0.1641
 8893SOL    HW127578   3.718   0.580   3.747  0.1501 -0.6739 -0.7623
 8893SOL    HW227579   3.727   0.632   3.592 -2.8092  0.0289 -0.7605
 8894SOL     OW27580   6.902   0.517   2.813 -0.3159 -0.0244  0.0745
 8894SOL    HW127581   6.976   0.570   2.772 -1.6467  2.2505  0.4542
 8894SOL    HW227582   6.937   0.428   2.842  1.7505  0.1577 -1.6110
 8895SOL     OW27583   1.213   4.239   6.170 -0.1937  0.4958  0.3753
 8895SOL    HW127584   1.190   4.225   6.074  1.2034  1.3896 -0.1350
 8895SOL    HW227585   1.130   4.237   6.226 -0.9542 -0.6882 -0.7487
 8896SOL     OW27586   0.410   0.492   6.015  0.2371  0.1656  0.0574
 8896SOL    HW127587   0.460   0.444   5.942  0.5943  0.6009  0.0072
 8896SOL    HW227588   0.473   0.553   6.063  0.2211 -0.7839  1.3368
 8897SOL     OW27589   6.494   3.083   3.498 -0.3046  0.6640 -0.2134
 8897SOL    HW127590   6.484   3.179   3.527  0.5263  0.3876  1.0476
 8897SOL    HW227591   6.417   3.030   3.535 -1.0229  0.9019 -1.3028
 8898SOL     OW27592   0.226   4.622   6.387  0.1324 -0.6003  0.2870
 8898SOL    HW127593   0.138   4.620   6.338 -0.1494  1.0311  0.6677
 8898SOL    HW227594   0.218   4.567   6.470 -0.5901 -0.3440  0.4004
 8899SOL     OW27595   2.056   5.956   5.112  0.0292 -0.3774 -0.1231
 8899SOL    HW127596   2.048   5.888   5.040  1.0509  0.6214 -1.2322
 8899SOL    HW227597   1.997   5.931   5.189 -1.7075 -1.0591 -1.6026
 8900SOL     OW27598   5.986   2.775   4.802  0.4495 -0.2196  0.1435
 8900SOL    HW127599   6.037   2.801   4.884  1.2883  0.6835 -0.6296
 8900SOL    HW227600   6.026   2.692   4.763  0.1570 -0.5528  0.5441
 8901SOL     OW27601   1.209   1.283   3.154 -0.0616 -0.1613 -0.5727
 8901SOL    HW127602   1.125   1.332   3.180  1.1947  2.1021 -0.5673
 8901SOL    HW227603   1.239   1.314   3.064 -0.4939 -2.7396 -1.6693
 8902SOL     OW27604   4.264   6.609   1.396 -0.7717 -0.0466  0.5308
 8902SOL    HW127605   4.223   6.612   1.305  1.3163  0.6107 -0.4470
 8902SOL    HW227606   4.240   6.523   1.441 -0.1178 -1.3373 -1.4847
 8903SOL     OW27607   7.008   5.418   3.129  0.0537 -0.2618 -0.5101
 8903SOL    HW127608   6.974   5.459   3.044  1.0229 -2.0674 -1.8271
 8903SOL    HW227609   6.936   5.360   3.168 -0.1829  0.0912 -0.4133
 8904SOL     OW27610   2.089   4.795   2.301 -0.6830  0.4220 -0.1210
 8904SOL    HW127611   2.145   4.814   2.382 -0.1921  0.8270 -0.5457
 8904SOL    HW227612   1.996   4.831   2.316 -0.2786  1.5318 -0.1773
 8905SOL     OW27613   5.541   0.622   3.893 -0.5275 -0.4025  0.5239
 8905SOL    HW127614   5.540   0.547   3.827 -0.1005 -1.5345  1.7494
 8905SOL    HW227615   5.624   0.616   3.949  0.1850  1.7837 -0.2004
 8906SOL     OW27616   5.647   1.508   3.687  0.0555 -0.3712  0.0189
 8906SOL    HW127617   5.745   1.499   3.705  0.4340 -1.5332 -2.2637
 8906SOL    HW227618   5.621   1.449   3.610 -2.5665 -0.5111  0.9067
 8907SOL     OW27619   3.325   5.754   3.197 -0.2043  0.4094  0.1023
 8907SOL    HW127620   3.265   5.816   3.246 -0.2485  0.5020 -0.0695
 8907SOL    HW227621   3.416   5.795   3.188 -0.1052  0.2605  0.3811
 8908SOL     OW27622   3.766   1.197   1.815  0.7746  0.0008  0.2445
 8908SOL    HW127623   3.707   1.271   1.848 -0.1510 -0.3557 -0.5781
 8908SOL    HW227624   3.832   1.173   1.887 -0.5427 -0.0886  1.4697
 8909SOL     OW27625   1.231   5.941   1.961  0.0282 -0.1734 -0.0811
 8909SOL    HW127626   1.227   5.896   2.050 -1.3511 -0.0811 -0.0787
 8909SOL    HW227627   1.163   5.900   1.900 -1.7369  2.2295  0.1141
 8910SOL     OW27628   4.565   2.731   5.303  0.3169 -0.7005  0.0708
 8910SOL    HW127629   4.476   2.767   5.331 -0.0187  0.2393 -2.0231
 8910SOL    HW227630   4.572   2.635   5.330 -2.0388 -1.3004 -1.1036
 8911SOL     OW27631   0.174   0.110   6.573  0.1032  0.0540 -0.0320
 8911SOL    HW127632   0.248   0.083   6.511  0.7691 -1.8426  1.5009
 8911SOL    HW227633   0.126   0.029   6.605 -0.1321  0.9303  2.0233
 8912SOL     OW27634   6.377   1.213   2.270 -0.4337  0.3485  0.2005
 8912SOL    HW127635   6.404   1.136   2.213 -0.3586 -0.6926  1.5962
 8912SOL    HW227636   6.428   1.210   2.356  2.2613  3.9313 -0.9957
 8913SOL     OW27637   1.042   6.587   5.098 -0.2777 -0.1644 -0.7723
 8913SOL    HW127638   1.056   6.499   5.143 -0.6095  0.1702 -0.0032
 8913SOL    HW227639   1.051   6.661   5.165 -0.0800  0.3884 -1.3939
 8914SOL     OW27640   5.674   0.633   6.390 -0.2880 -0.0753 -0.3945
 8914SOL    HW127641   5.767   0.633   6.428 -0.3892 -0.3710 -0.1422
 8914SOL    HW227642   5.618   0.568   6.441 -0.9962  1.0582  0.3208
 8915SOL     OW27643   6.940   4.398   3.022 -0.2435 -0.6297 -0.1713
 8915SOL    HW127644   6.873   4.436   2.958  1.6961  1.3054 -1.2000
 8915SOL    HW227645   6.978   4.472   3.077 -0.1081 -1.9352  1.5390
 8916SOL     OW27646   3.537   4.979   3.514 -0.0524  0.3651  0.1849
 8916SOL    HW127647   3.601   4.955   3.587  0.2900  2.1357  0.5109
 8916SOL    HW227648   3.445   4.952   3.539  0.5783 -2.8365 -0.5660
 8917SOL     OW27649   4.186   3.260   1.416 -0.3206  0.1812 -0.8875
 8917SOL    HW127650   4.246   3.340   1.417  0.2958 -0.2734  0.2337
 8917SOL    HW227651   4.213   3.197   1.489 -2.0783 -0.1030 -0.4466
 8918SOL     OW27652   0.177   4.998   4.022 -0.1790 -0.0232  0.4810
 8918SOL    HW127653   0.165   5.086   3.976  0.0099  0.1467  0.7522
 8918SOL    HW227654   0.088   4.955   4.038 -0.3097  0.3626  0.8182
 8919SOL     OW27655   0.739   0.054   5.783 -0.3778  0.3265  0.2543
 8919SOL    HW127656   0.763   0.033   5.688  1.0616  3.3252 -0.1726
 8919SOL    HW227657   0.647   0.091   5.787 -0.2347  0.7315 -0.0991
 8920SOL     OW27658   5.316   6.634   2.587  0.4999 -0.3694  0.1767
 8920SOL    HW127659   5.412   6.607   2.597  0.4797 -0.4914  0.0438
 8920SOL    HW227660   5.287   6.684   2.669  1.0275  0.7319 -0.2870
 8921SOL     OW27661   3.145   0.674   6.295  0.3750 -0.0221  0.1299
 8921SOL    HW127662   3.106   0.664   6.386  3.4500 -0.5122  1.4992
 8921SOL    HW227663   3.175   0.768   6.282 -0.3827  0.1353 -0.5514
 8922SOL     OW27664   4.334   6.819   4.876 -0.2166 -0.0352  0.4228
 8922SOL    HW127665   4.380   6.758   4.941 -0.3172  0.8236  1.3202
 8922SOL    HW227666   4.318   6.908   4.919 -0.9702  0.3091 -0.5304
 8923SOL     OW27667   5.703   1.676   3.057  0.2267 -0.1250  0.2798
 8923SOL    HW127668   5.695   1.694   3.156  0.5604 -0.5758  0.3930
 8923SOL    HW227669   5.795   1.643   3.037 -0.5996 -2.6630  0.2511
 8924SOL     OW27670   0.311   6.166   2.682  0.2744  0.4242 -0.0829
 8924SOL    HW127671   0.350   6.074   2.680 -0.4914  0.0478  1.0919
 8924SOL    HW227672   0.358   6.220   2.753 -1.0416  0.0785  1.0954
 8925SOL     OW27673   6.197   5.535   1.776 -0.2378  0.0405 -0.4778
 8925SOL    HW127674   6.171   5.618   1.726 -1.6635 -0.1728 -0.1386
 8925SOL    HW227675   6.235   5.561   1.865 -0.2234  0.3424 -0.5698
 8926SOL     OW27676   4.725   5.789   3.187  0.0895  0.0739  0.1030
 8926SOL    HW127677   4.628   5.785   3.212  0.3330  1.7860  1.4846
 8926SOL    HW227678   4.777   5.829   3.262  1.7904 -0.2246 -0.8751
 8927SOL     OW27679   2.389   4.369   1.883  0.5383  0.2294  0.0261
 8927SOL    HW127680   2.376   4.330   1.975  0.0834  1.2558  0.4203
 8927SOL    HW227681   2.301   4.401   1.848  0.4606 -1.3915 -1.3706
 8928SOL     OW27682   1.084   2.047   6.883  0.2295  0.3705 -0.1218
 8928SOL    HW127683   1.046   2.021   6.793 -1.4678 -3.2603  1.4074
 8928SOL    HW227684   1.169   1.996   6.898 -0.4033 -0.4149  0.9308
 8929SOL     OW27685   5.585   2.998   4.286  0.0899 -0.3089  0.3773
 8929SOL    HW127686   5.511   2.970   4.347  0.1989 -0.8795  0.2560
 8929SOL    HW227687   5.667   3.020   4.340  0.1826 -0.8020  0.4431
 8930SOL     OW27688   2.760   3.665   5.376  0.7121 -0.3936 -0.3614
 8930SOL    HW127689   2.859   3.671   5.391  0.3212  3.0530  2.0872
 8930SOL    HW227690   2.729   3.747   5.328 -0.9361 -1.5827 -1.3788
 8931SOL     OW27691   4.706   6.043   3.067 -0.4870 -0.6183 -0.1001
 8931SOL    HW127692   4.684   5.972   3.134 -0.9655  0.7737  1.2762
 8931SOL    HW227693   4.703   6.004   2.975 -0.7642 -2.3592  0.6066
 8932SOL     OW27694   6.036   6.572   4.071  0.1335 -0.4375  0.1481
 8932SOL    HW127695   6.051   6.521   4.156 -0.0176  1.6664  1.5105
 8932SOL    HW227696   5.940   6.568   4.047 -0.2417  0.6696  1.3071
 8933SOL     OW27697   2.886   3.586   0.303 -0.1924  0.4671  0.0745
 8933SOL    HW127698   2.898   3.487   0.296 -2.5034  0.0087  1.6515
 8933SOL    HW227699   2.960   3.625   0.359 -0.2633 -0.6356  0.9520
 8934SOL     OW27700   0.367   5.333   1.738 -0.5118 -0.5991 -0.5007
 8934SOL    HW127701   0.312   5.351   1.820  0.7036 -3.9409  1.2270
 8934SOL    HW227702   0.305   5.317   1.661 -1.7809 -0.1328  0.3677
 8935SOL     OW27703   4.530   0.079   1.266 -0.7585  0.2176 -0.6155
 8935SOL    HW127704   4.530   0.033   1.354 -2.5450  1.3843  0.0367
 8935SOL    HW227705   4.465   0.034   1.205  2.0880 -2.0511 -2.2481
 8936SOL     OW27706   4.832   1.666   3.686  0.4056  0.1277  0.1027
 8936SOL    HW127707   4.831   1.745   3.625 -0.1163  0.3965  0.4549
 8936SOL    HW227708   4.862   1.585   3.635  0.9472  0.5474 -0.2584
 8937SOL     OW27709   5.430   1.678   6.556  0.7178 -0.3119 -0.6381
 8937SOL    HW127710   5.339   1.638   6.550  0.5060 -0.0333  0.5102
 8937SOL    HW227711   5.432   1.762   6.501  0.1571 -0.0929 -0.3298
 8938SOL     OW27712   4.682   6.493   2.014  0.0946  0.0394  0.1001
 8938SOL    HW127713   4.588   6.462   2.021  0.2443 -0.4714 -0.1097
 8938SOL    HW227714   4.712   6.489   1.918  0.1188  0.8338  0.0618
 8939SOL     OW27715   4.922   5.076   2.516  0.1122 -0.2346  0.8569
 8939SOL    HW127716   4.881   5.146   2.458 -0.3096 -1.6778 -0.6608
 8939SOL    HW227717   4.867   4.992   2.511  1.0540 -0.9545  1.9730
 8940SOL     OW27718   6.211   4.992   2.500 -0.3307 -0.5637 -0.8497
 8940SOL    HW127719   6.272   4.928   2.455  0.2985 -0.9648  0.5187
 8940SOL    HW227720   6.225   5.084   2.462 -0.0216 -0.9279 -1.6367
 8941SOL     OW27721   2.185   2.847   0.346  0.1158  0.1174  0.4048
 8941SOL    HW127722   2.228   2.873   0.260  1.7701  2.4003  1.7923
 8941SOL    HW227723   2.089   2.871   0.345  0.3259  0.9547 -0.4803
 8942SOL     OW27724   4.062   0.593   4.195 -0.4999  0.1604  0.6117
 8942SOL    HW127725   4.123   0.647   4.254  0.3087  0.1212 -0.1599
 8942SOL    HW227726   4.082   0.614   4.099  0.2364 -1.9188  0.2587
 8943SOL     OW27727   1.600   4.122   0.610  0.4304  0.2133 -0.7062
 8943SOL    HW127728   1.529   4.191   0.626 -0.1669 -0.8568  1.8488
 8943SOL    HW227729   1.680   4.144   0.666  0.2967 -1.0299  0.0145
 8944SOL     OW27730   5.832   2.577   5.299  0.1532 -0.9533  0.0178
 8944SOL    HW127731   5.773   2.655   5.317  4.0863  2.1217  1.2151
 8944SOL    HW227732   5.843   2.523   5.382 -2.7269 -3.1240 -0.8611
 8945SOL     OW27733   0.948   5.790   3.696 -0.0750 -0.2728  0.3199
 8945SOL    HW127734   0.952   5.831   3.605  1.4263 -1.6149 -0.2772
 8945SOL    HW227735   1.034   5.807   3.743  0.0745 -1.6074  0.5473
 8946SOL     OW27736   3.563   5.620   6.599  1.0695  0.0032  0.1865
 8946SOL    HW127737   3.571   5.719   6.612  0.5906 -0.1183  1.4620
 8946SOL    HW227738   3.652   5.577   6.615  1.1557  0.1657  0.1484
 8947SOL     OW27739   4.631   4.271   5.931 -0.1719 -0.3391 -0.1973
 8947SOL    HW127740   4.562   4.243   5.998 -0.3066 -0.9468 -0.5921
 8947SOL    HW227741   4.635   4.205   5.857 -0.6919  0.8154 -1.2838
 8948SOL     OW27742   2.904   1.112   5.386  1.3831  0.0947  0.3062
 8948SOL    HW127743   2.839   1.125   5.461  1.0028 -0.3449  0.0618
 8948SOL    HW227744   2.895   1.186   5.320 -0.3628 -1.0298 -0.7943
 8949SOL     OW27745   3.956   1.812   2.629 -0.1708 -0.0850 -0.0478
 8949SOL    HW127746   4.021   1.763   2.686  1.1577 -1.6614 -2.7153
 8949SOL    HW227747   3.991   1.904   2.609  1.1831 -0.8165 -1.2156
 8950SOL     OW27748   1.737   6.156   4.553 -0.4670  0.3064  0.0067
 8950SOL    HW127749   1.747   6.065   4.514 -0.0339  0.5761 -0.5163
 8950SOL    HW227750   1.706   6.148   4.648  1.7223 -0.4982  0.7250
 8951SOL     OW27751   1.168   6.174   3.150 -0.0567  0.5277 -0.4590
 8951SOL    HW127752   1.240   6.242   3.159 -1.3576  2.0109 -0.7446
 8951SOL    HW227753   1.134   6.150   3.241  0.3613  0.3212 -0.3583
 8952SOL     OW27754   5.348   1.215   0.465  0.2273 -0.1580  0.3690
 8952SOL    HW127755   5.318   1.289   0.404  1.2297 -1.8931 -2.4047
 8952SOL    HW227756   5.269   1.158   0.488  0.0179 -0.1725 -0.3478
 8953SOL     OW27757   2.252   2.461   3.542 -0.3143  0.5617 -0.2849
 8953SOL    HW127758   2.246   2.556   3.573  0.0034  0.1670  1.0864
 8953SOL    HW227759   2.198   2.403   3.604 -0.3483 -0.1832 -0.9891
 8954SOL     OW27760   1.464   1.625   7.005  0.1041 -0.0378 -0.6616
 8954SOL    HW127761   1.533   1.691   6.978 -0.1942 -0.2907 -2.1286
 8954SOL    HW227762   1.498   1.570   7.082  1.1383  0.4649 -0.7501
 8955SOL     OW27763   0.500   3.085   4.909 -0.2812 -0.2732 -0.2283
 8955SOL    HW127764   0.592   3.103   4.945  0.6207 -0.4193 -2.3396
 8955SOL    HW227765   0.438   3.158   4.939  0.6949  0.2531  0.5698
 8956SOL     OW27766   6.685   3.988   4.184  0.2771 -0.5620  0.2423
 8956SOL    HW127767   6.737   4.072   4.171 -0.7804  0.2864  1.2625
 8956SOL    HW227768   6.744   3.918   4.224  1.0952 -0.2313 -0.3603
 8957SOL     OW27769   3.192   5.152   1.323 -0.0867  0.2241  0.0096
 8957SOL    HW127770   3.146   5.229   1.368  1.7082  0.9213  0.7722
 8957SOL    HW227771   3.228   5.182   1.235 -1.1724 -0.3592 -0.6526
 8958SOL     OW27772   3.780   2.129   0.349 -0.3091 -0.1658 -0.0318
 8958SOL    HW127773   3.744   2.199   0.288 -0.4028 -0.3450 -0.1847
 8958SOL    HW227774   3.726   2.127   0.433 -2.9109 -2.6995 -1.5839
 8959SOL     OW27775   0.354   2.795   4.554  0.4451 -0.3038  0.2692
 8959SOL    HW127776   0.444   2.797   4.596  0.8329 -1.1677 -0.4737
 8959SOL    HW227777   0.326   2.888   4.530  3.1476 -0.2463 -3.5872
 8960SOL     OW27778   3.865   5.751   1.284 -0.2053 -0.4433  0.3625
 8960SOL    HW127779   3.884   5.740   1.382 -0.2564  0.4769  0.4898
 8960SOL    HW227780   3.846   5.848   1.265  2.7861 -0.0220 -1.0743
 8961SOL     OW27781   3.013   4.901   1.879 -0.9337  0.3175 -0.0386
 8961SOL    HW127782   2.919   4.919   1.909 -0.5090  1.1831  0.8569
 8961SOL    HW227783   3.016   4.893   1.780 -1.6865  2.2211 -0.2550
 8962SOL     OW27784   0.650   2.658   0.426 -0.1727 -0.1888  0.6067
 8962SOL    HW127785   0.670   2.569   0.468  0.3251 -0.5454 -0.3577
 8962SOL    HW227786   0.731   2.716   0.432 -0.5377  0.2700  1.3525
 8963SOL     OW27787   1.503   0.370   5.012 -0.6702 -0.4083  0.2560
 8963SOL    HW127788   1.499   0.465   5.040  1.5887 -0.1294 -0.1838
 8963SOL    HW227789   1.444   0.356   4.933 -2.2290  0.2304  1.2701
 8964SOL     OW27790   5.635   5.466   1.823 -0.3094  0.1247 -0.1987
 8964SOL    HW127791   5.685   5.439   1.905 -0.8799 -0.1055  0.0748
 8964SOL    HW227792   5.558   5.525   1.848  0.1529  0.9565 -0.6712
 8965SOL     OW27793   2.793   2.905   6.049 -0.0712  0.5759 -0.2698
 8965SOL    HW127794   2.854   2.829   6.024 -0.1889 -0.4258  2.1753
 8965SOL    HW227795   2.848   2.985   6.075  0.1790  0.2255  0.3057
 8966SOL     OW27796   0.728   2.291   0.299  0.4932  0.8592  0.5628
 8966SOL    HW127797   0.690   2.329   0.384  1.1850  1.4268  0.6219
 8966SOL    HW227798   0.824   2.317   0.291  0.6606  0.0929  0.0189
 8967SOL     OW27799   1.283   5.006   0.065 -0.7836 -0.2211  0.3199
 8967SOL    HW127800   1.264   4.937   0.135  0.8219 -0.3995  0.6130
 8967SOL    HW227801   1.376   4.994   0.030 -1.1317  0.6286 -0.9898
 8968SOL     OW27802   2.766   2.686   1.694 -0.0586  0.1084  0.0024
 8968SOL    HW127803   2.774   2.640   1.783 -0.4923  0.6532  0.3345
 8968SOL    HW227804   2.838   2.755   1.685  0.6330 -0.6657 -0.5237
 8969SOL     OW27805   1.048   2.336   1.296  0.3461 -0.4964 -0.1088
 8969SOL    HW127806   1.129   2.301   1.341  0.8375 -0.4693 -0.9477
 8969SOL    HW227807   1.004   2.405   1.354  1.5224  0.2577 -0.0849
 8970SOL     OW27808   1.361   1.216   5.878 -0.3766 -0.2441  0.0370
 8970SOL    HW127809   1.370   1.137   5.818 -0.9335  1.0517 -1.8475
 8970SOL    HW227810   1.326   1.187   5.967  1.1062 -2.3120  0.0017
 8971SOL     OW27811   2.957   3.233   4.896  0.5294 -0.2507  0.0371
 8971SOL    HW127812   2.888   3.219   4.968  0.6326 -0.9063  0.0147
 8971SOL    HW227813   3.021   3.156   4.896  0.6908 -0.1230 -0.5790
 8972SOL     OW27814   3.898   5.366   0.411  0.4347 -0.2300  0.1380
 8972SOL    HW127815   3.975   5.379   0.473  0.8926  0.9346 -0.6356
 8972SOL    HW227816   3.832   5.440   0.423  0.4015 -0.1363 -0.5501
 8973SOL     OW27817   6.530   4.295   6.491 -0.6549  0.2510 -0.8100
 8973SOL    HW127818   6.579   4.378   6.464  0.4123 -0.1759 -0.2707
 8973SOL    HW227819   6.560   4.218   6.434  0.8667 -0.4430  0.8306
 8974SOL     OW27820   6.586   0.772   0.785 -0.7054 -0.1463 -0.4474
 8974SOL    HW127821   6.528   0.850   0.808  0.4441  1.2596 -2.0474
 8974SOL    HW227822   6.549   0.689   0.826 -1.8859  1.2449  1.4638
 8975SOL     OW27823   0.552   3.939   6.761 -0.1344  0.2305  0.0142
 8975SOL    HW127824   0.549   3.878   6.682  0.4320 -3.1532  2.3939
 8975SOL    HW227825   0.641   3.985   6.764 -0.3480  0.8209 -1.5020
 8976SOL     OW27826   5.789   1.614   0.864 -0.5601  0.0091 -0.1353
 8976SOL    HW127827   5.841   1.699   0.852 -0.6758 -0.0098 -0.8490
 8976SOL    HW227828   5.745   1.613   0.953  1.5512 -0.4562  0.9740
 8977SOL     OW27829   4.678   5.129   1.693  0.3143  0.3559 -0.7228
 8977SOL    HW127830   4.635   5.151   1.781 -0.0367 -0.9576 -0.5499
 8977SOL    HW227831   4.613   5.149   1.620  0.1886  0.3656 -0.6098
 8978SOL     OW27832   0.197   0.347   3.402  0.1793  0.3588  0.2304
 8978SOL    HW127833   0.131   0.305   3.464  0.4666  0.1757  0.4161
 8978SOL    HW227834   0.152   0.371   3.316 -0.0771  0.0250  0.2694
 8979SOL     OW27835   0.748   3.068   0.146  0.7200  0.0334  0.0631
 8979SOL    HW127836   0.697   3.049   0.231 -1.1521 -1.2455 -1.2590
 8979SOL    HW227837   0.741   3.165   0.124 -2.5916 -0.2619 -0.8238
 8980SOL     OW27838   2.632   3.735   1.341 -0.5104  0.0047  0.2620
 8980SOL    HW127839   2.686   3.720   1.258  0.6808 -0.1681  1.0424
 8980SOL    HW227840   2.544   3.776   1.317  0.6220  1.8760 -0.9159
 8981SOL     OW27841   4.103   6.151   1.774  0.3290  0.1991  0.0465
 8981SOL    HW127842   4.195   6.117   1.790  0.2366 -0.3385 -0.5043
 8981SOL    HW227843   4.107   6.245   1.743  0.7479 -0.0747 -0.7542
 8982SOL     OW27844   0.944   0.613   6.414 -0.0016  0.6123 -0.4766
 8982SOL    HW127845   1.039   0.593   6.390 -0.1210 -0.3518 -0.1904
 8982SOL    HW227846   0.942   0.682   6.486  0.5386 -0.1818  0.3286
 8983SOL     OW27847   3.809   3.741   4.420  0.2214 -0.2605 -0.8150
 8983SOL    HW127848   3.751   3.748   4.339  0.4295  1.6305 -0.8347
 8983SOL    HW227849   3.887   3.803   4.411  1.0543 -1.1185  0.1955
 8984SOL     OW27850   3.337   4.128   2.884  0.5648  0.2142 -0.5799
 8984SOL    HW127851   3.380   4.130   2.793 -0.0278  2.4971 -0.8753
 8984SOL    HW227852   3.407   4.112   2.953  1.0716 -1.2887 -1.4006
 8985SOL     OW27853   2.259   1.107   3.538 -0.0496 -0.4032  0.4267
 8985SOL    HW127854   2.170   1.067   3.559 -0.6642  1.4603  1.6677
 8985SOL    HW227855   2.270   1.115   3.439  0.0536 -3.3415  0.1138
 8986SOL     OW27856   2.921   3.275   1.366  0.6605 -1.0914  0.1166
 8986SOL    HW127857   2.919   3.225   1.453 -0.3505  2.0469  2.0595
 8986SOL    HW227858   3.010   3.320   1.355 -0.0461  0.5987  0.9092
 8987SOL     OW27859   4.169   0.641   0.496  0.2055 -0.1022 -0.4547
 8987SOL    HW127860   4.089   0.587   0.469  0.6166  0.2681 -2.6119
 8987SOL    HW227861   4.217   0.672   0.414  0.8453  2.2748  0.7311
 8988SOL     OW27862   1.065   1.031   0.027  0.6715  0.3231 -0.2025
 8988SOL    HW127863   0.995   1.101   0.012 -2.9983 -2.5250  1.8082
 8988SOL    HW227864   1.085   1.024   0.124  1.4109 -1.0008 -0.4245
 8989SOL     OW27865   1.824   5.334   5.563 -0.3741  0.3792  0.6779
 8989SOL    HW127866   1.923   5.348   5.565 -0.4471  0.9128  1.7714
 8989SOL    HW227867   1.791   5.322   5.657 -1.1968 -0.9415  0.2394
 8990SOL     OW27868   4.755   1.964   1.079 -0.5811  0.3990  0.8610
 8990SOL    HW127869   4.758   1.914   0.993  0.5375  1.6145  0.1535
 8990SOL    HW227870   4.767   1.900   1.155  2.0453 -0.3509 -0.0643
 8991SOL     OW27871   7.022   3.092   3.751 -0.1958  0.4905 -0.4727
 8991SOL    HW127872   7.077   3.015   3.719  0.9214 -0.0962  2.5217
 8991SOL    HW227873   7.039   3.171   3.693  1.5376 -0.4898 -1.4033
 8992SOL     OW27874   6.621   1.376   6.632  0.1361 -0.1557  0.2590
 8992SOL    HW127875   6.541   1.344   6.580 -0.7439 -0.3358  1.6839
 8992SOL    HW227876   6.612   1.348   6.728  1.7404  0.1531  0.5260
 8993SOL     OW27877   4.090   1.591   0.250  0.1460 -0.5214  0.5578
 8993SOL    HW127878   4.041   1.599   0.337  0.6715 -0.1515  0.8222
 8993SOL    HW227879   4.177   1.544   0.264  1.4198  1.7470  0.7284
 8994SOL     OW27880   4.804   3.222   1.583 -0.2667  0.2505 -0.6877
 8994SOL    HW127881   4.877   3.216   1.515 -0.5402 -1.6539 -0.8765
 8994SOL    HW227882   4.716   3.199   1.540 -0.8060  1.2610 -0.1777
 8995SOL     OW27883   0.375   3.738   5.209 -0.1029  0.2658  0.5435
 8995SOL    HW127884   0.381   3.696   5.299  3.2531  1.7995  1.2060
 8995SOL    HW227885   0.365   3.837   5.219 -0.5624  0.3706 -0.7951
 8996SOL     OW27886   1.729   5.701   6.880 -0.1342 -0.2482 -0.2235
 8996SOL    HW127887   1.780   5.721   6.797  2.0289  0.1688  1.1218
 8996SOL    HW227888   1.732   5.780   6.941 -0.6450 -0.9591  0.7574
 8997SOL     OW27889   1.225   1.310   4.501 -0.3037 -0.3715 -0.3931
 8997SOL    HW127890   1.232   1.220   4.543 -1.0433 -0.3699 -0.2523
 8997SOL    HW227891   1.295   1.371   4.538 -0.4296 -0.6049  0.2276
 8998SOL     OW27892   0.344   0.995   4.011  0.6162 -0.0162  0.2516
 8998SOL    HW127893   0.422   0.987   3.948  2.1345  1.8501  1.7733
 8998SOL    HW227894   0.377   0.994   4.105 -1.2392  0.5032  0.9425
 8999SOL     OW27895   4.351   5.225   7.019 -0.1181  0.5002 -0.1300
 8999SOL    HW127896   4.405   5.190   6.943 -0.1882  0.0669  0.0157
 8999SOL    HW227897   4.325   5.149   7.079 -2.5950  0.3644 -1.2478
 9000SOL     OW27898   5.811   1.008   2.111  0.1819  0.3905  0.2764
 9000SOL    HW127899   5.876   0.936   2.083 -0.1427 -0.0985  0.7520
 9000SOL    HW227900   5.829   1.091   2.058 -0.1908 -0.3921 -1.1499
 9001SOL     OW27901   3.785   5.603   5.854 -0.1839 -0.0102  0.5297
 9001SOL    HW127902   3.846   5.676   5.883 -0.1007 -0.5276  1.7414
 9001SOL    HW227903   3.718   5.639   5.789  0.3368  0.9470  0.5037
 9002SOL     OW27904   0.136   2.637   1.441 -0.4636 -0.1642 -0.1843
 9002SOL    HW127905   0.183   2.555   1.408 -0.7587 -0.3825 -0.0650
 9002SOL    HW227906   0.182   2.670   1.523 -0.9520 -0.8018  0.3535
 9003SOL     OW27907   0.939   3.557   5.585 -0.3757 -0.0817  0.0393
 9003SOL    HW127908   0.977   3.647   5.605 -2.2341  0.7342  0.0614
 9003SOL    HW227909   1.013   3.494   5.563  1.0396  1.1961  0.9588
 9004SOL     OW27910   2.803   6.711   2.905 -0.1476  0.2070 -0.0345
 9004SOL    HW127911   2.789   6.612   2.908  0.4036 -0.0231 -2.4375
 9004SOL    HW227912   2.790   6.750   2.996  0.6230 -2.1980  1.1897
 9005SOL     OW27913   3.624   2.311   1.113 -0.4135 -0.1829  0.3450
 9005SOL    HW127914   3.529   2.341   1.107 -0.6861 -0.9106  0.8526
 9005SOL    HW227915   3.646   2.289   1.208 -0.3080 -1.7730 -0.0110
 9006SOL     OW27916   6.724   3.016   6.489 -0.0352 -0.3392  0.1772
 9006SOL    HW127917   6.807   2.987   6.441 -0.4588 -1.8665  0.3101
 9006SOL    HW227918   6.644   2.997   6.431 -0.3721  0.1523  0.4720
 9007SOL     OW27919   1.461   3.530   4.923  0.1784 -0.0783  0.1752
 9007SOL    HW127920   1.533   3.559   4.985  1.3089 -0.1312 -1.0843
 9007SOL    HW227921   1.487   3.444   4.878 -0.9948 -0.4947  0.2411
 9008SOL     OW27922   4.296   3.694   5.962  0.9131  0.5498  0.2179
 9008SOL    HW127923   4.277   3.600   5.935 -0.9844  1.0977 -0.5329
 9008SOL    HW227924   4.280   3.705   6.061 -1.8623  0.6750 -0.1468
 9009SOL     OW27925   6.834   2.227   5.128 -0.3597  0.7889  0.0062
 9009SOL    HW127926   6.802   2.299   5.190  0.8340  1.0773  0.3062
 9009SOL    HW227927   6.764   2.209   5.059 -2.2344 -0.3391  2.0699
 9010SOL     OW27928   5.477   4.002   3.982 -0.3546  0.2750 -0.0262
 9010SOL    HW127929   5.526   4.077   4.028  0.9214  0.3609 -1.4115
 9010SOL    HW227930   5.521   3.915   4.003  0.4233  0.3453 -1.2388
 9011SOL     OW27931   5.697   1.021   6.079  0.2209  0.3584 -0.4139
 9011SOL    HW127932   5.662   0.976   5.997 -0.8872 -0.0500  0.2575
 9011SOL    HW227933   5.668   1.117   6.080 -1.5723 -0.1536  0.4855
 9012SOL     OW27934   5.962   4.028   1.716  0.2184  0.0712 -0.4771
 9012SOL    HW127935   5.927   3.938   1.743 -0.2341  0.2084 -0.5981
 9012SOL    HW227936   5.909   4.062   1.639  2.0515 -0.7314 -2.1926
 9013SOL     OW27937   0.717   2.298   2.701 -0.2346 -0.6288  0.4863
 9013SOL    HW127938   0.667   2.214   2.687  2.2299 -2.1541  0.1982
 9013SOL    HW227939   0.755   2.299   2.794 -1.3489  0.8233  0.9559
 9014SOL     OW27940   2.685   1.110   3.137  0.0477  0.7661  0.6964
 9014SOL    HW127941   2.771   1.161   3.136  1.2755 -1.1953 -0.1449
 9014SOL    HW227942   2.648   1.105   3.044 -1.5911  2.5032  1.2083
 9015SOL     OW27943   4.949   5.142   4.311  0.5518  0.2291  0.2928
 9015SOL    HW127944   5.005   5.073   4.266  0.0921  1.7459 -2.9071
 9015SOL    HW227945   5.007   5.215   4.347  0.8520 -0.3437  0.9897
 9016SOL     OW27946   5.357   2.992   2.778 -0.7437  0.0672  0.1827
 9016SOL    HW127947   5.421   2.923   2.743  0.4068  1.1779  0.0580
 9016SOL    HW227948   5.275   2.946   2.811 -0.1261 -1.3488 -0.1655
 9017SOL     OW27949   4.640   5.364   1.314 -0.1956  0.1170  0.0248
 9017SOL    HW127950   4.720   5.375   1.373  2.1951 -3.3337 -2.2609
 9017SOL    HW227951   4.628   5.447   1.259  0.5290  1.4397  1.7441
 9018SOL     OW27952   6.995   4.083   3.797  0.1259 -0.4543  0.3188
 9018SOL    HW127953   7.013   4.114   3.704  1.0999  1.2533  1.0410
 9018SOL    HW227954   6.896   4.077   3.811 -0.0699 -2.7817 -1.4228
 9019SOL     OW27955   5.926   4.735   4.302  0.1913 -0.2869  0.0746
 9019SOL    HW127956   5.992   4.734   4.377  0.3228  1.3641  0.0226
 9019SOL    HW227957   5.839   4.698   4.333  0.6434 -0.8961  0.6363
 9020SOL     OW27958   2.522   5.438   2.132  0.2810 -0.3856 -0.3356
 9020SOL    HW127959   2.446   5.500   2.115 -0.9532 -1.5083  0.7837
 9020SOL    HW227960   2.581   5.476   2.203 -0.9019 -0.7922  0.9098
 9021SOL     OW27961   3.836   2.496   0.309 -0.9766 -0.7304  0.1498
 9021SOL    HW127962   3.805   2.591   0.313  0.6388 -0.1506  0.0569
 9021SOL    HW227963   3.778   2.444   0.247 -1.9209  0.1777  0.2449
 9022SOL     OW27964   3.322   1.757   0.580  0.3101  0.9901  0.2018
 9022SOL    HW127965   3.290   1.787   0.490  0.7257  2.2556  0.4512
 9022SOL    HW227966   3.300   1.661   0.593 -2.0730  1.4040 -0.2424
 9023SOL     OW27967   3.463   6.892   2.428  0.2476  0.7342 -0.0906
 9023SOL    HW127968   3.537   6.949   2.463  0.3299 -0.4861  1.9263
 9023SOL    HW227969   3.397   6.875   2.502 -0.2304 -1.0065 -0.8631
 9024SOL     OW27970   5.045   0.587   1.297 -0.2915  0.1727 -0.3459
 9024SOL    HW127971   4.996   0.631   1.372  0.5699  0.2602  0.1791
 9024SOL    HW227972   5.065   0.654   1.226 -0.9662  0.1241 -0.5917
 9025SOL     OW27973   2.118   2.578   2.217  0.0418 -0.3023  0.7210
 9025SOL    HW127974   2.208   2.536   2.223 -0.4024 -1.9970 -2.1192
 9025SOL    HW227975   2.125   2.663   2.165 -0.0652 -1.0177 -0.5247
 9026SOL     OW27976   0.592   6.451   0.952 -0.3086  0.0663 -0.2914
 9026SOL    HW127977   0.645   6.530   0.920 -0.2516  0.1082 -0.0950
 9026SOL    HW227978   0.594   6.448   1.052 -0.2880 -0.2006 -0.2997
 9027SOL     OW27979   1.002   6.831   1.704 -0.4102 -0.3278 -0.3854
 9027SOL    HW127980   1.079   6.824   1.641 -1.0399 -0.1556 -1.1887
 9027SOL    HW227981   1.008   6.757   1.771  1.5294  0.8266  0.8224
 9028SOL     OW27982   4.247   2.858   6.626 -0.1704  0.4357 -0.5166
 9028SOL    HW127983   4.231   2.831   6.531  0.4813 -1.4083 -0.1396
 9028SOL    HW227984   4.271   2.778   6.681 -1.8885  1.2113  1.5354
 9029SOL     OW27985   4.406   3.273   0.467  0.4413  0.4327 -0.6265
 9029SOL    HW127986   4.383   3.223   0.384  0.6321 -0.2195 -0.2916
 9029SOL    HW227987   4.378   3.368   0.457 -0.0093  0.2425 -1.2348
 9030SOL     OW27988   1.602   5.234   4.724  0.3964 -0.2478  0.1819
 9030SOL    HW127989   1.517   5.281   4.750 -0.2917 -1.6467  0.5175
 9030SOL    HW227990   1.591   5.136   4.736  0.8419 -0.8038 -3.1021
 9031SOL     OW27991   6.419   3.597   5.237 -0.0650  0.5341 -0.2258
 9031SOL    HW127992   6.327   3.560   5.254 -0.8066  2.3479 -0.0362
 9031SOL    HW227993   6.415   3.661   5.161  0.6589  1.9926  0.9159
 9032SOL     OW27994   1.146   0.766   2.816 -0.2197  0.2540  0.3864
 9032SOL    HW127995   1.238   0.800   2.796  0.0644 -0.7796 -0.0725
 9032SOL    HW227996   1.152   0.682   2.869 -0.9049  0.0709  0.1783
 9033SOL     OW27997   0.163   5.385   4.776 -0.3440  0.1123  0.6559
 9033SOL    HW127998   0.086   5.339   4.822 -0.9279  1.9184  1.5901
 9033SOL    HW227999   0.224   5.423   4.845  0.0151  0.8895 -0.0777
 9034SOL     OW28000   5.413   1.921   6.100  0.3208  0.6187 -0.4800
 9034SOL    HW128001   5.460   1.892   6.016 -0.5306  1.0586 -1.1278
 9034SOL    HW228002   5.336   1.979   6.076 -0.8229 -0.4320  0.5223
 9035SOL     OW28003   2.969   6.000   1.286 -0.0241  0.2451  0.1588
 9035SOL    HW128004   2.969   6.087   1.335  0.2098 -0.0461  0.6702
 9035SOL    HW228005   3.046   5.944   1.316  0.0218 -0.0075 -0.4123
 9036SOL     OW28006   5.554   5.072   3.752  0.2612 -0.4094  0.2336
 9036SOL    HW128007   5.477   5.031   3.800 -1.7346 -0.3847 -2.7176
 9036SOL    HW228008   5.613   4.999   3.716  0.8073 -0.4563  1.1894
 9037SOL     OW28009   2.528   6.197   2.358 -0.2967 -0.1384  0.6718
 9037SOL    HW128010   2.622   6.228   2.375 -0.3417 -0.2572  1.1603
 9037SOL    HW228011   2.483   6.262   2.297  0.4119 -0.6158 -0.3943
 9038SOL     OW28012   3.210   3.807   2.315  0.3870 -0.4467 -0.1561
 9038SOL    HW128013   3.237   3.894   2.274 -0.7774  1.2020  2.3359
 9038SOL    HW228014   3.111   3.801   2.319  0.4495 -0.9773  1.4368
 9039SOL     OW28015   6.256   3.440   4.267  0.3142  0.3071 -0.8563
 9039SOL    HW128016   6.191   3.372   4.301 -2.0845  1.3581 -3.0117
 9039SOL    HW228017   6.298   3.407   4.182  1.4332  0.3216 -0.3301
 9040SOL     OW28018   0.010   3.102   2.405 -0.5248  0.3883 -0.1799
 9040SOL    HW128019  -0.070   3.089   2.346  0.3657  0.8038 -1.5429
 9040SOL    HW228020   0.085   3.046   2.370 -0.3589 -0.4181  1.4033
 9041SOL     OW28021   0.984   5.976   6.746  0.2211 -0.1794  0.7536
 9041SOL    HW128022   0.931   5.906   6.698  0.1678 -0.7495  1.6434
 9041SOL    HW228023   0.922   6.050   6.774  0.0561 -0.4092  0.9929
 9042SOL     OW28024   6.582   5.255   4.367 -0.1610  0.4714  0.4580
 9042SOL    HW128025   6.592   5.312   4.448  0.5591  0.9723  0.0416
 9042SOL    HW228026   6.673   5.224   4.337 -0.3332  0.9117 -0.5718
 9043SOL     OW28027   0.465   6.310   5.366 -0.2129 -0.1285 -0.1497
 9043SOL    HW128028   0.445   6.290   5.462  1.7524  0.0915  0.3479
 9043SOL    HW228029   0.403   6.381   5.333 -1.7510 -1.1054  0.5477
 9044SOL     OW28030   6.756   4.009   1.819 -0.0701 -0.0069 -0.0533
 9044SOL    HW128031   6.822   4.078   1.791  0.7290 -0.5849  0.3570
 9044SOL    HW228032   6.789   3.961   1.901  0.1155 -1.8553 -1.1464
 9045SOL     OW28033   1.738   0.753   0.718 -0.1196  0.4698 -0.2176
 9045SOL    HW128034   1.760   0.663   0.754 -0.4263 -0.1757 -1.5921
 9045SOL    HW228035   1.744   0.752   0.619 -1.4159  1.6164 -0.3359
 9046SOL     OW28036   3.892   0.862   4.807 -0.2480  0.6583 -0.2285
 9046SOL    HW128037   3.965   0.810   4.762 -1.0512 -0.3066 -0.4663
 9046SOL    HW228038   3.897   0.848   4.906  0.1096  0.9077 -0.2069
 9047SOL     OW28039   5.623   6.868   4.135  0.6571  0.9072  0.4900
 9047SOL    HW128040   5.660   6.841   4.045  0.1555 -1.8586  1.0057
 9047SOL    HW228041   5.699   6.889   4.197  1.1606  0.1617  0.1537
 9048SOL     OW28042   5.547   6.187   6.773  0.2330  0.5005 -0.4304
 9048SOL    HW128043   5.600   6.159   6.853  1.1162  2.1391 -0.4141
 9048SOL    HW228044   5.602   6.248   6.716 -0.7180  0.1051 -1.8069
 9049SOL     OW28045   4.784   6.884   4.820  0.4080  0.0947  0.2559
 9049SOL    HW128046   4.712   6.929   4.768 -0.8372 -1.0615  0.9316
 9049SOL    HW228047   4.859   6.860   4.758 -0.3313  0.1874 -0.6935
 9050SOL     OW28048   0.088   0.164   2.012  0.0710  0.4500 -0.2034
 9050SOL    HW128049   0.187   0.162   2.003  0.0484 -0.6953 -0.2924
 9050SOL    HW228050   0.052   0.071   2.011 -0.7841  0.6711  2.3225
 9051SOL     OW28051   1.287   6.636   7.018 -0.0975 -1.1542  0.1470
 9051SOL    HW128052   1.369   6.634   7.076 -1.8066 -2.8636  2.7168
 9051SOL    HW228053   1.229   6.713   7.046  0.4555 -0.0716 -1.5293
 9052SOL     OW28054   3.580   4.831   1.164  0.0957 -0.3116  0.2969
 9052SOL    HW128055   3.593   4.900   1.093 -1.6743 -0.0367  0.2038
 9052SOL    HW228056   3.643   4.755   1.149  0.1150 -0.0036 -1.2577
 9053SOL     OW28057   3.031   2.003   1.332 -0.1882 -0.5011 -0.3764
 9053SOL    HW128058   3.001   2.094   1.359  0.2643 -0.4899  0.1053
 9053SOL    HW228059   2.997   1.982   1.240 -2.1402 -0.7201  0.3585
 9054SOL     OW28060   6.179   2.895   0.081  0.4180 -0.2366  0.1728
 9054SOL    HW128061   6.087   2.921   0.109  0.5023  0.7585 -0.4152
 9054SOL    HW228062   6.191   2.796   0.093 -1.2630 -0.6613 -1.2218
 9055SOL     OW28063   4.079   4.018   6.820 -0.6647 -0.9351  0.6494
 9055SOL    HW128064   4.167   3.971   6.828 -0.6378 -0.6631  2.0502
 9055SOL    HW228065   4.016   3.982   6.889 -1.1062  0.0781  0.7791
 9056SOL     OW28066   6.669   5.618   5.283 -0.1419 -0.6975  0.1584
 9056SOL    HW128067   6.639   5.708   5.315 -1.2870 -0.8406 -0.4634
 9056SOL    HW228068   6.712   5.569   5.358  4.6778  1.9942 -0.4128
 9057SOL     OW28069   6.295   4.956   0.572  0.0067  0.3174 -0.0244
 9057SOL    HW128070   6.261   4.865   0.547  1.2181 -0.2829  0.4422
 9057SOL    HW228071   6.394   4.960   0.558  0.1076  1.2607  0.8528
 9058SOL     OW28072   4.212   0.705   1.859  0.1214 -0.3216  0.5756
 9058SOL    HW128073   4.235   0.694   1.956 -0.2691 -0.6500  0.6333
 9058SOL    HW228074   4.248   0.627   1.808  2.5206  1.0246  0.0423
 9059SOL     OW28075   2.143   4.608   2.586  0.3202  0.1658  0.3784
 9059SOL    HW128076   2.232   4.598   2.541 -0.3885 -0.1972 -1.0028
 9059SOL    HW228077   2.122   4.705   2.599  0.8657  0.2542  0.6177
 9060SOL     OW28078   4.298   4.085   6.450  0.4369  0.0624  0.5255
 9060SOL    HW128079   4.293   4.172   6.402  0.8710  0.1386  0.6106
 9060SOL    HW228080   4.227   4.023   6.416  1.4068 -0.2634 -1.0003
 9061SOL     OW28081   4.193   1.463   3.928 -0.7679  0.2390 -0.6042
 9061SOL    HW128082   4.119   1.455   3.996 -0.4253 -0.7359 -0.3298
 9061SOL    HW228083   4.272   1.507   3.970  0.2382 -2.2928  0.3409
 9062SOL     OW28084   1.621   1.862   0.020  0.3013  0.6253 -0.1798
 9062SOL    HW128085   1.689   1.843  -0.052  1.2939  1.8669  0.4122
 9062SOL    HW228086   1.666   1.901   0.100 -1.1504  1.7849  0.1152
 9063SOL     OW28087   3.372   3.502   5.800 -1.0131  0.4834 -0.1957
 9063SOL    HW128088   3.289   3.507   5.855 -1.8475  0.3775 -1.4225
 9063SOL    HW228089   3.365   3.565   5.722  0.9135  2.0440  0.7718
 9064SOL     OW28090   1.935   6.870   3.118 -0.0062  0.0545 -0.4331
 9064SOL    HW128091   1.926   6.965   3.086 -0.5592 -0.2231 -1.1427
 9064SOL    HW228092   1.925   6.809   3.040 -0.3701 -0.6181  0.1358
 9065SOL     OW28093   2.162   4.014   3.705 -0.4551  0.1714  0.3261
 9065SOL    HW128094   2.204   3.989   3.618 -1.4168  0.3194 -0.1960
 9065SOL    HW228095   2.124   3.932   3.748  0.2941  0.0464  0.7736
 9066SOL     OW28096   1.327   2.912   2.791  0.4430 -0.2220  0.3948
 9066SOL    HW128097   1.301   2.816   2.800 -0.2618 -0.0526  0.2312
 9066SOL    HW228098   1.355   2.947   2.880 -2.4883  0.3087  1.2183
 9067SOL     OW28099   0.358   4.815   0.391 -0.7176 -0.1575 -0.7993
 9067SOL    HW128100   0.262   4.835   0.373 -0.6714  1.2961  0.4353
 9067SOL    HW228101   0.378   4.721   0.362 -2.6328 -0.6730 -0.5876
 9068SOL     OW28102   5.166   3.920   2.715 -0.0678  0.6627  0.6132
 9068SOL    HW128103   5.121   3.831   2.727 -0.1625  0.1988 -2.4129
 9068SOL    HW228104   5.136   3.961   2.629  2.8340  1.8601  0.0573
 9069SOL     OW28105   4.811   2.933   6.424  0.2196 -0.1759  0.1080
 9069SOL    HW128106   4.763   2.972   6.346  0.5527  0.1055  0.0411
 9069SOL    HW228107   4.902   2.975   6.432  1.2733 -2.0827 -0.9737
 9070SOL     OW28108   1.673   0.902   4.418 -0.5710 -0.3017 -0.6291
 9070SOL    HW128109   1.704   0.843   4.493  0.4652  1.1058  0.1000
 9070SOL    HW228110   1.658   0.995   4.453 -0.3272  0.3287 -2.1197
 9071SOL     OW28111   4.691   3.245   6.056 -0.1753  0.6613  0.0361
 9071SOL    HW128112   4.668   3.215   5.963 -1.3235  0.9219  0.2236
 9071SOL    HW228113   4.755   3.321   6.052  1.1727 -0.4563 -0.4923
 9072SOL     OW28114   2.737   4.505   5.653  0.1397  0.5592 -0.6365
 9072SOL    HW128115   2.660   4.547   5.701  0.8189 -1.3889  2.4113
 9072SOL    HW228116   2.724   4.406   5.649  0.8651  0.5040 -3.2768
 9073SOL     OW28117   1.103   5.768   4.156  0.0716 -0.3258  0.6304
 9073SOL    HW128118   1.043   5.688   4.159 -0.0850 -0.2936 -1.0012
 9073SOL    HW228119   1.050   5.850   4.178 -0.4430 -0.3339 -0.5141
 9074SOL     OW28120   6.884   0.668   1.908  0.3647  0.1703  0.3884
 9074SOL    HW128121   6.969   0.640   1.952  1.8540 -1.2515 -3.0609
 9074SOL    HW228122   6.905   0.730   1.832 -1.9193  1.2444  0.5503
 9075SOL     OW28123   4.034   1.925   1.939  0.0687  0.0139  0.3258
 9075SOL    HW128124   4.113   1.985   1.923 -0.5898  0.5599 -0.9811
 9075SOL    HW228125   4.056   1.833   1.907  0.8414 -0.3083  1.7178
 9076SOL     OW28126   1.064   2.289   1.038  0.6009  0.1374  0.3743
 9076SOL    HW128127   1.103   2.372   0.999 -1.0573  0.7872  0.0192
 9076SOL    HW228128   1.055   2.300   1.137 -2.2838  1.6427  0.0571
 9077SOL     OW28129   4.052   4.799   5.484  0.7463 -0.3115  0.6642
 9077SOL    HW128130   3.971   4.849   5.453  0.0491 -1.1695  1.0463
 9077SOL    HW228131   4.026   4.736   5.558  1.0220 -3.1073 -1.4669
 9078SOL     OW28132   1.636   2.370   3.834  0.1616 -0.0232 -0.7131
 9078SOL    HW128133   1.654   2.397   3.929  0.2619  0.3540 -0.8380
 9078SOL    HW228134   1.693   2.291   3.811  0.4646  0.1592 -0.5974
 9079SOL     OW28135   1.488   3.092   1.020 -0.2065 -0.6804 -0.1052
 9079SOL    HW128136   1.538   3.178   1.030  1.5738 -1.5110 -1.3210
 9079SOL    HW228137   1.393   3.112   0.994 -0.0636  0.9057  0.4449
 9080SOL     OW28138   3.197   0.636   1.564  0.3873  0.0775  0.0782
 9080SOL    HW128139   3.197   0.604   1.659 -1.7038 -2.6652 -0.7294
 9080SOL    HW228140   3.213   0.559   1.503 -1.0362  1.2658 -1.9164
 9081SOL     OW28141   4.005   0.018   2.594 -0.3410  0.2442  0.2579
 9081SOL    HW128142   3.925  -0.022   2.640 -0.2145 -1.2524 -0.7492
 9081SOL    HW228143   4.015   0.113   2.622 -1.5313  0.0012  1.6361
 9082SOL     OW28144   0.481   2.963   0.853  0.4778  0.4608  0.1218
 9082SOL    HW128145   0.389   2.942   0.820  1.2714 -0.8612 -1.4074
 9082SOL    HW228146   0.516   2.885   0.906  1.0122  0.6188  0.0093
 9083SOL     OW28147   5.987   0.032   1.372 -0.2135 -0.6854  0.4969
 9083SOL    HW128148   5.961   0.028   1.276  1.5777  0.3088 -0.0604
 9083SOL    HW228149   5.907   0.053   1.428 -1.0437 -0.1138 -0.8850
 9084SOL     OW28150   5.976   5.699   3.281 -0.2056 -0.1021 -0.2970
 9084SOL    HW128151   5.956   5.796   3.264  0.2241 -0.6073 -4.7142
 9084SOL    HW228152   6.018   5.690   3.371 -0.7407  3.7140  0.5203
 9085SOL     OW28153   2.282   2.910   6.005  0.4705 -0.0521  0.3359
 9085SOL    HW128154   2.276   2.903   5.905  0.3652  1.0691  0.2509
 9085SOL    HW228155   2.192   2.931   6.043  0.9922  2.3855  0.3760
 9086SOL     OW28156   0.493   3.342   3.317  0.4007  0.0865 -0.4982
 9086SOL    HW128157   0.556   3.420   3.324 -1.7160  1.8530 -0.3437
 9086SOL    HW228158   0.451   3.340   3.227  0.6100 -1.0524 -0.5857
 9087SOL     OW28159   5.509   0.984   2.915  0.1745 -0.6031  0.0917
 9087SOL    HW128160   5.580   1.016   2.852 -1.0846 -1.1020 -1.6427
 9087SOL    HW228161   5.537   0.896   2.955  0.3680 -1.0038 -0.9001
 9088SOL     OW28162   4.366   1.555   0.214 -0.2596 -0.6898  0.4821
 9088SOL    HW128163   4.373   1.481   0.280  0.3853  0.0960  1.3087
 9088SOL    HW228164   4.432   1.626   0.235 -0.5889 -0.0502 -0.5402
 9089SOL     OW28165   6.857   0.228   2.137 -0.4945  0.3783 -0.2135
 9089SOL    HW128166   6.783   0.259   2.077 -0.9841 -0.6162 -0.1389
 9089SOL    HW228167   6.942   0.225   2.085 -0.5461  1.2997 -0.3665
 9090SOL     OW28168   3.424   4.683   0.981 -0.0008  0.1058 -0.0880
 9090SOL    HW128169   3.459   4.732   1.060 -0.8782  1.7222 -0.6709
 9090SOL    HW228170   3.324   4.675   0.987  0.0159 -0.6341 -0.5609
 9091SOL     OW28171   1.072   2.859   5.154  0.3865 -0.0084 -0.2595
 9091SOL    HW128172   1.082   2.818   5.064 -1.0506 -1.7146  0.2802
 9091SOL    HW228173   1.157   2.849   5.205  0.9900  0.3455 -1.1775
 9092SOL     OW28174   4.312   6.370   0.786  0.3568  0.2498  0.2143
 9092SOL    HW128175   4.369   6.435   0.736 -1.5373  1.8350 -0.0014
 9092SOL    HW228176   4.235   6.343   0.728 -0.2818 -0.1746  1.2453
 9093SOL     OW28177   5.007   6.411   0.221  0.2976  0.4532 -0.0111
 9093SOL    HW128178   5.011   6.311   0.212  0.1272  0.3600  0.8624
 9093SOL    HW228179   4.932   6.446   0.166  0.6510  0.1545 -0.6996
 9094SOL     OW28180   4.232   3.753   0.662 -0.1312  0.0441 -0.4558
 9094SOL    HW128181   4.167   3.774   0.589  0.3911 -0.0131 -0.9391
 9094SOL    HW228182   4.182   3.713   0.740 -0.6699 -0.0374 -0.8341
 9095SOL     OW28183   5.937   5.866   5.894  0.6573 -0.0737 -0.0733
 9095SOL    HW128184   5.865   5.916   5.942  2.6327  3.1279 -0.1936
 9095SOL    HW228185   5.988   5.811   5.959 -0.9253 -1.2550  0.2365
 9096SOL     OW28186   5.889   0.094   2.984  0.1927  0.2042 -0.4711
 9096SOL    HW128187   5.971   0.073   2.931  0.7792  2.1425 -0.4267
 9096SOL    HW228188   5.872   0.021   3.051  2.4772  0.2152  0.2052
 9097SOL     OW28189   6.222   4.184   6.457 -0.2737 -0.8235 -0.1023
 9097SOL    HW128190   6.123   4.175   6.451 -0.2658 -1.2730  0.3850
 9097SOL    HW228191   6.246   4.280   6.476 -0.6467 -0.8302  0.4196
 9098SOL     OW28192   0.461   4.989   0.574 -0.1254  0.3400  0.0829
 9098SOL    HW128193   0.436   4.924   0.501  1.5793  1.3732 -1.4856
 9098SOL    HW228194   0.487   5.076   0.533  0.7561  0.9964  1.9675
 9099SOL     OW28195   3.512   1.562   5.640 -0.5863 -0.2603  0.1131
 9099SOL    HW128196   3.529   1.627   5.715 -2.0909 -0.0653  0.3023
 9099SOL    HW228197   3.599   1.542   5.594  0.0547  1.1823  0.6209
 9100SOL     OW28198   2.534   1.440   6.443 -0.2086 -0.0549 -0.1693
 9100SOL    HW128199   2.519   1.392   6.530  1.7659 -0.5782 -0.0724
 9100SOL    HW228200   2.495   1.532   6.449  0.6952  0.2684  1.6506
 9101SOL     OW28201   3.925   6.892   3.042  0.1169  0.5975  0.3354
 9101SOL    HW128202   3.851   6.851   3.095 -1.0867 -0.1304 -1.7921
 9101SOL    HW228203   3.997   6.824   3.027 -0.7237 -0.0185 -1.0694
 9102SOL     OW28204   2.212   3.049   4.848  0.2949 -0.4676 -0.2268
 9102SOL    HW128205   2.283   3.001   4.899  0.7882  1.2664  0.7953
 9102SOL    HW228206   2.183   3.130   4.899 -2.7909 -1.3502 -0.3744
 9103SOL     OW28207   5.010   3.824   0.686 -0.5328  0.5608  0.3910
 9103SOL    HW128208   5.042   3.730   0.670 -0.0181  0.5662  1.3289
 9103SOL    HW228209   5.082   3.889   0.660 -1.1364  0.7412 -0.8950
 9104SOL     OW28210   1.133   0.985   0.285  0.3525 -0.1018 -0.0082
 9104SOL    HW128211   1.108   1.020   0.375  2.2905 -1.6270  1.1917
 9104SOL    HW228212   1.183   0.899   0.295  1.4947  0.1837 -2.4898
 9105SOL     OW28213   0.846   3.799   4.491 -0.3973  0.3806  0.2443
 9105SOL    HW128214   0.802   3.812   4.402 -1.1514 -0.7860  0.4287
 9105SOL    HW228215   0.943   3.781   4.478 -0.6090 -0.3472 -0.3879
 9106SOL     OW28216   3.243   1.579   6.393 -0.7378  0.2958  0.5978
 9106SOL    HW128217   3.284   1.664   6.426 -0.9889  0.5293  0.3114
 9106SOL    HW228218   3.207   1.527   6.470  1.9332 -0.9106  1.1158
 9107SOL     OW28219   6.075   2.939   0.630  0.5602  0.2183  0.6479
 9107SOL    HW128220   6.049   3.017   0.686 -1.7045 -0.9792  1.3611
 9107SOL    HW228221   6.087   2.968   0.535 -1.0379  1.3048  0.7505
 9108SOL     OW28222   1.262   2.185   3.801  0.1170 -0.2943 -0.5814
 9108SOL    HW128223   1.165   2.185   3.824  0.5811 -0.7384  1.6586
 9108SOL    HW228224   1.273   2.175   3.702 -2.0807 -3.0075 -0.6740
 9109SOL     OW28225   0.238   3.206   6.519 -0.1632 -0.0078 -0.0789
 9109SOL    HW128226   0.144   3.171   6.527  0.2826 -1.3279 -0.4164
 9109SOL    HW228227   0.261   3.257   6.602 -0.1475 -2.2946  1.4332
 9110SOL     OW28228   4.352   4.726   4.083  0.0615 -0.5175 -0.4482
 9110SOL    HW128229   4.363   4.666   4.163  2.6945  0.8322  0.3117
 9110SOL    HW228230   4.397   4.684   4.004 -1.9890 -1.5454 -1.1571
 9111SOL     OW28231   2.329   5.110   4.715 -0.0316  0.0626  0.3492
 9111SOL    HW128232   2.387   5.168   4.773  1.2648  0.8820 -1.6812
 9111SOL    HW228233   2.261   5.167   4.668 -0.3157 -0.4270  0.1606
 9112SOL     OW28234   5.427   4.730   2.840  0.2420 -0.2432 -0.0210
 9112SOL    HW128235   5.446   4.652   2.901  0.6546  0.6790  1.0803
 9112SOL    HW228236   5.350   4.708   2.782 -0.1270 -1.2056  0.7892
 9113SOL     OW28237   3.848   0.624   5.294 -0.1305 -0.0299  0.1956
 9113SOL    HW128238   3.880   0.631   5.200  1.7985 -0.0011  0.8079
 9113SOL    HW228239   3.762   0.675   5.304  0.4626  1.3227 -1.1847
 9114SOL     OW28240   2.642   0.919   6.738 -0.4559  0.6184  0.3786
 9114SOL    HW128241   2.605   0.951   6.651 -0.4002 -0.0785  0.0915
 9114SOL    HW228242   2.569   0.881   6.794 -0.2546 -0.4251 -0.0402
 9115SOL     OW28243   2.898   6.406   0.370 -0.2712 -0.3663  0.6678
 9115SOL    HW128244   2.888   6.485   0.310 -3.7492 -0.2768  1.1703
 9115SOL    HW228245   2.894   6.435   0.465  2.1172 -0.8431  0.9744
 9116SOL     OW28246   1.943   1.117   6.640  0.4256  0.2666 -0.0311
 9116SOL    HW128247   1.994   1.031   6.639  1.4134  0.8359 -0.5282
 9116SOL    HW228248   1.949   1.160   6.550 -0.8347  0.4195 -0.0539
 9117SOL     OW28249   4.280   6.612   1.744 -0.0569  0.1576  0.3800
 9117SOL    HW128250   4.186   6.646   1.735  0.0405  0.1072 -1.3090
 9117SOL    HW228251   4.343   6.690   1.752 -0.1981  0.2105  0.9894
 9118SOL     OW28252   5.828   3.410   1.338  0.2657 -0.3513  0.4359
 9118SOL    HW128253   5.904   3.394   1.401 -0.3944 -1.2446  1.0295
 9118SOL    HW228254   5.742   3.414   1.390 -0.2219 -0.4723 -0.3458
 9119SOL     OW28255   3.057   2.504   0.437  0.2432  0.3955 -0.2254
 9119SOL    HW128256   3.083   2.566   0.511 -0.0434 -0.0474  0.2570
 9119SOL    HW228257   2.987   2.547   0.380 -0.9650  0.0253  0.9085
 9120SOL     OW28258   3.181   0.375   4.049 -0.4598 -0.3798  0.0356
 9120SOL    HW128259   3.276   0.362   4.022 -0.3374  1.0513 -0.2892
 9120SOL    HW228260   3.160   0.472   4.054 -2.0161 -0.6673 -0.2470
 9121SOL     OW28261   2.170   5.013   1.074 -0.3953  0.0420  0.1022
 9121SOL    HW128262   2.118   5.009   0.989  0.0889  1.1851 -0.2565
 9121SOL    HW228263   2.138   4.941   1.136 -2.2682  0.6101 -0.1719
 9122SOL     OW28264   5.354   0.063   2.841 -0.6792  0.7965 -1.0790
 9122SOL    HW128265   5.454   0.063   2.835 -0.6539 -1.0071 -1.3403
 9122SOL    HW228266   5.317   0.140   2.788  0.5912  2.4590  0.3579
 9123SOL     OW28267   0.821   5.837   1.008  0.3909 -0.6390  0.3983
 9123SOL    HW128268   0.757   5.844   1.085  0.8326  1.0085  0.6563
 9123SOL    HW228269   0.843   5.741   0.992 -0.9153 -1.1251  1.3199
 9124SOL     OW28270   2.575   1.488   0.134 -0.2111  0.2984  0.1320
 9124SOL    HW128271   2.585   1.505   0.232  0.8145 -0.2493  0.1304
 9124SOL    HW228272   2.477   1.481   0.112 -0.5263  2.1205  0.8033
 9125SOL     OW28273   4.421   5.930   2.483 -0.1888  0.3894 -0.7146
 9125SOL    HW128274   4.443   6.025   2.503 -1.1103  0.5367 -0.3222
 9125SOL    HW228275   4.337   5.905   2.532  0.1563 -0.6837 -0.6482
 9126SOL     OW28276   4.083   1.316   2.417 -0.7736 -0.0681 -0.5908
 9126SOL    HW128277   4.021   1.371   2.474 -0.4019  0.5742 -0.7888
 9126SOL    HW228278   4.047   1.223   2.409 -1.7285  0.2962 -0.7170
 9127SOL     OW28279   1.433   5.883   5.518 -0.0024  0.1462  0.0436
 9127SOL    HW128280   1.342   5.872   5.477 -0.1058 -1.4014  0.6311
 9127SOL    HW228281   1.473   5.969   5.486 -1.6428  0.8448 -0.2644
 9128SOL     OW28282   6.638   0.236   4.506  0.0126  0.2143  0.1198
 9128SOL    HW128283   6.700   0.177   4.557 -0.2671 -1.8580 -1.7648
 9128SOL    HW228284   6.544   0.221   4.537 -0.2508 -1.6236 -1.3961
 9129SOL     OW28285   0.645   0.591   3.432  0.5595  0.0212  0.5972
 9129SOL    HW128286   0.649   0.582   3.333 -0.0620  0.4181  0.5284
 9129SOL    HW228287   0.679   0.507   3.475  1.6456  0.1709  0.0694
 9130SOL     OW28288   5.534   2.345   6.106 -0.0634 -0.6407  0.1161
 9130SOL    HW128289   5.532   2.292   6.190  0.4318  1.0758  1.2638
 9130SOL    HW228290   5.575   2.435   6.124 -0.4440 -0.0248 -1.8347
 9131SOL     OW28291   6.887   4.142   5.817 -0.3396 -0.3027 -0.0302
 9131SOL    HW128292   6.911   4.107   5.908 -0.4152 -0.3887 -0.0428
 9131SOL    HW228293   6.833   4.073   5.768  3.4572 -2.2704 -1.8941
 9132SOL     OW28294   2.922   0.638   2.166  0.3618  0.4470 -0.4102
 9132SOL    HW128295   2.973   0.667   2.085 -0.5579  0.1756 -1.1029
 9132SOL    HW228296   2.892   0.543   2.154 -0.6838  0.7410 -0.2163
 9133SOL     OW28297   2.843   2.578   0.680 -0.3938  0.4176 -0.0188
 9133SOL    HW128298   2.797   2.499   0.641 -1.9027  0.6130  1.3011
 9133SOL    HW228299   2.929   2.549   0.723 -1.3988 -0.7101  1.3256
 9134SOL     OW28300   5.373   0.101   0.591 -0.0333  0.3829  0.0572
 9134SOL    HW128301   5.288   0.082   0.542  0.2211  0.7261 -0.5288
 9134SOL    HW228302   5.360   0.085   0.689 -1.6554  3.1828  0.4050
 9135SOL     OW28303   1.846   5.299   0.366  0.1836  0.4121  0.6387
 9135SOL    HW128304   1.926   5.278   0.309  0.2023  0.3228  0.6978
 9135SOL    HW228305   1.868   5.282   0.462  1.2144  3.4970  1.0881
 9136SOL     OW28306   2.172   1.796   6.495 -0.0840  0.6062 -0.4123
 9136SOL    HW128307   2.105   1.729   6.530 -0.0924 -0.0804 -1.6893
 9136SOL    HW228308   2.135   1.841   6.415  0.3216  1.4642 -0.1252
 9137SOL     OW28309   1.826   5.186   5.337  0.3367 -0.0969  0.2235
 9137SOL    HW128310   1.829   5.259   5.406  0.2847  0.9744 -0.8813
 9137SOL    HW228311   1.917   5.174   5.298 -0.0007  0.5784 -0.8008
 9138SOL     OW28312   5.916   3.652   4.715  0.1180 -0.1947  0.3754
 9138SOL    HW128313   5.909   3.714   4.637 -0.1275 -2.0907 -1.1768
 9138SOL    HW228314   5.824   3.623   4.743  0.2958 -0.9951  0.1375
 9139SOL     OW28315   4.394   1.961   3.720 -0.2100  0.1598  0.2517
 9139SOL    HW128316   4.472   2.015   3.751 -0.3801  1.1893 -0.9774
 9139SOL    HW228317   4.312   1.988   3.770  0.5196 -2.4700  3.1307
 9140SOL     OW28318   4.274   4.732   2.049  0.3873 -0.2338 -0.0525
 9140SOL    HW128319   4.223   4.697   1.970  1.7052  0.0167 -1.0394
 9140SOL    HW228320   4.351   4.672   2.068 -0.3679 -0.7413  1.5880
 9141SOL     OW28321   5.889   5.717   4.362 -0.2622  0.6706 -0.1808
 9141SOL    HW128322   5.937   5.797   4.325  0.1061  0.5728  0.0844
 9141SOL    HW228323   5.872   5.651   4.288  1.1822  0.1147 -0.0412
 9142SOL     OW28324   0.539   5.994   3.735 -0.5161  0.4300  0.0948
 9142SOL    HW128325   0.584   5.908   3.759 -0.0316  0.3861 -0.9174
 9142SOL    HW228326   0.595   6.043   3.668 -1.1010  1.2361  0.1844
 9143SOL     OW28327   4.428   6.440   5.609  0.4003 -0.1330  0.3912
 9143SOL    HW128328   4.372   6.387   5.544 -0.8691  0.0662  1.2760
 9143SOL    HW228329   4.420   6.537   5.589  2.0197 -0.1902 -0.6793
 9144SOL     OW28330   3.878   5.657   3.948 -0.1585 -0.5031 -0.1909
 9144SOL    HW128331   3.929   5.577   3.979  1.4108 -0.0011 -1.3207
 9144SOL    HW228332   3.927   5.700   3.872  0.1197  2.6652  1.5983
 9145SOL     OW28333   0.605   2.391   0.848  0.0361 -0.1489  0.0728
 9145SOL    HW128334   0.680   2.420   0.909 -0.4832  0.4668  0.4343
 9145SOL    HW228335   0.588   2.294   0.861  1.2773 -0.4641 -0.5669
 9146SOL     OW28336   5.470   1.913   5.789 -0.3218  0.0939  0.1242
 9146SOL    HW128337   5.406   1.858   5.735 -0.0112 -0.9903  0.8281
 9146SOL    HW228338   5.564   1.890   5.764 -0.1758  1.1399 -0.3713
 9147SOL     OW28339   3.226   1.299   3.641 -0.1800 -0.0948  0.1420
 9147SOL    HW128340   3.287   1.301   3.561  0.5741  0.3522  0.7191
 9147SOL    HW228341   3.225   1.206   3.679 -0.8855 -0.4193 -0.6310
 9148SOL     OW28342   0.176   6.623   2.017  0.3275  0.7132  0.6364
 9148SOL    HW128343   0.186   6.704   2.075  1.5627  0.8064  0.3338
 9148SOL    HW228344   0.227   6.547   2.058 -0.2026  0.2967  0.5338
 9149SOL     OW28345   1.303   0.787   3.946  0.4424  0.3656  0.6027
 9149SOL    HW128346   1.212   0.805   3.984 -0.1994  0.3786 -0.8689
 9149SOL    HW228347   1.310   0.690   3.922  1.4233  0.0085  2.1728
 9150SOL     OW28348   0.902   6.697   6.711  0.2667 -0.0849 -0.3746
 9150SOL    HW128349   0.849   6.703   6.795  0.6227  1.1489 -0.2194
 9150SOL    HW228350   0.859   6.632   6.648 -1.6649  1.1596 -0.4184
 9151SOL     OW28351   1.752   4.276   5.172 -0.9145 -0.1384 -0.5664
 9151SOL    HW128352   1.745   4.199   5.235 -0.4359 -1.1244 -1.6622
 9151SOL    HW228353   1.681   4.343   5.192 -2.1004 -1.4251 -0.3156
 9152SOL     OW28354   3.084   3.858   3.438  0.0552 -0.5425 -0.2300
 9152SOL    HW128355   3.176   3.829   3.412 -0.8789 -4.2511  0.0691
 9152SOL    HW228356   3.031   3.878   3.355  0.8620  0.9384 -0.4271
 9153SOL     OW28357   4.842   1.603   4.279 -0.8605  0.6684 -0.0252
 9153SOL    HW128358   4.777   1.587   4.205  0.2848  0.0859 -0.9317
 9153SOL    HW228359   4.904   1.525   4.287 -0.2130  1.2417  0.7661
 9154SOL     OW28360   4.431   6.235   3.497  0.5310 -0.0821  0.0523
 9154SOL    HW128361   4.507   6.176   3.527  0.6423  0.4693  0.8860
 9154SOL    HW228362   4.399   6.290   3.574 -0.4423  0.0041 -0.3987
 9155SOL     OW28363   5.080   6.942   6.532  0.5553 -0.0348  0.7274
 9155SOL    HW128364   5.051   7.017   6.471 -2.6179 -1.2849  0.4780
 9155SOL    HW228365   5.083   6.975   6.626 -0.2213  0.5849  0.5491
 9156SOL     OW28366   6.084   3.829   1.433  0.3404 -0.1000 -0.0071
 9156SOL    HW128367   6.108   3.915   1.388  0.9606  0.3254  1.0822
 9156SOL    HW228368   5.999   3.793   1.394 -0.5986  1.6311  0.3363
 9157SOL     OW28369   4.915   3.357   4.524 -0.2167  0.1184 -0.3766
 9157SOL    HW128370   4.902   3.351   4.623  0.6198 -0.4240 -0.2897
 9157SOL    HW228371   4.906   3.452   4.494 -1.6421  0.1424  0.0345
 9158SOL     OW28372   0.983   4.516   1.894  0.0645  0.6238 -0.2305
 9158SOL    HW128373   0.972   4.500   1.796  0.6499  0.4679 -0.2743
 9158SOL    HW228374   1.008   4.612   1.910  2.3479  0.1244 -0.4445
 9159SOL     OW28375   0.865   1.670   5.845 -0.0254 -0.2196 -0.4115
 9159SOL    HW128376   0.788   1.734   5.848 -1.0537 -1.4114 -0.5080
 9159SOL    HW228377   0.929   1.698   5.774 -0.6145  0.5191 -0.6634
 9160SOL     OW28378   5.912   3.953   4.294  0.1346  0.4477 -0.5444
 9160SOL    HW128379   5.993   3.988   4.248 -0.5049  0.9370 -1.3095
 9160SOL    HW228380   5.913   3.853   4.293 -0.0816  0.4494 -2.0068
 9161SOL     OW28381   2.814   4.855   5.939  0.2871 -0.0988  0.3462
 9161SOL    HW128382   2.862   4.788   5.883  0.0452  0.0782 -0.0860
 9161SOL    HW228383   2.872   4.885   6.014  0.5852 -0.4104  0.2403
 9162SOL     OW28384   6.137   1.406   0.807  0.0906  0.2603  0.1423
 9162SOL    HW128385   6.106   1.472   0.877  1.2733 -0.5996  1.5342
 9162SOL    HW228386   6.196   1.452   0.741 -0.2941  0.9032  0.2408
 9163SOL     OW28387   4.211   5.558   6.770 -0.1261 -0.1176 -0.6702
 9163SOL    HW128388   4.227   5.507   6.685  0.3022 -0.8215 -0.1782
 9163SOL    HW228389   4.293   5.553   6.827  0.6369  2.6625 -1.3686
 9164SOL     OW28390   0.725   3.021   0.487 -0.4820 -0.3363 -0.9617
 9164SOL    HW128391   0.630   3.012   0.457 -1.3673  0.0957  1.4904
 9164SOL    HW228392   0.776   2.938   0.463 -1.6070 -0.8112 -1.8051
 9165SOL     OW28393   2.271   0.832   4.128  0.3294  0.1246  0.0481
 9165SOL    HW128394   2.172   0.842   4.136  0.0059 -1.4179 -1.6196
 9165SOL    HW228395   2.296   0.815   4.033  2.0818 -0.7757  0.6269
 9166SOL     OW28396   1.775   0.977   0.223  0.1828  0.1013 -0.2557
 9166SOL    HW128397   1.813   1.054   0.172  1.6876 -0.4048  0.0789
 9166SOL    HW228398   1.682   0.958   0.190  0.7030  0.4881 -2.0118
 9167SOL     OW28399   2.743   1.760   6.738  0.4547 -0.3394 -0.4222
 9167SOL    HW128400   2.818   1.694   6.742  0.5950 -0.3168 -1.9372
 9167SOL    HW228401   2.666   1.727   6.792  2.4406  0.9277  3.5303
 9168SOL     OW28402   1.470   4.389   4.232  0.1610 -0.5708 -0.0388
 9168SOL    HW128403   1.544   4.326   4.211  0.4005 -0.1553 -0.4766
 9168SOL    HW228404   1.449   4.386   4.329  1.1620 -0.2426  0.1929
 9169SOL     OW28405   1.422   5.571   4.134 -0.2022  0.3458  0.2337
 9169SOL    HW128406   1.466   5.495   4.182  2.5471  2.0599  0.6840
 9169SOL    HW228407   1.379   5.632   4.201 -0.7701  0.1375  0.0561
 9170SOL     OW28408   6.574   5.021   3.044 -0.1028 -0.2091 -0.0705
 9170SOL    HW128409   6.671   5.045   3.044 -0.4536  1.5874  2.4085
 9170SOL    HW228410   6.563   4.925   3.071  0.9662 -0.5498 -0.7807
 9171SOL     OW28411   5.808   6.743   1.797 -0.1617  0.2841  1.0857
 9171SOL    HW128412   5.846   6.833   1.820 -1.0817  0.8561  0.4173
 9171SOL    HW228413   5.871   6.696   1.735 -0.6335  1.3296 -0.2166
 9172SOL     OW28414   5.002   2.838   2.662  0.1040  0.3105 -0.5613
 9172SOL    HW128415   5.040   2.884   2.583 -0.2506 -0.1691 -1.0192
 9172SOL    HW228416   4.929   2.776   2.633 -0.4801  0.6147  0.2058
 9173SOL     OW28417   3.445   3.255   0.342 -0.4664  0.4466  0.7436
 9173SOL    HW128418   3.388   3.188   0.294 -0.1127  0.2405  0.6083
 9173SOL    HW228419   3.485   3.212   0.423  0.5310  0.2012  0.1349
 9174SOL     OW28420   2.685   6.671   4.785 -0.3518 -0.2421  0.2465
 9174SOL    HW128421   2.630   6.650   4.703  0.0660 -2.1933  0.4043
 9174SOL    HW228422   2.633   6.732   4.845 -0.6308  1.3012 -1.4826
 9175SOL     OW28423   6.227   0.794   2.978 -0.3772  0.2599  0.7641
 9175SOL    HW128424   6.201   0.845   3.060  0.3124 -0.6114  1.5500
 9175SOL    HW228425   6.221   0.696   2.997 -2.5476 -0.0284 -0.9821
 9176SOL     OW28426   6.403   2.957   5.145 -0.9554 -0.1103  0.1893
 9176SOL    HW128427   6.442   3.005   5.223  1.3877 -0.4874 -0.6504
 9176SOL    HW228428   6.409   2.858   5.159 -1.9111 -0.1782  0.1605
 9177SOL     OW28429   6.587   4.598   2.977 -0.4559 -0.0137 -0.2144
 9177SOL    HW128430   6.662   4.579   2.915 -0.2011  0.7046 -0.1319
 9177SOL    HW228431   6.500   4.583   2.930 -0.2750  1.2618 -1.0020
 9178SOL     OW28432   3.209   0.663   1.233  0.2819  0.1029  0.8090
 9178SOL    HW128433   3.110   0.651   1.224  0.1364  1.0240  1.0960
 9178SOL    HW228434   3.249   0.666   1.141  0.2551 -1.7534  0.6989
 9179SOL     OW28435   4.076   6.009   5.879 -0.2156  0.1812 -0.5901
 9179SOL    HW128436   4.076   6.108   5.897 -2.1200  0.0181  0.5424
 9179SOL    HW228437   4.016   5.989   5.802  1.0912 -0.0211 -1.5989
 9180SOL     OW28438   5.277   5.970   3.464 -0.0054  0.1401  0.1699
 9180SOL    HW128439   5.285   5.900   3.534 -1.7866 -0.9556 -0.6562
 9180SOL    HW228440   5.185   5.969   3.425  0.4405  1.7998 -1.0699
 9181SOL     OW28441   0.978   2.515   2.851 -0.2069  0.2270 -0.3573
 9181SOL    HW128442   0.901   2.578   2.838  0.0984  0.4414 -1.1517
 9181SOL    HW228443   1.041   2.522   2.774  2.4776  2.6563  1.8487
 9182SOL     OW28444   3.492   5.114   3.247  0.3639 -0.1325 -0.2305
 9182SOL    HW128445   3.436   5.196   3.231 -1.7364 -1.2317  1.0626
 9182SOL    HW228446   3.523   5.114   3.342 -0.3101 -1.2039 -0.0027
 9183SOL     OW28447   0.479   2.635   1.276 -0.7107  0.3359  0.1576
 9183SOL    HW128448   0.469   2.538   1.254 -1.3970  0.5952 -0.7646
 9183SOL    HW228449   0.502   2.645   1.373 -0.1176 -0.7585  0.1513
 9184SOL     OW28450   1.197   5.948   4.841  0.4099  0.5755  0.2111
 9184SOL    HW128451   1.137   5.876   4.807  1.6486 -1.1431  1.4777
 9184SOL    HW228452   1.277   5.906   4.885  0.9702  2.7369  1.3720
 9185SOL     OW28453   3.454   5.773   6.962  0.3978 -0.0126  0.3011
 9185SOL    HW128454   3.481   5.680   6.940  1.9522  0.6509 -0.7194
 9185SOL    HW228455   3.533   5.834   6.956 -0.8352  1.6070 -0.3484
 9186SOL     OW28456   6.722   0.130   6.424 -0.0303  0.4238  0.2252
 9186SOL    HW128457   6.651   0.116   6.494 -0.0613  2.4525  0.6822
 9186SOL    HW228458   6.703   0.215   6.375  2.7684  1.7830  1.2684
 9187SOL     OW28459   2.445   2.132   6.873  0.9191 -0.0212  0.2446
 9187SOL    HW128460   2.495   2.213   6.843  0.9021  0.4964  1.5698
 9187SOL    HW228461   2.358   2.127   6.823  0.8382  0.8738  0.2746
 9188SOL     OW28462   4.788   6.545   0.044  0.0059 -0.5818  0.3469
 9188SOL    HW128463   4.713   6.611   0.045  0.4952 -0.0170  0.3328
 9188SOL    HW228464   4.837   6.552  -0.043  0.0079 -1.0257  0.3122
 9189SOL     OW28465   4.159   6.106   0.932 -0.0330  0.1325 -0.2538
 9189SOL    HW128466   4.137   6.063   1.020  0.7930  1.2597  0.5305
 9189SOL    HW228467   4.171   6.204   0.945  0.8808  0.2067 -1.4959
 9190SOL     OW28468   1.581   0.268   3.077 -0.4568  0.6560  0.3104
 9190SOL    HW128469   1.606   0.258   3.173  0.2512  0.7513  0.1472
 9190SOL    HW228470   1.542   0.182   3.043  1.4820 -0.2129  0.0835
 9191SOL     OW28471   2.126   5.538   6.252 -0.2993  0.6897 -0.7107
 9191SOL    HW128472   2.116   5.470   6.180 -0.4025 -0.7678  0.6393
 9191SOL    HW228473   2.223   5.560   6.264 -0.1286 -0.2686 -0.2355
 9192SOL     OW28474   4.496   2.328   0.806  0.0017  0.1634 -0.0203
 9192SOL    HW128475   4.466   2.416   0.843 -0.5606  0.5154 -1.2569
 9192SOL    HW228476   4.430   2.297   0.738  1.9961  0.5825 -2.2817
 9193SOL     OW28477   1.636   0.150   5.083  0.4432  0.2041 -0.0569
 9193SOL    HW128478   1.582   0.233   5.070  0.4565  0.2032 -0.1155
 9193SOL    HW228479   1.693   0.133   5.003 -0.0093 -0.1948 -0.2985
 9194SOL     OW28480   3.052   6.470   3.019  0.0733 -0.2778 -0.3630
 9194SOL    HW128481   3.081   6.376   3.036 -0.4126 -0.5166 -0.7988
 9194SOL    HW228482   3.130   6.532   3.032  1.0054 -0.9668 -2.1915
 9195SOL     OW28483   4.151   1.959   0.752 -0.2424  0.0211 -0.0247
 9195SOL    HW128484   4.140   1.900   0.832  1.8453 -1.3903 -0.6836
 9195SOL    HW228485   4.104   2.045   0.768 -2.4419 -1.3418  1.4584
 9196SOL     OW28486   5.957   3.616   4.049  0.4674 -0.6861  0.4274
 9196SOL    HW128487   5.857   3.604   4.049  0.5410 -1.3409  0.3715
 9196SOL    HW228488   5.987   3.639   3.957  0.2196  0.8823  0.7209
 9197SOL     OW28489   3.959   3.143   3.256  0.2816 -0.1026  0.3620
 9197SOL    HW128490   3.905   3.066   3.224  1.1968 -0.2665 -0.8582
 9197SOL    HW228491   3.899   3.222   3.271 -0.0912  0.5216 -3.4552
 9198SOL     OW28492   5.266   0.081   5.932  0.1119  0.5663 -0.4612
 9198SOL    HW128493   5.174   0.120   5.934  0.4740  1.4295 -0.1938
 9198SOL    HW228494   5.259  -0.019   5.932 -0.8191  0.5990  0.8965
 9199SOL     OW28495   0.973   6.500   2.907 -0.2729 -0.0186 -0.0709
 9199SOL    HW128496   1.010   6.555   2.981  0.0249 -1.4913  0.9112
 9199SOL    HW228497   1.042   6.436   2.874 -0.7399 -0.1292 -0.8790
 9200SOL     OW28498   5.032   0.207   6.362 -0.4475  0.2580  0.2393
 9200SOL    HW128499   4.947   0.158   6.343  0.3964 -0.6463 -1.4108
 9200SOL    HW228500   5.026   0.300   6.328 -0.8493  0.2624  0.3218
 9201SOL     OW28501   6.787   6.120   0.847 -0.0489  0.2416 -0.2404
 9201SOL    HW128502   6.698   6.149   0.883  0.0486 -0.5245  0.6557
 9201SOL    HW228503   6.778   6.028   0.809  0.2877  0.2867 -0.4259
 9202SOL     OW28504   2.057   5.703   4.674 -0.0165  0.0995 -0.5460
 9202SOL    HW128505   2.090   5.631   4.613  0.1775 -0.3858  0.1314
 9202SOL    HW228506   2.101   5.790   4.648  0.4044 -0.1860 -0.8142
 9203SOL     OW28507   2.222   2.954   3.204 -0.6366  0.3506 -0.3873
 9203SOL    HW128508   2.216   3.027   3.135  0.7965  1.1915  0.3144
 9203SOL    HW228509   2.272   2.876   3.166  1.1566  1.2592 -0.0015
 9204SOL     OW28510   0.476   3.052   5.641 -0.1623 -0.0011  0.1745
 9204SOL    HW128511   0.508   3.070   5.734 -2.3225  1.5635  0.6738
 9204SOL    HW228512   0.453   2.955   5.632  2.1591 -0.6568  0.5248
 9205SOL     OW28513   6.640   3.641   4.470  0.8406  0.7908  0.1401
 9205SOL    HW128514   6.675   3.574   4.535 -0.2302 -1.3875 -1.4084
 9205SOL    HW228515   6.540   3.636   4.468  0.8700 -0.6311 -2.9999
 9206SOL     OW28516   3.486   3.942   2.279  0.0106  0.4420  0.0219
 9206SOL    HW128517   3.439   3.930   2.367  0.4785  2.9988  0.6972
 9206SOL    HW228518   3.535   3.858   2.256  0.5314 -0.0392  2.6118
 9207SOL     OW28519   6.965   6.445   6.640  0.1065  0.0090  0.1825
 9207SOL    HW128520   7.030   6.484   6.575  1.5346 -0.1493  1.4447
 9207SOL    HW228521   7.013   6.382   6.701 -1.6730 -1.8768 -0.2553
 9208SOL     OW28522   2.505   0.115   6.827  0.1025  0.4627  0.2979
 9208SOL    HW128523   2.538   0.196   6.779 -2.0382  0.4964 -1.2722
 9208SOL    HW228524   2.508   0.131   6.925  0.6978  2.0432  0.0511
 9209SOL     OW28525   0.362   0.328   0.803  0.4716  0.0553  0.1594
 9209SOL    HW128526   0.283   0.341   0.743  0.0203  0.9464  0.9256
 9209SOL    HW228527   0.426   0.403   0.791  0.6315 -0.0405  0.4007
 9210SOL     OW28528   1.431   5.872   0.951 -0.3586 -0.1443  0.2009
 9210SOL    HW128529   1.470   5.794   0.999 -1.1482 -0.1387  0.8815
 9210SOL    HW228530   1.427   5.951   1.013  2.3545  1.0974 -1.0645
 9211SOL     OW28531   3.196   3.562   3.700 -0.1610 -0.7695 -0.2057
 9211SOL    HW128532   3.141   3.645   3.696 -0.5036 -0.9863 -0.0882
 9211SOL    HW228533   3.266   3.571   3.771  1.0704  0.1669 -1.4851
 9212SOL     OW28534   4.198   5.341   2.077 -0.7586  0.5417  0.3435
 9212SOL    HW128535   4.109   5.341   2.031 -0.5304  0.2013 -0.0951
 9212SOL    HW228536   4.209   5.255   2.128 -0.7455  0.6524  0.5296
 9213SOL     OW28537   2.607   5.918   4.577  0.0771 -0.2942 -0.0297
 9213SOL    HW128538   2.619   6.010   4.612 -0.6627 -0.3031  0.2657
 9213SOL    HW228539   2.693   5.885   4.537  1.1006 -0.4591  2.1787
 9214SOL     OW28540   2.003   0.714   1.702 -0.0915  0.2081 -0.3875
 9214SOL    HW128541   2.060   0.633   1.695  1.6509  1.4355 -0.8808
 9214SOL    HW228542   2.034   0.784   1.637 -2.2030  0.9121 -0.7318
 9215SOL     OW28543   0.328   6.447   1.412  0.2888 -0.4288  0.1457
 9215SOL    HW128544   0.326   6.522   1.478  1.2567 -1.1231  0.9989
 9215SOL    HW228545   0.260   6.378   1.438 -0.3049 -0.0629 -0.3982
 9216SOL     OW28546   3.588   3.172   3.860 -0.0938  0.4509  0.2391
 9216SOL    HW128547   3.625   3.159   3.768  1.6126  0.5568  0.8815
 9216SOL    HW228548   3.595   3.087   3.911 -0.9384  0.4232  0.3260
 9217SOL     OW28549   1.213   6.492   5.844 -0.2682  0.5783  0.1857
 9217SOL    HW128550   1.185   6.524   5.934  1.0032  1.2171  0.3815
 9217SOL    HW228551   1.308   6.518   5.828 -1.2759  3.1741 -2.5489
 9218SOL     OW28552   6.966   4.558   4.828 -0.5476 -0.0550  0.1261
 9218SOL    HW128553   7.002   4.483   4.883 -0.9509  1.0168  1.9168
 9218SOL    HW228554   7.016   4.563   4.742  1.1051 -0.8817  0.9875
 9219SOL     OW28555   3.985   3.038   1.870 -0.5254  0.4169  0.1089
 9219SOL    HW128556   3.938   3.122   1.847  0.2967  1.0557  0.6998
 9219SOL    HW228557   4.031   3.048   1.959 -0.5926 -0.7201  0.2897
 9220SOL     OW28558   3.729   0.233   4.502 -0.3367 -0.1513  0.2897
 9220SOL    HW128559   3.646   0.197   4.458 -0.6239 -1.5803  1.8764
 9220SOL    HW228560   3.790   0.270   4.432 -1.6508 -0.4387 -1.0737
 9221SOL     OW28561   1.291   5.651   4.752 -0.3671 -0.1060  0.1675
 9221SOL    HW128562   1.336   5.712   4.818  2.6666 -0.7974 -1.0763
 9221SOL    HW228563   1.245   5.706   4.682 -0.7611  0.6638  1.0083
 9222SOL     OW28564   2.503   6.826   4.253  0.1214 -0.3394 -0.3764
 9222SOL    HW128565   2.432   6.851   4.318  1.6709 -0.8490  1.6367
 9222SOL    HW228566   2.590   6.865   4.284  1.3121 -2.4154 -0.9326
 9223SOL     OW28567   0.303   3.388   3.524  0.6146 -0.3132 -0.1685
 9223SOL    HW128568   0.310   3.486   3.542  0.4343 -0.5688  1.5000
 9223SOL    HW228569   0.361   3.364   3.446 -0.1128  1.2591 -1.2322
 9224SOL     OW28570   5.104   1.155   0.249  0.2750  0.0414  0.4006
 9224SOL    HW128571   5.163   1.122   0.323  0.7045 -2.2437 -0.8815
 9224SOL    HW228572   5.160   1.199   0.179 -0.0062  1.1459  0.8418
 9225SOL     OW28573   1.494   3.230   5.287  0.3877  0.5447 -0.5195
 9225SOL    HW128574   1.428   3.159   5.265  0.1765  0.5220  0.1782
 9225SOL    HW228575   1.538   3.209   5.374  0.3791  1.2240 -0.3476
 9226SOL     OW28576   6.646   0.502   2.318  0.4097 -0.0256 -0.1856
 9226SOL    HW128577   6.560   0.456   2.295 -0.1236  1.1935 -0.7367
 9226SOL    HW228578   6.675   0.475   2.409  0.6210 -2.1549 -0.8105
 9227SOL     OW28579   7.002   6.898   3.182 -0.1397 -0.1841 -0.1770
 9227SOL    HW128580   6.969   6.942   3.265  0.6970  0.8027 -0.3329
 9227SOL    HW228581   7.038   6.808   3.203  0.3674  0.1880  0.6010
 9228SOL     OW28582   3.591   4.809   6.937  0.5344  0.2435  0.1890
 9228SOL    HW128583   3.651   4.823   7.016  0.4997 -0.0580  0.2689
 9228SOL    HW228584   3.553   4.717   6.940 -0.9060  0.8311  0.7996
 9229SOL     OW28585   6.879   5.679   2.114  0.0222 -0.5717  0.2980
 9229SOL    HW128586   6.888   5.762   2.059 -2.4732  1.4590  2.6261
 9229SOL    HW228587   6.783   5.650   2.115  0.7571 -3.3121 -0.0850
 9230SOL     OW28588   4.080   5.910   2.851  0.0587 -0.1921 -0.2852
 9230SOL    HW128589   4.124   5.841   2.793 -0.1042 -0.7640  0.2550
 9230SOL    HW228590   3.982   5.891   2.856 -0.3488  1.3092 -1.8040
 9231SOL     OW28591   1.925   0.280   1.739 -0.4367  0.5475  0.0213
 9231SOL    HW128592   1.913   0.283   1.838  0.7774 -0.3454  0.2139
 9231SOL    HW228593   1.923   0.185   1.708  1.1146  0.6697 -0.5383
 9232SOL     OW28594   3.962   5.337   1.948  0.1437 -0.5935 -0.4064
 9232SOL    HW128595   3.910   5.422   1.940  0.5749 -0.4562 -2.1767
 9232SOL    HW228596   3.907   5.260   1.917 -0.1252 -0.9363  0.8668
 9233SOL     OW28597   4.613   5.944   4.843  0.3236 -0.2197  0.9568
 9233SOL    HW128598   4.647   5.851   4.861 -0.3947 -0.5931  0.4683
 9233SOL    HW228599   4.610   5.959   4.744  1.6960  0.8237  1.0404
 9234SOL     OW28600   4.557   5.222   1.932  0.3860 -0.3712  0.0688
 9234SOL    HW128601   4.488   5.162   1.972 -1.7650  0.7168 -1.7595
 9234SOL    HW228602   4.511   5.295   1.881  2.9261  0.0638 -1.7609
 9235SOL     OW28603   5.629   3.271   2.631 -0.4672 -0.0440 -0.3600
 9235SOL    HW128604   5.680   3.305   2.552  0.3687 -0.6544 -0.0943
 9235SOL    HW228605   5.642   3.335   2.708  0.9694 -0.8127  0.0885
 9236SOL     OW28606   1.103   2.716   1.482  0.1970  0.6154  0.1588
 9236SOL    HW128607   1.008   2.742   1.464 -0.3405 -1.2722  0.0954
 9236SOL    HW228608   1.117   2.707   1.581  1.4478  4.7090  0.5696
 9237SOL     OW28609   6.810   3.573   6.958 -0.4224 -0.1400 -0.3008
 9237SOL    HW128610   6.720   3.534   6.977 -0.8957  0.5582 -1.0570
 9237SOL    HW228611   6.817   3.664   6.998  0.0688 -0.3000  0.0031
 9238SOL     OW28612   4.180   2.625   6.147  0.2895  0.5489  0.0830
 9238SOL    HW128613   4.146   2.534   6.125 -0.3088  0.7789  0.0129
 9238SOL    HW228614   4.130   2.693   6.093 -1.0611  1.1156  1.9423
 9239SOL     OW28615   6.903   2.874   1.115  0.0086  0.7637  0.3415
 9239SOL    HW128616   6.825   2.917   1.069  0.2095 -1.1456 -1.9991
 9239SOL    HW228617   6.985   2.927   1.098 -0.0252  0.3879 -1.0905
 9240SOL     OW28618   5.139   0.492   4.378  0.0898 -0.2671 -0.1292
 9240SOL    HW128619   5.186   0.499   4.290  0.7459 -1.1734  0.1302
 9240SOL    HW228620   5.139   0.397   4.408 -1.6349 -0.2344  0.0463
 9241SOL     OW28621   0.996   3.663   4.853 -0.0357 -0.0639  0.3761
 9241SOL    HW128622   1.094   3.659   4.831  0.2414  2.4320  0.7728
 9241SOL    HW228623   0.949   3.587   4.810  1.7117  0.1170 -2.0836
 9242SOL     OW28624   2.662   4.684   1.425 -0.0241  0.3051  0.3075
 9242SOL    HW128625   2.706   4.603   1.386 -2.4407  0.9004 -4.3762
 9242SOL    HW228626   2.601   4.656   1.499  0.8437 -1.8222  0.2895
 9243SOL     OW28627   4.257   2.296   2.756  0.2942 -0.4927 -0.1350
 9243SOL    HW128628   4.303   2.208   2.740 -0.0344 -0.8540  0.8417
 9243SOL    HW228629   4.159   2.286   2.738  0.1227 -0.5627  0.8010
 9244SOL     OW28630   4.946   2.346   1.479 -0.1544  0.2132  0.1984
 9244SOL    HW128631   4.860   2.395   1.477 -0.3214 -0.0847 -0.1546
 9244SOL    HW228632   4.931   2.253   1.512  0.2124  0.4925  1.1916
 9245SOL     OW28633   3.281   2.136   3.457 -0.2775 -0.5563  0.2488
 9245SOL    HW128634   3.199   2.115   3.511 -1.6223  1.1016 -1.0198
 9245SOL    HW228635   3.256   2.197   3.381  2.3143  0.9276  0.4580
 9246SOL     OW28636   3.178   5.677   2.325  0.5350  0.4437 -0.5567
 9246SOL    HW128637   3.193   5.648   2.420  1.6234  0.2433 -0.7756
 9246SOL    HW228638   3.084   5.711   2.315 -0.6646 -2.4845 -0.1769
 9247SOL     OW28639   0.052   4.850   0.444  0.1029 -0.0508  0.3203
 9247SOL    HW128640  -0.024   4.915   0.446 -0.0669 -0.2744  1.4257
 9247SOL    HW228641   0.017   4.758   0.429  0.3349  0.0743 -1.1348
 9248SOL     OW28642   5.548   1.811   1.706 -0.1535  0.2612  0.1812
 9248SOL    HW128643   5.499   1.874   1.646 -0.2005 -0.2823 -0.3522
 9248SOL    HW228644   5.492   1.730   1.724 -0.6931  0.9845  2.0333
 9249SOL     OW28645   1.617   1.583   3.000 -0.3462  0.6219 -0.6197
 9249SOL    HW128646   1.670   1.627   2.928 -0.2734  0.8597 -0.4251
 9249SOL    HW228647   1.669   1.585   3.086  1.1991 -2.9356 -1.3033
 9250SOL     OW28648   4.265   1.274   6.095  0.1724  0.2991 -0.4828
 9250SOL    HW128649   4.238   1.205   6.028 -0.4948 -1.7674  1.8014
 9250SOL    HW228650   4.242   1.365   6.059 -0.6571 -0.7497 -2.7962
 9251SOL     OW28651   1.867   1.245   3.531  0.2938 -0.1983 -0.1062
 9251SOL    HW128652   1.874   1.343   3.548  0.1135 -0.3309  0.7737
 9251SOL    HW228653   1.771   1.221   3.516  0.4125 -0.1355 -1.0691
 9252SOL     OW28654   4.352   2.956   5.297 -0.0654 -0.3279 -0.5307
 9252SOL    HW128655   4.435   3.010   5.315 -0.5921 -0.3185  2.5313
 9252SOL    HW228656   4.272   3.015   5.307 -0.6781 -1.5011  3.3918
 9253SOL     OW28657   5.482   4.750   4.751 -0.1517 -0.1090 -0.4543
 9253SOL    HW128658   5.489   4.650   4.756  0.4752 -0.0757 -0.5280
 9253SOL    HW228659   5.399   4.780   4.796 -0.7591 -0.7276 -1.1285
 9254SOL     OW28660   3.851   0.471   5.518 -0.2825 -0.1148  0.0826
 9254SOL    HW128661   3.870   0.529   5.438  0.4996 -1.3479 -0.6669
 9254SOL    HW228662   3.927   0.477   5.582  0.7606 -1.7463 -0.9117
 9255SOL     OW28663   2.989   2.002   1.075 -0.3575  0.2195  0.0882
 9255SOL    HW128664   3.003   2.063   0.997 -1.5258 -0.1538 -0.4348
 9255SOL    HW228665   2.941   1.920   1.045  2.2654 -1.6102  0.5004
 9256SOL     OW28666   1.520   3.615   2.951 -0.9185 -0.3017 -0.8195
 9256SOL    HW128667   1.514   3.612   3.051  2.3993 -1.6891 -0.5438
 9256SOL    HW228668   1.496   3.707   2.919  0.3248  0.9208  1.4998
 9257SOL     OW28669   1.509   1.117   3.155  0.4530 -0.1971  0.1595
 9257SOL    HW128670   1.507   1.122   3.255 -1.7912  0.5448  0.1413
 9257SOL    HW228671   1.538   1.205   3.118  0.4722 -0.2048  0.1564
 9258SOL     OW28672   0.298   4.999   6.172 -0.3784 -0.4099  0.6706
 9258SOL    HW128673   0.269   5.093   6.157 -1.8265 -0.8531  0.5471
 9258SOL    HW228674   0.227   4.937   6.139 -0.6006 -1.5183  3.0474
 9259SOL     OW28675   5.758   0.720   4.723 -0.1005 -0.0390  0.6606
 9259SOL    HW128676   5.691   0.752   4.655 -0.5614  0.8163  1.4962
 9259SOL    HW228677   5.797   0.633   4.692 -1.0136 -0.1561 -0.2350
 9260SOL     OW28678   3.416   5.425   0.663  0.1161 -0.1636  0.0508
 9260SOL    HW128679   3.483   5.477   0.716 -0.1772 -0.8678  1.1540
 9260SOL    HW228680   3.372   5.485   0.595  2.9472 -0.0331 -1.8174
 9261SOL     OW28681   2.667   5.960   5.519  0.3157  0.1466 -0.3136
 9261SOL    HW128682   2.580   5.917   5.497  0.3676  0.0497 -0.3273
 9261SOL    HW228683   2.741   5.912   5.472  0.3575  0.3422 -0.4500
 9262SOL     OW28684   1.435   0.055   3.028 -0.4376 -0.3576 -0.1011
 9262SOL    HW128685   1.340   0.027   3.013  0.0304 -0.6259 -3.3628
 9262SOL    HW228686   1.492  -0.026   3.038 -0.4177 -0.2035  1.3074
 9263SOL     OW28687   4.084   1.186   2.760 -0.3026  0.9559  0.2287
 9263SOL    HW128688   4.174   1.202   2.719  0.5116  0.2578  1.6612
 9263SOL    HW228689   4.019   1.254   2.725  1.0371  2.1613 -0.0354
 9264SOL     OW28690   2.026   0.962   5.260  0.3775  0.6634  0.8202
 9264SOL    HW128691   1.958   0.923   5.323  0.8984  0.0699  1.0201
 9264SOL    HW228692   2.030   0.908   5.176  1.3728  0.0248  1.2534
 9265SOL     OW28693   1.760   4.616   0.592  0.3289  0.0034  0.2069
 9265SOL    HW128694   1.666   4.597   0.620 -0.5209 -1.1996 -3.0317
 9265SOL    HW228695   1.801   4.533   0.555  2.6128  0.6071  1.1968
 9266SOL     OW28696   4.295   4.590   0.117  0.2376 -0.0396 -0.7707
 9266SOL    HW128697   4.317   4.678   0.160  0.1847  0.2848 -1.4079
 9266SOL    HW228698   4.377   4.554   0.072 -0.1061  0.3917 -1.7625
 9267SOL     OW28699   6.516   0.216   3.283  0.1743  0.7083  0.1577
 9267SOL    HW128700   6.478   0.129   3.314  0.3926  0.8231  0.7474
 9267SOL    HW228701   6.605   0.200   3.241  0.8608  0.8037  1.5265
 9268SOL     OW28702   5.636   6.204   5.479 -0.0094  0.6041 -0.5694
 9268SOL    HW128703   5.585   6.145   5.416  0.1373  0.4946 -0.5883
 9268SOL    HW228704   5.697   6.263   5.427  0.0533  0.5705 -0.5348
 9269SOL     OW28705   6.640   0.106   4.149 -0.2325  0.0943  0.2893
 9269SOL    HW128706   6.711   0.111   4.219  0.4875  0.4726 -0.4559
 9269SOL    HW228707   6.580   0.185   4.157 -0.8390 -0.4401  1.1886
 9270SOL     OW28708   2.989   5.919   0.831 -0.0483  0.0727 -0.2111
 9270SOL    HW128709   2.989   5.821   0.847  0.3955  0.2714  1.0968
 9270SOL    HW228710   2.900   5.947   0.794 -0.2970 -0.7513 -0.2587
 9271SOL     OW28711   6.457   1.114   4.987  0.0100 -0.1559  0.3558
 9271SOL    HW128712   6.364   1.149   4.997  0.4153  0.8146  0.8018
 9271SOL    HW228713   6.522   1.180   5.025  1.0494  0.1236 -1.7852
 9272SOL     OW28714   3.044   1.540   1.994 -0.0564  0.0826  0.9170
 9272SOL    HW128715   3.056   1.479   2.073 -0.0889  0.6490  1.3676
 9272SOL    HW228716   3.066   1.633   2.021  0.2244  0.2400  0.1673
 9273SOL     OW28717   2.937   4.251   6.215 -0.6812  0.1761  0.3304
 9273SOL    HW128718   3.007   4.246   6.145 -0.3078  0.4217  0.6790
 9273SOL    HW228719   2.967   4.313   6.288 -1.2045  0.1880  0.5430
 9274SOL     OW28720   1.365   3.737   1.511  0.4322 -0.2838 -0.0369
 9274SOL    HW128721   1.277   3.689   1.519 -0.8079  1.6640 -0.9528
 9274SOL    HW228722   1.356   3.828   1.551  1.4516  0.6058 -1.7284
 9275SOL     OW28723   0.842   3.855   4.008  0.2779  0.4440 -0.5329
 9275SOL    HW128724   0.861   3.897   3.919  0.6401  2.2805  0.3612
 9275SOL    HW228725   0.908   3.782   4.025  2.4859  2.3504 -0.3480
 9276SOL     OW28726   1.757   0.367   1.324  0.1847  0.3053  0.0013
 9276SOL    HW128727   1.674   0.397   1.277 -0.5391 -0.8048  0.5320
 9276SOL    HW228728   1.757   0.402   1.418  2.1945  3.5227 -1.0345
 9277SOL     OW28729   2.465   0.275   2.973  0.0177  0.2000  0.0923
 9277SOL    HW128730   2.395   0.310   3.036 -2.5532 -1.4901 -1.6183
 9277SOL    HW228731   2.462   0.328   2.888  0.5416 -0.1434 -0.1430
 9278SOL     OW28732   2.412   0.198   0.768  0.9349 -0.4620  0.1208
 9278SOL    HW128733   2.510   0.179   0.777  0.8639 -0.1476  1.8947
 9278SOL    HW228734   2.373   0.139   0.696  1.8263 -2.8798  1.5008
 9279SOL     OW28735   2.554   1.261   3.320  0.0331 -0.6039  0.0789
 9279SOL    HW128736   2.614   1.236   3.396  2.2380  2.6211 -0.3878
 9279SOL    HW228737   2.589   1.220   3.235  0.1521 -0.6484  0.1499
 9280SOL     OW28738   2.718   6.513   5.027  0.2104  0.8113  0.7547
 9280SOL    HW128739   2.636   6.457   5.014  0.8128  0.1230 -0.1308
 9280SOL    HW228740   2.728   6.575   4.949  1.2515 -0.0359  0.1935
 9281SOL     OW28741   5.905   2.831   6.891  0.4260 -0.5548 -0.7162
 9281SOL    HW128742   5.932   2.917   6.848  0.2577 -0.7238 -1.1695
 9281SOL    HW228743   5.809   2.812   6.869  0.2617 -0.5147 -0.0453
 9282SOL     OW28744   6.039   6.782   1.349 -0.4402 -0.0092 -0.3056
 9282SOL    HW128745   6.046   6.881   1.358 -1.1664 -0.1370  2.5163
 9282SOL    HW228746   5.944   6.757   1.328 -0.5750 -0.1412  0.4186
 9283SOL     OW28747   3.795   5.248   4.033 -0.2646  0.4369 -0.2435
 9283SOL    HW128748   3.765   5.230   4.126 -0.1471  0.1827 -0.2546
 9283SOL    HW228749   3.724   5.300   3.985 -0.7434 -0.2556 -0.3027
 9284SOL     OW28750   2.317   5.877   0.816 -0.4945 -0.0311  0.1266
 9284SOL    HW128751   2.341   5.935   0.738  0.4884  0.1293  0.5329
 9284SOL    HW228752   2.313   5.933   0.898  0.1336 -0.4697  0.4670
 9285SOL     OW28753   2.320   6.183   4.673 -0.3562  0.1112 -0.5743
 9285SOL    HW128754   2.378   6.220   4.600 -0.2880 -0.1769 -0.6678
 9285SOL    HW228755   2.260   6.256   4.708  1.7292  1.0889  1.2086
 9286SOL     OW28756   5.272   2.588   4.306 -0.2586  0.1645  0.4146
 9286SOL    HW128757   5.224   2.652   4.246 -1.3411  0.2247  1.3057
 9286SOL    HW228758   5.326   2.639   4.373 -0.4612  0.1364  0.6015
 9287SOL     OW28759   3.916   0.291   5.800 -0.0333  0.0529  0.6983
 9287SOL    HW128760   3.861   0.207   5.794 -2.3665  1.3742  2.0308
 9287SOL    HW228761   3.955   0.299   5.891  0.9774 -0.0035  0.2854
 9288SOL     OW28762   2.392   4.888   6.374  0.3659 -0.2416  0.1987
 9288SOL    HW128763   2.429   4.886   6.467  0.7474  1.8561  0.1327
 9288SOL    HW228764   2.355   4.798   6.351  3.2357 -1.7941  1.1642
 9289SOL     OW28765   4.298   2.763   0.804 -0.2571  0.4822 -0.2453
 9289SOL    HW128766   4.223   2.829   0.815 -0.3944  0.1280  1.0612
 9289SOL    HW228767   4.268   2.689   0.744  0.1271  1.9102 -2.3180
 9290SOL     OW28768   6.214   0.693   2.200 -0.1357 -0.3143 -0.2371
 9290SOL    HW128769   6.292   0.638   2.171  1.4413  1.6576  0.0548
 9290SOL    HW228770   6.167   0.647   2.275  0.5197 -1.7003 -0.6432
 9291SOL     OW28771   5.613   3.561   0.824 -0.0288 -0.7656 -0.4738
 9291SOL    HW128772   5.655   3.476   0.856  1.1538 -0.4271 -1.0891
 9291SOL    HW228773   5.613   3.628   0.898  1.1838 -0.5362 -0.6605
 9292SOL     OW28774   4.305   5.205   6.033 -0.3682 -0.0651  0.1949
 9292SOL    HW128775   4.366   5.266   5.983  1.4934 -1.7732  0.2600
 9292SOL    HW228776   4.310   5.113   5.993 -0.5932 -0.9341  2.0630
 9293SOL     OW28777   2.992   6.982   1.068  0.7887  0.8046  0.3641
 9293SOL    HW128778   2.897   6.997   1.041  1.1793  1.5757 -0.6666
 9293SOL    HW228779   2.995   6.923   1.148 -0.5406  0.4643  0.1873
 9294SOL     OW28780   4.714   1.475   4.800 -0.4325 -0.9406  0.5424
 9294SOL    HW128781   4.681   1.521   4.718  3.0836  1.0813  0.0759
 9294SOL    HW228782   4.641   1.473   4.869 -2.4251  0.3381 -1.3985
 9295SOL     OW28783   6.225   6.630   6.978  0.5126 -0.6153  0.2142
 9295SOL    HW128784   6.310   6.672   7.011  0.0737 -1.0689  2.0356
 9295SOL    HW228785   6.159   6.703   6.957 -0.1495 -0.2613  3.0963
 9296SOL     OW28786   2.150   0.304   1.996  0.6268 -0.3416  0.8200
 9296SOL    HW128787   2.197   0.345   1.918  0.5553 -0.7531  0.5584
 9296SOL    HW228788   2.053   0.330   1.995  0.8485  0.5344  1.3780
 9297SOL     OW28789   2.503   5.233   1.564 -0.0800  0.4064 -0.3217
 9297SOL    HW128790   2.485   5.305   1.631  2.6984  0.1041  0.8755
 9297SOL    HW228791   2.577   5.260   1.504  0.1841 -0.9600 -0.6412
 9298SOL     OW28792   2.181   3.116   4.571 -0.0740  0.4054  0.2689
 9298SOL    HW128793   2.156   3.213   4.569 -2.4534 -0.0770  2.0087
 9298SOL    HW228794   2.227   3.095   4.657  1.6492  0.1840 -0.6572
 9299SOL     OW28795   0.804   3.992   0.685 -0.0520 -0.4946 -0.4333
 9299SOL    HW128796   0.781   3.972   0.780  1.1053 -0.5861 -0.1578
 9299SOL    HW228797   0.722   3.983   0.628 -0.5005 -1.6760  0.3633
 9300SOL     OW28798   2.908   3.314   0.075 -0.1873  0.4941 -0.2334
 9300SOL    HW128799   2.971   3.334   0.150  0.6387  0.7128 -0.9573
 9300SOL    HW228800   2.831   3.261   0.109  1.2276 -1.2696  0.3801
 9301SOL     OW28801   5.712   2.915   2.101  0.4436  0.7031 -0.2332
 9301SOL    HW128802   5.764   2.839   2.140  1.8198  1.5306 -0.3726
 9301SOL    HW228803   5.728   2.998   2.155  0.9873  1.4585 -1.4865
 9302SOL     OW28804   4.909   2.219   3.829  0.0893 -0.1707  0.8646
 9302SOL    HW128805   4.834   2.262   3.879  0.7295  0.4116  1.3343
 9302SOL    HW228806   4.984   2.200   3.892  1.2994  1.4595 -0.0298
 9303SOL     OW28807   6.133   1.664   2.078  0.3536 -0.4508 -0.0586
 9303SOL    HW128808   6.159   1.649   2.173 -0.0558 -0.2356  0.0886
 9303SOL    HW228809   6.211   1.703   2.028  0.9787 -1.7289 -0.1155
 9304SOL     OW28810   4.863   3.139   3.305 -0.1663  0.3919 -0.3750
 9304SOL    HW128811   4.776   3.185   3.319  0.1302  0.9873 -0.4843
 9304SOL    HW228812   4.936   3.206   3.294  0.3708 -0.0990  0.0675
 9305SOL     OW28813   4.836   6.666   2.322 -0.5168  0.0955  0.1980
 9305SOL    HW128814   4.814   6.572   2.296 -2.1045  0.4449  0.1939
 9305SOL    HW228815   4.751   6.717   2.336  0.3191  1.6341 -0.1959
 9306SOL     OW28816   2.996   2.565   6.970  0.0759 -0.2679  0.2639
 9306SOL    HW128817   3.061   2.640   6.978  1.0571 -1.1184  0.5138
 9306SOL    HW228818   3.044   2.478   6.978 -0.7875 -0.9804 -1.5875
 9307SOL     OW28819   5.500   5.583   3.727 -0.1498 -0.3215 -0.2446
 9307SOL    HW128820   5.586   5.587   3.676 -0.0590 -2.4299 -0.3819
 9307SOL    HW228821   5.518   5.548   3.819 -0.9825 -2.5491 -0.8420
 9308SOL     OW28822   1.051   4.873   4.046 -0.2417  0.0211  0.3429
 9308SOL    HW128823   0.969   4.926   4.066 -0.3124 -0.0190  0.1609
 9308SOL    HW228824   1.035   4.777   4.068 -0.7470 -0.2409 -1.0465
 9309SOL     OW28825   0.033   5.979   6.575 -0.0601 -0.0604  0.2302
 9309SOL    HW128826  -0.047   5.918   6.580 -0.0480 -0.1328 -0.3523
 9309SOL    HW228827   0.027   6.033   6.491 -0.3235  1.1074  0.9886
 9310SOL     OW28828   0.146   6.343   2.224 -0.2811 -0.8023  0.0807
 9310SOL    HW128829   0.179   6.378   2.137  0.8416 -1.2720  0.2918
 9310SOL    HW228830   0.224   6.324   2.284 -0.9892 -1.2570  0.8884
 9311SOL     OW28831   1.052   0.950   5.605 -0.7969 -0.2852  0.1661
 9311SOL    HW128832   1.018   0.902   5.524  0.5177 -0.6139 -0.2099
 9311SOL    HW228833   1.110   0.889   5.659  1.5173  1.0241 -0.7120
 9312SOL     OW28834   6.567   3.763   6.560  0.3310  0.5179  0.1225
 9312SOL    HW128835   6.572   3.860   6.537 -2.2894  1.2179  1.9781
 9312SOL    HW228836   6.541   3.753   6.656 -0.0013 -2.0081 -0.1577
 9313SOL     OW28837   2.594   5.175   2.521  0.6990  0.0565 -0.2710
 9313SOL    HW128838   2.680   5.126   2.514 -0.7218 -2.4833 -1.5486
 9313SOL    HW228839   2.546   5.149   2.605 -0.4829 -1.6529 -1.3989
 9314SOL     OW28840   4.026   0.740   4.617  0.4554 -0.0892 -0.4704
 9314SOL    HW128841   4.096   0.679   4.655  1.5476 -0.6542 -3.1381
 9314SOL    HW228842   3.940   0.690   4.608  0.5487 -0.3489  0.0407
 9315SOL     OW28843   3.545   5.451   2.552  0.3495 -0.1856  0.4592
 9315SOL    HW128844   3.484   5.372   2.545  0.6865 -0.4530  0.5269
 9315SOL    HW228845   3.583   5.456   2.644 -0.5552  0.7192  0.8021
 9316SOL     OW28846   5.720   1.767   7.004  0.2271 -0.1508 -0.4718
 9316SOL    HW128847   5.719   1.709   7.085  2.3568 -0.3591 -0.5381
 9316SOL    HW228848   5.643   1.744   6.944 -0.4252 -1.1071  0.7042
 9317SOL     OW28849   0.845   5.135   4.581  0.1726  0.1191  1.0135
 9317SOL    HW128850   0.761   5.168   4.624  0.1774  0.5615  0.6916
 9317SOL    HW228851   0.877   5.203   4.514  1.4632  0.5375  2.0188
 9318SOL     OW28852   6.164   0.762   0.301 -0.1572  0.4557  0.6504
 9318SOL    HW128853   6.208   0.735   0.387 -1.8783  1.8862  2.0487
 9318SOL    HW228854   6.181   0.859   0.285 -2.3524  0.9507  1.0142
 9319SOL     OW28855   3.379   1.499   1.723  0.1272  0.2709 -0.6762
 9319SOL    HW128856   3.382   1.462   1.631  1.8076 -1.1481 -0.1102
 9319SOL    HW228857   3.287   1.532   1.744 -0.5015 -0.2491 -2.4996
 9320SOL     OW28858   2.036   7.022   1.090 -0.2176  0.1733  0.4738
 9320SOL    HW128859   2.072   6.938   1.130  0.9924  0.7014  0.5104
 9320SOL    HW228860   2.027   7.011   0.991  0.7816  0.2942  0.3638
 9321SOL     OW28861   5.489   4.032   2.211  0.8074  0.2679  0.2308
 9321SOL    HW128862   5.568   4.007   2.156  1.6528  0.2556  1.4041
 9321SOL    HW228863   5.520   4.069   2.299 -0.4989 -0.4354  1.0201
 9322SOL     OW28864   6.413   5.630   4.555 -0.3761 -0.0111 -0.8926
 9322SOL    HW128865   6.474   5.707   4.538  0.7910 -1.0076 -1.3407
 9322SOL    HW228866   6.368   5.643   4.644 -0.8794  1.5984 -1.3534
 9323SOL     OW28867   4.995   1.175   4.094  0.2332 -0.5733 -0.0396
 9323SOL    HW128868   4.973   1.218   4.007  0.9813  0.3787  0.2263
 9323SOL    HW228869   5.066   1.228   4.141 -0.4586 -0.8175  1.3453
 9324SOL     OW28870   2.564   4.726   6.623  0.1847  0.0570  0.2796
 9324SOL    HW128871   2.488   4.700   6.682 -0.0127  1.5097  0.7048
 9324SOL    HW228872   2.607   4.644   6.586 -0.6929 -0.8295  1.1629
 9325SOL     OW28873   6.484   3.234   2.452  0.2780 -0.3326 -0.7755
 9325SOL    HW128874   6.419   3.247   2.527 -0.6104 -1.5291 -1.2974
 9325SOL    HW228875   6.576   3.258   2.483 -0.2424  0.3224  0.3294
 9326SOL     OW28876   5.703   4.170   2.725  0.6509 -0.0601 -0.0366
 9326SOL    HW128877   5.770   4.242   2.744  0.4117  0.0470  0.4279
 9326SOL    HW228878   5.748   4.080   2.731  1.4688  0.0905 -2.7873
 9327SOL     OW28879   4.263   1.050   4.389 -0.5486  0.6734 -0.0589
 9327SOL    HW128880   4.260   0.952   4.411 -0.8213  0.3669 -1.3726
 9327SOL    HW228881   4.175   1.092   4.408 -0.2559  0.8020  1.0631
 9328SOL     OW28882   2.331   2.043   4.272 -0.2841  0.1466  0.3881
 9328SOL    HW128883   2.242   2.036   4.226  0.2184 -0.0827 -0.5599
 9328SOL    HW228884   2.346   2.138   4.300 -0.1719  0.4978 -0.7979
 9329SOL     OW28885   5.587   6.045   4.505 -0.2951  0.4893  0.5674
 9329SOL    HW128886   5.526   6.031   4.427  0.5619  2.3003 -0.5028
 9329SOL    HW228887   5.604   5.958   4.550 -0.7897 -0.6371 -1.3011
 9330SOL     OW28888   5.589   1.405   6.741  0.6507 -0.5633 -0.5287
 9330SOL    HW128889   5.566   1.365   6.652  1.8912  0.5304 -1.3796
 9330SOL    HW228890   5.513   1.392   6.804 -0.8197 -0.1810 -2.1459
 9331SOL     OW28891   4.852   3.083   2.240 -0.1410 -0.3805 -0.4169
 9331SOL    HW128892   4.817   3.066   2.148 -1.0250  1.4550 -0.4694
 9331SOL    HW228893   4.830   3.005   2.299  1.9262 -2.3587 -2.1007
 9332SOL     OW28894   0.267   4.409   5.805 -0.2654  0.5751 -0.9662
 9332SOL    HW128895   0.304   4.332   5.753 -2.0125  0.0484 -1.5070
 9332SOL    HW228896   0.170   4.420   5.783 -1.1167  0.3403  2.1450
 9333SOL     OW28897   0.198   5.751   1.315  0.0257 -0.6341  0.1346
 9333SOL    HW128898   0.261   5.827   1.330  0.3494 -0.4339 -1.9436
 9333SOL    HW228899   0.119   5.760   1.376  0.9810  0.2669  1.2898
 9334SOL     OW28900   2.892   0.102   6.965  0.1753  0.1721 -0.2195
 9334SOL    HW128901   2.804   0.057   6.952  0.3302 -0.0081 -0.6563
 9334SOL    HW228902   2.927   0.081   7.056  1.1569 -2.1781 -1.0725
 9335SOL     OW28903   4.067   4.230   0.984  0.1318  0.2836  1.0592
 9335SOL    HW128904   3.973   4.197   0.978  0.9550 -2.0318 -3.3774
 9335SOL    HW228905   4.116   4.176   1.053 -0.8784 -1.2893  0.6242
 9336SOL     OW28906   1.440   3.739   3.230 -0.5143  0.5849  0.0922
 9336SOL    HW128907   1.495   3.664   3.266 -0.6053 -0.2157 -1.3587
 9336SOL    HW228908   1.343   3.716   3.237 -0.6419  1.4452  1.4696
 9337SOL     OW28909   2.010   6.833   6.480  0.8155 -0.4544  0.3766
 9337SOL    HW128910   2.049   6.830   6.388 -0.2337 -0.3750 -0.0881
 9337SOL    HW228911   2.004   6.740   6.517  1.4418 -0.4655  0.4588
 9338SOL     OW28912   6.906   3.472   0.533 -0.1387 -0.5398  0.0313
 9338SOL    HW128913   6.862   3.510   0.614 -1.5246 -0.1272 -0.8834
 9338SOL    HW228914   6.933   3.377   0.551  2.5741  0.4575  2.0475
 9339SOL     OW28915   6.334   3.644   1.858 -0.5210 -0.6673  0.3037
 9339SOL    HW128916   6.336   3.572   1.790  0.5834 -0.7986  0.4639
 9339SOL    HW228917   6.274   3.718   1.827  0.3680 -0.4808 -1.0544
 9340SOL     OW28918   6.982   4.365   5.201 -0.3590 -0.6303  0.0435
 9340SOL    HW128919   7.056   4.396   5.260  0.0762 -1.7896  0.1157
 9340SOL    HW228920   7.016   4.356   5.107 -0.3805 -1.2560  0.0941
 9341SOL     OW28921   1.023   4.280   5.324 -0.3461  0.0847 -0.1487
 9341SOL    HW128922   1.083   4.201   5.339 -1.2625 -0.7815 -0.8691
 9341SOL    HW228923   1.067   4.344   5.261  0.4127  0.1763  0.4546
 9342SOL     OW28924   4.830   4.858   6.185 -0.6933 -0.2841  0.2968
 9342SOL    HW128925   4.923   4.866   6.219 -0.5860 -1.2570  0.2670
 9342SOL    HW228926   4.815   4.924   6.111  0.2250 -0.6674 -0.2470
 9343SOL     OW28927   1.529   6.714   5.616 -0.1681 -0.1074  0.0913
 9343SOL    HW128928   1.559   6.776   5.543  1.6930 -0.8580  0.1644
 9343SOL    HW228929   1.552   6.620   5.591 -1.0297 -0.5501  0.9143
 9344SOL     OW28930   5.506   5.178   1.816 -0.2129  0.3280  0.1311
 9344SOL    HW128931   5.559   5.260   1.835 -1.6297  0.9592  1.5934
 9344SOL    HW228932   5.477   5.137   1.902 -0.7779 -0.8881 -0.6115
 9345SOL     OW28933   0.378   5.187   5.528  0.0931  0.2102 -0.0994
 9345SOL    HW128934   0.432   5.185   5.612 -2.6546  1.0941  1.8383
 9345SOL    HW228935   0.310   5.114   5.530 -0.8473  1.0154 -0.9242
 9346SOL     OW28936   0.339   3.715   5.793  0.4867  0.0230  0.2067
 9346SOL    HW128937   0.423   3.764   5.769  0.5974  0.3348  1.1997
 9346SOL    HW228938   0.346   3.621   5.758  1.2865  0.0175  0.3513
 9347SOL     OW28939   2.463   3.152   0.010 -0.2612 -0.2212 -0.0966
 9347SOL    HW128940   2.423   3.233  -0.034 -1.1144  0.0044  1.0435
 9347SOL    HW228941   2.555   3.137  -0.026  0.3758  1.9497  0.4962
 9348SOL     OW28942   6.358   3.564   2.209  0.0714 -0.1126 -0.0083
 9348SOL    HW128943   6.344   3.465   2.216  0.2109 -0.3301 -2.2465
 9348SOL    HW228944   6.376   3.588   2.114 -1.2337  2.2392  0.2763
 9349SOL     OW28945   2.001   7.016   0.476 -0.0209  0.3522  0.3321
 9349SOL    HW128946   1.943   6.935   0.470  1.4053 -0.6780 -0.0417
 9349SOL    HW228947   2.012   7.042   0.572  0.3738 -0.5511  0.5359
 9350SOL     OW28948   2.292   4.824   0.740  0.5351  0.0172  0.0777
 9350SOL    HW128949   2.325   4.825   0.645 -1.1211  1.5012 -0.5287
 9350SOL    HW228950   2.266   4.731   0.765  0.6645 -0.3381 -1.0408
 9351SOL     OW28951   0.478   0.900   3.221  0.1515 -0.0278  1.0594
 9351SOL    HW128952   0.523   0.894   3.310  1.1796  0.7801  0.6177
 9351SOL    HW228953   0.542   0.875   3.149 -0.8765 -1.3534  0.5744
 9352SOL     OW28954   2.117   5.377   5.468  0.1032 -0.2005 -0.4065
 9352SOL    HW128955   2.120   5.414   5.561 -1.1545 -0.9840 -0.0346
 9352SOL    HW228956   2.182   5.427   5.410 -0.4007  1.5157  0.4420
 9353SOL     OW28957   2.734   5.997   3.142 -0.5134  0.2361 -0.2001
 9353SOL    HW128958   2.811   6.035   3.091  0.5058 -1.5939 -0.0817
 9353SOL    HW228959   2.652   5.998   3.084  0.3022 -0.5413 -1.4178
 9354SOL     OW28960   2.315   2.379   3.900 -0.1974 -0.0918 -0.4273
 9354SOL    HW128961   2.343   2.459   3.952  0.0769  1.2813 -2.5770
 9354SOL    HW228962   2.216   2.380   3.888 -0.3374 -0.7464  0.5340
 9355SOL     OW28963   4.330   4.917   3.175  0.1211 -0.0559 -0.1285
 9355SOL    HW128964   4.289   4.998   3.216 -1.2005 -0.7095 -0.1014
 9355SOL    HW228965   4.411   4.890   3.227  0.3336  0.9941  0.1058
 9356SOL     OW28966   2.718   3.934   5.285  0.0239  0.6704  0.6645
 9356SOL    HW128967   2.622   3.961   5.275 -0.3808 -0.4377  1.4089
 9356SOL    HW228968   2.758   3.982   5.363 -0.0529  0.7942  0.6282
 9357SOL     OW28969   6.010   5.524   2.265  0.4234  0.9441 -0.0074
 9357SOL    HW128970   6.063   5.549   2.184  0.1854 -1.0701 -0.8340
 9357SOL    HW228971   6.005   5.425   2.273  0.9461  1.0561  2.8449
 9358SOL     OW28972   4.597   1.143   3.509 -0.1976 -0.0599  0.1651
 9358SOL    HW128973   4.549   1.067   3.554 -1.0468  0.8036  0.7664
 9358SOL    HW228974   4.530   1.201   3.462  0.2722  0.9908  0.7461
 9359SOL     OW28975   4.228   5.331   5.162 -0.4865  0.3256 -0.8247
 9359SOL    HW128976   4.198   5.288   5.077  0.0745 -1.1329 -0.3306
 9359SOL    HW228977   4.161   5.313   5.234  0.4928 -1.1556 -0.2279
 9360SOL     OW28978   1.837   4.100   6.788 -0.7974 -0.9266 -0.4750
 9360SOL    HW128979   1.872   4.116   6.696  0.3019  1.0688  0.2113
 9360SOL    HW228980   1.797   4.185   6.824  0.2992 -1.1678  1.4809
 9361SOL     OW28981   0.489   6.170   2.131  0.6502 -0.8547  0.3363
 9361SOL    HW128982   0.489   6.119   2.217  0.4955 -3.2321 -1.0027
 9361SOL    HW228983   0.485   6.106   2.054 -0.9506  1.2421 -1.4406
 9362SOL     OW28984   0.366   5.005   2.263 -0.1268 -0.1181 -0.8063
 9362SOL    HW128985   0.378   5.016   2.164  0.8914 -1.0339 -0.8066
 9362SOL    HW228986   0.383   4.910   2.288 -0.9247 -0.0098  0.1838
 9363SOL     OW28987   1.802   0.570   3.699 -0.3729 -0.5511 -0.3642
 9363SOL    HW128988   1.865   0.627   3.647  1.2303 -2.2741 -0.3898
 9363SOL    HW228989   1.708   0.604   3.686  0.1400  0.0903 -3.0155
 9364SOL     OW28990   3.946   3.981   6.418 -0.3875 -0.2979 -0.1131
 9364SOL    HW128991   3.940   3.888   6.454  0.1987 -1.3128 -2.4259
 9364SOL    HW228992   3.875   3.995   6.349  1.0647  0.0801 -1.5859
 9365SOL     OW28993   6.250   0.587   3.838  0.2302  0.3870  0.5803
 9365SOL    HW128994   6.252   0.492   3.870 -1.4962 -0.2776 -1.0834
 9365SOL    HW228995   6.343   0.621   3.829  0.8930 -1.2482  0.9209
 9366SOL     OW28996   6.865   6.402   0.411 -0.1644  0.4027 -0.1226
 9366SOL    HW128997   6.931   6.351   0.465  0.2536  0.1639 -0.8408
 9366SOL    HW228998   6.796   6.443   0.471  0.4870  0.4402  0.6135
 9367SOL     OW28999   2.844   0.341   4.579  0.0103 -0.2013  0.0042
 9367SOL    HW129000   2.787   0.411   4.621 -0.0076  0.1524 -0.6061
 9367SOL    HW229001   2.940   0.361   4.597 -0.0305 -0.6224  0.7567
 9368SOL     OW29002   4.277   4.012   1.680  0.3442  0.1294 -0.2369
 9368SOL    HW129003   4.263   3.927   1.730 -0.3429 -0.3207 -1.1655
 9368SOL    HW229004   4.310   4.083   1.742  2.4306 -1.2048  0.2738
 9369SOL     OW29005   2.974   2.345   1.088  0.2039 -0.6107 -0.0405
 9369SOL    HW129006   2.943   2.329   0.994  0.9677  1.1598 -0.6406
 9369SOL    HW229007   2.895   2.370   1.145 -0.1409 -0.8323 -0.4188
 9370SOL     OW29008   0.663   1.270   2.567  0.8099  0.1616  0.3687
 9370SOL    HW129009   0.608   1.259   2.484  0.4111  1.4942  0.4349
 9370SOL    HW229010   0.603   1.274   2.647  0.7611  3.3363  0.3013
 9371SOL     OW29011   3.228   0.911   0.705 -0.1310  0.4081 -0.1271
 9371SOL    HW129012   3.278   0.825   0.711 -0.0549  0.2702 -2.1978
 9371SOL    HW229013   3.209   0.945   0.798 -0.3600 -1.9110  0.7431
 9372SOL     OW29014   5.868   4.965   3.548 -0.2541  0.5873 -0.1714
 9372SOL    HW129015   5.780   4.920   3.565  0.2229 -0.9134 -1.4931
 9372SOL    HW229016   5.853   5.051   3.498 -0.9661  0.3694 -0.3384
 9373SOL     OW29017   3.404   2.147   1.283  0.2700 -0.3745  0.6068
 9373SOL    HW129018   3.335   2.218   1.291  0.6928  0.7437 -3.3127
 9373SOL    HW229019   3.373   2.078   1.217  2.5352 -0.1456 -0.8252
 9374SOL     OW29020   1.259   5.837   5.310 -0.0426 -0.0414  0.5780
 9374SOL    HW129021   1.220   5.780   5.383  0.4250 -1.1670 -0.0322
 9374SOL    HW229022   1.234   5.933   5.326 -0.1907 -0.3050  2.0503
 9375SOL     OW29023   0.792   3.302   1.979 -0.1682  0.7182  0.2132
 9375SOL    HW129024   0.885   3.276   2.002 -0.3305  0.0631  0.1596
 9375SOL    HW229025   0.792   3.356   1.895  0.0231 -0.7086 -0.7336
 9376SOL     OW29026   1.955   2.709   3.415 -0.2663  0.1371  0.2891
 9376SOL    HW129027   1.913   2.649   3.484 -0.4709 -1.9068 -1.5079
 9376SOL    HW229028   2.041   2.745   3.450 -1.2456  0.6627  2.2836
 9377SOL     OW29029   6.712   0.101   1.546  0.5599 -0.3259  0.2449
 9377SOL    HW129030   6.783   0.128   1.611  0.6575 -1.2087  0.5153
 9377SOL    HW229031   6.622   0.121   1.585  0.6165 -0.8696  0.6676
 9378SOL     OW29032   2.172   1.759   0.664 -0.7287 -0.3437 -0.6874
 9378SOL    HW129033   2.127   1.679   0.703 -1.0414 -0.4550 -1.2631
 9378SOL    HW229034   2.255   1.729   0.616 -0.0313 -0.1419  0.3586
 9379SOL     OW29035   4.289   5.319   1.583  0.2593 -0.4673 -0.3153
 9379SOL    HW129036   4.346   5.382   1.636 -3.2014  2.5394  0.1609
 9379SOL    HW229037   4.265   5.240   1.640 -1.2595  1.4478  1.8615
 9380SOL     OW29038   4.494   4.459   5.388  0.1831 -0.0101 -0.3069
 9380SOL    HW129039   4.421   4.472   5.320  0.5971  2.0327 -0.4398
 9380SOL    HW229040   4.583   4.475   5.344  0.4688  1.0783  0.6350
 9381SOL     OW29041   1.517   1.004   0.164 -0.7740 -0.3718  0.0955
 9381SOL    HW129042   1.461   0.932   0.206 -2.3965  0.2844 -0.8504
 9381SOL    HW229043   1.459   1.082   0.141  1.0914  1.6927  1.9582
 9382SOL     OW29044   0.230   1.848   0.338  0.0341 -0.2711  0.0106
 9382SOL    HW129045   0.193   1.900   0.415 -1.3409  0.4130 -1.0633
 9382SOL    HW229046   0.329   1.862   0.333 -0.2297  1.9274 -0.0014
 9383SOL     OW29047   1.525   1.260   5.059 -0.2990 -0.4322 -0.0320
 9383SOL    HW129048   1.471   1.240   5.141 -0.4409 -0.1040 -0.0433
 9383SOL    HW229049   1.483   1.336   5.009 -1.5038 -2.0606 -1.6156
 9384SOL     OW29050   1.079   3.099   1.841  0.2644 -0.5552  0.1540
 9384SOL    HW129051   1.145   3.137   1.776  0.0054  1.3866  0.9508
 9384SOL    HW229052   1.074   3.158   1.921 -4.0752  0.7285 -0.8149
 9385SOL     OW29053   6.765   3.202   1.684 -0.6286  0.3383  0.3495
 9385SOL    HW129054   6.846   3.240   1.728  1.3624 -0.1862 -2.5797
 9385SOL    HW229055   6.704   3.277   1.657  1.5179  1.3677 -2.1259
 9386SOL     OW29056   0.075   2.369   6.193  0.1368 -0.2952 -0.7916
 9386SOL    HW129057  -0.009   2.397   6.239  0.6811 -1.0436  0.7110
 9386SOL    HW229058   0.127   2.450   6.167 -0.5954  0.1510 -0.9069
 9387SOL     OW29059   2.246   4.482   1.030  0.0151 -0.3956 -0.0544
 9387SOL    HW129060   2.225   4.539   1.110  0.6295 -0.0670 -0.1247
 9387SOL    HW229061   2.265   4.389   1.059 -1.8028 -0.7976 -0.0023
 9388SOL     OW29062   2.466   0.279   4.579 -0.1223  0.2323 -0.3228
 9388SOL    HW129063   2.452   0.292   4.480  0.3947  0.8389 -0.3264
 9388SOL    HW229064   2.427   0.192   4.607  0.8423 -0.5494 -1.3091
 9389SOL     OW29065   1.760   5.164   0.996 -0.8169  0.1150  0.1295
 9389SOL    HW129066   1.804   5.080   0.963  1.5970 -0.3567  3.9147
 9389SOL    HW229067   1.805   5.243   0.955 -1.2480 -0.3962 -1.3753
 9390SOL     OW29068   3.062   5.377   3.158 -0.0505  0.4602  0.1073
 9390SOL    HW129069   2.987   5.313   3.174  0.5322  0.1559  1.8568
 9390SOL    HW229070   3.126   5.336   3.092 -1.2371  0.6131 -1.1931
 9391SOL     OW29071   5.246   1.509   2.010 -0.2923  0.0470  0.3215
 9391SOL    HW129072   5.189   1.555   2.078  0.8353  2.2482 -0.1253
 9391SOL    HW229073   5.342   1.517   2.036  0.0066 -1.2588 -0.2902
 9392SOL     OW29074   5.991   5.133   4.992 -0.1364 -0.7167 -0.1711
 9392SOL    HW129075   6.019   5.039   5.011 -0.6667 -1.0837 -1.1189
 9392SOL    HW229076   5.895   5.146   5.019 -0.8490 -1.2001 -2.3042
 9393SOL     OW29077   2.139   2.809   2.087  0.4257 -0.1406 -0.5325
 9393SOL    HW129078   2.139   2.898   2.132  1.0372 -0.6139  0.4494
 9393SOL    HW229079   2.203   2.810   2.010  1.3315 -0.0747  0.2085
 9394SOL     OW29080   4.542   6.701   7.004 -0.2033  0.1925  0.0270
 9394SOL    HW129081   4.595   6.762   6.944  0.3849  1.0952  1.4198
 9394SOL    HW229082   4.494   6.634   6.948 -0.3346  1.5035 -1.5225
 9395SOL     OW29083   6.938   1.527   3.243  0.3666  0.0457 -0.2422
 9395SOL    HW129084   6.926   1.429   3.261  0.5957  0.1584  0.5496
 9395SOL    HW229085   6.948   1.542   3.144  1.7194 -0.8833 -0.2667
 9396SOL     OW29086   2.996   1.526   3.235  0.0210 -0.1084  0.8117
 9396SOL    HW129087   3.079   1.550   3.284  1.7208 -1.4316 -1.2297
 9396SOL    HW229088   2.916   1.563   3.284  1.7672  1.3747  2.7315
 9397SOL     OW29089   6.750   0.437   2.578  0.0926  0.9487  0.5856
 9397SOL    HW129090   6.674   0.476   2.630 -0.2833 -0.4815  1.1762
 9397SOL    HW229091   6.825   0.414   2.640 -0.5612 -1.2520  0.6623
 9398SOL     OW29092   4.261   2.674   0.364 -0.0495  0.5476  0.2416
 9398SOL    HW129093   4.171   2.633   0.348  0.9617 -1.3869 -0.7780
 9398SOL    HW229094   4.327   2.637   0.299  1.6635  1.3646  1.4360
 9399SOL     OW29095   2.588   2.061   2.968 -0.3805 -0.1487  0.5101
 9399SOL    HW129096   2.590   2.019   3.059 -0.2658  0.7627  0.9313
 9399SOL    HW229097   2.493   2.072   2.939 -0.4439 -2.8050 -0.6154
 9400SOL     OW29098   5.011   0.501   0.153 -0.1353 -0.9117 -0.3094
 9400SOL    HW129099   5.069   0.553   0.089 -2.7324  2.4961 -0.1660
 9400SOL    HW229100   5.012   0.546   0.242 -1.2789 -2.0330  0.2906
 9401SOL     OW29101   6.185   5.169   0.424  0.2004 -0.2922  0.1599
 9401SOL    HW129102   6.213   5.086   0.472 -1.3453 -0.2890  1.1217
 9401SOL    HW229103   6.152   5.145   0.333  0.7650 -0.6023  0.0335
 9402SOL     OW29104   3.461   2.735   1.384 -0.6735 -0.8576  0.0873
 9402SOL    HW129105   3.456   2.820   1.332 -0.4558 -1.6313 -1.2550
 9402SOL    HW229106   3.551   2.693   1.372 -1.1285 -1.8019 -0.1558
 9403SOL     OW29107   2.423   6.099   3.408  0.7886 -0.0374  0.2931
 9403SOL    HW129108   2.376   6.081   3.495  0.4858  2.5388  0.7428
 9403SOL    HW229109   2.504   6.041   3.401  0.6979 -0.4494  2.1870
 9404SOL     OW29110   1.086   2.733   3.016 -0.5004 -0.1273 -0.1705
 9404SOL    HW129111   1.054   2.645   2.981  1.6061  0.0775 -3.0070
 9404SOL    HW229112   1.032   2.807   2.975  1.2934  0.0634 -2.3727
 9405SOL     OW29113   0.070   1.726   2.621 -0.1825  0.4127  0.0870
 9405SOL    HW129114   0.084   1.823   2.604 -0.6973  0.3736 -0.6085
 9405SOL    HW229115   0.153   1.676   2.599 -0.0457  0.6516  0.0600
 9406SOL     OW29116   2.981   2.889   1.719  0.0558 -0.0456  0.7652
 9406SOL    HW129117   3.000   2.925   1.810  2.5285 -0.9364  0.6719
 9406SOL    HW229118   3.011   2.954   1.650  0.5818 -0.4440  0.6079
 9407SOL     OW29119   0.737   4.196   2.415  0.8453  0.1959 -0.6790
 9407SOL    HW129120   0.760   4.203   2.512 -1.2362 -1.1028 -0.0134
 9407SOL    HW229121   0.765   4.106   2.381  0.0261 -0.0286 -0.7858
 9408SOL     OW29122   4.349   6.174   2.661  0.0342  0.5729 -0.5160
 9408SOL    HW129123   4.262   6.141   2.697 -0.4537 -0.7956 -2.7394
 9408SOL    HW229124   4.404   6.213   2.735 -1.7072 -0.1681  1.2422
 9409SOL     OW29125   5.916   5.524   0.308 -0.0639  0.3492 -0.7236
 9409SOL    HW129126   5.997   5.480   0.347  0.9091  0.3756 -2.6286
 9409SOL    HW229127   5.855   5.454   0.270  0.4350  0.4873 -1.8021
 9410SOL     OW29128   5.097   4.639   2.432 -0.2686  0.1757 -0.0264
 9410SOL    HW129129   5.197   4.632   2.431 -0.1678  1.3132  0.4936
 9410SOL    HW229130   5.066   4.648   2.527 -0.9454 -0.9755 -0.1158
 9411SOL     OW29131   4.789   2.863   1.383  1.0363  0.3135  0.4548
 9411SOL    HW129132   4.735   2.917   1.318  0.9503  3.5929  2.9480
 9411SOL    HW229133   4.727   2.808   1.439  0.8633 -0.4049 -0.4285
 9412SOL     OW29134   6.682   5.048   1.488 -0.3004  0.3341 -0.2611
 9412SOL    HW129135   6.621   4.976   1.456 -1.0370  0.5323  0.6452
 9412SOL    HW229136   6.633   5.135   1.489  0.6512  0.9188 -1.5801
 9413SOL     OW29137   2.540   5.032   3.376 -0.5760 -0.0753 -0.4755
 9413SOL    HW129138   2.582   4.952   3.419  2.5427  0.5472 -2.1155
 9413SOL    HW229139   2.542   5.021   3.277 -0.4469  1.8664 -0.7258
 9414SOL     OW29140   6.191   0.785   4.606  0.3840 -0.3152  0.1643
 9414SOL    HW129141   6.243   0.832   4.677 -0.2839  1.5702 -0.5304
 9414SOL    HW229142   6.156   0.698   4.642  1.4804 -0.2028  1.5720
 9415SOL     OW29143   2.341   2.171   2.892  0.0429  0.0115 -0.2097
 9415SOL    HW129144   2.289   2.135   2.814 -0.3313  0.1316 -0.0160
 9415SOL    HW229145   2.366   2.266   2.873  1.7091 -0.5637 -1.0651
 9416SOL     OW29146   6.690   1.667   6.688  0.6920 -0.1131  0.9917
 9416SOL    HW129147   6.724   1.585   6.640  1.0834  0.0957  0.9093
 9416SOL    HW229148   6.619   1.640   6.752 -0.8320 -0.2543 -0.6689
 9417SOL     OW29149   2.089   1.269   6.066 -0.3547  0.3790 -0.4396
 9417SOL    HW129150   2.162   1.333   6.090 -0.2468  0.1198 -0.0778
 9417SOL    HW229151   2.046   1.298   5.980  0.9114 -0.0887 -1.2636
 9418SOL     OW29152   6.660   1.068   6.735  0.4311  0.2783 -0.2030
 9418SOL    HW129153   6.602   1.099   6.809  2.1653 -1.7482  2.1706
 9418SOL    HW229154   6.743   1.123   6.732  0.7240 -0.1530 -0.1007
 9419SOL     OW29155   1.118   3.134   2.417  0.4069 -0.1465  0.0036
 9419SOL    HW129156   1.126   3.065   2.489 -0.6297 -0.5571 -0.2468
 9419SOL    HW229157   1.169   3.105   2.337  2.8491  1.0211  1.0316
 9420SOL     OW29158   2.706   3.223   0.217 -0.2376  0.2424 -0.3204
 9420SOL    HW129159   2.632   3.289   0.206 -0.1949  0.1410 -1.3912
 9420SOL    HW229160   2.671   3.130   0.204  0.5449  0.3101 -4.2903
 9421SOL     OW29161   0.534   1.870   6.825 -0.1921 -0.4904 -0.1002
 9421SOL    HW129162   0.538   1.816   6.742  1.1564 -1.1547  0.3786
 9421SOL    HW229163   0.450   1.849   6.875 -1.6288  0.7873 -1.8275
 9422SOL     OW29164   4.152   2.318   4.367  0.1321 -0.5371 -0.4534
 9422SOL    HW129165   4.058   2.320   4.404  0.2797 -1.5763  0.0008
 9422SOL    HW229166   4.214   2.358   4.434  0.4254 -2.5801  0.5829
 9423SOL     OW29167   5.953   2.596   1.695 -0.4537 -1.1840 -0.1399
 9423SOL    HW129168   6.042   2.593   1.740 -0.3064 -0.6827 -0.3910
 9423SOL    HW229169   5.882   2.622   1.761 -0.1851 -0.0818 -0.2689
 9424SOL     OW29170   0.848   6.453   0.063 -0.8806  0.1795 -0.9614
 9424SOL    HW129171   0.789   6.523   0.104 -0.1116  1.5087 -2.0586
 9424SOL    HW229172   0.943   6.484   0.065 -0.4509 -1.0885 -0.9782
 9425SOL     OW29173   6.377   3.582   4.460  0.3259  0.1177  0.5987
 9425SOL    HW129174   6.296   3.632   4.492  0.3038 -0.2940  1.2041
 9425SOL    HW229175   6.348   3.507   4.401  0.3550  0.7630 -0.2543
 9426SOL     OW29176   1.870   6.446   1.356  0.3887  0.2918  0.1728
 9426SOL    HW129177   1.817   6.426   1.438 -1.9378  0.1034 -1.2733
 9426SOL    HW229178   1.891   6.543   1.351  1.1402  0.2021  1.2793
 9427SOL     OW29179   3.576   3.534   6.187  0.8029  0.3648  0.3429
 9427SOL    HW129180   3.665   3.521   6.231  0.0390 -0.9667  1.5759
 9427SOL    HW229181   3.524   3.449   6.191 -1.0393  1.4562  0.8170
 9428SOL     OW29182   2.502   3.079   6.128  0.2593  0.3405  0.5944
 9428SOL    HW129183   2.459   2.989   6.122 -0.6067  0.7413  0.6357
 9428SOL    HW229184   2.526   3.110   6.037  3.0102 -1.0498  0.7309
 9429SOL     OW29185   6.365   5.920   1.132 -0.0049 -0.5963  0.2596
 9429SOL    HW129186   6.406   5.937   1.042  0.4163 -0.0330  0.5540
 9429SOL    HW229187   6.350   5.821   1.143  1.0430 -0.7886  0.0467
 9430SOL     OW29188   3.661   0.843   1.282 -0.4917  0.1132 -0.5153
 9430SOL    HW129189   3.711   0.925   1.253 -2.2332  1.1033 -0.8349
 9430SOL    HW229190   3.567   0.847   1.248 -0.5370 -2.2168 -0.8619
 9431SOL     OW29191   2.371   6.255   1.712 -0.2072  0.5404  0.4515
 9431SOL    HW129192   2.342   6.193   1.639  0.1733 -0.8233  1.4299
 9431SOL    HW229193   2.360   6.210   1.800  2.0399  1.0988  1.0622
 9432SOL     OW29194   3.560   4.088   6.880 -0.2012  0.3328 -0.5415
 9432SOL    HW129195   3.519   4.073   6.790 -0.4716 -1.5373 -0.1321
 9432SOL    HW229196   3.488   4.093   6.949 -0.1088  3.1806 -0.5357
 9433SOL     OW29197   5.902   3.696   6.068 -0.0002  0.4333  0.1566
 9433SOL    HW129198   5.881   3.654   6.156 -2.0172  1.4397  0.2101
 9433SOL    HW229199   5.950   3.630   6.010  0.3807 -0.5995  1.5907
 9434SOL     OW29200   3.658   5.601   3.637 -0.2462 -0.2505  0.2295
 9434SOL    HW129201   3.680   5.697   3.617 -0.1667 -0.8064 -2.8638
 9434SOL    HW229202   3.738   5.544   3.619 -0.8341 -1.0922  0.1983
 9435SOL     OW29203   2.415   1.666   0.547  0.3584 -0.1440  0.0387
 9435SOL    HW129204   2.442   1.623   0.461 -0.8545  1.9028 -1.4786
 9435SOL    HW229205   2.486   1.651   0.615  2.1585 -0.5061 -1.8025
 9436SOL     OW29206   0.088   3.568   5.595 -0.0784 -0.7769 -0.5373
 9436SOL    HW129207   0.027   3.494   5.569 -0.1291 -0.6568 -0.7626
 9436SOL    HW229208   0.181   3.533   5.605 -0.3435 -1.1513  0.7471
 9437SOL     OW29209   5.345   0.127   1.621  0.4378 -0.4324 -0.4824
 9437SOL    HW129210   5.393   0.131   1.709  2.3265 -1.0599 -1.4158
 9437SOL    HW229211   5.352   0.035   1.583 -0.2662 -0.1509 -1.3406
 9438SOL     OW29212   6.576   3.509   5.418  0.3382  0.6519 -0.0153
 9438SOL    HW129213   6.516   3.545   5.347  0.0258 -0.4775 -0.3598
 9438SOL    HW229214   6.556   3.554   5.505  1.9799  3.3961 -0.9311
 9439SOL     OW29215   0.513   3.294   2.534  0.3342 -0.2850 -0.2989
 9439SOL    HW129216   0.522   3.314   2.436  0.4569 -0.5906 -0.3512
 9439SOL    HW229217   0.474   3.373   2.580 -0.8855 -0.5701 -0.7944
 9440SOL     OW29218   5.204   0.508   6.496 -0.0189 -0.2616  0.0158
 9440SOL    HW129219   5.123   0.557   6.530  1.1655  0.7224  1.5447
 9440SOL    HW229220   5.235   0.550   6.411  0.0823  0.6984  0.5090
 9441SOL     OW29221   3.991   1.758   5.573  0.1589 -0.3452  0.2718
 9441SOL    HW129222   3.983   1.820   5.495 -1.9100  0.6005  1.1725
 9441SOL    HW229223   4.087   1.732   5.585  0.7565  0.8714 -1.5122
 9442SOL     OW29224   4.364   0.027   1.065  0.2892  0.2292 -0.0102
 9442SOL    HW129225   4.337  -0.066   1.091 -0.2537  0.5051  0.4423
 9442SOL    HW229226   4.287   0.073   1.021  0.5026  0.5207 -0.0802
 9443SOL     OW29227   1.557   6.711   1.415  0.4586  0.1270 -0.5862
 9443SOL    HW129228   1.537   6.803   1.447 -0.0654 -0.0988 -0.2417
 9443SOL    HW229229   1.600   6.659   1.490 -1.1348 -0.5253 -0.0825
 9444SOL     OW29230   6.183   5.376   1.314  0.7206  0.2497 -0.0937
 9444SOL    HW129231   6.247   5.443   1.351  1.2614 -0.5469  0.4375
 9444SOL    HW229232   6.140   5.325   1.388  1.8821 -1.4277 -0.5179
 9445SOL     OW29233   6.410   3.040   5.437  0.2088 -0.5994  0.4685
 9445SOL    HW129234   6.360   3.012   5.519  0.1055 -1.4838  0.1165
 9445SOL    HW229235   6.461   3.124   5.456 -1.7096  0.5812  0.7363
 9446SOL     OW29236   5.255   6.683   5.432 -0.3970  0.4728  0.2145
 9446SOL    HW129237   5.276   6.645   5.342 -0.4502  0.2080  0.3122
 9446SOL    HW229238   5.287   6.620   5.503 -3.3269 -1.0267  0.3809
 9447SOL     OW29239   2.918   1.816   0.892 -0.2202 -0.0937 -0.4717
 9447SOL    HW129240   2.884   1.723   0.908 -0.6794 -0.2000 -1.9230
 9447SOL    HW229241   2.992   1.813   0.824 -0.0387  0.5640 -0.3034
 9448SOL     OW29242   2.804   1.945   4.262 -0.0480 -0.1781 -0.1469
 9448SOL    HW129243   2.734   1.962   4.193  0.0942  0.0592 -0.2340
 9448SOL    HW229244   2.868   2.021   4.263 -0.5393  0.2383  0.8461
 9449SOL     OW29245   3.012   6.535   2.100  0.6236 -0.0686 -0.1948
 9449SOL    HW129246   2.984   6.586   2.181 -0.7684 -0.9522 -0.0885
 9449SOL    HW229247   3.068   6.457   2.128  1.3455  0.4261 -0.2230
 9450SOL     OW29248   1.483   0.779   5.839 -0.4850  0.2016 -0.0383
 9450SOL    HW129249   1.538   0.826   5.909 -0.3244 -0.1275  0.0595
 9450SOL    HW229250   1.429   0.707   5.883  0.1123 -0.4404 -0.3476
 9451SOL     OW29251   3.556   5.204   2.788  0.2179 -0.3942  0.2385
 9451SOL    HW129252   3.506   5.200   2.702 -0.5787  0.8802  0.6103
 9451SOL    HW229253   3.556   5.113   2.830 -0.3804 -0.7786 -0.5530
 9452SOL     OW29254   0.728   4.899   0.126  0.6708 -0.3381  0.0356
 9452SOL    HW129255   0.671   4.968   0.171  0.3017 -0.3244 -0.4515
 9452SOL    HW229256   0.711   4.900   0.028  0.8474 -0.9536 -0.0058
 9453SOL     OW29257   4.286   0.222   1.353 -0.2740  0.3210  0.1580
 9453SOL    HW129258   4.386   0.213   1.352 -0.3166 -0.2373  0.4614
 9453SOL    HW229259   4.256   0.264   1.268  0.1549 -0.2114 -0.2618
 9454SOL     OW29260   1.473   3.818   4.081 -0.0682 -0.3102 -0.2640
 9454SOL    HW129261   1.527   3.829   3.998 -1.5808  0.6466 -1.1770
 9454SOL    HW229262   1.433   3.906   4.107 -1.3133 -0.9959  0.2651
 9455SOL     OW29263   1.464   6.480   2.464  0.3015 -0.0647  0.5882
 9455SOL    HW129264   1.477   6.562   2.521  0.5296  0.0199  0.4159
 9455SOL    HW229265   1.417   6.505   2.380  2.9355  0.4520 -0.8283
 9456SOL     OW29266   4.894   6.664   1.974 -0.2741 -0.1226  0.4671
 9456SOL    HW129267   4.850   6.708   1.896 -0.5540  0.6326  1.0322
 9456SOL    HW229268   4.825   6.624   2.034 -0.1993  0.7691  1.1804
 9457SOL     OW29269   0.081   4.222   2.574 -0.0564 -0.0370 -0.6695
 9457SOL    HW129270   0.181   4.226   2.564 -0.1352  0.1500 -1.3769
 9457SOL    HW229271   0.055   4.272   2.657  0.5304 -1.0329  0.1399
 9458SOL     OW29272   1.019   6.675   3.696  0.1282 -0.0153 -1.0036
 9458SOL    HW129273   1.022   6.584   3.737 -0.1120 -0.7793 -2.6319
 9458SOL    HW229274   0.987   6.741   3.764 -3.0735 -1.6910 -0.7298
 9459SOL     OW29275   1.980   1.240   6.383  0.5539  0.3281  0.2822
 9459SOL    HW129276   1.959   1.195   6.297 -0.6797  2.2082 -0.4671
 9459SOL    HW229277   2.056   1.303   6.371 -0.1894  1.2564  0.3060
 9460SOL     OW29278   4.269   4.375   5.780 -0.4709  0.4939 -0.1391
 9460SOL    HW129279   4.293   4.286   5.741  1.1549  0.5796  0.6164
 9460SOL    HW229280   4.261   4.442   5.706  1.8589  0.4879 -0.4635
 9461SOL     OW29281   4.894   4.705   0.840  0.2075 -0.0644 -0.7677
 9461SOL    HW129282   4.797   4.732   0.839 -0.0377 -0.8701  0.2108
 9461SOL    HW229283   4.911   4.642   0.764  0.1145  0.5173 -1.2897
 9462SOL     OW29284   5.807   3.984   4.010 -0.3045  0.2136 -0.0539
 9462SOL    HW129285   5.796   3.914   3.940  2.2738  0.1569 -0.5327
 9462SOL    HW229286   5.758   3.957   4.093 -3.5599  0.3721 -1.8080
 9463SOL     OW29287   0.651   1.123   2.246 -0.3165  0.0651 -0.2690
 9463SOL    HW129288   0.728   1.157   2.300  0.2475 -1.7149  0.1179
 9463SOL    HW229289   0.664   1.146   2.150  0.6973 -0.2032 -0.2073
 9464SOL     OW29290   1.987   1.553   0.042  0.1690  0.2202  0.3549
 9464SOL    HW129291   2.036   1.527  -0.041  0.2324 -0.6991  0.6703
 9464SOL    HW229292   1.975   1.652   0.044  2.3682  0.5320  0.4580
 9465SOL     OW29293   2.444   2.218   4.890 -0.1492 -0.0923  0.0151
 9465SOL    HW129294   2.464   2.201   4.794 -1.0427  0.4480 -0.2788
 9465SOL    HW229295   2.421   2.132   4.935 -0.6752 -0.2293 -0.4958
 9466SOL     OW29296   5.736   0.319   2.970  0.3059 -0.2336 -0.1834
 9466SOL    HW129297   5.786   0.232   2.969 -1.1790 -1.1276 -0.6423
 9466SOL    HW229298   5.721   0.349   2.876 -2.1430 -1.3167 -0.2137
 9467SOL     OW29299   5.966   0.818   6.479 -0.4465  0.1885 -0.1125
 9467SOL    HW129300   5.991   0.878   6.556 -0.5596 -0.9060  0.8095
 9467SOL    HW229301   5.925   0.872   6.406 -0.0915  1.2959  0.4847
 9468SOL     OW29302   2.114   2.099   4.568 -0.7837  0.1578 -0.0732
 9468SOL    HW129303   2.179   2.033   4.606 -2.1847 -0.6937  0.9223
 9468SOL    HW229304   2.147   2.192   4.587  0.2080 -0.2468  0.2877
 9469SOL     OW29305   5.215   4.543   5.364  0.3164 -0.2632  0.0468
 9469SOL    HW129306   5.216   4.516   5.460  1.3761 -1.0655 -0.1809
 9469SOL    HW229307   5.262   4.630   5.353  0.1757 -0.1601  0.2494
 9470SOL     OW29308   6.656   6.483   4.660 -0.4290  0.2556 -0.4545
 9470SOL    HW129309   6.600   6.542   4.718  0.2186  0.4450 -0.0098
 9470SOL    HW229310   6.605   6.459   4.577 -0.5512  1.7759 -0.8497
 9471SOL     OW29311   6.844   5.151   3.010 -0.2510 -0.9113 -0.3759
 9471SOL    HW129312   6.919   5.120   3.068 -0.3128 -0.8865 -0.2812
 9471SOL    HW229313   6.803   5.233   3.050 -1.2623 -1.7444  0.3706
 9472SOL     OW29314   6.515   1.381   0.523 -0.2086  0.0097 -0.1173
 9472SOL    HW129315   6.513   1.320   0.602  2.3648 -0.0279  0.0214
 9472SOL    HW229316   6.600   1.367   0.472  0.7152  3.6466  0.1199
 9473SOL     OW29317   4.627   5.540   1.102 -0.1638 -0.2403 -0.5685
 9473SOL    HW129318   4.611   5.474   1.029  1.2021  0.5213 -1.5887
 9473SOL    HW229319   4.673   5.620   1.065 -1.9999  1.4459  0.5747
 9474SOL     OW29320   6.618   4.273   4.291  0.2048 -0.5345  0.4919
 9474SOL    HW129321   6.714   4.243   4.297 -0.2884 -2.5393 -0.6272
 9474SOL    HW229322   6.568   4.241   4.372  0.6909  1.6142  1.7172
 9475SOL     OW29323   6.992   3.977   0.429 -0.6419  0.4357  0.4457
 9475SOL    HW129324   7.057   3.914   0.388 -1.5945 -0.3055  0.0406
 9475SOL    HW229325   7.015   3.990   0.526 -1.0926 -1.4516  0.8458
 9476SOL     OW29326   0.277   1.299   4.189  0.1615 -0.5660 -0.0466
 9476SOL    HW129327   0.371   1.282   4.161 -0.0928 -0.1518 -1.1851
 9476SOL    HW229328   0.214   1.253   4.127 -0.4115  0.6113 -0.3738
 9477SOL     OW29329   2.244   2.621   6.950 -0.0457 -0.3975 -0.1596
 9477SOL    HW129330   2.264   2.650   6.856 -1.3405 -1.0775 -0.6605
 9477SOL    HW229331   2.193   2.694   6.996  0.8206  0.0487  0.1249
 9478SOL     OW29332   6.087   6.726   4.355 -0.3559  0.4254 -0.2701
 9478SOL    HW129333   6.017   6.760   4.293  0.7071 -0.7929 -2.2196
 9478SOL    HW229334   6.107   6.630   4.334  0.1452  0.0082  1.8873
 9479SOL     OW29335   6.860   0.460   3.579  0.1540  0.1017 -0.1967
 9479SOL    HW129336   6.908   0.454   3.667  0.6632  0.5973 -0.4387
 9479SOL    HW229337   6.766   0.491   3.595  0.5890  1.3243  0.0690
 9480SOL     OW29338   2.081   4.445   6.278  0.7120  0.5060  0.1243
 9480SOL    HW129339   2.082   4.363   6.335 -1.1948  0.6080  0.3935
 9480SOL    HW229340   2.132   4.428   6.194  1.7510 -0.3795  0.9062
 9481SOL     OW29341   6.027   5.969   4.225 -0.3445 -0.6815  0.7343
 9481SOL    HW129342   5.973   5.980   4.141 -0.2784  1.4230  0.9140
 9481SOL    HW229343   6.106   5.909   4.206 -0.0450  0.1534 -0.8637
 9482SOL     OW29344   0.923   6.107   1.003 -0.1166 -0.5426 -0.0071
 9482SOL    HW129345   1.019   6.132   1.008 -0.5122  0.9185  0.8908
 9482SOL    HW229346   0.913   6.009   1.019  0.8760 -0.0500  5.2669
 9483SOL     OW29347   5.116   6.532   6.780  0.0382 -0.1375 -0.4347
 9483SOL    HW129348   5.202   6.559   6.821 -0.7547  1.3028  0.3710
 9483SOL    HW229349   5.112   6.433   6.772  1.5032 -0.2588  0.0562
 9484SOL     OW29350   1.684   6.061   1.263 -0.2519  0.2112 -0.1352
 9484SOL    HW129351   1.696   6.010   1.348 -1.1657  0.1225 -0.0538
 9484SOL    HW229352   1.744   6.022   1.192  0.7977  0.5274  0.5505
 9485SOL     OW29353   0.058   1.314   2.825  0.0974 -0.2773 -0.6336
 9485SOL    HW129354   0.064   1.227   2.874 -2.8691  0.1792  0.7300
 9485SOL    HW229355   0.072   1.298   2.727 -0.6078 -2.3377 -0.4392
 9486SOL     OW29356   5.402   4.498   3.351  0.0957 -0.0424  0.0679
 9486SOL    HW129357   5.332   4.555   3.308  0.3134 -1.2012 -1.9584
 9486SOL    HW229358   5.493   4.525   3.318  0.2667 -0.9831 -0.2700
 9487SOL     OW29359   3.411   1.459   6.006 -0.2601  0.1941  0.4003
 9487SOL    HW129360   3.391   1.427   6.098  0.2018  0.2301  0.5163
 9487SOL    HW229361   3.391   1.556   5.999  0.6063  0.4043  0.7427
 9488SOL     OW29362   4.522   2.519   3.979 -0.2754  0.1741 -0.3644
 9488SOL    HW129363   4.439   2.476   3.943 -1.4141  2.2542 -0.3541
 9488SOL    HW229364   4.511   2.535   4.077  0.7851 -0.9190 -0.0492
 9489SOL     OW29365   4.558   0.977   5.714  0.1889 -0.3388 -0.5209
 9489SOL    HW129366   4.600   1.056   5.670 -1.4307  0.3499 -0.8793
 9489SOL    HW229367   4.595   0.893   5.673  3.0440  0.1130  0.8909
 9490SOL     OW29368   2.912   5.636   2.275 -0.2966  0.1212  0.9841
 9490SOL    HW129369   2.911   5.639   2.375 -0.6607 -1.2896  1.0435
 9490SOL    HW229370   2.875   5.548   2.244  3.9730 -1.4545 -0.2791
 9491SOL     OW29371   6.104   0.604   6.883  0.0586 -0.0206  0.4234
 9491SOL    HW129372   6.113   0.615   6.982 -2.1284  1.7241  0.5006
 9491SOL    HW229373   6.008   0.614   6.857  0.6349 -0.0323 -1.9306
 9492SOL     OW29374   3.302   4.996   2.969  0.0773  1.0196 -0.1136
 9492SOL    HW129375   3.368   4.963   2.901 -2.2311 -0.7505 -1.6342
 9492SOL    HW229376   3.294   4.929   3.042  1.5005  2.2720  1.2859
 9493SOL     OW29377   0.322   2.996   2.043 -0.0942 -0.3702 -0.5018
 9493SOL    HW129378   0.420   3.019   2.037 -0.4524  1.3020 -0.3482
 9493SOL    HW229379   0.291   2.960   1.955  0.2485  0.8859 -1.1554
 9494SOL     OW29380   6.794   6.112   2.346  0.1124  0.3103  0.6749
 9494SOL    HW129381   6.891   6.102   2.371  0.0935  0.1720  0.6959
 9494SOL    HW229382   6.738   6.067   2.415  0.0365  0.3199  0.6187
 9495SOL     OW29383   6.264   2.095   2.801  0.1477 -0.1248  0.4051
 9495SOL    HW129384   6.252   2.038   2.882  1.4215 -0.2193  0.5449
 9495SOL    HW229385   6.318   2.176   2.825  0.6048 -0.1946 -0.3565
 9496SOL     OW29386   4.527   1.934   1.366 -0.1659  0.0771 -0.5793
 9496SOL    HW129387   4.520   2.030   1.339 -0.2158  0.2331 -0.0384
 9496SOL    HW229388   4.538   1.877   1.285 -0.0818  0.5450 -0.9032
 9497SOL     OW29389   0.254   5.633   3.219  1.3264  0.1626  0.3730
 9497SOL    HW129390   0.304   5.631   3.133  0.0894 -1.7889 -0.3635
 9497SOL    HW229391   0.288   5.561   3.280  0.4492 -0.1944  0.4576
 9498SOL     OW29392   2.632   2.393   4.500  0.3961 -0.1384  0.0450
 9498SOL    HW129393   2.560   2.323   4.506 -1.1842  1.4807  1.0847
 9498SOL    HW229394   2.721   2.350   4.509 -0.4607 -2.1274 -0.3572
 9499SOL     OW29395   3.554   0.234   1.904  0.0754 -0.2168 -0.3238
 9499SOL    HW129396   3.533   0.137   1.917 -1.8050  0.1013 -0.7132
 9499SOL    HW229397   3.491   0.289   1.957  0.5401  0.8167 -0.8195
 9500SOL     OW29398   6.387   3.373   3.165 -0.4212  1.0257 -0.1350
 9500SOL    HW129399   6.325   3.451   3.162 -1.9646 -0.1391  0.3327
 9500SOL    HW229400   6.431   3.369   3.255 -1.0579  0.8226  0.1682
 9501SOL     OW29401   5.189   1.807   3.544 -0.4074 -0.3138  0.6888
 9501SOL    HW129402   5.280   1.819   3.582 -0.5910 -0.4369  1.1702
 9501SOL    HW229403   5.189   1.733   3.477  0.0650  0.3418 -0.0518
 9502SOL     OW29404   0.109   0.657   4.898  0.4688  0.2612 -0.3428
 9502SOL    HW129405   0.191   0.656   4.840  0.6515  0.2648 -0.0834
 9502SOL    HW229406   0.032   0.693   4.845  0.4065 -0.6593 -0.8999
 9503SOL     OW29407   6.305   0.191   6.322  0.2509  0.2829 -0.6940
 9503SOL    HW129408   6.277   0.184   6.227  0.6357  1.6576 -0.9347
 9503SOL    HW229409   6.382   0.254   6.330  0.7566 -0.4288  0.4355
 9504SOL     OW29410   0.933   2.248   5.765  0.5165  0.5752  0.0717
 9504SOL    HW129411   0.842   2.241   5.805 -0.0495 -0.2875 -1.2928
 9504SOL    HW229412   0.960   2.159   5.729  1.5123  1.0427 -0.3739
 9505SOL     OW29413   0.181   3.790   4.125  0.0770  0.1338  0.1429
 9505SOL    HW129414   0.255   3.723   4.118 -2.3362 -2.8347  0.8969
 9505SOL    HW229415   0.130   3.794   4.039 -0.1774  0.5843  0.3077
 9506SOL     OW29416   3.807   1.880   0.224  0.4163 -0.3753 -0.1629
 9506SOL    HW129417   3.880   1.812   0.229  0.3947 -0.3795  0.1343
 9506SOL    HW229418   3.812   1.940   0.304  0.4168 -0.0472 -0.4088
 9507SOL     OW29419   4.089   1.980   4.633 -0.1732  0.2637  0.9289
 9507SOL    HW129420   4.060   1.894   4.675  0.3569 -1.3469 -1.7690
 9507SOL    HW229421   4.185   1.996   4.653 -1.0279  2.1545  4.3084
 9508SOL     OW29422   1.363   0.024   0.634  0.3976  0.0846 -0.2884
 9508SOL    HW129423   1.379   0.102   0.695 -0.3125  1.3837 -1.6792
 9508SOL    HW229424   1.421   0.034   0.553  0.6299 -1.1031 -0.2858
 9509SOL     OW29425   5.776   1.239   5.469 -0.1048  0.5165  0.5178
 9509SOL    HW129426   5.700   1.281   5.517  0.2244  2.5019 -0.6177
 9509SOL    HW229427   5.856   1.235   5.529 -0.3251  0.9183  0.8397
 9510SOL     OW29428   6.283   2.728   4.496 -0.2333  0.1755 -0.1599
 9510SOL    HW129429   6.268   2.657   4.565 -3.2887  1.2037  0.3995
 9510SOL    HW229430   6.381   2.739   4.480  0.4744 -1.7701  2.2296
 9511SOL     OW29431   0.441   0.062   2.892 -0.5356 -0.8189  0.6229
 9511SOL    HW129432   0.463   0.020   2.804 -0.4561 -1.3849  0.9097
 9511SOL    HW229433   0.424   0.160   2.879 -1.0446 -0.9975 -0.1012
 9512SOL     OW29434   6.983   2.616   6.729  0.1477  0.6460  0.7029
 9512SOL    HW129435   6.895   2.586   6.766 -0.7311  2.0663 -0.1604
 9512SOL    HW229436   7.052   2.547   6.750 -1.6874 -1.8783 -0.9197
 9513SOL     OW29437   1.089   1.857   4.375  0.3901  0.2389  0.2350
 9513SOL    HW129438   1.016   1.899   4.428 -0.0200 -0.9787  0.6599
 9513SOL    HW229439   1.125   1.924   4.309 -0.4432  1.1430  0.6750
 9514SOL     OW29440   3.462   3.919   3.888  0.2630  0.1649  0.4619
 9514SOL    HW129441   3.430   3.993   3.829  1.8303  0.9197  0.5014
 9514SOL    HW229442   3.535   3.868   3.842  0.1516 -0.4872  0.9883
 9515SOL     OW29443   5.370   4.615   3.955 -0.4588 -0.0959  0.0593
 9515SOL    HW129444   5.370   4.599   3.856  1.4815 -0.9916  0.1489
 9515SOL    HW229445   5.297   4.680   3.979  0.1137  1.4750 -2.1620
 9516SOL     OW29446   4.276   4.927   5.594 -0.4476 -0.3891  0.3688
 9516SOL    HW129447   4.222   4.859   5.545  0.5485 -1.2301  0.4090
 9516SOL    HW229448   4.367   4.935   5.552 -1.0648  2.1015 -0.6480
 9517SOL     OW29449   0.868   4.755   5.161  0.4035  0.2942  0.1518
 9517SOL    HW129450   0.883   4.762   5.260  1.3099  1.8092 -0.0498
 9517SOL    HW229451   0.875   4.846   5.120 -1.7878 -0.0397 -1.0867
 9518SOL     OW29452   1.980   2.873   4.976  0.6859 -0.1734  0.3489
 9518SOL    HW129453   1.993   2.939   4.902  2.5086  0.0535  0.8113
 9518SOL    HW229454   1.886   2.877   5.009 -0.4024 -0.7924 -2.4125
 9519SOL     OW29455   1.033   0.557   6.900  0.5408  0.1698  0.1915
 9519SOL    HW129456   1.125   0.552   6.861  0.4808  2.7628 -0.4688
 9519SOL    HW229457   0.974   0.609   6.839 -1.2525 -0.9882  0.8771
 9520SOL     OW29458   0.821   1.138   4.071  0.0585 -0.5606 -0.3200
 9520SOL    HW129459   0.912   1.165   4.103 -0.4934  1.5261 -0.3384
 9520SOL    HW229460   0.784   1.068   4.131  1.4593 -1.0593  0.0016
 9521SOL     OW29461   6.342   6.377   0.436  0.5492  0.1485  0.1688
 9521SOL    HW129462   6.286   6.295   0.426  0.5343  0.2149 -0.3152
 9521SOL    HW229463   6.296   6.455   0.394 -0.1945  0.7743  2.0309
 9522SOL     OW29464   4.060   3.991   1.363  0.7311  0.0548  0.2857
 9522SOL    HW129465   4.008   4.073   1.340  0.6427  0.0462  0.4507
 9522SOL    HW229466   4.037   3.962   1.456 -1.3182 -1.7332 -0.6651
 9523SOL     OW29467   5.078   5.423   5.453 -0.0468  0.1653 -0.0272
 9523SOL    HW129468   5.071   5.424   5.353 -0.4913  0.6062  0.0024
 9523SOL    HW229469   5.009   5.360   5.490  1.3441 -1.4439 -0.0701
 9524SOL     OW29470   6.371   3.644   0.837  0.0542  0.3834 -0.3600
 9524SOL    HW129471   6.411   3.553   0.828  0.9543  0.7282  0.0565
 9524SOL    HW229472   6.362   3.667   0.935 -1.9856 -0.0321 -0.3958
 9525SOL     OW29473   2.974   5.341   4.298 -0.2541  0.0615 -0.6246
 9525SOL    HW129474   2.915   5.286   4.239 -0.0406  0.3686 -1.1259
 9525SOL    HW229475   2.961   5.312   4.393 -0.8585 -0.1981 -0.7770
 9526SOL     OW29476   4.769   4.199   2.642  0.1926 -0.2363 -0.0880
 9526SOL    HW129477   4.703   4.175   2.571 -1.2885  1.4432  0.6492
 9526SOL    HW229478   4.845   4.133   2.641 -1.0153 -1.6797 -1.5719
 9527SOL     OW29479   5.777   3.642   2.392 -0.1511  0.0817  0.2981
 9527SOL    HW129480   5.854   3.687   2.347  0.5200 -0.5328  0.8188
 9527SOL    HW229481   5.691   3.672   2.349  0.3369  1.1679  0.0615
 9528SOL     OW29482   1.417   3.840   2.825  0.4153 -0.2112  0.3186
 9528SOL    HW129483   1.317   3.842   2.830  0.2948 -2.8584  0.3082
 9528SOL    HW229484   1.447   3.897   2.748 -1.1244  0.1957 -0.0242
 9529SOL     OW29485   2.434   5.572   1.432 -0.2044 -0.3856  0.3494
 9529SOL    HW129486   2.418   5.529   1.343  1.7125  1.4719 -1.0261
 9529SOL    HW229487   2.368   5.645   1.446  1.7413  1.9321 -1.5304
 9530SOL     OW29488   4.772   3.989   4.224 -0.9656  0.3564  0.1801
 9530SOL    HW129489   4.845   3.939   4.272 -0.1818  0.8656 -0.4457
 9530SOL    HW229490   4.705   3.924   4.188 -1.2944 -0.0607  1.5118
 9531SOL     OW29491   5.141   3.165   0.404  0.9258 -0.0303 -0.4320
 9531SOL    HW129492   5.106   3.256   0.382  1.2461  0.2617  0.2238
 9531SOL    HW229493   5.067   3.098   0.400  0.7693  0.1778 -1.3381
 9532SOL     OW29494   6.737   1.745   3.814 -0.4854  0.5910  0.3149
 9532SOL    HW129495   6.748   1.841   3.788  0.5255  1.0408  2.2179
 9532SOL    HW229496   6.659   1.736   3.875  1.1718  0.7853  2.5790
 9533SOL     OW29497   1.055   1.631   4.556 -0.3390  0.0157 -0.1023
 9533SOL    HW129498   1.068   1.705   4.490  0.8109 -0.9140 -0.9620
 9533SOL    HW229499   1.008   1.555   4.511  1.8411 -1.2586 -0.3771
 9534SOL     OW29500   2.651   5.444   0.126  0.1543  0.0233 -0.0374
 9534SOL    HW129501   2.652   5.518   0.059  0.9531 -0.2328 -0.3173
 9534SOL    HW229502   2.585   5.375   0.098 -0.5865  0.6182  0.2187
 9535SOL     OW29503   1.228   5.194   1.684  0.1216 -0.0352 -0.0165
 9535SOL    HW129504   1.272   5.281   1.707  0.0232  0.2432 -0.8402
 9535SOL    HW229505   1.131   5.199   1.708  0.3652 -0.3891  1.1215
 9536SOL     OW29506   5.005   2.760   5.131 -0.2667  0.0527 -0.0530
 9536SOL    HW129507   5.030   2.667   5.156 -1.2132  0.7835  4.4586
 9536SOL    HW229508   5.063   2.825   5.180 -2.1319  1.8167 -0.0094
 9537SOL     OW29509   2.281   1.205   3.257  0.0059 -0.2058  0.0354
 9537SOL    HW129510   2.370   1.229   3.296  0.3077  0.0732 -0.8080
 9537SOL    HW229511   2.222   1.286   3.256  0.5378  0.2022 -1.4981
 9538SOL     OW29512   0.423   6.500   5.605 -0.4698  0.0533  0.5280
 9538SOL    HW129513   0.433   6.504   5.704 -0.3380 -2.9712  0.7121
 9538SOL    HW229514   0.343   6.445   5.581 -0.1724  0.2421 -1.0654
 9539SOL     OW29515   3.533   3.953   1.782 -0.4207 -0.1994  0.1323
 9539SOL    HW129516   3.581   4.021   1.837 -1.1732  0.4066  0.0581
 9539SOL    HW229517   3.448   3.992   1.747 -1.4055 -1.5039  0.9599
 9540SOL     OW29518   0.239   2.503   2.507 -0.2337  0.0560 -0.5606
 9540SOL    HW129519   0.332   2.488   2.473  0.0259 -0.3782  0.3034
 9540SOL    HW229520   0.225   2.600   2.525 -0.5290  0.3579 -2.2973
 9541SOL     OW29521   4.886   5.528   3.594 -0.6077  0.2995 -0.0593
 9541SOL    HW129522   4.799   5.534   3.544  1.5198 -0.2089 -4.2815
 9541SOL    HW229523   4.893   5.438   3.636 -2.9971  1.1599  2.4555
 9542SOL     OW29524   2.466   6.796   1.317 -0.9819 -0.2214 -0.7810
 9542SOL    HW129525   2.558   6.781   1.282 -0.7349 -0.8475  0.1340
 9542SOL    HW229526   2.421   6.868   1.262  0.7478  1.5535  0.0172
 9543SOL     OW29527   0.416   1.661   4.475  0.9263 -0.4251  0.2299
 9543SOL    HW129528   0.360   1.625   4.401 -1.7988  0.3296  1.7838
 9543SOL    HW229529   0.468   1.740   4.442 -1.2761  0.7570 -0.6070
 9544SOL     OW29530   0.957   6.949   3.806 -0.6488  0.1965 -0.4418
 9544SOL    HW129531   0.929   6.987   3.718 -0.9820 -1.3343 -1.0358
 9544SOL    HW229532   0.891   6.974   3.877 -2.5921 -1.7906 -1.4418
 9545SOL     OW29533   3.307   1.059   0.491 -0.0515  0.1286 -0.1513
 9545SOL    HW129534   3.297   1.009   0.577 -0.9064  1.1322  0.3564
 9545SOL    HW229535   3.398   1.042   0.453 -0.1467 -1.3858  0.2546
 9546SOL     OW29536   1.859   4.944   2.327  0.1367 -0.1145 -0.2205
 9546SOL    HW129537   1.817   4.950   2.237  0.8342  0.3051 -0.5275
 9546SOL    HW229538   1.854   5.034   2.372  2.3118  0.4598 -1.0151
 9547SOL     OW29539   4.116   6.854   5.218 -0.4192 -0.7498  1.1853
 9547SOL    HW129540   4.205   6.820   5.190 -0.0911 -0.2142  1.5455
 9547SOL    HW229541   4.127   6.944   5.261 -1.1445 -0.6249  1.1276
 9548SOL     OW29542   1.799   1.736   5.802  0.4938  0.7331 -0.2199
 9548SOL    HW129543   1.876   1.738   5.739  0.4791  2.0931 -0.2108
 9548SOL    HW229544   1.823   1.681   5.882  0.8038 -0.3227 -1.0033
 9549SOL     OW29545   5.563   1.089   0.149  0.3507  0.0338 -0.0908
 9549SOL    HW129546   5.595   1.006   0.193  2.5773  1.5718  1.4269
 9549SOL    HW229547   5.633   1.121   0.084  0.2038  1.4564  0.4170
 9550SOL     OW29548   4.051   3.656   3.686 -0.0366  0.1626 -0.0649
 9550SOL    HW129549   4.055   3.623   3.591 -1.0945 -0.9804  0.2509
 9550SOL    HW229550   4.028   3.753   3.686  2.0029  0.6969 -1.0055
 9551SOL     OW29551   2.196   4.348   6.021 -0.5938 -0.2992  0.0001
 9551SOL    HW129552   2.210   4.366   5.924 -0.2593 -1.1517 -0.1161
 9551SOL    HW229553   2.282   4.318   6.062 -0.7044  0.1695  0.5877
 9552SOL     OW29554   3.879   4.894   1.937  0.1852 -0.3627 -0.3657
 9552SOL    HW129555   3.957   4.903   2.000  0.4635 -1.0016 -0.6112
 9552SOL    HW229556   3.797   4.870   1.989  0.1667  0.2058 -0.1192
 9553SOL     OW29557   0.024   6.007   3.859 -0.8005 -0.0531  0.4621
 9553SOL    HW129558   0.069   6.096   3.860  0.2776 -0.5816  0.5505
 9553SOL    HW229559   0.049   5.958   3.776  0.5570 -1.2070  1.4935
 9554SOL     OW29560   2.659   5.009   1.147  0.5925  0.1475 -0.7347
 9554SOL    HW129561   2.567   5.049   1.146  0.1557 -0.8112 -0.6304
 9554SOL    HW229562   2.688   4.995   1.241  0.4739 -0.3396 -0.7641
 9555SOL     OW29563   6.166   5.797   3.507 -0.2140 -0.3954 -0.2267
 9555SOL    HW129564   6.123   5.887   3.519 -0.1979 -0.4554  0.2986
 9555SOL    HW229565   6.214   5.795   3.420 -0.2448  0.0980 -0.2601
 9556SOL     OW29566   6.122   2.385   6.675  0.1086  0.2888 -0.2881
 9556SOL    HW129567   6.219   2.396   6.655  0.2781 -0.3973  0.1616
 9556SOL    HW229568   6.070   2.386   6.589  0.4079  1.5488 -0.4795
 9557SOL     OW29569   5.492   3.122   1.934  0.1016  0.3244  0.1449
 9557SOL    HW129570   5.581   3.119   1.888  0.1026 -1.6869  0.2117
 9557SOL    HW229571   5.422   3.080   1.876 -0.8099  1.7606  0.1549
 9558SOL     OW29572   3.353   2.656   1.680  0.3312  0.1758  0.4598
 9558SOL    HW129573   3.376   2.732   1.620  0.9358 -0.8599 -0.6832
 9558SOL    HW229574   3.277   2.681   1.739 -0.9393  0.9398 -1.4136
 9559SOL     OW29575   6.977   6.004   1.045 -0.1452 -0.0750 -0.5982
 9559SOL    HW129576   6.921   6.012   0.963 -0.2041 -0.2695 -0.5779
 9559SOL    HW229577   6.918   6.002   1.126 -0.1247 -0.5275 -0.5926
 9560SOL     OW29578   4.625   2.248   4.347  0.4266  0.5756  0.1225
 9560SOL    HW129579   4.711   2.280   4.307 -0.2606 -0.0812 -2.0206
 9560SOL    HW229580   4.557   2.322   4.344 -0.2918 -0.0746 -2.1553
 9561SOL     OW29581   3.055   1.806   2.126  0.6598 -0.2012  0.0735
 9561SOL    HW129582   3.094   1.891   2.163 -0.3716  0.0953  0.5052
 9561SOL    HW229583   2.976   1.779   2.181 -0.3587 -0.2558 -1.3641
 9562SOL     OW29584   3.304   2.383   1.684  0.3265 -0.3812 -0.6548
 9562SOL    HW129585   3.211   2.359   1.658  0.5352 -0.5174 -1.3112
 9562SOL    HW229586   3.314   2.482   1.685 -0.4613 -0.2750  1.7840
 9563SOL     OW29587   2.175   2.794   4.722 -0.2357  0.2413  0.9066
 9563SOL    HW129588   2.236   2.807   4.644  0.2761 -1.0243  1.0765
 9563SOL    HW229589   2.198   2.859   4.794  0.8375 -0.1249  0.9115
 9564SOL     OW29590   5.897   1.368   5.187 -0.2356  0.4453 -0.0160
 9564SOL    HW129591   5.922   1.383   5.283  4.4123 -0.1467 -0.9056
 9564SOL    HW229592   5.863   1.275   5.175 -0.2864  0.3245  0.9832
 9565SOL     OW29593   1.974   3.094   5.485  0.0606  0.3218  0.7446
 9565SOL    HW129594   2.033   3.014   5.483 -0.5457 -0.1772  1.9268
 9565SOL    HW229595   2.025   3.173   5.520  0.4531  0.2972  0.2488
 9566SOL     OW29596   3.836   3.624   2.636  0.9180  0.3330 -0.1213
 9566SOL    HW129597   3.902   3.552   2.614  1.7154  1.3633 -1.2474
 9566SOL    HW229598   3.883   3.702   2.677  0.0371  0.1761  1.2440
 9567SOL     OW29599   5.549   6.679   1.920 -0.5703 -0.3144 -0.5436
 9567SOL    HW129600   5.630   6.697   1.864 -0.3903 -0.5409 -0.3588
 9567SOL    HW229601   5.548   6.582   1.946 -0.2606 -0.0605  0.4581
 9568SOL     OW29602   6.979   3.849   2.360  0.0401  0.2800  0.2374
 9568SOL    HW129603   6.968   3.774   2.295 -1.1095  0.7510 -0.1334
 9568SOL    HW229604   7.073   3.882   2.357  0.7871 -1.5991  0.9277
 9569SOL     OW29605   4.038   0.388   3.881 -1.1122  0.2352  0.4048
 9569SOL    HW129606   4.090   0.471   3.902 -0.0135  0.0038 -1.2032
 9569SOL    HW229607   3.992   0.399   3.793  0.5988 -1.4899 -0.7936
 9570SOL     OW29608   6.298   2.063   6.808  0.4025 -0.7515 -0.1885
 9570SOL    HW129609   6.374   2.008   6.772 -0.6129 -1.5748 -1.1470
 9570SOL    HW229610   6.333   2.150   6.844  1.5028  0.2567 -3.3861
 9571SOL     OW29611   1.677   4.380   1.136  0.3683  0.0001  0.1620
 9571SOL    HW129612   1.676   4.281   1.151  1.3474  0.1289  1.2928
 9571SOL    HW229613   1.772   4.411   1.123 -0.0362  0.6173 -1.6263
 9572SOL     OW29614   0.877   0.599   1.256 -0.3975 -0.4792  0.7410
 9572SOL    HW129615   0.795   0.571   1.206 -0.1281 -2.9751  1.5262
 9572SOL    HW229616   0.958   0.568   1.208  0.0387  0.6055  0.7524
 9573SOL     OW29617   0.655   4.155   4.591 -0.3819  0.0333  0.1895
 9573SOL    HW129618   0.614   4.206   4.666 -0.1319 -0.0710  0.4001
 9573SOL    HW229619   0.688   4.066   4.625 -0.0324  0.0943  0.0184
 9574SOL     OW29620   0.185   3.676   4.511  0.1410  0.4377  0.7048
 9574SOL    HW129621   0.101   3.666   4.459  1.0810  1.4530 -1.1183
 9574SOL    HW229622   0.252   3.608   4.480  0.9223  1.4506  0.0612
 9575SOL     OW29623   2.730   1.584   5.921 -0.3055  0.4558 -0.2345
 9575SOL    HW129624   2.804   1.540   5.870 -0.7081  1.5998 -1.8825
 9575SOL    HW229625   2.715   1.676   5.886 -2.2583  0.3978  0.3211
 9576SOL     OW29626   5.279   1.065   5.666 -0.2463  0.8450 -0.0906
 9576SOL    HW129627   5.335   1.074   5.584 -0.7545 -1.2038 -0.7147
 9576SOL    HW229628   5.188   1.101   5.647 -0.2899  0.6016 -0.3595
 9577SOL     OW29629   4.356   0.701   3.600  0.1746 -0.2600 -0.1781
 9577SOL    HW129630   4.358   0.766   3.525  1.9719  0.1342  0.1801
 9577SOL    HW229631   4.359   0.750   3.687  2.8962 -0.7789  0.0911
 9578SOL     OW29632   1.156   5.625   1.667 -0.1357 -0.0527 -0.2448
 9578SOL    HW129633   1.074   5.581   1.630 -1.3083  0.6674  1.3852
 9578SOL    HW229634   1.210   5.558   1.719 -1.2350  0.0935  1.1327
 9579SOL     OW29635   1.577   6.648   2.667 -0.0246  0.2740  0.2864
 9579SOL    HW129636   1.656   6.604   2.710 -1.2215 -2.1789  0.1911
 9579SOL    HW229637   1.608   6.715   2.600  1.9233  0.7362  1.5818
 9580SOL     OW29638   4.620   1.668   2.598  0.5435 -0.2356 -0.2739
 9580SOL    HW129639   4.569   1.645   2.680 -1.5699 -0.8580 -1.6880
 9580SOL    HW229640   4.672   1.588   2.567  1.0110 -0.1204  0.1908
 9581SOL     OW29641   1.775   6.631   5.361 -0.0102  0.1614 -0.5208
 9581SOL    HW129642   1.701   6.567   5.344 -0.6788  1.3462 -2.4440
 9581SOL    HW229643   1.738   6.724   5.368  1.2572  0.7858 -1.5543
 9582SOL     OW29644   2.981   0.664   0.552  0.1193  0.3512 -0.0240
 9582SOL    HW129645   2.886   0.692   0.555 -0.1259 -0.5493  2.5701
 9582SOL    HW229646   2.991   0.572   0.590  2.0674  0.5424  0.0647
 9583SOL     OW29647   5.110   2.366   4.237  0.6337  0.3090  0.4227
 9583SOL    HW129648   5.120   2.275   4.276 -0.3014  0.3033  0.6706
 9583SOL    HW229649   5.184   2.425   4.271  0.1773  0.1392  1.7550
 9584SOL     OW29650   0.072   6.703   3.952 -0.4263 -0.3126  0.0187
 9584SOL    HW129651   0.121   6.763   4.015  1.2671 -1.1873 -0.3997
 9584SOL    HW229652  -0.026   6.724   3.955 -0.2569  0.4035  2.0921
 9585SOL     OW29653   1.529   3.944   4.780 -0.4161 -0.2356  0.1573
 9585SOL    HW129654   1.563   3.868   4.835  0.6687 -0.2101 -0.4546
 9585SOL    HW229655   1.524   3.918   4.684  1.2941  0.8436 -0.2757
 9586SOL     OW29656   0.787   2.668   2.752  0.7655 -0.4050 -0.5825
 9586SOL    HW129657   0.688   2.656   2.738  0.8894 -0.9184 -1.0136
 9586SOL    HW229658   0.813   2.760   2.723  0.3563 -0.1326 -0.1229
 9587SOL     OW29659   1.783   5.440   1.546  0.0408  0.6467 -0.1021
 9587SOL    HW129660   1.859   5.448   1.610  0.1633 -0.3886 -0.1093
 9587SOL    HW229661   1.751   5.345   1.543  0.6632  0.4426 -2.2738
 9588SOL     OW29662   3.811   5.532   6.717 -0.1666  0.4610  0.0692
 9588SOL    HW129663   3.855   5.551   6.805 -2.8158  0.1767  1.5625
 9588SOL    HW229664   3.879   5.538   6.644  2.3193 -0.1557  2.1846
 9589SOL     OW29665   5.204   6.855   2.740  0.0543 -0.0807  0.3520
 9589SOL    HW129666   5.273   6.925   2.759 -0.3374  0.4474 -0.1572
 9589SOL    HW229667   5.152   6.880   2.659 -0.1070 -0.9579  0.1715
 9590SOL     OW29668   2.164   0.230   4.422  0.8226 -0.9776 -0.1035
 9590SOL    HW129669   2.252   0.218   4.376  1.0889  3.8545 -1.4191
 9590SOL    HW229670   2.153   0.326   4.448 -3.9849 -1.3877  0.2603
 9591SOL     OW29671   0.601   0.544   1.187  0.0044 -0.1609  0.2041
 9591SOL    HW129672   0.636   0.457   1.151 -1.4491 -0.3007 -0.9488
 9591SOL    HW229673   0.526   0.526   1.250  1.2531  0.1876  1.8594
 9592SOL     OW29674   1.774   0.809   5.797 -0.6777  0.3886 -0.1613
 9592SOL    HW129675   1.722   0.756   5.731 -3.0857  1.1003  1.0286
 9592SOL    HW229676   1.812   0.890   5.753  2.3160 -1.7092 -1.7910
 9593SOL     OW29677   4.159   1.794   4.061 -0.0573  0.2002 -0.3140
 9593SOL    HW129678   4.092   1.779   3.988  0.0724  1.2544 -0.6614
 9593SOL    HW229679   4.111   1.813   4.146 -0.1995  0.6148 -0.4868
 9594SOL     OW29680   1.124   0.876   4.144  0.5045  1.0108 -0.2203
 9594SOL    HW129681   1.180   0.851   4.223 -1.9025  1.6118  1.8055
 9594SOL    HW229682   1.116   0.976   4.139 -0.7447  0.9322 -0.1438
 9595SOL     OW29683   5.595   1.701   5.561 -0.3480 -0.7195  0.0874
 9595SOL    HW129684   5.644   1.693   5.648  0.0027  0.1040 -0.0250
 9595SOL    HW229685   5.655   1.675   5.486 -0.2301 -0.1777 -0.0109
 9596SOL     OW29686   5.151   6.906   0.303  0.9589  0.2636  0.5508
 9596SOL    HW129687   5.129   6.953   0.388 -1.0730 -0.0436  0.2491
 9596SOL    HW229688   5.184   6.972   0.235 -0.4306  1.0379  0.6024
 9597SOL     OW29689   0.127   4.815   4.848 -0.3091 -0.2226 -0.1741
 9597SOL    HW129690   0.058   4.758   4.894 -0.2923  0.2254  0.4134
 9597SOL    HW229691   0.085   4.859   4.768 -0.2184 -1.3574 -0.8761
 9598SOL     OW29692   2.787   0.406   6.676 -0.0066 -0.1072  0.0989
 9598SOL    HW129693   2.739   0.326   6.640 -0.0218  0.4827 -1.2585
 9598SOL    HW229694   2.764   0.487   6.621  0.5700  0.6959  0.9954
 9599SOL     OW29695   3.462   0.003   4.130 -0.0439 -0.7923  0.3820
 9599SOL    HW129696   3.524  -0.050   4.072  1.4435  2.0915 -0.8708
 9599SOL    HW229697   3.375   0.016   4.082  0.2686 -0.5162 -0.1093
 9600SOL     OW29698   4.973   6.177   0.044  0.4340  0.2921 -0.1004
 9600SOL    HW129699   5.010   6.108   0.106  1.6244  0.8307 -0.1901
 9600SOL    HW229700   5.041   6.202  -0.024  0.8875  3.0767  1.2008
 9601SOL     OW29701   4.340   4.832   0.240  0.5535 -0.0481  0.3194
 9601SOL    HW129702   4.418   4.851   0.180  1.4270 -2.0931  0.7162
 9601SOL    HW229703   4.334   4.903   0.311  1.1628  0.9132 -0.5655
 9602SOL     OW29704   5.240   0.059   4.306 -0.8685 -0.4721  0.6503
 9602SOL    HW129705   5.310   0.057   4.235 -0.3468  0.7269  1.1075
 9602SOL    HW229706   5.209  -0.034   4.324  2.0355 -1.3484  1.7950
 9603SOL     OW29707   4.085   3.065   6.755 -0.4475 -0.2608  0.1654
 9603SOL    HW129708   4.130   2.992   6.703 -1.2759 -1.4458  1.0591
 9603SOL    HW229709   3.989   3.071   6.727  0.0099  1.7644 -1.2181
 9604SOL     OW29710   0.961   3.798   6.413  0.2078 -0.7354 -0.5466
 9604SOL    HW129711   1.019   3.811   6.332  0.6303 -0.6208 -0.2292
 9604SOL    HW229712   0.868   3.826   6.391  0.2437 -1.0263 -1.0969
 9605SOL     OW29713   2.516   4.805   1.830 -0.3580 -0.5557 -0.3412
 9605SOL    HW129714   2.505   4.706   1.830  0.0239 -0.5999 -0.6588
 9605SOL    HW229715   2.579   4.832   1.758 -2.4614  0.1414 -2.0484
 9606SOL     OW29716   3.878   4.611   6.252  0.0353  0.8080 -0.5405
 9606SOL    HW129717   3.953   4.578   6.194 -0.2075  1.9231 -1.5295
 9606SOL    HW229718   3.791   4.582   6.213 -0.0877 -0.0242  0.3141
 9607SOL     OW29719   0.571   6.446   3.738 -0.3816 -0.5256 -0.0869
 9607SOL    HW129720   0.582   6.415   3.644 -0.9697 -3.4052  0.6906
 9607SOL    HW229721   0.537   6.540   3.739 -0.5336 -0.4862 -2.7114
 9608SOL     OW29722   1.192   4.162   1.312 -0.2802 -0.2798  0.3157
 9608SOL    HW129723   1.102   4.199   1.288 -0.0534 -0.1332 -0.3355
 9608SOL    HW229724   1.255   4.177   1.236  0.6019  0.6362  1.1888
 9609SOL     OW29725   3.555   4.934   0.619  0.0622  0.6682  0.0461
 9609SOL    HW129726   3.459   4.935   0.647  0.1921 -0.1705  0.5413
 9609SOL    HW229727   3.608   4.991   0.681 -0.0881  1.0072 -0.1340
 9610SOL     OW29728   2.533   0.907   4.779 -0.3300 -0.5639 -0.2281
 9610SOL    HW129729   2.460   0.890   4.846  1.2409 -4.3399  0.7741
 9610SOL    HW229730   2.509   0.864   4.692 -0.4543  0.6066 -0.7952
 9611SOL     OW29731   2.357   6.650   4.880 -0.2533 -0.3891 -0.0751
 9611SOL    HW129732   2.277   6.678   4.933  0.1763 -1.0367  0.9405
 9611SOL    HW229733   2.436   6.706   4.905 -0.2820 -0.0116 -0.7919
 9612SOL     OW29734   6.133   4.794   5.796  0.5190  0.1565  0.6074
 9612SOL    HW129735   6.149   4.869   5.733  0.7897 -1.7179 -1.7049
 9612SOL    HW229736   6.179   4.813   5.883  0.5880  2.5944  0.1079
 9613SOL     OW29737   0.597   3.615   4.468 -0.1780  0.5480 -0.3461
 9613SOL    HW129738   0.519   3.596   4.408 -0.4307  1.6994 -0.3994
 9613SOL    HW229739   0.650   3.691   4.431  0.5742  0.2355  0.0683
 9614SOL     OW29740   6.371   6.797   2.060  0.2330 -0.2584 -0.1997
 9614SOL    HW129741   6.370   6.823   1.964 -0.1599 -0.4933 -0.2642
 9614SOL    HW229742   6.369   6.697   2.068  1.7137 -0.2834  0.0453
 9615SOL     OW29743   5.554   0.831   0.259 -0.4636 -0.0474  0.1451
 9615SOL    HW129744   5.509   0.742   0.254  1.7455 -1.3170  1.1696
 9615SOL    HW229745   5.557   0.862   0.354 -1.3983  1.2606 -0.2290
 9616SOL     OW29746   2.646   0.431   0.059  0.0608  0.4828 -0.1645
 9616SOL    HW129747   2.723   0.492   0.042  0.1413  0.2041 -0.8544
 9616SOL    HW229748   2.570   0.455  -0.003 -0.1771  0.3665  0.0801
 9617SOL     OW29749   0.319   5.355   5.974  0.0465  0.3150 -0.0529
 9617SOL    HW129750   0.258   5.287   6.017 -0.0131 -0.0220 -0.6574
 9617SOL    HW229751   0.304   5.444   6.017  0.0595 -0.0288  0.6946
 9618SOL     OW29752   3.110   2.171   6.720  0.1896  0.0996  0.3685
 9618SOL    HW129753   3.043   2.103   6.747  1.7178 -1.9878 -0.7369
 9618SOL    HW229754   3.153   2.211   6.801 -0.5499 -0.4662  1.0459
 9619SOL     OW29755   0.243   1.410   5.355 -0.5088  0.5936  0.4964
 9619SOL    HW129756   0.320   1.411   5.419  0.3299  0.4825 -0.4877
 9619SOL    HW229757   0.233   1.500   5.313 -0.3216  0.3670 -0.0515
 9620SOL     OW29758   3.789   4.623   1.110 -0.3454 -0.3944  0.0733
 9620SOL    HW129759   3.841   4.537   1.114 -0.6794 -0.6822 -1.3152
 9620SOL    HW229760   3.780   4.652   1.015 -0.0417  1.3204  0.5392
 9621SOL     OW29761   5.609   2.816   6.860 -0.1451  1.0593 -0.3504
 9621SOL    HW129762   5.590   2.718   6.858  0.4267  0.9357  0.0266
 9621SOL    HW229763   5.533   2.866   6.819 -0.6576  0.4908 -0.0954
 9622SOL     OW29764   1.595   1.889   3.308  0.5777  0.4442  0.4246
 9622SOL    HW129765   1.627   1.974   3.267 -0.1035 -0.0561 -1.2274
 9622SOL    HW229766   1.511   1.906   3.360  0.0720  0.6829 -0.4558
 9623SOL     OW29767   5.056   1.884   4.574 -0.0973  0.3246 -0.5943
 9623SOL    HW129768   5.068   1.960   4.639 -1.3450  0.2962 -0.2980
 9623SOL    HW229769   5.021   1.804   4.623 -0.8076  0.2260 -1.2382
 9624SOL     OW29770   5.752   3.311   3.983 -0.4972 -0.6447 -0.1839
 9624SOL    HW129771   5.704   3.251   3.919 -1.1894  0.6448 -0.9196
 9624SOL    HW229772   5.781   3.259   4.063 -0.2042 -2.1586 -1.2371
 9625SOL     OW29773   1.366   6.243   3.853 -0.2210  0.0873 -0.3580
 9625SOL    HW129774   1.288   6.214   3.909 -0.1177 -1.3583 -0.9219
 9625SOL    HW229775   1.451   6.212   3.897 -0.1447 -1.1671 -1.3274
 9626SOL     OW29776   6.780   0.450   3.235  0.1935 -0.6602  0.2309
 9626SOL    HW129777   6.707   0.384   3.249  0.1291 -0.8371 -0.8804
 9626SOL    HW229778   6.852   0.435   3.303 -1.5254  0.6114  2.4822
 9627SOL     OW29779   2.102   6.372   5.658  0.0398 -0.2722  0.1153
 9627SOL    HW129780   2.157   6.403   5.736  0.1488  0.3329 -0.1962
 9627SOL    HW229781   2.040   6.445   5.630  0.6516 -0.1462 -0.9485
 9628SOL     OW29782   1.170   2.417   3.643 -0.2573  0.6241 -0.5339
 9628SOL    HW129783   1.075   2.440   3.665 -0.7442 -2.2093  0.7452
 9628SOL    HW229784   1.227   2.434   3.723 -0.2993 -0.7173 -0.2014
 9629SOL     OW29785   5.242   3.417   3.363  0.0759 -0.1356 -0.0863
 9629SOL    HW129786   5.238   3.318   3.378  3.1139 -0.4691 -0.6942
 9629SOL    HW229787   5.297   3.459   3.435 -2.5008  1.4421  1.0774
 9630SOL     OW29788   3.661   0.521   3.165 -0.0080 -0.1603  0.2188
 9630SOL    HW129789   3.638   0.615   3.139  1.3448 -0.0865 -0.8364
 9630SOL    HW229790   3.721   0.481   3.096  1.6572 -0.8643  1.9734
 9631SOL     OW29791   6.688   2.380   1.847 -0.0988  0.0112 -0.1404
 9631SOL    HW129792   6.785   2.376   1.824  0.0796 -0.4529  0.6381
 9631SOL    HW229793   6.652   2.471   1.827  0.7939  0.5650  0.6913
 9632SOL     OW29794   3.836   4.208   1.324 -0.4981 -0.1818 -0.4494
 9632SOL    HW129795   3.774   4.267   1.375 -0.6300 -1.3838  0.8517
 9632SOL    HW229796   3.796   4.117   1.315  1.7428 -1.5824  2.0721
 9633SOL     OW29797   6.953   2.177   4.620 -0.0607  0.2317  0.6075
 9633SOL    HW129798   6.914   2.088   4.594  0.7762 -0.1819  0.7301
 9633SOL    HW229799   6.941   2.242   4.545  1.8003 -0.7844 -0.6319
 9634SOL     OW29800   2.911   3.128   5.466  0.0236  0.2125 -0.6301
 9634SOL    HW129801   2.816   3.107   5.441 -0.0237  0.6666 -0.8552
 9634SOL    HW229802   2.960   3.161   5.385  0.3870 -0.0677 -0.5240
 9635SOL     OW29803   6.903   4.887   0.175 -0.6943 -0.5781 -0.6403
 9635SOL    HW129804   6.916   4.788   0.174  0.7617 -0.4173  0.1122
 9635SOL    HW229805   6.913   4.923   0.082  2.2538 -0.7812 -0.4994
 9636SOL     OW29806   3.688   6.306   6.949 -0.3409 -0.1103 -0.4937
 9636SOL    HW129807   3.758   6.377   6.935  0.3510 -0.8188 -0.7123
 9636SOL    HW229808   3.702   6.262   7.038 -1.1368  0.4226 -0.0948
 9637SOL     OW29809   3.631   1.908   4.268  0.8014  0.1378  0.3639
 9637SOL    HW129810   3.543   1.887   4.309  0.8717  0.3314  0.6182
 9637SOL    HW229811   3.617   1.951   4.179  0.6238  0.7675  0.6883
 9638SOL     OW29812   4.156   6.601   4.842  0.0862  0.3104 -0.4541
 9638SOL    HW129813   4.209   6.685   4.837  0.2316  0.3309  1.0217
 9638SOL    HW229814   4.065   6.617   4.803 -0.0608  1.3008  0.2562
 9639SOL     OW29815   0.076   4.083   0.709  0.4411  0.3864  0.0376
 9639SOL    HW129816   0.046   4.117   0.798 -0.2295 -0.3724  0.1163
 9639SOL    HW229817   0.066   4.155   0.641  0.1396  0.7046  0.4096
 9640SOL     OW29818   3.232   6.910   6.392 -0.0871  0.5924  0.1327
 9640SOL    HW129819   3.151   6.966   6.377  0.4998  1.1797 -0.8982
 9640SOL    HW229820   3.307   6.967   6.424  0.5856  0.4681 -1.1561
 9641SOL     OW29821   5.576   1.313   5.620  0.3384 -0.0416 -0.0960
 9641SOL    HW129822   5.542   1.272   5.704  0.5414 -0.1773 -0.0775
 9641SOL    HW229823   5.522   1.393   5.597  1.0603  0.7526  0.8529
 9642SOL     OW29824   7.018   4.425   0.294 -0.0467 -0.0416 -0.1698
 9642SOL    HW129825   6.962   4.360   0.242 -3.1198 -1.0911  3.9111
 9642SOL    HW229826   6.984   4.518   0.280 -0.1273 -0.1623 -0.7915
 9643SOL     OW29827   3.369   3.529   3.453  0.1081 -0.0595 -0.1924
 9643SOL    HW129828   3.337   3.459   3.389 -0.3087  0.6252 -0.7492
 9643SOL    HW229829   3.293   3.555   3.513 -0.0330  0.6145 -0.6436
 9644SOL     OW29830   4.109   2.169   6.639 -0.2944 -0.3284 -0.3371
 9644SOL    HW129831   4.025   2.114   6.646  0.3496 -1.3022 -0.1177
 9644SOL    HW229832   4.178   2.134   6.702  0.9118 -0.7034 -1.8039
 9645SOL     OW29833   5.709   1.931   6.690  0.9279  0.9046  0.6240
 9645SOL    HW129834   5.678   1.882   6.608  0.3358  2.0165  0.1495
 9645SOL    HW229835   5.669   1.889   6.771  2.5569 -1.0198  0.4861
 9646SOL     OW29836   0.513   4.238   6.223 -0.8474 -0.1165  0.7870
 9646SOL    HW129837   0.482   4.144   6.210 -1.2665  0.0630  0.4486
 9646SOL    HW229838   0.458   4.282   6.294 -1.5697  0.2803  0.0127
 9647SOL     OW29839   3.133   6.459   6.486 -0.3338 -0.3585  0.3726
 9647SOL    HW129840   3.162   6.412   6.403 -1.4044  0.2162 -0.3609
 9647SOL    HW229841   3.184   6.424   6.564  0.5177 -1.0915 -0.4854
 9648SOL     OW29842   5.720   0.613   4.304 -0.2359 -0.6427  0.2314
 9648SOL    HW129843   5.638   0.662   4.336  1.4974  2.0922  0.7992
 9648SOL    HW229844   5.724   0.616   4.204  0.6024  1.9541  0.2586
 9649SOL     OW29845   6.966   6.759   0.203 -0.4002  0.2061  0.1618
 9649SOL    HW129846   7.042   6.704   0.238  1.2030  1.6277 -0.9088
 9649SOL    HW229847   6.958   6.747   0.104 -0.7957  0.9614  0.0939
 9650SOL     OW29848   6.561   2.397   2.696 -0.0984  0.2109  0.2363
 9650SOL    HW129849   6.542   2.358   2.606 -1.2720 -0.6969  0.8541
 9650SOL    HW229850   6.509   2.348   2.766 -2.1082  3.2123  1.0246
 9651SOL     OW29851   4.610   5.679   1.971  0.6680  0.2789 -0.1480
 9651SOL    HW129852   4.644   5.742   1.901 -0.3777  0.7817 -0.2172
 9651SOL    HW229853   4.517   5.650   1.948  0.3789  0.3097  0.9311
 9652SOL     OW29854   2.187   4.767   5.691 -0.0376 -0.6145 -0.4083
 9652SOL    HW129855   2.266   4.776   5.631 -0.7034 -0.0839 -1.2235
 9652SOL    HW229856   2.209   4.703   5.765  2.2454  1.8453  1.2181
 9653SOL     OW29857   0.417   0.859   6.265  0.0860 -0.2781  0.2000
 9653SOL    HW129858   0.334   0.900   6.229 -0.7815 -1.4862  0.7383
 9653SOL    HW229859   0.402   0.829   6.360  1.1546 -0.4426  0.3400
 9654SOL     OW29860   1.390   6.560   6.781  0.2124 -0.4384  0.2248
 9654SOL    HW129861   1.343   6.587   6.865 -1.3149 -1.1390 -0.3618
 9654SOL    HW229862   1.332   6.581   6.702  2.1476  1.4231 -0.8151
 9655SOL     OW29863   6.531   2.748   3.700  0.3094 -0.3757 -0.1685
 9655SOL    HW129864   6.484   2.758   3.613  0.7837 -0.2394 -0.4123
 9655SOL    HW229865   6.630   2.754   3.686  0.3388  1.2591  0.5939
 9656SOL     OW29866   2.189   5.914   4.232  0.8454 -0.3342  0.6302
 9656SOL    HW129867   2.119   5.977   4.267  1.8832  0.1896  1.8688
 9656SOL    HW229868   2.227   5.862   4.309  1.8853 -0.5287 -0.0045
 9657SOL     OW29869   3.990   5.470   6.920  0.1427  0.5517 -0.2859
 9657SOL    HW129870   4.031   5.399   6.977 -0.5141  1.7110  1.7516
 9657SOL    HW229871   4.058   5.505   6.856  0.4958 -1.8132 -1.3348
 9658SOL     OW29872   3.375   1.847   3.508  0.1729  0.0750  0.1948
 9658SOL    HW129873   3.352   1.937   3.471  2.0848  1.5409  2.2529
 9658SOL    HW229874   3.472   1.845   3.535  0.0173 -2.3765  0.8777
 9659SOL     OW29875   4.335   0.934   0.418  0.3398 -0.4624 -0.4894
 9659SOL    HW129876   4.317   1.026   0.384  0.8351 -0.7442 -1.5913
 9659SOL    HW229877   4.257   0.901   0.470  0.3251  0.7279  0.2808
 9660SOL     OW29878   2.480   4.133   6.397  0.4915 -0.0490  0.6769
 9660SOL    HW129879   2.441   4.089   6.477 -0.3392  0.1790  0.4091
 9660SOL    HW229880   2.569   4.093   6.376  0.0232 -1.1732  0.7926
 9661SOL     OW29881   3.804   5.967   5.423  0.3806  0.2797  0.4930
 9661SOL    HW129882   3.782   6.029   5.499 -2.2611 -0.1641  0.1898
 9661SOL    HW229883   3.812   5.874   5.457 -0.3295  0.1490  0.3217
 9662SOL     OW29884   2.112   3.760   2.138 -0.2739 -0.7271  0.0632
 9662SOL    HW129885   2.138   3.670   2.103  0.3439 -0.5051 -0.0623
 9662SOL    HW229886   2.138   3.767   2.234 -0.2302 -0.6516  0.0459
 9663SOL     OW29887   6.169   1.034   0.274 -0.2252  0.2977  0.2706
 9663SOL    HW129888   6.118   1.119   0.266  1.9800  1.6398 -0.3178
 9663SOL    HW229889   6.184   1.014   0.371  1.3602  2.0137  0.4537
 9664SOL     OW29890   4.427   0.089   5.451 -0.9729  0.5005  0.2614
 9664SOL    HW129891   4.444   0.180   5.413  0.4661 -0.1326 -0.6873
 9664SOL    HW229892   4.443   0.091   5.550  0.0327  1.0666  0.1000
 9665SOL     OW29893   3.947   1.532   0.018  0.1002 -0.3324 -0.0086
 9665SOL    HW129894   3.999   1.560   0.099  0.4373  1.9479 -0.9140
 9665SOL    HW229895   3.851   1.518   0.042  0.4715 -1.1964  1.0394
 9666SOL     OW29896   2.450   4.562   4.887  0.1892 -0.1625  0.9821
 9666SOL    HW129897   2.399   4.644   4.912 -3.4654 -2.3391  1.4009
 9666SOL    HW229898   2.515   4.540   4.960 -0.3463  1.1287  1.9021
 9667SOL     OW29899   1.508   5.516   4.538  0.3404  0.7104 -0.0433
 9667SOL    HW129900   1.605   5.531   4.556  0.1201 -0.0017  1.9789
 9667SOL    HW229901   1.454   5.561   4.609 -0.7175 -0.7440  0.0949
 9668SOL     OW29902   6.798   4.117   1.444  0.5504  0.0192  0.2474
 9668SOL    HW129903   6.887   4.072   1.447  1.1864  0.9299 -2.3602
 9668SOL    HW229904   6.811   4.214   1.423 -0.9886  0.6324  1.8926
 9669SOL     OW29905   0.176   3.265   5.094 -0.2527  0.3140  0.2411
 9669SOL    HW129906   0.150   3.350   5.140  2.5780  2.3935 -1.6542
 9669SOL    HW229907   0.262   3.278   5.045  0.0202 -3.5387 -0.6612
 9670SOL     OW29908   6.101   6.861   6.850  0.5961 -0.5066  0.1318
 9670SOL    HW129909   6.013   6.847   6.804  0.6681 -1.1928  0.1927
 9670SOL    HW229910   6.176   6.846   6.785  0.6717  1.2315 -0.2330
 9671SOL     OW29911   3.814   4.916   5.444 -0.2521  0.0959 -0.3941
 9671SOL    HW129912   3.781   4.947   5.533  2.3558  1.2240  0.2611
 9671SOL    HW229913   3.758   4.958   5.372 -1.6174  0.1569  0.6587
 9672SOL     OW29914   5.663   3.511   3.342 -0.3115  0.0932 -0.2961
 9672SOL    HW129915   5.750   3.476   3.379  0.3742  1.2855 -0.7334
 9672SOL    HW229916   5.615   3.437   3.295  0.1885 -0.7275  0.4451
 9673SOL     OW29917   1.992   0.508   1.240  0.1688  0.1283 -0.0645
 9673SOL    HW129918   2.059   0.438   1.216 -0.5490 -0.1404 -1.3761
 9673SOL    HW229919   1.912   0.465   1.281  0.7475  0.4465  1.4793
 9674SOL     OW29920   2.196   5.308   1.856 -0.1028 -0.4513  0.0585
 9674SOL    HW129921   2.286   5.287   1.894  0.1247 -0.2684 -0.3692
 9674SOL    HW229922   2.181   5.252   1.774  0.2542  0.6009 -0.7408
 9675SOL     OW29923   5.027   4.365   4.740  0.1395 -0.3678  0.8544
 9675SOL    HW129924   5.014   4.314   4.826 -0.1047 -1.3072  0.2719
 9675SOL    HW229925   5.086   4.312   4.679 -1.9135 -1.0515 -0.6408
 9676SOL     OW29926   3.455   2.152   3.699 -0.4660  0.0337  0.4141
 9676SOL    HW129927   3.417   2.173   3.609  2.2009 -2.2167 -1.4113
 9676SOL    HW229928   3.394   2.090   3.748 -1.7860  1.0110  0.0368
 9677SOL     OW29929   6.764   1.887   4.316  0.2467  0.8159  0.3979
 9677SOL    HW129930   6.835   1.832   4.272 -0.4249  0.6042 -0.4422
 9677SOL    HW229931   6.695   1.914   4.248 -1.3963 -0.4213  1.4760
 9678SOL     OW29932   4.265   5.808   1.821  0.2678 -0.3380  0.0732
 9678SOL    HW129933   4.326   5.861   1.762 -1.6960  2.1024  0.0391
 9678SOL    HW229934   4.218   5.738   1.767  1.2643 -0.6531 -0.4001
 9679SOL     OW29935   2.537   0.360   5.888 -0.0216  0.1044 -0.4548
 9679SOL    HW129936   2.542   0.371   5.789  1.3525 -0.0485 -0.4215
 9679SOL    HW229937   2.522   0.449   5.931  0.0150  0.2608 -0.7618
 9680SOL     OW29938   0.335   3.111   3.778  0.1684  0.5479 -0.1277
 9680SOL    HW129939   0.276   3.121   3.858 -0.0599  1.0230 -0.3443
 9680SOL    HW229940   0.281   3.127   3.695  0.5150  0.6001 -0.3467
 9681SOL     OW29941   5.098   4.879   6.934 -0.2821  0.0712  0.0719
 9681SOL    HW129942   5.155   4.906   7.012 -0.6759  0.5015  0.2186
 9681SOL    HW229943   5.056   4.790   6.952 -0.8719  0.4561  0.6320
 9682SOL     OW29944   5.800   3.301   0.278  0.0589 -0.3315 -0.4542
 9682SOL    HW129945   5.737   3.329   0.351  0.4518 -0.5276 -0.0377
 9682SOL    HW229946   5.890   3.340   0.295  0.4576 -1.3404 -0.1923
 9683SOL     OW29947   5.787   1.836   6.162 -0.3512  0.1640  0.0215
 9683SOL    HW129948   5.788   1.771   6.238 -0.1479  0.7599  0.5445
 9683SOL    HW229949   5.792   1.787   6.075  0.2858 -0.4895  0.4195
 9684SOL     OW29950   0.240   5.459   4.290  0.7429 -0.3969 -0.2266
 9684SOL    HW129951   0.273   5.482   4.381 -0.5824 -0.3344  0.2551
 9684SOL    HW229952   0.247   5.360   4.276  0.7783 -0.4282  0.0027
 9685SOL     OW29953   5.281   6.532   6.235 -0.2463 -0.2246  0.5475
 9685SOL    HW129954   5.302   6.617   6.283  0.5624  0.1987 -0.5125
 9685SOL    HW229955   5.183   6.513   6.241 -0.3222  0.3950  1.3995
 9686SOL     OW29956   0.860   4.541   2.319 -0.2236 -0.2928 -0.2821
 9686SOL    HW129957   0.818   4.451   2.303  1.8323 -1.6032  1.1284
 9686SOL    HW229958   0.951   4.543   2.277  0.3548  0.5576  0.9566
 9687SOL     OW29959   3.162   0.498   4.899 -0.7086  0.8266 -0.1315
 9687SOL    HW129960   3.136   0.478   4.994 -1.0608  1.1332 -0.1624
 9687SOL    HW229961   3.122   0.585   4.871 -2.3947 -0.2420 -1.2471
 9688SOL     OW29962   4.871   6.934   1.055 -0.0609  0.0059  0.0028
 9688SOL    HW129963   4.827   7.001   0.995 -0.5460 -1.0459 -0.8622
 9688SOL    HW229964   4.939   6.980   1.112 -0.9971  1.3753  0.0801
 9689SOL     OW29965   0.780   0.342   0.449  0.2513  0.4470 -0.4958
 9689SOL    HW129966   0.841   0.263   0.440  1.0369  0.8913  0.6722
 9689SOL    HW229967   0.690   0.319   0.413  0.3087 -1.1784  0.3013
 9690SOL     OW29968   1.780   2.061   6.751 -0.6940 -0.6070 -0.0068
 9690SOL    HW129969   1.801   2.102   6.662  0.6716 -0.7906  0.1990
 9690SOL    HW229970   1.764   1.963   6.740  0.7202 -0.8719  0.0767
 9691SOL     OW29971   5.307   6.965   3.065  0.7122  0.4994 -0.0618
 9691SOL    HW129972   5.324   7.026   2.988  0.3791 -0.8024 -1.2209
 9691SOL    HW229973   5.321   6.870   3.036  1.5189  0.0189  1.7625
 9692SOL     OW29974   1.062   3.293   2.059 -0.1371  0.1905 -1.1823
 9692SOL    HW129975   1.155   3.291   2.095 -0.4276 -0.8159 -0.4393
 9692SOL    HW229976   1.007   3.357   2.112 -0.4301 -0.9060 -0.1098
 9693SOL     OW29977   5.101   4.336   3.888  0.1770 -0.4491 -0.1286
 9693SOL    HW129978   5.050   4.412   3.850  1.2790 -0.0260 -0.8427
 9693SOL    HW229979   5.057   4.250   3.862  0.1246 -0.1143 -1.2082
 9694SOL     OW29980   5.736   6.185   3.296  0.2285 -0.0091 -0.3255
 9694SOL    HW129981   5.645   6.158   3.327 -0.8210  3.2642 -0.2097
 9694SOL    HW229982   5.800   6.180   3.372  0.4690 -3.1338 -0.5928
 9695SOL     OW29983   1.558   2.026   4.792  0.0920  0.0735  0.0507
 9695SOL    HW129984   1.651   1.991   4.797  0.1838  0.5064  2.9083
 9695SOL    HW229985   1.501   1.979   4.860 -1.0335  1.8566  0.4011
 9696SOL     OW29986   6.008   4.865   5.316 -0.1958  0.2917 -0.0750
 9696SOL    HW129987   5.945   4.788   5.326 -0.3711  0.6086  1.6223
 9696SOL    HW229988   5.957   4.951   5.318  0.2169  0.5365  0.9213
 9697SOL     OW29989   1.944   2.961   0.559  0.3784  0.3944  0.1840
 9697SOL    HW129990   1.850   2.992   0.543  0.0066 -1.3959 -1.6354
 9697SOL    HW229991   1.984   3.013   0.634 -1.6780  1.9686  0.3013
 9698SOL     OW29992   5.993   6.730   2.515  0.1052  0.3152  0.5686
 9698SOL    HW129993   6.042   6.676   2.446  0.7650 -1.1163  2.0936
 9698SOL    HW229994   5.896   6.733   2.491  0.3560  0.0873 -0.5676
 9699SOL     OW29995   6.789   5.121   2.738 -0.0101  0.0325 -0.0754
 9699SOL    HW129996   6.860   5.127   2.668 -0.8869 -0.8579 -1.0664
 9699SOL    HW229997   6.829   5.141   2.827  1.4419 -0.2683 -0.6281
 9700SOL     OW29998   0.291   1.426   2.094  0.0790  0.1485 -0.1219
 9700SOL    HW129999   0.351   1.459   2.166 -1.1573  1.8741  0.1925
 9700SOL    HW230000   0.214   1.490   2.083 -1.1535 -1.4399 -1.1827
 9701SOL     OW30001   1.124   5.063   6.014 -0.2511 -0.1632  0.3508
 9701SOL    HW130002   1.134   4.968   6.043  0.7907 -0.5470 -1.1325
 9701SOL    HW230003   1.176   5.078   5.930 -1.5951  1.3574 -0.2663
 9702SOL     OW30004   2.600   0.417   0.635 -0.1234  0.2288  0.0024
 9702SOL    HW130005   2.539   0.372   0.570 -0.8642  0.1355  0.7499
 9702SOL    HW230006   2.662   0.478   0.586 -0.3876 -0.1591 -0.8295
 9703SOL     OW30007   0.832   3.683   2.085 -0.0094 -0.2607 -0.3439
 9703SOL    HW130008   0.916   3.736   2.096  0.5806 -1.5622  2.3680
 9703SOL    HW230009   0.779   3.719   2.008  2.2856  1.5512 -1.1937
 9704SOL     OW30010   2.334   1.147   6.369  0.1495  0.0302  0.3523
 9704SOL    HW130011   2.269   1.223   6.370  3.4518  3.1107  2.0916
 9704SOL    HW230012   2.365   1.133   6.275 -0.3738  0.9364  0.0223
 9705SOL     OW30013   5.118   4.647   2.719 -0.3643  0.2896  0.5564
 9705SOL    HW130014   5.022   4.669   2.731 -0.0685  0.5981  2.8593
 9705SOL    HW230015   5.138   4.558   2.761  0.5890  0.9074  1.4976
 9706SOL     OW30016   1.284   6.543   6.268  0.3110 -0.1638  0.1140
 9706SOL    HW130017   1.227   6.623   6.251  0.8130 -0.1641 -1.8663
 9706SOL    HW230018   1.379   6.571   6.281  0.5161 -0.4282 -0.7484
 9707SOL     OW30019   2.403   1.752   2.514  0.4203  0.7542  0.6335
 9707SOL    HW130020   2.459   1.670   2.507  0.0121 -0.1235  4.7238
 9707SOL    HW230021   2.399   1.798   2.426  3.5987 -1.6497 -0.9632
 9708SOL     OW30022   3.432   0.398   4.538  0.0531 -0.2222 -0.3053
 9708SOL    HW130023   3.437   0.481   4.484  1.1160 -0.9526 -1.3992
 9708SOL    HW230024   3.433   0.318   4.477 -1.4377 -1.0450  0.6830
 9709SOL     OW30025   4.257   5.956   0.265  0.3581  0.4209  0.9915
 9709SOL    HW130026   4.218   6.047   0.246 -1.7376 -0.3235  1.4043
 9709SOL    HW230027   4.293   5.917   0.181 -1.3036  0.5129  0.1847
 9710SOL     OW30028   0.928   0.833   5.394 -0.8406 -0.4812  0.5023
 9710SOL    HW130029   0.925   0.883   5.307 -0.3923 -1.2722  0.0160
 9710SOL    HW230030   0.965   0.742   5.378 -1.5379 -0.9301  1.3931
 9711SOL     OW30031   2.132   5.250   1.448 -0.3992  0.3188  1.0402
 9711SOL    HW130032   2.084   5.195   1.516 -0.2046  0.1243  1.0235
 9711SOL    HW230033   2.229   5.255   1.472 -0.1208 -0.6695  0.1912
 9712SOL     OW30034   4.633   2.518   6.798 -0.6200  0.1559 -0.1695
 9712SOL    HW130035   4.720   2.568   6.794 -0.6929  0.3013  0.1147
 9712SOL    HW230036   4.561   2.573   6.756 -0.8480  0.5900  0.7879
 9713SOL     OW30037   1.738   3.610   6.862  0.0777  0.4668 -0.6505
 9713SOL    HW130038   1.649   3.566   6.873  0.0630  0.3841 -1.0822
 9713SOL    HW230039   1.784   3.571   6.782  0.4739  0.5537 -0.4665
 9714SOL     OW30040   0.382   6.551   0.459 -0.0612 -0.3546 -0.0806
 9714SOL    HW130041   0.418   6.530   0.550  0.8022  1.4657  0.0425
 9714SOL    HW230042   0.286   6.579   0.466  0.0256 -0.1443  0.2798
 9715SOL     OW30043   6.324   0.145   5.806  0.1291 -0.3980  0.4306
 9715SOL    HW130044   6.356   0.217   5.745 -3.0048 -1.4572 -2.8342
 9715SOL    HW230045   6.380   0.063   5.794 -0.6999 -0.7386 -1.5465
 9716SOL     OW30046   5.699   6.757   3.902 -0.0840  0.0600  0.0227
 9716SOL    HW130047   5.733   6.674   3.947  1.4917  0.3968 -0.4754
 9716SOL    HW230048   5.639   6.731   3.826 -0.3472 -0.5960  0.4474
 9717SOL     OW30049   1.070   5.154   6.604 -0.2688  0.3167 -0.2149
 9717SOL    HW130050   0.996   5.098   6.641  0.8320 -1.6477 -0.8790
 9717SOL    HW230051   1.074   5.143   6.505  1.3857 -0.2274 -0.1097
 9718SOL     OW30052   0.271   1.064   6.500  0.2816 -0.1727  0.7103
 9718SOL    HW130053   0.309   0.972   6.507  2.2054  0.4875 -0.2887
 9718SOL    HW230054   0.316   1.124   6.566  1.3947  0.7416 -0.8257
 9719SOL     OW30055   1.489   2.371   5.655 -0.5375  0.2549 -0.0246
 9719SOL    HW130056   1.511   2.403   5.563 -1.4307  0.3862 -0.2038
 9719SOL    HW230057   1.484   2.449   5.718 -0.7090  0.2483 -0.0303
 9720SOL     OW30058   6.903   3.616   1.891 -0.3921  0.4880 -0.3678
 9720SOL    HW130059   6.829   3.635   1.827 -0.5951 -1.0195 -0.6269
 9720SOL    HW230060   6.987   3.658   1.857 -0.4082 -0.6050 -1.8732
 9721SOL     OW30061   0.227   1.510   0.659 -0.1205  1.2545 -0.5583
 9721SOL    HW130062   0.175   1.450   0.598  0.9606  0.1555 -0.4280
 9721SOL    HW230063   0.213   1.481   0.754  1.4164  0.3629 -0.5786
 9722SOL     OW30064   2.217   6.658   6.781 -0.3694  0.1077  0.1312
 9722SOL    HW130065   2.251   6.743   6.742  0.8205 -0.5885 -0.4160
 9722SOL    HW230066   2.156   6.613   6.716 -0.2868  0.1096  0.0529
 9723SOL     OW30067   6.742   5.465   2.377 -0.2131 -0.1241 -0.5718
 9723SOL    HW130068   6.818   5.440   2.317  0.6803 -0.2611  0.5841
 9723SOL    HW230069   6.693   5.543   2.337 -0.9566 -1.5040 -2.5156
 9724SOL     OW30070   3.359   3.294   1.689 -0.1276  0.2941 -0.2292
 9724SOL    HW130071   3.408   3.335   1.765  0.0354  0.8365 -0.6182
 9724SOL    HW230072   3.386   3.198   1.680  0.3393  0.4004 -0.0068
 9725SOL     OW30073   0.918   1.046   1.425  0.0097  0.0251  0.1210
 9725SOL    HW130074   0.937   1.112   1.353  1.3473  0.1720  0.5827
 9725SOL    HW230075   0.861   1.089   1.496  0.4701  0.5296  0.1865
 9726SOL     OW30076   6.411   2.381   0.424 -0.4951 -0.3803 -0.0218
 9726SOL    HW130077   6.392   2.477   0.402 -0.6116 -0.3294  0.3022
 9726SOL    HW230078   6.328   2.337   0.459 -0.5859 -0.7482 -0.6816
 9727SOL     OW30079   1.751   1.022   3.989 -0.5868 -0.0045  0.0899
 9727SOL    HW130080   1.771   1.112   3.951  0.6315 -0.4550 -0.4027
 9727SOL    HW230081   1.655   0.998   3.973 -0.0258 -0.4245 -3.2903
 9728SOL     OW30082   6.521   1.913   5.087  0.1678  0.1888  0.7566
 9728SOL    HW130083   6.531   1.871   5.178 -0.6618  1.1159  1.3026
 9728SOL    HW230084   6.510   2.011   5.098  1.3181  0.4726 -0.4533
 9729SOL     OW30085   3.748   6.562   4.017  0.5624 -0.0395 -0.5839
 9729SOL    HW130086   3.821   6.494   4.019 -0.7736 -1.5934 -1.7021
 9729SOL    HW230087   3.721   6.579   3.922 -2.5359 -1.8655 -0.1885
 9730SOL     OW30088   3.575   2.058   2.185 -0.5303 -0.0914  0.4031
 9730SOL    HW130089   3.485   2.021   2.165 -1.5721  1.3479  2.1131
 9730SOL    HW230090   3.609   2.108   2.106  0.0098 -2.8003 -1.2083
 9731SOL     OW30091   2.119   3.444   2.344  0.3926  0.1041 -0.1793
 9731SOL    HW130092   2.146   3.350   2.366  0.0524  0.1130  0.3071
 9731SOL    HW230093   2.146   3.466   2.250  0.4434 -0.4901 -0.3078
 9732SOL     OW30094   1.057   4.800   3.457 -0.2097 -0.1968  0.1579
 9732SOL    HW130095   1.045   4.875   3.521 -0.9274 -0.3597  0.2307
 9732SOL    HW230096   1.120   4.827   3.384 -0.5906  0.5278  0.0943
 9733SOL     OW30097   3.191   0.894   1.383  0.0312  0.4200  0.1981
 9733SOL    HW130098   3.232   0.811   1.345 -0.2463  0.4319 -0.1391
 9733SOL    HW230099   3.189   0.965   1.312  0.6550  0.8545  0.6080
 9734SOL     OW30100   5.685   0.121   0.993  0.8532 -0.3372 -0.0012
 9734SOL    HW130101   5.667   0.208   0.947 -1.0523  0.3771  1.9379
 9734SOL    HW230102   5.642   0.046   0.942 -1.4290  0.4612  0.6490
 9735SOL     OW30103   2.420   3.421   0.547  0.0689 -0.4200  0.2494
 9735SOL    HW130104   2.371   3.337   0.522  0.1045 -0.7480  1.2422
 9735SOL    HW230105   2.466   3.408   0.635  0.6849  0.4013  0.0632
 9736SOL     OW30106   3.526   6.034   6.808 -0.0877 -0.3552  0.1052
 9736SOL    HW130107   3.434   6.072   6.816 -0.2619 -0.5773 -0.7033
 9736SOL    HW230108   3.574   6.043   6.895 -0.1659  1.5774 -0.0197
 9737SOL     OW30109   2.341   5.410   3.121  0.2192  0.0779  0.0990
 9737SOL    HW130110   2.297   5.340   3.065  1.2430 -2.4071  2.1924
 9737SOL    HW230111   2.281   5.435   3.197  1.0819 -0.9122  1.1291
 9738SOL     OW30112   2.251   1.426   4.705 -0.8614  0.7829  0.2825
 9738SOL    HW130113   2.298   1.372   4.634 -0.8563  3.1279 -1.6392
 9738SOL    HW230114   2.317   1.487   4.749 -1.4727  1.8368 -0.2096
 9739SOL     OW30115   4.830   4.102   2.395  0.0106 -0.2112  0.3453
 9739SOL    HW130116   4.834   4.002   2.388 -1.6085 -0.4023  1.5043
 9739SOL    HW230117   4.812   4.141   2.305 -1.6108 -1.1581  0.2198
 9740SOL     OW30118   3.988   5.175   5.128  0.0357 -0.3124 -0.7762
 9740SOL    HW130119   3.987   5.193   5.030  3.3676 -0.9347 -1.0226
 9740SOL    HW230120   3.967   5.079   5.145  1.5442 -0.7166 -1.0950
 9741SOL     OW30121   6.519   2.871   5.851 -0.4274  0.0230 -0.0046
 9741SOL    HW130122   6.516   2.968   5.875 -1.3729  0.3430 -1.3389
 9741SOL    HW230123   6.439   2.847   5.797  1.0352 -0.8958 -1.8830
 9742SOL     OW30124   2.133   6.821   6.193 -0.3057  0.2579  0.2246
 9742SOL    HW130125   2.184   6.902   6.166 -0.4589 -0.2580 -1.7358
 9742SOL    HW230126   2.103   6.770   6.112  0.6684 -2.3512  1.3718
 9743SOL     OW30127   6.134   0.098   3.282 -0.8293  0.5109 -0.8186
 9743SOL    HW130128   6.046   0.111   3.328 -1.2105  0.1906 -1.4415
 9743SOL    HW230129   6.207   0.136   3.339 -1.2527 -0.0935  0.1674
 9744SOL     OW30130   2.224   5.091   6.375 -0.2167 -0.1045  0.7088
 9744SOL    HW130131   2.309   5.041   6.395 -0.2896 -0.3672  0.3691
 9744SOL    HW230132   2.186   5.128   6.460  1.5801  2.1880  0.6172
 9745SOL     OW30133   0.460   3.099   1.082  0.0839  0.0338  0.0492
 9745SOL    HW130134   0.409   3.175   1.042  1.3728  0.4251 -0.9186
 9745SOL    HW230135   0.488   3.036   1.009  0.9852 -0.1540  0.5437
 9746SOL     OW30136   3.900   3.299   1.340  0.3705 -0.4228 -0.2192
 9746SOL    HW130137   3.860   3.390   1.352 -0.2265 -0.7162  0.0687
 9746SOL    HW230138   3.996   3.300   1.369  0.5870  0.2917 -0.9259
 9747SOL     OW30139   0.062   2.279   0.583  0.1749  0.0997  0.2583
 9747SOL    HW130140   0.115   2.346   0.531 -2.0126  0.9594 -0.9665
 9747SOL    HW230141   0.001   2.327   0.646  2.5542 -0.8899  3.6314
 9748SOL     OW30142   6.456   0.424   3.449  0.0687 -0.4225  0.1080
 9748SOL    HW130143   6.452   0.347   3.386  0.6080 -0.2781 -0.1042
 9748SOL    HW230144   6.410   0.503   3.408  1.9074  0.2018 -0.8708
 9749SOL     OW30145   2.437   0.564   6.057 -0.1080 -0.8961  0.5474
 9749SOL    HW130146   2.398   0.541   6.146 -1.7595 -0.5156 -0.0514
 9749SOL    HW230147   2.368   0.609   6.000  1.1926 -0.2609 -0.5966
 9750SOL     OW30148   1.817   0.528   4.892  0.2606  0.4854  0.0238
 9750SOL    HW130149   1.810   0.473   4.975  0.7681  0.0871 -0.1843
 9750SOL    HW230150   1.726   0.554   4.860 -0.0193 -0.5548 -0.0715
 9751SOL     OW30151   3.620   5.944   4.279 -0.2628 -0.6369  0.0357
 9751SOL    HW130152   3.621   5.856   4.232  0.5809  1.2279 -3.8195
 9751SOL    HW230153   3.529   5.961   4.317 -1.1639 -2.1071 -1.3639
 9752SOL     OW30154   1.029   1.133   2.981 -0.2056 -0.0321 -0.0937
 9752SOL    HW130155   1.100   1.106   3.046 -1.0211 -0.6103  0.5844
 9752SOL    HW230156   1.071   1.157   2.893  0.7214 -1.7581 -0.1643
 9753SOL     OW30157   0.006   5.600   2.346 -0.2044 -0.3151 -0.3259
 9753SOL    HW130158  -0.045   5.651   2.276  0.8878  1.3413  0.0129
 9753SOL    HW230159  -0.038   5.615   2.435 -0.1103 -0.2931 -0.2835
 9754SOL     OW30160   5.528   4.245   2.960  0.3311 -0.3192  0.1005
 9754SOL    HW130161   5.458   4.175   2.947  0.5685 -0.6572  0.5987
 9754SOL    HW230162   5.589   4.246   2.882 -0.8794  0.7484 -0.8774
 9755SOL     OW30163   6.670   5.880   3.006  0.9101  0.5249  0.3576
 9755SOL    HW130164   6.694   5.975   3.025  1.6919  0.3394  0.3557
 9755SOL    HW230165   6.713   5.821   3.074  1.2305  0.0999 -0.2028
 9756SOL     OW30166   3.857   0.667   1.156 -0.0759  0.6914 -0.1324
 9756SOL    HW130167   3.954   0.691   1.162 -0.3632  1.8513  0.2780
 9756SOL    HW230168   3.802   0.743   1.193 -1.1891  0.6261 -1.5597
 9757SOL     OW30169   3.882   1.655   2.162 -0.4803 -0.2092 -0.2687
 9757SOL    HW130170   3.830   1.701   2.090 -1.1612 -1.3886 -0.5582
 9757SOL    HW230171   3.938   1.582   2.121  0.0349 -0.1106  0.2556
 9758SOL     OW30172   3.494   3.188   5.413  0.4584 -0.0339  0.2271
 9758SOL    HW130173   3.590   3.176   5.390  0.8131  1.2464  0.9287
 9758SOL    HW230174   3.459   3.270   5.368 -0.4136 -0.6631 -0.2801
 9759SOL     OW30175   5.390   2.261   5.134 -0.0271 -0.6068  0.2488
 9759SOL    HW130176   5.375   2.277   5.232  0.2955 -0.6995  0.3156
 9759SOL    HW230177   5.307   2.222   5.093 -0.4769  0.2825  0.2940
 9760SOL     OW30178   4.056   3.760   5.794 -0.3329  0.2067  0.0051
 9760SOL    HW130179   4.042   3.680   5.736  0.3002 -0.0933  0.2530
 9760SOL    HW230180   4.113   3.734   5.873  1.7732  1.3843 -1.0454
 9761SOL     OW30181   4.191   0.600   3.933 -0.2750  0.3903  0.1314
 9761SOL    HW130182   4.193   0.691   3.892 -1.6044 -0.0932 -1.0754
 9761SOL    HW230183   4.284   0.573   3.959  0.1617  1.9841  0.3002
 9762SOL     OW30184   1.625   5.496   2.231 -0.4028  0.2971  0.5196
 9762SOL    HW130185   1.591   5.582   2.191 -1.8298 -0.7644 -0.6671
 9762SOL    HW230186   1.597   5.491   2.327 -1.4396  0.5933  0.2494
 9763SOL     OW30187   0.378   0.528   3.109  0.2008 -0.2326  0.4347
 9763SOL    HW130188   0.421   0.606   3.154 -0.6231 -0.5528  1.8254
 9763SOL    HW230189   0.447   0.457   3.091  0.9039  0.6867 -0.6162
 9764SOL     OW30190   6.784   2.780   4.851 -1.3079  0.0447 -0.0161
 9764SOL    HW130191   6.818   2.701   4.801 -4.1822 -0.9723 -0.5304
 9764SOL    HW230192   6.724   2.834   4.792 -1.7679  0.9489  1.2287
 9765SOL     OW30193   5.705   2.231   4.213 -0.1772  0.2368  0.3004
 9765SOL    HW130194   5.646   2.277   4.280  0.0412  0.9543  0.0039
 9765SOL    HW230195   5.649   2.172   4.154 -0.7036  1.4327 -0.4170
 9766SOL     OW30196   6.390   6.280   3.157 -0.0354 -0.1778  0.3883
 9766SOL    HW130197   6.381   6.235   3.068  1.8597 -0.5004  0.3324
 9766SOL    HW230198   6.376   6.379   3.146  2.4631  0.1269 -0.7464
 9767SOL     OW30199   1.077   5.930   1.426 -0.3499 -0.2922  0.3309
 9767SOL    HW130200   1.080   5.874   1.509 -2.0253 -1.2964 -0.2232
 9767SOL    HW230201   1.115   5.878   1.349 -0.4573 -0.0621  0.1215
 9768SOL     OW30202   3.184   3.508   3.218 -0.3065 -0.8076 -0.3273
 9768SOL    HW130203   3.109   3.550   3.167  1.3897  3.6430  0.3483
 9768SOL    HW230204   3.193   3.552   3.308  1.5889 -2.9449  0.6484
 9769SOL     OW30205   1.253   0.723   3.523 -0.4682 -0.4419  0.2275
 9769SOL    HW130206   1.245   0.767   3.433  1.8167 -0.0649  0.1337
 9769SOL    HW230207   1.298   0.634   3.512  0.8776  0.1013  1.0668
 9770SOL     OW30208   5.953   3.022   0.124  0.1821  0.0670 -0.9248
 9770SOL    HW130209   5.864   2.998   0.084 -0.3363  1.8753 -0.9729
 9770SOL    HW230210   5.942   3.036   0.222  0.5892 -0.4584 -0.8033
 9771SOL     OW30211   0.782   1.889   6.917  0.1684  0.5471  0.9251
 9771SOL    HW130212   0.829   1.932   6.840  0.0530 -0.5231  0.2240
 9771SOL    HW230213   0.684   1.882   6.896  0.2459 -0.4121  0.8404
 9772SOL     OW30214   1.239   6.995   1.016  0.1764 -0.0617  0.2171
 9772SOL    HW130215   1.326   6.959   1.049  0.3149  0.6489  0.6578
 9772SOL    HW230216   1.174   6.920   1.003  1.0637 -0.6816 -0.7993
 9773SOL     OW30217   2.984   6.877   2.782 -0.8389  0.0912  0.1943
 9773SOL    HW130218   2.915   6.907   2.717 -0.6354  0.6227  0.2211
 9773SOL    HW230219   2.948   6.800   2.835 -1.3293  0.2244  0.0614
 9774SOL     OW30220   0.927   0.867   2.943 -0.2342  0.1988 -0.0303
 9774SOL    HW130221   0.988   0.816   2.882 -1.5831  0.4947 -1.7290
 9774SOL    HW230222   0.972   0.952   2.971  0.3365  0.1792 -0.8389
 9775SOL     OW30223   5.765   5.038   2.051 -0.0853 -0.5603 -0.2673
 9775SOL    HW130224   5.684   4.984   2.075 -0.3970  0.2517  0.5510
 9775SOL    HW230225   5.847   4.992   2.085 -0.2485 -1.0523 -0.5252
 9776SOL     OW30226   6.302   3.091   4.941  0.0649  0.4588  0.2151
 9776SOL    HW130227   6.342   3.019   4.996  2.0044  2.1906  1.2136
 9776SOL    HW230228   6.330   3.079   4.845 -0.9082 -0.9256  0.0801
 9777SOL     OW30229   5.519   0.271   2.314  1.1595  0.5054  0.1602
 9777SOL    HW130230   5.618   0.285   2.324  0.8613  1.6165  1.8433
 9777SOL    HW230231   5.473   0.359   2.307  0.3599 -0.0074 -2.1212
 9778SOL     OW30232   4.639   0.889   5.368  0.5725 -0.6326 -0.1087
 9778SOL    HW130233   4.634   0.980   5.326  0.8411 -1.1583 -1.3306
 9778SOL    HW230234   4.731   0.874   5.403  0.6064 -0.5304 -0.1525
 9779SOL     OW30235   1.374   3.449   3.215 -0.0700  0.6760  0.4366
 9779SOL    HW130236   1.391   3.480   3.309 -1.4749  0.6909  0.7099
 9779SOL    HW230237   1.427   3.366   3.197  0.5736  0.9405  1.0807
 9780SOL     OW30238   1.886   1.461   2.365  0.0676  0.4989  0.3823
 9780SOL    HW130239   1.915   1.490   2.273 -1.0668 -0.6855 -0.3849
 9780SOL    HW230240   1.962   1.414   2.410  0.6523  1.1375  0.0790
 9781SOL     OW30241   0.706   2.205   4.308 -0.0649  0.1982 -1.1638
 9781SOL    HW130242   0.626   2.173   4.258  0.8340 -1.0094 -1.8803
 9781SOL    HW230243   0.771   2.130   4.318  0.7497  1.0151 -0.1179
 9782SOL     OW30244   2.678   1.262   1.028 -0.0182  0.1435  0.2362
 9782SOL    HW130245   2.744   1.242   0.955 -0.0459 -2.4684  0.8081
 9782SOL    HW230246   2.728   1.290   1.110  0.1986  0.6658 -0.0730
 9783SOL     OW30247   3.632   1.580   2.832 -0.0497  0.5286  0.2084
 9783SOL    HW130248   3.660   1.565   2.737  2.6271  4.1991  0.1997
 9783SOL    HW230249   3.605   1.676   2.844 -3.2614 -0.5102  2.6178
 9784SOL     OW30250   3.032   5.073   6.579  0.4813  0.3587 -0.5553
 9784SOL    HW130251   2.975   5.040   6.504 -0.1580  1.4232 -0.5560
 9784SOL    HW230252   3.039   5.172   6.575  0.1902  0.4708  0.9585
 9785SOL     OW30253   6.122   3.914   2.044 -0.3140  0.3916  0.3400
 9785SOL    HW130254   6.193   3.965   2.093  0.8176 -0.0432 -0.7874
 9785SOL    HW230255   6.143   3.914   1.946 -1.0700 -1.0143  0.1533
 9786SOL     OW30256   6.152   3.330   4.853  0.8580  0.4415  0.2436
 9786SOL    HW130257   6.196   3.256   4.903  0.7028  0.5049  0.4770
 9786SOL    HW230258   6.113   3.294   4.769 -0.5717 -0.0752  1.0830
 9787SOL     OW30259   6.476   5.920   4.547  0.0944  0.9998  0.6531
 9787SOL    HW130260   6.544   5.974   4.496  1.2988 -1.1038 -0.1417
 9787SOL    HW230261   6.389   5.921   4.497  1.0464 -0.4238 -1.1771
 9788SOL     OW30262   6.045   5.601   6.672  1.0393  0.3945  0.0117
 9788SOL    HW130263   6.080   5.513   6.703 -1.1309 -0.4104  0.3527
 9788SOL    HW230264   6.035   5.663   6.750  1.3287  0.4967 -0.0309
 9789SOL     OW30265   2.106   1.331   2.482  0.1907 -0.4879  0.2290
 9789SOL    HW130266   2.153   1.418   2.471  0.2491 -0.5554 -0.0586
 9789SOL    HW230267   2.108   1.280   2.396 -1.8270  0.1972 -0.2691
 9790SOL     OW30268   1.848   0.279   5.446  1.3185 -0.2732  0.5622
 9790SOL    HW130269   1.940   0.250   5.473  2.3200  1.8296 -0.3325
 9790SOL    HW230270   1.810   0.340   5.515  0.7784 -0.7746  0.7132
 9791SOL     OW30271   0.242   3.585   2.077 -0.3323  0.1028 -0.5077
 9791SOL    HW130272   0.262   3.682   2.093  1.7410  0.0711 -2.5263
 9791SOL    HW230273   0.171   3.577   2.007 -0.4487  0.1368 -0.3958
 9792SOL     OW30274   3.747   4.704   0.850 -0.1730  0.0826 -0.4926
 9792SOL    HW130275   3.679   4.644   0.806  0.8411 -0.4340 -1.3891
 9792SOL    HW230276   3.740   4.796   0.811  1.1635 -0.5294 -2.2766
 9793SOL     OW30277   2.297   0.307   3.844  0.1643 -0.1023 -0.4809
 9793SOL    HW130278   2.374   0.264   3.798 -0.1193 -1.0957 -0.0636
 9793SOL    HW230279   2.226   0.329   3.777  0.3157 -0.2846 -0.7009
 9794SOL     OW30280   3.748   6.784   3.270 -0.3094  0.3949 -0.2232
 9794SOL    HW130281   3.659   6.797   3.314 -0.0046 -2.2633  1.4716
 9794SOL    HW230282   3.757   6.688   3.242  1.8781  0.6902 -0.7131
 9795SOL     OW30283   6.457   1.315   1.767  0.1347 -0.6863  0.4818
 9795SOL    HW130284   6.548   1.351   1.788 -0.1926  2.2946 -2.3679
 9795SOL    HW230285   6.409   1.296   1.852  2.0788  1.4122  2.1997
 9796SOL     OW30286   6.854   5.709   3.139  0.6822 -0.3837 -0.4690
 9796SOL    HW130287   6.851   5.630   3.078 -0.4939 -1.2129  0.6234
 9796SOL    HW230288   6.943   5.754   3.130  0.8238 -0.9152 -2.2101
 9797SOL     OW30289   3.838   4.430   6.694  0.5509  0.1315 -0.1657
 9797SOL    HW130290   3.917   4.370   6.688  0.3930 -0.0113 -0.9065
 9797SOL    HW230291   3.780   4.417   6.614  0.0540  0.6259  0.1054
 9798SOL     OW30292   6.380   1.108   3.142 -0.2325  0.1333  0.3020
 9798SOL    HW130293   6.428   1.183   3.187  0.0420 -0.2792  0.7186
 9798SOL    HW230294   6.440   1.065   3.075  0.0650 -0.4984  0.9520
 9799SOL     OW30295   1.697   2.668   3.357 -0.4107 -0.3826  0.2761
 9799SOL    HW130296   1.725   2.611   3.435  0.3535  1.7937  1.7007
 9799SOL    HW230297   1.772   2.672   3.291 -0.7018 -1.4627 -0.1500
 9800SOL     OW30298   5.160   1.323   1.607 -0.3361  0.1301  0.1811
 9800SOL    HW130299   5.246   1.282   1.637 -0.8749 -1.2285 -0.0525
 9800SOL    HW230300   5.179   1.409   1.558  0.8053  0.3176  0.9163
 9801SOL     OW30301   2.858   6.563   4.506 -0.5748  0.3018  0.2662
 9801SOL    HW130302   2.870   6.649   4.557 -1.3011  0.5793 -0.0151
 9801SOL    HW230303   2.782   6.573   4.442 -0.6761 -0.5631  0.2445
 9802SOL     OW30304   6.448   4.324   0.070  0.7762 -0.0913 -0.1504
 9802SOL    HW130305   6.384   4.349   0.143  2.4140 -0.7943  1.5945
 9802SOL    HW230306   6.462   4.225   0.069  0.7438 -0.1052 -1.4797
 9803SOL     OW30307   6.084   1.314   0.149 -0.0963 -0.3986 -0.1773
 9803SOL    HW130308   6.062   1.325   0.052  0.3415 -3.4471 -0.7362
 9803SOL    HW230309   6.176   1.348   0.167  0.3169 -0.9521 -1.1558
 9804SOL     OW30310   1.374   5.950   3.973 -0.2303  0.0756 -0.9449
 9804SOL    HW130311   1.395   5.975   3.878  0.4419  1.4298 -0.4598
 9804SOL    HW230312   1.379   6.032   4.031 -1.2018 -0.6249  0.1697
 9805SOL     OW30313   2.320   0.996   1.904  0.0239  0.1349  0.5648
 9805SOL    HW130314   2.244   0.935   1.929 -0.9519  0.2917 -1.7997
 9805SOL    HW230315   2.395   0.943   1.867 -0.9166  0.2908 -1.7134
 9806SOL     OW30316   5.953   5.960   3.238  0.4977 -0.3088  0.1515
 9806SOL    HW130317   5.898   6.041   3.256 -1.0661 -1.4191  0.5726
 9806SOL    HW230318   5.941   5.931   3.143  1.2580  0.0685 -0.0735
 9807SOL     OW30319   4.141   3.545   4.523 -0.5242 -0.3968 -0.0237
 9807SOL    HW130320   4.104   3.452   4.520 -0.7666 -0.3023  0.0174
 9807SOL    HW230321   4.165   3.569   4.617 -0.8704 -0.2607  0.0331
 9808SOL     OW30322   4.877   2.419   2.938 -0.0870 -0.9213  0.8176
 9808SOL    HW130323   4.819   2.444   2.861  0.1790  1.0491  1.1986
 9808SOL    HW230324   4.953   2.363   2.905 -0.0293 -0.2011 -0.3464
 9809SOL     OW30325   2.083   5.913   0.445  0.2281  0.6252  0.3241
 9809SOL    HW130326   2.059   5.816   0.437 -0.2069  0.7538 -0.0412
 9809SOL    HW230327   2.033   5.954   0.521  0.6415  0.4949  0.6654
 9810SOL     OW30328   0.353   5.020   1.059  0.1410 -0.0018  0.2128
 9810SOL    HW130329   0.257   5.044   1.045  0.2310  0.7828  0.8352
 9810SOL    HW230330   0.391   4.982   0.975 -0.9109 -1.0156  0.1784
 9811SOL     OW30331   0.503   1.855   5.313  0.2824  0.6420 -0.0055
 9811SOL    HW130332   0.590   1.891   5.346  0.7037  1.0526 -1.5064
 9811SOL    HW230333   0.497   1.866   5.214 -2.0361  1.8228  0.1897
 9812SOL     OW30334   5.320   1.946   4.829 -0.5176 -0.2674  0.5677
 9812SOL    HW130335   5.225   1.916   4.839 -0.7838 -0.1306 -1.2106
 9812SOL    HW230336   5.381   1.868   4.842 -0.9348 -0.6167  0.4711
 9813SOL     OW30337   0.772   6.224   2.080 -0.6961 -0.0456 -0.7449
 9813SOL    HW130338   0.852   6.187   2.128  1.3932  0.7638 -3.3388
 9813SOL    HW230339   0.693   6.164   2.097  0.8767 -1.9144  0.5104
 9814SOL     OW30340   2.330   1.226   2.086 -0.2610 -0.0450 -0.2227
 9814SOL    HW130341   2.327   1.159   2.012 -0.7437 -0.9577  0.5998
 9814SOL    HW230342   2.346   1.317   2.048 -2.0789 -0.2398 -1.6208
 9815SOL     OW30343   0.522   2.566   3.064  0.0662 -0.3192  0.5878
 9815SOL    HW130344   0.584   2.502   3.109 -0.3895 -0.1593  1.4508
 9815SOL    HW230345   0.515   2.542   2.967  1.4317 -0.3704  0.4744
 9816SOL     OW30346   4.131   4.768   0.902  0.1172  0.0457 -0.1014
 9816SOL    HW130347   4.212   4.744   0.848 -0.9619 -1.3938 -1.1618
 9816SOL    HW230348   4.069   4.690   0.905 -0.8754  0.8529  1.3762
 9817SOL     OW30349   0.931   6.111   6.239 -0.1253 -0.0990  0.4479
 9817SOL    HW130350   0.931   6.012   6.251  0.9431 -0.2828 -0.8868
 9817SOL    HW230351   0.844   6.139   6.198  0.1524 -0.7116 -0.6227
 9818SOL     OW30352   3.636   1.136   5.139  0.0217 -0.2518 -0.2175
 9818SOL    HW130353   3.652   1.155   5.042 -0.3996 -0.0065 -0.2411
 9818SOL    HW230354   3.565   1.198   5.174  0.3153 -0.2006  0.2971
 9819SOL     OW30355   5.039   2.163   0.109 -0.2953 -0.4755  0.4329
 9819SOL    HW130356   4.961   2.220   0.136 -0.8584  0.4751 -2.8505
 9819SOL    HW230357   5.029   2.072   0.151 -1.5094  0.5440  2.5188
 9820SOL     OW30358   0.789   0.126   0.172 -0.7801 -0.2244  0.0307
 9820SOL    HW130359   0.727   0.202   0.154 -0.2493  0.4058  0.7682
 9820SOL    HW230360   0.807   0.120   0.271  2.0731  1.0654 -0.2942
 9821SOL     OW30361   2.301   3.682   1.205  0.5790  0.2885  0.1019
 9821SOL    HW130362   2.243   3.661   1.127 -1.8377 -1.7002  2.2527
 9821SOL    HW230363   2.370   3.610   1.215 -0.8115 -0.9505  1.2374
 9822SOL     OW30364   3.393   1.009   1.974 -0.3248 -0.0738  1.0344
 9822SOL    HW130365   3.406   1.107   1.988 -1.1329  0.4375 -1.2928
 9822SOL    HW230366   3.481   0.965   1.958 -0.0278  0.3969  1.3601
 9823SOL     OW30367   2.821   1.197   0.200 -0.0323  0.5531  0.2295
 9823SOL    HW130368   2.785   1.212   0.292 -3.0759 -1.5665 -0.4375
 9823SOL    HW230369   2.827   1.284   0.152  0.9993  1.6215  2.1533
 9824SOL     OW30370   1.326   1.298   6.330  0.3940  0.1861  0.5705
 9824SOL    HW130371   1.347   1.364   6.402  1.2114 -0.2961  0.7849
 9824SOL    HW230372   1.328   1.205   6.368 -2.8215  0.0846  0.7800
 9825SOL     OW30373   5.415   0.891   0.601  0.6630 -0.2535 -0.8036
 9825SOL    HW130374   5.467   0.962   0.648  1.6906 -0.6507 -1.3147
 9825SOL    HW230375   5.351   0.935   0.537  0.3913  0.2346 -0.2129
 9826SOL     OW30376   0.342   6.194   3.639  0.4276  0.3833 -0.6189
 9826SOL    HW130377   0.281   6.222   3.713 -0.3606 -0.7016 -0.8302
 9826SOL    HW230378   0.385   6.107   3.663  2.2228  1.3218 -0.3054
 9827SOL     OW30379   4.639   6.472   1.333 -0.3289  0.0529  0.2689
 9827SOL    HW130380   4.625   6.470   1.234 -2.2404 -1.1701  0.5138
 9827SOL    HW230381   4.602   6.557   1.371 -0.2837  0.1800  0.0304
 9828SOL     OW30382   2.053   4.293   1.976 -0.1099 -0.0699  0.4953
 9828SOL    HW130383   2.134   4.249   2.014  0.9919  0.6256 -0.9566
 9828SOL    HW230384   2.080   4.367   1.915 -1.8653  0.6618  0.5348
 9829SOL     OW30385   3.659   6.062   1.881  0.2811 -0.3210  0.2068
 9829SOL    HW130386   3.756   6.035   1.881  0.3946 -0.0854 -2.0048
 9829SOL    HW230387   3.606   5.994   1.830 -0.4098  0.5368 -0.2317
 9830SOL     OW30388   1.122   1.308   5.812 -0.5775 -0.0934  0.6100
 9830SOL    HW130389   1.207   1.263   5.785 -0.5860 -1.3600  2.4667
 9830SOL    HW230390   1.046   1.271   5.758 -0.2960 -0.8850  0.7419
 9831SOL     OW30391   5.826   6.118   4.107 -0.1944 -0.3117 -0.2242
 9831SOL    HW130392   5.903   6.124   4.043 -0.2781 -2.2840 -0.5813
 9831SOL    HW230393   5.764   6.195   4.093  0.5104  0.0392 -1.5465
 9832SOL     OW30394   5.380   4.666   1.509  0.0600 -0.3924  0.3600
 9832SOL    HW130395   5.354   4.689   1.415 -0.3787 -1.5227  0.1946
 9832SOL    HW230396   5.465   4.614   1.508  0.2391 -0.1150  0.6273
 9833SOL     OW30397   3.137   5.484   3.837 -0.2090  0.3992  0.3612
 9833SOL    HW130398   3.149   5.448   3.744 -0.4897 -0.1394  0.5279
 9833SOL    HW230399   3.212   5.451   3.895  1.0369  2.2769 -0.1023
 9834SOL     OW30400   5.489   4.036   4.399  0.4502  0.4964 -0.7985
 9834SOL    HW130401   5.465   4.069   4.490 -0.6261 -0.8941 -0.5416
 9834SOL    HW230402   5.576   4.075   4.371  0.4657  1.4761  0.5388
 9835SOL     OW30403   4.512   3.567   1.698  0.1910 -0.1006  0.0701
 9835SOL    HW130404   4.469   3.480   1.721  1.4127 -0.9450 -0.6798
 9835SOL    HW230405   4.609   3.552   1.679  0.2917  1.3159 -0.7096
 9836SOL     OW30406   4.912   5.918   3.641  0.4038  1.1980  0.3220
 9836SOL    HW130407   4.839   5.862   3.681 -0.0145  1.3079 -0.2781
 9836SOL    HW230408   4.950   5.871   3.561  0.7281  1.3228  0.4011
 9837SOL     OW30409   6.916   6.054   4.307 -0.3370 -0.1140 -0.3593
 9837SOL    HW130410   6.920   6.124   4.379  1.9769  0.4189 -0.9184
 9837SOL    HW230411   6.978   6.080   4.233 -2.0407 -1.0602 -2.2044
 9838SOL     OW30412   0.495   0.282   0.308  0.0987  0.5796  0.7470
 9838SOL    HW130413   0.430   0.345   0.267 -0.2790  0.0586  0.5377
 9838SOL    HW230414   0.481   0.190   0.272  1.8083  0.6734 -0.3015
 9839SOL     OW30415   2.425   0.460   6.905  0.5923  0.1462  0.0579
 9839SOL    HW130416   2.344   0.427   6.953  1.1081  0.1892  0.9812
 9839SOL    HW230417   2.437   0.409   6.820  0.1301 -0.5033  0.3781
 9840SOL     OW30418   6.788   6.796   3.034 -0.1620 -0.0600  0.0454
 9840SOL    HW130419   6.747   6.865   2.974 -2.2714  1.0435  2.5569
 9840SOL    HW230420   6.872   6.832   3.076  1.4090 -0.8931 -2.1866
 9841SOL     OW30421   6.134   2.582   3.192  0.6887  0.2970  0.4297
 9841SOL    HW130422   6.184   2.626   3.117  1.7365 -0.1354  0.8497
 9841SOL    HW230423   6.040   2.614   3.193  0.8612  0.8789 -0.6061
 9842SOL     OW30424   2.156   0.243   1.189 -0.7963  0.6581  0.2592
 9842SOL    HW130425   2.093   0.194   1.250  0.1315 -1.7225 -0.5826
 9842SOL    HW230426   2.248   0.207   1.201  0.2476  3.1947  0.5323
 9843SOL     OW30427   5.269   0.336   5.763  0.4068  0.3766  0.2549
 9843SOL    HW130428   5.185   0.292   5.731  0.4549  0.1397  0.4588
 9843SOL    HW230429   5.348   0.285   5.728  0.4599 -0.3159  1.3562
 9844SOL     OW30430   6.334   0.789   4.126 -0.2334 -0.6252  0.0277
 9844SOL    HW130431   6.348   0.808   4.223  0.9314 -0.7750 -0.0977
 9844SOL    HW230432   6.396   0.716   4.097 -0.6643 -0.6742 -0.8029
 9845SOL     OW30433   0.131   1.437   3.415 -0.0882  0.6131  0.7942
 9845SOL    HW130434   0.215   1.415   3.364 -1.4863 -3.4699 -0.1125
 9845SOL    HW230435   0.064   1.478   3.352 -1.2053 -2.8740 -0.5475
 9846SOL     OW30436   0.597   1.574   3.398  0.4224  0.1079 -0.2369
 9846SOL    HW130437   0.620   1.496   3.456  0.7624  0.1555 -0.3048
 9846SOL    HW230438   0.667   1.644   3.408  0.6943 -0.0438 -1.0014
 9847SOL     OW30439   6.412   4.355   0.858  0.7120  0.3227  0.6062
 9847SOL    HW130440   6.334   4.293   0.861  0.7813  0.0268 -1.8565
 9847SOL    HW230441   6.383   4.446   0.886 -0.6848  0.3363 -0.7807
 9848SOL     OW30442   4.811   2.656   6.115  0.1703  0.6164 -0.2048
 9848SOL    HW130443   4.887   2.671   6.052  0.2706  0.0890 -0.2121
 9848SOL    HW230444   4.764   2.743   6.131 -0.2320  0.6674 -1.4896
 9849SOL     OW30445   5.614   1.291   4.322  0.0404  0.3398 -0.0596
 9849SOL    HW130446   5.700   1.256   4.286 -0.8570  0.5226 -2.5974
 9849SOL    HW230447   5.609   1.389   4.304 -1.3177  0.0580 -1.3838
 9850SOL     OW30448   6.599   3.909   2.517  0.2168 -0.2529 -0.1986
 9850SOL    HW130449   6.518   3.908   2.459  1.3657 -1.0166 -1.8479
 9850SOL    HW230450   6.671   3.963   2.474  0.0436  2.0502  2.1240
 9851SOL     OW30451   6.143   3.007   1.528  0.4147  0.0964 -0.1349
 9851SOL    HW130452   6.130   3.070   1.451  2.6362  0.4376 -0.2992
 9851SOL    HW230453   6.054   2.981   1.566 -0.7322  0.0884 -2.6615
 9852SOL     OW30454   4.455   5.445   1.733 -0.0410  0.5611 -0.1308
 9852SOL    HW130455   4.503   5.504   1.668  1.1702  1.4911  1.5348
 9852SOL    HW230456   4.411   5.501   1.803 -1.0712 -0.4276  0.0524
 9853SOL     OW30457   2.462   2.508   4.779  0.6624 -0.1314  0.1628
 9853SOL    HW130458   2.447   2.582   4.845  1.7659 -1.5805  2.1242
 9853SOL    HW230459   2.427   2.537   4.690 -5.0186  0.3683  2.0897
 9854SOL     OW30460   1.074   4.150   0.086 -0.3557  0.5077  0.0050
 9854SOL    HW130461   1.087   4.177   0.181 -2.6117  2.0775 -0.0436
 9854SOL    HW230462   1.004   4.078   0.081  1.3807 -1.2370 -0.3480
 9855SOL     OW30463   0.626   2.686   2.033 -0.2541  0.0335 -0.3225
 9855SOL    HW130464   0.664   2.749   1.965 -1.4048  1.7829  0.5917
 9855SOL    HW230465   0.553   2.633   1.992 -0.3915  0.4880 -0.6759
 9856SOL     OW30466   6.600   1.349   3.823 -0.9605  0.5997 -0.2676
 9856SOL    HW130467   6.658   1.415   3.775 -1.9552  0.5990 -1.5512
 9856SOL    HW230468   6.633   1.256   3.805 -1.6190  0.5672 -1.4367
 9857SOL     OW30469   4.427   5.918   0.046  0.3055 -0.5772 -0.5624
 9857SOL    HW130470   4.453   6.014   0.056  1.2487 -0.9781  1.5075
 9857SOL    HW230471   4.510   5.861   0.043 -0.2519 -1.4610  0.1889
 9858SOL     OW30472   2.160   6.164   3.162  0.1037 -0.4169 -0.5535
 9858SOL    HW130473   2.146   6.187   3.066  0.3497  0.1462 -0.4620
 9858SOL    HW230474   2.249   6.198   3.192 -0.8513  1.3873  0.4268
 9859SOL     OW30475   0.156   0.042   5.154 -0.1169 -0.0353 -0.3919
 9859SOL    HW130476   0.122   0.062   5.063  0.8954  1.7035 -0.4336
 9859SOL    HW230477   0.254   0.020   5.149 -0.0607  0.0367  0.2531
 9860SOL     OW30478   2.990   4.949   5.613  0.5400  0.4242  0.3950
 9860SOL    HW130479   3.066   4.993   5.564  1.0393 -1.0851 -0.2454
 9860SOL    HW230480   3.005   4.850   5.614 -0.0043  0.3179  2.7024
 9861SOL     OW30481   6.660   1.955   3.218  0.5456 -0.1945  0.5723
 9861SOL    HW130482   6.722   1.918   3.149 -1.5025 -0.9790 -0.9762
 9861SOL    HW230483   6.703   2.032   3.265  3.6924 -2.3780  1.5560
 9862SOL     OW30484   0.684   6.818   5.522  0.0937  0.6798 -0.1885
 9862SOL    HW130485   0.668   6.724   5.492  0.8442  0.3582  0.3904
 9862SOL    HW230486   0.783   6.835   5.527 -0.0346  1.3373  0.2130
 9863SOL     OW30487   6.059   0.083   2.027 -0.0629 -0.6628  0.0743
 9863SOL    HW130488   6.140   0.063   2.083  2.5257  0.1174 -3.1028
 9863SOL    HW230489   6.052   0.181   2.013 -0.4916 -0.8562 -1.1559
 9864SOL     OW30490   4.912   7.022   3.573 -0.4585  0.3887 -0.2520
 9864SOL    HW130491   4.893   6.924   3.574  0.2068  0.2437  1.1145
 9864SOL    HW230492   5.011   7.036   3.571 -0.4861  0.9895  1.3799
 9865SOL     OW30493   1.636   4.203   3.484  0.7064 -0.6810  0.3589
 9865SOL    HW130494   1.711   4.253   3.527  1.3468 -1.5835  0.3349
 9865SOL    HW230495   1.651   4.199   3.385 -1.6849  2.9502 -0.3363
 9866SOL     OW30496   0.596   4.980   2.707 -0.3480 -0.1502 -0.0205
 9866SOL    HW130497   0.623   4.999   2.613  1.3171  0.2204  0.5089
 9866SOL    HW230498   0.515   4.921   2.707 -0.0500 -0.5967 -1.6721
 9867SOL     OW30499   0.188   3.963   4.521  0.3282  0.0585 -0.1254
 9867SOL    HW130500   0.240   3.991   4.602 -1.7237 -0.8875  1.6146
 9867SOL    HW230501   0.214   3.870   4.494  0.7085  0.2163 -0.3161
 9868SOL     OW30502   2.222   1.657   4.434 -0.4787  0.2550  0.1259
 9868SOL    HW130503   2.244   1.574   4.486 -1.5416  1.4524  2.6413
 9868SOL    HW230504   2.257   1.737   4.482 -1.1794  1.4141 -1.2256
 9869SOL     OW30505   4.076   5.504   5.533  0.0760 -0.6395  0.2477
 9869SOL    HW130506   4.175   5.522   5.531  0.1303 -0.9442  0.1594
 9869SOL    HW230507   4.051   5.449   5.453 -0.4620  0.9441 -0.7165
 9870SOL     OW30508   4.940   3.262   0.973  0.2559  0.4252 -0.0834
 9870SOL    HW130509   4.995   3.256   0.889  0.8041  1.4081  0.1851
 9870SOL    HW230510   4.952   3.353   1.013  1.7286 -0.6965  2.2251
 9871SOL     OW30511   2.114   5.267   0.830  0.4728 -0.5078 -0.0084
 9871SOL    HW130512   2.109   5.265   0.930  2.7414 -2.4591  0.1722
 9871SOL    HW230513   2.123   5.173   0.795  0.7136  0.1931 -1.9548
 9872SOL     OW30514   1.228   0.284   2.199 -0.1195  0.0019  0.2807
 9872SOL    HW130515   1.214   0.282   2.100 -0.1282 -1.4634  0.2885
 9872SOL    HW230516   1.188   0.202   2.240 -0.7386  0.9259  1.5955
 9873SOL     OW30517   4.955   2.415   6.539 -0.3287  0.1769 -0.0939
 9873SOL    HW130518   4.972   2.447   6.632 -1.6541  0.0042  0.2294
 9873SOL    HW230519   4.923   2.320   6.543  0.5034 -0.1471 -0.8070
 9874SOL     OW30520   3.479   1.116   2.791  0.4700  0.0590  0.0868
 9874SOL    HW130521   3.456   1.154   2.702  1.0070 -0.3346 -0.2202
 9874SOL    HW230522   3.444   1.177   2.863  1.4051  1.1928 -0.3923
 9875SOL     OW30523   6.602   3.836   1.684  0.2369 -0.1052 -0.0460
 9875SOL    HW130524   6.663   3.913   1.705  0.3155 -0.4978  1.2966
 9875SOL    HW230525   6.651   3.750   1.699 -0.5871 -0.4262  0.8865
 9876SOL     OW30526   4.616   4.438   5.040 -0.1785  0.0155  0.1542
 9876SOL    HW130527   4.523   4.470   5.018 -0.0501  0.2402 -0.0739
 9876SOL    HW230528   4.615   4.339   5.050 -0.6033  0.0905  0.9735
 9877SOL     OW30529   4.884   3.682   3.095 -0.3199 -0.3533  0.1706
 9877SOL    HW130530   4.825   3.632   3.159 -1.4713  1.1470  0.3427
 9877SOL    HW230531   4.908   3.771   3.135  1.4829 -0.6295 -0.2237
 9878SOL     OW30532   5.096   6.813   0.661 -0.0731  0.1753  0.3384
 9878SOL    HW130533   5.024   6.870   0.620 -0.8020 -0.6028  0.4906
 9878SOL    HW230534   5.090   6.819   0.760  2.4056  2.9504  0.4645
 9879SOL     OW30535   4.576   7.016   0.622  0.1263 -0.3417  0.0705
 9879SOL    HW130536   4.541   6.930   0.585 -1.3322 -0.0647  0.7279
 9879SOL    HW230537   4.568   7.088   0.553  0.1389 -0.4515 -0.0458
 9880SOL     OW30538   6.597   2.706   0.185  0.2880 -0.6505 -0.4223
 9880SOL    HW130539   6.595   2.804   0.166 -1.6981 -0.2431  1.4302
 9880SOL    HW230540   6.595   2.655   0.099  0.4111  0.9290 -1.3982
 9881SOL     OW30541   3.060   1.624   1.422 -0.9083 -0.2232  0.1045
 9881SOL    HW130542   3.042   1.561   1.346 -1.4374 -1.5359  1.2779
 9881SOL    HW230543   3.158   1.635   1.433 -0.8218 -0.2938 -0.5543
 9882SOL     OW30544   4.384   4.525   1.845  0.1419 -0.2708  0.2665
 9882SOL    HW130545   4.453   4.597   1.851  1.1280 -1.2447  1.0084
 9882SOL    HW230546   4.411   4.448   1.903 -1.6296 -0.6408  0.6787
 9883SOL     OW30547   0.846   5.802   0.412 -0.0217  0.2219 -0.6806
 9883SOL    HW130548   0.916   5.871   0.428  0.0426  0.0381 -0.1596
 9883SOL    HW230549   0.794   5.787   0.496 -1.1675  0.8913 -1.2440
 9884SOL     OW30550   5.285   6.522   5.657 -0.5508 -0.0370  0.5618
 9884SOL    HW130551   5.327   6.514   5.748 -0.1690  0.8648  0.4801
 9884SOL    HW230552   5.187   6.537   5.668 -0.5004  0.1103  0.8291
 9885SOL     OW30553   1.204   1.653   4.806  0.3429  0.3100 -0.3474
 9885SOL    HW130554   1.136   1.645   4.734 -0.2562 -1.8519  0.4114
 9885SOL    HW230555   1.282   1.594   4.785  0.3612  0.0074  0.5490
 9886SOL     OW30556   1.051   3.197   4.493 -0.4676  0.6147 -0.4924
 9886SOL    HW130557   1.067   3.202   4.591 -0.7245 -0.7687 -0.3503
 9886SOL    HW230558   1.114   3.130   4.453  0.3987  1.9608 -1.4694
 9887SOL     OW30559   5.914   3.638   6.861 -0.1721 -0.0316  0.0056
 9887SOL    HW130560   5.857   3.719   6.872 -1.0838 -0.3674 -1.7439
 9887SOL    HW230561   5.857   3.556   6.872  0.7373 -0.4693  1.7534
 9888SOL     OW30562   5.384   3.097   5.836  0.3483 -0.0269  0.0477
 9888SOL    HW130563   5.396   3.193   5.813 -1.3266  0.0453 -0.6644
 9888SOL    HW230564   5.298   3.063   5.796 -0.0283 -1.3335  1.8362
 9889SOL     OW30565   1.534   1.801   2.017  0.0058 -0.3044 -0.3267
 9889SOL    HW130566   1.507   1.784   1.922  0.9799  1.0988 -0.8740
 9889SOL    HW230567   1.579   1.889   2.024  0.4131 -0.6156  1.3678
 9890SOL     OW30568   2.222   5.856   1.180  0.1506  0.3437 -0.3561
 9890SOL    HW130569   2.180   5.785   1.124 -0.6784  1.0747 -0.6750
 9890SOL    HW230570   2.317   5.868   1.152  0.8152 -1.7481  0.7837
 9891SOL     OW30571   1.790   2.212   6.519  0.8122  0.1124 -0.6074
 9891SOL    HW130572   1.813   2.129   6.468  3.0773 -0.2304  0.8471
 9891SOL    HW230573   1.860   2.282   6.503  0.3120  0.8263  0.2264
 9892SOL     OW30574   1.842   5.786   1.651  0.0127 -0.4613  0.1451
 9892SOL    HW130575   1.917   5.852   1.644  1.1330 -1.7315 -0.2277
 9892SOL    HW230576   1.836   5.753   1.746 -2.0022  1.7614  0.8805
 9893SOL     OW30577   6.391   5.741   6.845  0.7502 -0.3533 -0.6078
 9893SOL    HW130578   6.311   5.767   6.790  1.4149  1.9013 -0.6377
 9893SOL    HW230579   6.388   5.644   6.865 -2.0637 -0.3306 -0.5285
 9894SOL     OW30580   5.231   3.407   4.889  0.3596  0.6045  0.4414
 9894SOL    HW130581   5.232   3.325   4.832 -2.0747  1.0157 -0.3008
 9894SOL    HW230582   5.293   3.395   4.966  0.4837 -1.6964  0.0401
 9895SOL     OW30583   3.715   5.555   4.391 -0.4387 -0.4196 -0.9057
 9895SOL    HW130584   3.725   5.599   4.302  0.6413  0.7498 -0.2468
 9895SOL    HW230585   3.621   5.563   4.423 -0.5990  0.0434 -1.4935
 9896SOL     OW30586   4.594   3.163   6.811  0.3155 -0.7818  0.3483
 9896SOL    HW130587   4.578   3.182   6.908  1.4512  1.2149  0.1906
 9896SOL    HW230588   4.523   3.101   6.777 -1.8770  0.8256  1.7302
 9897SOL     OW30589   1.644   5.553   1.335 -0.1388  0.4219 -0.6977
 9897SOL    HW130590   1.682   5.507   1.415  0.3124 -0.5405 -1.4372
 9897SOL    HW230591   1.549   5.581   1.354  0.1747  0.7870  0.3729
 9898SOL     OW30592   0.470   0.915   5.139  0.0552  0.7901  0.2062
 9898SOL    HW130593   0.386   0.932   5.088  0.9568  2.3642 -0.8376
 9898SOL    HW230594   0.504   1.000   5.178  0.9629  0.1186  0.9335
 9899SOL     OW30595   1.139   1.416   0.907  0.3813 -0.2741  0.2761
 9899SOL    HW130596   1.081   1.495   0.890  0.8329  0.1228  0.5404
 9899SOL    HW230597   1.214   1.443   0.968  0.7895 -0.7986  0.0109
 9900SOL     OW30598   1.389   1.728   3.148 -0.4799  0.2537  0.4967
 9900SOL    HW130599   1.427   1.645   3.109  0.5791  1.7814 -1.9942
 9900SOL    HW230600   1.450   1.763   3.219  0.5252  0.3387 -0.3862
 9901SOL     OW30601   3.924   6.690   5.112 -0.3624 -0.4018 -0.2817
 9901SOL    HW130602   3.979   6.770   5.138 -0.0126 -1.1298  1.3555
 9901SOL    HW230603   3.833   6.698   5.152  0.5547 -2.1059  2.4546
 9902SOL     OW30604   5.578   2.031   4.086  0.9056  0.3222 -0.3687
 9902SOL    HW130605   5.557   2.010   3.990  2.4463  0.9993 -0.8886
 9902SOL    HW230606   5.656   1.975   4.115  1.0331  0.7942  0.2059
 9903SOL     OW30607   5.189   0.605   7.008 -0.1025 -0.2978  0.8313
 9903SOL    HW130608   5.215   0.702   7.008  4.8962 -1.3383  0.1297
 9903SOL    HW230609   5.175   0.574   6.914  1.9787 -0.8840  0.6542
 9904SOL     OW30610   3.245   4.140   4.723 -0.1279  0.3803  0.0746
 9904SOL    HW130611   3.299   4.170   4.802  0.4486 -0.1097 -0.1298
 9904SOL    HW230612   3.304   4.132   4.643 -0.1520 -1.6767  0.2127
 9905SOL     OW30613   4.590   5.956   2.844 -0.6958  0.2242 -0.0591
 9905SOL    HW130614   4.499   5.943   2.881 -1.2041  0.5047 -1.1605
 9905SOL    HW230615   4.632   5.867   2.827 -0.7253  0.0956  0.5267
 9906SOL     OW30616   1.034   2.008   3.869 -0.0163 -0.1536 -0.2542
 9906SOL    HW130617   1.096   1.945   3.915 -1.3280 -0.7556  0.7677
 9906SOL    HW230618   1.014   2.085   3.929 -2.6678 -1.5325  0.8083
 9907SOL     OW30619   0.220   0.057   1.107 -0.0938 -0.6399 -0.1280
 9907SOL    HW130620   0.314   0.048   1.139  0.1107 -1.1545 -0.8540
 9907SOL    HW230621   0.158   0.023   1.177  0.2375 -0.0273  0.4753
 9908SOL     OW30622   5.383   4.651   2.472 -0.4255  0.0979  0.3231
 9908SOL    HW130623   5.450   4.648   2.398  0.0097  0.3587  0.6998
 9908SOL    HW230624   5.413   4.592   2.546 -0.6806  0.1137  0.4401
 9909SOL     OW30625   4.487   2.482   5.545 -0.1136 -0.5567  0.1266
 9909SOL    HW130626   4.432   2.495   5.462 -0.6696 -0.0178  0.5731
 9909SOL    HW230627   4.433   2.506   5.625  0.3796 -1.2146  0.6643
 9910SOL     OW30628   0.881   0.508   5.921 -0.4273  0.6361  0.4532
 9910SOL    HW130629   0.874   0.581   5.854  0.4599 -0.3515 -0.7540
 9910SOL    HW230630   0.810   0.440   5.905 -1.0325  1.0327  1.3527
 9911SOL     OW30631   5.694   0.157   6.076  0.1007 -0.4439 -0.4337
 9911SOL    HW130632   5.665   0.236   6.022 -1.8850 -0.8754 -0.0967
 9911SOL    HW230633   5.631   0.145   6.153  1.0407 -1.6900  0.1834
 9912SOL     OW30634   1.522   3.247   3.734  0.5487 -0.8604 -0.4130
 9912SOL    HW130635   1.495   3.158   3.771  0.6033 -0.9471 -0.5815
 9912SOL    HW230636   1.464   3.318   3.773  1.2809 -0.8169  0.6399
 9913SOL     OW30637   2.847   0.963   3.528 -0.2127  0.2937 -0.3581
 9913SOL    HW130638   2.807   0.897   3.465  2.3074 -0.3949 -1.3564
 9913SOL    HW230639   2.838   0.930   3.622 -1.9311  0.1927 -0.5414
 9914SOL     OW30640   4.929   3.942   3.161  0.2387  0.5781  0.0484
 9914SOL    HW130641   5.010   3.977   3.208  0.7260  1.5897 -1.4718
 9914SOL    HW230642   4.854   4.008   3.169  0.2930  0.7111 -0.4619
 9915SOL     OW30643   3.611   5.425   3.919 -0.7438 -0.3837 -0.8863
 9915SOL    HW130644   3.634   5.489   3.846 -0.2563 -0.4402 -0.7861
 9915SOL    HW230645   3.512   5.412   3.922 -0.8236  0.1754 -1.0634
 9916SOL     OW30646   0.348   6.513   2.544  0.0089 -0.4977 -0.1789
 9916SOL    HW130647   0.391   6.479   2.628  1.3188  0.3827 -0.4486
 9916SOL    HW230648   0.397   6.476   2.465  0.2028  0.4042 -0.4993
 9917SOL     OW30649   2.654   0.767   2.516 -0.2660  0.1457  0.0836
 9917SOL    HW130650   2.729   0.779   2.452  0.0873  0.6227  0.5763
 9917SOL    HW230651   2.690   0.770   2.610 -0.8595  0.0866  0.3147
 9918SOL     OW30652   4.804   5.059   5.491  0.3517  0.3131  0.6249
 9918SOL    HW130653   4.753   5.140   5.461  0.9902  0.7886  0.8027
 9918SOL    HW230654   4.863   5.027   5.417 -1.1573 -1.0514 -0.0600
 9919SOL     OW30655   2.050   5.032   4.274  0.5086  0.0991 -0.0513
 9919SOL    HW130656   2.043   4.933   4.264  0.5371  0.1058 -0.1391
 9919SOL    HW230657   2.145   5.060   4.265  0.4034  0.2222 -0.8567
 9920SOL     OW30658   5.423   1.998   2.170  0.0335 -0.3807 -0.0604
 9920SOL    HW130659   5.461   1.909   2.147 -2.4599 -1.2078 -1.3827
 9920SOL    HW230660   5.409   2.004   2.269 -0.2563 -1.6807 -0.0104
 9921SOL     OW30661   6.204   2.949   4.061 -0.1492  0.3600 -0.1639
 9921SOL    HW130662   6.202   2.877   3.992  0.9603  0.8005 -0.6879
 9921SOL    HW230663   6.185   2.910   4.151  0.2027 -0.5392 -0.4740
 9922SOL     OW30664   0.815   1.014   0.996  0.1459 -0.3098  0.1455
 9922SOL    HW130665   0.801   0.942   1.063 -0.3097 -0.9001 -0.5766
 9922SOL    HW230666   0.816   0.975   0.904 -3.8844  0.9410 -0.6160
 9923SOL     OW30667   1.620   0.020   1.771 -0.1060  0.1523 -0.0309
 9923SOL    HW130668   1.569   0.022   1.685  0.6077 -0.1871 -0.4708
 9923SOL    HW230669   1.649  -0.074   1.791 -0.8174  0.1215  0.9160
 9924SOL     OW30670   6.956   6.941   6.590  0.1225 -0.9691  0.9229
 9924SOL    HW130671   6.957   6.951   6.491 -0.5922  1.6263  1.1128
 9924SOL    HW230672   6.862   6.942   6.623  0.3855 -0.9041  1.6970
 9925SOL     OW30673   1.433   7.005   2.175  0.0979 -0.5773 -0.1874
 9925SOL    HW130674   1.437   7.097   2.214 -0.9642  0.3771 -2.1656
 9925SOL    HW230675   1.435   6.938   2.249 -1.4483  1.0882  1.5066
 9926SOL     OW30676   5.435   6.315   2.457 -0.0814  0.6652  0.4291
 9926SOL    HW130677   5.422   6.411   2.433 -1.2314  0.8586  1.6700
 9926SOL    HW230678   5.433   6.305   2.557  0.2353 -0.6219  0.3295
 9927SOL     OW30679   4.182   4.758   3.021 -0.1663  0.3528 -0.4851
 9927SOL    HW130680   4.090   4.780   3.051 -0.4537  0.4871 -1.4199
 9927SOL    HW230681   4.249   4.802   3.081 -0.6953 -0.3336  0.6252
 9928SOL     OW30682   4.228   4.439   0.635  0.1229 -0.8511  0.9089
 9928SOL    HW130683   4.148   4.476   0.588 -0.6106 -0.8780  2.0967
 9928SOL    HW230684   4.267   4.509   0.694  0.9500 -0.8633  0.3923
 9929SOL     OW30685   6.128   2.906   6.107 -0.4186  0.3995  0.0511
 9929SOL    HW130686   6.127   2.950   6.017  1.2087  2.5647  0.9919
 9929SOL    HW230687   6.091   2.969   6.176 -0.8233 -0.8805  1.0542
 9930SOL     OW30688   0.041   1.354   6.551  0.5423 -0.0697 -0.3531
 9930SOL    HW130689   0.009   1.266   6.587 -2.0746  0.8454 -0.2151
 9930SOL    HW230690   0.059   1.416   6.627  2.1722 -0.3800 -0.4578
 9931SOL     OW30691   5.466   1.741   4.869  0.3627 -0.5673 -0.1922
 9931SOL    HW130692   5.543   1.704   4.816  0.1655  0.1350 -0.9804
 9931SOL    HW230693   5.410   1.665   4.902  0.9890 -1.0546 -0.2199
 9932SOL     OW30694   3.400   2.695   0.367  0.2301 -0.4998 -0.5521
 9932SOL    HW130695   3.418   2.609   0.414 -2.0324 -0.5513  0.3769
 9932SOL    HW230696   3.433   2.771   0.423 -1.1637 -0.6378  0.5321
 9933SOL     OW30697   1.484   0.991   3.922  0.8628  0.0890 -0.5232
 9933SOL    HW130698   1.459   1.050   3.845  0.6143  1.9486  0.8959
 9933SOL    HW230699   1.428   0.908   3.920 -0.5531  1.0161 -1.2475
 9934SOL     OW30700   5.149   4.047   5.163  0.1538  0.1075 -0.1767
 9934SOL    HW130701   5.240   4.071   5.196 -1.2847  1.7092  3.1465
 9934SOL    HW230702   5.149   3.953   5.128  2.8783 -0.1512  0.2977
 9935SOL     OW30703   3.949   4.911   5.947  0.8811 -0.2492  0.5642
 9935SOL    HW130704   4.041   4.887   5.914  0.2280 -0.7543 -0.9866
 9935SOL    HW230705   3.888   4.833   5.937  0.2189  0.1472  1.3729
 9936SOL     OW30706   3.108   3.778   5.671  0.3748 -0.0618 -0.2936
 9936SOL    HW130707   3.057   3.711   5.725  0.8920 -1.8761 -1.9457
 9936SOL    HW230708   3.044   3.828   5.612  0.0313  0.6630  0.6696
 9937SOL     OW30709   6.598   2.510   4.926 -0.3655  0.2161  0.0750
 9937SOL    HW130710   6.656   2.470   4.854 -0.4167  1.4254 -0.6623
 9937SOL    HW230711   6.581   2.441   4.997  0.9450 -0.5480 -0.3072
 9938SOL     OW30712   5.163   3.059   1.404  0.6180 -0.2627  0.5007
 9938SOL    HW130713   5.224   3.116   1.460  0.3688 -0.4637  0.9802
 9938SOL    HW230714   5.217   3.008   1.337  0.8300  0.6914 -0.0796
 9939SOL     OW30715   6.807   6.286   3.745 -0.3498  0.0274  0.1333
 9939SOL    HW130716   6.772   6.211   3.801  0.0670  0.0433  0.4169
 9939SOL    HW230717   6.829   6.251   3.654  0.5097 -0.3512  0.4824
 9940SOL     OW30718   6.478   6.793   0.668  0.0160 -0.1258 -0.0566
 9940SOL    HW130719   6.443   6.701   0.649  0.7379 -0.3327 -0.4048
 9940SOL    HW230720   6.508   6.836   0.583 -0.4270  0.4819  0.0913
 9941SOL     OW30721   2.788   5.413   3.336  0.2940 -0.0710  0.6829
 9941SOL    HW130722   2.843   5.435   3.255  0.8501  0.9047  1.2996
 9941SOL    HW230723   2.849   5.393   3.413 -0.2006  0.4172  1.2134
 9942SOL     OW30724   2.510   1.868   1.567  0.0224 -0.1307  0.0063
 9942SOL    HW130725   2.487   1.783   1.520  1.4916 -0.4686 -0.1541
 9942SOL    HW230726   2.486   1.860   1.664 -0.2315 -0.5706 -0.0909
 9943SOL     OW30727   1.534   5.585   6.167 -0.7538  0.5710  0.2132
 9943SOL    HW130728   1.485   5.671   6.179 -0.4182  0.7150  0.5701
 9943SOL    HW230729   1.515   5.525   6.246 -0.0706  0.7683  0.5321
 9944SOL     OW30730   1.387   6.284   6.287  0.4599  0.3411  0.1819
 9944SOL    HW130731   1.470   6.264   6.235  0.5130 -1.6208  0.9417
 9944SOL    HW230732   1.348   6.371   6.256  1.5520  0.1878 -1.7605
 9945SOL     OW30733   3.441   6.387   3.448 -0.1976 -0.0408 -0.0890
 9945SOL    HW130734   3.405   6.375   3.356 -1.5907 -0.9826  0.5423
 9945SOL    HW230735   3.508   6.316   3.467 -1.5004 -1.2068  0.3415
 9946SOL     OW30736   1.928   6.208   2.692 -0.5133 -0.2783  0.0789
 9946SOL    HW130737   1.899   6.259   2.611 -1.2939 -1.1206 -0.1874
 9946SOL    HW230738   1.888   6.116   2.690  2.6592 -1.7751 -0.6304
 9947SOL     OW30739   3.272   5.178   0.148 -0.0658 -0.2277  0.4169
 9947SOL    HW130740   3.334   5.182   0.070 -0.0419 -2.4901  0.2488
 9947SOL    HW230741   3.324   5.159   0.231 -0.2016  1.1867  0.8483
 9948SOL     OW30742   6.352   3.723   1.125  0.1552  0.0758  0.4942
 9948SOL    HW130743   6.319   3.643   1.175  0.6160 -0.9532 -0.7786
 9948SOL    HW230744   6.430   3.763   1.172 -1.0794  0.8026  2.0137
 9949SOL     OW30745   0.937   5.678   2.270  0.6250  0.5678 -0.2231
 9949SOL    HW130746   0.847   5.707   2.238  0.3721 -0.0608 -0.0894
 9949SOL    HW230747   0.928   5.625   2.354  1.3515  2.8466  1.3572
 9950SOL     OW30748   1.722   3.900   6.924 -0.4306  0.5202  0.5177
 9950SOL    HW130749   1.741   3.804   6.905  0.0321  0.8948 -0.9896
 9950SOL    HW230750   1.783   3.958   6.871  2.0052  1.6924  4.1689
 9951SOL     OW30751   0.837   5.083   3.801  0.1837  0.3258  0.7793
 9951SOL    HW130752   0.872   5.091   3.895  1.6025 -0.3022  0.3278
 9951SOL    HW230753   0.892   5.139   3.740 -2.1609  2.5984  0.6100
 9952SOL     OW30754   5.686   3.458   6.958  0.3644  0.2112  0.2592
 9952SOL    HW130755   5.646   3.410   7.037 -1.8470  0.7553 -0.4536
 9952SOL    HW230756   5.615   3.510   6.912  1.6686  0.1634 -1.9407
 9953SOL     OW30757   2.443   2.299   2.430  0.2391 -0.5071  0.1779
 9953SOL    HW130758   2.504   2.235   2.477 -0.8741 -1.0207  0.9645
 9953SOL    HW230759   2.448   2.388   2.474  0.4098 -0.5487  0.2444
 9954SOL     OW30760   5.062   4.813   1.403  0.1158  0.7159 -0.1360
 9954SOL    HW130761   4.971   4.821   1.444 -0.8666  3.2014 -2.4734
 9954SOL    HW230762   5.130   4.856   1.463 -0.6955  1.1274  0.4973
 9955SOL     OW30763   2.944   3.170   2.378  0.4973  0.5100  0.2104
 9955SOL    HW130764   2.854   3.127   2.373  1.5511 -1.7902  0.0575
 9955SOL    HW230765   2.934   3.261   2.421 -1.8710  0.3623  0.1310
 9956SOL     OW30766   4.532   0.976   5.975  1.1521 -0.2366 -0.0771
 9956SOL    HW130767   4.520   0.989   5.877 -1.1031 -2.7266 -0.2489
 9956SOL    HW230768   4.593   0.898   5.992 -1.4121 -2.2875  0.2972
 9957SOL     OW30769   4.571   5.469   6.177 -0.3901 -0.1313  0.4804
 9957SOL    HW130770   4.622   5.521   6.246 -1.5514  3.2317 -0.9784
 9957SOL    HW230771   4.478   5.504   6.172 -0.7661 -1.2707 -1.7905
 9958SOL     OW30772   2.417   4.422   3.125 -0.4678  0.4314  0.7795
 9958SOL    HW130773   2.504   4.464   3.153 -0.1834 -0.3980  1.1653
 9958SOL    HW230774   2.378   4.371   3.203 -0.5634 -0.4289  0.1815
 9959SOL     OW30775   0.281   2.651   0.006 -1.0028  0.0279  0.0177
 9959SOL    HW130776   0.216   2.654   0.081 -0.5785  1.0844  0.3729
 9959SOL    HW230777   0.353   2.720   0.021  0.7382 -1.7280  0.1264
 9960SOL     OW30778   0.695   0.016   3.270  0.1796  0.5798 -0.1843
 9960SOL    HW130779   0.686   0.093   3.333  0.1210  0.0755  0.4310
 9960SOL    HW230780   0.604  -0.011   3.237  0.1586  0.4853 -0.0491
 9961SOL     OW30781   6.358   3.973   6.340  0.1878 -0.1547 -0.0869
 9961SOL    HW130782   6.292   3.898   6.352 -0.4525  0.1890 -1.2868
 9961SOL    HW230783   6.322   4.056   6.382 -1.0628  0.5110 -2.3575
 9962SOL     OW30784   5.154   1.432   5.682  0.0401  0.1783  0.2536
 9962SOL    HW130785   5.095   1.500   5.725 -0.7762  0.2569 -0.9477
 9962SOL    HW230786   5.230   1.477   5.636  0.5519  0.1372  1.0439
 9963SOL     OW30787   4.962   0.259   0.017  0.4713  0.2188  0.2234
 9963SOL    HW130788   5.036   0.209   0.062  0.8461  0.6244  0.0586
 9963SOL    HW230789   4.975   0.357   0.029 -0.2966  0.2823  0.5887
 9964SOL     OW30790   0.171   6.822   6.646 -0.3863  0.2300  0.5898
 9964SOL    HW130791   0.080   6.862   6.640 -0.0674  0.7704 -1.8235
 9964SOL    HW230792   0.169   6.729   6.607  0.3539  0.8115 -0.9024
 9965SOL     OW30793   1.080   6.448   6.434  0.4775  0.0281  0.6279
 9965SOL    HW130794   1.155   6.492   6.386  0.3179 -1.2335 -0.8432
 9965SOL    HW230795   1.104   6.353   6.454 -0.8441 -0.4943 -0.1632
 9966SOL     OW30796   1.497   5.042   1.230 -0.1412  0.3934 -0.5417
 9966SOL    HW130797   1.584   4.993   1.222 -1.3599 -1.6506 -3.0425
 9966SOL    HW230798   1.476   5.057   1.326  2.0503 -0.7867  0.2022
 9967SOL     OW30799   5.900   4.380   2.710 -0.0511 -0.7563 -0.1497
 9967SOL    HW130800   5.945   4.321   2.643 -0.8156  0.3750 -1.7169
 9967SOL    HW230801   5.826   4.430   2.666  0.7568  1.6083  1.0215
 9968SOL     OW30802   4.851   0.365   4.441  0.0376 -0.0174  0.2086
 9968SOL    HW130803   4.928   0.335   4.384  0.4307  0.0347  0.7036
 9968SOL    HW230804   4.877   0.360   4.537  0.0144  1.6200  0.3304
 9969SOL     OW30805   2.206   2.130   2.062  0.1400 -1.0096  0.2341
 9969SOL    HW130806   2.156   2.189   2.126 -0.7584 -0.3692 -0.9870
 9969SOL    HW230807   2.294   2.172   2.039  0.4547 -1.2333  1.0265
 9970SOL     OW30808   6.343   4.720   1.953  0.4806 -0.1318 -0.0515
 9970SOL    HW130809   6.440   4.701   1.962  0.4931 -0.3754 -0.6856
 9970SOL    HW230810   6.302   4.657   1.888 -0.0645  0.0979  0.0606
 9971SOL     OW30811   4.109   4.739   1.839  0.5351  0.1416 -0.2309
 9971SOL    HW130812   4.118   4.659   1.780  0.9494  0.7868 -1.0824
 9971SOL    HW230813   4.013   4.766   1.845  0.6801  1.7874 -3.0924
 9972SOL     OW30814   4.712   4.298   0.704 -0.6639  0.3708 -0.1036
 9972SOL    HW130815   4.754   4.224   0.652  0.2139  0.0846  0.9835
 9972SOL    HW230816   4.770   4.322   0.782 -2.2733  0.3028  1.1669
 9973SOL     OW30817   6.223   2.264   0.569 -0.0693 -0.3668  0.2908
 9973SOL    HW130818   6.138   2.297   0.527 -0.5952 -0.8168  0.9864
 9973SOL    HW230819   6.231   2.301   0.662 -0.2517 -1.5001  0.7731
 9974SOL     OW30820   0.008   3.765   0.772  0.3389  0.4406 -0.6465
 9974SOL    HW130821   0.010   3.863   0.793 -1.2262  0.5063 -0.6913
 9974SOL    HW230822   0.051   3.714   0.846  1.0417  1.1538 -0.5539
 9975SOL     OW30823   6.758   0.787   6.347  0.3967 -0.2324 -0.4889
 9975SOL    HW130824   6.751   0.833   6.435 -0.4700  3.4322 -2.2303
 9975SOL    HW230825   6.666   0.763   6.314  0.5003  0.2665 -1.1842
 9976SOL     OW30826   4.707   5.436   5.871  0.6527  0.2377 -0.4015
 9976SOL    HW130827   4.625   5.465   5.920 -0.1618 -1.0562 -0.9334
 9976SOL    HW230828   4.771   5.393   5.935  0.5111  0.4256 -0.1346
 9977SOL     OW30829   3.369   3.760   1.887 -0.1950  0.8314  0.2322
 9977SOL    HW130830   3.284   3.800   1.921 -1.4491 -0.3438 -1.3648
 9977SOL    HW230831   3.437   3.832   1.874 -2.0114  2.3510 -1.5298
 9978SOL     OW30832   0.747   6.089   4.051 -0.3986 -0.2104 -0.0552
 9978SOL    HW130833   0.725   5.997   4.017  1.1708 -0.7141  0.2390
 9978SOL    HW230834   0.767   6.149   3.973  1.2459 -0.8525 -0.1748
 9979SOL     OW30835   3.257   5.027   6.739 -0.5963 -0.1162  0.2483
 9979SOL    HW130836   3.331   4.966   6.714 -0.9013 -0.5363  0.3568
 9979SOL    HW230837   3.173   5.000   6.691 -0.8908 -0.1885  0.7903
 9980SOL     OW30838   4.275   2.100   6.824  0.3939  0.0328 -0.2020
 9980SOL    HW130839   4.325   2.138   6.902  0.0784 -0.6526  0.3385
 9980SOL    HW230840   4.307   2.007   6.805  0.1627  0.0338 -0.6167
 9981SOL     OW30841   0.215   1.228   0.140 -0.2516 -0.4553  0.0302
 9981SOL    HW130842   0.117   1.237   0.158  0.3028 -0.6875  4.0301
 9981SOL    HW230843   0.262   1.311   0.170  0.9516 -1.0271 -0.2164
 9982SOL     OW30844   5.905   3.340   6.835  0.0730 -0.0811  0.3492
 9982SOL    HW130845   5.952   3.274   6.893 -0.2042 -0.4849  0.1196
 9982SOL    HW230846   5.817   3.363   6.876 -0.7110 -1.3646 -0.5431
 9983SOL     OW30847   3.529   6.562   6.506 -0.2611  0.7244  0.7294
 9983SOL    HW130848   3.594   6.615   6.452 -0.1622 -1.8425 -1.9023
 9983SOL    HW230849   3.442   6.611   6.512  0.2414  1.7904 -0.3924
 9984SOL     OW30850   7.022   2.318   5.630  0.2081 -0.2726 -0.3477
 9984SOL    HW130851   7.049   2.384   5.701  0.4483  0.0616 -0.7438
 9984SOL    HW230852   6.928   2.335   5.603  0.0171 -0.5949  0.1019
 9985SOL     OW30853   6.962   5.188   2.543 -0.1103 -0.0002  0.0873
 9985SOL    HW130854   6.886   5.205   2.481  1.4999  0.8560 -1.7432
 9985SOL    HW230855   7.011   5.106   2.515 -0.1888 -0.4191  1.1133
 9986SOL     OW30856   0.626   5.187   1.680  0.1771 -0.3004  0.6306
 9986SOL    HW130857   0.539   5.196   1.728 -0.1130 -0.3712  0.1233
 9986SOL    HW230858   0.696   5.242   1.726  0.2981 -1.5925  2.0644
 9987SOL     OW30859   0.899   1.683   3.716 -0.4928  0.2683 -0.0645
 9987SOL    HW130860   0.891   1.697   3.617 -0.3621  0.8393 -0.0018
 9987SOL    HW230861   0.985   1.637   3.737 -0.8964 -0.6031 -0.2778
 9988SOL     OW30862   3.910   5.559   3.526  0.6888  0.1651  0.4254
 9988SOL    HW130863   3.858   5.581   3.443 -0.0603 -1.2408  0.4867
 9988SOL    HW230864   3.998   5.520   3.501  0.7588  0.3957  0.3053
 9989SOL     OW30865   6.575   1.479   4.905  0.1549  0.0713 -0.3929
 9989SOL    HW130866   6.594   1.408   4.973  0.2965  0.8559  0.4116
 9989SOL    HW230867   6.547   1.437   4.819 -2.7682 -0.9452  0.9397
 9990SOL     OW30868   4.763   1.808   2.886  0.2130  0.2251  0.2921
 9990SOL    HW130869   4.847   1.809   2.832 -0.4624  2.0923 -0.8100
 9990SOL    HW230870   4.709   1.727   2.863  1.5639 -0.8905  0.8655
 9991SOL     OW30871   6.111   0.530   4.657 -0.1016 -0.9167 -0.4507
 9991SOL    HW130872   6.012   0.525   4.642 -0.2363  0.4769 -0.1471
 9991SOL    HW230873   6.136   0.468   4.731 -1.0855  0.2209  0.8890
 9992SOL     OW30874   5.172   4.203   0.669  0.0414  0.6875  0.0182
 9992SOL    HW130875   5.210   4.288   0.633  0.8045 -0.3395 -1.7213
 9992SOL    HW230876   5.185   4.200   0.768  0.8543  2.1618 -0.0141
 9993SOL     OW30877   4.304   6.473   4.516 -0.6199  0.8534 -0.1913
 9993SOL    HW130878   4.354   6.542   4.568 -1.5530  1.1660  0.3136
 9993SOL    HW230879   4.359   6.390   4.509 -1.0233  0.2800  2.5678
 9994SOL     OW30880   0.019   2.656   1.204 -0.7308 -0.4241  0.6287
 9994SOL    HW130881  -0.025   2.744   1.185 -0.8611 -0.8626 -1.2665
 9994SOL    HW230882   0.043   2.651   1.301  1.4629  2.7073  0.3909
 9995SOL     OW30883   1.597   4.771   3.773  0.0608  0.6982 -0.3414
 9995SOL    HW130884   1.586   4.809   3.865  1.1250  2.9523 -1.0877
 9995SOL    HW230885   1.693   4.748   3.757 -0.4423 -1.8474 -0.1619
 9996SOL     OW30886   2.879   1.570   6.299  0.0027  0.6333  0.2045
 9996SOL    HW130887   2.788   1.550   6.262  0.6670 -0.1361 -1.0617
 9996SOL    HW230888   2.871   1.643   6.368 -1.7660 -0.4722  1.2430
 9997SOL     OW30889   3.361   2.204   6.254  0.1703 -0.1780 -0.1638
 9997SOL    HW130890   3.306   2.287   6.256 -0.3946 -0.5414 -0.2929
 9997SOL    HW230891   3.355   2.157   6.342  0.7822  0.1056  0.0292
 9998SOL     OW30892   3.897   6.500   4.934 -0.6643  0.2753  0.1515
 9998SOL    HW130893   3.905   6.424   4.999  0.2594 -0.3688 -0.6863
 9998SOL    HW230894   3.924   6.585   4.979 -0.7502 -0.0468  0.8229
 9999SOL     OW30895   0.088   1.342   2.317  0.2142 -0.3235 -0.3174
 9999SOL    HW130896   0.125   1.320   2.407  0.6880 -0.8516 -0.6276
 9999SOL    HW230897   0.149   1.406   2.270 -0.8851  1.2966  0.3689
10000SOL     OW30898   2.801   5.072   3.568  0.1832 -0.0783 -0.0025
10000SOL    HW130899   2.871   5.005   3.593  0.0616 -0.0828  0.3248
10000SOL    HW230900   2.730   5.075   3.638  0.7319  1.1665  0.5286
10001SOL     OW30901   6.300   3.647   6.026  0.0026  0.0410  0.0503
10001SOL    HW130902   6.278   3.552   6.006 -0.8937  0.4849 -1.2852
10001SOL    HW230903   6.295   3.701   5.941 -2.8261  1.8655  1.2061
10002SOL     OW30904   1.893   0.659   4.122  0.1273 -0.2236  0.2637
10002SOL    HW130905   1.795   0.678   4.116  0.3841  0.7442 -2.0091
10002SOL    HW230906   1.944   0.745   4.112  1.2310 -0.8479  0.3318
10003SOL     OW30907   1.825   6.208   1.762  0.3312  0.1162 -0.1527
10003SOL    HW130908   1.772   6.160   1.693  1.3817 -0.0184 -0.8990
10003SOL    HW230909   1.782   6.198   1.851 -1.2364  0.5894 -0.8355
10004SOL     OW30910   6.372   3.919   1.574 -0.0594 -0.1114 -0.2684
10004SOL    HW130911   6.307   3.850   1.605 -0.0301 -0.4858 -1.0151
10004SOL    HW230912   6.464   3.897   1.607  0.2448 -1.3258 -1.7752
10005SOL     OW30913   5.005   0.793   3.421 -0.0610  0.3405 -0.0245
10005SOL    HW130914   5.065   0.869   3.394 -0.0235  0.2335 -0.2470
10005SOL    HW230915   4.935   0.826   3.483  1.6227  0.0435  2.1515
10006SOL     OW30916   2.670   0.130   2.161  0.4243 -0.0963 -0.4152
10006SOL    HW130917   2.626   0.219   2.154  1.7852  0.7153  0.7484
10006SOL    HW230918   2.642   0.073   2.085 -2.5027  0.3862  0.1813
10007SOL     OW30919   1.031   0.777   4.913 -0.2344  0.2655  0.1731
10007SOL    HW130920   1.006   0.682   4.933 -0.1245  0.0326 -0.7473
10007SOL    HW230921   0.960   0.819   4.856  1.3749 -0.4192 -2.5286
10008SOL     OW30922   3.639   1.782   6.780  0.3784 -0.2203  0.2574
10008SOL    HW130923   3.599   1.856   6.726 -1.5183 -1.7210 -0.5004
10008SOL    HW230924   3.738   1.794   6.784  0.1191  2.4679  0.3968
10009SOL     OW30925   0.065   4.154   2.282 -0.1466  0.3814  0.6390
10009SOL    HW130926   0.080   4.162   2.381  0.4842 -1.6751  0.7599
10009SOL    HW230927  -0.033   4.156   2.263 -0.3699 -0.8680  1.5156
10010SOL     OW30928   4.941   4.565   6.407 -0.0903 -0.0265  0.4064
10010SOL    HW130929   4.996   4.622   6.346 -1.1523  0.8668  0.2597
10010SOL    HW230930   4.867   4.522   6.356 -0.9497  0.6749  1.0232
10011SOL     OW30931   0.978   3.513   4.218  0.0148 -0.2833 -0.0686
10011SOL    HW130932   0.993   3.542   4.313  0.9985  1.4639 -0.7026
10011SOL    HW230933   0.885   3.537   4.190  0.2022  0.5726  0.0183
10012SOL     OW30934   6.702   0.410   1.826 -0.2265 -0.8709  0.1612
10012SOL    HW130935   6.675   0.358   1.907 -2.3617 -0.3660 -0.1613
10012SOL    HW230936   6.749   0.493   1.853  0.9012 -1.6922  0.7818
10013SOL     OW30937   1.443   5.511   6.650  0.3948  0.3263  0.3070
10013SOL    HW130938   1.464   5.481   6.557 -0.6743  0.7585 -0.0858
10013SOL    HW230939   1.371   5.452   6.688  0.6925  0.2718  0.7985
10014SOL     OW30940   0.133   0.613   0.766 -0.1542 -0.1151 -0.2620
10014SOL    HW130941   0.211   0.665   0.733 -0.4883  1.0430  0.7154
10014SOL    HW230942   0.153   0.577   0.857 -1.3629  1.7141  0.7904
10015SOL     OW30943   0.104   0.262   6.812  0.1340 -0.8992  0.0985
10015SOL    HW130944   0.087   0.199   6.888  0.3907 -1.0162  0.0636
10015SOL    HW230945   0.106   0.210   6.726  1.9644 -1.1234  0.2290
10016SOL     OW30946   3.937   4.899   1.558 -0.3077  0.2733  0.0879
10016SOL    HW130947   3.926   4.823   1.623  0.6309  0.9122  1.0177
10016SOL    HW230948   3.951   4.862   1.466  0.6560 -0.7038  0.6055
10017SOL     OW30949   3.988   5.934   3.501  0.3882 -0.2418  0.0987
10017SOL    HW130950   4.021   5.883   3.422  1.5957 -1.3240  1.2506
10017SOL    HW230951   3.998   6.032   3.484  1.6204 -0.4791 -0.6870
10018SOL     OW30952   5.716   4.525   2.582  0.3042  0.0999  0.3310
10018SOL    HW130953   5.628   4.483   2.603  1.0899 -1.0988  1.3623
10018SOL    HW230954   5.721   4.615   2.625 -0.8890  0.7597 -0.8210
10019SOL     OW30955   6.014   5.133   0.703 -0.5703  0.0285 -0.2928
10019SOL    HW130956   5.978   5.221   0.735  2.2791  2.2699 -2.6869
10019SOL    HW230957   5.967   5.108   0.618  0.8924  1.1558 -1.5055
10020SOL     OW30958   4.604   0.595   5.345 -0.6917  0.3858  0.0470
10020SOL    HW130959   4.557   0.618   5.260 -0.6244  0.6892  0.0923
10020SOL    HW230960   4.597   0.671   5.409 -0.6626  0.1937  0.2798
10021SOL     OW30961   1.426   4.533   5.736 -0.0903  0.0133  0.2568
10021SOL    HW130962   1.394   4.589   5.811 -0.1778  1.4678 -0.8231
10021SOL    HW230963   1.348   4.496   5.685 -0.0396 -1.3785  1.1285
10022SOL     OW30964   4.691   1.414   1.405  0.1870  0.1534  0.4499
10022SOL    HW130965   4.618   1.481   1.391  0.0663 -0.3040 -1.4052
10022SOL    HW230966   4.753   1.416   1.327  2.5585  0.9301  2.2406
10023SOL     OW30967   6.589   3.833   2.207  0.2249  0.1759 -0.8379
10023SOL    HW130968   6.628   3.791   2.125  1.0303  1.0818 -0.9381
10023SOL    HW230969   6.517   3.897   2.181  0.6223  0.6183 -0.8591
10024SOL     OW30970   3.811   2.761   5.706  0.1845  0.5099  0.0852
10024SOL    HW130971   3.749   2.718   5.772 -0.6633  2.2477  0.4885
10024SOL    HW230972   3.835   2.853   5.738  2.4621  0.1327 -0.4119
10025SOL     OW30973   6.880   0.614   4.063  0.3576 -0.0903 -0.7209
10025SOL    HW130974   6.964   0.668   4.063  0.2500  0.1004  0.2981
10025SOL    HW230975   6.825   0.639   3.984  1.0238  0.1621 -1.1118
10026SOL     OW30976   3.761   2.185   4.116 -0.2718  0.4598 -0.0452
10026SOL    HW130977   3.839   2.177   4.055  0.4206 -0.1738  0.8911
10026SOL    HW230978   3.791   2.168   4.210 -1.3266  1.2992  0.4598
10027SOL     OW30979   7.009   2.797   3.137 -0.2893  0.5698  0.1841
10027SOL    HW130980   7.097   2.805   3.183 -0.0801  0.8903 -0.2587
10027SOL    HW230981   6.998   2.704   3.101 -0.5728  0.2401  1.0973
10028SOL     OW30982   4.390   4.754   2.671 -0.3801 -0.0773 -0.2277
10028SOL    HW130983   4.416   4.673   2.619  1.5840  0.1910  0.2546
10028SOL    HW230984   4.395   4.734   2.769 -1.0111  0.2947 -0.1152
10029SOL     OW30985   0.860   2.013   1.318  0.2181  0.3637 -0.3097
10029SOL    HW130986   0.954   1.979   1.313  0.3278  0.7733 -1.2780
10029SOL    HW230987   0.839   2.040   1.411  0.6945 -0.7504  0.1436
10030SOL     OW30988   2.756   1.068   2.428  0.2105  0.2746 -0.2268
10030SOL    HW130989   2.743   0.972   2.403 -2.3913  0.9816 -1.9409
10030SOL    HW230990   2.825   1.109   2.369 -0.1094 -0.0628 -0.8434
10031SOL     OW30991   2.835   0.169   6.180  0.4545  0.6059  0.2903
10031SOL    HW130992   2.776   0.089   6.170  0.7551 -0.1124  3.2225
10031SOL    HW230993   2.813   0.237   6.110 -1.3899 -1.0881 -0.8503
10032SOL     OW30994   1.678   0.220   3.326 -0.3005  0.0207  0.6080
10032SOL    HW130995   1.646   0.144   3.383  0.6423 -1.5268 -0.8396
10032SOL    HW230996   1.743   0.275   3.378  2.7133 -2.9545  0.3424
10033SOL     OW30997   0.262   4.163   2.855 -0.2710  0.3871 -0.0106
10033SOL    HW130998   0.314   4.174   2.940  0.8573  2.0065 -0.8487
10033SOL    HW230999   0.183   4.224   2.856 -0.1524  0.5439 -0.2046
10034SOL     OW31000   4.113   2.016   0.392 -0.1104 -0.3795 -0.0481
10034SOL    HW131001   4.032   1.968   0.427 -0.3449  1.2670  1.8399
10034SOL    HW231002   4.188   2.008   0.457  1.9879 -3.3396 -2.5130
10035SOL     OW31003   4.574   2.165   6.113 -0.1084  0.3380  0.4496
10035SOL    HW131004   4.518   2.127   6.187 -0.9895 -0.4931 -0.5998
10035SOL    HW231005   4.670   2.145   6.130 -0.3793 -0.6268  0.9424
10036SOL     OW31006   6.600   0.850   4.616 -0.5716  0.4658 -0.2030
10036SOL    HW131007   6.552   0.932   4.586 -1.2389  0.3472  0.5272
10036SOL    HW231008   6.664   0.874   4.689  1.8039  0.9444 -2.2602
10037SOL     OW31009   0.462   3.022   0.422 -0.0418  0.1346  0.2389
10037SOL    HW131010   0.407   3.010   0.339  0.3398  1.0244 -0.1490
10037SOL    HW231011   0.443   3.112   0.462  0.3765  0.0318  0.6725
10038SOL     OW31012   1.302   1.416   0.546 -0.2740 -0.1325  0.2037
10038SOL    HW131013   1.262   1.507   0.538 -0.4876 -0.3492 -1.4051
10038SOL    HW231014   1.248   1.362   0.611 -0.5796  0.6405  0.6112
10039SOL     OW31015   0.185   6.191   1.429  0.8180  0.0892 -0.0068
10039SOL    HW131016   0.199   6.130   1.351 -0.8501 -0.3218 -0.0305
10039SOL    HW231017   0.231   6.155   1.509 -0.5729 -1.5254  0.1122
10040SOL     OW31018   6.902   1.920   1.106 -0.3011  0.4539  0.2301
10040SOL    HW131019   7.000   1.901   1.104 -0.3054  0.3569  0.8541
10040SOL    HW231020   6.857   1.866   1.035 -0.0097 -0.1248  0.4771
10041SOL     OW31021   3.254   4.570   5.671  0.5188 -0.3244 -0.1012
10041SOL    HW131022   3.311   4.567   5.753  0.8373  1.4739 -0.2268
10041SOL    HW231023   3.237   4.476   5.640  1.9091 -0.9786  0.9582
10042SOL     OW31024   6.960   5.467   1.424 -0.2564  0.2400 -0.4239
10042SOL    HW131025   6.967   5.446   1.326 -1.5137  0.3494 -0.5535
10042SOL    HW231026   6.870   5.439   1.457 -0.7873  2.4487  0.1390
10043SOL     OW31027   0.979   4.077   3.048 -0.1639 -0.3460 -0.0147
10043SOL    HW131028   1.050   4.136   3.010 -1.2044  0.8900 -0.1152
10043SOL    HW231029   0.963   4.101   3.143 -2.0156  1.0158 -0.6036
10044SOL     OW31030   3.687   0.713   1.550  0.3693 -0.1391  0.3018
10044SOL    HW131031   3.727   0.747   1.465  0.5417 -1.9898 -0.4081
10044SOL    HW231032   3.745   0.641   1.588 -0.8116 -0.8662  0.7959
10045SOL     OW31033   4.903   5.350   6.034  0.3993  0.0560 -0.7440
10045SOL    HW131034   4.910   5.433   6.090 -1.0709  0.0833 -0.5547
10045SOL    HW231035   4.978   5.347   5.968  2.1543  0.0659  1.1457
10046SOL     OW31036   2.406   2.731   4.524 -0.5986 -0.1226  0.3456
10046SOL    HW131037   2.380   2.638   4.497  2.0028 -0.4925 -1.1783
10046SOL    HW231038   2.370   2.796   4.457  0.8029 -0.4578 -0.7765
10047SOL     OW31039   1.051   5.475   2.682 -0.0398  0.0997  0.1562
10047SOL    HW131040   1.082   5.570   2.675  0.1167  0.0521  0.1915
10047SOL    HW231041   1.011   5.460   2.772 -1.4822  0.5472 -0.3849
10048SOL     OW31042   4.870   3.227   0.145  0.3711 -0.1334 -0.1445
10048SOL    HW131043   4.885   3.133   0.175 -0.4707 -0.4420 -0.6385
10048SOL    HW231044   4.772   3.241   0.130  0.3895  1.0768  0.7384
10049SOL     OW31045   6.271   5.746   2.449 -0.3278  0.0148 -0.0330
10049SOL    HW131046   6.285   5.651   2.422  0.6695 -0.5977  2.2993
10049SOL    HW231047   6.339   5.771   2.518  1.6153  3.4987 -2.8410
10050SOL     OW31048   4.172   3.766   1.824 -0.3969 -0.0000 -0.1572
10050SOL    HW131049   4.191   3.798   1.916 -2.0969  2.4435 -0.5776
10050SOL    HW231050   4.089   3.709   1.824 -1.4966  1.5481 -0.3866
10051SOL     OW31051   4.057   3.474   2.534  0.3934  0.5898  0.4227
10051SOL    HW131052   4.083   3.395   2.589 -0.8231 -0.4819 -0.4721
10051SOL    HW231053   4.072   3.453   2.437 -4.3982 -0.5319 -0.3131
10052SOL     OW31054   6.020   1.222   5.614 -0.1020  0.6125  0.3716
10052SOL    HW131055   6.109   1.179   5.598 -0.5673 -0.4975  0.6283
10052SOL    HW231056   6.003   1.228   5.712 -1.6326 -2.1653  0.3852
10053SOL     OW31057   1.173   0.706   0.066 -0.3543  0.4113 -0.6113
10053SOL    HW131058   1.087   0.743   0.102 -0.6278 -2.4343  2.0903
10053SOL    HW231059   1.153   0.643  -0.009 -0.9896 -1.6355  1.1515
10054SOL     OW31060   6.701   1.094   3.777 -0.8860  0.0528 -0.5073
10054SOL    HW131061   6.708   1.044   3.863 -2.3381  0.7909  0.0771
10054SOL    HW231062   6.787   1.086   3.727  0.0131 -0.3396  1.0283
10055SOL     OW31063   4.543   0.409   0.491 -0.1469  0.3161  0.1537
10055SOL    HW131064   4.579   0.433   0.581  0.4682 -0.3353  0.0919
10055SOL    HW231065   4.589   0.326   0.458 -2.3023 -1.0569  0.4224
10056SOL     OW31066   6.666   3.077   2.877  0.0536 -0.4719 -0.5240
10056SOL    HW131067   6.706   3.076   2.785 -1.2601 -0.8609 -1.1230
10056SOL    HW231068   6.628   2.986   2.897  1.3215 -0.7282  0.8806
10057SOL     OW31069   5.153   1.272   2.217 -0.1432  0.3683 -0.6741
10057SOL    HW131070   5.127   1.360   2.177  0.5751 -0.0612 -2.1681
10057SOL    HW231071   5.250   1.272   2.239 -0.3550  0.2929  0.3383
10058SOL     OW31072   4.284   0.607   6.036  0.1188 -0.0534 -0.1351
10058SOL    HW131073   4.231   0.538   6.085 -0.5268 -1.0161 -2.0727
10058SOL    HW231074   4.223   0.663   5.981  0.8703  0.5833 -0.3389
10059SOL     OW31075   1.334   5.148   5.484 -0.5266 -0.3100 -0.4352
10059SOL    HW131076   1.291   5.218   5.541 -0.2497  0.5343 -1.2205
10059SOL    HW231077   1.341   5.182   5.390  0.6231 -0.9491 -0.6066
10060SOL     OW31078   6.428   1.798   5.472  0.3327  0.4306 -0.1263
10060SOL    HW131079   6.483   1.875   5.504 -0.2729  0.7867  0.0730
10060SOL    HW231080   6.469   1.712   5.502  1.0919  0.6692 -0.4717
10061SOL     OW31081   1.853   3.999   0.162 -0.2151 -0.2689  0.1631
10061SOL    HW131082   1.836   3.994   0.063  3.0006  0.1151 -0.5184
10061SOL    HW231083   1.821   4.086   0.197  0.8223  0.6633 -1.1005
10062SOL     OW31084   1.244   4.947   1.895 -0.0708 -0.3446  0.1577
10062SOL    HW131085   1.161   4.920   1.942 -0.4538  0.1242 -0.2393
10062SOL    HW231086   1.223   5.016   1.826  0.3589 -1.5183 -1.2003
10063SOL     OW31087   6.206   0.016   3.624 -0.3277  0.1783  0.1198
10063SOL    HW131088   6.246  -0.036   3.700 -1.3685 -1.2524 -0.2824
10063SOL    HW231089   6.124  -0.030   3.591  0.1617  0.7120 -1.9644
10064SOL     OW31090   5.301   6.543   5.920  0.0388 -0.1295 -0.2180
10064SOL    HW131091   5.280   6.640   5.933  0.8873  0.0616 -0.2089
10064SOL    HW231092   5.268   6.491   5.999  1.8406  0.5167  1.0307
10065SOL     OW31093   5.217   1.429   0.273 -0.1946 -0.2990 -0.2170
10065SOL    HW131094   5.126   1.439   0.234 -0.7282 -2.2576  0.4209
10065SOL    HW231095   5.276   1.382   0.207 -0.2006 -0.7264  0.0738
10066SOL     OW31096   6.770   2.120   3.894  0.3810  0.4351 -0.1463
10066SOL    HW131097   6.820   2.206   3.884 -0.7591  1.0040 -1.3382
10066SOL    HW231098   6.694   2.118   3.828 -0.0302 -1.1932  0.3278
10067SOL     OW31099   3.651   1.447   6.172 -0.2283  0.4876  0.7232
10067SOL    HW131100   3.735   1.493   6.144  2.0106 -2.3013  2.3698
10067SOL    HW231101   3.585   1.450   6.097  1.7662  1.7471 -1.0828
10068SOL     OW31102   3.116   1.569   1.709 -0.0719  0.1357  0.4482
10068SOL    HW131103   3.103   1.618   1.623  0.8304 -0.3359  0.0285
10068SOL    HW231104   3.047   1.598   1.775 -0.3945  0.9513 -0.2363
10069SOL     OW31105   3.612   4.924   4.578 -0.3814 -0.4409  0.1014
10069SOL    HW131106   3.627   4.942   4.480 -1.8537 -2.9678 -0.6747
10069SOL    HW231107   3.518   4.946   4.602  0.6314  2.7246  1.7162
10070SOL     OW31108   1.205   6.340   0.039  0.0600 -0.4115  0.2978
10070SOL    HW131109   1.275   6.299  -0.020  3.1622  0.1974  3.2401
10070SOL    HW231110   1.196   6.437   0.017  0.0518 -0.5046 -0.1292
10071SOL     OW31111   0.695   3.796   6.280  0.9748 -0.1261 -0.6122
10071SOL    HW131112   0.635   3.842   6.214 -0.2538 -0.7535  0.0337
10071SOL    HW231113   0.735   3.715   6.237  1.0231  0.0598 -0.9212
10072SOL     OW31114   2.969   1.574   6.740  0.2696 -0.1722  0.4742
10072SOL    HW131115   3.005   1.506   6.677  1.3127 -1.2771  2.2000
10072SOL    HW231116   3.004   1.665   6.714  1.7555 -0.7801  0.2356
10073SOL     OW31117   3.172   2.770   6.939  0.4230 -0.1879  0.3540
10073SOL    HW131118   3.268   2.768   6.968  0.6534 -0.3419 -0.4090
10073SOL    HW231119   3.130   2.856   6.970  0.9458  0.1173  0.2317
10074SOL     OW31120   0.540   3.685   4.812  0.1537  0.0412  0.5532
10074SOL    HW131121   0.589   3.767   4.781 -1.6933  1.7100  1.7966
10074SOL    HW231122   0.446   3.687   4.778 -0.0290 -1.4141  0.8896
10075SOL     OW31123   5.467   2.007   3.088 -0.1778  0.6345 -0.1622
10075SOL    HW131124   5.371   1.998   3.114 -0.0911 -0.6154 -0.1956
10075SOL    HW231125   5.494   1.927   3.033  1.3061  0.1119  1.2540
10076SOL     OW31126   3.340   5.970   4.345  0.1998 -0.1612  0.3202
10076SOL    HW131127   3.295   5.921   4.270  0.2960  1.6673 -1.0086
10076SOL    HW231128   3.278   5.973   4.423 -1.8243  1.6087 -1.1995
10077SOL     OW31129   1.496   5.948   2.258  0.2613 -0.0390 -0.2107
10077SOL    HW131130   1.440   5.999   2.323 -2.7179 -3.0820 -0.1062
10077SOL    HW231131   1.480   5.982   2.166  0.5598  1.0166  0.1162
10078SOL     OW31132   3.445   5.382   6.312  0.0061 -0.0373 -0.0048
10078SOL    HW131133   3.531   5.401   6.361  0.2138 -0.7544 -0.0864
10078SOL    HW231134   3.386   5.326   6.370 -0.6506  0.9139  0.2736
10079SOL     OW31135   2.646   6.378   3.034 -0.2413  0.1915 -0.2833
10079SOL    HW131136   2.660   6.315   2.958 -1.0182  0.1550 -0.4010
10079SOL    HW231137   2.735   6.404   3.072  0.0796 -1.6271  0.3139
10080SOL     OW31138   2.004   5.379   2.204 -0.0991 -0.6522  0.1659
10080SOL    HW131139   2.088   5.369   2.150  0.5374  2.0712  0.5234
10080SOL    HW231140   1.927   5.339   2.154  0.6500  0.8392 -2.3415
10081SOL     OW31141   0.164   2.426   6.765 -0.6665 -0.5071 -0.1670
10081SOL    HW131142   0.235   2.480   6.720 -0.2074 -1.1467 -0.2195
10081SOL    HW231143   0.187   2.328   6.759 -1.9970 -0.7964 -0.9892
10082SOL     OW31144   2.204   7.014   5.986  0.1145 -0.2638  0.4433
10082SOL    HW131145   2.194   6.956   5.906 -0.3090 -0.3745  0.5715
10082SOL    HW231146   2.188   7.110   5.961  0.6464 -0.2236  0.2640
10083SOL     OW31147   1.621   4.140   4.230 -0.8256  0.0548  0.8196
10083SOL    HW131148   1.674   4.060   4.258 -0.1053 -0.0050 -0.6028
10083SOL    HW231149   1.599   4.133   4.133 -0.7472  1.5804  0.6629
10084SOL     OW31150   6.967   1.907   5.905 -0.2524 -0.4912  0.5602
10084SOL    HW131151   6.897   1.843   5.873 -0.3520 -0.3415  0.4780
10084SOL    HW231152   6.924   1.977   5.962  0.0791 -1.4185  2.0075
10085SOL     OW31153   2.915   4.656   0.883  0.5142  1.1072  0.3302
10085SOL    HW131154   2.978   4.597   0.832  0.7371  2.4976 -1.0677
10085SOL    HW231155   2.935   4.647   0.981  1.3302 -0.2167  0.0791
10086SOL     OW31156   2.571   6.515   6.847  0.2917 -0.1409 -0.2747
10086SOL    HW131157   2.637   6.443   6.869  1.2568  0.5291 -0.9030
10086SOL    HW231158   2.578   6.538   6.750 -0.8101  0.0191 -0.3322
10087SOL     OW31159   4.814   5.340   5.278  0.1971 -0.2065  0.2720
10087SOL    HW131160   4.881   5.268   5.263  1.0703  0.8992 -1.4652
10087SOL    HW231161   4.747   5.340   5.204 -0.0392  0.4911  0.4711
10088SOL     OW31162   1.605   0.715   1.848  0.2407  0.2400 -0.1150
10088SOL    HW131163   1.513   0.678   1.855  0.5882 -0.6325 -0.0177
10088SOL    HW231164   1.672   0.643   1.868  0.9257  1.0978  0.8272
10089SOL     OW31165   6.341   1.446   0.146  0.1554  0.1746 -0.0214
10089SOL    HW131166   6.426   1.440   0.198 -0.1028  1.3898  0.5716
10089SOL    HW231167   6.349   1.519   0.078  0.4030 -1.2371 -1.5829
10090SOL     OW31168   1.962   1.841   3.796  0.6866  0.0407  0.0437
10090SOL    HW131169   2.048   1.893   3.804  0.7893  0.0810 -1.1008
10090SOL    HW231170   1.886   1.905   3.790  0.7508  0.0539 -0.7040
10091SOL     OW31171   3.875   6.635   1.950 -0.0769 -0.3211 -0.3473
10091SOL    HW131172   3.778   6.659   1.950 -0.4031 -1.5212 -1.2662
10091SOL    HW231173   3.886   6.540   1.979  0.9968  0.2846  1.3644
10092SOL     OW31174   0.971   1.671   1.637 -0.1092 -0.3890 -0.1050
10092SOL    HW131175   1.001   1.668   1.733  0.4120 -0.6604 -0.2728
10092SOL    HW231176   1.043   1.633   1.579 -0.9246 -1.3944 -0.4804
10093SOL     OW31177   4.633   5.462   0.798  0.5479  0.0066  0.2637
10093SOL    HW131178   4.669   5.463   0.704 -0.5166 -4.5029 -0.4448
10093SOL    HW231179   4.708   5.444   0.862  0.9119  0.5523 -0.0012
10094SOL     OW31180   4.604   0.506   6.681  0.2648  0.1501  0.4651
10094SOL    HW131181   4.675   0.577   6.684  3.2297 -2.4951 -0.9496
10094SOL    HW231182   4.603   0.457   6.769 -0.8311  1.0284  0.9630
10095SOL     OW31183   3.088   2.069   5.600 -0.0354 -0.5471  0.2037
10095SOL    HW131184   3.179   2.052   5.561  0.1477  1.3136 -0.2918
10095SOL    HW231185   3.058   2.161   5.574 -1.9209 -1.0033  0.6569
10096SOL     OW31186   6.060   3.057   5.113 -0.4100  0.1384  0.0341
10096SOL    HW131187   6.013   2.975   5.143 -0.0930 -0.5928 -1.3897
10096SOL    HW231188   6.144   3.032   5.065  0.9522  1.3837  1.6583
10097SOL     OW31189   2.977   6.723   0.321 -0.3232  0.3844  0.3324
10097SOL    HW131190   3.076   6.731   0.328 -0.3861  0.3246  1.4648
10097SOL    HW231191   2.945   6.767   0.237  0.6719  0.2823 -0.1015
10098SOL     OW31192   0.455   1.408   0.814  0.2025  0.2954  0.5175
10098SOL    HW131193   0.406   1.474   0.758 -0.3490 -1.2517 -0.8969
10098SOL    HW231194   0.454   1.438   0.909 -0.5785  1.9801  0.0136
10099SOL     OW31195   1.704   3.631   0.398 -0.0155  0.4022  0.2086
10099SOL    HW131196   1.695   3.657   0.494 -1.1006 -0.6151  0.4022
10099SOL    HW231197   1.702   3.531   0.390  1.4682  0.4301 -0.7488
10100SOL     OW31198   4.139   6.050   5.319 -0.4659 -0.5402  0.2520
10100SOL    HW131199   4.040   6.047   5.308 -0.3845 -2.0523 -0.3218
10100SOL    HW231200   4.181   6.088   5.237 -0.6162  1.5946  1.0982
10101SOL     OW31201   6.698   3.605   3.174  0.2806  0.2503  0.3807
10101SOL    HW131202   6.770   3.661   3.134  1.0354 -0.8790  0.1014
10101SOL    HW231203   6.648   3.558   3.101  1.3102 -1.3916  0.6849
10102SOL     OW31204   6.564   4.950   1.269 -0.5797  0.0637 -0.1792
10102SOL    HW131205   6.536   4.868   1.319 -1.1641  0.5800  0.3400
10102SOL    HW231206   6.485   5.008   1.251  0.0089  1.1250  0.5653
10103SOL     OW31207   2.581   5.706   2.920  0.3046 -0.0370  0.3667
10103SOL    HW131208   2.615   5.629   2.865  2.8920  1.6943 -0.6711
10103SOL    HW231209   2.629   5.706   3.008 -0.3383 -0.1055  0.7159
10104SOL     OW31210   4.863   4.017   4.669 -0.2309 -0.2759  0.1711
10104SOL    HW131211   4.856   3.921   4.697 -2.1009 -0.4267 -0.7013
10104SOL    HW231212   4.852   4.076   4.749  1.5507 -0.7534  0.8185
10105SOL     OW31213   2.927   1.242   3.186  0.0418  0.0097 -0.1384
10105SOL    HW131214   2.956   1.337   3.173 -0.6442  0.2717  0.1972
10105SOL    HW231215   3.003   1.181   3.166  0.6284  0.6523  0.1012
10106SOL     OW31216   1.253   5.436   6.351  0.7520 -0.3214  0.3234
10106SOL    HW131217   1.273   5.387   6.266 -1.3144 -0.3246 -0.2131
10106SOL    HW231218   1.255   5.372   6.427  2.6855 -0.3090  0.3217
10107SOL     OW31219   2.034   6.541   6.623  0.0704  0.1505 -0.4277
10107SOL    HW131220   1.993   6.473   6.684 -1.0898  0.9600 -0.2755
10107SOL    HW231221   2.017   6.516   6.528 -0.3865  0.2515 -0.3713
10108SOL     OW31222   4.299   3.459   5.386  0.2412  0.4052  0.4113
10108SOL    HW131223   4.313   3.360   5.391  1.5822  0.3651 -2.4291
10108SOL    HW231224   4.346   3.503   5.463 -2.6450 -1.2143  3.3366
10109SOL     OW31225   0.415   0.257   5.855 -0.8766  0.1215 -0.0207
10109SOL    HW131226   0.439   0.171   5.809  1.4314  0.9719 -0.5084
10109SOL    HW231227   0.315   0.264   5.861 -1.1353 -2.5209 -0.0557
10110SOL     OW31228   3.321   6.411   6.703  0.2179 -0.1443 -0.0473
10110SOL    HW131229   3.381   6.352   6.648  0.5516  0.7727 -0.7054
10110SOL    HW231230   3.376   6.457   6.773 -0.0878 -0.7868  0.6322
10111SOL     OW31231   6.561   1.426   2.665  0.7759 -0.0476 -0.0371
10111SOL    HW131232   6.618   1.379   2.732  0.7040 -1.4764 -0.9342
10111SOL    HW231233   6.481   1.464   2.711  2.4172  2.0604  1.2608
10112SOL     OW31234   5.188   5.304   1.404 -0.5022  0.3844 -0.5562
10112SOL    HW131235   5.247   5.291   1.484  1.0432  0.9303 -1.5762
10112SOL    HW231236   5.105   5.249   1.415 -1.6129  2.4466  2.6431
10113SOL     OW31237   5.443   1.663   6.187  0.0654  0.5574  0.2306
10113SOL    HW131238   5.357   1.617   6.167 -0.6961  1.3158  1.5274
10113SOL    HW231239   5.447   1.750   6.138  1.4159 -0.7177 -2.0684
10114SOL     OW31240   0.620   0.493   6.683 -0.5119  0.5356  0.0072
10114SOL    HW131241   0.638   0.472   6.587 -2.2626 -3.6193  0.3435
10114SOL    HW231242   0.693   0.454   6.739 -1.0463  0.1914  0.4731
10115SOL     OW31243   5.952   2.358   6.474  0.2538  0.7891 -0.1952
10115SOL    HW131244   5.879   2.303   6.515  1.0115  0.1681  0.3579
10115SOL    HW231245   5.995   2.306   6.400  1.2365  0.4360  0.5917
10116SOL     OW31246   2.349   4.801   1.023  0.1662 -0.6116 -0.6936
10116SOL    HW131247   2.308   4.801   0.931 -0.0508  0.8365 -0.6220
10116SOL    HW231248   2.448   4.786   1.015  0.0625 -1.1103 -1.1120
10117SOL     OW31249   4.275   6.406   3.720  0.0922  0.5242 -0.3569
10117SOL    HW131250   4.339   6.449   3.784  0.6729 -0.7219 -0.0675
10117SOL    HW231251   4.182   6.410   3.759  0.3574  0.2418  0.3228
10118SOL     OW31252   1.570   3.391   4.596 -0.6981 -0.3519  0.2031
10118SOL    HW131253   1.506   3.460   4.563 -0.3973 -0.6842 -1.1500
10118SOL    HW231254   1.605   3.338   4.518 -0.2442 -1.4392  1.1119
10119SOL     OW31255   5.666   2.788   5.408  0.1647 -0.5187 -0.3575
10119SOL    HW131256   5.581   2.784   5.355  0.3711 -0.0225 -0.7302
10119SOL    HW231257   5.708   2.878   5.398  0.8222 -0.8120 -0.3161
10120SOL     OW31258   1.848   2.971   0.915 -0.0801 -0.0724 -0.5982
10120SOL    HW131259   1.936   2.933   0.885  1.1750  1.2168  1.2248
10120SOL    HW231260   1.864   3.039   0.987 -2.5227  0.9560 -0.9303
10121SOL     OW31261   5.001   0.359   4.669  0.0924  0.5712  0.2175
10121SOL    HW131262   5.047   0.377   4.756  0.7746 -0.7231  0.1461
10121SOL    HW231263   5.067   0.325   4.602 -0.3271  2.0290 -0.9811
10122SOL     OW31264   2.921   3.730   0.018 -0.3353 -0.3125  0.3944
10122SOL    HW131265   3.005   3.691   0.054  0.0463  1.4309  1.5225
10122SOL    HW231266   2.843   3.673   0.045  0.3930 -1.6811 -0.2642
10123SOL     OW31267   2.798   1.525   1.524 -0.1790 -0.1119 -0.3989
10123SOL    HW131268   2.869   1.590   1.497 -0.6109  0.0424 -1.1686
10123SOL    HW231269   2.822   1.486   1.613  0.3416  0.7135 -0.1648
10124SOL     OW31270   2.049   0.117   2.432  0.0389 -0.5299 -0.0779
10124SOL    HW131271   2.050   0.139   2.530  1.5563 -3.3420  0.6546
10124SOL    HW231272   2.132   0.150   2.389 -0.3985  0.2672 -0.3226
10125SOL     OW31273   5.085   2.566   0.376 -0.5673  0.4412  0.0298
10125SOL    HW131274   5.016   2.495   0.366  2.2965 -3.2847  3.2657
10125SOL    HW231275   5.058   2.629   0.449 -1.1276 -0.1196  0.3110
10126SOL     OW31276   0.229   3.615   0.616 -0.1027  0.0745  0.0294
10126SOL    HW131277   0.132   3.616   0.639 -0.0541  1.0191  0.2072
10126SOL    HW231278   0.247   3.538   0.555 -0.7250 -0.8590  0.9869
10127SOL     OW31279   1.101   3.595   6.109 -0.2618  0.5796  0.0280
10127SOL    HW131280   1.103   3.681   6.160  0.1521  0.6947 -0.1790
10127SOL    HW231281   1.175   3.594   6.042  0.1532 -0.2098  0.4776
10128SOL     OW31282   1.787   6.452   1.090  0.4441  0.5579 -1.1944
10128SOL    HW131283   1.837   6.420   1.170 -2.3061 -3.4356 -0.7883
10128SOL    HW231284   1.751   6.543   1.107  0.9226  0.2979  1.6185
10129SOL     OW31285   0.668   2.921   1.533 -0.1893  0.1057  0.0749
10129SOL    HW131286   0.606   2.971   1.472 -1.5001 -0.1464  1.1476
10129SOL    HW231287   0.734   2.984   1.573 -1.1570  0.8240  0.6015
10130SOL     OW31288   0.671   2.404   1.663 -0.3578  0.1042  0.8222
10130SOL    HW131289   0.717   2.401   1.751 -0.0864  0.9696  0.7165
10130SOL    HW231290   0.572   2.393   1.677 -0.5655  2.2950  1.4758
10131SOL     OW31291   6.908   3.221   0.045 -0.3287  0.3579 -0.3008
10131SOL    HW131292   6.836   3.153   0.047 -0.4195  0.4530  1.7247
10131SOL    HW231293   6.869   3.311   0.026 -1.0147  0.6410  2.1893
10132SOL     OW31294   1.143   4.043   5.377 -0.2140 -0.1098 -0.0693
10132SOL    HW131295   1.182   4.011   5.464 -0.3813  1.1338  0.4829
10132SOL    HW231296   1.070   3.980   5.349 -0.2382 -0.4658  0.7490
10133SOL     OW31297   6.248   5.026   1.565  0.3276  0.1149  0.4650
10133SOL    HW131298   6.247   5.126   1.565 -0.3629  0.1194  0.8840
10133SOL    HW231299   6.315   4.993   1.631 -0.9101  0.3282  1.8877
10134SOL     OW31300   4.794   2.233   0.562  0.0734 -0.2582  0.2860
10134SOL    HW131301   4.857   2.307   0.584 -1.0710  0.6747  0.5416
10134SOL    HW231302   4.751   2.199   0.647 -0.2100 -0.4714  0.0609
10135SOL     OW31303   5.785   3.885   0.183 -0.2253  0.0291 -0.1590
10135SOL    HW131304   5.847   3.942   0.130  2.0592 -1.6028  0.5896
10135SOL    HW231305   5.706   3.939   0.212  0.5782  2.0673 -1.5713
10136SOL     OW31306   1.687   4.165   2.505  0.0678 -0.2449 -0.4485
10136SOL    HW131307   1.633   4.246   2.528  1.5135  0.6560 -0.1149
10136SOL    HW231308   1.765   4.191   2.447 -0.5777 -1.7197 -2.0673
10137SOL     OW31309   5.380   2.168   2.867 -0.0270  0.2590  0.1489
10137SOL    HW131310   5.431   2.148   2.951  2.2569 -1.4424 -1.5206
10137SOL    HW231311   5.415   2.252   2.826  0.2828 -0.0231 -0.1618
10138SOL     OW31312   0.346   3.914   3.713  0.3918  0.0813 -0.1785
10138SOL    HW131313   0.349   3.996   3.656 -2.1213  1.4475  1.4370
10138SOL    HW231314   0.267   3.919   3.774  2.9535 -1.1162  3.6207
10139SOL     OW31315   4.465   1.666   0.713  0.2363 -0.0705  0.3068
10139SOL    HW131316   4.431   1.637   0.624  0.0747  0.0713  0.3214
10139SOL    HW231317   4.388   1.673   0.777  0.0172  1.8333 -0.0814
10140SOL     OW31318   5.794   6.418   2.759 -0.5980 -0.5885  0.6899
10140SOL    HW131319   5.891   6.422   2.736 -0.9969  0.6101 -0.9526
10140SOL    HW231320   5.753   6.335   2.722 -0.4838 -0.4073  0.1553
10141SOL     OW31321   2.167   6.074   6.850  0.1424  0.2560 -0.1093
10141SOL    HW131322   2.069   6.063   6.834  0.5760  1.6140 -5.5040
10141SOL    HW231323   2.184   6.161   6.897 -1.1607 -0.1520  1.1756
10142SOL     OW31324   4.106   1.393   5.209  0.6392  0.0841  0.4497
10142SOL    HW131325   4.013   1.420   5.185  0.9270  0.3387 -0.3890
10142SOL    HW231326   4.171   1.459   5.173  1.1360  0.0406  1.2460
10143SOL     OW31327   6.926   3.249   3.363  0.2091  0.3138  0.2007
10143SOL    HW131328   6.886   3.341   3.371 -0.4370  0.1195 -0.6886
10143SOL    HW231329   6.868   3.183   3.412 -0.0555  0.1798 -0.2873
10144SOL     OW31330   4.997   5.160   0.186 -0.3291 -0.4699  0.0656
10144SOL    HW131331   4.911   5.198   0.220 -0.0129  0.3007  0.0030
10144SOL    HW231332   5.005   5.179   0.088 -0.6059 -1.5224 -0.1819
10145SOL     OW31333   4.443   6.954   1.473  0.2020  0.2981 -0.2431
10145SOL    HW131334   4.471   6.861   1.496 -0.6285 -0.7676 -3.1857
10145SOL    HW231335   4.370   6.983   1.535 -1.1069 -1.9170 -0.6493
10146SOL     OW31336   1.841   3.478   2.341 -0.1263  0.2327 -0.7657
10146SOL    HW131337   1.938   3.463   2.360 -0.0483 -0.1749 -1.4665
10146SOL    HW231338   1.829   3.499   2.244 -0.6819  0.7949 -0.5811
10147SOL     OW31339   0.523   4.777   2.493  0.3475 -0.2736  0.4467
10147SOL    HW131340   0.617   4.759   2.523 -0.2147 -2.3656  1.0951
10147SOL    HW231341   0.514   4.752   2.397  0.5252  0.2584  0.2872
10148SOL     OW31342   1.508   0.454   0.619 -0.6780  0.1883  0.6736
10148SOL    HW131343   1.456   0.517   0.561 -1.3407 -0.1256  0.9189
10148SOL    HW231344   1.601   0.489   0.632  0.2533 -0.8463 -2.4295
10149SOL     OW31345   3.802   0.776   5.657  0.4870 -0.5188  0.4595
10149SOL    HW131346   3.883   0.725   5.628  1.5185  0.1871  1.9882
10149SOL    HW231347   3.764   0.733   5.740  0.2502  0.0957  0.6706
10150SOL     OW31348   5.517   2.750   1.989 -0.0594 -0.2478 -0.5302
10150SOL    HW131349   5.501   2.674   2.052  1.1352 -0.3463 -0.3290
10150SOL    HW231350   5.578   2.817   2.032 -2.1764  1.5572 -0.1371
10151SOL     OW31351   2.529   0.847   5.718  0.4023 -0.3931 -0.2958
10151SOL    HW131352   2.433   0.864   5.695  0.4117  1.3006  0.7427
10151SOL    HW231353   2.576   0.806   5.640 -1.0575 -0.8249 -0.9702
10152SOL     OW31354   0.092   6.455   2.454  0.4569  0.1237 -0.7833
10152SOL    HW131355   0.084   6.431   2.357  0.4119  0.0315 -0.7571
10152SOL    HW231356   0.188   6.474   2.476  0.2711  1.7033 -1.2084
10153SOL     OW31357   3.239   0.219   2.731 -0.1387  0.2811 -0.2541
10153SOL    HW131358   3.221   0.254   2.823 -0.0230 -0.3991  0.0366
10153SOL    HW231359   3.320   0.263   2.693 -0.5838  1.0630 -0.3062
10154SOL     OW31360   6.885   3.459   4.541  0.3559  0.2829 -0.1706
10154SOL    HW131361   6.877   3.559   4.541  0.9935  0.3368  0.5187
10154SOL    HW231362   6.909   3.427   4.632 -3.0681 -0.7794  0.4912
10155SOL     OW31363   3.048   5.091   1.656 -0.0548  0.4142 -0.4586
10155SOL    HW131364   2.958   5.098   1.614  0.5933  1.8355 -1.7139
10155SOL    HW231365   3.069   5.176   1.704  0.3444 -0.1694  0.4139
10156SOL     OW31366   1.200   2.418   6.188 -0.1436  0.1516  0.0676
10156SOL    HW131367   1.175   2.329   6.150 -0.1792 -0.9532  2.4926
10156SOL    HW231368   1.278   2.455   6.138 -1.1866 -0.3998 -2.0823
10157SOL     OW31369   2.832   0.941   0.246  0.5406 -0.0913  0.8386
10157SOL    HW131370   2.900   0.925   0.316  0.0742 -0.4387  1.2192
10157SOL    HW231371   2.816   1.039   0.236  2.6919  0.1766 -0.8079
10158SOL     OW31372   3.269   5.725   4.883  0.0044  0.3463  0.0763
10158SOL    HW131373   3.261   5.745   4.981  1.4337  1.6625 -0.0401
10158SOL    HW231374   3.283   5.811   4.833 -1.3734 -0.2373 -1.3736
10159SOL     OW31375   6.438   3.251   2.900 -0.3988 -0.1863  0.0490
10159SOL    HW131376   6.420   3.296   2.987 -0.9873 -0.0492 -0.1388
10159SOL    HW231377   6.522   3.197   2.907 -1.4301 -1.7194  1.3067
10160SOL     OW31378   2.717   4.885   5.667 -0.1128 -0.4982 -0.2799
10160SOL    HW131379   2.810   4.897   5.633 -0.7041  1.7710 -1.2323
10160SOL    HW231380   2.720   4.861   5.764  1.4469 -1.2720 -0.4866
10161SOL     OW31381   2.054   3.887   4.243  0.7156  0.2927 -0.6600
10161SOL    HW131382   2.079   3.921   4.153 -0.5385  0.7103 -0.8734
10161SOL    HW231383   2.088   3.950   4.313 -0.3346  1.2452 -0.9781
10162SOL     OW31384   3.505   6.012   3.409 -0.7770 -0.0289 -0.2333
10162SOL    HW131385   3.409   6.024   3.436 -0.6260 -0.2811  0.4558
10162SOL    HW231386   3.510   5.968   3.320 -1.3091  1.3208 -0.9651
10163SOL     OW31387   3.710   6.695   5.486 -0.4143 -0.4685  0.1124
10163SOL    HW131388   3.804   6.677   5.457 -1.3281 -3.2263 -1.5849
10163SOL    HW231389   3.694   6.653   5.575 -0.7098 -2.5716 -0.8637
10164SOL     OW31390   3.914   3.446   5.905  0.6318 -0.2776 -0.0228
10164SOL    HW131391   3.862   3.361   5.914  1.3821 -0.8144 -0.6198
10164SOL    HW231392   3.874   3.503   5.833  0.2952 -0.2575  0.1826
10165SOL     OW31393   3.267   6.042   4.855  0.3124 -0.2462  0.1615
10165SOL    HW131394   3.319   6.037   4.941  0.3081  0.2509  0.1953
10165SOL    HW231395   3.325   6.081   4.783 -0.0797  0.5190  0.2541
10166SOL     OW31396   6.975   4.870   1.468  0.3154 -0.2528  0.2445
10166SOL    HW131397   6.968   4.943   1.535  0.9389 -0.9198  1.0562
10166SOL    HW231398   7.051   4.810   1.492 -0.4266 -1.3912 -0.1984
10167SOL     OW31399   3.325   4.844   2.697  0.0933  0.0118 -0.3488
10167SOL    HW131400   3.332   4.833   2.598  1.6838 -0.4555 -0.2166
10167SOL    HW231401   3.228   4.843   2.724 -0.6573  3.8580 -2.2404
10168SOL     OW31402   5.716   6.587   3.250 -0.0263 -0.4433 -0.4462
10168SOL    HW131403   5.699   6.509   3.190 -1.5169 -0.7151  0.2728
10168SOL    HW231404   5.742   6.666   3.195 -1.5893 -0.6257 -1.5251
10169SOL     OW31405   6.066   2.661   6.200  0.5792  0.3184  0.4399
10169SOL    HW131406   6.090   2.753   6.168 -0.1030  0.9913  1.7690
10169SOL    HW231407   5.979   2.664   6.249 -0.5477 -1.4482 -1.3114
10170SOL     OW31408   2.582   3.554   6.511  0.1331 -0.7275 -0.5809
10170SOL    HW131409   2.680   3.551   6.526 -0.0375 -3.0060  0.5498
10170SOL    HW231410   2.558   3.491   6.436 -0.4714 -0.2386 -0.8049
10171SOL     OW31411   0.556   3.152   5.898  0.0141  0.1495  0.0797
10171SOL    HW131412   0.463   3.190   5.888  0.3024  0.5301 -1.3910
10171SOL    HW231413   0.620   3.226   5.919  0.2115  0.1161 -0.3993
10172SOL     OW31414   4.953   2.704   4.605 -0.3800  0.8360 -0.1212
10172SOL    HW131415   4.928   2.708   4.702 -2.2296  0.4337 -0.5351
10172SOL    HW231416   4.874   2.730   4.549 -0.4955 -2.1471 -1.5900
10173SOL     OW31417   3.429   2.288   5.618  0.5055  0.4002 -0.3693
10173SOL    HW131418   3.417   2.293   5.717 -0.2570  0.0735 -0.4352
10173SOL    HW231419   3.387   2.204   5.583  0.2242  0.8020 -1.0379
10174SOL     OW31420   1.028   0.122   3.534 -0.6058  0.1019 -0.2125
10174SOL    HW131421   0.948   0.063   3.548  0.7813 -1.4959  1.7218
10174SOL    HW231422   1.074   0.095   3.449 -1.7167  0.5948 -0.9995
10175SOL     OW31423   5.863   6.789   6.722 -0.2332 -0.0527 -0.3669
10175SOL    HW131424   5.908   6.813   6.635 -0.8312 -1.0182 -0.9548
10175SOL    HW231425   5.765   6.809   6.715 -0.4991 -1.2697 -0.3665
10176SOL     OW31426   6.272   0.453   2.797 -0.5674  0.1271  0.1685
10176SOL    HW131427   6.306   0.470   2.889 -0.1028  0.0449  0.0134
10176SOL    HW231428   6.343   0.474   2.730 -0.0337 -2.0805 -0.0550
10177SOL     OW31429   1.076   6.798   0.382  0.3540 -0.0912  0.1956
10177SOL    HW131430   1.059   6.830   0.475 -2.2051 -3.4145  1.0465
10177SOL    HW231431   1.144   6.723   0.384  0.1444 -0.3154 -0.5734
10178SOL     OW31432   1.484   2.263   1.412 -0.1706  0.4922  0.0763
10178SOL    HW131433   1.511   2.284   1.317  0.1099  1.5731  0.3730
10178SOL    HW231434   1.561   2.221   1.459 -0.0830  0.5729  0.0073
10179SOL     OW31435   5.856   2.627   1.155 -0.2823 -0.1914  0.1957
10179SOL    HW131436   5.883   2.552   1.095 -2.2784 -0.7213 -0.0804
10179SOL    HW231437   5.777   2.600   1.209  1.5359  0.1651  3.3011
10180SOL     OW31438   0.099   2.705   5.511  0.4260 -0.4691  0.1958
10180SOL    HW131439   0.018   2.679   5.459  0.6695 -0.0312 -0.4136
10180SOL    HW231440   0.157   2.763   5.455  0.2573  0.7636  1.2535
10181SOL     OW31441   1.855   4.718   5.633  0.0131  0.0402  0.2605
10181SOL    HW131442   1.930   4.681   5.688  0.6390 -1.9485 -1.7905
10181SOL    HW231443   1.893   4.767   5.554 -0.8206 -0.7719 -0.6638
10182SOL     OW31444   0.036   5.906   5.964 -0.1267  0.2472  0.1521
10182SOL    HW131445  -0.023   5.842   6.014  0.3988 -0.3093  0.0647
10182SOL    HW231446   0.113   5.857   5.925 -1.5283  0.2816 -2.9153
10183SOL     OW31447   3.235   1.540   3.783  0.0822  0.3906 -0.4862
10183SOL    HW131448   3.325   1.582   3.772  0.0365  0.7892  0.5572
10183SOL    HW231449   3.219   1.475   3.708  0.6166  1.3871 -1.4920
10184SOL     OW31450   2.056   5.478   0.573  0.1338  0.3946  0.1380
10184SOL    HW131451   2.111   5.501   0.652  1.0579 -0.5354 -0.2132
10184SOL    HW231452   2.005   5.394   0.591 -0.6001  0.8433  0.1866
10185SOL     OW31453   6.480   4.414   4.509 -0.3450  0.0174  0.0043
10185SOL    HW131454   6.439   4.323   4.503 -0.4172 -0.1056  1.8303
10185SOL    HW231455   6.529   4.434   4.424 -1.1727 -1.2912 -0.8229
10186SOL     OW31456   4.535   4.901   5.455 -0.1441 -0.4489  0.0481
10186SOL    HW131457   4.581   4.987   5.436 -0.6021  0.1637  1.5408
10186SOL    HW231458   4.603   4.831   5.479  0.3469 -0.9477 -2.4934
10187SOL     OW31459   5.198   2.037   3.141  0.0910  0.0775 -0.1817
10187SOL    HW131460   5.103   2.005   3.140  0.6117 -1.6190  0.8611
10187SOL    HW231461   5.211   2.100   3.218 -0.5607  1.6830 -1.3279
10188SOL     OW31462   5.043   0.289   1.939  0.7978  0.3509  0.2736
10188SOL    HW131463   5.030   0.268   2.036 -1.1048  0.5799  0.1184
10188SOL    HW231464   5.123   0.347   1.927 -0.0530  1.9748  1.9752
10189SOL     OW31465   4.371   4.242   1.468 -0.1515  0.3051  1.0143
10189SOL    HW131466   4.291   4.182   1.465 -0.9700  1.3970  0.1620
10189SOL    HW231467   4.412   4.249   1.377  0.5972  0.1949  1.3328
10190SOL     OW31468   4.227   5.259   3.618  0.0534  0.1724 -0.2743
10190SOL    HW131469   4.314   5.212   3.633 -0.1262 -0.7435 -1.8980
10190SOL    HW231470   4.157   5.192   3.595 -0.5860  1.0875 -1.0719
10191SOL     OW31471   0.887   5.554   1.002  0.2880 -0.9123  0.2784
10191SOL    HW131472   0.950   5.528   1.074 -0.3012 -0.9152  0.7971
10191SOL    HW231473   0.811   5.489   0.999 -0.7840  0.2645  1.0595
10192SOL     OW31474   3.426   0.676   4.798  0.0547  0.0388 -0.4376
10192SOL    HW131475   3.339   0.641   4.834 -0.3860  1.2030 -0.3360
10192SOL    HW231476   3.444   0.635   4.708 -0.1213 -0.9169 -0.0555
10193SOL     OW31477   4.854   1.836   2.416  0.0802  0.3343  0.1590
10193SOL    HW131478   4.783   1.820   2.485  0.3011  0.9306  0.5251
10193SOL    HW231479   4.883   1.748   2.378 -2.1792  0.1463 -1.3584
10194SOL     OW31480   1.628   0.962   2.573  0.1257  0.0297  0.1614
10194SOL    HW131481   1.537   0.953   2.614 -1.0534  0.4117 -2.1799
10194SOL    HW231482   1.661   0.872   2.546  0.9926 -0.2477  1.9916
10195SOL     OW31483   6.758   3.018   4.994 -0.2823 -0.0742 -0.3023
10195SOL    HW131484   6.833   3.080   4.972 -1.0923  1.1491  0.2289
10195SOL    HW231485   6.777   2.927   4.958  2.5631 -0.4614  1.8617
10196SOL     OW31486   0.457   6.606   5.847 -0.1805  0.3405 -0.1366
10196SOL    HW131487   0.380   6.636   5.903  1.1557  2.3771  0.7015
10196SOL    HW231488   0.521   6.681   5.834  1.7008 -1.2829 -0.8207
10197SOL     OW31489   4.908   6.340   4.644 -0.6113 -0.4423 -0.0466
10197SOL    HW131490   4.838   6.411   4.650 -2.0307 -1.8032  0.1010
10197SOL    HW231491   4.894   6.287   4.560  0.6348 -0.3832 -0.3195
10198SOL     OW31492   5.878   6.979   2.198 -0.2415 -0.1526 -0.7385
10198SOL    HW131493   5.959   7.017   2.153 -0.2696 -0.8803 -1.4267
10198SOL    HW231494   5.898   6.964   2.295  0.3265  0.0010 -0.8267
10199SOL     OW31495   6.923   5.331   0.217  0.4657  0.0618  0.2118
10199SOL    HW131496   6.858   5.324   0.141 -0.2315  2.7107  0.4560
10199SOL    HW231497   6.887   5.282   0.296 -0.8559  0.7632  0.0740
10200SOL     OW31498   0.140   5.707   1.967 -0.3287 -0.4352 -0.1592
10200SOL    HW131499   0.139   5.659   1.879  0.3201 -0.1136 -0.3452
10200SOL    HW231500   0.056   5.760   1.977 -0.1490 -0.0123 -0.8433
10201SOL     OW31501   4.250   1.481   1.493  0.6311  0.6772  0.0168
10201SOL    HW131502   4.163   1.446   1.459  0.7441 -0.1851  0.5743
10201SOL    HW231503   4.260   1.456   1.590 -0.0555  3.7060  0.9847
10202SOL     OW31504   2.077   0.199   2.689 -0.3246  0.0089 -0.1246
10202SOL    HW131505   2.001   0.197   2.754  0.4015  1.7993  0.8341
10202SOL    HW231506   2.150   0.138   2.721  0.0321  0.8846  0.7851
10203SOL     OW31507   5.293   4.907   3.910  0.3351 -0.5360 -0.2409
10203SOL    HW131508   5.259   4.857   3.830  1.6428  2.9900 -3.3046
10203SOL    HW231509   5.225   4.975   3.938  1.6980  1.5428 -1.6691
10204SOL     OW31510   6.971   4.916   4.642 -0.3713 -0.2861 -0.5159
10204SOL    HW131511   6.929   5.006   4.643  0.6683  0.2197 -1.2388
10204SOL    HW231512   7.006   4.895   4.551  2.0463 -0.1364  0.2906
10205SOL     OW31513   5.156   5.725   3.872 -0.4173  0.0620 -0.2960
10205SOL    HW131514   5.070   5.693   3.911 -0.3996  0.3951  0.0163
10205SOL    HW231515   5.232   5.704   3.934 -0.1468 -1.0022 -0.9455
10206SOL     OW31516   6.474   4.313   1.163  0.2271  0.3886 -0.6248
10206SOL    HW131517   6.481   4.383   1.233  0.6750 -0.6390  0.3846
10206SOL    HW231518   6.377   4.293   1.146  0.1193  0.3934 -0.0394
10207SOL     OW31519   5.747   5.402   6.328 -0.0043 -0.6888  0.7493
10207SOL    HW131520   5.776   5.346   6.406 -1.3842  1.1048  2.6646
10207SOL    HW231521   5.648   5.391   6.316  0.3488 -1.8599 -1.6057
10208SOL     OW31522   5.177   3.789   5.155 -0.0518  0.9533 -0.4908
10208SOL    HW131523   5.127   3.706   5.130 -1.2059  1.1794  0.8988
10208SOL    HW231524   5.163   3.808   5.252  1.1064  2.1717 -0.5357
10209SOL     OW31525   3.072   6.836   3.273  0.1889  0.1070 -0.1728
10209SOL    HW131526   3.103   6.922   3.233 -1.1329  1.0779  0.8129
10209SOL    HW231527   2.977   6.820   3.248  0.7152 -1.6694 -1.2585
10210SOL     OW31528   4.630   5.879   6.019  0.1898 -0.4909 -0.4426
10210SOL    HW131529   4.582   5.952   5.970 -1.0344 -1.7882 -1.2922
10210SOL    HW231530   4.574   5.849   6.096 -1.2099 -2.9869 -2.2699
10211SOL     OW31531   4.324   6.669   2.166 -0.0149 -0.5407  0.4705
10211SOL    HW131532   4.255   6.720   2.115  1.2664  0.6100 -0.1878
10211SOL    HW231533   4.375   6.609   2.105 -0.3300 -1.2913  0.9273
10212SOL     OW31534   2.329   4.698   6.797 -0.4733 -0.1991 -0.5144
10212SOL    HW131535   2.391   4.749   6.857  0.2598  0.2437 -1.6100
10212SOL    HW231536   2.251   4.666   6.850 -0.3040  0.9416  0.4829
10213SOL     OW31537   0.880   6.456   5.472 -0.1592  0.3630 -0.8199
10213SOL    HW131538   0.787   6.489   5.453 -1.4585 -1.3867  1.8714
10213SOL    HW231539   0.920   6.511   5.545  0.5872  0.5498 -1.3644
10214SOL     OW31540   0.143   6.912   0.882 -0.0797  0.7171  0.1932
10214SOL    HW131541   0.210   6.950   0.944 -0.8065 -0.0572  1.4958
10214SOL    HW231542   0.053   6.951   0.900 -0.2295  0.8154 -0.6834
10215SOL     OW31543   4.973   4.757   5.660 -0.6148 -0.1395  0.1670
10215SOL    HW131544   5.066   4.740   5.628 -0.6354 -0.7547  0.4346
10215SOL    HW231545   4.910   4.754   5.582 -0.4233  0.2367 -0.0074
10216SOL     OW31546   1.625   3.735   5.234  0.0997 -0.1864 -0.3520
10216SOL    HW131547   1.664   3.654   5.189  0.0708  0.2769 -1.2255
10216SOL    HW231548   1.543   3.764   5.185 -1.0768 -0.8292  1.1507
10217SOL     OW31549   6.020   5.289   1.760 -0.2775 -0.0554 -0.0545
10217SOL    HW131550   6.003   5.325   1.668  1.1131  1.3478  0.2038
10217SOL    HW231551   6.005   5.361   1.827 -0.7385 -0.9253  0.7944
10218SOL     OW31552   3.278   5.444   5.794  0.1620 -0.2088 -0.4669
10218SOL    HW131553   3.360   5.442   5.852 -0.3883 -0.6981  0.3113
10218SOL    HW231554   3.207   5.498   5.839 -0.2093 -0.4436 -0.7680
10219SOL     OW31555   4.807   1.318   4.293 -0.5048 -0.2611  0.3350
10219SOL    HW131556   4.732   1.255   4.274 -0.2862 -0.2816 -0.5296
10219SOL    HW231557   4.879   1.305   4.225  0.2244 -0.1475  1.0728
10220SOL     OW31558   2.039   1.906   6.302  0.1076 -0.2403  0.4517
10220SOL    HW131559   2.067   1.924   6.208 -1.3027 -0.1103  0.0387
10220SOL    HW231560   1.966   1.969   6.328  0.4087 -0.3364  1.6113
10221SOL     OW31561   3.820   2.079   4.948  0.3977 -0.3350  0.3330
10221SOL    HW131562   3.748   2.033   5.001 -1.3415  1.2543 -0.5279
10221SOL    HW231563   3.848   2.162   4.994  0.3194  0.0161 -0.2411
10222SOL     OW31564   0.393   3.307   4.391 -0.0919 -0.5712 -0.0862
10222SOL    HW131565   0.453   3.325   4.469  0.7325  1.0326 -1.0342
10222SOL    HW231566   0.412   3.216   4.354 -0.4693 -1.3390  1.5158
10223SOL     OW31567   3.324   3.464   6.511  0.2771 -0.1769  0.2096
10223SOL    HW131568   3.247   3.433   6.454 -0.0466  0.3114  0.3731
10223SOL    HW231569   3.334   3.403   6.589 -2.6848  2.0394  2.5542
10224SOL     OW31570   4.059   0.610   5.642 -0.2654  0.5995  0.0289
10224SOL    HW131571   4.081   0.546   5.715 -0.9864  1.8103  1.3391
10224SOL    HW231572   4.126   0.685   5.641 -1.1314  1.3982  0.4682
10225SOL     OW31573   5.394   6.136   2.027 -0.4570  0.1106 -1.1069
10225SOL    HW131574   5.348   6.143   2.116  0.4984 -1.1944 -0.4930
10225SOL    HW231575   5.484   6.094   2.039  0.9823  2.6432 -2.2738
10226SOL     OW31576   3.061   5.642   3.147 -0.3753  0.7502 -0.6342
10226SOL    HW131577   3.059   5.543   3.135 -0.9508  0.7872 -0.8734
10226SOL    HW231578   3.127   5.666   3.218  0.0201  0.2222 -0.8166
10227SOL     OW31579   0.140   1.620   3.688  0.0887 -0.2675 -1.2136
10227SOL    HW131580   0.116   1.539   3.741 -0.5723  0.1813 -0.8247
10227SOL    HW231581   0.153   1.593   3.592  1.2396 -1.0661 -0.8619
10228SOL     OW31582   0.092   3.299   5.462  0.3729  0.5792  0.4232
10228SOL    HW131583  -0.007   3.306   5.450 -0.1406 -1.8816  2.4478
10228SOL    HW231584   0.137   3.373   5.411 -2.4619  1.7936 -0.5152
10229SOL     OW31585   1.720   4.114   1.458  0.1519 -0.7446  0.2986
10229SOL    HW131586   1.756   4.207   1.448  0.7562 -1.0971 -0.9325
10229SOL    HW231587   1.791   4.048   1.437 -0.8412 -1.4603 -0.9357
10230SOL     OW31588   4.132   5.592   4.088  0.2710  0.0575  0.1157
10230SOL    HW131589   4.133   5.586   4.188  1.0926  0.2527  0.1250
10230SOL    HW231590   4.216   5.636   4.056  0.6739 -1.2642 -0.7386
10231SOL     OW31591   5.088   4.946   0.548  0.6240  0.1116 -0.4454
10231SOL    HW131592   5.136   4.859   0.552  1.0701  0.3616 -0.1959
10231SOL    HW231593   5.152   5.018   0.521  0.3966  0.4543 -0.0825
10232SOL     OW31594   4.518   2.838   5.613  0.4474  0.1459  0.3232
10232SOL    HW131595   4.602   2.792   5.586 -0.3905 -0.6386 -1.0483
10232SOL    HW231596   4.440   2.778   5.597 -0.3402  0.5760  2.2762
10233SOL     OW31597   0.485   5.568   0.372 -0.7102 -0.7849  0.1451
10233SOL    HW131598   0.580   5.549   0.350 -0.3864 -0.7531  1.4377
10233SOL    HW231599   0.427   5.494   0.338 -0.0756 -1.4380  0.4575
10234SOL     OW31600   4.923   4.872   0.209 -0.0910 -0.4333  0.2465
10234SOL    HW131601   4.903   4.825   0.124  0.9495  0.1830 -0.3547
10234SOL    HW231602   4.937   4.969   0.191  2.2826 -0.6277  0.7729
10235SOL     OW31603   1.181   6.788   3.518  0.4118  0.1505 -0.0512
10235SOL    HW131604   1.140   6.740   3.596  1.8699  2.4740  2.3212
10235SOL    HW231605   1.114   6.796   3.445 -2.3464  1.0136  2.3721
10236SOL     OW31606   0.457   7.020   3.159 -0.3959 -0.2297  0.3883
10236SOL    HW131607   0.415   6.934   3.186 -4.1069  1.3698  0.3392
10236SOL    HW231608   0.453   7.030   3.060  0.5653 -0.2301  0.3408
10237SOL     OW31609   4.690   5.449   2.128 -0.1030  0.0301  0.2707
10237SOL    HW131610   4.647   5.379   2.070 -0.1870  0.7858 -0.5925
10237SOL    HW231611   4.646   5.537   2.113  1.4244  0.7377 -0.3216
10238SOL     OW31612   4.453   1.237   5.204  0.1527 -0.0783 -0.1464
10238SOL    HW131613   4.449   1.273   5.111 -0.4414  0.7530  0.1839
10238SOL    HW231614   4.362   1.202   5.230  0.1844  0.1558  0.2916
10239SOL     OW31615   0.470   0.678   2.762 -0.1108 -0.0353 -0.0847
10239SOL    HW131616   0.403   0.621   2.810  0.4173 -2.2639 -1.8349
10239SOL    HW231617   0.561   0.638   2.773  0.4434  1.0761 -0.5364
10240SOL     OW31618   6.315   5.733   0.367  1.0140  0.6705 -0.2331
10240SOL    HW131619   6.232   5.785   0.385  1.4590  1.3608 -0.1373
10240SOL    HW231620   6.380   5.747   0.442  0.9618 -0.4029  0.0315
10241SOL     OW31621   4.458   1.192   6.271 -0.1004 -0.0582  0.1671
10241SOL    HW131622   4.399   1.249   6.213  0.5726 -0.5445 -1.0296
10241SOL    HW231623   4.551   1.194   6.235  0.2817 -0.5759  1.1065
10242SOL     OW31624   2.229   4.663   1.233 -0.5431 -0.3058  0.2741
10242SOL    HW131625   2.306   4.703   1.182 -1.2411  0.6165 -0.0773
10242SOL    HW231626   2.219   4.710   1.321  0.5566 -1.7858  1.2612
10243SOL     OW31627   5.698   1.013   5.774 -0.1582  0.4885 -0.3971
10243SOL    HW131628   5.620   1.061   5.814 -1.1585 -1.6914  0.3912
10243SOL    HW231629   5.666   0.930   5.728  1.6241  0.0064 -0.8439
10244SOL     OW31630   1.396   4.314   0.697 -0.3741 -0.0133  0.7212
10244SOL    HW131631   1.349   4.390   0.742 -0.7815  1.1878 -1.6217
10244SOL    HW231632   1.337   4.234   0.696 -0.2323 -0.1883  2.5369
10245SOL     OW31633   5.119   3.925   0.035  0.2925 -0.0724  0.2932
10245SOL    HW131634   5.147   3.887   0.123 -1.5809  0.1368  1.0324
10245SOL    HW231635   5.164   3.875  -0.039 -1.4612 -3.3555  1.2218
10246SOL     OW31636   3.379   4.784   5.560 -0.0493  0.0087  0.1408
10246SOL    HW131637   3.353   4.710   5.621  3.4547  0.5969  2.6132
10246SOL    HW231638   3.452   4.753   5.498  1.2761  1.2180  1.0278
10247SOL     OW31639   5.768   6.609   0.257  0.1518  0.1658  0.5140
10247SOL    HW131640   5.721   6.679   0.311 -0.4953  0.9151 -0.9617
10247SOL    HW231641   5.835   6.562   0.315 -0.2569  1.1717  1.8610
10248SOL     OW31642   0.506   2.810   0.053 -0.0986 -1.2488 -0.5643
10248SOL    HW131643   0.554   2.876  -0.005 -0.9464 -2.3667 -2.6493
10248SOL    HW231644   0.565   2.731   0.070 -0.1239 -1.2746 -0.5949
10249SOL     OW31645   2.753   3.198   6.255 -0.4040  0.2319  0.0041
10249SOL    HW131646   2.712   3.172   6.168 -0.2459  0.8728 -0.2631
10249SOL    HW231647   2.707   3.278   6.292 -0.1258  0.2834  0.2496
10250SOL     OW31648   6.418   6.451   4.386 -0.0203  0.2696 -0.1009
10250SOL    HW131649   6.484   6.523   4.364  0.5294  0.2520  1.4182
10250SOL    HW231650   6.348   6.488   4.447 -0.4664 -0.1632 -0.3449
10251SOL     OW31651   3.871   0.594   2.537 -0.1662 -0.0750 -0.1443
10251SOL    HW131652   3.881   0.494   2.543 -0.8575 -0.5047 -3.6053
10251SOL    HW231653   3.933   0.629   2.467  0.6516  2.1293  1.5894
10252SOL     OW31654   4.610   2.569   3.008  0.3236  0.4145 -0.2475
10252SOL    HW131655   4.670   2.644   2.981  0.5255  0.8587  1.3369
10252SOL    HW231656   4.659   2.482   2.999  1.1617  0.7546  0.8267
10253SOL     OW31657   0.221   2.264   3.201  0.3362  0.0956 -0.9030
10253SOL    HW131658   0.300   2.275   3.261 -0.6081  0.7301  0.2755
10253SOL    HW231659   0.137   2.269   3.255 -0.5118 -1.5626 -1.9756
10254SOL     OW31660   0.300   3.754   2.401 -0.2814 -0.4508 -0.1984
10254SOL    HW131661   0.256   3.694   2.467 -2.9959 -2.3812 -3.4180
10254SOL    HW231662   0.388   3.715   2.374 -1.3912 -2.4273 -1.2243
10255SOL     OW31663   0.288   2.835   3.354 -0.5385  0.1860 -0.1304
10255SOL    HW131664   0.262   2.925   3.321  0.4437 -0.5244 -3.0986
10255SOL    HW231665   0.387   2.831   3.368 -0.8275  0.2452  2.4803
10256SOL     OW31666   4.695   3.914   0.579 -0.1930 -0.3331  0.0042
10256SOL    HW131667   4.766   3.984   0.576 -0.6795  0.3304  2.0247
10256SOL    HW231668   4.606   3.956   0.563 -0.3605 -0.7240 -0.0988
10257SOL     OW31669   4.129   7.020   1.383  0.1868 -0.0466 -0.2578
10257SOL    HW131670   4.197   6.950   1.361  0.8381  0.1229  1.0570
10257SOL    HW231671   4.176   7.105   1.410 -0.5693  0.4907 -0.6002
10258SOL     OW31672   6.001   4.870   3.985 -0.1014  0.4746 -0.4161
10258SOL    HW131673   5.984   4.929   4.063 -1.4210 -0.1031 -0.2349
10258SOL    HW231674   6.083   4.815   4.002 -0.1529  0.6340  0.3793
10259SOL     OW31675   1.579   0.610   2.676 -0.3853  0.5363  0.0625
10259SOL    HW131676   1.563   0.560   2.761 -0.6006 -0.2030 -0.3985
10259SOL    HW231677   1.675   0.601   2.650 -0.1506  1.3941  0.6137
10260SOL     OW31678   4.218   1.199   0.744  0.1122 -0.1774  0.8532
10260SOL    HW131679   4.316   1.208   0.764 -0.1603  0.2967  2.0659
10260SOL    HW231680   4.174   1.289   0.752 -0.4419 -0.4043  0.4048
10261SOL     OW31681   6.105   4.379   6.192  0.7481 -0.3566 -0.1761
10261SOL    HW131682   6.055   4.435   6.126 -0.8528  0.3476  1.5598
10261SOL    HW231683   6.059   4.291   6.203  0.4536 -0.0982  0.6979
10262SOL     OW31684   4.954   6.842   6.220  0.1923 -0.7542 -0.3980
10262SOL    HW131685   5.037   6.865   6.271  1.4258 -1.3469 -2.0382
10262SOL    HW231686   4.879   6.901   6.250  0.9185 -0.8588  1.8168
10263SOL     OW31687   2.785   3.956   1.171 -0.0122 -0.2897  0.0805
10263SOL    HW131688   2.794   3.865   1.130 -0.4423 -0.1474 -0.3387
10263SOL    HW231689   2.761   4.022   1.101 -1.8656 -0.2296  0.7174
10264SOL     OW31690   2.056   5.777   6.077 -0.1079  0.2504 -0.3096
10264SOL    HW131691   2.012   5.850   6.128  0.9268  0.2685  0.5919
10264SOL    HW231692   2.084   5.704   6.140  1.9192  0.6376 -0.6719
10265SOL     OW31693   1.397   4.529   6.448 -0.1743 -0.6531  0.6416
10265SOL    HW131694   1.299   4.525   6.428 -0.1301  2.6726 -0.8156
10265SOL    HW231695   1.422   4.622   6.475  2.9872 -0.6160 -1.7627
10266SOL     OW31696   3.401   2.980   6.457  0.0192  0.1134  0.4080
10266SOL    HW131697   3.318   3.024   6.422 -0.5680 -0.6799  0.7782
10266SOL    HW231698   3.481   3.036   6.433 -0.8014  2.0421  1.9515
10267SOL     OW31699   5.043   5.150   4.656  0.0268 -0.0246 -0.2165
10267SOL    HW131700   5.015   5.055   4.673  0.2042  0.1168  0.9121
10267SOL    HW231701   5.139   5.162   4.682  0.8256 -0.1686 -2.8157
10268SOL     OW31702   1.164   4.315   4.779 -0.2388  0.8915  1.2024
10268SOL    HW131703   1.170   4.410   4.748 -0.7197 -0.1649 -2.6294
10268SOL    HW231704   1.252   4.270   4.764 -0.7774  0.0861  0.3403
10269SOL     OW31705   1.227   5.043   2.886 -0.3281 -0.0180  0.4044
10269SOL    HW131706   1.179   5.047   2.975 -2.6605  1.3040 -0.7941
10269SOL    HW231707   1.197   4.962   2.836 -2.2065  1.2926 -0.7309
10270SOL     OW31708   5.235   5.226   2.523  0.2656  0.1229  0.4275
10270SOL    HW131709   5.183   5.295   2.572 -0.3211  0.9516 -1.3113
10270SOL    HW231710   5.175   5.175   2.461  1.3522  0.6794 -1.1579
10271SOL     OW31711   5.304   3.706   3.481 -0.8431  0.1665  0.7639
10271SOL    HW131712   5.370   3.779   3.462  0.9176 -1.1513  1.5515
10271SOL    HW231713   5.275   3.713   3.576 -0.0395 -0.6162  1.0769
10272SOL     OW31714   1.225   3.258   5.075  0.3435 -0.4032  0.5475
10272SOL    HW131715   1.291   3.329   5.099  0.0943 -0.3489  1.0833
10272SOL    HW231716   1.241   3.178   5.132  1.3349 -1.2053 -0.8026
10273SOL     OW31717   1.803   0.350   2.435  1.0290  0.3408 -0.5669
10273SOL    HW131718   1.775   0.412   2.362 -1.8660 -2.1495 -1.7454
10273SOL    HW231719   1.852   0.272   2.396 -0.5190 -1.0043  0.0741
10274SOL     OW31720   1.594   1.400   6.184  0.6131  0.0452  0.0973
10274SOL    HW131721   1.604   1.301   6.172 -0.8858 -0.0719 -0.3910
10274SOL    HW231722   1.591   1.421   6.281 -1.6089 -0.7166  0.2465
10275SOL     OW31723   6.674   3.012   0.070 -1.1607  0.2675  0.4470
10275SOL    HW131724   6.699   3.026   0.166 -1.7452 -1.5275  0.9260
10275SOL    HW231725   6.632   3.095   0.034 -0.8133  1.0254  1.7091
10276SOL     OW31726   1.982   5.346   3.742  0.3905  0.3992  0.0826
10276SOL    HW131727   1.947   5.318   3.652  1.4433 -0.4976 -0.0663
10276SOL    HW231728   1.906   5.376   3.799 -0.3839  0.2882 -0.8567
10277SOL     OW31729   5.112   2.624   6.645  0.5585 -0.4470 -0.3410
10277SOL    HW131730   5.088   2.687   6.572  0.9871  0.4320  0.2638
10277SOL    HW231731   5.057   2.643   6.726  1.9784  0.4110  0.4654
10278SOL     OW31732   3.287   5.514   0.444  0.0025 -0.0320 -0.0694
10278SOL    HW131733   3.371   5.467   0.417  0.0124 -0.4741  0.6944
10278SOL    HW231734   3.209   5.472   0.398  0.1669  0.2420 -0.6159
10279SOL     OW31735   1.151   1.727   5.321  0.1247  0.4949 -0.0225
10279SOL    HW131736   1.178   1.803   5.262 -2.5906  1.6926  0.1017
10279SOL    HW231737   1.227   1.702   5.380  2.1458  0.8672 -2.3292
10280SOL     OW31738   5.268   4.487   0.898  0.0029  0.4976 -0.0441
10280SOL    HW131739   5.190   4.512   0.955 -1.0595 -0.7652 -0.9014
10280SOL    HW231740   5.337   4.560   0.902 -1.7338  2.2100 -0.2096
10281SOL     OW31741   2.224   6.245   5.459  0.5341 -0.5981  0.0658
10281SOL    HW131742   2.298   6.301   5.421  1.2001 -0.9421  0.7950
10281SOL    HW231743   2.180   6.295   5.534 -0.4055 -0.1394 -0.7863
10282SOL     OW31744   5.810   5.723   0.861  0.3322 -0.1357  0.6355
10282SOL    HW131745   5.799   5.646   0.924 -1.6510 -1.2207 -0.9436
10282SOL    HW231746   5.775   5.698   0.771 -0.4492  2.6293  0.0837
10283SOL     OW31747   5.292   3.621   6.268  0.7403 -0.1934 -0.1335
10283SOL    HW131748   5.376   3.675   6.269 -0.0054  1.2079 -3.0227
10283SOL    HW231749   5.307   3.537   6.215 -0.1347  1.1104 -2.6121
10284SOL     OW31750   6.485   5.870   3.691 -0.4483  0.8427 -0.7868
10284SOL    HW131751   6.581   5.846   3.680 -0.9901 -0.8652 -2.0904
10284SOL    HW231752   6.428   5.810   3.635 -2.2463  2.2548 -0.5734
10285SOL     OW31753   3.056   3.034   0.037 -0.0088 -0.1179  0.0971
10285SOL    HW131754   3.091   3.064   0.126 -2.0239 -1.5262  1.4675
10285SOL    HW231755   2.961   3.065   0.026  0.0413 -0.3945 -1.3623
10286SOL     OW31756   3.320   2.042   5.488 -0.4722 -0.2671 -0.2374
10286SOL    HW131757   3.326   2.085   5.398 -0.3395 -1.0695 -0.6259
10286SOL    HW231758   3.402   1.987   5.504 -0.4902 -0.1174  0.3821
10287SOL     OW31759   2.109   3.245   6.795 -0.4927 -0.1927 -0.1300
10287SOL    HW131760   2.202   3.282   6.804 -0.2535 -0.9094  0.5550
10287SOL    HW231761   2.043   3.309   6.834 -0.3290  0.4837 -0.9512
10288SOL     OW31762   2.069   1.925   6.745  0.1467  0.4503  0.3106
10288SOL    HW131763   2.128   1.862   6.795  1.0368 -0.1500 -1.4345
10288SOL    HW231764   1.973   1.903   6.764  0.4425  0.2566  1.7178
10289SOL     OW31765   4.582   4.467   4.064  0.5675  0.0565 -0.0557
10289SOL    HW131766   4.678   4.437   4.068  0.7431  0.5128 -0.7335
10289SOL    HW231767   4.549   4.487   4.156  1.0058 -0.4757  0.2205
10290SOL     OW31768   2.858   2.327   1.694 -0.6975 -0.2711  0.0770
10290SOL    HW131769   2.881   2.378   1.777 -1.3240 -0.0473  0.1210
10290SOL    HW231770   2.801   2.248   1.717 -1.9200  0.4891 -0.2511
10291SOL     OW31771   4.676   3.138   0.555 -0.3097  1.0683  0.2210
10291SOL    HW131772   4.736   3.217   0.564  0.8263  0.2700 -0.0710
10291SOL    HW231773   4.589   3.166   0.517 -0.4901  2.4161  1.5199
10292SOL     OW31774   0.593   6.462   5.137  0.2316  0.0551  0.1032
10292SOL    HW131775   0.509   6.516   5.147 -0.2940 -0.6597 -0.4172
10292SOL    HW231776   0.662   6.517   5.090 -0.3950  0.1849 -0.6871
10293SOL     OW31777   0.148   1.730   5.029 -0.5098  0.4293 -0.2394
10293SOL    HW131778   0.124   1.653   4.970  2.3942 -0.4485 -0.4387
10293SOL    HW231779   0.180   1.806   4.973 -1.1113  0.9135  0.0675
10294SOL     OW31780   4.074   0.551   3.630 -0.3249 -0.1916  0.6090
10294SOL    HW131781   4.167   0.588   3.619 -1.0814  1.4416 -0.8888
10294SOL    HW231782   4.012   0.625   3.656 -1.2615 -1.2211  1.3796
10295SOL     OW31783   6.584   0.817   6.597 -0.1910 -0.1587 -0.4425
10295SOL    HW131784   6.601   0.732   6.647 -1.7896  0.2800  0.9435
10295SOL    HW231785   6.622   0.894   6.649 -2.9298  0.4362  0.8546
10296SOL     OW31786   2.555   5.966   2.158  0.3135  0.2192 -0.8864
10296SOL    HW131787   2.643   5.922   2.174 -1.2179 -3.0210 -0.5542
10296SOL    HW231788   2.536   6.031   2.231  2.0351  0.3526 -0.5253
10297SOL     OW31789   3.159   1.435   5.448  0.5048  0.0040  1.0533
10297SOL    HW131790   3.080   1.463   5.394  0.1803 -1.0109  0.9800
10297SOL    HW231791   3.228   1.507   5.447  0.0316  0.4520  0.2269
10298SOL     OW31792   1.711   6.514   0.835 -0.1226  0.0949 -0.1799
10298SOL    HW131793   1.639   6.452   0.803  0.2918 -0.2979 -0.3691
10298SOL    HW231794   1.728   6.498   0.932 -1.0421  0.9495  0.1382
10299SOL     OW31795   2.285   1.748   5.754 -0.2380 -0.8529  0.1783
10299SOL    HW131796   2.326   1.826   5.707 -2.6727  0.8127  0.6318
10299SOL    HW231797   2.290   1.761   5.853  0.7933 -2.1115  0.3145
10300SOL     OW31798   3.813   1.251   6.365  0.1287 -0.4359  0.3761
10300SOL    HW131799   3.877   1.327   6.377  0.4807 -0.7931  0.8117
10300SOL    HW231800   3.834   1.203   6.279 -1.5179  1.2931 -1.0622
10301SOL     OW31801   6.527   1.939   2.535 -0.5357 -0.0115  0.3387
10301SOL    HW131802   6.584   2.020   2.548 -0.6422 -0.1874  2.2328
10301SOL    HW231803   6.441   1.966   2.491 -0.0493  0.6845 -0.2040
10302SOL     OW31804   0.037   6.194   5.298 -0.5588  0.5616 -0.5404
10302SOL    HW131805   0.049   6.229   5.206 -0.7414  0.0028 -0.7861
10302SOL    HW231806   0.101   6.119   5.314 -1.8051 -0.6238 -0.9064
10303SOL     OW31807   3.806   3.478   6.351  0.2515  0.2332 -0.4755
10303SOL    HW131808   3.843   3.411   6.286  1.1558 -0.0502  0.3220
10303SOL    HW231809   3.844   3.568   6.332  0.8760  0.0606 -0.0476
10304SOL     OW31810   0.653   0.320   3.705 -0.0309  0.0442 -0.0754
10304SOL    HW131811   0.572   0.378   3.714  0.6918  1.0118  0.5092
10304SOL    HW231812   0.735   0.376   3.721  0.8442 -0.5753 -2.1288
10305SOL     OW31813   4.374   1.365   0.398 -0.0121  0.1749  0.4123
10305SOL    HW131814   4.459   1.323   0.430  0.0124  0.1306  0.2895
10305SOL    HW231815   4.309   1.294   0.372  0.5546  0.1991 -1.1866
10306SOL     OW31816   0.483   2.761   6.769  0.0917  0.6865  0.0489
10306SOL    HW131817   0.494   2.860   6.775  0.0831  0.6778  0.1990
10306SOL    HW231818   0.476   2.734   6.672 -0.6217  0.9070  0.0369
10307SOL     OW31819   5.478   5.331   0.129 -0.2119  0.2633  0.1559
10307SOL    HW131820   5.474   5.376   0.219 -0.0413 -0.3496  0.4772
10307SOL    HW231821   5.573   5.316   0.104 -0.2588 -1.5122  0.8818
10308SOL     OW31822   5.932   6.112   1.324  0.2094  0.6510  0.0750
10308SOL    HW131823   5.838   6.082   1.340  0.0016  1.2659  0.0026
10308SOL    HW231824   5.984   6.037   1.282 -0.9215  1.0931 -2.3062
10309SOL     OW31825   6.703   1.702   1.767 -0.0271 -0.0936 -0.0681
10309SOL    HW131826   6.698   1.638   1.843  1.3791 -0.7394 -0.4754
10309SOL    HW231827   6.739   1.655   1.686  0.6827  1.1120 -0.4814
10310SOL     OW31828   2.783   4.868   3.860  0.2205  0.2675  0.2358
10310SOL    HW131829   2.762   4.819   3.944 -0.4480 -0.1693 -0.1791
10310SOL    HW231830   2.707   4.930   3.837 -0.7533 -1.4104 -1.3348
10311SOL     OW31831   3.979   6.754   6.625  0.0221  0.5165 -0.1821
10311SOL    HW131832   4.043   6.715   6.559 -2.1079  0.2117 -2.2113
10311SOL    HW231833   4.026   6.770   6.712  2.1725 -2.1316 -0.7226
10312SOL     OW31834   3.797   1.254   2.904  0.1973  0.4696 -0.0277
10312SOL    HW131835   3.812   1.334   2.847  2.0271  0.5266  0.4708
10312SOL    HW231836   3.764   1.178   2.847 -3.7153  2.0382 -0.2075
10313SOL     OW31837   0.452   0.036   5.724 -0.2196  0.2661  0.2046
10313SOL    HW131838   0.497   0.068   5.640  1.2129  0.7557  1.1158
10313SOL    HW231839   0.421  -0.058   5.712  1.0223 -0.0743 -0.5006
10314SOL     OW31840   5.178   0.056   0.792 -0.5610 -0.3452  0.1092
10314SOL    HW131841   5.119  -0.004   0.846  1.1067  0.1140  2.5751
10314SOL    HW231842   5.130   0.142   0.773 -0.6681  0.1105  2.2514
10315SOL     OW31843   0.613   4.599   5.537  0.1841 -0.0011  0.9885
10315SOL    HW131844   0.568   4.678   5.578 -0.5407  0.6570 -0.9599
10315SOL    HW231845   0.553   4.559   5.468  0.7861 -1.9118  1.4985
10316SOL     OW31846   1.215   2.189   5.994 -0.0322 -0.1033 -0.2502
10316SOL    HW131847   1.171   2.263   5.944  1.8097  0.2563 -1.4297
10316SOL    HW231848   1.311   2.182   5.966  1.0242 -0.1232  2.9870
10317SOL     OW31849   2.802   6.528   6.081 -0.7139  1.0810 -0.4369
10317SOL    HW131850   2.882   6.529   6.141 -0.7003  0.1532 -0.4259
10317SOL    HW231851   2.830   6.540   5.986 -0.3668 -0.9204 -0.6205
10318SOL     OW31852   5.496   0.109   5.074 -0.2743 -0.2828 -0.9213
10318SOL    HW131853   5.453   0.076   4.990  1.5153 -0.2630 -1.8998
10318SOL    HW231854   5.500   0.209   5.072 -0.0674 -0.2902 -0.8989
10319SOL     OW31855   2.573   2.015   2.374  0.1147 -0.3824 -0.3493
10319SOL    HW131856   2.671   2.003   2.355  0.2506 -2.5308  1.4047
10319SOL    HW231857   2.562   2.070   2.457 -0.2001 -0.0237 -0.6224
10320SOL     OW31858   6.142   3.159   1.303  0.5249 -0.0172 -0.0752
10320SOL    HW131859   6.129   3.070   1.258  1.6347 -0.3626  0.2357
10320SOL    HW231860   6.186   3.222   1.239 -1.6949  0.8405 -0.8211
10321SOL     OW31861   5.850   3.891   2.842 -0.4983  0.6628 -0.3912
10321SOL    HW131862   5.828   3.805   2.796  0.1919  0.3278 -0.0996
10321SOL    HW231863   5.810   3.892   2.933  0.3013  0.2390 -0.0286
10322SOL     OW31864   1.529   3.935   3.429 -0.0075  0.1549 -1.0219
10322SOL    HW131865   1.573   3.897   3.347  0.9570 -1.3607  0.1348
10322SOL    HW231866   1.587   4.006   3.467  0.8219 -0.8749 -0.2870
10323SOL     OW31867   6.683   5.148   2.268 -0.0818 -0.3150  0.2612
10323SOL    HW131868   6.645   5.170   2.357 -0.7892 -1.3976  0.2591
10323SOL    HW231869   6.609   5.145   2.200  0.1175 -1.5715  0.0720
10324SOL     OW31870   4.688   3.381   1.262 -0.5508 -0.6131 -0.3706
10324SOL    HW131871   4.748   3.309   1.226  0.4661 -0.7370  1.4559
10324SOL    HW231872   4.617   3.340   1.319 -0.2738 -0.2168  0.2685
10325SOL     OW31873   0.386   3.475   5.694 -0.1560 -0.2780  0.2977
10325SOL    HW131874   0.467   3.443   5.644 -1.9701 -2.4737 -1.4121
10325SOL    HW231875   0.354   3.404   5.755 -2.0463 -0.3573 -0.7052
10326SOL     OW31876   3.211   0.938   6.277  0.0102 -0.3913 -0.2343
10326SOL    HW131877   3.281   0.968   6.213  1.3425  1.9810  2.1232
10326SOL    HW231878   3.126   0.988   6.260  0.7628  1.2492  0.5976
10327SOL     OW31879   6.760   1.966   1.760  0.2257 -0.6962  0.2256
10327SOL    HW131880   6.762   2.014   1.672 -1.7777 -1.2152 -0.1413
10327SOL    HW231881   6.728   1.872   1.747  0.3657 -0.9339  1.4445
10328SOL     OW31882   6.371   5.031   6.248 -0.4450  0.1701  0.1385
10328SOL    HW131883   6.444   5.096   6.270 -0.3866  0.1811 -0.0800
10328SOL    HW231884   6.360   4.966   6.323 -0.6211  0.5357  0.4316
10329SOL     OW31885   5.606   4.167   3.234 -0.4744 -0.0169 -0.8770
10329SOL    HW131886   5.537   4.150   3.304 -0.5279 -0.9370 -1.1394
10329SOL    HW231887   5.566   4.220   3.159 -0.8230 -0.3160 -0.9016
10330SOL     OW31888   0.882   6.426   3.600 -0.4040  0.0965  0.0169
10330SOL    HW131889   0.858   6.523   3.595  1.4226  0.6409  1.2329
10330SOL    HW231890   0.947   6.404   3.528 -0.2418 -0.0596  0.2118
10331SOL     OW31891   5.388   6.324   6.377  0.4457  1.1511  0.2410
10331SOL    HW131892   5.458   6.383   6.416  0.4808  0.8809  0.5923
10331SOL    HW231893   5.336   6.374   6.308  1.6383  1.0708 -0.7517
10332SOL     OW31894   6.766   3.999   5.610 -0.1096 -0.0732  0.0189
10332SOL    HW131895   6.807   3.917   5.650 -2.1817 -0.6602  1.0998
10332SOL    HW231896   6.729   3.976   5.520  0.0719 -0.0894 -0.0523
10333SOL     OW31897   3.149   3.616   0.117 -0.4562  0.2538 -0.4050
10333SOL    HW131898   3.218   3.586   0.182  1.1856  2.2824 -1.1015
10333SOL    HW231899   3.148   3.554   0.039  0.5033  0.1185 -0.3227
10334SOL     OW31900   4.699   4.716   3.728  0.7375 -0.0588 -0.0640
10334SOL    HW131901   4.660   4.796   3.683 -0.3834 -0.1329  0.7416
10334SOL    HW231902   4.688   4.635   3.669  1.9268  0.3544 -0.9059
10335SOL     OW31903   2.862   3.963   6.256 -0.1044 -0.2465  0.3661
10335SOL    HW131904   2.891   4.058   6.243 -1.6432  0.0176 -1.5973
10335SOL    HW231905   2.796   3.938   6.186 -0.0017 -2.7007  1.0324
10336SOL     OW31906   0.023   4.312   4.936  0.3181  0.4249  0.1787
10336SOL    HW131907   0.104   4.254   4.939  1.5617  2.0418 -0.7565
10336SOL    HW231908  -0.043   4.275   4.870  0.7346 -0.3392  0.1831
10337SOL     OW31909   5.359   3.822   4.298  0.3521 -0.6042 -0.3839
10337SOL    HW131910   5.425   3.891   4.326 -0.3729  1.2374 -2.8483
10337SOL    HW231911   5.269   3.865   4.284 -0.7647 -2.5545  0.3664
10338SOL     OW31912   5.507   5.509   3.992 -0.4687 -0.2979  0.3490
10338SOL    HW131913   5.490   5.415   4.023 -0.1032 -0.2312  0.7519
10338SOL    HW231914   5.453   5.573   4.048  0.1301 -0.1830  0.7967
10339SOL     OW31915   5.727   5.419   2.773  0.2762  0.3747 -0.0877
10339SOL    HW131916   5.792   5.358   2.729 -0.0719  1.1123 -1.7140
10339SOL    HW231917   5.649   5.434   2.712 -0.4684  1.0749  0.9968
10340SOL     OW31918   7.004   3.807   5.590  0.2324 -0.1649  0.1331
10340SOL    HW131919   7.044   3.867   5.521 -0.7438  0.5706  0.1704
10340SOL    HW231920   7.036   3.714   5.577  2.1369  0.4272  0.3455
10341SOL     OW31921   0.963   3.475   3.416  0.2412 -0.2031 -0.0501
10341SOL    HW131922   1.041   3.520   3.373 -0.0882  1.5804  1.1365
10341SOL    HW231923   0.960   3.498   3.513 -1.3669 -0.8190  0.0805
10342SOL     OW31924   3.648   0.142   2.190  0.0308 -0.3395 -0.1570
10342SOL    HW131925   3.703   0.218   2.224 -0.5409 -0.0395  0.1044
10342SOL    HW231926   3.705   0.083   2.133  0.7868 -0.3750  0.6087
10343SOL     OW31927   4.507   1.502   3.643 -0.4752  0.1814  0.0122
10343SOL    HW131928   4.514   1.467   3.736  3.5703  0.2727 -0.0906
10343SOL    HW231929   4.505   1.602   3.645  2.2435  0.3177  0.0938
10344SOL     OW31930   4.651   2.486   1.718  0.5482 -0.4086 -0.0845
10344SOL    HW131931   4.664   2.488   1.619  1.0390  3.0439 -0.0696
10344SOL    HW231932   4.554   2.498   1.739  0.7633  2.1097 -0.2365
10345SOL     OW31933   0.485   0.096   4.402  0.5737  0.1198  0.1260
10345SOL    HW131934   0.477   0.114   4.304  0.3991  0.1351  0.1432
10345SOL    HW231935   0.446   0.006   4.423  3.0560 -1.1311 -0.2458
10346SOL     OW31936   3.598   2.737   6.773 -0.2782 -0.5679  0.2159
10346SOL    HW131937   3.582   2.730   6.872  1.0495 -0.2106  0.4645
10346SOL    HW231938   3.610   2.833   6.748  0.5637 -0.7472 -0.0907
10347SOL     OW31939   0.751   0.771   4.018  0.4746  0.1056 -0.2007
10347SOL    HW131940   0.721   0.843   4.080  2.1735 -0.0927  0.9040
10347SOL    HW231941   0.723   0.682   4.054 -0.6720  0.1080 -1.0123
10348SOL     OW31942   3.777   3.780   6.576  0.0913 -0.1173  0.2025
10348SOL    HW131943   3.712   3.841   6.531  0.5047  0.7139  0.7098
10348SOL    HW231944   3.751   3.685   6.560 -1.1383  0.2024  0.2415
10349SOL     OW31945   0.420   3.356   4.986  0.3350 -0.8633 -0.3126
10349SOL    HW131946   0.456   3.404   5.065 -0.6854 -1.0449  0.2853
10349SOL    HW231947   0.467   3.387   4.903  1.5009 -0.7714  0.3712
10350SOL     OW31948   0.724   3.436   3.035 -0.0707  0.5884 -0.5301
10350SOL    HW131949   0.802   3.487   2.999  0.9730 -1.9975 -2.2914
10350SOL    HW231950   0.700   3.363   2.971 -1.4197 -1.1547  1.7910
10351SOL     OW31951   5.994   0.591   3.428 -0.1479 -0.5929  0.6893
10351SOL    HW131952   6.068   0.568   3.491  0.3879  1.7092  0.9970
10351SOL    HW231953   6.032   0.618   3.339 -0.5522  0.7930  0.9096
10352SOL     OW31954   6.297   4.359   4.861  0.2430  0.3468 -0.2001
10352SOL    HW131955   6.323   4.273   4.817  0.4404 -0.0225  0.6247
10352SOL    HW231956   6.375   4.421   4.862  0.7717 -0.3161  1.2115
10353SOL     OW31957   2.941   5.481   2.698  0.2524 -0.2590  0.0166
10353SOL    HW131958   2.883   5.496   2.777 -0.6308 -2.3659 -0.1666
10353SOL    HW231959   3.036   5.506   2.720 -0.2346  0.6273  1.1938
10354SOL     OW31960   5.245   3.342   4.273  0.2785  0.3625  0.4710
10354SOL    HW131961   5.297   3.271   4.227 -1.5365 -0.6184 -0.1440
10354SOL    HW231962   5.205   3.404   4.206 -0.2432  0.4531  0.8535
10355SOL     OW31963   4.928   2.419   4.481 -0.4798 -0.5327 -0.1654
10355SOL    HW131964   4.950   2.515   4.494  2.1895 -0.9628 -0.9368
10355SOL    HW231965   4.919   2.399   4.383 -0.0408 -1.2435 -0.0711
10356SOL     OW31966   4.802   1.279   3.366 -0.1076 -0.4516  0.0968
10356SOL    HW131967   4.753   1.225   3.436  1.3314 -0.4256  1.1828
10356SOL    HW231968   4.759   1.369   3.357 -0.9434 -0.8311  0.1846
10357SOL     OW31969   3.754   3.921   1.962 -0.5706 -0.0395 -0.1370
10357SOL    HW131970   3.743   4.020   1.958  2.4016  0.3232 -1.6928
10357SOL    HW231971   3.770   3.893   2.056  0.1817  1.1905  0.1277
10358SOL     OW31972   0.546   3.713   2.297 -0.2709  0.0615 -0.0299
10358SOL    HW131973   0.553   3.662   2.211 -0.6427  0.8036 -0.5081
10358SOL    HW231974   0.638   3.724   2.335 -0.1129 -0.3681 -0.2701
10359SOL     OW31975   0.752   1.434   0.472 -0.7129  0.2404 -0.2222
10359SOL    HW131976   0.691   1.372   0.520 -1.5129  0.5594 -0.7980
10359SOL    HW231977   0.718   1.528   0.481 -0.2268  0.4388 -0.4247
10360SOL     OW31978   0.037   5.455   2.589 -0.0769 -0.2501  0.1449
10360SOL    HW131979   0.128   5.438   2.553  0.0011  1.7148 -0.7275
10360SOL    HW231980  -0.021   5.375   2.574  0.7610 -0.5410 -1.8217
10361SOL     OW31981   5.976   1.421   5.845 -0.3865 -0.5766  0.6419
10361SOL    HW131982   6.062   1.423   5.794  0.7223  1.0667  2.4348
10361SOL    HW231983   5.960   1.329   5.880  0.1538 -1.1077 -0.4640
10362SOL     OW31984   1.566   0.926   4.692  0.3050  0.2946 -0.4979
10362SOL    HW131985   1.589   1.005   4.749  2.4281 -0.6261  0.0384
10362SOL    HW231986   1.599   0.842   4.736  0.9891 -0.5685 -2.5281
10363SOL     OW31987   5.715   2.713   0.802 -0.5946 -0.0448 -0.6133
10363SOL    HW131988   5.675   2.704   0.893  0.3374  1.5178 -0.0173
10363SOL    HW231989   5.780   2.639   0.787 -0.3807 -0.0352  0.2012
10364SOL     OW31990   5.671   5.361   5.090 -0.7469 -0.0786  0.3731
10364SOL    HW131991   5.744   5.343   5.156 -1.8310 -0.0421  1.5939
10364SOL    HW231992   5.615   5.279   5.079 -0.4923 -0.1340 -0.6330
10365SOL     OW31993   6.360   6.798   6.649  0.4339 -0.2832  0.9337
10365SOL    HW131994   6.428   6.768   6.716  2.5181  0.0970 -0.8935
10365SOL    HW231995   6.396   6.875   6.597 -0.2766 -1.7139 -1.8758
10366SOL     OW31996   6.693   5.280   3.974  0.0671 -0.4360  0.4932
10366SOL    HW131997   6.707   5.278   3.875 -1.6956  1.1770  0.1607
10366SOL    HW231998   6.598   5.305   3.994  0.5230 -0.2040  2.6152
10367SOL     OW31999   2.607   6.413   5.528 -0.4199  0.2154 -0.3048
10367SOL    HW132000   2.649   6.501   5.551 -0.3232 -0.2109  1.3275
10367SOL    HW232001   2.675   6.340   5.535 -0.7050 -0.1024 -0.7518
10368SOL     OW32002   3.122   1.278   1.644 -0.2864  0.2097 -0.4572
10368SOL    HW132003   3.219   1.256   1.652 -0.5762 -0.5748  1.3165
10368SOL    HW232004   3.108   1.376   1.657 -0.0078 -0.0866  2.8138
10369SOL     OW32005   5.721   1.323   0.348  0.2353  0.2693  0.1899
10369SOL    HW132006   5.755   1.253   0.410  1.6230  0.0510 -0.7645
10369SOL    HW232007   5.674   1.280   0.270  0.7559  0.4033 -0.2036
10370SOL     OW32008   5.697   0.794   4.957 -0.4490 -0.3556  0.0601
10370SOL    HW132009   5.734   0.778   4.866  0.1227  0.7339  0.0884
10370SOL    HW232010   5.741   0.734   5.023 -1.1360 -1.4184 -0.4261
10371SOL     OW32011   6.326   5.290   1.695 -0.0811  0.0088 -0.0330
10371SOL    HW132012   6.272   5.355   1.749 -0.8169  0.2069 -0.9842
10371SOL    HW232013   6.404   5.259   1.749 -0.5066  0.5988  0.9516
10372SOL     OW32014   4.048   3.426   2.050  0.4011 -0.1644  0.2870
10372SOL    HW132015   4.001   3.513   2.058  2.7115  1.1853  0.1026
10372SOL    HW232016   4.012   3.374   1.973  0.0486  1.3333 -0.5723
10373SOL     OW32017   5.210   2.997   4.235 -0.3685 -0.0699 -0.0378
10373SOL    HW132018   5.143   3.060   4.275  0.3579  1.1148 -0.6388
10373SOL    HW232019   5.283   2.979   4.301 -0.8435 -0.7380  0.3276
10374SOL     OW32020   2.470   3.264   0.789 -0.3426 -0.5885 -0.0142
10374SOL    HW132021   2.416   3.307   0.861  1.0930  0.5983  0.3839
10374SOL    HW232022   2.511   3.180   0.824  0.4225  0.0272  0.6133
10375SOL     OW32023   4.707   6.352   3.895 -0.0453  0.1552  0.3463
10375SOL    HW132024   4.643   6.428   3.898 -1.9290 -1.3282 -0.3675
10375SOL    HW232025   4.725   6.321   3.989 -0.4359  0.5401  0.5541
10376SOL     OW32026   0.911   5.623   3.304 -0.0846  0.4026  0.3248
10376SOL    HW132027   0.899   5.721   3.289 -0.7163  0.1887 -0.6477
10376SOL    HW232028   0.993   5.608   3.361  0.6929  1.4270 -0.4775
10377SOL     OW32029   2.331   2.109   5.336  0.6903  0.2987  0.0811
10377SOL    HW132030   2.416   2.099   5.389  1.1517 -0.7812 -0.8275
10377SOL    HW232031   2.307   2.206   5.330  3.1802  0.8923 -1.6660
10378SOL     OW32032   4.440   4.880   3.683  0.7046  0.5811  0.3169
10378SOL    HW132033   4.344   4.908   3.690  0.1197 -1.2714  0.4375
10378SOL    HW232034   4.482   4.883   3.774  0.1180 -0.5994  0.6495
10379SOL     OW32035   5.163   3.138   4.791 -0.3749  0.3931 -0.3954
10379SOL    HW132036   5.064   3.155   4.798 -0.4117  0.8432 -1.6707
10379SOL    HW232037   5.178   3.052   4.742 -0.1306 -0.5902  1.3399
10380SOL     OW32038   3.543   4.627   0.256  0.2460 -0.2394  0.0323
10380SOL    HW132039   3.464   4.689   0.252 -0.5057 -0.9689  2.2942
10380SOL    HW232040   3.533   4.556   0.187  0.1683  1.0298 -1.3179
10381SOL     OW32041   4.144   0.589   0.763  0.1344 -0.3241  0.7423
10381SOL    HW132042   4.174   0.604   0.669 -0.8377 -0.7069  0.3601
10381SOL    HW232043   4.052   0.626   0.775  0.7194  0.8358  1.8953
10382SOL     OW32044   0.749   6.867   1.621  0.2743 -0.4943  0.0560
10382SOL    HW132045   0.732   6.955   1.577 -1.8706 -1.0157 -0.3035
10382SOL    HW232046   0.844   6.861   1.650  1.2766  0.6854 -2.7047
10383SOL     OW32047   3.301   3.424   4.222 -0.2079  0.2056  0.0646
10383SOL    HW132048   3.365   3.379   4.160 -2.4699 -1.7227 -1.0063
10383SOL    HW232049   3.296   3.521   4.199  1.5604  0.2048 -0.4675
10384SOL     OW32050   5.497   0.226   5.613 -0.5444 -0.4667  0.0520
10384SOL    HW132051   5.520   0.322   5.627 -0.4276 -0.8414  2.9874
10384SOL    HW232052   5.579   0.176   5.585 -0.5833  0.2240 -1.3762
10385SOL     OW32053   6.432   4.161   5.714 -0.3049 -0.6868  0.2183
10385SOL    HW132054   6.449   4.071   5.755  0.1166  0.7597  3.5342
10385SOL    HW232055   6.355   4.205   5.760  0.7377  1.4331  0.0513
10386SOL     OW32056   5.003   0.604   2.641  0.3408  0.3693 -0.0454
10386SOL    HW132057   5.040   0.696   2.634  2.2623 -0.3161  0.4355
10386SOL    HW232058   5.073   0.538   2.614  0.2299 -1.1274  2.9445
10387SOL     OW32059   6.788   0.134   3.192  0.2521  0.7929  0.5323
10387SOL    HW132060   6.834   0.166   3.275 -1.0659  1.9746  0.8452
10387SOL    HW232061   6.836   0.054   3.156  1.6873  1.1184  1.6259
10388SOL     OW32062   6.105   5.933   2.592 -0.3212  0.0541  0.4254
10388SOL    HW132063   6.024   5.992   2.585  0.1153  0.6811  0.6201
10388SOL    HW232064   6.097   5.858   2.526 -0.5018  0.7903 -0.4050
10389SOL     OW32065   6.742   4.936   3.376  0.0345  0.2667 -0.1688
10389SOL    HW132066   6.765   4.880   3.456  0.0629  1.1610  0.4618
10389SOL    HW232067   6.723   4.876   3.298 -1.8855 -0.7157  0.9867
10390SOL     OW32068   6.750   5.922   2.744  0.4128 -0.9703 -0.3099
10390SOL    HW132069   6.719   5.883   2.830 -1.5562 -0.7211 -0.8726
10390SOL    HW232070   6.815   5.996   2.762 -2.6618  1.5905  1.2496
10391SOL     OW32071   1.483   6.511   1.920 -0.1094 -0.0676  0.3565
10391SOL    HW132072   1.476   6.520   1.821 -0.0455  2.7862  0.5308
10391SOL    HW232073   1.402   6.550   1.963  0.6799  0.3797  1.4817
10392SOL     OW32074   2.275   5.738   5.887  0.2377 -0.4464  0.0176
10392SOL    HW132075   2.211   5.782   5.951  1.6826  2.2370 -0.2447
10392SOL    HW232076   2.280   5.792   5.803 -1.5647 -3.8493 -2.5337
10393SOL     OW32077   0.550   0.801   1.059 -0.0607 -0.4981 -0.2659
10393SOL    HW132078   0.554   0.703   1.081  1.4898 -0.3295  0.3287
10393SOL    HW232079   0.487   0.846   1.122 -0.8331 -1.1137 -0.5812
10394SOL     OW32080   5.934   6.967   1.828 -0.4747  0.0823  0.1152
10394SOL    HW132081   5.958   7.012   1.913 -0.7628  0.6719 -0.1119
10394SOL    HW232082   5.884   7.030   1.769  1.2452  0.2445 -1.2300
10395SOL     OW32083   0.349   2.805   6.320 -0.2769 -0.6366  0.4643
10395SOL    HW132084   0.343   2.755   6.233  0.6745 -2.5492  1.4332
10395SOL    HW232085   0.264   2.855   6.336  0.0192  0.9061 -2.1934
10396SOL     OW32086   0.865   5.530   6.020  0.5139 -0.0660 -0.4887
10396SOL    HW132087   0.798   5.511   6.092  0.4619 -0.0024 -0.5200
10396SOL    HW232088   0.882   5.628   6.017  2.2165 -0.2615  0.9707
10397SOL     OW32089   6.018   0.984   6.096 -0.3130 -0.1976  0.2683
10397SOL    HW132090   5.958   0.958   6.171 -0.4243 -1.0923 -0.1189
10397SOL    HW232091   6.100   1.028   6.132 -0.3164 -0.7196  0.9184
10398SOL     OW32092   6.883   0.575   2.226 -0.0048  0.5068 -0.4416
10398SOL    HW132093   6.788   0.548   2.244  0.6608 -2.8325 -1.2047
10398SOL    HW232094   6.922   0.514   2.157  3.5960 -0.2873  2.0082
10399SOL     OW32095   2.487   1.135   3.684 -0.5935  0.1728 -0.1113
10399SOL    HW132096   2.533   1.212   3.641  2.1732 -2.3135 -1.9226
10399SOL    HW232097   2.397   1.122   3.642 -0.1140  0.9861 -1.4312
10400SOL     OW32098   3.136   6.916   2.370 -0.2438  0.2149 -0.3376
10400SOL    HW132099   3.170   6.895   2.279 -0.2605  0.6972 -0.4569
10400SOL    HW232100   3.196   6.875   2.439 -0.7835 -1.0116 -0.5591
10401SOL     OW32101   1.115   5.451   3.441 -0.2780 -0.1433 -0.2204
10401SOL    HW132102   1.027   5.448   3.490 -0.3125  0.3019 -0.2515
10401SOL    HW232103   1.162   5.536   3.463 -1.0933  0.9185 -2.3229
10402SOL     OW32104   6.043   2.802   6.516 -0.2836 -0.2871 -0.8408
10402SOL    HW132105   6.096   2.785   6.599 -1.8839  2.0963  0.8262
10402SOL    HW232106   5.986   2.723   6.496 -1.4866 -0.1717  1.6957
10403SOL     OW32107   5.873   5.051   3.050 -0.3106  0.2704 -0.3025
10403SOL    HW132108   5.892   5.000   3.135 -0.3686 -0.5267 -0.7631
10403SOL    HW232109   5.952   5.109   3.028 -0.7742  1.4351  0.9512
10404SOL     OW32110   5.251   5.478   1.900 -0.3057  0.4205  0.1818
10404SOL    HW132111   5.308   5.550   1.861 -0.3361  0.2109 -0.2680
10404SOL    HW232112   5.295   5.440   1.981  0.5204 -0.1660 -0.5144
10405SOL     OW32113   5.677   3.980   6.440  0.7099  0.1545  0.3869
10405SOL    HW132114   5.719   4.023   6.520  0.9497 -1.3544  1.0959
10405SOL    HW232115   5.631   4.051   6.385  2.6320  1.5872  0.5182
10406SOL     OW32116   1.900   1.056   2.577 -0.3353 -0.0899 -0.1473
10406SOL    HW132117   1.819   1.022   2.529  0.3829 -1.2738 -0.5712
10406SOL    HW232118   1.979   1.052   2.516  0.6129 -1.6475  1.1038
10407SOL     OW32119   1.204   0.370   5.240 -0.1857  0.3617 -0.2775
10407SOL    HW132120   1.162   0.279   5.242  1.0715 -0.2391  0.2500
10407SOL    HW232121   1.191   0.411   5.150 -2.1963  0.3782 -0.0284
10408SOL     OW32122   6.671   5.669   6.410  0.3649  0.1069  0.2257
10408SOL    HW132123   6.680   5.620   6.496  1.2784 -0.6508 -0.2904
10408SOL    HW232124   6.643   5.606   6.338 -2.3010  1.0826  0.3167
10409SOL     OW32125   5.386   0.943   7.003  0.2800 -0.6550 -0.2664
10409SOL    HW132126   5.448   0.865   6.991  2.5948  0.9314  0.6157
10409SOL    HW232127   5.418   1.000   7.078 -1.7925  0.7695 -0.3805
10410SOL     OW32128   5.645   5.363   6.843 -0.3336  0.5343 -0.1304
10410SOL    HW132129   5.738   5.327   6.841 -0.8006 -1.3890  3.6230
10410SOL    HW232130   5.583   5.297   6.800 -0.4506 -0.5453  1.5762
10411SOL     OW32131   3.947   3.120   3.776 -0.4100 -0.4276  0.4564
10411SOL    HW132132   3.979   3.213   3.794  3.2209 -1.5148  0.4747
10411SOL    HW232133   3.953   3.066   3.859  0.4146 -1.3742 -0.1944
10412SOL     OW32134   4.602   3.419   6.684 -0.7432  0.0658 -0.5372
10412SOL    HW132135   4.666   3.411   6.607 -0.6157 -1.4450 -0.3072
10412SOL    HW232136   4.596   3.331   6.731 -0.4537  1.0595  1.4760
10413SOL     OW32137   6.682   0.775   1.757  0.0330 -0.0877 -0.2142
10413SOL    HW132138   6.717   0.868   1.751  1.7680 -0.6049  1.0857
10413SOL    HW232139   6.758   0.710   1.743 -0.0865 -1.2708  3.5412
10414SOL     OW32140   2.423   2.426   0.278 -0.4870 -0.3600  0.1206
10414SOL    HW132141   2.353   2.471   0.334  0.9689 -0.0462  1.7914
10414SOL    HW232142   2.442   2.482   0.198 -1.9966 -0.3703 -0.2773
10415SOL     OW32143   5.587   1.788   2.131 -0.2635 -0.4542  0.0313
10415SOL    HW132144   5.674   1.807   2.088 -0.9569  0.0809 -1.1762
10415SOL    HW232145   5.567   1.690   2.126  0.5708 -0.6847  0.9416
10416SOL     OW32146   0.278   4.612   3.930  0.2962 -0.5784  0.0391
10416SOL    HW132147   0.284   4.684   3.861  1.6229  0.0928  0.7998
10416SOL    HW232148   0.357   4.552   3.922 -0.9290 -2.1488 -0.7493
10417SOL     OW32149   5.064   2.640   2.396  0.2205  0.1927 -0.2900
10417SOL    HW132150   4.990   2.698   2.361 -1.0189 -0.0198  1.7552
10417SOL    HW232151   5.108   2.592   2.321 -0.5431  1.6788 -1.7538
10418SOL     OW32152   3.660   4.966   3.066  0.4479 -0.7080  0.7738
10418SOL    HW132153   3.617   4.956   2.976  0.1367 -0.3766  0.8825
10418SOL    HW232154   3.590   4.988   3.134  0.8249  0.1876  0.8870
10419SOL     OW32155   5.897   2.006   1.857 -0.4183  0.3903 -0.1887
10419SOL    HW132156   5.861   1.967   1.942  0.1666  0.7999  0.2519
10419SOL    HW232157   5.989   1.970   1.840 -0.5449  0.2863 -0.6658
10420SOL     OW32158   0.613   5.052   3.348  0.2598  0.5118 -0.6808
10420SOL    HW132159   0.536   5.084   3.294 -1.1748 -0.5358  0.6486
10420SOL    HW232160   0.639   4.960   3.320  0.3707  0.4731 -0.4590
10421SOL     OW32161   1.527   0.536   0.174  0.4818 -0.0891 -0.5527
10421SOL    HW132162   1.513   0.538   0.075  1.9901 -0.6243 -0.8052
10421SOL    HW232163   1.462   0.472   0.216 -0.7404  0.7846 -1.0645
10422SOL     OW32164   0.050   5.836   2.684  1.1469 -0.0198  0.0503
10422SOL    HW132165  -0.049   5.824   2.679  1.2817 -2.7606  2.0312
10422SOL    HW232166   0.091   5.817   2.594  0.1847 -3.6979  0.2390
10423SOL     OW32167   4.724   0.509   0.166  0.2377  0.6505  0.1921
10423SOL    HW132168   4.673   0.576   0.219 -0.1610 -1.1715  2.2752
10423SOL    HW232169   4.820   0.510   0.195 -0.0678 -0.6512  1.3589
10424SOL     OW32170   6.940   0.118   3.684 -0.0797  0.2360 -0.2567
10424SOL    HW132171   6.936   0.021   3.707 -0.6704  0.1942 -0.5155
10424SOL    HW232172   6.895   0.171   3.756 -0.7475  0.2205 -0.6612
10425SOL     OW32173   2.363   5.883   6.905 -0.6533  0.2269  0.1235
10425SOL    HW132174   2.267   5.909   6.907 -0.2613  1.7360  1.2859
10425SOL    HW232175   2.401   5.888   6.998  0.4911 -0.5941 -0.2714
10426SOL     OW32176   4.301   2.018   3.984  0.3358 -0.0952  0.1755
10426SOL    HW132177   4.250   1.941   4.022 -3.5290  1.5618 -1.0968
10426SOL    HW232178   4.277   2.101   4.033  0.7073  0.9698 -1.3693
10427SOL     OW32179   1.931   6.578   3.786 -0.0714  0.3174 -0.0820
10427SOL    HW132180   1.981   6.571   3.873  0.9936  0.3265 -0.6838
10427SOL    HW232181   1.897   6.671   3.775 -1.9307 -0.1440  1.2312
10428SOL     OW32182   3.811   3.452   6.616  0.0891  0.2851  0.1555
10428SOL    HW132183   3.801   3.437   6.518 -0.7871 -0.6391  0.3646
10428SOL    HW232184   3.907   3.441   6.642  0.0330 -1.6923 -0.2877
10429SOL     OW32185   3.001   0.899   6.474 -0.0082  0.0991  0.0997
10429SOL    HW132186   3.089   0.914   6.430  0.1895  0.0550  0.4815
10429SOL    HW232187   2.931   0.887   6.404  0.2153  0.5533 -0.2056
10430SOL     OW32188   6.002   5.913   0.865 -0.5394  0.1177  0.0294
10430SOL    HW132189   5.934   5.841   0.850 -0.4862 -0.2628  1.4336
10430SOL    HW232190   6.031   5.911   0.961 -0.0963  1.6365 -0.0529
10431SOL     OW32191   2.726   2.267   2.202 -0.1393  0.4898  0.1509
10431SOL    HW132192   2.787   2.298   2.129  1.7173  0.7870  1.7388
10431SOL    HW232193   2.709   2.343   2.265  0.1375 -0.3223  1.2298
10432SOL     OW32194   3.035   1.049   4.166 -0.1006 -0.0161 -0.0129
10432SOL    HW132195   2.967   1.069   4.096  0.7757  1.5380 -0.4833
10432SOL    HW232196   3.105   1.120   4.164 -1.2349  1.4510  3.9909
10433SOL     OW32197   6.806   6.726   2.532 -0.0140  0.5652  0.2936
10433SOL    HW132198   6.855   6.694   2.452 -1.6412  1.9856 -1.3826
10433SOL    HW232199   6.861   6.710   2.614  2.6423  0.9642 -1.2974
10434SOL     OW32200   4.721   5.251   2.404  0.7520  0.4761  0.1547
10434SOL    HW132201   4.753   5.252   2.309 -0.2220  1.9557 -0.1814
10434SOL    HW232202   4.631   5.293   2.410  0.2212 -0.7676  1.5631
10435SOL     OW32203   1.008   3.480   4.516 -0.1122 -0.2247  0.9192
10435SOL    HW132204   1.021   3.391   4.473  0.0909  1.0338 -1.8361
10435SOL    HW232205   0.976   3.467   4.610  2.2876 -3.1985  1.4932
10436SOL     OW32206   4.222   5.509   2.319 -0.8079 -0.1836 -0.6840
10436SOL    HW132207   4.161   5.460   2.380  0.0850 -0.6569 -0.1498
10436SOL    HW232208   4.209   5.475   2.225 -0.3761 -1.3028 -0.3626
10437SOL     OW32209   0.861   6.584   5.943  0.3942  0.0345  0.1244
10437SOL    HW132210   0.782   6.646   5.944  2.8571  3.4192  0.5177
10437SOL    HW232211   0.859   6.525   6.024 -3.4425 -2.6037 -1.5872
10438SOL     OW32212   0.671   1.490   5.942 -0.1649 -0.2342  0.1175
10438SOL    HW132213   0.676   1.464   6.038 -0.1056 -0.8088 -0.0375
10438SOL    HW232214   0.756   1.534   5.914 -0.9821  1.9995  0.9007
10439SOL     OW32215   6.674   4.069   6.951  0.2783  0.8870 -0.1383
10439SOL    HW132216   6.670   4.070   6.851  0.5239 -1.1825 -0.2147
10439SOL    HW232217   6.581   4.062   6.988  0.2439  0.5278 -0.2808
10440SOL     OW32218   4.616   6.653   3.655 -0.5853  0.2772  0.6084
10440SOL    HW132219   4.657   6.616   3.572 -0.9980  1.2337 -0.0378
10440SOL    HW232220   4.681   6.715   3.700 -0.3484 -0.2691  1.0288
10441SOL     OW32221   5.917   2.316   2.010  0.7504 -0.2059  0.3040
10441SOL    HW132222   5.845   2.276   1.953  0.9594 -1.3277  0.8022
10441SOL    HW232223   6.001   2.325   1.956  0.6015 -0.0913  0.0888
10442SOL     OW32224   0.589   0.372   3.002  0.2341 -0.2026 -0.4261
10442SOL    HW132225   0.544   0.381   2.913  2.6789  0.9068 -1.6379
10442SOL    HW232226   0.610   0.276   3.020 -3.7884 -1.0408  0.9348
10443SOL     OW32227   3.948   6.732   0.192 -0.3038  0.1701 -0.2706
10443SOL    HW132228   4.041   6.743   0.226  0.0464  0.7753 -1.3882
10443SOL    HW232229   3.885   6.781   0.252  0.4526  2.4017 -1.2087
10444SOL     OW32230   1.830   2.173   0.861 -0.1270  0.0067  0.4028
10444SOL    HW132231   1.889   2.111   0.809 -2.2335 -0.4910 -1.5432
10444SOL    HW232232   1.800   2.128   0.945  1.2003 -0.2002  0.7944
10445SOL     OW32233   5.033   3.682   2.493 -0.2669  0.0405 -0.3268
10445SOL    HW132234   5.000   3.610   2.554  0.4499  0.1367  0.1886
10445SOL    HW232235   5.118   3.651   2.449  1.1878  1.3074  1.4332
10446SOL     OW32236   3.552   1.223   0.489 -0.0929 -0.0378 -0.1335
10446SOL    HW132237   3.481   1.247   0.423  0.4745 -1.0598 -1.1600
10446SOL    HW232238   3.590   1.133   0.466 -0.3919 -0.7705  2.0565
10447SOL     OW32239   6.901   0.343   1.618 -0.0267  0.0587  0.6972
10447SOL    HW132240   6.906   0.364   1.715 -0.5975  0.8095  0.5675
10447SOL    HW232241   6.814   0.375   1.581  1.4516  2.8052 -0.7464
10448SOL     OW32242   6.332   6.080   5.355 -0.1664  0.1532 -0.3532
10448SOL    HW132243   6.336   6.180   5.354  2.4326  0.1392  0.4679
10448SOL    HW232244   6.359   6.044   5.266 -0.3306  0.1834 -0.4147
10449SOL     OW32245   0.544   0.111   3.569  0.5514  0.5884  0.2862
10449SOL    HW132246   0.595   0.179   3.622 -1.2026  1.4992  0.8717
10449SOL    HW232247   0.487   0.157   3.501 -1.8223 -0.0863  1.6845
10450SOL     OW32248   2.227   0.780   5.924 -0.5643 -0.2024  0.1575
10450SOL    HW132249   2.259   0.874   5.914 -0.4255 -0.2545  0.1137
10450SOL    HW232250   2.177   0.754   5.841 -0.3209 -0.2777  0.0347
10451SOL     OW32251   5.693   1.364   2.735  0.3585  0.3220  0.1028
10451SOL    HW132252   5.788   1.383   2.713  0.2904  1.9820  1.0103
10451SOL    HW232253   5.669   1.410   2.821 -1.1924 -0.2490  0.0146
10452SOL     OW32254   0.345   4.748   4.666  0.5431  0.1848  0.2932
10452SOL    HW132255   0.298   4.728   4.752  0.8347  1.5908  0.8038
10452SOL    HW232256   0.342   4.847   4.649  0.5759 -0.0695 -1.2667
10453SOL     OW32257   4.127   6.291   2.473  0.2523 -0.1899  0.1650
10453SOL    HW132258   4.038   6.321   2.437 -0.0353 -0.5761  0.5408
10453SOL    HW232259   4.120   6.195   2.502  1.3507 -0.9095 -1.7567
10454SOL     OW32260   6.421   0.348   6.707  0.0513  0.2343  0.3535
10454SOL    HW132261   6.373   0.367   6.793 -0.0381 -1.5472  0.7558
10454SOL    HW232262   6.518   0.332   6.726  0.4515  1.8544 -0.1877
10455SOL     OW32263   4.919   0.767   1.482  0.1236  0.2464  0.4688
10455SOL    HW132264   4.827   0.728   1.470 -0.1057  0.6485  0.8695
10455SOL    HW232265   4.911   0.855   1.530  0.7271  0.2276  0.6014
10456SOL     OW32266   1.890   4.958   5.055  0.2029 -0.5027  0.2108
10456SOL    HW132267   1.890   5.042   5.001  0.1617 -0.9548 -0.5019
10456SOL    HW232268   1.888   4.981   5.152  1.0627  0.3436  0.0494
10457SOL     OW32269   4.042   5.295   5.356 -0.1961  0.2222  0.0003
10457SOL    HW132270   4.023   5.218   5.296  1.7823  0.5346 -1.1403
10457SOL    HW232271   4.076   5.262   5.444 -1.1935 -0.2050  0.2398
10458SOL     OW32272   1.732   2.756   2.105 -0.0756 -0.1288  0.1815
10458SOL    HW132273   1.642   2.713   2.094  0.2770 -0.8141 -0.0842
10458SOL    HW232274   1.784   2.707   2.175 -0.1333  0.6493  0.7890
10459SOL     OW32275   1.811   3.764   2.784 -0.0509  0.8711 -0.4227
10459SOL    HW132276   1.800   3.669   2.757 -1.3156  0.8529  0.0725
10459SOL    HW232277   1.853   3.816   2.709  2.5620 -0.4459  0.0462
10460SOL     OW32278   4.627   1.458   3.011 -0.4969 -0.3524 -0.1906
10460SOL    HW132279   4.567   1.409   3.074 -0.5720  0.6438  0.5343
10460SOL    HW232280   4.574   1.526   2.961 -0.5195 -1.3693 -1.6397
10461SOL     OW32281   6.081   5.529   0.924  0.6669  0.5136  0.0280
10461SOL    HW132282   6.049   5.529   1.019  2.8299 -1.0780  0.8467
10461SOL    HW232283   6.177   5.557   0.921  1.3371 -1.6689 -1.3559
10462SOL     OW32284   4.067   5.315   4.044 -0.4177 -0.1344 -0.4300
10462SOL    HW132285   3.972   5.284   4.042  0.3052 -2.6169 -1.9137
10462SOL    HW232286   4.071   5.413   4.064 -3.0905 -0.4421  2.1965
10463SOL     OW32287   5.636   4.848   3.614 -0.0373  0.1789  0.2345
10463SOL    HW132288   5.656   4.776   3.680 -1.3947 -0.6493 -0.2233
10463SOL    HW232289   5.557   4.822   3.559  1.0144  0.8561 -1.7022
10464SOL     OW32290   6.511   3.510   2.798 -0.4477 -0.3006  0.1328
10464SOL    HW132291   6.469   3.420   2.808  1.0532 -0.9406  1.0587
10464SOL    HW232292   6.448   3.580   2.831 -2.8166 -0.6146 -3.2054
10465SOL     OW32293   0.254   3.891   0.143 -0.4156  0.3816  0.0016
10465SOL    HW132294   0.158   3.864   0.152 -0.7415  1.2488 -0.7057
10465SOL    HW232295   0.271   3.921   0.049  0.1676  1.6379  0.4871
10466SOL     OW32296   6.404   1.730   1.967 -0.1057 -0.2642  0.4453
10466SOL    HW132297   6.435   1.818   2.005 -0.5978 -0.1119  0.4941
10466SOL    HW232298   6.483   1.670   1.954 -0.0030 -0.6174  2.4327
10467SOL     OW32299   3.735   5.487   1.567  0.0821 -0.4457  0.0090
10467SOL    HW132300   3.659   5.545   1.538  0.0197 -0.7312 -0.4103
10467SOL    HW232301   3.723   5.461   1.663 -0.7614 -1.1243 -0.2697
10468SOL     OW32302   0.988   2.844   1.855  0.1803  0.1437  0.6828
10468SOL    HW132303   1.017   2.940   1.863  0.4896  0.0254  1.0208
10468SOL    HW232304   1.020   2.793   1.935  0.9637 -0.4780 -0.0001
10469SOL     OW32305   0.298   5.297   5.084  0.4078 -0.0817 -0.0404
10469SOL    HW132306   0.348   5.218   5.050  0.1833  0.1564 -0.9640
10469SOL    HW232307   0.224   5.267   5.143 -0.4097 -0.6602 -1.3094
10470SOL     OW32308   4.533   1.586   5.486  0.1528 -0.3588 -0.0889
10470SOL    HW132309   4.531   1.593   5.386 -2.2483 -0.1924 -0.0743
10470SOL    HW232310   4.627   1.571   5.516  0.8301 -1.2626 -2.4312
10471SOL     OW32311   5.887   1.917   4.754 -0.5773 -0.0878 -0.1868
10471SOL    HW132312   5.954   1.872   4.695 -1.5167 -1.3298 -0.3431
10471SOL    HW232313   5.928   1.935   4.843  0.0276 -0.6452 -0.3423
10472SOL     OW32314   5.302   5.036   5.614  0.2021 -0.4022 -0.3869
10472SOL    HW132315   5.383   5.068   5.663  1.3555 -1.3228 -1.6173
10472SOL    HW232316   5.229   5.015   5.679 -0.2287  3.4334  0.5925
10473SOL     OW32317   3.006   1.539   2.774 -0.0214 -0.3319  0.4044
10473SOL    HW132318   2.911   1.564   2.755  0.1210  0.1256  0.2907
10473SOL    HW232319   3.009   1.476   2.852 -0.1747  2.4973  2.8696
10474SOL     OW32320   2.743   3.223   5.947  0.0398  0.4044 -0.0381
10474SOL    HW132321   2.831   3.209   5.902 -1.2705 -1.8982 -2.0844
10474SOL    HW232322   2.695   3.300   5.905  0.5672  0.9635  0.3551
10475SOL     OW32323   1.638   2.146   3.217 -0.9082 -0.1398  0.3494
10475SOL    HW132324   1.583   2.127   3.135  1.3952 -0.4027 -1.2281
10475SOL    HW232325   1.614   2.237   3.252 -0.4441  0.9585 -1.9784
10476SOL     OW32326   0.702   3.880   4.702  0.5593  0.4976 -0.1110
10476SOL    HW132327   0.783   3.904   4.756  0.5293  0.5598 -0.0937
10476SOL    HW232328   0.731   3.840   4.615  0.6099 -0.8566  0.5037
10477SOL     OW32329   6.652   2.332   6.139  0.3293 -0.0600  0.1395
10477SOL    HW132330   6.602   2.398   6.195 -2.5831 -0.5539 -1.6558
10477SOL    HW232331   6.677   2.375   6.052  0.4053 -0.7066 -0.1583
10478SOL     OW32332   2.588   5.786   2.423 -0.1861 -0.5839  0.1142
10478SOL    HW132333   2.624   5.868   2.468  0.4971 -0.6294 -0.3287
10478SOL    HW232334   2.489   5.784   2.433 -0.2991  0.6810 -0.4691
10479SOL     OW32335   1.271   4.410   2.306  0.5281 -0.0361 -0.5141
10479SOL    HW132336   1.287   4.370   2.216  0.5942  0.6514 -0.8153
10479SOL    HW232337   1.237   4.340   2.369 -0.7228 -0.2607 -1.4056
10480SOL     OW32338   0.322   5.229   6.459 -0.2126 -0.2773  0.2516
10480SOL    HW132339   0.378   5.230   6.541 -0.3154  1.4230  0.3297
10480SOL    HW232340   0.225   5.231   6.485 -0.2714 -0.7737  0.0870
10481SOL     OW32341   1.655   5.228   6.974 -0.2971  0.5446 -0.1577
10481SOL    HW132342   1.713   5.309   6.981 -0.8288  0.9499 -0.3974
10481SOL    HW232343   1.585   5.230   7.045  0.6471 -0.5022  0.8455
10482SOL     OW32344   4.629   6.941   6.058  0.5490  0.8850  0.8428
10482SOL    HW132345   4.588   6.991   6.134  0.9982 -1.0042  2.4014
10482SOL    HW232346   4.558   6.913   5.994  0.2590  3.2014  0.0542
10483SOL     OW32347   1.991   5.820   2.899  0.6828 -0.4685  0.5915
10483SOL    HW132348   2.085   5.850   2.880  0.2802  1.0628  0.9350
10483SOL    HW232349   1.938   5.896   2.936 -0.2683 -1.7340  1.9512
10484SOL     OW32350   6.173   4.936   3.170 -0.3675 -0.0784  0.1645
10484SOL    HW132351   6.238   5.006   3.139  0.0483 -0.6789 -0.3305
10484SOL    HW232352   6.162   4.867   3.099  0.4802 -1.4077  1.2888
10485SOL     OW32353   0.803   0.098   5.463 -0.2434 -0.2145  0.6765
10485SOL    HW132354   0.706   0.095   5.487 -0.2934  0.7731  0.6154
10485SOL    HW232355   0.814   0.142   5.374  0.1796 -1.2892  0.1771
10486SOL     OW32356   6.800   0.057   4.650  0.0663  0.0785  0.0959
10486SOL    HW132357   6.899   0.043   4.661  0.2206 -1.0582 -2.0452
10486SOL    HW232358   6.751  -0.014   4.699  0.3834 -0.1648  0.0685
10487SOL     OW32359   2.574   6.946   2.803  0.2225  0.4507  0.2419
10487SOL    HW132360   2.657   6.928   2.749  0.1264  0.6484  0.0290
10487SOL    HW232361   2.599   6.964   2.898  0.7501  3.8855 -0.4364
10488SOL     OW32362   5.436   2.555   1.054  0.3712 -0.2624  0.2744
10488SOL    HW132363   5.421   2.478   1.116 -1.6374  0.8956  1.3479
10488SOL    HW232364   5.503   2.618   1.095 -1.6063  0.9582  1.8682
10489SOL     OW32365   4.943   3.596   4.152 -0.2408 -0.3795 -0.5849
10489SOL    HW132366   4.910   3.521   4.095  1.4237 -0.9381 -0.8714
10489SOL    HW232367   5.040   3.611   4.135  0.4423 -0.8072  2.3602
10490SOL     OW32368   1.344   0.877   2.054 -0.1860 -0.2107 -0.1586
10490SOL    HW132369   1.363   0.966   2.096  0.3185 -0.2924 -0.2000
10490SOL    HW232370   1.274   0.887   1.983 -2.5631 -0.3948  2.0244
10491SOL     OW32371   1.470   2.419   5.048 -0.2082  0.2501  0.1550
10491SOL    HW132372   1.479   2.449   4.954 -0.0613 -0.5844 -0.1092
10491SOL    HW232373   1.498   2.492   5.110  1.1422  0.3081 -0.4833
10492SOL     OW32374   5.613   6.731   1.530 -0.6310 -0.1664  0.3550
10492SOL    HW132375   5.686   6.734   1.462 -0.3665  1.6107  0.6745
10492SOL    HW232376   5.606   6.638   1.567  0.7821 -0.6058 -0.4021
10493SOL     OW32377   3.121   3.352   6.350  0.0507 -0.1038 -0.7252
10493SOL    HW132378   3.148   3.268   6.303  2.5732 -0.6526  1.4121
10493SOL    HW232379   3.073   3.328   6.435  1.8246  0.4838  0.4941
10494SOL     OW32380   4.857   0.457   5.840 -0.2031 -0.0914  0.6378
10494SOL    HW132381   4.900   0.543   5.811 -0.4365 -0.1690  0.0390
10494SOL    HW232382   4.896   0.382   5.786 -1.5358 -0.0816 -0.3909
10495SOL     OW32383   2.901   5.099   2.905  0.3063 -0.2906 -0.2322
10495SOL    HW132384   2.964   5.152   2.847  1.1425 -0.7919  0.1953
10495SOL    HW232385   2.807   5.129   2.888  0.7377  1.1517 -0.1723
10496SOL     OW32386   1.348   4.657   4.414  0.2904 -0.0695 -0.1963
10496SOL    HW132387   1.412   4.603   4.470  0.4723 -1.3255 -1.5608
10496SOL    HW232388   1.382   4.661   4.320 -0.3776  1.3972 -0.3947
10497SOL     OW32389   0.780   4.761   1.463  0.8877  0.3080  0.4888
10497SOL    HW132390   0.817   4.772   1.555 -1.0675  3.0971  1.0898
10497SOL    HW232391   0.818   4.833   1.404  1.1987 -0.7105 -0.5843
10498SOL     OW32392   3.182   1.748   5.735 -0.3130  0.2925  0.4765
10498SOL    HW132393   3.255   1.752   5.666 -0.0109 -0.6909  0.7201
10498SOL    HW232394   3.095   1.728   5.690 -0.2337  0.3242  0.3070
10499SOL     OW32395   3.328   2.532   5.545 -0.1158  0.3650 -0.6700
10499SOL    HW132396   3.414   2.583   5.546  0.1789 -0.0494  1.8314
10499SOL    HW232397   3.346   2.435   5.566 -1.1305  0.1812 -0.5893
10500SOL     OW32398   5.366   0.910   6.625  0.1575  0.0456 -0.6091
10500SOL    HW132399   5.378   0.827   6.679  0.8906  1.1901  1.0740
10500SOL    HW232400   5.408   0.898   6.535 -1.3600 -2.0131 -1.1267
10501SOL     OW32401   0.679   3.425   5.237 -0.3440 -0.2194  0.8991
10501SOL    HW132402   0.677   3.481   5.154 -1.2280 -0.4510  0.7582
10501SOL    HW232403   0.702   3.484   5.315  1.8909 -0.2430  0.3401
10502SOL     OW32404   5.498   5.002   4.215  0.2593  0.8862 -0.0722
10502SOL    HW132405   5.561   4.992   4.292 -0.0061 -1.4307 -0.0753
10502SOL    HW232406   5.524   4.938   4.142 -0.4806  1.8549 -1.2269
10503SOL     OW32407   6.558   3.263   0.585 -0.0675  0.2612  0.1030
10503SOL    HW132408   6.617   3.197   0.633  0.3248 -0.2997 -1.1089
10503SOL    HW232409   6.611   3.310   0.515 -0.8490  0.3949 -0.4102
10504SOL     OW32410   6.547   1.183   0.713 -0.2684  0.0652  0.6164
10504SOL    HW132411   6.636   1.140   0.697  0.4345  2.1345 -1.6812
10504SOL    HW232412   6.545   1.223   0.805  1.5517  0.7636  0.3873
10505SOL     OW32413   3.069   5.710   6.606 -0.2666  0.3270 -0.3646
10505SOL    HW132414   3.139   5.696   6.535 -0.8492  0.4866 -0.9836
10505SOL    HW232415   3.089   5.651   6.684  0.7475  0.6237 -0.3912
10506SOL     OW32416   3.223   6.661   3.142  0.0537 -0.3345 -1.1652
10506SOL    HW132417   3.174   6.722   3.203 -0.7666 -2.0317 -0.0603
10506SOL    HW232418   3.258   6.713   3.064 -1.4816  1.3314 -0.8046
10507SOL     OW32419   6.933   6.294   1.427  0.4141  0.1591 -0.5640
10507SOL    HW132420   6.959   6.377   1.477  1.2463  0.3261 -1.2523
10507SOL    HW232421   7.014   6.253   1.387 -0.2928  0.3229 -2.2448
10508SOL     OW32422   6.023   6.022   6.354 -0.0867 -0.1127 -0.0445
10508SOL    HW132423   6.074   5.995   6.436 -0.3980 -1.8066 -0.3812
10508SOL    HW232424   6.006   5.941   6.297 -1.0891  0.8143 -1.1038
10509SOL     OW32425   6.080   6.564   2.719 -0.4971  0.0008  0.2727
10509SOL    HW132426   6.134   6.492   2.675 -0.7073 -0.2761  0.4671
10509SOL    HW232427   6.037   6.621   2.649 -0.7327 -0.3655  0.1150
10510SOL     OW32428   6.488   2.879   3.933 -0.2182 -0.1057 -0.2681
10510SOL    HW132429   6.497   2.829   3.847  1.9650  0.3077 -0.3126
10510SOL    HW232430   6.487   2.813   4.009 -1.2899 -0.4136 -0.5236
10511SOL     OW32431   4.853   6.803   5.971 -0.3642  0.3812 -0.6272
10511SOL    HW132432   4.894   6.811   6.062 -1.4681 -0.5724 -0.0296
10511SOL    HW232433   4.759   6.838   5.973 -0.9865 -1.2042 -0.9607
10512SOL     OW32434   5.042   6.683   6.499 -0.4224  0.0770  0.4777
10512SOL    HW132435   5.053   6.778   6.529  0.1862  0.5541 -1.1699
10512SOL    HW232436   5.128   6.633   6.514  0.1018  0.4964 -1.0387
10513SOL     OW32437   4.105   0.120   4.001 -0.3637  0.0150 -0.5125
10513SOL    HW132438   4.049   0.178   3.943 -0.9501  0.2213  0.2374
10513SOL    HW232439   4.197   0.158   4.007 -1.0961  1.6811  1.0542
10514SOL     OW32440   3.240   1.609   6.930 -0.0083  1.0265  0.2612
10514SOL    HW132441   3.267   1.596   6.834 -1.8801  0.3951 -0.2238
10514SOL    HW232442   3.168   1.679   6.935  0.2464  1.2306  1.2410
10515SOL     OW32443   4.135   0.128   6.312 -1.0342 -0.1916  0.0062
10515SOL    HW132444   4.062   0.145   6.378 -0.7296  0.2375  0.2375
10515SOL    HW232445   4.124   0.036   6.274 -1.1991 -0.4628  0.6827
10516SOL     OW32446   1.657   5.991   6.936  0.0158 -0.1094 -0.2672
10516SOL    HW132447   1.558   5.981   6.929 -0.0512  0.9558 -1.1369
10516SOL    HW232448   1.682   6.086   6.915  1.4066 -0.8838 -2.3757
10517SOL     OW32449   5.737   6.625   4.561 -0.1937  0.1161 -0.0092
10517SOL    HW132450   5.720   6.607   4.658  0.6613 -0.5149  0.0345
10517SOL    HW232451   5.729   6.540   4.509  1.1291  0.0996 -0.2144
10518SOL     OW32452   6.604   0.048   1.290 -0.1717 -0.3244  0.2807
10518SOL    HW132453   6.631  -0.041   1.252  0.7397  0.1062 -0.1044
10518SOL    HW232454   6.633   0.053   1.385  1.2262  0.1589 -0.1460
10519SOL     OW32455   3.001   2.582   5.309  0.1800  0.0099  0.0774
10519SOL    HW132456   3.090   2.614   5.342  0.7880 -0.2824 -1.2140
10519SOL    HW232457   3.013   2.502   5.250 -0.8491  0.4599 -0.7905
10520SOL     OW32458   1.770   6.680   4.633 -0.3812 -0.3552  0.5235
10520SOL    HW132459   1.674   6.652   4.634 -1.0467  1.7590  1.0010
10520SOL    HW232460   1.798   6.706   4.726  0.3307  0.0310  0.2118
10521SOL     OW32461   2.071   2.188   0.350 -0.6355  0.1791  0.4631
10521SOL    HW132462   2.056   2.201   0.448 -1.1986  0.5758  0.3278
10521SOL    HW232463   2.161   2.147   0.335  0.2983  1.9287  1.0321
10522SOL     OW32464   5.867   0.557   3.090  0.4860  0.0282  0.2394
10522SOL    HW132465   5.819   0.475   3.118 -0.3212  1.1958  2.5709
10522SOL    HW232466   5.844   0.579   2.995 -0.0416 -1.8560 -0.1105
10523SOL     OW32467   2.548   0.327   5.608  0.1464  0.2492 -0.6098
10523SOL    HW132468   2.537   0.326   5.509  0.6524 -1.6961 -0.6873
10523SOL    HW232469   2.601   0.248   5.637 -0.6831  0.3198  1.3042
10524SOL     OW32470   0.435   3.495   6.894 -0.1799 -0.5274  0.2343
10524SOL    HW132471   0.434   3.556   6.974  1.7801 -0.6492  0.3963
10524SOL    HW232472   0.489   3.537   6.822  0.5703 -1.7267  0.0722
10525SOL     OW32473   0.162   3.078   6.158  0.2095  0.0324 -0.5811
10525SOL    HW132474   0.098   3.145   6.120 -0.7633 -0.3596  0.2903
10525SOL    HW232475   0.241   3.126   6.197 -0.9502  0.8024  0.9539
10526SOL     OW32476   3.396   1.340   6.580  0.1052  0.0513 -0.5877
10526SOL    HW132477   3.406   1.433   6.617  2.7538 -0.2764 -0.2807
10526SOL    HW232478   3.356   1.281   6.649 -0.3681  0.6758 -0.3136
10527SOL     OW32479   5.978   4.851   0.715 -0.7031  0.0852 -0.1627
10527SOL    HW132480   5.887   4.858   0.756 -0.1078 -2.1639  1.7487
10527SOL    HW232481   6.025   4.939   0.723 -1.9368  0.6834  0.7903
10528SOL     OW32482   1.277   2.762   6.852 -0.1546 -0.4461  0.2816
10528SOL    HW132483   1.230   2.675   6.837  0.5580 -0.6194 -1.1219
10528SOL    HW232484   1.211   2.832   6.880 -0.7559 -1.3895  1.3055
10529SOL     OW32485   3.852   6.261   3.416  0.4110 -0.0478  0.1939
10529SOL    HW132486   3.809   6.227   3.332 -0.1257 -0.0071  0.4498
10529SOL    HW232487   3.782   6.296   3.477  0.8034 -0.0888  0.6705
10530SOL     OW32488   6.567   5.097   4.643 -0.3864 -0.0884 -0.0910
10530SOL    HW132489   6.476   5.127   4.673 -0.8152  1.0049 -2.3022
10530SOL    HW232490   6.557   5.028   4.572  0.5225 -0.0667 -0.2438
10531SOL     OW32491   6.273   6.261   5.799 -0.3686  0.3694  0.3933
10531SOL    HW132492   6.340   6.271   5.873  0.8864  0.0548 -0.6759
10531SOL    HW232493   6.301   6.187   5.739 -0.5155  1.6582 -1.3173
10532SOL     OW32494   4.121   4.650   5.838  0.1372 -0.0541 -0.0614
10532SOL    HW132495   4.047   4.637   5.772  0.6852  1.6770 -1.1032
10532SOL    HW232496   4.209   4.626   5.795  0.4811  0.9071  0.0741
10533SOL     OW32497   4.787   3.852   0.846 -0.0667  0.2561  0.1036
10533SOL    HW132498   4.725   3.854   0.768 -0.6244  2.5968  0.5216
10533SOL    HW232499   4.882   3.860   0.813 -0.2008 -0.2413 -0.4033
10534SOL     OW32500   2.595   2.687   0.770 -0.9157  0.1708 -0.1696
10534SOL    HW132501   2.679   2.652   0.729 -0.2166  2.3159 -0.7021
10534SOL    HW232502   2.576   2.638   0.855 -0.4420 -1.9295 -1.2007
10535SOL     OW32503   6.360   2.043   3.779  0.3264 -0.0144  0.5619
10535SOL    HW132504   6.348   1.959   3.832  0.1740 -1.0873 -1.0920
10535SOL    HW232505   6.449   2.041   3.733  0.2146  0.6109  0.3081
10536SOL     OW32506   1.144   5.503   3.916 -0.7410  0.1863  1.0273
10536SOL    HW132507   1.139   5.482   4.014 -0.5143  2.2981  1.5277
10536SOL    HW232508   1.139   5.602   3.902  0.1034 -0.0036 -1.0519
10537SOL     OW32509   4.051   0.802   3.427  0.8461  0.2818  0.1121
10537SOL    HW132510   4.071   0.717   3.378 -2.0274 -0.5565  0.1935
10537SOL    HW232511   4.016   0.780   3.518  1.9431  1.6655  0.9062
10538SOL     OW32512   3.428   4.548   0.505  0.6617  0.4224  0.1733
10538SOL    HW132513   3.487   4.578   0.430  0.8417  0.9657  0.5246
10538SOL    HW232514   3.343   4.601   0.504 -0.3172 -1.0880 -0.9828
10539SOL     OW32515   3.310   2.179   1.875  0.0921 -0.2914  0.1891
10539SOL    HW132516   3.307   2.245   1.800 -0.2613  0.8781  1.1902
10539SOL    HW232517   3.398   2.132   1.875  0.1073 -0.2886 -0.9286
10540SOL     OW32518   0.345   1.833   4.174 -0.2542  0.0691 -0.2989
10540SOL    HW132519   0.287   1.753   4.166 -1.6820  1.1351 -1.1835
10540SOL    HW232520   0.424   1.823   4.114 -0.0784 -0.9322  0.0885
10541SOL     OW32521   0.605   1.260   1.489  0.1372  0.4812 -0.0181
10541SOL    HW132522   0.622   1.280   1.392 -0.3833  1.0506  0.0011
10541SOL    HW232523   0.680   1.297   1.543 -0.5171  1.9179 -0.0418
10542SOL     OW32524   1.501   5.532   5.887 -0.2900 -0.2265  0.2353
10542SOL    HW132525   1.495   5.559   5.983  0.7176 -1.4791  0.6757
10542SOL    HW232526   1.494   5.433   5.879 -1.4987 -0.0803 -1.1140
10543SOL     OW32527   1.596   5.747   6.597 -0.3751 -0.3016 -0.4628
10543SOL    HW132528   1.618   5.660   6.642  0.5868  0.3336  0.3126
10543SOL    HW232529   1.499   5.747   6.571 -0.4252 -1.5446 -0.3432
10544SOL     OW32530   3.148   6.291   1.568 -0.2483  0.4626  0.5004
10544SOL    HW132531   3.148   6.193   1.587  0.6557  0.5251  0.8613
10544SOL    HW232532   3.146   6.342   1.654 -3.9992  0.8404  0.3820
10545SOL     OW32533   4.515   3.889   5.356 -0.3046  0.1445  0.5629
10545SOL    HW132534   4.613   3.874   5.342 -0.1450  1.1084  0.5367
10545SOL    HW232535   4.494   3.884   5.454 -0.0322  0.9583  0.6704
10546SOL     OW32536   1.319   5.801   4.309 -0.4911 -0.1149 -0.0445
10546SOL    HW132537   1.225   5.777   4.284 -0.1660  0.1953 -1.7353
10546SOL    HW232538   1.343   5.888   4.266  0.2688  0.2925  1.1599
10547SOL     OW32539   4.609   6.440   4.300 -0.1228  0.7254  0.0411
10547SOL    HW132540   4.600   6.386   4.383 -0.2317  1.3842  0.4653
10547SOL    HW232541   4.570   6.390   4.223 -1.3302  0.7185  0.6421
10548SOL     OW32542   1.126   0.134   2.613  0.6485 -0.2011  0.4878
10548SOL    HW132543   1.113   0.228   2.647  4.3686  1.1012 -1.1466
10548SOL    HW232544   1.054   0.076   2.650 -0.0455  2.5772  4.2357
10549SOL     OW32545   4.843   3.347   0.625  0.1847  0.2107 -0.1128
10549SOL    HW132546   4.931   3.320   0.665  0.2333  1.2333  0.5001
10549SOL    HW232547   4.798   3.413   0.685 -1.5307 -1.1140  0.1565
10550SOL     OW32548   4.659   6.061   4.023 -0.1987  0.1764 -0.3571
10550SOL    HW132549   4.748   6.069   4.068  0.9402 -1.4233 -2.1693
10550SOL    HW232550   4.667   6.092   3.928 -1.7554  0.5536 -0.4003
10551SOL     OW32551   6.000   6.159   5.763 -0.5911  0.1446 -0.7260
10551SOL    HW132552   6.082   6.205   5.796 -1.1722  2.1590 -1.9858
10551SOL    HW232553   6.017   6.060   5.761  0.6614  0.1847  2.1205
10552SOL     OW32554   0.725   1.707   1.713  0.2817  0.6540  0.4038
10552SOL    HW132555   0.747   1.721   1.810  2.9575  1.3116 -0.2058
10552SOL    HW232556   0.807   1.677   1.665 -1.1358 -0.1755 -1.5880
10553SOL     OW32557   2.860   5.815   4.478 -0.6053 -0.4143  0.2225
10553SOL    HW132558   2.865   5.788   4.382 -0.7524  0.7037 -0.1095
10553SOL    HW232559   2.916   5.752   4.533  0.9550  0.0150 -0.8207
10554SOL     OW32560   6.715   2.473   3.337  0.0554 -0.1622  0.4703
10554SOL    HW132561   6.729   2.571   3.318  1.7029 -0.5639 -0.5985
10554SOL    HW232562   6.689   2.426   3.253  1.0566 -0.9326  0.5809
10555SOL     OW32563   0.200   2.166   4.288  0.3435 -0.5784 -0.3996
10555SOL    HW132564   0.150   2.136   4.207  1.5387 -1.2912 -0.8961
10555SOL    HW232565   0.233   2.086   4.338  0.0646 -0.1369  0.5103
10556SOL     OW32566   6.488   1.767   4.889  0.3701  0.0993  0.1957
10556SOL    HW132567   6.496   1.828   4.968 -0.5703 -0.9879  1.1684
10556SOL    HW232568   6.506   1.673   4.918 -1.4927 -0.5197 -0.5593
10557SOL     OW32569   0.881   5.785   5.907  0.2381 -0.0284 -0.0609
10557SOL    HW132570   0.908   5.881   5.919  3.8003 -0.8855 -0.0276
10557SOL    HW232571   0.823   5.777   5.826  1.2886  1.9606 -1.0836
10558SOL     OW32572   5.462   5.182   5.027  0.1902  0.2700 -0.4410
10558SOL    HW132573   5.399   5.109   5.002  0.9491 -1.1002  1.4268
10558SOL    HW232574   5.440   5.265   4.975 -4.4785  0.5665  1.5280
10559SOL     OW32575   0.386   1.457   5.020  0.0095  0.3054 -0.3559
10559SOL    HW132576   0.317   1.385   5.015 -0.4299  0.6787  0.2240
10559SOL    HW232577   0.345   1.545   4.995  0.0777  0.6527  0.7013
10560SOL     OW32578   5.913   0.608   4.918 -0.0241  0.2294 -0.0753
10560SOL    HW132579   5.815   0.591   4.915  0.2574 -1.4662 -0.6786
10560SOL    HW232580   5.938   0.673   4.846 -0.2457 -2.1291 -2.4318
10561SOL     OW32581   3.256   6.798   0.353 -0.4084  0.0644 -0.1807
10561SOL    HW132582   3.267   6.799   0.452  1.1403 -0.7925 -0.3188
10561SOL    HW232583   3.339   6.762   0.310 -0.3779  1.9840 -1.8807
10562SOL     OW32584   2.355   0.372   1.823 -0.2765  0.1057 -0.1255
10562SOL    HW132585   2.412   0.292   1.842 -0.3105 -0.3757 -1.8545
10562SOL    HW232586   2.414   0.449   1.799 -0.2899 -0.2280 -1.3188
10563SOL     OW32587   2.736   6.208   0.271 -0.1081  0.2010  0.0403
10563SOL    HW132588   2.644   6.246   0.263 -0.0421  0.0709 -1.8842
10563SOL    HW232589   2.803   6.282   0.280 -0.3055  0.3520  0.2531
10564SOL     OW32590   5.681   3.353   5.429  0.0656 -0.2751 -0.4307
10564SOL    HW132591   5.622   3.402   5.493  0.2243 -0.5256 -0.0872
10564SOL    HW232592   5.683   3.401   5.341  1.3212  1.1260  0.3259
10565SOL     OW32593   4.426   4.646   2.923  0.0501  0.6758  0.0968
10565SOL    HW132594   4.470   4.589   2.992 -0.4416  0.8106  0.5279
10565SOL    HW232595   4.334   4.670   2.953  0.5358  2.3694  0.2969
10566SOL     OW32596   1.927   0.996   1.205 -0.3558  0.0912  0.2312
10566SOL    HW132597   1.949   1.053   1.284 -1.2591 -0.4019  0.8619
10566SOL    HW232598   2.000   0.929   1.190  0.6007  1.2301 -0.3707
10567SOL     OW32599   5.570   5.847   0.994  0.0961 -0.0636  0.4209
10567SOL    HW132600   5.483   5.803   0.972  0.3050  0.0235 -0.6102
10567SOL    HW232601   5.643   5.807   0.938  0.3350  1.3891 -0.3536
10568SOL     OW32602   3.851   1.031   0.976  0.2914  0.2116  0.5410
10568SOL    HW132603   3.944   0.997   0.989  0.2467  0.1966  0.8290
10568SOL    HW232604   3.820   1.075   1.060 -0.7566 -1.6746  1.2058
10569SOL     OW32605   3.419   3.179   3.506 -0.3159  0.0979 -0.2234
10569SOL    HW132606   3.378   3.208   3.593  0.1326  0.0789 -0.0029
10569SOL    HW232607   3.408   3.252   3.438 -0.5436  0.1692 -0.1095
10570SOL     OW32608   6.286   6.150   3.967 -0.2346 -0.7618 -0.2390
10570SOL    HW132609   6.304   6.235   4.017  0.4645  0.2059 -2.0423
10570SOL    HW232610   6.331   6.074   4.014  0.3175  0.0873  0.6572
10571SOL     OW32611   3.414   3.725   6.377 -0.1811  0.1026  0.5381
10571SOL    HW132612   3.322   3.761   6.362 -0.0926  1.1666  2.3324
10571SOL    HW232613   3.421   3.634   6.336 -2.3896 -0.4946  1.3515
10572SOL     OW32614   4.336   5.049   1.978  0.6083 -0.1180 -0.2967
10572SOL    HW132615   4.287   5.065   1.892  2.2597  0.8683 -1.0935
10572SOL    HW232616   4.318   4.956   2.009 -0.3586 -0.3528 -1.4653
10573SOL     OW32617   6.744   6.545   4.099 -0.0077 -0.1163 -0.4325
10573SOL    HW132618   6.695   6.585   4.177 -0.2420  0.7873 -1.0282
10573SOL    HW232619   6.713   6.451   4.085  0.1718 -0.3537  0.6765
10574SOL     OW32620   5.182   6.937   3.564 -0.2848 -0.3482 -0.4049
10574SOL    HW132621   5.210   6.898   3.476  0.0109 -0.9630 -0.0456
10574SOL    HW232622   5.246   6.908   3.635 -0.2493  0.5314 -0.0644
10575SOL     OW32623   6.880   5.551   5.894  0.0785 -0.3790  0.3696
10575SOL    HW132624   6.960   5.498   5.920  0.6081  0.6840  1.0020
10575SOL    HW232625   6.803   5.490   5.874 -0.3312 -1.4062  4.2689
10576SOL     OW32626   3.644   6.805   1.724 -0.6542  0.0571 -0.0153
10576SOL    HW132627   3.635   6.722   1.778  1.2286  0.2696  0.6959
10576SOL    HW232628   3.583   6.801   1.645 -0.2187 -2.2290 -0.2857
10577SOL     OW32629   1.374   0.884   5.137  0.0178  0.2887 -0.7543
10577SOL    HW132630   1.343   0.972   5.174  1.0074  0.6123 -0.6587
10577SOL    HW232631   1.353   0.879   5.040  2.1333  1.7076 -1.3500
10578SOL     OW32632   5.371   6.880   4.048 -0.1689  0.1583 -0.0659
10578SOL    HW132633   5.320   6.805   4.090  0.2585 -1.6897 -2.6099
10578SOL    HW232634   5.468   6.870   4.067  0.0090 -0.5990 -1.2975
10579SOL     OW32635   0.961   6.150   2.736  0.2090 -0.3341  0.4428
10579SOL    HW132636   1.049   6.174   2.776 -0.3614  0.7317  1.1247
10579SOL    HW232637   0.904   6.232   2.731 -0.1397 -0.6480 -1.5860
10580SOL     OW32638   3.567   2.858   1.876  0.3259 -0.0150  1.0649
10580SOL    HW132639   3.632   2.892   1.944 -0.1429 -0.2981  1.6659
10580SOL    HW232640   3.600   2.772   1.838  0.0952 -0.3879  1.6954
10581SOL     OW32641   2.631   0.811   4.318 -0.0950  0.1069 -0.3532
10581SOL    HW132642   2.640   0.893   4.262  2.1605 -0.8475 -1.5482
10581SOL    HW232643   2.585   0.740   4.266  1.6495 -0.6551 -0.9251
10582SOL     OW32644   1.354   0.460   3.510 -0.0395  0.1847 -0.3932
10582SOL    HW132645   1.435   0.416   3.549  0.1925 -0.0662 -1.1468
10582SOL    HW232646   1.334   0.420   3.421 -1.3439 -0.1705  0.0320
10583SOL     OW32647   5.692   1.265   1.147 -0.4533  0.1333  0.4019
10583SOL    HW132648   5.690   1.307   1.238  0.6911 -1.6006  1.2845
10583SOL    HW232649   5.604   1.282   1.101 -1.2135  0.7077  1.9742
10584SOL     OW32650   0.902   1.213   1.215  0.0788 -0.9751  0.5316
10584SOL    HW132651   0.887   1.158   1.132  4.7220 -1.4353 -0.2728
10584SOL    HW232652   0.873   1.307   1.198 -0.3797 -1.3688 -1.0967
10585SOL     OW32653   3.640   4.885   6.285 -0.0809  0.0982  0.5308
10585SOL    HW132654   3.607   4.801   6.329 -0.1981  0.9919  2.2319
10585SOL    HW232655   3.734   4.903   6.314  0.0305  0.4264 -0.0264
10586SOL     OW32656   3.605   5.893   0.420  0.0682 -0.2651 -0.2950
10586SOL    HW132657   3.589   5.813   0.363  0.2792 -0.1735 -0.4835
10586SOL    HW232658   3.563   5.879   0.510 -2.0074  0.4102 -1.1093
10587SOL     OW32659   0.309   5.912   3.315 -0.3733 -0.5049  0.7323
10587SOL    HW132660   0.257   5.827   3.307  1.3385 -1.4683 -0.8083
10587SOL    HW232661   0.395   5.903   3.266 -0.0462  2.0689  0.7099
10588SOL     OW32662   2.897   3.911   0.411  0.0833  0.1586  0.2969
10588SOL    HW132663   2.923   3.888   0.317  1.2230 -1.2684  0.9251
10588SOL    HW232664   2.955   3.985   0.444  0.1529  0.1899  0.1083
10589SOL     OW32665   2.794   6.749   3.207 -0.0506  0.0844  0.3303
10589SOL    HW132666   2.805   6.650   3.212 -0.1959  0.0997  1.0797
10589SOL    HW232667   2.726   6.779   3.274  1.2874  0.8795  1.3910
10590SOL     OW32668   2.686   2.178   6.323  0.1669  0.5975  0.0665
10590SOL    HW132669   2.641   2.113   6.262 -0.2501  0.3148  0.6603
10590SOL    HW232670   2.726   2.252   6.270  0.5530 -0.0859 -0.6069
10591SOL     OW32671   2.540   1.500   3.845 -0.1591 -0.0132  0.1717
10591SOL    HW132672   2.506   1.461   3.759 -1.4799 -0.0991  0.7119
10591SOL    HW232673   2.494   1.588   3.861  0.0109 -0.0461  0.8328
10592SOL     OW32674   3.396   4.065   0.084 -0.3774  0.4193 -0.4901
10592SOL    HW132675   3.386   4.146   0.142  0.1486  0.1689 -0.0411
10592SOL    HW232676   3.316   4.006   0.097  0.4156 -0.3641  1.1620
10593SOL     OW32677   6.813   1.902   6.629  0.3870 -1.0818  0.0161
10593SOL    HW132678   6.806   1.974   6.698 -0.4584  0.3020 -1.4422
10593SOL    HW232679   6.751   1.827   6.651 -1.1727  0.1349 -0.1289
10594SOL     OW32680   5.386   2.682   6.088 -0.5012 -0.1759  0.4188
10594SOL    HW132681   5.408   2.773   6.055  0.3368 -0.5392 -0.0619
10594SOL    HW232682   5.417   2.614   6.022 -1.5923 -0.7924  0.5219
10595SOL     OW32683   2.053   5.319   6.064  0.3306 -0.4409  0.6543
10595SOL    HW132684   2.104   5.328   5.979 -0.4291 -0.4783  0.1905
10595SOL    HW232685   2.052   5.223   6.092 -3.2372 -1.3216 -1.7551
10596SOL     OW32686   6.448   1.251   0.958  0.1098 -0.0557  0.8351
10596SOL    HW132687   6.488   1.333   0.999 -0.5641  0.9759 -0.4801
10596SOL    HW232688   6.349   1.255   0.967 -0.0633  0.2067 -0.8244
10597SOL     OW32689   3.484   0.652   0.039  0.4565 -0.5251  0.8257
10597SOL    HW132690   3.387   0.674   0.050 -0.1574 -2.1649 -0.7961
10597SOL    HW232691   3.499   0.556   0.063  1.5644 -0.4387  0.5166
10598SOL     OW32692   1.501   3.046   5.911  0.2293 -0.0233 -0.5330
10598SOL    HW132693   1.478   3.107   5.835  1.1024 -0.3118 -1.0434
10598SOL    HW232694   1.599   3.028   5.910  0.1920 -0.3006  0.4705
10599SOL     OW32695   2.357   2.576   4.102  0.5393 -0.0602 -0.0000
10599SOL    HW132696   2.439   2.556   4.156  0.7953  2.8649  0.8953
10599SOL    HW232697   2.328   2.670   4.120 -0.7342  0.2913 -3.3053
10600SOL     OW32698   3.370   5.612   3.660 -0.0510 -0.8550  0.0746
10600SOL    HW132699   3.314   5.649   3.734 -0.0453 -0.2679 -0.2124
10600SOL    HW232700   3.466   5.636   3.675 -0.4000  2.5979 -2.0018
10601SOL     OW32701   0.730   0.441   6.424  0.2470 -0.0920  0.3624
10601SOL    HW132702   0.645   0.456   6.373 -0.1121  2.4675  1.5633
10601SOL    HW232703   0.799   0.506   6.392  0.4800  0.5423  2.0868
10602SOL     OW32704   6.251   1.355   2.532 -0.2628  0.2320  0.2463
10602SOL    HW132705   6.351   1.354   2.534 -0.1814  1.9669  3.5114
10602SOL    HW232706   6.216   1.261   2.532  1.4124 -0.4265  1.3276
10603SOL     OW32707   5.538   1.211   5.191  0.1487  0.0794  0.4743
10603SOL    HW132708   5.495   1.243   5.106 -1.7449 -1.6032  0.7208
10603SOL    HW232709   5.545   1.111   5.188  1.3424  0.1119  1.7316
10604SOL     OW32710   6.816   6.745   0.471 -0.1811  0.7240 -0.0151
10604SOL    HW132711   6.849   6.726   0.563  1.9160  0.0594 -0.8573
10604SOL    HW232712   6.843   6.838   0.445 -1.9353  1.4178  0.4820
10605SOL     OW32713   1.988   2.281   0.590  0.0816 -0.2481 -0.0719
10605SOL    HW132714   1.909   2.330   0.626  0.5917  1.1772 -0.7792
10605SOL    HW232715   2.050   2.258   0.665 -0.3143 -0.0691  0.3156
10606SOL     OW32716   6.267   3.107   3.225 -0.1903 -0.1159  0.0326
10606SOL    HW132717   6.282   3.047   3.146 -2.9891 -0.1868 -0.5257
10606SOL    HW232718   6.292   3.201   3.201  1.7757 -0.5578  0.0988
10607SOL     OW32719   2.417   5.289   4.906  0.9623 -0.2356 -0.2243
10607SOL    HW132720   2.408   5.222   4.980 -0.1881 -1.1843 -1.1641
10607SOL    HW232721   2.365   5.371   4.929 -1.9577 -1.6785 -1.1626
10608SOL     OW32722   2.750   2.371   4.838 -0.3596 -0.0927 -0.4935
10608SOL    HW132723   2.761   2.384   4.739 -2.5082  1.5513 -0.5954
10608SOL    HW232724   2.657   2.396   4.864  0.4116  0.3759  2.0884
10609SOL     OW32725   1.640   0.624   4.549 -0.4138  0.3285  0.2980
10609SOL    HW132726   1.553   0.626   4.498 -0.5606 -0.1330  0.5269
10609SOL    HW232727   1.621   0.609   4.646  0.0177 -2.4393  0.0454
10610SOL     OW32728   6.325   2.167   5.057 -0.6544 -0.2024 -0.7664
10610SOL    HW132729   6.266   2.131   4.984  1.1360 -2.7256 -1.1230
10610SOL    HW232730   6.273   2.172   5.142 -1.7535 -1.1250 -1.3456
10611SOL     OW32731   1.091   6.532   1.136 -0.4382  0.5037 -0.1690
10611SOL    HW132732   1.025   6.464   1.171 -1.2799  2.3283  2.0439
10611SOL    HW232733   1.164   6.485   1.087 -1.8070 -1.8503 -0.1172
10612SOL     OW32734   3.084   2.641   1.755 -0.6451 -0.3350 -0.0346
10612SOL    HW132735   3.021   2.590   1.812 -0.0919 -1.4054 -0.3463
10612SOL    HW232736   3.057   2.737   1.752 -2.5834 -0.8631 -0.6306
10613SOL     OW32737   1.781   2.748   3.891 -0.0239  0.3183  0.8325
10613SOL    HW132738   1.709   2.710   3.950 -0.2941  1.1174  1.0246
10613SOL    HW232739   1.867   2.754   3.942  0.1584 -0.5203  0.6411
10614SOL     OW32740   4.250   2.184   1.096 -0.3863  0.1952 -0.2721
10614SOL    HW132741   4.338   2.160   1.136  0.3703  0.7041 -1.5604
10614SOL    HW232742   4.264   2.243   1.016 -1.9737  1.4551  0.3155
10615SOL     OW32743   2.345   1.336   6.880 -0.1322 -0.2727  0.2935
10615SOL    HW132744   2.347   1.360   6.977  0.5646  1.1142 -0.0531
10615SOL    HW232745   2.328   1.238   6.871 -1.8413 -0.1593  1.7737
10616SOL     OW32746   1.464   2.168   5.863 -0.3946 -0.4184 -0.3534
10616SOL    HW132747   1.470   2.072   5.837  3.5389 -0.4460  0.0631
10616SOL    HW232748   1.484   2.225   5.784 -0.5568 -0.0165 -0.1077
10617SOL     OW32749   4.059   0.941   5.345 -0.2722  0.0986  0.2252
10617SOL    HW132750   3.997   0.925   5.268 -0.2538 -0.3145  0.2961
10617SOL    HW232751   4.133   0.873   5.343  2.1549  2.5669 -1.8696
10618SOL     OW32752   6.960   0.841   6.592 -0.0195  0.1630 -0.2540
10618SOL    HW132753   6.900   0.775   6.638 -0.7570 -0.9229 -2.6007
10618SOL    HW232754   7.053   0.804   6.587 -0.1454 -0.1230 -0.4582
10619SOL     OW32755   5.812   4.339   1.274  0.6419  0.0590  0.2467
10619SOL    HW132756   5.813   4.439   1.283 -1.0477  0.0386  0.9185
10619SOL    HW232757   5.764   4.314   1.189 -0.6516 -0.2006  1.0306
10620SOL     OW32758   0.330   5.364   2.110 -0.1051 -0.8872 -0.0402
10620SOL    HW132759   0.254   5.342   2.049  0.4120  1.0051 -1.4551
10620SOL    HW232760   0.307   5.446   2.163  0.1714 -1.4866  1.0358
10621SOL     OW32761   2.332   2.398   2.193  0.2006  0.2291  0.5173
10621SOL    HW132762   2.331   2.341   2.111 -4.4859  0.8503 -0.1338
10621SOL    HW232763   2.368   2.346   2.270  2.4722 -1.1652 -1.3599
10622SOL     OW32764   4.893   0.727   5.162 -0.7743  0.0402 -0.3469
10622SOL    HW132765   4.911   0.780   5.080 -0.1305  0.0763 -0.1868
10622SOL    HW232766   4.817   0.664   5.145 -0.1672 -0.4750 -1.2055
10623SOL     OW32767   5.167   3.289   6.518  0.0755 -0.2480 -0.0369
10623SOL    HW132768   5.258   3.328   6.528 -0.0829 -0.4123  2.6103
10623SOL    HW232769   5.098   3.357   6.541 -0.5050 -0.2022 -1.7695
10624SOL     OW32770   2.425   4.798   0.488  0.7832  0.1354  0.0307
10624SOL    HW132771   2.492   4.864   0.524 -0.8007  1.9252 -0.1551
10624SOL    HW232772   2.462   4.755   0.406  2.6657 -0.7643  1.2487
10625SOL     OW32773   5.577   5.454   5.453  0.4270 -0.0149  0.9538
10625SOL    HW132774   5.490   5.411   5.475  1.4060 -3.0793 -0.5768
10625SOL    HW232775   5.628   5.472   5.537 -0.8848  0.0921  1.7497
10626SOL     OW32776   5.969   2.334   4.262 -0.0493  0.9459 -0.1523
10626SOL    HW132777   6.009   2.281   4.337 -0.4793  2.2053  0.9959
10626SOL    HW232778   5.886   2.289   4.230 -0.3240  0.8379  0.6991
10627SOL     OW32779   4.927   1.302   4.822  0.3678 -0.0002 -0.3898
10627SOL    HW132780   4.989   1.333   4.894 -0.8030 -1.5661  1.3964
10627SOL    HW232781   4.847   1.362   4.818 -0.1025 -0.5552  0.4335
10628SOL     OW32782   5.403   6.149   0.166 -0.2832  1.0585 -0.4671
10628SOL    HW132783   5.340   6.155   0.243 -0.3351  1.1706 -0.5182
10628SOL    HW232784   5.496   6.165   0.198 -0.3306  1.3323 -0.4663
10629SOL     OW32785   1.203   6.400   2.816  0.2423 -0.2168  0.2164
10629SOL    HW132786   1.220   6.402   2.717 -2.7251  1.8260 -0.3952
10629SOL    HW232787   1.244   6.481   2.858  0.6357 -0.5586  0.4984
10630SOL     OW32788   6.121   0.569   0.131  0.5898  0.1698 -0.0776
10630SOL    HW132789   6.067   0.499   0.178 -0.3208  0.9999  0.1441
10630SOL    HW232790   6.138   0.645   0.194  0.2542  0.8283 -0.7684
10631SOL     OW32791   5.974   4.155   6.301 -0.2138  0.5054  0.3822
10631SOL    HW132792   5.975   4.132   6.204  2.0269  0.0157  0.4633
10631SOL    HW232793   5.976   4.071   6.355 -1.0716  0.7828  0.8694
10632SOL     OW32794   5.871   5.715   0.482 -0.1867  0.6540 -0.7494
10632SOL    HW132795   5.880   5.653   0.404  1.1418  1.5855 -1.3693
10632SOL    HW232796   5.952   5.772   0.489  0.4818 -0.4784  2.2912
10633SOL     OW32797   2.458   0.358   6.654 -0.0934 -0.6342  0.7113
10633SOL    HW132798   2.468   0.442   6.600 -1.2851 -0.2196  1.0951
10633SOL    HW232799   2.533   0.296   6.633  1.5616  1.0474  1.3901
10634SOL     OW32800   3.849   3.772   2.929 -0.0539 -0.4183  0.1740
10634SOL    HW132801   3.752   3.773   2.954 -0.1115 -0.4678 -0.0449
10634SOL    HW232802   3.900   3.719   2.997 -0.2357 -0.6974  0.0940
10635SOL     OW32803   6.507   1.694   6.351 -0.2612 -0.9086 -0.2158
10635SOL    HW132804   6.595   1.646   6.347 -0.1183 -0.5942 -1.1531
10635SOL    HW232805   6.522   1.791   6.368 -0.4015 -0.8024 -0.6727
10636SOL     OW32806   2.213   3.764   6.198 -0.3194  0.2184 -0.0233
10636SOL    HW132807   2.296   3.771   6.254  0.2946 -0.5703 -0.7880
10636SOL    HW232808   2.181   3.669   6.199 -0.9949  0.4417 -0.0488
10637SOL     OW32809   2.048   4.759   4.204  0.0086  0.0606  0.0277
10637SOL    HW132810   2.134   4.715   4.231 -0.4967 -0.6055  0.6096
10637SOL    HW232811   1.976   4.733   4.268 -0.3492  1.6682  0.3261
10638SOL     OW32812   6.749   1.308   2.163  0.2087 -0.1346 -0.1981
10638SOL    HW132813   6.694   1.390   2.146 -0.8583 -0.8568 -0.3530
10638SOL    HW232814   6.693   1.227   2.147  1.4172 -0.9100 -0.6267
10639SOL     OW32815   4.697   6.638   3.359 -0.2425  0.0144  0.1366
10639SOL    HW132816   4.680   6.697   3.280  0.1162  0.2111  0.2060
10639SOL    HW232817   4.656   6.548   3.343 -2.4515  0.8145  0.7807
10640SOL     OW32818   1.497   5.263   0.984  0.0709 -0.3521  0.3203
10640SOL    HW132819   1.529   5.276   0.890  1.7600  3.6236  1.2420
10640SOL    HW232820   1.570   5.223   1.040 -0.1304 -0.5941  0.4134
10641SOL     OW32821   4.994   3.518   5.185 -0.4806 -0.7055 -0.0513
10641SOL    HW132822   4.922   3.557   5.129 -0.0633  0.0723 -0.0594
10641SOL    HW232823   4.966   3.427   5.217 -0.1037 -1.9101 -2.8280
10642SOL     OW32824   0.071   6.272   2.636  0.4717 -0.0831 -0.4904
10642SOL    HW132825   0.068   6.352   2.576  0.5811  1.2703  1.2372
10642SOL    HW232826   0.166   6.242   2.646  0.5708  0.3097 -0.2242
10643SOL     OW32827   3.689   5.440   1.188  0.0241 -0.1266 -0.3084
10643SOL    HW132828   3.754   5.408   1.258  0.9309 -1.4892 -1.7146
10643SOL    HW232829   3.715   5.532   1.158 -0.0431  0.2424  0.7175
10644SOL     OW32830   3.480   1.568   3.573  0.4873 -0.0965 -0.2107
10644SOL    HW132831   3.411   1.613   3.517  1.3418 -0.2474 -1.4189
10644SOL    HW232832   3.522   1.493   3.522  0.5409 -0.9473  1.0227
10645SOL     OW32833   0.949   4.895   6.723 -0.1323  0.1134  0.2121
10645SOL    HW132834   0.964   4.808   6.675  0.7633  0.7733 -0.7479
10645SOL    HW232835   1.025   4.912   6.786  1.0955  1.4035 -1.5091
10646SOL     OW32836   1.681   5.183   1.494 -0.7932 -0.2515  0.3735
10646SOL    HW132837   1.583   5.166   1.492 -0.9983  0.8976 -1.1566
10646SOL    HW232838   1.711   5.219   1.406  1.3795 -2.3744  0.1410
10647SOL     OW32839   0.739   0.263   4.276  0.0724 -0.0471 -0.1062
10647SOL    HW132840   0.738   0.237   4.372  0.7920 -0.0561 -0.0926
10647SOL    HW232841   0.798   0.343   4.264 -1.4518  1.0966 -0.2727
10648SOL     OW32842   1.993   2.322   6.394  0.2587 -0.2631  0.6921
10648SOL    HW132843   2.008   2.372   6.479  0.8855 -1.1353  1.1208
10648SOL    HW232844   2.066   2.343   6.329  0.1175 -0.0553  0.6032
10649SOL     OW32845   5.939   6.804   4.613 -0.2391  0.3944  0.1450
10649SOL    HW132846   5.988   6.790   4.527  0.2881 -3.9410  0.8774
10649SOL    HW232847   5.856   6.747   4.614 -0.2086  0.2909  2.4575
10650SOL     OW32848   3.789   0.578   3.451 -0.3132 -0.4749 -0.3281
10650SOL    HW132849   3.785   0.663   3.400 -1.5197  0.5699  1.3935
10650SOL    HW232850   3.740   0.506   3.401  0.6608 -0.1731 -1.7604
10651SOL     OW32851   1.595   4.837   4.033 -0.1103 -1.0068  0.2785
10651SOL    HW132852   1.694   4.822   4.031  0.1201  0.4153 -1.1398
10651SOL    HW232853   1.551   4.761   4.082  1.6303 -1.8250  0.6721
10652SOL     OW32854   3.287   4.839   5.968  0.0250 -0.5090  0.2443
10652SOL    HW132855   3.376   4.873   5.997  0.4425  0.5319 -2.0266
10652SOL    HW232856   3.218   4.911   5.980 -0.1788 -0.7409  0.4763
10653SOL     OW32857   2.214   2.566   0.677  0.3877 -0.3019 -0.3519
10653SOL    HW132858   2.118   2.545   0.694  0.7556 -1.2038  0.7398
10653SOL    HW232859   2.233   2.557   0.579 -0.5756 -0.3598 -0.5436
10654SOL     OW32860   6.474   6.010   6.834  0.3254 -0.3873 -0.2386
10654SOL    HW132861   6.424   5.923   6.838  0.2780 -0.2894  2.4127
10654SOL    HW232862   6.556   6.004   6.890  0.1589  1.3910  0.2340
10655SOL     OW32863   0.581   5.786   1.156 -0.4093  0.2282 -0.6142
10655SOL    HW132864   0.510   5.844   1.117 -0.9194 -0.8339 -1.2877
10655SOL    HW232865   0.551   5.691   1.157 -0.2296  0.1280  1.9638
10656SOL     OW32866   3.957   2.259   1.831  0.1448 -0.0989 -0.5046
10656SOL    HW132867   3.871   2.252   1.882  0.2267 -0.0020 -0.3535
10656SOL    HW232868   3.943   2.317   1.751 -0.6751 -2.2926 -2.0595
10657SOL     OW32869   3.965   3.394   4.892  0.2976 -0.0507 -0.2656
10657SOL    HW132870   3.946   3.428   4.984 -1.6030 -0.7840 -0.3267
10657SOL    HW232871   3.906   3.441   4.826  0.5298 -0.6025 -0.8865
10658SOL     OW32872   0.363   1.592   4.739 -0.1510  0.4761 -0.5400
10658SOL    HW132873   0.382   1.615   4.644  1.8204 -0.2507 -0.3743
10658SOL    HW232874   0.278   1.539   4.745 -0.0782  0.1735 -1.9476
10659SOL     OW32875   1.063   4.128   3.887 -0.1627  0.0613 -0.4885
10659SOL    HW132876   0.968   4.144   3.914 -0.3985 -1.2569 -0.5123
10659SOL    HW232877   1.102   4.214   3.852 -1.1304  0.7730  0.1234
10660SOL     OW32878   3.929   0.961   2.836 -0.2440 -0.1120  0.1639
10660SOL    HW132879   4.002   1.011   2.791 -1.1034  0.7953 -0.2334
10660SOL    HW232880   3.928   0.866   2.803  1.4119 -0.4311  0.9576
10661SOL     OW32881   1.388   1.442   6.806  0.0708  0.1349 -0.1955
10661SOL    HW132882   1.427   1.508   6.870  1.2309  0.3846 -1.1170
10661SOL    HW232883   1.388   1.351   6.847  2.7837 -0.1018 -0.5466
10662SOL     OW32884   0.520   0.740   1.434  0.2246 -0.2031 -0.2973
10662SOL    HW132885   0.431   0.722   1.392 -0.7851  1.5102  0.9812
10662SOL    HW232886   0.590   0.742   1.362 -1.2222  1.2651 -1.7690
10663SOL     OW32887   0.373   6.060   5.154 -0.1313 -0.5518 -0.2852
10663SOL    HW132888   0.324   6.046   5.240  0.2182 -1.9633 -0.2871
10663SOL    HW232889   0.386   6.158   5.138 -1.2090 -0.2345  0.6881
10664SOL     OW32890   3.593   0.857   5.500 -0.1957  0.4784  0.1350
10664SOL    HW132891   3.676   0.840   5.553 -0.1182  1.6596  0.4221
10664SOL    HW232892   3.536   0.925   5.548 -0.1728  1.4999 -1.2249
10665SOL     OW32893   3.876   3.176   0.090  0.3543  0.2488  0.6241
10665SOL    HW132894   3.853   3.169  -0.007 -0.1379 -0.9468  0.8096
10665SOL    HW232895   3.940   3.252   0.104 -2.8965  3.4339 -0.0321
10666SOL     OW32896   4.320   0.418   2.310  0.6526  0.2356  0.1836
10666SOL    HW132897   4.324   0.506   2.358 -0.8457  0.2289  0.3448
10666SOL    HW232898   4.387   0.418   2.235  0.7855  1.4419  0.2857
10667SOL     OW32899   0.355   0.883   6.792 -0.6597  0.2570 -0.0450
10667SOL    HW132900   0.320   0.879   6.886  0.9085  0.3810  0.5739
10667SOL    HW232901   0.328   0.970   6.750 -0.4667  0.6757  0.6757
10668SOL     OW32902   5.916   5.696   2.671  0.3883  0.0238 -0.6326
10668SOL    HW132903   5.974   5.657   2.742 -2.0668 -0.9577  0.9396
10668SOL    HW232904   5.900   5.628   2.600  0.3424 -0.0392 -0.5613
10669SOL     OW32905   0.494   0.063   1.151  0.2378 -0.0836 -0.1444
10669SOL    HW132906   0.518   0.134   1.084  3.0852 -0.3847  0.4508
10669SOL    HW232907   0.477  -0.023   1.103  1.1751 -0.0341 -0.5869
10670SOL     OW32908   5.441   3.213   4.796 -0.3538 -0.3843 -0.3224
10670SOL    HW132909   5.353   3.167   4.805  0.4715 -2.6099 -2.3852
10670SOL    HW232910   5.477   3.234   4.886 -3.2107  1.1980  0.5961
10671SOL     OW32911   3.260   4.934   1.566  0.5426 -0.3361 -0.4138
10671SOL    HW132912   3.181   4.992   1.586  1.0699  0.3147 -0.1867
10671SOL    HW232913   3.297   4.958   1.476  0.4296 -0.7102 -0.5645
10672SOL     OW32914   1.701   5.665   0.848 -0.0099  0.4574  0.2542
10672SOL    HW132915   1.721   5.762   0.833  4.2330  0.1703  2.5915
10672SOL    HW232916   1.646   5.655   0.931  1.8211  0.9014  1.5992
10673SOL     OW32917   4.678   0.795   3.852 -0.3497  0.4971  0.4695
10673SOL    HW132918   4.651   0.707   3.815  1.2704  1.0370 -2.3259
10673SOL    HW232919   4.724   0.782   3.940 -2.0532 -1.1645  1.1666
10674SOL     OW32920   4.844   1.066   4.668  0.6643  0.2027  0.3500
10674SOL    HW132921   4.819   1.010   4.747 -1.8048  1.8915  0.8725
10674SOL    HW232922   4.873   1.157   4.699 -2.2081  1.5678 -0.6331
10675SOL     OW32923   6.737   0.967   4.820 -0.8608 -0.2099  0.2863
10675SOL    HW132924   6.710   1.014   4.904  0.2094  1.5723 -0.3048
10675SOL    HW232925   6.776   1.033   4.756 -0.2086 -1.7790 -1.0113
10676SOL     OW32926   2.986   5.972   6.554  0.3112 -0.2119 -0.0210
10676SOL    HW132927   3.023   5.882   6.578  0.7002  0.1134  0.6534
10676SOL    HW232928   3.061   6.036   6.540  0.1482 -0.5848 -3.1314
10677SOL     OW32929   1.185   2.705   6.013  0.2429  0.6420 -0.5131
10677SOL    HW132930   1.102   2.656   5.985  0.4457  0.4680 -0.8242
10677SOL    HW232931   1.254   2.639   6.045  0.4406  0.7381 -0.7346
10678SOL     OW32932   2.225   5.019   0.468  0.0020 -0.3456 -0.0092
10678SOL    HW132933   2.263   4.926   0.471  0.4698 -0.1743 -0.4269
10678SOL    HW232934   2.278   5.079   0.528 -0.7034 -0.4830  0.7685
10679SOL     OW32935   5.383   0.050   6.929 -0.5939  0.2810 -0.4209
10679SOL    HW132936   5.382  -0.013   6.851 -2.9887  0.7271 -0.8314
10679SOL    HW232937   5.434   0.132   6.904 -0.4327 -0.0266 -1.1454
10680SOL     OW32938   6.274   4.694   4.973  0.1673 -0.3479 -0.4596
10680SOL    HW132939   6.223   4.638   4.908  2.3142 -1.7446 -1.0590
10680SOL    HW232940   6.344   4.746   4.924 -2.3803  3.9068 -0.1124
10681SOL     OW32941   3.809   5.104   1.323 -0.2044 -0.2982 -0.1737
10681SOL    HW132942   3.756   5.146   1.396 -0.5627  0.4300 -0.8358
10681SOL    HW232943   3.836   5.011   1.349  1.3138  0.6044  1.6647
10682SOL     OW32944   2.096   1.277   1.235 -0.3151  1.0486  0.1219
10682SOL    HW132945   2.060   1.344   1.170 -2.8386 -0.2492  0.0264
10682SOL    HW232946   2.024   1.253   1.300  1.1168 -0.1612  1.3320
10683SOL     OW32947   3.320   1.681   1.397 -0.1540  0.2175 -0.1719
10683SOL    HW132948   3.363   1.758   1.444 -0.2357 -0.7201  1.5310
10683SOL    HW232949   3.375   1.599   1.410  0.9474  0.2676 -3.5544
10684SOL     OW32950   0.897   5.072   0.838 -0.5225 -0.4265  0.6619
10684SOL    HW132951   0.957   5.011   0.890 -0.5138 -0.4994  0.5668
10684SOL    HW232952   0.826   5.019   0.792  0.7628 -0.6515 -1.2072
10685SOL     OW32953   3.335   5.028   6.368 -0.6969  0.3523 -0.3794
10685SOL    HW132954   3.364   5.092   6.298 -0.2117 -0.9032 -1.3589
10685SOL    HW232955   3.266   5.071   6.426  0.2221  2.0293 -0.4791
10686SOL     OW32956   2.046   4.284   5.135 -0.0266  0.6618 -0.4140
10686SOL    HW132957   2.053   4.188   5.162 -0.0759  0.7692 -0.0140
10686SOL    HW232958   1.953   4.316   5.150  0.0525  0.8431 -0.3151
10687SOL     OW32959   0.655   6.735   6.427  0.5509  0.1185 -0.0200
10687SOL    HW132960   0.730   6.673   6.450 -0.4960 -1.3779 -0.5052
10687SOL    HW232961   0.621   6.778   6.511  0.6280 -0.7390  0.4563
10688SOL     OW32962   6.544   1.225   5.881 -0.3832  0.4191 -0.3356
10688SOL    HW132963   6.605   1.233   5.959  1.2498  0.3374 -1.5461
10688SOL    HW232964   6.471   1.160   5.901 -0.7768  1.3848  1.5579
10689SOL     OW32965   4.785   2.014   2.224  0.1387  0.0901 -0.4191
10689SOL    HW132966   4.715   2.028   2.294  1.2468  2.6015  0.3036
10689SOL    HW232967   4.849   1.944   2.254 -0.0652  0.3002  0.5266
10690SOL     OW32968   2.178   5.963   4.589  0.8629  0.0688  0.5808
10690SOL    HW132969   2.117   6.015   4.529 -0.5078 -0.8514  1.1277
10690SOL    HW232970   2.239   6.025   4.637 -0.0225  1.0827  0.4221
10691SOL     OW32971   4.385   6.249   5.923  0.3765  0.0630  0.1673
10691SOL    HW132972   4.460   6.214   5.866  2.7725  3.8428  0.5993
10691SOL    HW232973   4.421   6.271   6.014 -0.8054  3.1956 -0.0017
10692SOL     OW32974   6.917   2.085   2.740  0.4113 -0.6506 -0.2744
10692SOL    HW132975   6.868   2.111   2.657  0.2693 -1.7450 -0.5411
10692SOL    HW232976   7.013   2.066   2.718  1.0584  1.5731  0.2586
10693SOL     OW32977   5.486   3.512   5.534  0.3004  0.4620  0.1770
10693SOL    HW132978   5.503   3.610   5.523 -3.6994  1.2109 -0.5754
10693SOL    HW232979   5.471   3.491   5.631  0.2633  0.7485  0.2330
10694SOL     OW32980   3.691   3.220   3.399 -0.7974  0.1998  0.4630
10694SOL    HW132981   3.759   3.172   3.454 -1.3381  1.6085  2.4373
10694SOL    HW232982   3.630   3.153   3.356 -0.5836 -0.9554  1.8843
10695SOL     OW32983   1.067   5.171   6.309 -0.6507  0.5189  0.9206
10695SOL    HW132984   1.113   5.207   6.228 -0.8576  0.5692  0.8246
10695SOL    HW232985   0.968   5.172   6.294 -0.7173  0.9720  1.3555
10696SOL     OW32986   6.427   1.628   0.602 -0.1121 -0.5141  0.0211
10696SOL    HW132987   6.407   1.636   0.700 -0.0002  0.8913 -0.0617
10696SOL    HW232988   6.469   1.539   0.585 -1.0701 -1.2017  1.0822
10697SOL     OW32989   6.300   1.506   5.009 -0.3161  0.1070 -0.3048
10697SOL    HW132990   6.322   1.584   5.069 -0.4088 -0.7225  0.8488
10697SOL    HW232991   6.373   1.493   4.943  0.5194  0.1485  0.5893
10698SOL     OW32992   3.040   4.034   4.889 -0.3260 -0.0023  0.0600
10698SOL    HW132993   3.004   3.952   4.845  0.7618 -0.1928 -0.5143
10698SOL    HW232994   3.068   4.100   4.820  0.7102  0.0065  0.4654
10699SOL     OW32995   1.141   6.175   3.985 -0.4044 -0.1406 -0.1836
10699SOL    HW132996   1.173   6.132   4.069  0.6801 -0.2727 -0.6515
10699SOL    HW232997   1.068   6.120   3.945  0.6357 -1.3210 -0.5176
10700SOL     OW32998   4.804   7.008   3.918 -0.2766 -0.2642 -0.0681
10700SOL    HW132999   4.707   7.002   3.942 -0.6479 -1.1120 -1.6500
10700SOL    HW233000   4.827   7.103   3.898 -0.7335 -0.0311  0.4709
10701SOL     OW33001   0.437   3.496   1.427  0.2093  0.2661  0.5359
10701SOL    HW133002   0.531   3.515   1.453  0.3703  1.1446 -0.6482
10701SOL    HW233003   0.381   3.488   1.510  0.7772  2.6097  1.2149
10702SOL     OW33004   5.993   6.618   1.581  0.1104  0.5697 -0.2981
10702SOL    HW133005   5.992   6.668   1.495  0.8321  0.9193 -0.1111
10702SOL    HW233006   6.014   6.522   1.564 -0.5171  0.4736 -0.5805
10703SOL     OW33007   3.919   1.590   6.776 -0.0866 -0.3140  0.0515
10703SOL    HW133008   3.837   1.538   6.753  0.6701 -1.8617  0.6396
10703SOL    HW233009   3.946   1.568   6.870 -0.5067  2.2652  0.8541
10704SOL     OW33010   6.704   6.011   1.876  0.9166  0.2229  0.1948
10704SOL    HW133011   6.714   6.100   1.831 -1.3861  0.1762 -0.5353
10704SOL    HW233012   6.641   6.020   1.953  0.4568 -0.8291 -0.0487
10705SOL     OW33013   5.118   1.730   3.036  0.0863 -0.6272  0.7238
10705SOL    HW133014   5.200   1.746   3.090  0.1294 -0.2741  0.5548
10705SOL    HW233015   5.118   1.636   3.002  1.7223  0.0984 -1.4781
10706SOL     OW33016   0.963   3.779   0.552 -0.0977  0.7425 -0.1991
10706SOL    HW133017   0.905   3.855   0.580 -2.5022 -0.4677 -1.6416
10706SOL    HW233018   0.941   3.752   0.459  1.9843 -0.5772 -0.3698
10707SOL     OW33019   6.744   3.348   2.477 -0.1045 -0.1869 -0.1145
10707SOL    HW133020   6.835   3.391   2.479 -0.6329  0.9687 -0.2768
10707SOL    HW233021   6.675   3.416   2.453 -0.9531 -1.1811 -0.5997
10708SOL     OW33022   6.093   5.655   5.973  0.0172  0.2449 -0.6601
10708SOL    HW133023   6.082   5.592   5.897 -0.0496  1.5569 -1.7761
10708SOL    HW233024   6.057   5.613   6.057 -0.3802 -1.0189 -1.4337
10709SOL     OW33025   6.104   3.208   1.730 -0.1753  0.1672 -0.2767
10709SOL    HW133026   6.138   3.129   1.780  0.8757  0.2038 -0.8838
10709SOL    HW233027   6.016   3.237   1.767 -0.0135 -0.5634  0.7064
10710SOL     OW33028   2.865   0.808   2.350 -0.0880 -0.1538  0.0886
10710SOL    HW133029   2.877   0.781   2.254  0.2031  1.5784 -0.4010
10710SOL    HW233030   2.948   0.787   2.401 -0.3528 -1.3658  0.0653
10711SOL     OW33031   3.001   2.763   5.946 -0.1707 -0.4334  0.0722
10711SOL    HW133032   3.035   2.688   6.002 -1.4890 -0.8612  0.3495
10711SOL    HW233033   3.077   2.815   5.909  0.7461 -0.8229  1.3534
10712SOL     OW33034   3.706   2.317   0.175 -0.4078 -0.5384  0.7466
10712SOL    HW133035   3.770   2.290   0.102 -1.5438 -1.0740 -0.0723
10712SOL    HW233036   3.626   2.361   0.136 -0.6424 -0.0381  1.7505
10713SOL     OW33037   6.305   5.754   5.316 -0.0621  0.0319  0.0975
10713SOL    HW133038   6.307   5.654   5.312 -0.4912 -0.0379  1.2524
10713SOL    HW233039   6.350   5.785   5.400 -0.2237  0.8013 -0.0904
10714SOL     OW33040   4.894   5.861   6.072  0.6025  0.1028  0.3212
10714SOL    HW133041   4.796   5.848   6.055  0.7740 -0.5714 -0.1844
10714SOL    HW233042   4.945   5.783   6.035  1.1232 -0.8092  2.7771
10715SOL     OW33043   4.583   4.905   0.625  0.2329  0.0137  0.4003
10715SOL    HW133044   4.487   4.911   0.596  0.9626  2.7658 -1.8706
10715SOL    HW233045   4.640   4.879   0.547  1.6060  1.0600  1.0076
10716SOL     OW33046   5.172   0.958   2.352  0.2035  0.2029  0.5748
10716SOL    HW133047   5.126   1.009   2.425 -0.0388  1.2764 -0.3064
10716SOL    HW233048   5.120   0.967   2.267  0.3991 -1.1684  0.2921
10717SOL     OW33049   2.160   0.956   3.131 -0.3843 -0.6452  0.5181
10717SOL    HW133050   2.208   1.021   3.190 -0.0368 -0.9926  0.6174
10717SOL    HW233051   2.111   1.006   3.059  1.8329 -0.3659 -0.8907
10718SOL     OW33052   5.369   0.483   3.350 -0.5040 -0.4083  0.3482
10718SOL    HW133053   5.329   0.470   3.259  1.0900  1.1225 -0.6433
10718SOL    HW233054   5.421   0.569   3.351  2.0478 -1.8627  1.7665
10719SOL     OW33055   2.280   4.240   2.897 -0.3269  0.3588  0.6013
10719SOL    HW133056   2.317   4.299   2.969  0.6678 -0.7530  1.0292
10719SOL    HW233057   2.334   4.252   2.813  2.5159 -2.7493  1.7870
10720SOL     OW33058   0.347   0.545   6.691  0.4370  0.4785  0.2877
10720SOL    HW133059   0.303   0.469   6.643  0.5171  1.3853 -1.2695
10720SOL    HW233060   0.442   0.519   6.712  1.2329  0.9322 -2.3453
10721SOL     OW33061   6.244   2.203   2.482  0.7508 -0.0290  0.2140
10721SOL    HW133062   6.220   2.131   2.416 -0.4591  1.0652 -0.6154
10721SOL    HW233063   6.181   2.199   2.559 -0.5762  1.2655 -0.7434
10722SOL     OW33064   6.431   3.424   1.289 -0.4966 -0.4796 -0.0912
10722SOL    HW133065   6.351   3.479   1.314 -0.2573 -0.3673  0.4456
10722SOL    HW233066   6.402   3.345   1.235 -1.0336 -0.7510  0.5857
10723SOL     OW33067   3.137   6.826   4.105 -0.0703 -0.0248  0.1628
10723SOL    HW133068   3.039   6.829   4.086 -0.2799 -1.0506  0.9930
10723SOL    HW233069   3.181   6.759   4.044 -0.1025 -0.4962  0.6534
10724SOL     OW33070   6.345   3.170   1.999  0.1844  0.6315 -0.2039
10724SOL    HW133071   6.276   3.110   1.959 -0.0897  1.0799 -0.4127
10724SOL    HW233072   6.435   3.127   1.993 -0.1385 -0.1782  0.5190
10725SOL     OW33073   5.929   1.456   4.716  0.0701 -0.3082 -0.2111
10725SOL    HW133074   5.964   1.465   4.809  0.1078 -1.9914 -0.0298
10725SOL    HW233075   5.897   1.363   4.701 -0.6846  0.1462 -1.6433
10726SOL     OW33076   5.239   1.416   6.374  0.2605  0.7396 -0.5826
10726SOL    HW133077   5.303   1.381   6.307  0.9841  1.7875 -0.4601
10726SOL    HW233078   5.198   1.340   6.424  1.0453  0.0377 -0.9911
10727SOL     OW33079   1.923   5.180   2.992 -0.8057  0.2202  0.0174
10727SOL    HW133080   1.879   5.182   2.903  0.0688  1.9607 -0.4257
10727SOL    HW233081   1.961   5.089   3.009 -0.9538 -0.1203 -1.3966
10728SOL     OW33082   4.166   4.000   0.164  0.1132  0.6289  0.1671
10728SOL    HW133083   4.237   3.980   0.231 -0.0846  0.7486  0.4130
10728SOL    HW233084   4.131   4.093   0.179 -0.1918  0.5210  0.1329
10729SOL     OW33085   5.224   5.865   4.732  0.2843 -0.1964 -0.6188
10729SOL    HW133086   5.256   5.874   4.827  0.7130 -1.7169 -0.5804
10729SOL    HW233087   5.129   5.835   4.732  0.9236 -2.3985 -0.5825
10730SOL     OW33088   6.326   1.271   4.395  0.2022 -0.3933 -0.0259
10730SOL    HW133089   6.335   1.236   4.301 -1.4177 -0.8209 -0.0448
10730SOL    HW233090   6.230   1.267   4.423  0.6508 -0.1566  1.6216
10731SOL     OW33091   2.476   3.849   5.547 -0.5993 -0.0393  0.4115
10731SOL    HW133092   2.556   3.868   5.603  0.2373  2.7037 -1.4924
10731SOL    HW233093   2.404   3.914   5.569 -1.2709 -0.6747  0.1471
10732SOL     OW33094   3.026   5.317   0.628  0.1091 -0.1953 -0.4693
10732SOL    HW133095   2.931   5.334   0.600  0.3540  1.2108 -0.5297
10732SOL    HW233096   3.075   5.404   0.633  0.0723 -0.2029  4.5980
10733SOL     OW33097   6.835   0.654   0.326 -0.3296  0.3859  0.4575
10733SOL    HW133098   6.746   0.612   0.341 -0.8526  1.0516 -0.6340
10733SOL    HW233099   6.837   0.696   0.235  0.7759  1.1798  0.8218
10734SOL     OW33100   3.794   0.371   4.003  0.0968 -0.0706 -0.0990
10734SOL    HW133101   3.776   0.465   4.031  1.6805 -0.2559  1.7182
10734SOL    HW233102   3.891   0.360   3.981 -0.2725 -1.0459 -1.4325
10735SOL     OW33103   0.720   6.674   0.486 -0.1077 -0.1533  0.3328
10735SOL    HW133104   0.647   6.697   0.551  0.6532  0.3194  1.0405
10735SOL    HW233105   0.796   6.631   0.535  0.4606  0.1565 -0.2595
10736SOL     OW33106   1.060   3.835   2.106 -0.0333 -0.4646  0.4132
10736SOL    HW133107   1.093   3.865   2.195 -0.0658  1.9825 -0.3208
10736SOL    HW233108   1.134   3.789   2.057  0.6231  0.0506  0.9024
10737SOL     OW33109   4.538   2.020   2.918  0.3466  0.1706 -0.1237
10737SOL    HW133110   4.488   2.033   2.832  0.8981  1.0591 -0.3227
10737SOL    HW233111   4.624   1.973   2.898  0.5337  0.4927 -0.0797
10738SOL     OW33112   3.319   0.366   5.997 -0.2077 -0.4004  0.0941
10738SOL    HW133113   3.377   0.285   5.989 -1.4380 -1.2377 -0.7782
10738SOL    HW233114   3.326   0.404   6.089  2.0891 -0.1513 -0.1238
10739SOL     OW33115   5.393   2.670   5.777  0.8386 -0.1599 -0.1952
10739SOL    HW133116   5.478   2.698   5.733  1.2380  0.7740  1.1196
10739SOL    HW233117   5.374   2.574   5.756  2.3627 -0.4556 -0.2827
10740SOL     OW33118   1.635   1.143   1.753  0.0344 -0.4426  0.0684
10740SOL    HW133119   1.607   1.189   1.837 -0.2543 -0.5630  0.0380
10740SOL    HW233120   1.652   1.046   1.772 -0.1515 -0.4962 -0.0373
10741SOL     OW33121   1.156   0.033   2.324  0.1682  0.5594  0.0383
10741SOL    HW133122   1.168   0.041   2.423  1.8240  1.7462 -0.2175
10741SOL    HW233123   1.135  -0.062   2.301  1.4401 -0.0931  1.3826
10742SOL     OW33124   6.103   6.553   3.231 -0.4462  0.3169 -0.7992
10742SOL    HW133125   6.105   6.570   3.133 -1.3770  0.2107 -0.8449
10742SOL    HW233126   6.081   6.638   3.280 -1.5994  0.0337 -0.7988
10743SOL     OW33127   4.395   0.149   4.350  0.4272  0.3363 -0.4528
10743SOL    HW133128   4.327   0.206   4.395 -0.7179 -0.6554 -0.8683
10743SOL    HW233129   4.354   0.102   4.272  1.8303  0.3974 -1.2769
10744SOL     OW33130   0.223   0.513   6.370  0.3261 -0.0007 -0.2202
10744SOL    HW133131   0.156   0.580   6.338  0.8318  0.5011 -0.2375
10744SOL    HW233132   0.177   0.426   6.388 -0.0568 -0.1809 -1.9132
10745SOL     OW33133   0.116   1.809   1.122  0.1120 -0.0776 -0.3267
10745SOL    HW133134   0.178   1.740   1.160 -0.1055  0.5404  1.2272
10745SOL    HW233135   0.149   1.838   1.033  0.9432 -1.2113 -0.4104
10746SOL     OW33136   5.672   1.626   1.116  0.4484  0.3135 -0.0836
10746SOL    HW133137   5.615   1.552   1.081  0.9934  0.1300 -0.5878
10746SOL    HW233138   5.613   1.704   1.142 -0.1021 -0.1930  0.2223
10747SOL     OW33139   2.316   3.173   0.460 -0.0232 -0.8877 -0.2452
10747SOL    HW133140   2.223   3.148   0.431  0.5626 -1.1648 -1.9970
10747SOL    HW233141   2.382   3.125   0.404  1.1760  1.0015 -0.5540
10748SOL     OW33142   2.736   0.190   5.229 -0.2615  0.1062  0.1610
10748SOL    HW133143   2.774   0.242   5.153 -0.5138  0.0591 -0.0002
10748SOL    HW233144   2.743   0.092   5.209 -0.3860  0.0954  0.1670
10749SOL     OW33145   2.110   1.377   4.129  0.7310 -0.9338 -0.3898
10749SOL    HW133146   2.059   1.454   4.092 -0.1630 -1.0933  0.4906
10749SOL    HW233147   2.207   1.388   4.108  0.3504 -0.7308 -2.2831
10750SOL     OW33148   6.141   2.290   5.626 -0.3553 -0.4677 -0.6766
10750SOL    HW133149   6.183   2.306   5.715  0.2540  1.6619 -1.3060
10750SOL    HW233150   6.058   2.235   5.638  0.1898 -0.9798  1.0709
10751SOL     OW33151   7.002   2.983   5.826  0.8137  0.0430  0.1870
10751SOL    HW133152   7.048   2.898   5.849  1.0400  0.2486  0.5089
10751SOL    HW233153   6.990   3.038   5.909  0.4571  0.2199  0.0210
10752SOL     OW33154   4.789   1.263   2.423 -0.9903 -0.4051 -0.3404
10752SOL    HW133155   4.760   1.309   2.339  0.2543 -0.1967 -0.6627
10752SOL    HW233156   4.864   1.313   2.465  0.5677 -2.2467 -0.8170
10753SOL     OW33157   2.748   6.331   6.318  0.5645  0.1809  0.3142
10753SOL    HW133158   2.787   6.397   6.253  2.9760 -2.3665 -1.0159
10753SOL    HW233159   2.669   6.286   6.276 -1.4317  2.4290  1.4284
10754SOL     OW33160   1.114   4.288   0.336 -0.1454  0.9070  0.1291
10754SOL    HW133161   1.212   4.270   0.349 -0.3274  0.6128  1.2991
10754SOL    HW233162   1.094   4.383   0.360 -0.7192 -0.0061  3.9679
10755SOL     OW33163   4.136   0.857   0.943 -0.0963 -0.2760 -0.0630
10755SOL    HW133164   4.227   0.881   0.975  0.3277 -0.9337 -0.7277
10755SOL    HW233165   4.124   0.890   0.849 -0.6400  0.0317  0.1093
10756SOL     OW33166   5.301   6.408   1.550  0.1693 -0.1074 -0.2686
10756SOL    HW133167   5.302   6.477   1.623 -1.5808 -0.0008 -0.3009
10756SOL    HW233168   5.359   6.331   1.576  0.0285  0.1839  0.9826
10757SOL     OW33169   3.434   3.951   5.010 -0.2959  0.2490 -0.4447
10757SOL    HW133170   3.485   3.876   5.052  0.5333  1.3163  0.5216
10757SOL    HW233171   3.410   3.926   4.916 -0.6503 -1.4895  0.0672
10758SOL     OW33172   4.731   6.058   7.012  0.1135 -0.1125 -0.6254
10758SOL    HW133173   4.656   6.117   6.981  0.3158  0.0551 -0.8045
10758SOL    HW233174   4.813   6.113   7.025 -0.0095 -0.1524  0.3829
10759SOL     OW33175   3.762   2.960   3.208 -0.1542  0.2977 -0.8269
10759SOL    HW133176   3.711   2.904   3.143  0.3908  0.4824 -1.4314
10759SOL    HW233177   3.740   2.932   3.301 -0.6355 -0.2495 -1.0977
10760SOL     OW33178   4.352   1.205   1.578 -0.3403 -0.9197 -0.3120
10760SOL    HW133179   4.402   1.174   1.659  0.1541 -0.7532 -0.5492
10760SOL    HW233180   4.260   1.165   1.579 -0.1289 -1.4188  0.0112
10761SOL     OW33181   3.750   1.306   4.493  0.1972  0.5264 -0.0274
10761SOL    HW133182   3.808   1.281   4.415  1.9883  0.0286  1.4046
10761SOL    HW233183   3.759   1.237   4.564 -0.6355  1.4693  1.0190
10762SOL     OW33184   2.483   6.270   6.679 -0.0225 -0.1760 -0.5590
10762SOL    HW133185   2.497   6.365   6.705  3.6067 -0.4992 -0.8862
10762SOL    HW233186   2.460   6.216   6.760  0.2344  0.6030  0.0486
10763SOL     OW33187   0.955   0.600   2.643  0.4725 -0.0384  0.4673
10763SOL    HW133188   1.019   0.648   2.703 -1.0643  0.4880  1.7617
10763SOL    HW233189   0.993   0.511   2.619  2.2721  0.7915  0.0614
10764SOL     OW33190   6.179   1.768   3.201 -0.0685  0.3226 -0.2929
10764SOL    HW133191   6.244   1.828   3.247 -0.4749 -0.6281  1.6149
10764SOL    HW233192   6.225   1.681   3.179 -0.9840 -0.9853  2.5113
10765SOL     OW33193   1.762   1.685   3.202  0.4277 -0.3768  0.3648
10765SOL    HW133194   1.856   1.718   3.205 -0.1300  1.2452  1.4031
10765SOL    HW233195   1.699   1.759   3.228 -1.2303 -1.0917 -1.3578
10766SOL     OW33196   3.204   5.244   4.872 -0.1156 -0.0285 -0.0819
10766SOL    HW133197   3.221   5.149   4.847  1.3434  0.2431 -0.1964
10766SOL    HW233198   3.158   5.247   4.961  0.9254 -0.8247  0.5071
10767SOL     OW33199   6.336   4.145   3.812  0.1392 -0.1586 -0.5864
10767SOL    HW133200   6.284   4.062   3.831 -0.8528  0.6963  0.4891
10767SOL    HW233201   6.404   4.159   3.884  0.9054 -0.4810 -1.2250
10768SOL     OW33202   2.923   4.790   3.492 -0.2879 -0.0272  0.2286
10768SOL    HW133203   2.969   4.722   3.548 -1.1834 -0.6389  0.2444
10768SOL    HW233204   2.832   4.756   3.465  0.1447  0.1896 -1.6680
10769SOL     OW33205   1.433   1.477   4.957 -0.2046  0.0812  0.0740
10769SOL    HW133206   1.379   1.498   5.038 -0.0775  0.2962  0.1044
10769SOL    HW233207   1.517   1.532   4.958  0.1841 -0.5119  0.2092
10770SOL     OW33208   3.605   6.697   6.893  0.3792  0.0085  0.3071
10770SOL    HW133209   3.688   6.667   6.941  0.7166 -2.2903 -1.5395
10770SOL    HW233210   3.537   6.625   6.896  0.4025 -0.2423 -2.5462
10771SOL     OW33211   0.830   6.316   3.201  0.1753  0.6643 -0.5023
10771SOL    HW133212   0.841   6.287   3.106  2.0512  2.4305 -0.8930
10771SOL    HW233213   0.905   6.278   3.256  0.7386  1.9731 -0.3440
10772SOL     OW33214   2.883   1.094   1.620  0.0793  0.0195  0.0715
10772SOL    HW133215   2.969   1.141   1.601  1.3094 -1.7133  1.0434
10772SOL    HW233216   2.882   1.062   1.715 -1.7670  0.2015  0.1648
10773SOL     OW33217   4.955   0.576   0.991  0.2335  0.2613 -0.2748
10773SOL    HW133218   4.901   0.495   1.013  0.9594 -0.8992 -2.4160
10773SOL    HW233219   4.965   0.583   0.891  2.2635  1.5883 -0.0369
10774SOL     OW33220   4.763   5.610   6.744  0.1317 -0.4885  0.1512
10774SOL    HW133221   4.780   5.562   6.830  1.2105  0.2386  0.3659
10774SOL    HW233222   4.804   5.559   6.669 -0.8245 -1.1326  0.0558
10775SOL     OW33223   4.184   2.467   6.747  0.4086 -0.2295 -0.4852
10775SOL    HW133224   4.125   2.392   6.717  0.1197 -0.1844 -0.0384
10775SOL    HW233225   4.199   2.461   6.846  1.2708 -0.3223 -0.6142
10776SOL     OW33226   6.472   5.377   3.294 -0.4081  0.0170  0.1218
10776SOL    HW133227   6.438   5.416   3.380 -0.4650  1.9084 -0.7180
10776SOL    HW233228   6.445   5.280   3.289 -4.9228  1.0592 -0.0066
10777SOL     OW33229   0.361   1.419   6.157 -0.1275  0.1067 -0.0141
10777SOL    HW133230   0.319   1.430   6.247  0.9432 -1.6371  0.7589
10777SOL    HW233231   0.456   1.391   6.168 -0.8263 -3.3980 -1.5903
10778SOL     OW33232   3.271   6.060   6.080  0.5101 -0.3356  0.3656
10778SOL    HW133233   3.260   5.981   6.140 -0.7316 -1.0581 -0.7353
10778SOL    HW233234   3.236   6.037   5.989  0.1716  1.4700 -0.0023
10779SOL     OW33235   3.663   5.553   3.249 -0.3865  0.4592  0.3072
10779SOL    HW133236   3.584   5.564   3.308  0.0058  2.3956  0.5257
10779SOL    HW233237   3.693   5.458   3.251 -1.6519  0.0556  1.5437
10780SOL     OW33238   2.548   6.138   5.286 -0.1763 -0.2801 -0.7483
10780SOL    HW133239   2.518   6.054   5.241 -0.4273 -0.7462  0.2579
10780SOL    HW233240   2.504   6.145   5.376 -0.1877  0.9509 -0.8360
10781SOL     OW33241   3.845   5.143   3.774  0.1263  0.0043  0.2328
10781SOL    HW133242   3.835   5.189   3.862 -1.1548  0.8866 -0.3466
10781SOL    HW233243   3.935   5.163   3.735 -0.5241  2.4458 -0.1918
10782SOL     OW33244   5.457   4.953   3.385  0.2178  0.5233  0.1544
10782SOL    HW133245   5.542   4.996   3.415 -0.3129  0.9588  1.0795
10782SOL    HW233246   5.459   4.941   3.286  1.7416 -0.3530  0.2680
10783SOL     OW33247   2.698   4.099   6.917  0.2768 -0.1058  1.1289
10783SOL    HW133248   2.644   4.115   7.000 -0.5248  1.4099  0.3586
10783SOL    HW233249   2.690   4.178   6.857  1.8615 -0.6552  0.1462
10784SOL     OW33250   2.470   2.217   3.705  0.4285 -0.3066  0.0046
10784SOL    HW133251   2.566   2.234   3.684  0.1785  0.0243 -0.9279
10784SOL    HW233252   2.431   2.296   3.753  0.4383 -0.1238 -0.2831
10785SOL     OW33253   4.435   1.337   5.512  0.1235  0.5424 -0.3197
10785SOL    HW133254   4.414   1.310   5.418 -0.7079 -0.4256  0.1280
10785SOL    HW233255   4.451   1.436   5.516  0.6013  0.5255 -1.5429
10786SOL     OW33256   4.939   0.316   1.593  0.2742  0.2728  1.1250
10786SOL    HW133257   5.014   0.314   1.659  1.2137  1.4602  0.1346
10786SOL    HW233258   4.873   0.385   1.620  0.8562  1.0326  0.6356
10787SOL     OW33259   5.206   4.703   3.218  0.4877  0.7061  0.4374
10787SOL    HW133260   5.285   4.760   3.193  0.0736  0.5250 -1.4210
10787SOL    HW233261   5.200   4.625   3.156 -1.5939  1.1394  0.0082
10788SOL     OW33262   3.269   4.335   0.701 -0.5455  0.2791  0.0213
10788SOL    HW133263   3.189   4.391   0.723 -0.9086 -0.0010 -0.5711
10788SOL    HW233264   3.311   4.369   0.616 -0.9789 -0.5647 -0.5364
10789SOL     OW33265   3.545   5.836   5.153 -0.2616  0.1324  0.0491
10789SOL    HW133266   3.563   5.856   5.057  0.1733  1.4637  0.3950
10789SOL    HW233267   3.619   5.780   5.190  0.7613  1.5150  0.1800
10790SOL     OW33268   3.042   4.664   5.543 -0.1123  0.0615  0.2171
10790SOL    HW133269   3.003   4.584   5.498 -1.7102  0.7740  0.2798
10790SOL    HW233270   3.138   4.646   5.566 -0.5898 -2.0618  0.7702
10791SOL     OW33271   2.788   2.747   5.337  0.4103 -0.6344  0.2539
10791SOL    HW133272   2.706   2.723   5.285  0.4783 -1.6533  0.6062
10791SOL    HW233273   2.858   2.677   5.323  0.5307 -0.7796  1.4936
10792SOL     OW33274   4.767   4.557   2.038  0.3103 -0.2841 -0.2367
10792SOL    HW133275   4.861   4.537   2.013  1.0418 -0.9627  2.7800
10792SOL    HW233276   4.708   4.482   2.008  1.1144 -1.0496  0.0581
10793SOL     OW33277   6.203   3.834   4.147 -0.1250  0.3871  0.1668
10793SOL    HW133278   6.159   3.764   4.203  0.1387  1.1247  1.3243
10793SOL    HW233279   6.294   3.854   4.184  0.7661 -0.3057 -1.5255
10794SOL     OW33280   3.408   1.156   4.687 -0.1785  0.2443  0.0051
10794SOL    HW133281   3.445   1.089   4.622  0.9247 -0.6138  1.4686
10794SOL    HW233282   3.312   1.136   4.705  0.0451 -0.7198  0.1482
10795SOL     OW33283   0.688   4.265   5.529 -0.2912 -0.3962  0.3015
10795SOL    HW133284   0.643   4.344   5.487  0.4397 -0.5457 -0.7776
10795SOL    HW233285   0.783   4.286   5.548 -0.7794 -0.0472  2.6845
10796SOL     OW33286   2.168   3.187   1.241 -0.0737  0.2345 -0.0592
10796SOL    HW133287   2.265   3.160   1.240 -0.1481 -0.0281 -0.9134
10796SOL    HW233288   2.119   3.131   1.307  0.4847  0.8455  0.8997
10797SOL     OW33289   5.023   6.755   6.893 -0.1343 -0.1960 -0.3410
10797SOL    HW133290   5.036   6.678   6.831  1.7040 -0.1180 -0.1124
10797SOL    HW233291   5.059   6.732   6.983 -0.4884  0.5784  0.0114
10798SOL     OW33292   5.065   0.808   1.044 -0.2331 -0.2477  0.0955
10798SOL    HW133293   5.023   0.720   1.020  2.3443 -1.3040 -0.9432
10798SOL    HW233294   5.091   0.856   0.961 -1.5268  1.5380  0.6556
10799SOL     OW33295   6.882   0.594   0.857 -0.2615 -0.2828 -0.0341
10799SOL    HW133296   6.965   0.596   0.802 -0.9767 -0.1890 -1.1447
10799SOL    HW233297   6.849   0.687   0.871 -0.4038 -0.3470  0.0604
10800SOL     OW33298   6.633   2.250   2.094 -0.1321  0.4247  0.1206
10800SOL    HW133299   6.572   2.170   2.096  0.1690  0.0937 -1.9248
10800SOL    HW233300   6.629   2.293   2.003  2.9493  0.1619 -0.2458
10801SOL     OW33301   2.457   2.690   5.543 -0.1075  0.5624  0.7388
10801SOL    HW133302   2.443   2.591   5.549  2.9279  0.0349  0.6744
10801SOL    HW233303   2.447   2.719   5.448 -0.5179  0.2370  0.6798
10802SOL     OW33304   3.149   6.627   4.710  0.8925  0.0721  0.3483
10802SOL    HW133305   3.236   6.664   4.679  0.5648  0.3577 -0.2484
10802SOL    HW233306   3.123   6.549   4.654  0.2489  0.6518 -0.1832
10803SOL     OW33307   3.496   4.737   1.418  0.3388 -0.0715 -0.0210
10803SOL    HW133308   3.529   4.773   1.330  1.1764 -1.5920 -0.3718
10803SOL    HW233309   3.421   4.674   1.402  1.0289 -0.9887  0.2534
10804SOL     OW33310   1.589   1.590   5.732  0.1374 -0.7181  0.2595
10804SOL    HW133311   1.584   1.519   5.802  0.5795  0.7107  1.7942
10804SOL    HW233312   1.667   1.649   5.750 -0.8822  0.8654 -0.2749
10805SOL     OW33313   1.850   3.201   2.239 -0.4822  0.1104 -0.1259
10805SOL    HW133314   1.940   3.158   2.238  0.2755  1.6241  0.4027
10805SOL    HW233315   1.855   3.291   2.198 -1.2522  1.1234  1.8559
10806SOL     OW33316   4.662   0.265   4.037  0.5373  0.0120 -1.3478
10806SOL    HW133317   4.715   0.209   4.101  0.2348  1.9687  0.7371
10806SOL    HW233318   4.724   0.322   3.983  0.6890  1.0375 -0.1372
10807SOL     OW33319   6.785   4.890   6.910  0.0619 -0.7100  0.1738
10807SOL    HW133320   6.706   4.855   6.960 -2.0065  2.9120 -0.1691
10807SOL    HW233321   6.784   4.853   6.817 -0.7663 -1.3304  0.4149
10808SOL     OW33322   2.996   6.698   0.931 -0.2744  0.3009 -0.1438
10808SOL    HW133323   3.070   6.765   0.936 -0.2004  0.1747  0.6254
10808SOL    HW233324   3.003   6.636   1.010 -0.8617 -0.0629 -0.3759
10809SOL     OW33325   1.151   6.182   1.866  0.1794 -0.3923  0.6455
10809SOL    HW133326   1.188   6.105   1.919  1.9208  0.8056  1.2720
10809SOL    HW233327   1.060   6.158   1.832  1.2345 -3.2849 -0.4492
10810SOL     OW33328   2.087   4.311   1.566  0.2430  0.1307  0.2089
10810SOL    HW133329   2.101   4.213   1.550 -1.5183 -0.1873  0.3773
10810SOL    HW233330   1.993   4.335   1.540 -0.2453  1.1954  2.6606
10811SOL     OW33331   4.562   2.115   5.820 -0.5344 -0.0931 -0.5930
10811SOL    HW133332   4.503   2.174   5.765  0.2703 -2.3395 -4.2455
10811SOL    HW233333   4.564   2.147   5.914 -2.7352  3.5958 -1.6229
10812SOL     OW33334   6.726   4.539   4.991 -0.2211  0.8709 -0.0716
10812SOL    HW133335   6.804   4.572   4.938 -0.5769  1.5400 -0.1890
10812SOL    HW233336   6.664   4.488   4.930  0.7752 -0.8532  0.2877
10813SOL     OW33337   4.246   4.769   5.105 -0.2135 -0.1029 -0.3600
10813SOL    HW133338   4.177   4.795   5.038  0.2137  0.2657 -0.6655
10813SOL    HW233339   4.302   4.694   5.069  0.8183  0.9270 -0.9440
10814SOL     OW33340   4.536   0.439   4.461 -0.0320 -0.3882  0.1301
10814SOL    HW133341   4.479   0.399   4.532 -0.3036  0.7340  0.5774
10814SOL    HW233342   4.605   0.373   4.432 -0.5628 -1.2157  0.7077
10815SOL     OW33343   6.224   6.174   6.960  0.7160  0.1935  0.0435
10815SOL    HW133344   6.244   6.126   6.874  0.5677  1.2981 -0.6278
10815SOL    HW233345   6.289   6.248   6.973  0.6321  0.1377  0.8085
10816SOL     OW33346   4.767   6.419   2.257 -0.8218 -0.3079  0.1997
10816SOL    HW133347   4.782   6.322   2.278 -3.7137 -1.1414 -1.0161
10816SOL    HW233348   4.749   6.430   2.159 -4.5329  0.7201  0.8416
10817SOL     OW33349   1.786   1.815   0.891 -0.6924  0.0259  0.2673
10817SOL    HW133350   1.727   1.870   0.950 -0.2032  1.0032 -0.1283
10817SOL    HW233351   1.828   1.874   0.822  1.4730 -0.4245  1.1081
10818SOL     OW33352   2.327   0.593   0.341 -0.0270 -0.0836 -0.2321
10818SOL    HW133353   2.247   0.653   0.331 -1.3200 -1.4640  1.1368
10818SOL    HW233354   2.410   0.648   0.340 -1.1339  1.7218  0.7193
10819SOL     OW33355   1.660   6.277   6.934 -0.3963 -0.4503 -0.8453
10819SOL    HW133356   1.564   6.282   6.907 -0.3423 -1.1521 -1.1960
10819SOL    HW233357   1.711   6.352   6.893 -0.5788 -0.7353 -1.6021
10820SOL     OW33358   0.081   1.451   4.913 -0.4872  0.2026 -0.0096
10820SOL    HW133359   0.112   1.359   4.937  2.3441  1.0387 -0.1291
10820SOL    HW233360  -0.016   1.460   4.936 -1.2404 -3.1991 -1.2557
10821SOL     OW33361   3.453   6.050   2.075  0.1765  0.4141 -0.4499
10821SOL    HW133362   3.539   6.047   2.024  0.5983  0.8253  0.2156
10821SOL    HW233363   3.469   6.092   2.164 -0.7723  0.7135 -0.4112
10822SOL     OW33364   0.667   0.329   5.932 -0.2131  0.3841  0.5159
10822SOL    HW133365   0.575   0.293   5.912 -0.0544  0.3118 -0.1032
10822SOL    HW233366   0.718   0.261   5.985 -0.0247 -0.1928 -0.3748
10823SOL     OW33367   5.533   7.023   5.943 -0.0895  0.0641  0.5593
10823SOL    HW133368   5.595   7.087   5.990 -0.0673 -0.0216  0.6468
10823SOL    HW233369   5.457   7.074   5.904  1.0687  0.4450 -1.2928
10824SOL     OW33370   6.099   5.883   5.653 -0.1013 -0.0884  0.0463
10824SOL    HW133371   6.055   5.922   5.573  0.5429 -1.5215 -1.0451
10824SOL    HW233372   6.033   5.830   5.706 -0.0680 -0.8954 -0.7069
10825SOL     OW33373   2.321   5.657   2.971 -0.1511 -0.6782 -0.3262
10825SOL    HW133374   2.416   5.688   2.971 -0.3007 -0.2153 -0.6252
10825SOL    HW233375   2.312   5.579   3.034  0.0801  0.3130  0.9923
10826SOL     OW33376   5.556   4.012   0.745  0.5444 -0.2476  0.3644
10826SOL    HW133377   5.484   3.981   0.808 -0.5408  0.9023 -0.2524
10826SOL    HW233378   5.557   4.112   0.743 -1.2503 -0.1184 -3.2751
10827SOL     OW33379   3.216   4.091   6.554 -0.3120 -0.3571 -0.3826
10827SOL    HW133380   3.221   4.055   6.461 -1.5648  2.4597 -1.6666
10827SOL    HW233381   3.120   4.095   6.583 -0.1872  1.3977 -0.1259
10828SOL     OW33382   2.131   4.043   1.486  0.2724 -0.3262  0.4605
10828SOL    HW133383   2.198   3.979   1.525  1.6686 -0.5002 -2.0008
10828SOL    HW233384   2.121   4.025   1.389 -0.5934  2.1335  0.0260
10829SOL     OW33385   6.978   4.880   4.135  0.6194 -0.2779 -0.4668
10829SOL    HW133386   6.929   4.798   4.106 -0.1779 -0.0717  0.2616
10829SOL    HW233387   6.929   4.962   4.104  0.8394 -0.0717 -0.2806
10830SOL     OW33388   6.603   4.014   6.422  0.1354  0.2472 -0.1535
10830SOL    HW133389   6.505   4.009   6.402 -0.1148 -0.1694  1.0821
10830SOL    HW233390   6.654   3.966   6.351 -0.5582  0.4155 -0.7737
10831SOL     OW33391   0.308   5.677   0.003 -0.4684 -0.4345 -0.3342
10831SOL    HW133392   0.360   5.706   0.083 -0.4496 -0.8873 -0.1790
10831SOL    HW233393   0.371   5.656  -0.072 -0.4338 -0.8082 -0.2035
10832SOL     OW33394   2.145   5.384   3.337 -0.1252 -0.2946 -0.5971
10832SOL    HW133395   2.184   5.403   3.428  0.0175  2.2472 -1.1131
10832SOL    HW233396   2.122   5.287   3.331 -1.5068 -0.3196  2.6949
10833SOL     OW33397   3.032   0.713   1.910 -0.0675 -0.2577  0.2684
10833SOL    HW133398   3.097   0.637   1.899 -0.6810 -0.8825  0.8164
10833SOL    HW233399   3.079   0.800   1.896  0.7465 -0.7262  0.0446
10834SOL     OW33400   6.180   1.750   0.243  0.0050 -0.2029 -0.2436
10834SOL    HW133401   6.168   1.763   0.341 -2.4486  0.1246 -0.5314
10834SOL    HW233402   6.229   1.829   0.205 -1.1331  0.8320  0.3762
10835SOL     OW33403   0.300   5.587   1.536 -0.7881  0.1092 -0.2877
10835SOL    HW133404   0.221   5.557   1.589  1.1169 -3.5437  0.7977
10835SOL    HW233405   0.283   5.572   1.439 -1.2665 -1.1583 -0.0256
10836SOL     OW33406   4.711   5.013   3.922 -0.1873 -0.1091 -0.6123
10836SOL    HW133407   4.712   5.022   3.822 -0.7842  3.6736 -0.3925
10836SOL    HW233408   4.617   4.997   3.953  0.2245 -3.2242 -0.6482
10837SOL     OW33409   1.783   1.368   1.130 -0.1369 -0.1655  0.1360
10837SOL    HW133410   1.685   1.385   1.134 -0.3266 -1.2780  0.7904
10837SOL    HW233411   1.831   1.450   1.100 -1.2863  0.3199 -0.4044
10838SOL     OW33412   2.931   6.553   5.845 -0.0876  0.6617 -0.0386
10838SOL    HW133413   2.975   6.484   5.788 -1.4670  0.6757 -1.1802
10838SOL    HW233414   3.000   6.611   5.888  1.0309 -0.4116 -0.3545
10839SOL     OW33415   4.916   3.505   3.391  0.0611  0.7806  0.1372
10839SOL    HW133416   4.918   3.450   3.307  1.0101 -1.0338  1.2812
10839SOL    HW233417   4.956   3.595   3.374  1.0341  0.1268 -1.1544
10840SOL     OW33418   2.163   3.774   4.937  0.2705 -0.0232  0.4952
10840SOL    HW133419   2.218   3.851   4.969  0.6448 -0.5701  1.2095
10840SOL    HW233420   2.112   3.736   5.015 -2.8412  1.8069 -0.4859
10841SOL     OW33421   5.121   1.210   3.710  0.0538 -0.6932  0.2206
10841SOL    HW133422   5.061   1.240   3.784  0.9110 -0.1775  0.7226
10841SOL    HW233423   5.129   1.111   3.712 -1.0128 -0.8052 -0.0514
10842SOL     OW33424   1.059   6.088   5.081 -0.4620 -0.2098 -0.6238
10842SOL    HW133425   1.082   6.000   5.039 -0.8117 -0.0243 -1.2138
10842SOL    HW233426   1.026   6.151   5.011 -1.1109  0.0935 -0.0588
10843SOL     OW33427   1.316   0.361   1.460 -0.5197  0.4907  0.4422
10843SOL    HW133428   1.274   0.447   1.430 -2.1612 -0.5215 -0.3217
10843SOL    HW233429   1.252   0.312   1.520  1.4526  0.9808  3.1286
10844SOL     OW33430   2.979   5.620   1.456 -0.2213  0.5958 -0.6726
10844SOL    HW133431   3.009   5.652   1.546  0.5097 -1.9410  0.0760
10844SOL    HW233432   2.885   5.649   1.439 -0.8403  0.0162  1.5148
10845SOL     OW33433   0.866   2.544   5.832  0.0791 -0.1515 -0.1459
10845SOL    HW133434   0.871   2.533   5.931  0.9110  0.0913 -0.1523
10845SOL    HW233435   0.908   2.465   5.788  1.7814  0.7844 -0.2621
10846SOL     OW33436   6.392   2.634   3.027  0.1928  0.0276 -0.3022
10846SOL    HW133437   6.484   2.627   2.987  0.1625  1.2148 -0.6150
10846SOL    HW233438   6.399   2.624   3.126  0.7317  0.5746 -0.2759
10847SOL     OW33439   2.247   6.816   4.540  0.0548  0.1425 -0.1645
10847SOL    HW133440   2.227   6.837   4.444  1.8958  0.7042 -0.4677
10847SOL    HW233441   2.264   6.718   4.550 -0.7876 -0.0209 -0.2757
10848SOL     OW33442   4.952   5.244   3.698 -0.0950 -0.4485  0.0739
10848SOL    HW133443   4.932   5.297   3.781  0.5376  2.0607 -1.2857
10848SOL    HW233444   5.051   5.233   3.689  0.1600  2.6123 -2.1639
10849SOL     OW33445   1.545   1.184   4.475  0.1325  0.1722 -0.6436
10849SOL    HW133446   1.570   1.270   4.430  0.0236 -1.0110 -3.1607
10849SOL    HW233447   1.539   1.198   4.574  0.1268  3.0258 -0.9704
10850SOL     OW33448   0.057   0.850   5.639 -0.3732 -0.4189 -0.1808
10850SOL    HW133449   0.011   0.770   5.677 -0.6140 -0.3467 -0.3159
10850SOL    HW233450   0.156   0.834   5.636 -0.2185  0.0714  1.6343
10851SOL     OW33451   1.872   0.637   5.467 -0.6560 -0.7272 -0.0286
10851SOL    HW133452   1.965   0.610   5.444 -1.3072 -2.7117 -0.5536
10851SOL    HW233453   1.864   0.737   5.465  0.8545 -0.5755 -2.4371
10852SOL     OW33454   6.087   4.615   0.881 -0.6555  0.1953 -0.0386
10852SOL    HW133455   6.109   4.663   0.966  1.1000 -0.4283 -0.0965
10852SOL    HW233456   6.036   4.676   0.821 -1.3087  0.8814  1.1715
10853SOL     OW33457   6.175   0.288   1.671  0.0366 -0.4649 -0.5118
10853SOL    HW133458   6.219   0.240   1.747 -0.9182 -1.1539 -0.3835
10853SOL    HW233459   6.242   0.302   1.598  0.4091 -1.7316 -0.4361
10854SOL     OW33460   4.892   3.846   5.041 -0.0517 -0.3085  0.2416
10854SOL    HW133461   4.861   3.890   5.126  0.0913 -0.1294  0.2030
10854SOL    HW233462   4.853   3.754   5.035 -1.5000  0.3167 -0.3635
10855SOL     OW33463   4.379   5.179   4.562 -0.3138 -0.0743  0.1298
10855SOL    HW133464   4.372   5.109   4.633  0.5972 -0.2927  0.0146
10855SOL    HW233465   4.314   5.159   4.489  0.7317 -1.4638 -0.4584
10856SOL     OW33466   5.188   5.860   6.422 -0.3867 -0.8004  0.2848
10856SOL    HW133467   5.242   5.944   6.413  0.4767 -1.5799 -3.4010
10856SOL    HW233468   5.202   5.822   6.514  2.7767  0.7720  0.6077
10857SOL     OW33469   1.112   6.115   0.162 -0.3896  0.0944 -0.4284
10857SOL    HW133470   1.129   6.193   0.102 -1.3601  1.5027  1.0495
10857SOL    HW233471   1.021   6.123   0.203  0.4913 -0.4187  1.7896
10858SOL     OW33472   5.007   6.225   6.302 -0.0757  0.3619 -0.3572
10858SOL    HW133473   4.995   6.314   6.258 -0.8860  0.2840 -0.3099
10858SOL    HW233474   4.918   6.192   6.336 -0.0421 -1.1286 -1.6220
10859SOL     OW33475   5.227   2.623   0.862 -0.4250 -0.3098 -0.0609
10859SOL    HW133476   5.310   2.614   0.917 -1.2606 -2.5832  0.9276
10859SOL    HW233477   5.252   2.637   0.766  1.0532  0.7963  0.4460
10860SOL     OW33478   1.949   0.515   3.266 -0.5497 -0.3080 -0.4505
10860SOL    HW133479   2.010   0.436   3.271 -1.7283 -1.2012  1.0670
10860SOL    HW233480   2.002   0.598   3.249  1.1522 -0.9800  1.2090
10861SOL     OW33481   4.296   1.013   0.075 -0.4001 -0.0857  0.7333
10861SOL    HW133482   4.299   1.062   0.162  1.5553  0.3614  0.4685
10861SOL    HW233483   4.209   1.030   0.029  0.4058  3.7785  0.3423
10862SOL     OW33484   5.607   4.230   1.683  0.5859  0.1156  0.0465
10862SOL    HW133485   5.668   4.250   1.759  1.1099  0.3685 -0.4301
10862SOL    HW233486   5.601   4.310   1.623  0.6075 -0.2565 -0.4612
10863SOL     OW33487   1.092   2.096   2.096  0.2632 -0.8294  0.3577
10863SOL    HW133488   1.057   2.124   2.007  1.0641  0.0773  0.3065
10863SOL    HW233489   1.175   2.148   2.116  0.4101 -1.4421  1.3778
10864SOL     OW33490   2.093   3.250   3.321  0.2684  0.2030  0.2051
10864SOL    HW133491   2.156   3.245   3.398 -0.0013  0.4665  0.4490
10864SOL    HW233492   2.023   3.178   3.330  1.0189 -0.6419 -0.5166
10865SOL     OW33493   2.110   1.259   4.917 -0.1045 -0.0166  0.1552
10865SOL    HW133494   2.121   1.343   4.864  1.4629  0.1761  0.7379
10865SOL    HW233495   2.043   1.200   4.872 -0.4846  1.1099 -0.7982
10866SOL     OW33496   3.936   4.701   5.219  0.1776  0.4192 -0.0155
10866SOL    HW133497   4.006   4.753   5.268  0.9849 -1.1507  0.5957
10866SOL    HW233498   3.920   4.615   5.267 -1.3937  0.2589 -0.7699
10867SOL     OW33499   0.984   6.061   2.179  0.0942  0.4419  0.0674
10867SOL    HW133500   1.053   5.991   2.166  0.2161  0.6037 -0.1584
10867SOL    HW233501   0.934   6.043   2.263 -0.0101 -0.0289 -0.0921
10868SOL     OW33502   4.010   6.733   0.591  0.3542 -0.1302 -0.0904
10868SOL    HW133503   4.045   6.695   0.676  1.0932 -0.5093 -0.5548
10868SOL    HW233504   3.989   6.830   0.603  0.2234 -0.2423  0.5839
10869NA      NA33505   4.291   4.361   1.666  0.0305 -0.5041 -0.2602
10870NA      NA33506   5.655   6.444   5.891 -0.2424  0.5675 -0.0268
10871NA      NA33507   4.452   0.270   3.549  0.2350 -0.1899 -0.0964
10872NA      NA33508   1.105   2.210   0.227  0.1110 -0.0691  0.1380
10873NA      NA33509   1.474   4.930   5.537 -0.2413 -0.3274  0.1160
10874NA      NA33510   3.259   0.849   1.603  0.5013  0.1964 -0.2819
10875NA      NA33511   4.405   5.962   5.462 -0.1297 -0.1001  0.1740
10876NA      NA33512   3.504   4.954   1.885  0.1323 -0.3617 -0.2459
10877NA      NA33513   4.826   3.069   1.782  0.1449  0.0229 -0.1129
10878NA      NA33514   2.919   6.387   5.048 -0.1683  0.0091  0.2554
10879NA      NA33515   0.893   1.309   2.541  0.4332  0.2244  0.1953
10880NA      NA33516   5.191   5.646   3.074  0.2225 -0.2699 -0.0249
10881NA      NA33517   4.097   4.943   6.394  0.1392 -0.1149  0.1470
10882NA      NA33518   2.706   4.751   5.169 -0.1155  0.3045 -0.2970
   7.02326   7.02326   7.02326
