CNT in water
33518
    1C        C    1   2.838   2.761   4.743 -0.1344 -0.0190  0.1638
    1C        C    2   2.893   2.711   4.863 -0.2454 -0.2267  0.1309
    1C        C    3   2.840   2.762   4.982 -0.4059 -0.7236  0.2783
    1C        C    4   2.851   2.773   4.258 -0.3078 -0.3813  0.1078
    1C        C    5   2.905   2.727   4.380 -0.0520 -0.8711 -0.1819
    1C        C    6   2.853   2.775   4.502  0.2203 -0.1471 -0.3412
    1C        C    7   3.018   2.643   4.623 -0.0668  0.5750  0.3630
    1C        C    8   2.899   2.719   4.623 -0.4217  0.0310 -0.0036
    1C        C    9   3.082   2.607   4.743  0.3174  0.6140  0.1752
    1C        C   10   3.008   2.629   4.861 -0.2436 -0.2252 -0.0145
    1C        C   11   3.181   2.488   4.970  0.1999 -0.2370 -0.3385
    1C        C   12   3.056   2.552   4.968  0.4124  0.2038  0.0053
    1C        C   13   2.851   2.776   3.769 -0.0399  0.0339  0.0395
    1C        C   14   2.902   2.726   3.890  0.2994  0.2446 -0.0131
    1C        C   15   2.848   2.772   4.012 -0.2249 -0.5723  0.0755
    1C        C   16   3.023   2.653   4.135 -0.5898 -1.0203 -0.0887
    1C        C   17   2.905   2.731   4.135  0.0859  0.0225  0.1377
    1C        C   18   3.084   2.618   4.257 -0.1625 -0.2163 -0.0658
    1C        C   19   3.027   2.656   4.381  0.0592 -0.6850  0.1866
    1C        C   20   3.213   2.554   4.501 -0.1584 -0.1481  0.1657
    1C        C   21   3.086   2.614   4.502 -0.1941 -0.2194  0.4775
    1C        C   22   3.283   2.531   4.622  0.0469 -0.2480  0.0295
    1C        C   23   3.212   2.550   4.742  0.1583  0.2493  0.0206
    1C        C   24   3.415   2.479   4.860  0.2721 -0.4973 -0.1315
    1C        C   25   3.273   2.504   4.862  0.3307 -0.1440 -0.2150
    1C        C   26   3.490   2.471   4.978  0.2524 -0.1215 -0.0914
    1C        C   27   2.849   2.775   3.281  0.0289  0.3483  0.2003
    1C        C   28   2.906   2.731   3.402 -0.0070 -0.3365 -0.0257
    1C        C   29   2.856   2.780   3.525 -0.0447 -0.2026 -0.0953
    1C        C   30   3.022   2.649   3.648  0.2615  0.5765  0.2382
    1C        C   31   2.906   2.730   3.647 -0.2286 -0.1210  0.0134
    1C        C   32   3.076   2.603   3.769 -0.0151 -0.4499 -0.0233
    1C        C   33   3.017   2.644   3.891 -0.1750 -0.4295 -0.1089
    1C        C   34   3.214   2.563   4.014 -0.2405 -0.4842  0.0902
    1C        C   35   3.083   2.617   4.012 -0.2065 -0.4045 -0.0858
    1C        C   36   3.282   2.543   4.136 -0.1196 -0.3688  0.0435
    1C        C   37   3.216   2.567   4.258 -0.5056 -1.1223 -0.0072
    1C        C   38   3.421   2.512   4.375 -0.2473 -0.2242  0.2238
    1C        C   39   3.281   2.535   4.379 -0.2396 -0.1461  0.1173
    1C        C   40   3.491   2.497   4.497  0.1662  0.2365  0.0454
    1C        C   41   3.421   2.499   4.619 -0.1440 -1.0945 -0.0968
    1C        C   42   3.633   2.478   4.742  0.1985  0.0533  0.0172
    1C        C   43   3.491   2.482   4.741  0.1873 -0.3903 -0.1829
    1C        C   44   3.706   2.478   4.863  0.0869 -0.1255  0.0834
    1C        C   45   3.629   2.461   4.978  0.2346 -0.3489  0.1484
    1C        C   46   2.837   2.752   2.794  0.2784 -0.1593 -0.1165
    1C        C   47   2.893   2.709   2.917  0.4575  0.2457 -0.0581
    1C        C   48   2.839   2.758   3.037  0.2972  0.0137 -0.0370
    1C        C   49   3.011   2.640   3.160 -0.2247  0.1384 -0.0942
    1C        C   50   2.892   2.716   3.161 -0.2575  0.0835  0.2275
    1C        C   51   3.082   2.614   3.280 -0.3214 -0.2925 -0.1288
    1C        C   52   3.024   2.653   3.403 -0.6778 -1.3565  0.0485
    1C        C   53   3.210   2.554   3.526 -0.0411  0.3167 -0.1976
    1C        C   54   3.082   2.613   3.525 -0.4919 -0.6181  0.2025
    1C        C   55   3.275   2.530   3.649 -0.3472 -0.1884 -0.1291
    1C        C   56   3.208   2.551   3.771 -0.1164 -0.7048  0.0904
    1C        C   57   3.419   2.512   3.890 -0.0148  0.0485  0.1466
    1C        C   58   3.280   2.540   3.892  0.0097  0.1726  0.1015
    1C        C   59   3.489   2.503   4.012  0.2836  0.0528 -0.0257
    1C        C   60   3.418   2.506   4.134  0.0443  0.2456 -0.1706
    1C        C   61   3.633   2.496   4.256 -0.3858  0.4968 -0.0879
    1C        C   62   3.492   2.503   4.254 -0.4147 -0.0234  0.1076
    1C        C   63   3.704   2.497   4.378 -0.2895  0.4587 -0.1443
    1C        C   64   3.632   2.497   4.499  0.1651  0.5042  0.1293
    1C        C   65   3.839   2.531   4.618  0.2224 -0.0368  0.1130
    1C        C   66   3.704   2.490   4.620  0.2672 -0.1886  0.0330
    1C        C   67   3.906   2.550   4.741  0.2958 -0.4271  0.1317
    1C        C   68   3.844   2.509   4.861  0.2291 -0.7530 -0.0127
    1C        C   69   4.045   2.581   4.973 -0.2206 -0.2270 -0.2055
    1C        C   70   3.917   2.525   4.979 -0.3322  0.0670  0.2299
    1C        C   71   2.824   2.734   2.309  0.0650  0.3059  0.0564
    1C        C   72   2.888   2.696   2.429  0.2976  0.3327 -0.0614
    1C        C   73   2.835   2.747   2.550 -0.3723 -0.1480 -0.1545
    1C        C   74   3.007   2.628   2.673  0.4644  0.6085 -0.2796
    1C        C   75   2.885   2.700   2.673  0.1828  0.1326 -0.2771
    1C        C   76   3.072   2.599   2.795 -0.0271  0.1085 -0.1347
    1C        C   77   3.013   2.635   2.918  0.5683  0.4303  0.0559
    1C        C   78   3.212   2.562   3.038 -0.0535 -0.6418 -0.2162
    1C        C   79   3.079   2.610   3.040  0.1104 -0.1956  0.1784
    1C        C   80   3.278   2.535   3.160 -0.0666 -0.5419 -0.1872
    1C        C   81   3.212   2.560   3.282 -0.1486  0.1028 -0.3579
    1C        C   82   3.416   2.504   3.402 -0.3868 -0.4195  0.3217
    1C        C   83   3.277   2.531   3.404 -0.3246 -0.0279 -0.2928
    1C        C   84   3.486   2.500   3.524 -0.1484 -0.1087  0.1989
    1C        C   85   3.414   2.505   3.646 -0.4036 -0.5395  0.0712
    1C        C   86   3.627   2.494   3.764 -0.2067  0.3283 -0.3186
    1C        C   87   3.486   2.496   3.767 -0.2020  0.2600  0.0169
    1C        C   88   3.697   2.506   3.886  0.0472  0.3416 -0.4649
    1C        C   89   3.631   2.501   4.010  0.2882  0.4395 -0.3315
    1C        C   90   3.839   2.537   4.131 -0.1504 -0.0637  0.1804
    1C        C   91   3.700   2.515   4.133 -0.2067  0.2564 -0.0285
    1C        C   92   3.907   2.554   4.253 -0.0643 -0.1930  0.1511
    1C        C   93   3.842   2.527   4.376 -0.2557  0.3313  0.1676
    1C        C   94   4.031   2.625   4.493 -0.2002  0.6541 -0.2533
    1C        C   95   3.908   2.556   4.497 -0.0593  0.4138  0.0425
    1C        C   96   4.087   2.666   4.616  0.2003 -0.2622 -0.1175
    1C        C   97   4.029   2.621   4.737 -0.0559  0.1740 -0.0754
    1C        C   98   4.182   2.766   4.860 -0.0276 -0.1066 -0.1280
    1C        C   99   4.092   2.654   4.859  0.1663 -0.2643 -0.0698
    1C        C  100   4.202   2.843   4.975  0.5042 -0.1145 -0.2132
    1C        C  101   2.815   2.718   2.073  0.1052  0.0456  0.3620
    1C        C  102   2.989   2.587   2.186  0.0820 -0.0349  0.0252
    1C        C  103   2.873   2.671   2.192 -0.1155 -0.3266  0.3208
    1C        C  104   3.063   2.580   2.307  0.4104 -0.0275 -0.1769
    1C        C  105   3.006   2.619   2.430  0.1804  0.1544 -0.3430
    1C        C  106   3.201   2.539   2.551 -0.0228 -0.0364 -0.0192
    1C        C  107   3.068   2.586   2.553 -0.0467 -0.0996 -0.2977
    1C        C  108   3.271   2.529   2.673  0.1687  0.1619 -0.1150
    1C        C  109   3.206   2.556   2.795  0.0021  0.2068 -0.2155
    1C        C  110   3.416   2.509   2.912 -0.1385 -0.8498  0.2440
    1C        C  111   3.278   2.538   2.916 -0.0570 -0.3943 -0.2648
    1C        C  112   3.486   2.492   3.034  0.1644 -0.2846  0.1514
    1C        C  113   3.416   2.503   3.155  0.0284 -0.1759  0.0637
    1C        C  114   3.625   2.496   3.276 -0.4655 -0.0941 -0.0325
    1C        C  115   3.484   2.497   3.279 -0.4784 -1.0988  0.3059
    1C        C  116   3.696   2.500   3.398 -0.1044  0.0220 -0.2450
    1C        C  117   3.627   2.501   3.521 -0.1610  0.2897 -0.2793
    1C        C  118   3.833   2.546   3.641 -0.1872  0.3255 -0.2794
    1C        C  119   3.698   2.503   3.643 -0.1395  0.1769 -0.2905
    1C        C  120   3.899   2.567   3.763 -0.5518  0.3283 -0.0801
    1C        C  121   3.834   2.541   3.886  0.1025  0.1439  0.2367
    1C        C  122   4.027   2.631   4.005  0.0331  0.0202 -0.1406
    1C        C  123   3.901   2.567   4.007  0.0669 -0.0349  0.2955
    1C        C  124   4.087   2.665   4.128 -0.0360 -0.4641  0.0335
    1C        C  125   4.028   2.627   4.250 -0.0622 -0.1962  0.1086
    1C        C  126   4.200   2.754   4.370 -0.0289  0.4561 -0.4650
    1C        C  127   4.091   2.664   4.371  0.6228 -0.3470 -0.1929
    1C        C  128   4.243   2.808   4.493 -0.1793 -0.2140 -0.1080
    1C        C  129   4.190   2.762   4.615 -0.0618  0.0222  0.0359
    1C        C  130   4.316   2.933   4.737  0.3272 -0.1059  0.0106
    1C        C  131   4.234   2.817   4.738 -0.0401  0.1528 -0.0268
    1C        C  132   4.347   2.999   4.857 -0.0418  0.0828  0.0044
    1C        C  133   4.286   2.954   4.974  0.8334 -0.3517  0.3079
    1C        C  134   3.175   2.480   2.081 -0.6221  0.3679  0.2336
    1C        C  135   3.037   2.504   2.080 -0.6942 -0.0487 -0.3241
    1C        C  136   3.260   2.479   2.192 -0.0353 -0.0081 -0.2083
    1C        C  137   3.195   2.525   2.309  0.5038  0.2056  0.0109
    1C        C  138   3.406   2.482   2.427  0.0763 -0.8582  0.1266
    1C        C  139   3.268   2.513   2.429  0.2571 -0.0329  0.1361
    1C        C  140   3.479   2.491   2.548 -0.0576 -0.4385  0.1768
    1C        C  141   3.408   2.497   2.670  0.0514 -0.3775  0.2348
    1C        C  142   3.625   2.493   2.789  0.0453  0.5965  0.2705
    1C        C  143   3.484   2.497   2.789  0.0257 -0.0153  0.2489
    1C        C  144   3.698   2.494   2.910  0.3663 -0.1456  0.0834
    1C        C  145   3.627   2.493   3.032  0.1613  0.0310 -0.0346
    1C        C  146   3.834   2.534   3.155 -0.3390  0.6032  0.2876
    1C        C  147   3.697   2.499   3.155 -0.1485 -0.1626  0.1506
    1C        C  148   3.898   2.567   3.276 -0.1840  0.6177  0.2021
    1C        C  149   3.832   2.538   3.397 -0.2148  0.4257  0.1418
    1C        C  150   4.028   2.625   3.517  0.1890  0.3058  0.2563
    1C        C  151   3.900   2.566   3.518  0.3311 -0.0171 -0.0563
    1C        C  152   4.088   2.663   3.638 -0.1035  0.5526  0.3263
    1C        C  153   4.022   2.636   3.760 -0.6838  0.5684  0.0174
    1C        C  154   4.190   2.764   3.884 -0.1885  0.2783  0.3356
    1C        C  155   4.082   2.674   3.882 -0.0449  0.1054 -0.1475
    1C        C  156   4.242   2.812   4.006  0.2774  0.1339  0.2020
    1C        C  157   4.195   2.756   4.127 -0.0222 -0.4786 -0.1887
    1C        C  158   4.332   2.919   4.248  0.5239  0.0424 -0.0755
    1C        C  159   4.249   2.805   4.248 -0.2755  0.6152 -0.5034
    1C        C  160   4.362   2.983   4.370 -0.2193  0.1643  0.0471
    1C        C  161   4.322   2.925   4.493 -0.3152 -0.1186 -0.1153
    1C        C  162   4.420   3.115   4.615 -0.2379 -0.0737  0.2778
    1C        C  163   4.356   2.989   4.614 -0.2463 -0.0660 -0.1599
    1C        C  164   4.454   3.184   4.734  0.4945  0.1288 -0.0423
    1C        C  165   4.416   3.123   4.855  0.1125 -0.0062 -0.2314
    1C        C  166   4.518   3.317   4.965 -0.3889  0.3051  0.5691
    1C        C  167   4.471   3.187   4.967 -0.7952  0.4414 -0.0317
    1C        C  168   3.473   2.431   2.070 -0.0774  0.1430 -0.1560
    1C        C  169   3.398   2.451   2.187 -0.0620 -0.1592 -0.0946
    1C        C  170   3.616   2.472   2.303 -0.0305  0.6222 -0.0486
    1C        C  171   3.474   2.460   2.306 -0.0127  0.3873 -0.1656
    1C        C  172   3.689   2.490   2.422  0.0064  0.0187  0.0228
    1C        C  173   3.620   2.493   2.546 -0.0641 -0.0912 -0.0145
    1C        C  174   3.830   2.531   2.663 -0.2490  0.2305  0.4509
    1C        C  175   3.694   2.494   2.666 -0.2544  0.2267  0.1007
    1C        C  176   3.897   2.555   2.785  0.0492 -0.1184  0.3586
    1C        C  177   3.836   2.525   2.909  0.2744  0.2796  0.5669
    1C        C  178   4.028   2.611   3.028  0.1919  0.4464 -0.0474
    1C        C  179   3.901   2.550   3.032  0.2222  0.4170  0.5662
    1C        C  180   4.086   2.655   3.149 -0.1394  0.3462  0.1452
    1C        C  181   4.028   2.621   3.274  0.0594  0.0358  0.1532
    1C        C  182   4.201   2.746   3.392 -0.2654  0.5484 -0.0564
    1C        C  183   4.092   2.655   3.395 -0.0190  0.2568  0.1329
    1C        C  184   4.249   2.798   3.514  0.7354 -0.1277 -0.1465
    1C        C  185   4.196   2.755   3.637  0.0067  0.4229 -0.2592
    1C        C  186   4.337   2.912   3.760 -0.1971 -0.1970 -0.0098
    1C        C  187   4.245   2.805   3.760 -0.6170  0.1620  0.1041
    1C        C  188   4.374   2.974   3.881 -0.0063 -0.2495 -0.0383
    1C        C  189   4.331   2.921   4.005  0.1916  0.2084  0.2327
    1C        C  190   4.439   3.103   4.125  0.4941  0.3564  0.3178
    1C        C  191   4.372   2.979   4.127  0.5333  0.3293  0.0651
    1C        C  192   4.454   3.173   4.247 -0.0263  0.2743  0.4347
    1C        C  193   4.423   3.110   4.370 -0.0830  0.1013  0.3356
    1C        C  194   4.487   3.313   4.485 -0.2495  0.0561  0.1316
    1C        C  195   4.450   3.177   4.492  0.0237 -0.0073  0.3725
    1C        C  196   4.507   3.384   4.605 -0.3899  0.0553  0.1545
    1C        C  197   4.495   3.320   4.731  0.0100  0.2844  0.3079
    1C        C  198   4.551   3.535   4.845 -0.6120  0.2025  0.2389
    1C        C  199   4.521   3.395   4.849 -0.3570  0.1559  0.4703
    1C        C  200   4.585   3.619   4.956 -0.3124 -0.1266  0.3978
    1C        C  201   3.612   2.416   2.067 -0.0795  0.1340 -0.2266
    1C        C  202   3.821   2.511   2.179 -0.3655  0.9082 -0.1450
    1C        C  203   3.684   2.471   2.178 -0.0221 -0.3185 -0.0391
    1C        C  204   3.897   2.535   2.297 -0.4016  0.3426  0.0002
    1C        C  205   3.828   2.517   2.418  0.1182 -0.5422  0.1671
    1C        C  206   4.021   2.610   2.539 -0.6186  0.4810 -0.0772
    1C        C  207   3.895   2.546   2.539 -0.4776  0.1999  0.3283
    1C        C  208   4.081   2.655   2.659 -0.0018  0.2010 -0.2827
    1C        C  209   4.019   2.626   2.782  0.1732 -0.3635 -0.3290
    1C        C  210   4.191   2.744   2.903 -0.1892  0.2943 -0.2880
    1C        C  211   4.083   2.653   2.905 -0.2520  0.3716 -0.2696
    1C        C  212   4.239   2.799   3.024  0.0104  0.0982 -0.2794
    1C        C  213   4.184   2.756   3.146  0.1731  0.0338 -0.2297
    1C        C  214   4.327   2.912   3.270  0.5785 -0.3641  0.0526
    1C        C  215   4.237   2.803   3.268 -0.0465  0.1505 -0.1779
    1C        C  216   4.364   2.972   3.392 -0.0144  0.3398 -0.1126
    1C        C  217   4.333   2.911   3.515  0.2541  0.2317 -0.0977
    1C        C  218   4.423   3.102   3.633  0.0525 -0.0380  0.1377
    1C        C  219   4.373   2.971   3.637 -0.0766  0.0101  0.1226
    1C        C  220   4.455   3.166   3.755 -0.2738 -0.1644  0.2870
    1C        C  221   4.438   3.100   3.879 -0.3114 -0.0853  0.3254
    1C        C  222   4.494   3.304   3.995  0.6437 -0.0328  0.0572
    1C        C  223   4.461   3.167   4.001  0.4612  0.0120  0.1311
    1C        C  224   4.503   3.376   4.117  0.6459  0.1658 -0.0577
    1C        C  225   4.488   3.310   4.241  0.2641  0.1822 -0.0915
    1C        C  226   4.513   3.522   4.360  0.1178 -0.0868 -0.1779
    1C        C  227   4.498   3.381   4.362  0.0987 -0.0837  0.0814
    1C        C  228   4.515   3.595   4.481 -0.2538 -0.2255 -0.0844
    1C        C  229   4.518   3.525   4.603 -0.3039  0.0455  0.0750
    1C        C  230   4.493   3.738   4.720 -0.5521 -0.0759  0.2097
    1C        C  231   4.533   3.602   4.720 -0.2411  0.0149  0.0862
    1C        C  232   4.487   3.812   4.840  0.1409  0.0152  0.1942
    1C        C  233   4.542   3.753   4.954  0.2903  0.0681  0.1510
    1C        C  234   4.010   2.610   2.057  0.3689  0.4255 -0.3394
    1C        C  235   3.888   2.543   2.060  0.1887  0.7670  0.1228
    1C        C  236   4.081   2.646   2.173 -0.0194  0.2365 -0.0394
    1C        C  237   4.021   2.605   2.294 -0.6019  0.6917 -0.1752
    1C        C  238   4.193   2.730   2.417 -0.3977  0.1948  0.2905
    1C        C  239   4.081   2.643   2.416 -0.7685  0.6815 -0.0927
    1C        C  240   4.244   2.787   2.536 -0.1811  0.3339  0.1265
    1C        C  241   4.189   2.747   2.659 -0.4002  0.6652  0.1325
    1C        C  242   4.327   2.907   2.780 -0.1254  0.8427 -0.0011
    1C        C  243   4.239   2.796   2.781 -0.3347  1.0107 -0.0377
    1C        C  244   4.372   2.963   2.902  0.3436  0.2381  0.1005
    1C        C  245   4.335   2.903   3.024  0.0046  0.1004 -0.0716
    1C        C  246   4.429   3.092   3.143  0.2264 -0.1729  0.3765
    1C        C  247   4.373   2.963   3.146  0.2184 -0.1772 -0.0028
    1C        C  248   4.449   3.163   3.264 -0.0459  0.1860  0.2088
    1C        C  249   4.419   3.102   3.387  0.5140  0.1344  0.3194
    1C        C  250   4.491   3.301   3.506  0.0378  0.2793  0.2843
    1C        C  251   4.450   3.166   3.509  0.4882  0.1426  0.3207
    1C        C  252   4.507   3.370   3.627  0.7476  0.2157  0.2256
    1C        C  253   4.496   3.300   3.750  0.5044 -0.4169 -0.1528
    1C        C  254   4.515   3.511   3.872  0.2807 -0.2661 -0.5674
    1C        C  255   4.509   3.370   3.872 -0.2379 -0.2491 -0.1692
    1C        C  256   4.511   3.586   3.992 -0.1917 -0.0986 -0.6819
    1C        C  257   4.512   3.517   4.115  0.6155  0.1663 -0.5258
    1C        C  258   4.476   3.727   4.239 -0.2302 -0.3502  0.4160
    1C        C  259   4.501   3.588   4.237 -0.0968 -0.3225 -0.2883
    1C        C  260   4.469   3.802   4.358 -0.1536 -0.3095  0.4010
    1C        C  261   4.494   3.735   4.480  0.5269 -0.1013  0.3795
    1C        C  262   4.428   3.942   4.597  0.1672  0.1702  0.0153
    1C        C  263   4.474   3.808   4.599 -0.6290 -0.1114  0.2004
    1C        C  264   4.398   4.007   4.719 -0.0955  0.3977 -0.1631
    1C        C  265   4.426   3.939   4.840 -0.1549 -0.1204 -0.4312
    1C        C  266   4.325   4.132   4.954  0.4505 -0.0315  0.2187
    1C        C  267   4.380   4.005   4.955  0.3058 -0.1012 -0.2541
    1C        C  268   4.266   2.769   2.059 -0.0325  0.2695  0.1942
    1C        C  269   4.194   2.731   2.173 -0.1679  0.4293  0.1601
    1C        C  270   4.338   2.887   2.295  0.2013 -0.2780  0.2149
    1C        C  271   4.245   2.778   2.295 -0.2947  0.1471  0.3207
    1C        C  272   4.370   2.956   2.414  0.1883 -0.0962  0.1069
    1C        C  273   4.328   2.900   2.536 -0.1486  0.3038  0.1729
    1C        C  274   4.431   3.089   2.659  0.6231  0.3346  0.1183
    1C        C  275   4.364   2.965   2.657 -0.4182  0.8918 -0.0622
    1C        C  276   4.460   3.154   2.780  0.7323 -0.0962  0.3217
    1C        C  277   4.438   3.088   2.903  0.6934  0.0507  0.3912
    1C        C  278   4.505   3.290   3.017  0.2527 -0.0165 -0.1025
    1C        C  279   4.472   3.153   3.023  0.3898 -0.0228  0.5130
    1C        C  280   4.514   3.363   3.138  0.0645 -0.1558 -0.0055
    1C        C  281   4.495   3.297   3.261  0.1231  0.1250  0.1537
    1C        C  282   4.515   3.508   3.384  0.7879  0.0523 -0.2392
    1C        C  283   4.510   3.367   3.382  0.1140  0.0698  0.1848
    1C        C  284   4.511   3.582   3.504  0.2654  0.0951 -0.2794
    1C        C  285   4.505   3.511   3.626  0.3640  0.2087 -0.2088
    1C        C  286   4.481   3.720   3.752 -0.3000  0.1846  0.5735
    1C        C  287   4.504   3.580   3.750  0.4733  0.3148 -0.2656
    1C        C  288   4.471   3.793   3.873 -0.1512  0.2712  0.5383
    1C        C  289   4.492   3.726   3.995 -0.2728 -0.1198  0.3507
    1C        C  290   4.429   3.932   4.110  0.0835 -0.2028  0.5662
    1C        C  291   4.464   3.795   4.115 -1.1488 -0.5359  0.3962
    1C        C  292   4.400   4.000   4.230  0.2076  0.1254  0.4185
    1C        C  293   4.430   3.937   4.354 -0.0275 -0.2722  0.2835
    1C        C  294   4.323   4.124   4.472 -0.1956  0.0807 -0.3128
    1C        C  295   4.394   4.002   4.474 -0.5691 -0.1395  0.0572
    1C        C  296   4.284   4.185   4.593 -0.7384 -0.6038 -0.1267
    1C        C  297   4.330   4.131   4.715 -0.6832  0.0917  0.1711
    1C        C  298   4.202   4.310   4.835 -0.1700  0.1281  0.4305
    1C        C  299   4.290   4.197   4.835 -0.7339 -0.3227  0.3912
    1C        C  300   4.169   4.395   4.945 -0.2298  0.3400  0.2566
    1C        C  301   4.347   2.882   2.056  0.2255  0.0789 -0.0365
    1C        C  302   4.464   3.064   2.174 -0.1955 -0.0834  0.0336
    1C        C  303   4.392   2.940   2.175  0.0515 -0.2207  0.1758
    1C        C  304   4.474   3.141   2.293  0.0147 -0.1476  0.0536
    1C        C  305   4.433   3.082   2.415  0.1920 -0.1031  0.1315
    1C        C  306   4.501   3.285   2.530  0.7893 -0.0515 -0.0755
    1C        C  307   4.465   3.149   2.536  0.6415 -0.0093 -0.0418
    1C        C  308   4.511   3.358   2.651  0.5509  0.1071 -0.1518
    1C        C  309   4.490   3.292   2.774  0.5047 -0.0737 -0.2582
    1C        C  310   4.522   3.502   2.895  0.6847 -0.1798 -0.4619
    1C        C  311   4.510   3.361   2.895  0.1994 -0.1386 -0.1742
    1C        C  312   4.515   3.573   3.017  0.0390 -0.1983 -0.4860
    1C        C  313   4.516   3.504   3.140  0.3291 -0.1519 -0.4650
    1C        C  314   4.483   3.716   3.263 -0.1811 -0.3640  0.1602
    1C        C  315   4.504   3.576   3.261  0.4529 -0.2653 -0.3846
    1C        C  316   4.469   3.787   3.384 -0.6430 -0.3299  0.0892
    1C        C  317   4.487   3.720   3.507 -0.8696 -0.1057  0.2467
    1C        C  318   4.427   3.923   3.621 -0.8378 -0.3245  0.4302
    1C        C  319   4.468   3.788   3.630 -0.1812 -0.1359  0.3769
    1C        C  320   4.398   3.988   3.743 -0.1680 -0.2124  0.5407
    1C        C  321   4.426   3.927   3.867 -0.2428  0.2569  0.8000
    1C        C  322   4.318   4.109   3.983 -0.7880 -0.1862 -0.5264
    1C        C  323   4.404   3.996   3.988 -0.3869  0.1509  0.8411
    1C        C  324   4.276   4.166   4.105  0.4834  0.4926 -0.3778
    1C        C  325   4.323   4.118   4.229  0.5132  0.3338 -0.4400
    1C        C  326   4.187   4.286   4.353  0.2278  0.1718 -0.4259
    1C        C  327   4.278   4.178   4.349  0.0765  0.0354 -0.4425
    1C        C  328   4.139   4.343   4.473  0.5293 -0.2490 -0.0924
    1C        C  329   4.195   4.295   4.593  0.3267  0.2808  0.2262
    1C        C  330   4.018   4.420   4.712  0.2869  0.2273  0.1193
    1C        C  331   4.140   4.347   4.712  0.3674  0.3520  0.2210
    1C        C  332   3.963   4.475   4.829 -0.0478  0.1646 -0.0034
    1C        C  333   4.048   4.466   4.940 -0.1691  0.4367  0.1184
    1C        C  334   4.542   3.262   2.058  0.4555  0.0765  0.0725
    1C        C  335   4.536   3.122   2.065 -0.1291  0.1072  0.1805
    1C        C  336   4.527   3.348   2.167  0.6418  0.0785  0.0981
    1C        C  337   4.502   3.280   2.288 -0.1995 -0.1153 -0.1793
    1C        C  338   4.530   3.494   2.407 -0.4463 -0.0493 -0.2223
    1C        C  339   4.516   3.354   2.408 -0.1365 -0.0812 -0.2084
    1C        C  340   4.524   3.566   2.528  0.3744  0.1124 -0.2693
    1C        C  341   4.524   3.499   2.652  1.1099  0.0609 -0.2935
    1C        C  342   4.493   3.710   2.774  0.0694  0.0058  0.4799
    1C        C  343   4.521   3.572   2.773  0.4192  0.0761 -0.3145
    1C        C  344   4.483   3.782   2.895 -0.3760 -0.1344  0.5294
    1C        C  345   4.498   3.713   3.017 -0.6099 -0.2709  0.4833
    1C        C  346   4.417   3.911   3.132 -0.7473 -0.1322  0.5191
    1C        C  347   4.472   3.781   3.139 -0.3571  0.0225  0.3742
    1C        C  348   4.388   3.979   3.252 -0.5936 -0.2948  0.6522
    1C        C  349   4.427   3.922   3.376 -0.3665 -0.2031  0.6282
    1C        C  350   4.313   4.098   3.495 -0.0929  0.2442 -0.8008
    1C        C  351   4.396   3.985   3.498 -0.3457  0.0737  0.4961
    1C        C  352   4.271   4.159   3.616  0.4705  0.5913 -0.7707
    1C        C  353   4.318   4.105   3.738  0.2564  0.0331 -0.9230
    1C        C  354   4.175   4.261   3.867  0.2285 -0.1239 -0.1116
    1C        C  355   4.273   4.160   3.859  0.2397 -0.0738 -0.8729
    1C        C  356   4.121   4.311   3.988 -0.0896  0.2720 -0.4033
    1C        C  357   4.180   4.269   4.109  0.0335  0.0998 -0.5111
    1C        C  358   4.006   4.392   4.228  0.4712  0.5401  0.5546
    1C        C  359   4.130   4.323   4.229  0.4010  0.3584 -0.4609
    1C        C  360   3.948   4.437   4.348  0.4888  0.4053  0.6234
    1C        C  361   4.018   4.415   4.469  0.3689 -0.4662  0.5460
    1C        C  362   3.826   4.511   4.588 -0.1650 -0.3009  0.1201
    1C        C  363   3.953   4.449   4.590 -0.1638 -0.3093  0.2249
    1C        C  364   3.759   4.542   4.709 -0.0651  0.2092  0.0500
    1C        C  365   3.834   4.533   4.828  0.0249  0.3364  0.0073
    1C        C  366   3.625   4.582   4.947  0.0550  0.3971  0.1136
    1C        C  367   3.763   4.563   4.945  0.0144  0.0914  0.0682
    1C        C  368   4.514   3.565   2.048  0.8383  0.0819 -0.0376
    1C        C  369   4.523   3.489   2.166  0.3079  0.0709  0.0003
    1C        C  370   4.494   3.703   2.283  0.2912  0.2616 -0.4424
    1C        C  371   4.520   3.565   2.285  0.1519  0.2370 -0.1073
    1C        C  372   4.476   3.771   2.406 -0.0606 -0.4366 -0.1006
    1C        C  373   4.503   3.706   2.528 -1.0588 -0.0843  0.3150
    1C        C  374   4.417   3.902   2.645 -0.1662 -0.0125  0.1366
    1C        C  375   4.475   3.774   2.649 -0.3435 -0.0851  0.4881
    1C        C  376   4.380   3.966   2.765  0.1655 -0.1055  0.2917
    1C        C  377   4.416   3.906   2.888 -0.0112  0.0595  0.4295
    1C        C  378   4.318   4.094   3.007  0.0746  0.0381 -0.7467
    1C        C  379   4.393   3.975   3.009  0.1185  0.0724  0.4484
    1C        C  380   4.275   4.153   3.128 -0.2424 -0.0166 -0.8272
    1C        C  381   4.312   4.098   3.252  0.1103  0.1798 -0.8397
    1C        C  382   4.177   4.262   3.378  0.5499  0.6077 -0.2107
    1C        C  383   4.272   4.158   3.373  0.2324  0.3377 -0.8715
    1C        C  384   4.125   4.311   3.500 -0.2474 -0.3575 -0.1439
    1C        C  385   4.176   4.262   3.622  0.0242  0.1537 -0.0421
    1C        C  386   3.999   4.378   3.740  0.1778  0.2488  0.9112
    1C        C  387   4.119   4.304   3.744  0.3049  0.3814  0.0209
    1C        C  388   3.940   4.421   3.861 -0.0596  0.5896  0.6846
    1C        C  389   4.005   4.391   3.983 -0.1453  0.2812  0.6652
    1C        C  390   3.812   4.474   4.100 -0.1213  0.0821  0.3033
    1C        C  391   3.944   4.423   4.106 -0.1144  0.1229  0.7321
    1C        C  392   3.750   4.506   4.223 -0.0192  0.0626  0.3669
    1C        C  393   3.820   4.497   4.345  0.2851 -0.0246  0.1948
    1C        C  394   3.615   4.546   4.470 -0.0829  0.2067 -0.2065
    1C        C  395   3.755   4.527   4.467 -0.1625 -0.5122  0.0846
    1C        C  396   3.546   4.558   4.592  0.0062  0.0306 -0.1342
    1C        C  397   3.619   4.561   4.712 -0.0475  0.3953 -0.1051
    1C        C  398   3.407   4.546   4.832  0.1221  0.5035 -0.0387
    1C        C  399   3.546   4.569   4.832  0.1802  0.1533  0.0530
    1C        C  400   3.340   4.517   4.951  0.1642 -0.2528 -0.1984
    1C        C  401   4.507   3.704   2.045 -0.0435  0.0389 -0.3831
    1C        C  402   4.447   3.911   2.162  0.1125  0.2392 -0.0999
    1C        C  403   4.493   3.777   2.163  0.0257  0.2047 -0.4768
    1C        C  404   4.410   3.974   2.282  0.1251 -0.0799  0.0738
    1C        C  405   4.431   3.904   2.403 -0.1948 -0.4813 -0.0991
    1C        C  406   4.321   4.090   2.523 -0.0431 -0.3391 -0.1980
    1C        C  407   4.393   3.969   2.523 -0.4311 -0.5725 -0.1219
    1C        C  408   4.275   4.150   2.642 -0.4948  0.2537 -0.6623
    1C        C  409   4.312   4.090   2.764 -0.5483 -0.4871 -1.0032
    1C        C  410   4.178   4.255   2.889  0.5390  0.0849 -0.0529
    1C        C  411   4.274   4.151   2.886  0.2302 -0.1791 -0.9093
    1C        C  412   4.123   4.299   3.012 -0.1623 -0.0654 -0.3121
    1C        C  413   4.174   4.251   3.134 -0.3552 -0.1636 -0.2675
    1C        C  414   4.002   4.377   3.250  0.2856  0.3760  0.5135
    1C        C  415   4.121   4.302   3.255  0.3019  0.3477 -0.1871
    1C        C  416   3.939   4.413   3.372  0.4190  0.6705  0.5017
    1C        C  417   4.004   4.383   3.493 -0.0070  0.1366  0.6106
    1C        C  418   3.814   4.473   3.613  0.4512  0.3209 -0.0939
    1C        C  419   3.941   4.413   3.616  0.4220  0.2876  0.8004
    1C        C  420   3.746   4.505   3.733 -0.0356 -0.0526 -0.2616
    1C        C  421   3.814   4.483   3.855 -0.0698  0.5075 -0.1345
    1C        C  422   3.608   4.529   3.982  0.1064  0.0655 -0.7390
    1C        C  423   3.746   4.499   3.978 -0.0272 -0.7457  0.0696
    1C        C  424   3.541   4.533   4.106  0.5188 -0.4506 -0.4861
    1C        C  425   3.610   4.521   4.229 -0.1083 -0.4899 -0.1265
    1C        C  426   3.400   4.531   4.355 -0.1582 -0.0973  0.2757
    1C        C  427   3.541   4.540   4.350 -0.1437 -0.4874 -0.1417
    1C        C  428   3.329   4.533   4.478 -0.0879  0.5361  0.3110
    1C        C  429   3.405   4.542   4.596 -0.0436  0.5235  0.2847
    1C        C  430   3.189   4.515   4.718 -0.1867  0.5773 -0.2941
    1C        C  431   3.329   4.540   4.715 -0.2392  0.9624  0.1700
    1C        C  432   3.121   4.488   4.840 -0.1479  0.5928 -0.2676
    1C        C  433   3.204   4.488   4.954  0.0056  0.4536 -0.3787
    1C        C  434   4.380   4.117   2.049 -0.3077  0.1286  0.1857
    1C        C  435   4.441   3.991   2.047  0.0058  0.2859 -0.0615
    1C        C  436   4.297   4.158   2.158 -0.5990  0.1303 -0.0374
    1C        C  437   4.329   4.091   2.279  0.3457  0.0657 -0.3152
    1C        C  438   4.178   4.243   2.398  0.1941 -0.3340  0.1759
    1C        C  439   4.281   4.147   2.400  0.5283  0.0153 -0.2209
    1C        C  440   4.118   4.285   2.519 -0.5592 -0.4934 -0.1342
    1C        C  441   4.174   4.249   2.644 -0.6829  0.0582  0.0831
    1C        C  442   4.008   4.378   2.763 -0.0827  0.2903  0.2483
    1C        C  443   4.125   4.298   2.766 -0.2624  0.0264  0.2690
    1C        C  444   3.945   4.416   2.884 -0.1855 -0.5213  0.4554
    1C        C  445   4.005   4.377   3.005 -0.2831 -0.1610  0.6224
    1C        C  446   3.812   4.465   3.122 -0.0295  0.2460 -0.2368
    1C        C  447   3.941   4.410   3.127 -0.0992  0.1482  0.6372
    1C        C  448   3.746   4.494   3.243  0.0489  0.1230 -0.1649
    1C        C  449   3.810   4.471   3.367  0.1920  0.1308 -0.2349
    1C        C  450   3.610   4.528   3.494  0.2049 -0.2902 -0.5918
    1C        C  451   3.747   4.496   3.490  0.1708 -0.5062 -0.1083
    1C        C  452   3.540   4.545   3.615  0.2245 -0.0434 -0.6114
    1C        C  453   3.609   4.539   3.738 -0.0324  0.0105 -0.4600
    1C        C  454   3.398   4.543   3.865 -0.1089  0.1397  0.4330
    1C        C  455   3.539   4.546   3.860 -0.1376  0.5587 -0.5407
    1C        C  456   3.329   4.538   3.988  0.3963  0.2322  0.7243
    1C        C  457   3.400   4.535   4.111  0.5503  0.2077  0.6387
    1C        C  458   3.191   4.499   4.229 -0.2302  0.5018  0.3549
    1C        C  459   3.330   4.524   4.233 -0.0895 -0.2315  0.2425
    1C        C  460   3.124   4.487   4.353 -0.2632  0.0930  0.3007
    1C        C  461   3.189   4.513   4.475 -0.0721  0.4407  0.1280
    1C        C  462   2.992   4.434   4.596 -0.4969  0.3125 -0.1714
    1C        C  463   3.121   4.491   4.597 -0.3199 -0.0811 -0.0987
    1C        C  464   2.928   4.399   4.717  0.0509  0.5634  0.1974
    1C        C  465   2.987   4.439   4.840 -0.2720  0.9171  0.2412
    1C        C  466   2.806   4.324   4.955 -0.1101 -0.1002  0.3086
    1C        C  467   2.905   4.422   4.957 -0.1859 -0.0192  0.1767
    1C        C  468   4.115   4.277   2.037 -0.3506 -0.5012 -0.1802
    1C        C  469   4.184   4.246   2.155 -0.8254 -0.1524  0.1934
    1C        C  470   4.008   4.370   2.275 -0.0564  0.0031 -0.1957
    1C        C  471   4.129   4.295   2.276  0.0776  0.2267  0.4580
    1C        C  472   3.941   4.398   2.396  0.4149 -0.2560  0.1290
    1C        C  473   4.002   4.364   2.519  0.2489  0.7341  0.4950
    1C        C  474   3.813   4.458   2.639 -0.3707  0.1033 -0.0538
    1C        C  475   3.944   4.406   2.641 -0.2397  0.4452  0.3647
    1C        C  476   3.741   4.478   2.758 -0.1639  0.1925  0.0530
    1C        C  477   3.812   4.462   2.879 -0.0282 -0.1109 -0.0669
    1C        C  478   3.604   4.511   3.007 -0.2022  0.3748 -0.7529
    1C        C  479   3.742   4.484   3.000 -0.3360 -0.4810 -0.1780
    1C        C  480   3.535   4.526   3.129 -0.1726  0.2982 -0.7292
    1C        C  481   3.608   4.523   3.250 -0.0515 -0.1923 -0.8147
    1C        C  482   3.397   4.537   3.374  0.3244  0.6448  0.4149
    1C        C  483   3.538   4.532   3.372  0.3049  0.2343 -0.6386
    1C        C  484   3.328   4.531   3.497  0.3017  0.3318  0.3883
    1C        C  485   3.399   4.535   3.619  0.2378  0.0803  0.4341
    1C        C  486   3.193   4.496   3.737  0.1521 -0.1642  0.2729
    1C        C  487   3.330   4.530   3.742  0.0392  0.2822  0.3329
    1C        C  488   3.127   4.477   3.860  0.1116  0.2822  0.3214
    1C        C  489   3.192   4.506   3.982  0.5225 -0.2428  0.2315
    1C        C  490   3.001   4.416   4.108  0.1218  0.2416 -0.6785
    1C        C  491   3.126   4.481   4.105  0.2942 -0.0364  0.1530
    1C        C  492   2.944   4.374   4.230  0.0297  0.0408 -0.7898
    1C        C  493   2.999   4.421   4.351  0.0304 -0.4646 -0.5935
    1C        C  494   2.831   4.296   4.477  0.3479 -0.1174 -0.0365
    1C        C  495   2.937   4.389   4.474  0.1350  0.1162 -0.3878
    1C        C  496   2.771   4.254   4.598  0.4833 -0.0385  0.0581
    1C        C  497   2.818   4.310   4.719  0.4911  0.0103  0.0326
    1C        C  498   2.661   4.162   4.839  0.3587 -0.0008 -0.2455
    1C        C  499   2.752   4.269   4.837  0.6122 -0.2102  0.0252
    1C        C  500   2.588   4.117   4.950  0.2861 -0.4581 -0.4770
    1C        C  501   3.994   4.347   2.038 -0.2544 -0.3355 -0.1143
    1C        C  502   3.816   4.468   2.157  0.1036  0.4027  0.1994
    1C        C  503   3.942   4.404   2.155 -0.1845 -0.1559 -0.1704
    1C        C  504   3.745   4.486   2.278  0.1137  0.6515  0.1665
    1C        C  505   3.810   4.452   2.399  0.2174 -0.7076 -0.2509
    1C        C  506   3.603   4.508   2.521  0.1201 -0.0662 -0.7090
    1C        C  507   3.742   4.482   2.519  0.0560 -0.4205 -0.4153
    1C        C  508   3.531   4.523   2.641  0.0376 -0.1651 -0.7506
    1C        C  509   3.604   4.511   2.761 -0.0907  0.5608 -0.5986
    1C        C  510   3.394   4.526   2.886 -0.2826  0.2473  0.1575
    1C        C  511   3.534   4.517   2.884 -0.2865  0.3460 -0.7022
    1C        C  512   3.324   4.523   3.009 -0.1765  0.4039  0.2171
    1C        C  513   3.394   4.531   3.132 -0.1632  0.1235  0.2248
    1C        C  514   3.189   4.482   3.250  0.6179 -0.7985  0.5709
    1C        C  515   3.323   4.526   3.254  0.2728  0.2611  0.4814
    1C        C  516   3.124   4.464   3.373  0.2365 -0.6457  0.3890
    1C        C  517   3.194   4.489   3.494  0.4805 -0.2243  0.1620
    1C        C  518   3.000   4.406   3.617  0.2389  0.2508 -0.5974
    1C        C  519   3.127   4.468   3.616  0.2555  0.2429  0.1201
    1C        C  520   2.940   4.374   3.741  0.3433 -0.3148 -0.6870
    1C        C  521   3.002   4.411   3.863  0.4118 -0.3496 -0.7109
    1C        C  522   2.835   4.284   3.991 -0.0291  0.4226 -0.3284
    1C        C  523   2.945   4.373   3.986  0.0397  0.3190 -0.6681
    1C        C  524   2.778   4.241   4.113  0.1641  0.0902 -0.3549
    1C        C  525   2.832   4.288   4.234 -0.0734  0.1973 -0.2916
    1C        C  526   2.692   4.134   4.359  0.7865 -0.0718  0.1813
    1C        C  527   2.776   4.247   4.357  0.0527  0.4708 -0.1432
    1C        C  528   2.657   4.071   4.480  0.1139 -0.0965 -0.0210
    1C        C  529   2.685   4.142   4.599  0.5444 -0.0869 -0.1258
    1C        C  530   2.582   3.957   4.725 -0.0933  0.1425 -0.0114
    1C        C  531   2.640   4.087   4.721  0.1146  0.0414 -0.2269
    1C        C  532   2.548   3.895   4.848  0.2969 -0.2577 -0.1068
    1C        C  533   2.529   3.990   4.954 -0.0573 -0.2905 -0.1413
    1C        C  534   3.612   4.548   2.036 -0.1525 -0.1220  0.0517
    1C        C  535   3.749   4.516   2.045 -0.1167  0.0712  0.1885
    1C        C  536   3.534   4.530   2.154 -0.3625 -0.2495 -0.1071
    1C        C  537   3.606   4.513   2.276  0.0654  0.3707 -0.2714
    1C        C  538   3.394   4.504   2.397 -0.2639  0.3336  0.0707
    1C        C  539   3.535   4.512   2.398 -0.2762  0.5466 -0.4718
    1C        C  540   3.322   4.504   2.519 -0.1747  0.1365  0.1195
    1C        C  541   3.389   4.521   2.642  0.0440 -0.1320  0.0329
    1C        C  542   3.183   4.481   2.761  0.0138 -0.1381  0.4592
    1C        C  543   3.321   4.511   2.766  0.0454 -0.2327  0.0208
    1C        C  544   3.119   4.456   2.884  0.3149 -0.6884  0.5014
    1C        C  545   3.188   4.488   3.004 -0.0780 -0.0250  0.5503
    1C        C  546   3.003   4.387   3.130 -0.0937  0.2408 -0.4102
    1C        C  547   3.123   4.461   3.127  0.2600 -0.2663  0.6731
    1C        C  548   2.945   4.349   3.253 -0.5815  0.2508 -0.6365
    1C        C  549   3.000   4.397   3.374  0.0648 -0.3583 -0.6830
    1C        C  550   2.825   4.282   3.504  0.1512  0.1979  0.0555
    1C        C  551   2.937   4.368   3.497  0.1398  0.1678 -0.5194
    1C        C  552   2.773   4.238   3.628  0.0734 -0.3457 -0.1680
    1C        C  553   2.831   4.285   3.748  0.4196 -0.3823 -0.3208
    1C        C  554   2.699   4.119   3.870 -0.0648  0.2671  0.5156
    1C        C  555   2.783   4.233   3.870 -0.1887  0.3644 -0.2344
    1C        C  556   2.655   4.067   3.993 -0.0740  0.0035  0.3987
    1C        C  557   2.694   4.127   4.115  0.4552 -0.1170  0.2885
    1C        C  558   2.605   3.938   4.238 -0.4381  0.3062  0.0187
    1C        C  559   2.658   4.069   4.238  0.1559  0.0659  0.2848
    1C        C  560   2.584   3.873   4.361  0.0521  0.0245 -0.0464
    1C        C  561   2.602   3.941   4.483  0.1650 -0.1143  0.0098
    1C        C  562   2.529   3.747   4.609 -0.2598  0.1485 -0.1840
    1C        C  563   2.564   3.883   4.606 -0.1927  0.1331  0.0129
    1C        C  564   2.523   3.678   4.732 -0.4231 -0.3392 -0.4651
    1C        C  565   2.529   3.753   4.853  0.0241 -0.2357 -0.5543
    1C        C  566   2.529   3.546   4.974 -0.0136  0.6755 -0.6473
    1C        C  567   2.522   3.685   4.975 -0.1114  0.6675 -0.0491
    1C        C  568   3.321   4.474   2.041 -0.1102 -0.4500 -0.1803
    1C        C  569   3.394   4.508   2.157 -0.3709 -0.1840 -0.0936
    1C        C  570   3.181   4.469   2.278 -0.1950  0.0382 -0.2125
    1C        C  571   3.319   4.502   2.277 -0.1809 -0.0284  0.0280
    1C        C  572   3.112   4.450   2.399  0.0386 -0.2575 -0.1292
    1C        C  573   3.185   4.472   2.518 -0.0681 -0.3019 -0.0591
    1C        C  574   2.987   4.398   2.643  0.2797  0.0650 -0.1500
    1C        C  575   3.115   4.459   2.640  0.4521 -0.2801  0.2408
    1C        C  576   2.931   4.356   2.765  0.0788 -0.5017 -0.4409
    1C        C  577   2.994   4.392   2.887  0.1409 -0.3911 -0.5095
    1C        C  578   2.820   4.274   3.017 -0.2281  0.4703 -0.1824
    1C        C  579   2.937   4.352   3.010 -0.0654  0.2076 -0.4146
    1C        C  580   2.771   4.226   3.140 -0.2457  0.2553 -0.2722
    1C        C  581   2.833   4.264   3.261  0.1139 -0.6363 -0.1692
    1C        C  582   2.699   4.107   3.383  0.3225 -0.0605  0.5925
    1C        C  583   2.779   4.223   3.384  0.2892 -0.0288  0.1124
    1C        C  584   2.659   4.055   3.508  0.3261 -0.3201  0.4887
    1C        C  585   2.692   4.122   3.628 -0.3804 -0.0337  0.5313
    1C        C  586   2.595   3.932   3.750 -0.0142 -0.0558  0.3612
    1C        C  587   2.659   4.058   3.749  0.3750 -0.2491  0.6296
    1C        C  588   2.580   3.867   3.875 -0.3470 -0.2154  0.2346
    1C        C  589   2.601   3.937   3.996 -0.5383  0.1914  0.0319
    1C        C  590   2.553   3.730   4.124  0.5732  0.0024  0.2121
    1C        C  591   2.588   3.866   4.117 -0.0156  0.1475  0.0570
    1C        C  592   2.540   3.662   4.247 -0.0090 -0.1504  0.0672
    1C        C  593   2.548   3.736   4.367  0.2665 -0.0274 -0.0308
    1C        C  594   2.509   3.532   4.493 -0.1375  0.0238 -0.0656
    1C        C  595   2.523   3.672   4.490 -0.2475  0.0313 -0.1082
    1C        C  596   2.516   3.462   4.615  0.8087 -0.1994 -0.2410
    1C        C  597   2.520   3.536   4.736  0.1761 -0.3453 -0.1269
    1C        C  598   2.544   3.326   4.856  0.3595 -0.2019  0.0813
    1C        C  599   2.529   3.466   4.858  0.3266 -0.2026 -0.0568
    1C        C  600   2.539   3.250   4.973 -0.0693 -0.1659  0.0902
    1C        C  601   3.187   4.441   2.039 -0.2964  0.3095 -0.4629
    1C        C  602   2.979   4.389   2.158  0.1235 -0.5669 -0.0666
    1C        C  603   3.111   4.444   2.157 -0.0003 -0.2745 -0.2573
    1C        C  604   2.917   4.359   2.283 -0.2999  0.7670  0.0632
    1C        C  605   2.983   4.392   2.403 -0.3191  0.5500  0.1296
    1C        C  606   2.819   4.261   2.531  0.1032 -0.0450  0.2072
    1C        C  607   2.920   4.359   2.525 -0.3109  0.3776  0.0842
    1C        C  608   2.775   4.205   2.653  0.1209 -0.4785  0.0140
    1C        C  609   2.828   4.259   2.772 -0.1408 -0.2356  0.0192
    1C        C  610   2.688   4.107   2.896 -0.2708  0.0248  0.5678
    1C        C  611   2.772   4.220   2.895 -0.3128  0.0557  0.0331
    1C        C  612   2.650   4.048   3.019 -0.0986  0.2277  0.7197
    1C        C  613   2.687   4.112   3.140 -0.4036  0.3555  0.7489
    1C        C  614   2.587   3.926   3.263 -0.1338  0.0632  0.1384
    1C        C  615   2.651   4.051   3.262 -0.0309  0.0168  0.6944
    1C        C  616   2.568   3.861   3.387  0.3154 -0.0851  0.1325
    1C        C  617   2.601   3.927   3.507 -0.5080  0.0519  0.2873
    1C        C  618   2.543   3.724   3.636 -0.2994  0.0501 -0.1040
    1C        C  619   2.581   3.860   3.630 -0.0147 -0.0084  0.3338
    1C        C  620   2.524   3.658   3.760 -0.2819  0.0996 -0.0752
    1C        C  621   2.542   3.731   3.879  0.3039 -0.3973  0.1379
    1C        C  622   2.514   3.522   4.007 -0.2249 -0.0001  0.1618
    1C        C  623   2.529   3.663   4.002  0.1363 -0.0334  0.3206
    1C        C  624   2.509   3.451   4.128  0.0238 -0.1730  0.0694
    1C        C  625   2.516   3.523   4.250  0.3557 -0.2121  0.0723
    1C        C  626   2.537   3.317   4.374 -0.3945 -0.2701  0.0774
    1C        C  627   2.514   3.456   4.374  0.1031 -0.1855  0.0801
    1C        C  628   2.555   3.251   4.497  0.1479 -0.3237 -0.0294
    1C        C  629   2.540   3.323   4.617  0.2409 -0.2963 -0.0338
    1C        C  630   2.597   3.114   4.741 -0.1264 -0.3026 -0.1230
    1C        C  631   2.557   3.251   4.738  0.4584 -0.1224  0.0405
    1C        C  632   2.618   3.045   4.864 -0.1754  0.0360  0.0790
    1C        C  633   2.563   3.112   4.978  0.2279 -0.1071  0.3634
    1C        C  634   2.774   4.298   2.055  0.0495  0.1213  0.1203
    1C        C  635   2.886   4.383   2.050  0.0633  0.0907 -0.0548
    1C        C  636   2.743   4.224   2.170  0.0795  0.4445  0.3375
    1C        C  637   2.806   4.270   2.288 -0.1090  0.5478  0.3968
    1C        C  638   2.679   4.101   2.411 -0.0945  0.1850  0.0363
    1C        C  639   2.765   4.213   2.410 -0.3493  0.3835  0.2381
    1C        C  640   2.634   4.044   2.532 -0.0308  0.0002 -0.0266
    1C        C  641   2.682   4.099   2.653  0.2205 -0.5644  0.1366
    1C        C  642   2.588   3.914   2.775 -0.0140  0.0454 -0.4092
    1C        C  643   2.645   4.043   2.777  0.5354 -0.2026  0.3941
    1C        C  644   2.559   3.853   2.899  0.4577  0.3170 -0.1592
    1C        C  645   2.591   3.920   3.019  0.3581  0.0102  0.0447
    1C        C  646   2.533   3.719   3.145  0.0893  0.1169 -0.5186
    1C        C  647   2.561   3.858   3.142  0.0892  0.1356  0.0463
    1C        C  648   2.523   3.653   3.269 -0.3796  0.0613 -0.5828
    1C        C  649   2.534   3.725   3.390  0.0333 -0.0367 -0.5560
    1C        C  650   2.516   3.516   3.516  0.0284  0.3812  0.1322
    1C        C  651   2.526   3.656   3.514  0.0087  0.3748 -0.3278
    1C        C  652   2.515   3.448   3.640 -0.3450  0.3671  0.1229
    1C        C  653   2.509   3.518   3.763 -0.6701  0.1462  0.2330
    1C        C  654   2.532   3.309   3.886 -0.5054  0.0261  0.4597
    1C        C  655   2.513   3.449   3.886 -0.5874  0.0153  0.1569
    1C        C  656   2.548   3.242   4.009 -0.1116 -0.3780  0.1881
    1C        C  657   2.529   3.311   4.130  0.4203 -0.1166  0.1233
    1C        C  658   2.606   3.115   4.256  0.4357  0.0091 -0.2543
    1C        C  659   2.548   3.244   4.253 -0.4132 -0.3565  0.1287
    1C        C  660   2.634   3.053   4.380  0.2994 -0.1532 -0.3047
    1C        C  661   2.603   3.118   4.502  0.4098 -0.2372 -0.2315
    1C        C  662   2.712   2.933   4.623 -0.0445 -0.3735  0.0270
    1C        C  663   2.628   3.047   4.621  0.3402 -0.0873 -0.1272
    1C        C  664   2.748   2.871   4.744 -0.2692 -0.1270  0.2249
    1C        C  665   2.701   2.929   4.865 -0.0678  0.1098  0.1945
    1C        C  666   2.749   2.867   4.982  0.2802 -0.1197 -0.0638
    1C        C  667   2.672   4.018   2.052 -0.1329 -0.2020  0.7065
    1C        C  668   2.685   4.095   2.168 -0.1961  0.5693  0.2072
    1C        C  669   2.596   3.903   2.292  0.4931 -0.1504 -0.4172
    1C        C  670   2.648   4.035   2.290  0.3952 -0.1021  0.0643
    1C        C  671   2.556   3.843   2.413  0.8481 -0.0194 -0.2324
    1C        C  672   2.578   3.914   2.534 -0.1163  0.0350 -0.0790
    1C        C  673   2.513   3.712   2.659 -0.0160 -0.2368  0.1199
    1C        C  674   2.553   3.848   2.656 -0.2781 -0.1649 -0.2184
    1C        C  675   2.500   3.644   2.782  0.0170  0.0130  0.2640
    1C        C  676   2.519   3.717   2.901  0.0254  0.4438  0.0046
    1C        C  677   2.510   3.507   3.029  0.2681 -0.1513  0.3293
    1C        C  678   2.515   3.648   3.024 -0.1333 -0.1529 -0.3288
    1C        C  679   2.513   3.439   3.153  0.3470 -0.0324  0.3953
    1C        C  680   2.508   3.512   3.273 -0.5104  0.0947  0.2924
    1C        C  681   2.526   3.302   3.395  0.3767  0.1720  0.3442
    1C        C  682   2.513   3.442   3.396 -0.2521  0.1186  0.2971
    1C        C  683   2.541   3.236   3.519 -0.0671  0.2879  0.4624
    1C        C  684   2.529   3.307   3.640  0.1290  0.4120  0.4101
    1C        C  685   2.591   3.106   3.766  0.2846  0.3597 -0.4510
    1C        C  686   2.546   3.240   3.764  0.1358  0.3294  0.3635
    1C        C  687   2.625   3.045   3.888  0.7126  0.3100 -0.5948
    1C        C  688   2.605   3.113   4.011  0.6408 -0.0591 -0.4010
    1C        C  689   2.713   2.933   4.136  0.4877  0.1007 -0.1880
    1C        C  690   2.639   3.053   4.134  0.4240  0.0598 -0.2824
    1C        C  691   2.755   2.877   4.259 -0.1206 -0.2038 -0.1137
    1C        C  692   2.718   2.940   4.379  0.2213 -0.2146 -0.0000
    1C        C  693   2.759   2.881   4.500  0.0557 -0.2840  0.0242
    1C        C  694   2.639   3.882   2.058  0.0230 -0.2911 -0.2751
    1C        C  695   2.532   3.696   2.179  0.1172 -0.2793  0.1133
    1C        C  696   2.583   3.827   2.174 -0.2405 -0.1544 -0.3366
    1C        C  697   2.509   3.631   2.302  0.0867  0.0569  0.2845
    1C        C  698   2.514   3.708   2.420 -0.3127  0.3466  0.1150
    1C        C  699   2.477   3.498   2.544  0.0136  0.0329  0.4189
    1C        C  700   2.494   3.638   2.540 -0.1691  0.0452 -0.0344
    1C        C  701   2.487   3.429   2.667  0.1790  0.1207  0.4554
    1C        C  702   2.497   3.503   2.787  0.5592  0.0069  0.4967
    1C        C  703   2.518   3.293   2.909  0.2776 -0.1514  0.1186
    1C        C  704   2.503   3.433   2.909 -0.5624 -0.2317  0.4222
    1C        C  705   2.538   3.225   3.031  0.3370 -0.1122  0.1307
    1C        C  706   2.539   3.300   3.151  0.4981 -0.0002  0.0608
    1C        C  707   2.593   3.099   3.278 -0.3122  0.1057 -0.4353
    1C        C  708   2.545   3.232   3.274  0.0870  0.2745  0.2367
    1C        C  709   2.615   3.035   3.402 -0.5275  0.1566 -0.3720
    1C        C  710   2.586   3.102   3.522  0.3757  0.4124 -0.2905
    1C        C  711   2.702   2.929   3.649  0.2802  0.3097 -0.3131
    1C        C  712   2.612   3.037   3.645  0.1040  0.1595 -0.3674
    1C        C  713   2.749   2.873   3.770  0.3342  0.4321 -0.2789
    1C        C  714   2.704   2.928   3.892  0.4716  0.1598 -0.1054
    1C        C  715   2.748   2.872   4.014  0.1809 -0.1583 -0.1471
    1C        C  716   2.451   3.493   2.063  0.4704 -0.3426 -0.0531
    1C        C  717   2.498   3.624   2.063 -0.4454 -0.0053  0.1046
    1C        C  718   2.464   3.416   2.183 -0.0579  0.0069  0.2327
    1C        C  719   2.485   3.491   2.302  0.3424  0.0133  0.1599
    1C        C  720   2.509   3.284   2.427  0.3091  0.1808  0.2604
    1C        C  721   2.476   3.422   2.425  0.4998  0.2264  0.2907
    1C        C  722   2.525   3.214   2.549 -0.1602  0.0611  0.2503
    1C        C  723   2.508   3.289   2.667 -0.4440  0.0217  0.2371
    1C        C  724   2.570   3.086   2.791 -0.4763 -0.1455  0.2768
    1C        C  725   2.523   3.219   2.789 -0.7671 -0.2504  0.1208
    1C        C  726   2.607   3.022   2.912 -0.0807 -0.6317 -0.0993
    1C        C  727   2.578   3.089   3.032 -0.2073 -0.2763 -0.3291
    1C        C  728   2.697   2.917   3.160  0.2982  0.1516 -0.1077
    1C        C  729   2.618   3.034   3.155  0.0985  0.0095 -0.3007
    1C        C  730   2.746   2.872   3.284 -0.2078  0.1012  0.0740
    1C        C  731   2.694   2.918   3.407 -0.0103  0.5201  0.0015
    1C        C  732   2.749   2.872   3.529  0.3011  0.2081 -0.2555
    1C        C  733   2.497   3.191   2.074 -0.3266  0.1606  0.0610
    1C        C  734   2.491   3.275   2.186 -0.0888  0.0025  0.1903
    1C        C  735   2.577   3.078   2.306  0.4049  0.3029  0.0469
    1C        C  736   2.525   3.210   2.308  0.2463  0.2355  0.2208
    1C        C  737   2.612   3.019   2.429  0.2286  0.1735  0.0332
    1C        C  738   2.579   3.084   2.550 -0.3024 -0.0006 -0.0145
    1C        C  739   2.695   2.909   2.671  0.0170  0.4320  0.1048
    1C        C  740   2.607   3.019   2.672 -0.0951  0.3403  0.1203
    1C        C  741   2.739   2.854   2.793  0.2087 -0.2302 -0.2620
    1C        C  742   2.697   2.913   2.914  0.2609 -0.3525 -0.1863
    1C        C  743   2.743   2.862   3.038  0.3929  0.1002 -0.0479
    1C        C  744   2.546   3.061   2.069 -0.2669  0.1821  0.1017
    1C        C  745   2.683   2.893   2.184  0.1417  0.3770  0.0710
    1C        C  746   2.597   3.005   2.187 -0.1177  0.1774  0.0328
    1C        C  747   2.729   2.840   2.307 -0.1674  0.0940  0.0617
    1C        C  748   2.688   2.900   2.428  0.0583  0.0656  0.1499
    1C        C  749   2.739   2.851   2.550 -0.1461  0.0587  0.2292
    1C        C  750   2.743   2.837   2.070 -0.6926 -0.4378  0.0263
    1C        C  751   3.667   2.301   1.993  0.2713  0.0529  0.1552
    1C        O  752   3.665   2.295   1.867  0.0148  0.0728  0.1583
    1C        O  753   3.647   2.172   2.045 -0.6898 -0.2984 -1.0295
    1C        C  754   4.656   3.050   2.017  0.1504  0.5285  0.2414
    1C        O  755   4.639   2.958   1.932  0.3283  0.1035  0.6572
    1C        O  756   4.774   3.014   2.083  0.2561  0.0246 -0.2184
    1C        C  757   4.442   4.209   1.952 -0.0777 -0.0093  0.2037
    1C        O  758   4.540   4.276   1.993 -0.4795  0.2128  0.8072
    1C        O  759   4.415   4.188   1.816 -0.3875  0.4993  0.1856
    1C        C  760   3.579   4.659   1.944  0.0795 -0.1545 -0.0710
    1C        O  761   3.546   4.773   1.987 -0.4910 -0.2978 -0.1286
    1C        O  762   3.529   4.636   1.816  0.3026  0.8742 -0.3545
    1C        C  763   2.871   4.486   1.944 -0.3477  0.1134  0.0240
    1C        O  764   2.923   4.461   1.832  0.0153 -1.2244  0.4680
    1C        O  765   2.762   4.572   1.931 -0.6196 -0.3176 -0.6275
    1C        C  766   2.350   3.469   1.958 -0.2350  0.5615  0.4066
    1C        O  767   2.374   3.441   1.837 -0.2584  0.4197  0.4352
    1C        O  768   2.212   3.476   1.984 -0.2899 -0.2691  0.3733
    1C        C  769   4.712   3.590   5.025  0.0270  0.2158 -0.0746
    1C        O  770   4.724   3.595   5.150  0.1303 -0.2427 -0.0622
    1C        O  771   4.840   3.581   4.969 -0.4247 -0.3011 -1.0389
    1C        C  772   4.270   4.460   5.031  0.2684 -0.1469  0.0451
    1C        O  773   4.291   4.430   5.151  0.1770  0.4261  0.2079
    1C        O  774   4.358   4.561   4.989 -0.4831  0.3339 -0.4106
    1C        C  775   4.146   2.515   5.059  0.2926  0.9063  0.0808
    1C        O  776   4.231   2.429   5.024  0.4874  1.0827  0.1164
    1C        O  777   4.149   2.527   5.198  0.1756  0.3968  0.1276
    1C        C  778   2.881   4.530   5.055  0.0027  0.0540  0.1450
    1C        O  779   2.803   4.626   5.031 -0.0679 -0.0083  0.1215
    1C        O  780   2.906   4.506   5.191  0.8250  0.3940  0.0602
    1C        C  781   2.499   3.050   5.096 -0.3614 -0.0160  0.0973
    1C        O  782   2.376   3.024   5.106 -0.3565 -0.1329 -0.1320
    1C        O  783   2.571   3.047   5.215 -0.3257 -0.1246  0.0743
    1C        C  784   2.406   3.985   5.036 -0.2083  0.0569 -0.3488
    1C        O  785   2.293   3.991   4.982 -0.6202  0.0713  0.5002
    1C        O  786   2.409   3.931   5.165  0.5381  0.7237 -0.0770
    1C        C  787   2.958   2.396   2.017  0.1622 -0.6257 -0.4286
    1C        O  788   2.934   2.405   1.893 -0.3433 -0.4174 -0.3200
    1C        O  789   2.932   2.273   2.076 -0.1261 -0.4129 -0.1133
    1C        C  790   3.165   2.363   5.048  0.1380  0.1215  0.2369
    1C        O  791   3.161   2.248   4.997 -0.1473  0.0954  0.3125
    1C        O  792   3.204   2.351   5.181 -0.4116  0.2118  0.4117
    1C        H  793   4.320   2.990   5.069  0.9560  1.6281 -0.4354
    1C        H  794   4.179   2.800   5.071 -1.8676  3.2090  0.8532
    1C        H  795   4.490   3.136   5.059 -1.3826  0.3152  0.0243
    1C        H  796   4.520   3.370   5.058  2.0234  2.2005 -0.4382
    1C        H  797   4.588   3.818   5.026  1.2958 -0.7690  0.2826
    1C        H  798   4.359   3.945   5.041 -0.1356  0.5421  0.0941
    1C        H  799   4.287   4.170   5.047  1.3734 -1.1909  1.0930
    1C        H  800   4.027   4.532   5.021 -0.8924  0.3356  0.0258
    1C        H  801   3.810   4.610   5.030 -1.4611  0.4185  0.7361
    1C        H  802   3.584   4.648   5.021 -0.4511  0.0892  0.1160
    1C        H  803   3.384   4.545   5.045  0.7032 -0.5267 -0.3673
    1C        H  804   3.161   4.493   5.052 -0.4818 -0.3845 -0.5383
    1C        H  805   3.881   2.498   5.076  0.2166 -0.0033  0.4188
    1C        H  806   3.670   2.395   5.052  0.0030 -0.5974  0.0584
    1C        H  807   2.985   2.522   5.042  0.6407 -3.3598 -1.0333
    1C        H  808   3.443   2.485   5.073  1.4846  2.4013  0.2296
    1C        H  809   2.899   2.751   5.070  0.1874  1.0620  0.1484
    1C        H  810   2.753   2.928   5.070 -0.4309 -0.5166  0.2558
    1C        H  811   2.526   3.302   5.066  1.2705  2.2380 -1.0045
    1C        H  812   2.576   3.510   5.063 -0.3529  0.8940 -0.3813
    1C        H  813   2.459   3.726   5.051  0.0366 -0.6620  0.8418
    1C        H  814   2.574   4.182   5.033  0.5521 -1.3489  0.2750
    1C        H  815   2.787   4.267   5.044 -0.5313 -1.1001 -0.3921
    1C        H  816   2.768   2.898   1.986 -2.5140 -1.4339 -1.3097
    1C        H  817   2.811   2.656   1.986  0.4181  0.3024  0.1643
    1C        H  818   3.229   2.506   1.992  0.1466 -0.5687  0.4048
    1C        H  819   3.428   2.470   1.981 -0.8087  3.3838  1.4554
    1C        H  820   3.839   2.532   1.965  0.0287  1.0700  0.1670
    1C        H  821   4.067   2.597   1.968  0.3996  0.9584 -0.4006
    1C        H  822   4.265   2.705   1.973 -0.0339 -0.6232  0.8463
    1C        H  823   4.350   2.940   1.966 -0.8097  0.7649  0.3432
    1C        H  824   4.580   3.302   1.966  0.4196 -0.5963 -0.2450
    1C        H  825   4.476   3.518   1.959 -0.3142  0.4783  0.2262
    1C        H  826   4.536   3.753   1.955  0.2768 -0.2804 -0.4580
    1C        H  827   3.812   4.558   1.970 -1.3995  0.1908 -0.8678
    1C        H  828   3.922   4.323   1.962 -0.1825 -2.1831  0.3347
    1C        H  829   4.150   4.227   1.949  1.0370 -0.4600  0.3213
    1C        H  830   4.481   3.959   1.953 -0.3262 -0.5421  0.0727
    1C        H  831   2.694   3.817   1.993 -0.3120  0.4182 -1.2974
    1C        H  832   2.672   4.062   1.954 -0.9046  1.1735  1.2944
    1C        H  833   2.703   4.298   1.975  0.6836  0.1073 -0.4600
    1C        H  834   3.378   4.449   1.954  1.2920 -0.6977  0.7687
    1C        H  835   3.140   4.412   1.948  0.2449  0.0245 -0.6578
    1C        H  836   2.529   2.995   1.987 -1.4604  0.2758  0.2545
    1C        H  837   2.423   3.214   2.000 -1.8638  0.1749  1.5624
    1C        H  838   2.489   3.677   1.970  1.8984 -0.9580 -0.7349
    2V3OU   H29  839   2.809   3.552   2.396 -1.0660 -1.6715 -1.1794
    2V3OU   C27  840   2.792   3.503   2.495  0.2071  0.6955  0.3115
    2V3OU   H27  841   2.747   3.570   2.572 -0.8008  1.5640 -0.9811
    2V3OU   H28  842   2.733   3.408   2.488  0.4010  0.6739 -1.3019
    2V3OU   O11  843   2.916   3.464   2.555  0.0598 -0.2330  0.0359
    2V3OU   C15  844   2.927   3.403   2.678  0.0103 -0.5018 -0.0930
    2V3OU   C13  845   3.055   3.372   2.727  0.0227 -0.1382  0.1083
    2V3OU   C14  846   3.083   3.264   2.811  0.3000 -0.2481 -0.1190
    2V3OU   C16  847   2.982   3.180   2.856  0.1347  0.1066  0.1858
    2V3OU    H6  848   2.999   3.089   2.916  0.6709  1.1316  1.6330
    2V3OU   C12  849   3.218   3.228   2.860  0.2981 -0.5227 -0.3108
    2V3OU    O2  850   3.234   3.133   2.940  0.5829  0.0189  0.2833
    2V3OU   C10  851   3.326   3.306   2.796  0.3518 -0.1436  0.2313
    2V3OU    C8  852   3.458   3.265   2.811  0.4321 -0.1332 -0.4107
    2V3OU   O10  853   3.489   3.153   2.881  0.3750  0.0347 -0.1147
    2V3OU   H26  854   3.405   3.113   2.910  1.1597 -0.6102  1.4437
    2V3OU    C6  855   3.564   3.339   2.750  0.1870  0.3441 -0.2655
    2V3OU    C5  856   3.537   3.460   2.685  0.0491  0.1174 -0.6383
    2V3OU    C4  857   3.703   3.286   2.752 -0.0364 -0.2310  0.0597
    2V3OU    H4  858   3.722   3.218   2.841  0.4731 -0.2308 -0.0455
    2V3OU    H5  859   3.715   3.226   2.657  1.0795 -0.9411  0.6297
    2V3OU    C2  860   3.813   3.392   2.756 -0.0536 -0.2226  0.3703
    2V3OU    O6  861   3.806   3.470   2.875  0.4862  0.2095  0.1226
    2V3OU   H21  862   3.755   3.549   2.851 -1.3663 -1.1108 -0.5200
    2V3OU    C3  863   3.781   3.489   2.642  0.0380 -0.3604  0.2276
    2V3OU    H2  864   3.855   3.574   2.644 -1.8754  1.4100 -0.3697
    2V3OU    H3  865   3.796   3.436   2.544  1.4898  0.7654 -0.2024
    2V3OU   C25  866   3.953   3.332   2.743  0.2970  0.6245  0.1945
    2V3OU    O7  867   4.002   3.292   2.638  0.3735 -0.0256  0.4716
    2V3OU   C26  868   4.019   3.288   2.873 -0.3192 -0.5012  0.1373
    2V3OU   H22  869   4.056   3.384   2.918 -0.0003  0.2715 -1.6789
    2V3OU   H23  870   4.110   3.226   2.851 -1.0991 -1.5858 -0.1123
    2V3OU    O8  871   3.943   3.211   2.963 -0.1049 -0.0976  0.6686
    2V3OU   H24  872   3.927   3.263   3.044  1.4550  0.1250  0.8526
    2V3OU    C1  873   3.644   3.555   2.642  0.2704  0.1263 -0.0901
    2V3OU    H1  874   3.627   3.604   2.541  1.2021  0.5664 -0.0488
    2V3OU    O3  875   3.656   3.657   2.742  0.2722 -0.1672  0.2083
    2V3OU   C19  876   3.617   3.794   2.730  0.1182 -0.2803 -0.6258
    2V3OU    H9  877   3.515   3.801   2.683 -0.3086  0.0038  0.3265
    2V3OU    O4  878   3.711   3.861   2.648  0.2762  0.1502 -0.0965
    2V3OU   C20  879   3.844   3.872   2.700  0.2273 -0.3063  0.1308
    2V3OU   H10  880   3.886   3.767   2.705  0.9489 -0.0151  0.2660
    2V3OU   C24  881   3.611   3.854   2.870  0.2422  0.3511 -0.8889
    2V3OU   H16  882   3.547   3.787   2.932  2.3425  1.3478  2.6120
    2V3OU   H17  883   3.559   3.953   2.866 -1.1955 -0.4058 -1.8914
    2V3OU   C23  884   3.750   3.873   2.930  0.1192 -0.1403 -0.4500
    2V3OU   H15  885   3.799   3.771   2.946  4.2444  1.4558 -1.6981
    2V3OU    N1  886   3.736   3.954   3.050  0.2948  0.5430 -0.8865
    2V3OU   H19  887   3.805   3.930   3.118 -0.7515  1.0442  0.3800
    2V3OU   H20  888   3.644   3.938   3.087 -0.2960  2.9193 -1.1679
    2V3OU   C21  889   3.849   3.945   2.834  0.2716  0.1200 -0.1012
    2V3OU   H11  890   3.953   3.920   2.871  0.9007  0.0590 -1.8241
    2V3OU    O5  891   3.826   4.085   2.833  0.2053  0.1100  0.0655
    2V3OU   H18  892   3.787   4.091   2.922 -4.1782 -2.0708 -1.4028
    2V3OU   C22  893   3.905   3.946   2.582 -0.6065 -0.1917 -0.2379
    2V3OU   H12  894   3.863   4.050   2.570  0.2931  0.1343 -0.6835
    2V3OU   H13  895   3.897   3.886   2.488 -0.2192  0.0791 -0.4460
    2V3OU   H14  896   4.014   3.967   2.599 -0.2925  1.2920 -3.3791
    2V3OU   C11  897   3.161   3.470   2.698 -0.0657 -0.1034 -0.1103
    2V3OU    O1  898   3.138   3.593   2.704 -0.0453 -0.0929 -0.2248
    2V3OU    C9  899   3.300   3.421   2.718 -0.1720 -0.3074  0.1559
    2V3OU    C7  900   3.402   3.499   2.665 -0.2021 -0.4552 -0.1290
    2V3OU    O9  901   3.377   3.601   2.575  0.2252  0.0453  0.3127
    2V3OU   H25  902   3.285   3.629   2.562  0.4990 -0.0034 -2.3342
    2V3OU   C17  903   2.828   3.323   2.739 -0.0070 -0.6307 -0.2852
    2V3OU    H7  904   2.727   3.363   2.752  0.1625 -0.2040 -0.2682
    2V3OU   C18  905   2.851   3.216   2.825  0.0395 -0.4530 -0.0729
    2V3OU    H8  906   2.780   3.189   2.904  0.5927 -0.1672  0.5275
    3SOL     OW  907   0.893   4.587   4.574  0.0514  0.1268  0.1024
    3SOL    HW1  908   0.900   4.686   4.591 -0.3086  0.1750 -0.0258
    3SOL    HW2  909   0.985   4.548   4.566  0.2402  0.9768 -2.9491
    4SOL     OW  910   4.663   3.733   0.408 -0.0244 -0.0758 -0.0347
    4SOL    HW1  911   4.745   3.755   0.461  1.9179 -0.2865 -2.7480
    4SOL    HW2  912   4.642   3.636   0.417 -0.3366  0.0751  1.0636
    5SOL     OW  913   5.388   5.938   0.205 -0.7653 -0.3522 -0.3157
    5SOL    HW1  914   5.320   5.864   0.202  0.1884 -1.3344  1.0865
    5SOL    HW2  915   5.461   5.919   0.139 -1.1038 -0.0532 -0.7799
    6SOL     OW  916   5.320   3.606   3.427 -0.2588  0.6806  0.4109
    6SOL    HW1  917   5.362   3.645   3.509  0.5049  0.6981  0.0246
    6SOL    HW2  918   5.358   3.650   3.346  0.3340 -0.5534 -0.0195
    7SOL     OW  919   5.868   0.891   3.256 -0.0950 -0.5334 -0.4209
    7SOL    HW1  920   5.827   0.871   3.167 -3.6913  1.5020  0.5760
    7SOL    HW2  921   5.944   0.955   3.243  0.7941 -1.8403 -2.1232
    8SOL     OW  922   6.741   3.186   3.792 -0.2949 -0.2331  0.2961
    8SOL    HW1  923   6.740   3.276   3.835 -0.8896  0.4561 -1.1102
    8SOL    HW2  924   6.786   3.192   3.703  0.6373 -1.5633  0.6346
    9SOL     OW  925   6.149   4.769   0.693 -0.1089 -0.0628 -0.4544
    9SOL    HW1  926   6.225   4.772   0.628  0.4336  1.5835  0.2132
    9SOL    HW2  927   6.143   4.676   0.732  0.7466 -0.5502 -1.4381
   10SOL     OW  928   2.164   6.021   5.591 -0.1260  0.1231  0.5015
   10SOL    HW1  929   2.178   6.116   5.562 -0.1003  0.2280  0.8531
   10SOL    HW2  930   2.130   5.967   5.513  0.6781  0.2214  0.0760
   11SOL     OW  931   5.716   3.635   0.571 -0.3801  0.3314  0.1476
   11SOL    HW1  932   5.658   3.590   0.639 -0.4900  1.0114  0.5124
   11SOL    HW2  933   5.741   3.569   0.500 -0.6480 -0.2649  0.5969
   12SOL     OW  934   5.242   3.881   5.725 -0.1496 -0.5222  0.7167
   12SOL    HW1  935   5.279   3.872   5.633  0.1474 -1.8502  0.9544
   12SOL    HW2  936   5.179   3.959   5.728 -0.9960 -1.1030 -0.8801
   13SOL     OW  937   5.861   6.619   1.891 -0.6237 -0.2411  0.5701
   13SOL    HW1  938   5.878   6.626   1.793  0.0953  0.9428  0.7468
   13SOL    HW2  939   5.937   6.661   1.941 -2.3792  2.0373  1.5296
   14SOL     OW  940   5.877   2.435   1.156 -0.2165  0.0777 -0.6370
   14SOL    HW1  941   5.842   2.341   1.151 -2.1831  0.8006 -1.5066
   14SOL    HW2  942   5.859   2.472   1.247 -1.5521  0.3270 -0.9700
   15SOL     OW  943   2.189   1.807   0.689 -0.0730  0.3677  0.0139
   15SOL    HW1  944   2.219   1.778   0.598 -1.4715  2.7833 -1.3312
   15SOL    HW2  945   2.100   1.851   0.681  0.7652  2.6602  2.1934
   16SOL     OW  946   4.840   3.740   4.042  0.1290 -0.0441  0.2099
   16SOL    HW1  947   4.864   3.645   4.022 -0.8037 -0.5058  1.1642
   16SOL    HW2  948   4.826   3.790   3.957  0.4499 -0.8124 -0.2998
   17SOL     OW  949   5.144   4.706   3.715 -0.2849 -0.1574  0.1659
   17SOL    HW1  950   5.056   4.737   3.679 -0.2404 -0.6901 -0.4243
   17SOL    HW2  951   5.168   4.619   3.673 -0.3953 -0.9867  1.7546
   18SOL     OW  952   6.679   3.539   3.633  0.4049  0.1197 -0.1876
   18SOL    HW1  953   6.777   3.518   3.637  0.2734 -0.4096  0.3984
   18SOL    HW2  954   6.633   3.499   3.712 -0.1501  1.1210  0.0138
   19SOL     OW  955   1.118   0.371   5.616  0.0027 -0.0020  0.4429
   19SOL    HW1  956   1.087   0.282   5.650  1.4482 -1.4145 -1.7103
   19SOL    HW2  957   1.215   0.365   5.592 -0.1161  1.8921 -0.6607
   20SOL     OW  958   0.486   6.628   1.942  0.2837 -0.6600 -0.1174
   20SOL    HW1  959   0.551   6.632   1.867  2.1326 -1.6575  1.3371
   20SOL    HW2  960   0.513   6.555   2.006  0.3178  1.7585  2.8475
   21SOL     OW  961   2.798   4.423   0.966 -0.3067  0.1129  1.0310
   21SOL    HW1  962   2.704   4.421   0.998 -0.3877 -2.2583  0.8217
   21SOL    HW2  963   2.799   4.422   0.866 -0.0671 -0.4466  1.0369
   22SOL     OW  964   6.405   0.541   4.352  0.2172 -0.2212 -0.7927
   22SOL    HW1  965   6.321   0.491   4.332 -0.7264  1.0624 -0.2007
   22SOL    HW2  966   6.467   0.483   4.406 -1.6503 -0.1997  1.5635
   23SOL     OW  967   0.989   3.260   6.937 -0.2188 -0.4277  0.1837
   23SOL    HW1  968   0.942   3.254   7.025 -0.5823  1.0895  0.1133
   23SOL    HW2  969   0.975   3.174   6.887 -1.4494 -0.6734  0.8977
   24SOL     OW  970   0.350   6.263   2.285  0.3952 -1.0242  0.4461
   24SOL    HW1  971   0.423   6.207   2.325  1.0965 -0.4221  0.0468
   24SOL    HW2  972   0.353   6.255   2.185 -1.4384 -2.6331  0.4652
   25SOL     OW  973   4.157   0.523   3.059  0.1051 -0.2025  0.0700
   25SOL    HW1  974   4.183   0.524   2.962  1.5620 -1.3966  0.4056
   25SOL    HW2  975   4.216   0.586   3.110  0.0330 -0.3546  0.3412
   26SOL     OW  976   2.655   3.981   6.370  0.1636  0.8412  0.2968
   26SOL    HW1  977   2.563   3.945   6.356  0.2345 -0.2007  2.2277
   26SOL    HW2  978   2.711   3.959   6.290 -0.9641  0.4991 -0.4250
   27SOL     OW  979   4.824   1.298   3.086 -0.0543 -0.0299  0.2679
   27SOL    HW1  980   4.873   1.213   3.106 -1.9406 -0.8088  1.8386
   27SOL    HW2  981   4.822   1.356   3.167 -0.3033  0.7312 -0.2691
   28SOL     OW  982   5.985   7.002   4.332 -0.1177  0.1304 -0.2515
   28SOL    HW1  983   5.979   7.009   4.232  1.4601  3.2933 -0.2388
   28SOL    HW2  984   5.939   6.919   4.362 -0.7786 -0.8556 -3.5772
   29SOL     OW  985   0.861   0.218   4.569 -0.2159  0.1438 -0.1454
   29SOL    HW1  986   0.929   0.220   4.496  0.5909  0.4205  0.5840
   29SOL    HW2  987   0.900   0.260   4.651 -0.6297 -1.3245  0.8448
   30SOL     OW  988   6.318   6.639   2.883 -0.6189  0.1059 -0.3999
   30SOL    HW1  989   6.415   6.648   2.860  0.0332 -1.6650  1.3987
   30SOL    HW2  990   6.271   6.725   2.862  1.4232  1.1850 -0.8135
   31SOL     OW  991   4.109   3.715   2.900 -0.1419  0.1329  0.3178
   31SOL    HW1  992   4.104   3.657   2.819 -0.9464  0.7624 -0.0945
   31SOL    HW2  993   4.187   3.777   2.893  0.7744 -0.9350  0.8003
   32SOL     OW  994   6.866   0.374   6.448 -0.5913  0.1624 -0.4196
   32SOL    HW1  995   6.768   0.357   6.441 -0.8280  0.6637  1.2109
   32SOL    HW2  996   6.916   0.311   6.388 -1.9167  0.1596 -1.5461
   33SOL     OW  997   5.240   4.822   4.820 -0.2177  0.2520  0.0884
   33SOL    HW1  998   5.282   4.822   4.910 -2.9925 -2.0608  1.5429
   33SOL    HW2  999   5.203   4.913   4.800  1.1590  1.0096  0.8611
   34SOL     OW 1000   0.573   3.880   4.947 -0.4897  0.0498 -0.1930
   34SOL    HW1 1001   0.618   3.791   4.942 -0.8200 -0.0438 -2.4202
   34SOL    HW2 1002   0.641   3.952   4.935 -0.2276  0.1467  1.5769
   35SOL     OW 1003   4.089   3.667   6.627 -0.2335  0.3137  0.2692
   35SOL    HW1 1004   4.088   3.692   6.530  0.5503  1.1165  0.4536
   35SOL    HW2 1005   4.144   3.733   6.678 -0.5861 -0.1317  1.2589
   36SOL     OW 1006   0.926   4.753   2.633  0.0070  0.2435 -1.0015
   36SOL    HW1 1007   0.922   4.774   2.535 -0.4101  1.9789 -0.6424
   36SOL    HW2 1008   0.889   4.829   2.685  2.9351  0.6661  0.6904
   37SOL     OW 1009   1.967   3.795   6.637 -0.9183  0.1897 -0.4192
   37SOL    HW1 1010   1.998   3.890   6.637  0.6664 -0.3055 -0.4632
   37SOL    HW2 1011   2.021   3.742   6.571 -1.1359 -0.9459  0.2867
   38SOL     OW 1012   0.959   6.949   4.136 -0.2374  0.5715 -0.4637
   38SOL    HW1 1013   0.912   6.919   4.053 -0.3548  0.7637 -0.4674
   38SOL    HW2 1014   0.894   6.997   4.195 -0.9557 -2.1522  1.1450
   39SOL     OW 1015   4.480   3.615   6.604  0.3650 -0.0644 -0.6180
   39SOL    HW1 1016   4.557   3.564   6.568 -0.8721 -0.7513 -2.4260
   39SOL    HW2 1017   4.399   3.598   6.547 -1.0744  0.7883  1.0825
   40SOL     OW 1018   5.415   5.979   0.468  0.2226  0.7251  0.2624
   40SOL    HW1 1019   5.356   5.913   0.514  2.5762  0.2881  2.9449
   40SOL    HW2 1020   5.403   5.971   0.369 -1.5595 -1.7480  0.5714
   41SOL     OW 1021   1.563   4.404   2.702  0.0996 -0.4095  0.1230
   41SOL    HW1 1022   1.551   4.477   2.769 -2.1937  0.0823 -0.7175
   41SOL    HW2 1023   1.539   4.316   2.745 -2.3651  0.0169 -0.2093
   42SOL     OW 1024   3.188   5.657   4.229 -0.3366  0.3739 -0.2254
   42SOL    HW1 1025   3.184   5.726   4.156 -1.7604  0.3852 -0.1538
   42SOL    HW2 1026   3.097   5.643   4.267 -0.2024 -2.0205 -0.6555
   43SOL     OW 1027   1.744   6.178   2.863  0.4249  0.5485 -0.0590
   43SOL    HW1 1028   1.772   6.186   2.767  2.8973 -1.5448  0.3912
   43SOL    HW2 1029   1.819   6.205   2.922 -0.6179  0.5573  1.3066
   44SOL     OW 1030   4.450   1.031   2.231 -0.2388 -0.3586  0.3363
   44SOL    HW1 1031   4.468   1.025   2.329  2.0149 -0.2664 -0.0080
   44SOL    HW2 1032   4.503   1.106   2.191  0.5236 -1.6692 -1.2563
   45SOL     OW 1033   5.613   5.899   1.761  0.1149 -0.3825 -0.1719
   45SOL    HW1 1034   5.549   5.951   1.705  0.0691  0.0665  0.2910
   45SOL    HW2 1035   5.662   5.961   1.822 -0.1008 -0.9071  0.5460
   46SOL     OW 1036   5.413   3.779   1.564 -0.2504  0.2235  0.8376
   46SOL    HW1 1037   5.434   3.695   1.514 -0.3710  0.3764  0.5263
   46SOL    HW2 1038   5.498   3.826   1.589 -0.1876  1.0886 -0.8339
   47SOL     OW 1039   2.836   4.225   6.094 -0.2134 -0.5223 -0.1409
   47SOL    HW1 1040   2.796   4.262   6.178 -1.2165 -2.0178  0.0791
   47SOL    HW2 1041   2.899   4.292   6.055 -1.2863  1.0324  0.6835
   48SOL     OW 1042   3.443   5.517   3.286  0.2312  0.1738  0.7290
   48SOL    HW1 1043   3.444   5.417   3.290 -0.8339  0.0585 -1.0401
   48SOL    HW2 1044   3.375   5.552   3.351 -1.5269 -0.4350 -0.7202
   49SOL     OW 1045   0.399   0.465   6.487  0.2776 -0.5328  0.6469
   49SOL    HW1 1046   0.469   0.504   6.547 -1.1121  1.1216  1.2762
   49SOL    HW2 1047   0.322   0.433   6.542 -1.8915  2.7703 -0.2111
   50SOL     OW 1048   1.693   1.512   4.356 -0.0040 -0.3077 -0.2597
   50SOL    HW1 1049   1.598   1.491   4.381 -0.0668  0.4922  0.2341
   50SOL    HW2 1050   1.701   1.609   4.335  0.9736 -0.0449  1.1215
   51SOL     OW 1051   2.970   0.386   1.765 -0.5191  0.2204  0.1847
   51SOL    HW1 1052   2.994   0.296   1.802 -1.4612 -0.7727 -1.4633
   51SOL    HW2 1053   2.873   0.403   1.779 -0.6251  0.3768 -0.6753
   52SOL     OW 1054   4.779   3.757   0.822 -0.4602 -0.1304  0.5013
   52SOL    HW1 1055   4.802   3.668   0.862 -2.0813 -1.0698 -0.5700
   52SOL    HW2 1056   4.680   3.764   0.811 -0.2472  1.2059 -0.8014
   53SOL     OW 1057   0.135   1.127   0.064 -0.0960  0.0063  0.0938
   53SOL    HW1 1058   0.182   1.186  -0.002  1.1348  1.3226  2.0634
   53SOL    HW2 1059   0.037   1.150   0.064  0.2719  1.6635  0.4069
   54SOL     OW 1060   1.637   4.139   2.335  0.3776 -0.5769 -0.2199
   54SOL    HW1 1061   1.737   4.141   2.334  0.3686  0.7911 -0.3007
   54SOL    HW2 1062   1.604   4.169   2.424  0.0336 -2.3491  0.2771
   55SOL     OW 1063   5.909   3.281   5.739  0.4479 -0.1872  0.5608
   55SOL    HW1 1064   5.985   3.218   5.725  0.8332  0.6310 -1.2769
   55SOL    HW2 1065   5.836   3.262   5.673  1.8836  3.1590 -2.3001
   56SOL     OW 1066   1.403   3.838   1.261  0.7291  0.5058 -0.4487
   56SOL    HW1 1067   1.310   3.808   1.278  1.0664 -0.5868 -0.4505
   56SOL    HW2 1068   1.402   3.931   1.224 -0.3636  0.4099 -0.6922
   57SOL     OW 1069   5.099   2.214   6.131 -0.2567  0.0954  0.4136
   57SOL    HW1 1070   5.195   2.208   6.102  0.1283  0.6214  1.5120
   57SOL    HW2 1071   5.090   2.181   6.225 -1.1543  0.0299  0.3096
   58SOL     OW 1072   5.010   1.069   1.612 -0.2735 -0.0382 -0.3686
   58SOL    HW1 1073   5.013   1.163   1.577 -1.1920 -0.4819 -1.7170
   58SOL    HW2 1074   5.000   1.005   1.535 -0.3101 -1.2044  0.5778
   59SOL     OW 1075   1.493   5.469   0.913  0.4059  0.1443 -0.7042
   59SOL    HW1 1076   1.438   5.403   0.861 -0.5299  0.6023 -0.3244
   59SOL    HW2 1077   1.470   5.462   1.010  2.1492 -0.7030 -0.3193
   60SOL     OW 1078   4.714   1.040   3.365  0.0104 -0.3075 -0.3265
   60SOL    HW1 1079   4.798   0.988   3.350 -0.2670 -1.0497  0.6053
   60SOL    HW2 1080   4.635   0.979   3.357 -0.2358 -0.5748  2.7594
   61SOL     OW 1081   5.164   2.780   5.092 -0.0437  0.0440  0.3766
   61SOL    HW1 1082   5.135   2.875   5.094 -0.9899 -0.2518  1.8020
   61SOL    HW2 1083   5.206   2.760   5.003 -0.2172  1.6613 -0.0953
   62SOL     OW 1084   1.111   5.659   3.053  0.1071 -0.1992 -0.3621
   62SOL    HW1 1085   1.072   5.744   3.086  0.9890  0.3763 -0.7547
   62SOL    HW2 1086   1.045   5.611   2.996  0.0076  0.8060 -1.1112
   63SOL     OW 1087   4.554   5.741   1.065 -0.4310 -0.3495  0.1234
   63SOL    HW1 1088   4.643   5.779   1.090 -0.8086  0.4203  0.3064
   63SOL    HW2 1089   4.481   5.801   1.098 -1.0898 -1.8363  1.5290
   64SOL     OW 1090   6.945   1.734   6.886 -0.4415  0.2643 -1.0329
   64SOL    HW1 1091   6.931   1.724   6.984  1.4505  0.2270 -0.7324
   64SOL    HW2 1092   6.995   1.819   6.868 -0.3884  0.0513 -1.9290
   65SOL     OW 1093   1.156   2.884   3.539  0.1760 -1.1004  0.1371
   65SOL    HW1 1094   1.234   2.931   3.498 -0.2615  0.1573  0.7017
   65SOL    HW2 1095   1.111   2.828   3.469 -0.0384  0.3080 -0.8956
   66SOL     OW 1096   5.134   5.478   2.501  0.1146  0.5207  0.3257
   66SOL    HW1 1097   5.231   5.455   2.500  0.1811  0.7418 -1.3384
   66SOL    HW2 1098   5.118   5.561   2.448 -1.0590  0.0942 -0.0307
   67SOL     OW 1099   6.786   5.169   4.709 -0.1466  0.4099  0.4839
   67SOL    HW1 1100   6.693   5.142   4.735  0.3600  0.1186  2.1092
   67SOL    HW2 1101   6.842   5.087   4.698  0.3730  0.6201  1.4025
   68SOL     OW 1102   3.622   0.760   0.430 -0.0354  0.1796 -0.1081
   68SOL    HW1 1103   3.618   0.860   0.436 -0.2450  0.1786 -0.2383
   68SOL    HW2 1104   3.580   0.730   0.344  2.7543  0.1783 -1.5861
   69SOL     OW 1105   5.896   1.174   6.644 -0.4862 -0.0200  0.0292
   69SOL    HW1 1106   5.867   1.098   6.702 -0.0862 -1.2188 -1.2997
   69SOL    HW2 1107   5.993   1.192   6.659 -0.2969 -0.5652 -0.5036
   70SOL     OW 1108   1.669   1.203   2.799 -0.8228  0.3150 -0.3336
   70SOL    HW1 1109   1.572   1.193   2.818 -0.1932  0.5798  3.9525
   70SOL    HW2 1110   1.720   1.129   2.842  1.0788  1.9742  0.4349
   71SOL     OW 1111   3.606   0.207   0.901  0.3507 -0.2210 -0.1833
   71SOL    HW1 1112   3.620   0.254   0.814 -1.4175  2.6845  0.9533
   71SOL    HW2 1113   3.691   0.161   0.928  2.5043  2.8161 -1.2072
   72SOL     OW 1114   6.914   3.429   3.690  0.0229  0.2814 -0.0515
   72SOL    HW1 1115   6.952   3.478   3.769 -0.0202  0.8873 -0.4074
   72SOL    HW2 1116   6.985   3.372   3.649  0.6096  1.5126 -0.7973
   73SOL     OW 1117   6.161   2.189   7.005 -0.4277  0.1884 -0.1458
   73SOL    HW1 1118   6.255   2.184   7.038 -1.3510  1.2801  3.0123
   73SOL    HW2 1119   6.129   2.097   6.982  1.0569 -0.3423 -0.1681
   74SOL     OW 1120   3.278   5.414   1.072 -0.4910 -0.0937 -0.3909
   74SOL    HW1 1121   3.246   5.321   1.056 -0.5209 -0.4106  1.3419
   74SOL    HW2 1122   3.315   5.451   0.987 -0.9721 -1.4763 -1.2444
   75SOL     OW 1123   4.993   0.434   0.068 -0.2318  0.5704 -0.6081
   75SOL    HW1 1124   4.907   0.388   0.046 -0.3764  1.1099 -1.2215
   75SOL    HW2 1125   4.976   0.533   0.076 -0.3098  0.4091  2.5449
   76SOL     OW 1126   5.770   1.054   4.605 -0.1189 -0.1002 -0.2626
   76SOL    HW1 1127   5.853   1.013   4.643  0.1922  1.7527  1.1975
   76SOL    HW2 1128   5.778   1.059   4.506  1.1256 -0.7516 -0.2212
   77SOL     OW 1129   0.149   0.023   0.968 -0.3916 -0.3999  0.3587
   77SOL    HW1 1130   0.215  -0.009   1.035  0.4592 -0.4632 -0.4846
   77SOL    HW2 1131   0.174  -0.011   0.877 -1.5123 -0.3156  0.0005
   78SOL     OW 1132   4.822   1.931   0.152 -0.0488  0.7407  0.4147
   78SOL    HW1 1133   4.747   1.995   0.164 -0.1229  0.5811  0.8210
   78SOL    HW2 1134   4.788   1.846   0.111 -0.2727  0.3149  1.4393
   79SOL     OW 1135   3.819   6.400   0.831  0.0796  0.7541 -0.0665
   79SOL    HW1 1136   3.797   6.307   0.859 -1.2542  0.7815 -0.9619
   79SOL    HW2 1137   3.798   6.463   0.906  0.4121  0.4043  0.3251
   80SOL     OW 1138   2.448   2.427   6.727  0.1789 -0.0166  0.0320
   80SOL    HW1 1139   2.450   2.329   6.747  2.4824 -0.0063  0.0911
   80SOL    HW2 1140   2.468   2.478   6.811  0.2494  0.4442 -0.2619
   81SOL     OW 1141   0.859   0.580   4.335  0.4210  1.0444 -0.0249
   81SOL    HW1 1142   0.785   0.630   4.380 -0.5976 -0.4916  0.0719
   81SOL    HW2 1143   0.947   0.621   4.360 -0.1409  0.7231  2.7845
   82SOL     OW 1144   5.695   1.292   3.660 -1.1150  0.1066 -0.1506
   82SOL    HW1 1145   5.603   1.295   3.699 -1.6190  0.0069 -1.2840
   82SOL    HW2 1146   5.759   1.257   3.728 -1.8890  0.2871  0.6936
   83SOL     OW 1147   6.338   6.011   4.375  0.5623  0.3746  0.0209
   83SOL    HW1 1148   6.273   6.083   4.398 -0.3795 -1.1562  2.5495
   83SOL    HW2 1149   6.308   5.924   4.415  1.8495 -1.4101 -2.5418
   84SOL     OW 1150   3.418   2.665   0.330 -0.1905 -0.6234 -0.2959
   84SOL    HW1 1151   3.413   2.622   0.420  0.8498 -0.9291 -0.3703
   84SOL    HW2 1152   3.325   2.676   0.293 -0.6980  0.3604  1.1992
   85SOL     OW 1153   5.454   2.694   3.975 -0.7880 -0.4535 -0.0937
   85SOL    HW1 1154   5.544   2.654   3.989 -0.3145  0.0283 -1.5687
   85SOL    HW2 1155   5.438   2.767   4.041 -0.3127 -0.8768  0.4966
   86SOL     OW 1156   2.165   4.065   4.746 -0.3753  0.3341  0.4150
   86SOL    HW1 1157   2.177   4.164   4.757  0.1335  0.1780  1.4053
   86SOL    HW2 1158   2.192   4.019   4.831  1.0419 -0.7885 -0.5933
   87SOL     OW 1159   2.324   2.643   1.005  0.0577 -0.0059 -0.1075
   87SOL    HW1 1160   2.300   2.728   1.051 -0.5651 -0.6288  0.7499
   87SOL    HW2 1161   2.312   2.654   0.906  1.2767  1.3023 -0.1529
   88SOL     OW 1162   2.330   4.136   1.363 -0.1577 -0.1470  0.1131
   88SOL    HW1 1163   2.428   4.128   1.379 -0.3656 -0.4842  1.2588
   88SOL    HW2 1164   2.314   4.205   1.292  0.9090 -0.2245 -0.2189
   89SOL     OW 1165   2.598   1.825   1.656  0.4286  0.3785 -0.2927
   89SOL    HW1 1166   2.656   1.749   1.627  0.2200  0.8052 -1.9466
   89SOL    HW2 1167   2.544   1.798   1.735  0.5092 -1.1281 -0.7273
   90SOL     OW 1168   2.370   5.611   6.962  0.0545 -0.4421  0.4337
   90SOL    HW1 1169   2.380   5.634   7.058  2.4850  0.3546  0.0480
   90SOL    HW2 1170   2.457   5.624   6.915 -0.3499 -3.3034 -1.3791
   91SOL     OW 1171   6.292   3.271   5.051 -0.0900  0.2549  0.4681
   91SOL    HW1 1172   6.277   3.290   5.148 -0.8977  1.1337  0.1852
   91SOL    HW2 1173   6.390   3.272   5.031  0.1177 -0.6294  1.4005
   92SOL     OW 1174   3.668   5.403   5.264 -0.6175  0.7557 -0.0589
   92SOL    HW1 1175   3.610   5.467   5.213 -1.4555  2.1381  2.4586
   92SOL    HW2 1176   3.729   5.455   5.324 -1.0704 -0.7681  1.8174
   93SOL     OW 1177   3.162   6.301   4.776 -0.0399  0.0066 -0.0229
   93SOL    HW1 1178   3.231   6.364   4.811  0.2081  0.4226 -1.2151
   93SOL    HW2 1179   3.088   6.353   4.733 -0.6603 -0.4692  0.4454
   94SOL     OW 1180   0.634   2.334   6.194 -0.0662 -0.1632  0.0631
   94SOL    HW1 1181   0.663   2.244   6.226 -1.9784 -0.9316 -0.2340
   94SOL    HW2 1182   0.572   2.375   6.260 -0.1090  0.4432 -0.3417
   95SOL     OW 1183   0.168   4.140   5.874 -0.4420 -0.1130 -0.3697
   95SOL    HW1 1184   0.109   4.088   5.935  0.1044  2.2433  2.3934
   95SOL    HW2 1185   0.263   4.113   5.888 -0.3998 -0.2975 -0.9857
   96SOL     OW 1186   4.468   6.981   3.278  0.1850  0.0994  0.0137
   96SOL    HW1 1187   4.537   6.955   3.345  0.0047 -0.3788  0.0111
   96SOL    HW2 1188   4.509   6.983   3.187  0.4295  0.7480  0.1262
   97SOL     OW 1189   0.767   4.390   3.780  0.0385 -0.3591  0.1544
   97SOL    HW1 1190   0.790   4.349   3.692 -0.3894  1.2753 -0.7718
   97SOL    HW2 1191   0.674   4.426   3.777 -0.6700 -1.8643  1.9192
   98SOL     OW 1192   3.203   1.784   1.127  0.3442 -0.1330  0.0644
   98SOL    HW1 1193   3.108   1.801   1.154  0.5154  0.2940  0.4170
   98SOL    HW2 1194   3.230   1.692   1.157  0.3419  0.1075  0.8296
   99SOL     OW 1195   5.153   4.381   2.943 -0.3904  0.2046 -0.2659
   99SOL    HW1 1196   5.241   4.415   2.911 -0.3718  0.8004  0.3985
   99SOL    HW2 1197   5.092   4.367   2.864  0.7144 -1.4973 -0.8656
  100SOL     OW 1198   5.942   1.756   6.690 -0.3682 -0.4994  0.3247
  100SOL    HW1 1199   5.986   1.794   6.609 -1.6864  1.5061  0.4919
  100SOL    HW2 1200   5.868   1.695   6.663  0.2677 -1.1709  0.0548
  101SOL     OW 1201   0.961   0.181   0.728 -0.1094  0.3550  0.3286
  101SOL    HW1 1202   1.006   0.265   0.695  1.5622 -0.5307  0.2692
  101SOL    HW2 1203   0.935   0.193   0.824  1.8092  0.3333  0.8975
  102SOL     OW 1204   1.950   6.909   6.961  0.1751  0.7165 -0.4280
  102SOL    HW1 1205   2.014   6.888   6.887  0.6660  1.7198 -0.2968
  102SOL    HW2 1206   1.989   6.979   7.021 -1.4587  2.1361 -0.9424
  103SOL     OW 1207   4.623   0.339   6.039  0.4048 -0.1850 -1.0230
  103SOL    HW1 1208   4.605   0.383   5.951 -2.2247 -1.7180 -1.3449
  103SOL    HW2 1209   4.536   0.317   6.084  1.6552  0.5812  2.0192
  104SOL     OW 1210   6.188   5.517   6.394 -0.3021  0.9697 -0.7579
  104SOL    HW1 1211   6.181   5.461   6.312  1.6533  1.1051 -1.0609
  104SOL    HW2 1212   6.170   5.461   6.475  1.3983 -0.0734 -1.0633
  105SOL     OW 1213   4.729   2.980   0.155 -0.3159 -0.3521 -0.7153
  105SOL    HW1 1214   4.711   3.073   0.187 -2.3745 -0.9198 -0.0642
  105SOL    HW2 1215   4.808   2.943   0.203 -1.2394  0.0486  1.2074
  106SOL     OW 1216   5.402   6.080   5.859 -0.3220 -0.0118  0.3178
  106SOL    HW1 1217   5.484   6.110   5.908 -0.3458  1.4002 -0.4617
  106SOL    HW2 1218   5.346   6.025   5.920  1.0185 -0.7010  0.9848
  107SOL     OW 1219   2.918   2.255   1.513 -0.4549  0.3710  0.2222
  107SOL    HW1 1220   2.842   2.221   1.457  1.7781 -1.7219 -1.6908
  107SOL    HW2 1221   2.976   2.315   1.458  2.3160 -2.4573 -0.2072
  108SOL     OW 1222   6.229   4.549   5.106  0.8285 -0.1867  0.3295
  108SOL    HW1 1223   6.272   4.607   5.037 -0.6339  0.5790  0.0335
  108SOL    HW2 1224   6.285   4.549   5.189  0.1028  3.0172  0.9501
  109SOL     OW 1225   6.645   5.311   6.727 -0.0027  0.8343 -0.5150
  109SOL    HW1 1226   6.706   5.337   6.652 -1.0456  0.2642 -1.5884
  109SOL    HW2 1227   6.623   5.392   6.781  0.3725  1.3488 -1.1126
  110SOL     OW 1228   3.431   2.881   3.671  0.0211 -0.4161 -0.4188
  110SOL    HW1 1229   3.456   2.798   3.720 -0.4310  0.4333  1.3286
  110SOL    HW2 1230   3.491   2.892   3.592  0.5698 -1.9969 -0.2609
  111SOL     OW 1231   0.357   3.977   6.163  0.1142  0.2525  0.6680
  111SOL    HW1 1232   0.448   4.008   6.138 -0.2174  2.0966  1.5980
  111SOL    HW2 1233   0.328   4.023   6.247 -1.4148 -0.7954  0.7588
  112SOL     OW 1234   1.829   6.522   3.658 -0.7406 -0.8667  0.5194
  112SOL    HW1 1235   1.895   6.472   3.715 -0.8797 -0.2891  1.2120
  112SOL    HW2 1236   1.797   6.602   3.709  0.5156  0.7223 -1.0787
  113SOL     OW 1237   2.727   3.588   6.676 -0.1239 -0.0630  0.2101
  113SOL    HW1 1238   2.742   3.648   6.597 -1.2294 -2.4139 -1.9245
  113SOL    HW2 1239   2.689   3.501   6.645 -0.2996 -1.2330  3.3576
  114SOL     OW 1240   2.265   4.328   1.127  0.7078  0.0428 -0.1883
  114SOL    HW1 1241   2.257   4.427   1.115 -1.2844  0.0599  0.7474
  114SOL    HW2 1242   2.197   4.297   1.194 -0.2887 -2.2555 -2.0935
  115SOL     OW 1243   5.337   6.169   3.914  0.4602 -0.3778  0.3237
  115SOL    HW1 1244   5.329   6.169   3.815 -0.1986 -0.7878  0.3741
  115SOL    HW2 1245   5.306   6.081   3.950 -3.0347  1.0461  1.1661
  116SOL     OW 1246   5.825   2.841   1.281 -0.3772  0.6358  0.4922
  116SOL    HW1 1247   5.847   2.749   1.313 -0.3346  0.9136  1.2893
  116SOL    HW2 1248   5.744   2.837   1.222 -1.4569  0.2942  1.9382
  117SOL     OW 1249   2.022   5.731   6.637 -1.1732 -0.0669 -0.0633
  117SOL    HW1 1250   2.047   5.663   6.705  0.7483  0.6231 -0.0371
  117SOL    HW2 1251   2.025   5.691   6.545  0.1494  0.0231 -0.0649
  118SOL     OW 1252   6.435   3.845   2.599 -0.0935 -0.3391 -0.0728
  118SOL    HW1 1253   6.465   3.939   2.583  3.1030 -1.0903  0.8830
  118SOL    HW2 1254   6.485   3.783   2.539 -1.3044 -1.5478  0.1253
  119SOL     OW 1255   5.086   4.400   5.915 -0.2335  0.0491 -0.1455
  119SOL    HW1 1256   5.173   4.451   5.914 -0.2910  0.1322 -1.1019
  119SOL    HW2 1257   5.103   4.307   5.949  0.3995 -0.2203 -1.1412
  120SOL     OW 1258   6.877   2.104   0.822 -0.0229  0.8372 -0.1798
  120SOL    HW1 1259   6.959   2.115   0.879  1.0334 -1.2689 -1.1803
  120SOL    HW2 1260   6.903   2.061   0.735 -2.2747 -0.4257 -0.2793
  121SOL     OW 1261   3.248   0.785   3.751 -0.5444 -0.0702  0.9377
  121SOL    HW1 1262   3.307   0.819   3.679  1.0903  1.0100  2.6976
  121SOL    HW2 1263   3.242   0.685   3.744 -1.2612  0.0704 -1.2343
  122SOL     OW 1264   2.044   5.152   1.665 -0.1185 -0.2842 -0.0044
  122SOL    HW1 1265   1.956   5.109   1.649 -0.8061  1.3276 -0.7500
  122SOL    HW2 1266   2.113   5.112   1.604 -0.4442 -1.1350  0.1728
  123SOL     OW 1267   5.332   5.486   0.483 -0.3757  0.4199  0.5483
  123SOL    HW1 1268   5.317   5.391   0.510  0.4558  0.2421  0.4330
  123SOL    HW2 1269   5.421   5.494   0.438 -0.0796  1.4034  1.2703
  124SOL     OW 1270   6.687   0.890   5.026  0.1681 -0.7805  0.6064
  124SOL    HW1 1271   6.769   0.839   5.052  1.4289 -0.8676 -2.9697
  124SOL    HW2 1272   6.608   0.830   5.028  0.5084 -1.2196  2.1915
  125SOL     OW 1273   4.749   0.581   4.706  0.7066  0.0151  0.1288
  125SOL    HW1 1274   4.839   0.617   4.684  0.4132 -0.4527 -2.0041
  125SOL    HW2 1275   4.685   0.656   4.722  1.0220  0.3765 -0.3092
  126SOL     OW 1276   3.346   5.036   3.463  0.5964 -0.2530  0.2303
  126SOL    HW1 1277   3.412   5.077   3.527  0.0536 -0.9013  1.2344
  126SOL    HW2 1278   3.255   5.036   3.505 -0.2039  1.2075 -1.3835
  127SOL     OW 1279   6.696   3.343   1.221  0.3126  0.1735  0.4181
  127SOL    HW1 1280   6.639   3.266   1.250  0.5867 -0.3035 -0.2971
  127SOL    HW2 1281   6.655   3.386   1.140  0.8983 -0.0945 -0.0248
  128SOL     OW 1282   4.854   0.555   4.004 -0.6492  0.0951  0.3403
  128SOL    HW1 1283   4.789   0.524   3.935  0.6532 -2.1250  0.0165
  128SOL    HW2 1284   4.812   0.628   4.059 -3.2180 -0.9055 -0.1412
  129SOL     OW 1285   0.419   3.003   4.674  0.1242  0.2523  0.4995
  129SOL    HW1 1286   0.430   3.073   4.745 -0.0533  0.7891  0.0101
  129SOL    HW2 1287   0.416   3.047   4.584 -0.2405 -0.3641  0.2018
  130SOL     OW 1288   4.705   2.370   4.593  0.2888 -0.1717 -0.1404
  130SOL    HW1 1289   4.745   2.283   4.566  1.0713  0.3365 -0.6480
  130SOL    HW2 1290   4.747   2.403   4.677  0.6475  0.1579 -0.4454
  131SOL     OW 1291   0.330   3.102   3.412 -0.3331  0.4859 -0.1506
  131SOL    HW1 1292   0.376   3.092   3.501 -0.0683  1.8568 -0.1102
  131SOL    HW2 1293   0.234   3.077   3.421  0.1061 -1.2175  0.0623
  132SOL     OW 1294   3.644   1.932   0.530 -1.1100 -0.1459  0.0372
  132SOL    HW1 1295   3.613   1.902   0.620  0.9570 -1.1311  0.4764
  132SOL    HW2 1296   3.608   1.870   0.460 -0.8985 -0.7165  0.4275
  133SOL     OW 1297   1.039   6.921   0.656 -0.2756  0.1839 -0.2083
  133SOL    HW1 1298   1.081   7.004   0.693  1.3264 -0.7654  0.2053
  133SOL    HW2 1299   0.957   6.945   0.605 -0.7867  1.8563  1.2952
  134SOL     OW 1300   0.393   1.480   5.287  0.3800 -0.5878 -0.7065
  134SOL    HW1 1301   0.440   1.498   5.201 -0.0617  2.2459 -0.4414
  134SOL    HW2 1302   0.296   1.500   5.278 -0.0176 -1.9774  0.0176
  135SOL     OW 1303   4.764   2.449   0.498  0.3996 -0.0213  0.0022
  135SOL    HW1 1304   4.781   2.487   0.589 -0.7270  0.4774  0.0139
  135SOL    HW2 1305   4.850   2.446   0.447  0.7654  1.2229  0.5064
  136SOL     OW 1306   2.911   0.076   3.303  0.0238 -0.1822  0.1048
  136SOL    HW1 1307   2.900   0.140   3.227  3.1956  1.1160  0.5841
  136SOL    HW2 1308   2.872   0.115   3.386 -2.9101 -1.3500 -0.5805
  137SOL     OW 1309   1.865   2.252   2.898  0.2611 -0.3406  0.3798
  137SOL    HW1 1310   1.916   2.251   2.985  1.0558 -1.7644 -0.0756
  137SOL    HW2 1311   1.777   2.299   2.912  1.1947  1.1745  1.4566
  138SOL     OW 1312   5.388   2.483   6.282 -0.4925  0.4120  0.2681
  138SOL    HW1 1313   5.394   2.456   6.186 -2.7047  2.7957 -0.6738
  138SOL    HW2 1314   5.391   2.402   6.340  1.1179 -1.0881 -1.7446
  139SOL     OW 1315   5.622   6.735   5.874  0.2003 -0.0408  0.3663
  139SOL    HW1 1316   5.649   6.639   5.862  0.7501  0.2443 -0.9625
  139SOL    HW2 1317   5.561   6.761   5.799  1.2614  1.0467 -0.1514
  140SOL     OW 1318   6.740   1.780   1.989 -0.1214  0.7745  0.0050
  140SOL    HW1 1319   6.701   1.865   1.953  1.8991  1.0190 -1.8100
  140SOL    HW2 1320   6.777   1.796   2.080 -0.3177  1.6609 -0.0610
  141SOL     OW 1321   5.012   6.416   4.571 -0.5484  0.3843  0.1482
  141SOL    HW1 1322   4.969   6.505   4.580  0.6808  1.0857 -0.6754
  141SOL    HW2 1323   5.045   6.404   4.477 -0.2977 -0.7523  0.3628
  142SOL     OW 1324   4.459   6.981   2.340  0.2093 -0.0597  0.0453
  142SOL    HW1 1325   4.509   6.918   2.399  0.0334 -0.0851  0.1687
  142SOL    HW2 1326   4.459   7.072   2.381 -0.2115 -0.1539  0.2595
  143SOL     OW 1327   2.434   2.245   6.979 -0.6093 -0.1321 -0.1392
  143SOL    HW1 1328   2.437   2.193   6.894  0.0316  0.3170 -0.3977
  143SOL    HW2 1329   2.342   2.238   7.019 -1.1603  0.2722 -1.2705
  144SOL     OW 1330   3.999   1.329   5.116 -0.1472  0.2623 -0.4656
  144SOL    HW1 1331   4.036   1.289   5.032 -0.5214 -0.1447 -0.4379
  144SOL    HW2 1332   3.943   1.261   5.163 -0.4319  0.6843 -0.1959
  145SOL     OW 1333   0.282   1.374   1.097  0.5441  0.2095  0.2518
  145SOL    HW1 1334   0.249   1.297   1.152 -0.5227 -0.1347 -0.8302
  145SOL    HW2 1335   0.304   1.450   1.158  1.1905 -0.7869  1.2990
  146SOL     OW 1336   6.740   2.559   4.386  0.1806  0.1621 -0.1894
  146SOL    HW1 1337   6.736   2.464   4.356  1.2883 -0.2200  0.8484
  146SOL    HW2 1338   6.834   2.585   4.406 -0.2799  1.0423  0.9508
  147SOL     OW 1339   6.750   1.276   5.570 -0.1885  0.0601 -0.0632
  147SOL    HW1 1340   6.754   1.216   5.490  0.6529 -2.3252  1.6570
  147SOL    HW2 1341   6.828   1.339   5.567  1.7272 -2.1321  0.3421
  148SOL     OW 1342   1.538   2.688   3.003  0.4275 -0.1954  0.7189
  148SOL    HW1 1343   1.535   2.776   2.956  2.2044  1.5142  3.4794
  148SOL    HW2 1344   1.584   2.621   2.946 -1.0593  0.5550 -1.5157
  149SOL     OW 1345   1.615   3.559   0.512 -0.0004 -0.1064  0.0603
  149SOL    HW1 1346   1.710   3.581   0.492  0.3880  1.7623  3.2722
  149SOL    HW2 1347   1.556   3.634   0.483 -0.4228 -0.8285 -1.0210
  150SOL     OW 1348   6.254   0.112   2.897  0.2364  0.0137  0.2889
  150SOL    HW1 1349   6.338   0.144   2.852  0.7206  0.2467  1.3389
  150SOL    HW2 1350   6.176   0.160   2.858  0.6469  0.2217 -0.3011
  151SOL     OW 1351   2.979   0.883   2.399 -0.0140  0.3863  0.0032
  151SOL    HW1 1352   3.054   0.947   2.415 -0.7983  0.8067  2.3722
  151SOL    HW2 1353   2.953   0.840   2.486 -1.9021 -0.4368 -0.9188
  152SOL     OW 1354   2.287   1.421   3.693 -0.4232  0.5488  0.4529
  152SOL    HW1 1355   2.190   1.412   3.667 -0.7508 -0.4013  1.8658
  152SOL    HW2 1356   2.293   1.441   3.790  0.8190  1.0505  0.2870
  153SOL     OW 1357   6.463   4.735   1.213 -0.0939 -0.3162 -0.4259
  153SOL    HW1 1358   6.401   4.663   1.241  0.2871  0.1327  1.8003
  153SOL    HW2 1359   6.556   4.699   1.206 -0.1341 -0.3534 -0.7674
  154SOL     OW 1360   2.928   6.704   3.973 -0.7194  0.2621  0.3270
  154SOL    HW1 1361   2.978   6.698   4.059 -0.8028 -0.5512  0.3260
  154SOL    HW2 1362   2.837   6.740   3.990 -0.7239  0.1349  0.5755
  155SOL     OW 1363   2.963   0.746   1.748  0.0624  0.2562  0.5483
  155SOL    HW1 1364   2.959   0.840   1.782  0.8246  0.0038  1.3399
  155SOL    HW2 1365   3.053   0.728   1.709 -0.6521  0.4099 -1.2788
  156SOL     OW 1366   3.590   0.234   2.410  0.3009 -0.0951  0.1172
  156SOL    HW1 1367   3.613   0.306   2.344 -0.1846  0.0328  0.0857
  156SOL    HW2 1368   3.636   0.149   2.384  1.2322  0.3058  0.3964
  157SOL     OW 1369   5.997   4.558   1.483 -0.1934  0.0500 -0.3986
  157SOL    HW1 1370   5.992   4.646   1.435 -0.1229 -0.8088 -2.0714
  157SOL    HW2 1371   5.908   4.538   1.524 -0.2908  0.7600 -0.2428
  158SOL     OW 1372   0.186   3.842   4.593 -0.1984  0.5034  0.0973
  158SOL    HW1 1373   0.169   3.941   4.592  0.7201  0.6791 -0.7443
  158SOL    HW2 1374   0.129   3.798   4.662  0.0080  1.7409  1.0915
  159SOL     OW 1375   0.920   4.020   2.271 -0.1020  0.0643  0.8628
  159SOL    HW1 1376   1.011   4.063   2.275  0.0922  0.0266 -1.4060
  159SOL    HW2 1377   0.917   3.943   2.335  1.0569  0.7691  1.8173
  160SOL     OW 1378   4.109   0.006   3.753  0.0523 -0.7703 -0.2766
  160SOL    HW1 1379   4.136   0.094   3.793  0.3252  0.0192 -2.0745
  160SOL    HW2 1380   4.188  -0.036   3.708  0.8036 -3.6028  3.2489
  161SOL     OW 1381   1.151   3.324   2.308  0.0440 -0.1850  0.4029
  161SOL    HW1 1382   1.130   3.270   2.390 -3.0142 -0.0032 -0.1531
  161SOL    HW2 1383   1.109   3.415   2.317 -2.3151 -0.8756 -2.1598
  162SOL     OW 1384   1.751   3.808   1.146  0.0311 -0.1758 -0.3606
  162SOL    HW1 1385   1.803   3.783   1.063 -1.0833  0.1712 -1.1849
  162SOL    HW2 1386   1.692   3.886   1.126  0.1232  0.2471  0.9259
  163SOL     OW 1387   0.204   2.326   5.938  0.2873  0.5310  0.4260
  163SOL    HW1 1388   0.228   2.288   6.027 -1.5806  1.5029  1.4137
  163SOL    HW2 1389   0.166   2.254   5.879 -0.7441  0.3120  1.3213
  164SOL     OW 1390   5.264   4.092   1.954  0.0823  0.1719  0.0669
  164SOL    HW1 1391   5.356   4.054   1.951  0.8079  1.7047  1.4632
  164SOL    HW2 1392   5.249   4.136   2.043 -1.3369  1.5284 -0.7933
  165SOL     OW 1393   5.597   6.037   3.462 -0.2947  0.0438  0.3801
  165SOL    HW1 1394   5.573   6.088   3.379 -0.7659  1.8870  1.5808
  165SOL    HW2 1395   5.658   6.093   3.519 -0.1802 -1.0761  1.3971
  166SOL     OW 1396   5.250   4.627   3.373  0.8763 -0.3162 -0.2248
  166SOL    HW1 1397   5.164   4.669   3.345  0.5341  0.3435  1.6415
  166SOL    HW2 1398   5.266   4.544   3.319 -0.2715  0.2416 -1.4731
  167SOL     OW 1399   0.295   1.637   1.694  0.0803  0.0292  0.0598
  167SOL    HW1 1400   0.266   1.630   1.599  2.6237  0.9631 -0.8811
  167SOL    HW2 1401   0.308   1.733   1.718  0.2954 -0.2414  1.0706
  168SOL     OW 1402   0.680   0.527   0.874 -0.1526  0.2784  0.2014
  168SOL    HW1 1403   0.631   0.574   0.800 -1.8195  0.4322  1.3344
  168SOL    HW2 1404   0.615   0.471   0.926  1.6811 -3.2017 -0.9427
  169SOL     OW 1405   4.281   3.381   0.042  0.3804 -0.1968 -0.2914
  169SOL    HW1 1406   4.354   3.442   0.009  1.0144 -0.7459  0.0691
  169SOL    HW2 1407   4.226   3.429   0.110  1.9220 -0.5467  1.2629
  170SOL     OW 1408   0.788   6.534   6.464  0.7372  0.2517 -0.0269
  170SOL    HW1 1409   0.814   6.620   6.507 -0.5294  0.3355  0.6363
  170SOL    HW2 1410   0.773   6.465   6.535  0.2826 -0.0861 -0.4418
  171SOL     OW 1411   2.249   5.455   2.945 -0.0622 -0.0291  0.0418
  171SOL    HW1 1412   2.181   5.403   2.893 -1.1080 -0.9072  2.1807
  171SOL    HW2 1413   2.267   5.409   3.032  1.4325  1.5132  0.6037
  172SOL     OW 1414   6.203   0.291   4.693 -0.4982 -0.0188 -0.9755
  172SOL    HW1 1415   6.127   0.249   4.643  0.3160 -0.1260 -2.1717
  172SOL    HW2 1416   6.178   0.384   4.719 -2.2174 -1.0752  1.4666
  173SOL     OW 1417   0.014   2.272   6.606 -0.1962 -0.0311  0.0336
  173SOL    HW1 1418  -0.002   2.211   6.683  2.7414  0.4232  1.1207
  173SOL    HW2 1419   0.093   2.331   6.625  0.3057  0.5080 -3.0906
  174SOL     OW 1420   0.433   0.311   3.519 -0.5499 -0.2695 -0.4082
  174SOL    HW1 1421   0.517   0.328   3.468 -0.4390  2.3852  0.4668
  174SOL    HW2 1422   0.453   0.256   3.600  0.2107 -0.2302 -0.5626
  175SOL     OW 1423   4.241   6.486   3.759  0.4868 -0.9373  0.0371
  175SOL    HW1 1424   4.176   6.454   3.828  0.1368  2.1562  1.3435
  175SOL    HW2 1425   4.328   6.508   3.804  0.9875 -0.9784 -0.9028
  176SOL     OW 1426   6.958   2.454   6.031 -0.2984 -0.0608  0.0481
  176SOL    HW1 1427   6.899   2.415   5.960 -0.5537  0.4393 -0.0204
  176SOL    HW2 1428   7.046   2.406   6.032 -0.0774  0.3080 -0.9883
  177SOL     OW 1429   0.239   0.779   6.507  0.0197 -0.2451  0.0376
  177SOL    HW1 1430   0.144   0.753   6.524 -1.4896  2.6564 -2.7904
  177SOL    HW2 1431   0.270   0.737   6.422  0.0903  1.2674 -0.7166
  178SOL     OW 1432   2.163   5.581   1.092 -0.0322 -0.3570  0.6840
  178SOL    HW1 1433   2.261   5.563   1.095  0.2885  0.4244 -2.3153
  178SOL    HW2 1434   2.118   5.515   1.031 -0.9221  0.8820 -0.0521
  179SOL     OW 1435   6.658   1.354   6.984  0.1577  0.2299 -0.8756
  179SOL    HW1 1436   6.675   1.417   7.060  4.6128 -1.8912  0.2146
  179SOL    HW2 1437   6.647   1.407   6.900 -0.7075  2.5364  0.5832
  180SOL     OW 1438   2.286   5.537   0.345 -0.2924 -0.1805  0.0537
  180SOL    HW1 1439   2.231   5.569   0.268 -1.3668 -0.7806  0.5602
  180SOL    HW2 1440   2.316   5.615   0.400  0.1945  0.2261 -0.7583
  181SOL     OW 1441   6.883   6.475   2.503 -0.1307  0.2555  0.2702
  181SOL    HW1 1442   6.900   6.415   2.581  0.5994 -1.2720 -0.9888
  181SOL    HW2 1443   6.839   6.422   2.430  0.4337  1.2848 -0.8504
  182SOL     OW 1444   4.282   3.922   0.579 -0.6513  0.1435 -0.3009
  182SOL    HW1 1445   4.284   3.834   0.625  0.8924  0.0523 -0.5044
  182SOL    HW2 1446   4.199   3.972   0.606 -1.5905 -1.3853 -0.2681
  183SOL     OW 1447   0.540   2.120   5.286  0.3538  0.0025 -0.1428
  183SOL    HW1 1448   0.566   2.163   5.372 -1.4362 -0.9978  0.9591
  183SOL    HW2 1449   0.598   2.040   5.269  0.2724 -0.1967  0.5070
  184SOL     OW 1450   2.820   1.668   1.584  0.6014 -0.1433  0.3260
  184SOL    HW1 1451   2.912   1.706   1.590  1.3424 -1.5950 -1.2033
  184SOL    HW2 1452   2.807   1.623   1.496 -1.6570  0.1787  0.4249
  185SOL     OW 1453   3.617   3.667   6.000 -0.1023  0.1904 -0.3767
  185SOL    HW1 1454   3.574   3.625   5.920 -1.7259  0.7878  0.1526
  185SOL    HW2 1455   3.577   3.630   6.083  1.8142 -0.6802  0.2265
  186SOL     OW 1456   1.638   1.356   5.402  0.4895 -0.1138 -0.2653
  186SOL    HW1 1457   1.660   1.306   5.318  1.2352 -2.4229  1.2055
  186SOL    HW2 1458   1.673   1.306   5.481  0.4194  2.3123  1.4304
  187SOL     OW 1459   1.272   4.552   2.527  0.0897  0.1518  0.0340
  187SOL    HW1 1460   1.335   4.580   2.454  0.4786 -0.5577  0.0889
  187SOL    HW2 1461   1.212   4.479   2.492 -0.8131  0.9165 -0.0650
  188SOL     OW 1462   0.913   3.764   6.233 -0.0571 -0.1784  0.1768
  188SOL    HW1 1463   0.950   3.765   6.325  1.4424  2.0145 -0.3635
  188SOL    HW2 1464   0.949   3.685   6.182  1.0786 -0.0262  0.7312
  189SOL     OW 1465   5.138   3.434   6.953 -0.0988  0.1777  0.0854
  189SOL    HW1 1466   5.075   3.438   6.876  1.0233  0.5440 -0.8472
  189SOL    HW2 1467   5.086   3.423   7.038 -1.2541 -3.0219 -0.8844
  190SOL     OW 1468   6.999   3.490   2.823  0.4829  0.2039 -0.2350
  190SOL    HW1 1469   6.928   3.424   2.797  1.4084 -0.8999 -0.0244
  190SOL    HW2 1470   7.012   3.487   2.922  2.7739 -1.6836 -0.5288
  191SOL     OW 1471   4.709   6.427   4.871  0.1329 -0.5934  0.8192
  191SOL    HW1 1472   4.775   6.458   4.940 -1.3193  2.5506  0.9825
  191SOL    HW2 1473   4.619   6.419   4.913 -0.3391 -0.9182 -0.2314
  192SOL     OW 1474   6.172   2.248   4.409 -0.3020  0.0018  0.0733
  192SOL    HW1 1475   6.076   2.272   4.391 -0.2362  0.9604  0.9490
  192SOL    HW2 1476   6.231   2.291   4.341 -0.4216  0.0562  0.0030
  193SOL     OW 1477   2.899   0.415   0.790 -0.2775  0.2132  0.2948
  193SOL    HW1 1478   2.948   0.331   0.815  2.6008  2.0296  1.2519
  193SOL    HW2 1479   2.895   0.476   0.869 -1.5462  1.3767 -0.6153
  194SOL     OW 1480   3.899   1.311   1.031 -0.3174 -0.1511 -0.2856
  194SOL    HW1 1481   3.954   1.395   1.032  0.8846 -0.9195  0.4229
  194SOL    HW2 1482   3.812   1.329   0.984  0.2586  1.2601 -0.8768
  195SOL     OW 1483   1.327   6.473   0.588  0.2560 -1.0013  1.0411
  195SOL    HW1 1484   1.394   6.505   0.521 -2.5211  0.0216 -1.4979
  195SOL    HW2 1485   1.343   6.376   0.608  3.7297 -0.3016  2.3342
  196SOL     OW 1486   6.881   1.823   4.233  0.6561 -0.1760 -0.3343
  196SOL    HW1 1487   6.834   1.890   4.291  0.2884 -0.1182 -0.6941
  196SOL    HW2 1488   6.931   1.871   4.160 -0.7714 -0.3246 -1.4649
  197SOL     OW 1489   0.378   4.686   4.834  0.0806 -0.8478  0.3073
  197SOL    HW1 1490   0.292   4.708   4.881 -0.9720 -1.6112 -1.1620
  197SOL    HW2 1491   0.401   4.759   4.770 -1.2117 -1.9829 -1.5715
  198SOL     OW 1492   5.131   0.074   1.435  0.0842  0.3848  0.6504
  198SOL    HW1 1493   5.041   0.105   1.406  0.5584  1.5966  0.4108
  198SOL    HW2 1494   5.197   0.149   1.424  1.0669 -0.4037  1.0541
  199SOL     OW 1495   5.392   0.050   1.759 -0.6843  0.3069 -0.0684
  199SOL    HW1 1496   5.354  -0.039   1.783  2.0275 -1.0411 -0.4209
  199SOL    HW2 1497   5.464   0.039   1.691 -0.6944  2.8695 -0.6089
  200SOL     OW 1498   4.397   1.316   5.907 -0.0738  0.0008  0.0590
  200SOL    HW1 1499   4.429   1.251   5.977  0.9612  1.4509  0.9832
  200SOL    HW2 1500   4.300   1.302   5.891  0.4391 -2.9793 -1.1048
  201SOL     OW 1501   0.132   1.266   1.394 -0.5551 -0.0120  0.7639
  201SOL    HW1 1502   0.043   1.309   1.380  0.4563  2.6450  1.8122
  201SOL    HW2 1503   0.139   1.232   1.488 -1.0563 -1.9317  0.1656
  202SOL     OW 1504   1.134   0.432   6.508 -0.3132 -0.9835 -0.4100
  202SOL    HW1 1505   1.143   0.462   6.413  1.0350  0.1314  0.0313
  202SOL    HW2 1506   1.167   0.504   6.569 -0.8410 -1.8085  0.9081
  203SOL     OW 1507   2.034   6.881   5.580  0.5658  0.3894 -0.1864
  203SOL    HW1 1508   1.995   6.911   5.667 -0.6315 -0.0813 -0.5448
  203SOL    HW2 1509   2.133   6.888   5.585  0.5626 -0.1871  1.4226
  204SOL     OW 1510   5.299   5.877   3.887  0.4068  0.4046  0.1618
  204SOL    HW1 1511   5.295   5.898   3.790  1.4961 -0.2576 -0.0347
  204SOL    HW2 1512   5.258   5.788   3.904 -0.0295  0.6383  0.3564
  205SOL     OW 1513   4.617   1.415   4.999  0.0613  0.2191 -0.2662
  205SOL    HW1 1514   4.640   1.508   5.029  0.0808  0.1619 -0.1013
  205SOL    HW2 1515   4.676   1.350   5.047 -1.7092 -0.0795  1.6369
  206SOL     OW 1516   6.370   4.774   1.706 -0.4353 -0.2576 -0.3727
  206SOL    HW1 1517   6.322   4.687   1.695  1.8921 -1.4302 -1.8794
  206SOL    HW2 1518   6.332   4.841   1.642 -0.9635 -0.7441 -0.5779
  207SOL     OW 1519   6.374   2.374   4.261  0.1883  0.0314  0.5305
  207SOL    HW1 1520   6.349   2.442   4.192  0.7735  0.7104  0.9777
  207SOL    HW2 1521   6.425   2.300   4.217 -1.9661 -1.0450 -0.2739
  208SOL     OW 1522   1.386   1.749   4.926 -0.3122 -1.0375 -0.1414
  208SOL    HW1 1523   1.436   1.727   5.010  0.5240  0.4172 -0.2273
  208SOL    HW2 1524   1.415   1.686   4.853  1.3185 -0.3448 -0.1451
  209SOL     OW 1525   1.636   4.341   6.009 -0.1212  0.4107  0.1076
  209SOL    HW1 1526   1.586   4.382   6.085  0.5824  0.6632  0.4406
  209SOL    HW2 1527   1.632   4.241   6.016 -0.6957  0.4314  0.0524
  210SOL     OW 1528   3.066   6.216   2.894  0.6651  0.2497 -0.2787
  210SOL    HW1 1529   3.087   6.186   2.801  0.0338 -0.6169 -0.1504
  210SOL    HW2 1530   3.108   6.154   2.959 -0.9701 -0.6301 -0.0118
  211SOL     OW 1531   5.817   1.086   4.317  0.2266  0.0843 -0.0853
  211SOL    HW1 1532   5.848   0.991   4.311  2.4561  0.5753  2.0160
  211SOL    HW2 1533   5.860   1.141   4.246  0.3189 -0.1499 -0.2087
  212SOL     OW 1534   6.529   3.059   6.019  0.4324 -0.6522 -0.0550
  212SOL    HW1 1535   6.457   2.994   6.044  0.0125 -0.2292 -0.1534
  212SOL    HW2 1536   6.618   3.020   6.042  0.1829 -1.2401 -0.0596
  213SOL     OW 1537   0.103   4.820   1.489 -0.1898  0.5319  0.6379
  213SOL    HW1 1538   0.044   4.900   1.492 -0.0322  0.6542  3.1454
  213SOL    HW2 1539   0.080   4.758   1.564  0.7375 -1.0158 -0.2837
  214SOL     OW 1540   6.733   4.501   1.606 -0.6234  0.2427  0.8803
  214SOL    HW1 1541   6.689   4.496   1.516  0.6118 -0.2796  0.2804
  214SOL    HW2 1542   6.668   4.473   1.677 -1.5570  0.4890  0.1408
  215SOL     OW 1543   1.872   5.532   4.702 -0.0334  0.2511  0.2058
  215SOL    HW1 1544   1.891   5.491   4.791 -0.4934 -0.9256 -0.2223
  215SOL    HW2 1545   1.814   5.471   4.649 -0.3509  1.2592 -0.6417
  216SOL     OW 1546   3.478   4.246   1.842 -0.4718 -0.9499 -0.2189
  216SOL    HW1 1547   3.455   4.170   1.782 -0.3870 -1.3942  0.3043
  216SOL    HW2 1548   3.465   4.332   1.793 -2.0681 -1.2197 -0.3435
  217SOL     OW 1549   6.244   3.757   0.321 -0.2039  0.0631  0.2845
  217SOL    HW1 1550   6.280   3.665   0.304 -0.0413 -0.0691  1.2715
  217SOL    HW2 1551   6.307   3.825   0.285  0.4243 -0.1927  0.8774
  218SOL     OW 1552   2.250   3.410   6.363 -0.2535  0.2086 -0.0684
  218SOL    HW1 1553   2.303   3.454   6.291 -0.8532  0.6392 -0.2524
  218SOL    HW2 1554   2.241   3.312   6.343  1.6109 -0.1355  0.6644
  219SOL     OW 1555   6.562   1.516   1.366 -0.5426  0.3719 -0.1639
  219SOL    HW1 1556   6.483   1.465   1.332 -1.7124  2.5412 -0.9160
  219SOL    HW2 1557   6.569   1.603   1.316  1.0655  1.1701  1.3458
  220SOL     OW 1558   0.780   3.737   0.563 -0.1228  0.3535 -0.0962
  220SOL    HW1 1559   0.680   3.732   0.551 -0.2192  0.8523  0.4454
  220SOL    HW2 1560   0.825   3.712   0.478 -0.7371  1.1446 -0.6721
  221SOL     OW 1561   4.300   1.394   1.726  0.2739  0.0005 -0.4854
  221SOL    HW1 1562   4.267   1.354   1.640  0.4253 -0.3753 -0.3680
  221SOL    HW2 1563   4.298   1.494   1.718  2.1203  0.0060 -1.6701
  222SOL     OW 1564   6.742   6.734   6.436 -0.5697 -0.5662 -0.7263
  222SOL    HW1 1565   6.735   6.832   6.419  0.3339 -0.4763 -0.6519
  222SOL    HW2 1566   6.760   6.686   6.351  0.5932 -0.4824 -0.5422
  223SOL     OW 1567   4.114   4.561   5.328 -0.8925  0.0778 -0.7412
  223SOL    HW1 1568   4.159   4.650   5.336 -0.6126  0.1038 -2.2323
  223SOL    HW2 1569   4.174   4.498   5.278 -0.9365 -1.0688  0.6103
  224SOL     OW 1570   1.398   6.307   5.035 -0.1361 -0.0167 -0.0201
  224SOL    HW1 1571   1.382   6.245   4.958  1.7450 -0.6651  0.0706
  224SOL    HW2 1572   1.347   6.275   5.115  0.3176 -1.0950 -0.1539
  225SOL     OW 1573   0.840   4.850   4.507 -0.1924 -0.2595  0.2743
  225SOL    HW1 1574   0.762   4.791   4.488  0.7755 -1.8118  0.9562
  225SOL    HW2 1575   0.873   4.890   4.421 -0.8017 -0.7814 -0.2163
  226SOL     OW 1576   2.193   3.146   3.553 -0.1048  0.3023 -0.0201
  226SOL    HW1 1577   2.279   3.152   3.502  1.3474 -0.1653  2.1836
  226SOL    HW2 1578   2.155   3.054   3.544  0.1691  0.2069 -0.2006
  227SOL     OW 1579   3.634   0.257   6.217 -0.5056  0.5899  0.2313
  227SOL    HW1 1580   3.574   0.177   6.219 -1.0942  0.9228 -2.0359
  227SOL    HW2 1581   3.717   0.235   6.167 -0.0099  0.9889  0.8666
  228SOL     OW 1582   2.298   6.342   0.557 -0.5526  0.0321  0.4406
  228SOL    HW1 1583   2.360   6.419   0.543  1.0820 -1.2068  0.5346
  228SOL    HW2 1584   2.344   6.272   0.612 -2.1662 -0.8200  0.7677
  229SOL     OW 1585   6.686   2.939   3.080 -0.2447 -0.1463 -0.9767
  229SOL    HW1 1586   6.638   2.860   3.041 -0.2726 -0.5660 -0.1363
  229SOL    HW2 1587   6.727   2.993   3.007 -0.5666 -0.7172 -1.5960
  230SOL     OW 1588   4.051   3.607   3.147  0.1297 -0.9438 -0.4474
  230SOL    HW1 1589   4.048   3.648   3.056 -1.6502  0.0184 -0.0052
  230SOL    HW2 1590   3.990   3.527   3.150 -0.3085 -0.6040  0.0347
  231SOL     OW 1591   5.654   5.363   5.073 -0.2941  0.1266  0.3813
  231SOL    HW1 1592   5.616   5.346   4.982 -1.1502  3.6515 -0.0697
  231SOL    HW2 1593   5.581   5.393   5.135  0.6705  0.1628  1.5341
  232SOL     OW 1594   5.535   3.302   4.443  0.8935 -0.2102  0.1381
  232SOL    HW1 1595   5.568   3.236   4.376  0.6438 -0.8619  0.6403
  232SOL    HW2 1596   5.569   3.276   4.534 -2.6829 -2.2208  1.0904
  233SOL     OW 1597   1.247   3.351   6.927 -0.2303  0.2578 -0.3940
  233SOL    HW1 1598   1.154   3.319   6.940  0.4462 -1.3055  1.0771
  233SOL    HW2 1599   1.310   3.291   6.977  1.5021  1.6449 -0.8001
  234SOL     OW 1600   2.300   2.804   4.309 -0.4479 -0.3262 -0.1592
  234SOL    HW1 1601   2.295   2.802   4.209 -1.0651 -0.4689 -0.1296
  234SOL    HW2 1602   2.396   2.797   4.337 -0.0997  1.5039 -0.7707
  235SOL     OW 1603   3.360   1.838   5.379  0.2029  0.2349 -0.1708
  235SOL    HW1 1604   3.428   1.824   5.451 -1.6439  1.1571  1.8434
  235SOL    HW2 1605   3.376   1.925   5.334 -1.4320  2.0662  2.5237
  236SOL     OW 1606   5.446   0.515   6.731 -0.6900 -0.2134  0.4073
  236SOL    HW1 1607   5.434   0.418   6.712 -1.7723  0.1417 -0.9188
  236SOL    HW2 1608   5.363   0.551   6.774 -1.5103  0.6933 -1.7926
  237SOL     OW 1609   1.484   6.010   6.270  0.4552 -0.0531 -0.3625
  237SOL    HW1 1610   1.573   6.003   6.225  0.5685  0.6554 -0.2523
  237SOL    HW2 1611   1.464   5.923   6.316  1.1330 -0.1841 -0.3014
  238SOL     OW 1612   0.622   2.328   3.536 -0.0076  0.4247  0.2782
  238SOL    HW1 1613   0.524   2.340   3.556  0.1830  0.9602  0.9324
  238SOL    HW2 1614   0.635   2.322   3.437 -0.5901  1.5382  0.1148
  239SOL     OW 1615   5.063   4.151   3.082  0.4494  0.4844 -0.1700
  239SOL    HW1 1616   5.113   4.205   3.014  3.6522 -0.7967  0.9663
  239SOL    HW2 1617   5.058   4.203   3.168 -2.7424  1.7049 -0.9560
  240SOL     OW 1618   3.314   5.039   0.817  0.0683  0.2359  0.6123
  240SOL    HW1 1619   3.403   5.003   0.846  0.3140 -0.9509 -1.4092
  240SOL    HW2 1620   3.264   4.967   0.769 -0.0805  2.1108 -2.2650
  241SOL     OW 1621   2.931   0.551   1.030  0.1903 -0.3540  0.1013
  241SOL    HW1 1622   2.993   0.571   1.106 -1.0709  0.5315  0.9274
  241SOL    HW2 1623   2.838   0.540   1.064 -0.0441 -2.4373 -1.0236
  242SOL     OW 1624   4.844   3.156   0.697  0.0006 -0.1816 -0.4164
  242SOL    HW1 1625   4.810   3.102   0.620 -0.3502  1.6593 -1.6436
  242SOL    HW2 1626   4.798   3.129   0.781 -0.7190 -1.2218 -1.1263
  243SOL     OW 1627   6.172   6.897   6.041  0.4916 -0.1034 -0.3921
  243SOL    HW1 1628   6.195   6.818   6.097 -0.4774  0.6052  1.0514
  243SOL    HW2 1629   6.255   6.935   6.002  1.6569  1.1230  2.9614
  244SOL     OW 1630   2.771   6.117   6.051  0.3405  0.4217  0.2577
  244SOL    HW1 1631   2.812   6.060   6.123  1.3472  1.7450  0.7599
  244SOL    HW2 1632   2.840   6.178   6.013 -0.7411  1.3696 -0.2335
  245SOL     OW 1633   4.864   3.463   1.637  0.1520 -0.5192 -0.0524
  245SOL    HW1 1634   4.900   3.414   1.717  0.2526 -0.3455  0.0099
  245SOL    HW2 1635   4.922   3.443   1.558  2.2168  2.0628  0.6631
  246SOL     OW 1636   1.001   2.986   0.725  0.3172 -0.9546 -0.0422
  246SOL    HW1 1637   0.978   3.030   0.812  0.1327  1.7459 -1.3177
  246SOL    HW2 1638   1.098   2.965   0.722  0.9312  1.5982 -0.1749
  247SOL     OW 1639   6.243   1.986   5.183  0.3325 -0.4886 -0.3029
  247SOL    HW1 1640   6.341   1.994   5.202  0.0871 -0.6394  1.1542
  247SOL    HW2 1641   6.206   2.077   5.163  0.0153  0.3390  3.3248
  248SOL     OW 1642   2.018   0.770   6.893  0.5232 -0.6865 -0.3945
  248SOL    HW1 1643   2.089   0.758   6.823 -0.0722  1.1484 -1.4001
  248SOL    HW2 1644   1.939   0.715   6.869  1.6200 -2.9053  0.8409
  249SOL     OW 1645   6.208   5.021   0.847 -0.4030  0.4621  0.1284
  249SOL    HW1 1646   6.241   4.989   0.936 -1.1947  2.1810  1.1080
  249SOL    HW2 1647   6.174   4.944   0.793  0.2911 -0.6371  1.2191
  250SOL     OW 1648   5.497   0.775   0.692 -0.2639 -0.0701 -0.6920
  250SOL    HW1 1649   5.549   0.738   0.769 -0.2801  2.1675  0.4715
  250SOL    HW2 1650   5.526   0.730   0.607  3.0500  0.5489 -0.0110
  251SOL     OW 1651   3.137   6.186   4.411  0.3256  0.1822 -0.4642
  251SOL    HW1 1652   3.054   6.239   4.429 -0.0207  0.1267 -1.7672
  251SOL    HW2 1653   3.124   6.092   4.441  0.2695  0.3924  0.1874
  252SOL     OW 1654   2.250   1.652   5.409  0.2075 -0.3250  0.0020
  252SOL    HW1 1655   2.325   1.678   5.470  0.6386  0.9347 -1.0208
  252SOL    HW2 1656   2.176   1.718   5.416  0.4219  0.0572 -1.0920
  253SOL     OW 1657   0.993   1.854   1.131 -0.1855 -0.2501 -0.2507
  253SOL    HW1 1658   0.969   1.948   1.157 -0.1299 -0.2781 -0.0937
  253SOL    HW2 1659   1.067   1.821   1.191 -0.3253 -0.4549 -0.1893
  254SOL     OW 1660   5.745   0.280   5.539 -0.6408  0.6503 -0.1206
  254SOL    HW1 1661   5.677   0.248   5.605 -0.9408 -0.5686 -0.9794
  254SOL    HW2 1662   5.802   0.202   5.511 -1.5258  0.7807 -2.4751
  255SOL     OW 1663   4.445   6.268   1.518  1.4578  0.2980  0.1812
  255SOL    HW1 1664   4.492   6.210   1.584  1.6733 -0.0214 -0.2466
  255SOL    HW2 1665   4.363   6.306   1.560  1.2503 -0.4073  0.4387
  256SOL     OW 1666   5.117   0.707   0.298  0.1698  0.1643  0.5986
  256SOL    HW1 1667   5.215   0.725   0.313  0.3715 -1.3667  1.3788
  256SOL    HW2 1668   5.102   0.608   0.298 -1.7526  0.3482  3.2266
  257SOL     OW 1669   4.752   0.731   1.614 -0.1693  0.4334  0.2584
  257SOL    HW1 1670   4.838   0.736   1.666 -0.6010  0.5068  0.9897
  257SOL    HW2 1671   4.675   0.745   1.677 -0.8459 -1.9350  0.0664
  258SOL     OW 1672   4.376   6.092   4.966  0.2712  0.6652 -0.4633
  258SOL    HW1 1673   4.355   6.023   5.034  2.4965  1.1028  0.7373
  258SOL    HW2 1674   4.470   6.124   4.977  0.5379  1.2219 -3.3432
  259SOL     OW 1675   1.462   3.441   5.812 -0.3490 -0.6497 -0.1691
  259SOL    HW1 1676   1.508   3.423   5.899  1.8127  1.5243 -0.7618
  259SOL    HW2 1677   1.504   3.387   5.740  0.1404  0.0352 -0.4093
  260SOL     OW 1678   1.684   0.438   0.290 -0.5289 -0.2278  0.0201
  260SOL    HW1 1679   1.720   0.373   0.358  0.1155  0.7763  0.6706
  260SOL    HW2 1680   1.758   0.468   0.230 -1.4339 -2.6339 -2.5373
  261SOL     OW 1681   3.454   6.317   2.931  0.3238  0.1396 -0.2427
  261SOL    HW1 1682   3.457   6.301   3.030  0.1156 -1.6450 -0.4895
  261SOL    HW2 1683   3.379   6.380   2.910  0.2939  0.4466  0.7191
  262SOL     OW 1684   6.812   1.506   4.585 -0.2385 -0.0466 -0.0327
  262SOL    HW1 1685   6.875   1.575   4.550 -1.9233  1.5550 -0.0969
  262SOL    HW2 1686   6.858   1.418   4.589  1.4388  0.6725 -1.7688
  263SOL     OW 1687   2.525   5.519   4.149  0.2222  0.1158  0.3598
  263SOL    HW1 1688   2.568   5.434   4.178 -0.5700 -0.1561  0.7634
  263SOL    HW2 1689   2.530   5.586   4.224  2.7360  1.1829 -0.6654
  264SOL     OW 1690   3.682   1.834   6.989 -0.3681  0.4917 -0.3564
  264SOL    HW1 1691   3.715   1.749   7.029  0.4903  0.2475 -1.5155
  264SOL    HW2 1692   3.747   1.865   6.920 -0.8728  1.8836 -0.2334
  265SOL     OW 1693   5.879   2.517   5.195 -0.1460  0.0478  0.3699
  265SOL    HW1 1694   5.868   2.427   5.154 -1.9660  0.5659 -0.3994
  265SOL    HW2 1695   5.976   2.539   5.203  0.3022 -0.8389 -1.9754
  266SOL     OW 1696   5.138   2.592   1.286  0.1534  0.6177 -0.4043
  266SOL    HW1 1697   5.224   2.560   1.326  1.3167  1.9081 -1.7376
  266SOL    HW2 1698   5.064   2.530   1.312  1.7010 -1.2591 -0.2165
  267SOL     OW 1699   3.430   3.906   4.636 -0.0472  0.2615  0.0268
  267SOL    HW1 1700   3.364   3.878   4.566  0.5839  1.1112 -0.9389
  267SOL    HW2 1701   3.511   3.847   4.630 -0.6343 -0.6882  1.1145
  268SOL     OW 1702   0.076   0.864   4.116 -0.0441 -0.0881  0.2275
  268SOL    HW1 1703   0.158   0.887   4.169 -1.0713 -1.6026  2.6455
  268SOL    HW2 1704   0.104   0.837   4.023  2.1824 -0.3925  0.9098
  269SOL     OW 1705   4.522   5.561   6.655  0.4809 -0.3337  0.9723
  269SOL    HW1 1706   4.513   5.571   6.556  0.1291  0.9470  1.1123
  269SOL    HW2 1707   4.619   5.560   6.680  0.5623  0.2164  0.6865
  270SOL     OW 1708   5.223   5.910   5.993  0.3239  0.5252  0.4262
  270SOL    HW1 1709   5.276   5.825   5.993  0.9674  0.9261  0.6535
  270SOL    HW2 1710   5.141   5.898   5.937  1.0891  0.1837 -0.6468
  271SOL     OW 1711   2.047   1.689   0.135 -0.4942 -0.0398  0.3764
  271SOL    HW1 1712   2.090   1.599   0.146  1.6291  0.9561  0.7955
  271SOL    HW2 1713   1.948   1.679   0.136 -0.3281 -2.4579 -0.3625
  272SOL     OW 1714   5.104   1.941   6.646 -0.0822 -0.1274 -0.0829
  272SOL    HW1 1715   5.192   1.916   6.685  0.4126 -2.0433 -2.1781
  272SOL    HW2 1716   5.036   1.949   6.719  1.1430 -1.7816  1.3283
  273SOL     OW 1717   5.819   6.067   1.424  0.3366 -0.0100 -0.6650
  273SOL    HW1 1718   5.800   6.026   1.334 -0.9002 -1.2180  0.1146
  273SOL    HW2 1719   5.871   6.003   1.480 -0.5344 -0.0429  0.1316
  274SOL     OW 1720   5.222   1.636   3.103 -0.2462 -0.0928 -0.3987
  274SOL    HW1 1721   5.152   1.705   3.085 -0.8937 -1.2830 -2.8056
  274SOL    HW2 1722   5.184   1.545   3.087  2.0472 -0.7554 -2.8346
  275SOL     OW 1723   5.689   3.760   3.285 -0.2673  0.1620 -0.3570
  275SOL    HW1 1724   5.678   3.678   3.340 -0.8374  1.4173  1.5051
  275SOL    HW2 1725   5.639   3.750   3.199 -1.1012 -1.0559  0.2463
  276SOL     OW 1726   4.933   4.058   1.122 -0.0776 -0.7130  0.0605
  276SOL    HW1 1727   4.842   4.045   1.083 -0.9495 -1.5129  2.2135
  276SOL    HW2 1728   4.997   3.994   1.080 -0.7523 -0.8872 -0.7188
  277SOL     OW 1729   6.463   1.876   0.042  0.1811 -0.0623  0.2009
  277SOL    HW1 1730   6.448   1.974   0.057 -0.3188 -0.1754  0.4549
  277SOL    HW2 1731   6.503   1.862  -0.048  0.2810  0.3796  0.1745
  278SOL     OW 1732   4.401   4.422   6.038 -0.3026 -0.1035  0.2711
  278SOL    HW1 1733   4.414   4.396   6.133  0.5495 -0.1801  0.1430
  278SOL    HW2 1734   4.308   4.398   6.009  0.0732 -1.9732  0.4934
  279SOL     OW 1735   4.121   0.631   3.767 -0.2662  0.0240  0.1965
  279SOL    HW1 1736   4.160   0.721   3.751 -0.9564  0.0628 -1.4325
  279SOL    HW2 1737   4.188   0.560   3.742 -0.9656  0.0929 -2.0518
  280SOL     OW 1738   3.302   2.816   6.895  0.1173  0.6982  0.3572
  280SOL    HW1 1739   3.339   2.776   6.811 -0.7708 -0.8930  0.6891
  280SOL    HW2 1740   3.242   2.893   6.872 -0.0093  0.3669 -0.4600
  281SOL     OW 1741   2.363   1.803   0.019  0.6741  0.1089  0.4188
  281SOL    HW1 1742   2.266   1.810   0.041  0.5635 -1.0466  0.3534
  281SOL    HW2 1743   2.385   1.867  -0.055 -0.3786 -0.6904 -0.6215
  282SOL     OW 1744   2.363   6.082   1.938  0.0918  0.0857 -0.5612
  282SOL    HW1 1745   2.322   6.135   2.011  1.6621  1.1630 -0.4128
  282SOL    HW2 1746   2.410   6.143   1.875  1.3902 -1.0735 -0.7569
  283SOL     OW 1747   0.749   0.668   6.883  0.1672 -0.1462 -0.2344
  283SOL    HW1 1748   0.711   0.660   6.791  0.9830 -0.0026 -0.5950
  283SOL    HW2 1749   0.745   0.579   6.928 -0.2224 -0.2235 -0.4193
  284SOL     OW 1750   0.116   4.929   4.511 -0.1532 -0.4676 -0.0513
  284SOL    HW1 1751   0.101   4.948   4.414  1.0852 -0.3203 -0.2283
  284SOL    HW2 1752   0.166   4.842   4.520 -2.4423 -1.8135  0.5827
  285SOL     OW 1753   4.065   1.581   0.353  0.5285  0.5356  0.2480
  285SOL    HW1 1754   4.042   1.513   0.423 -2.6714 -0.1549 -1.2783
  285SOL    HW2 1755   4.002   1.659   0.360 -0.6350 -0.0585 -2.4169
  286SOL     OW 1756   5.119   3.112   6.393  0.7708 -0.0753 -0.3605
  286SOL    HW1 1757   5.110   3.049   6.470  2.1737 -0.4669 -0.5044
  286SOL    HW2 1758   5.027   3.136   6.360  0.0599  0.8635  2.0032
  287SOL     OW 1759   1.935   3.306   3.244  0.0623 -0.0655 -0.1309
  287SOL    HW1 1760   1.882   3.310   3.328 -0.9789  0.0044 -0.7793
  287SOL    HW2 1761   1.985   3.219   3.240 -1.1495 -0.7766 -0.1830
  288SOL     OW 1762   6.157   0.913   3.070 -0.2536 -0.3484  0.0453
  288SOL    HW1 1763   6.166   0.971   3.151 -2.4668  0.9926 -0.6022
  288SOL    HW2 1764   6.113   0.965   2.997  0.9057 -1.7980 -1.7701
  289SOL     OW 1765   5.768   1.350   5.043 -0.3592  0.3651  0.3882
  289SOL    HW1 1766   5.746   1.443   5.014 -1.4356  0.1696  0.5342
  289SOL    HW2 1767   5.685   1.295   5.043  0.6797 -1.3565 -2.3467
  290SOL     OW 1768   3.032   6.582   1.829 -0.2418  0.3720  0.0187
  290SOL    HW1 1769   3.062   6.678   1.825 -0.2774  0.4674  1.4444
  290SOL    HW2 1770   3.042   6.540   1.739  0.1133  1.6184 -0.5423
  291SOL     OW 1771   3.035   3.687   0.848 -0.2389 -0.4461  0.4306
  291SOL    HW1 1772   3.115   3.724   0.802 -1.9000  1.1697 -1.3444
  291SOL    HW2 1773   3.063   3.616   0.913  2.3883 -1.6837 -1.8584
  292SOL     OW 1774   6.324   4.988   1.533 -0.1819 -0.6280 -0.1922
  292SOL    HW1 1775   6.267   4.999   1.451  0.5410 -0.6864 -0.7063
  292SOL    HW2 1776   6.420   4.994   1.508  0.0536 -0.9415  0.6182
  293SOL     OW 1777   0.455   5.745   4.528 -0.1432 -0.1786 -0.0986
  293SOL    HW1 1778   0.487   5.766   4.436  0.9022 -0.6130  0.1513
  293SOL    HW2 1779   0.507   5.668   4.565 -0.0175  0.4806  1.1428
  294SOL     OW 1780   4.297   5.859   5.331 -0.0098 -0.6084 -0.0660
  294SOL    HW1 1781   4.221   5.884   5.271 -1.0086 -0.3955  1.2299
  294SOL    HW2 1782   4.364   5.805   5.280 -1.6232 -1.8504 -0.9586
  295SOL     OW 1783   2.448   5.619   3.010  0.2116 -0.6831  0.5403
  295SOL    HW1 1784   2.369   5.564   2.983 -0.8965  1.0451  0.1116
  295SOL    HW2 1785   2.468   5.604   3.107  0.2084 -2.1205  0.3463
  296SOL     OW 1786   6.656   5.871   0.268 -0.2587 -0.2391 -0.2693
  296SOL    HW1 1787   6.699   5.941   0.212  1.6366  0.3810  1.7900
  296SOL    HW2 1788   6.693   5.875   0.361 -0.0756 -3.9633 -0.0267
  297SOL     OW 1789   6.415   6.060   6.956  0.9878  0.5950  0.3233
  297SOL    HW1 1790   6.350   6.113   6.902  3.0448  1.6798 -1.2265
  297SOL    HW2 1791   6.463   6.121   7.019  1.2302  0.0011  0.7175
  298SOL     OW 1792   6.126   0.588   4.674 -0.4245  0.0253 -0.2952
  298SOL    HW1 1793   6.035   0.563   4.640 -0.8203  0.0487  0.7258
  298SOL    HW2 1794   6.121   0.678   4.718 -0.1570 -0.4601  0.7554
  299SOL     OW 1795   1.798   0.626   3.066 -0.4300 -0.4898  0.2474
  299SOL    HW1 1796   1.721   0.610   3.127  0.3939 -1.7641  0.9993
  299SOL    HW2 1797   1.884   0.616   3.117  0.2595 -0.6082 -0.9027
  300SOL     OW 1798   4.658   5.315   3.613  0.3601 -0.1665  1.2698
  300SOL    HW1 1799   4.635   5.281   3.522  0.5450  1.6969  0.4723
  300SOL    HW2 1800   4.695   5.408   3.605 -0.7560  0.5141  3.3414
  301SOL     OW 1801   6.402   6.726   0.758  0.0073  0.0491  0.3769
  301SOL    HW1 1802   6.417   6.698   0.853  0.9827 -1.0104 -0.0701
  301SOL    HW2 1803   6.448   6.662   0.697 -0.7471  0.6319 -0.8256
  302SOL     OW 1804   3.911   1.943   6.587 -0.1431 -0.3696 -0.2850
  302SOL    HW1 1805   3.978   2.011   6.618  0.1110 -1.5864  2.0693
  302SOL    HW2 1806   3.819   1.982   6.596  0.1009  0.4959 -1.3220
  303SOL     OW 1807   2.511   0.979   4.499  0.4745  0.0908 -0.6734
  303SOL    HW1 1808   2.482   0.950   4.590  2.9386  0.0689  0.1743
  303SOL    HW2 1809   2.548   1.072   4.504  3.9811 -1.1765 -0.8162
  304SOL     OW 1810   2.196   6.723   3.612 -1.2051  0.1860 -0.3641
  304SOL    HW1 1811   2.226   6.744   3.519  0.3920  0.1023  0.1038
  304SOL    HW2 1812   2.260   6.660   3.655 -0.9625  1.5500  1.3788
  305SOL     OW 1813   4.365   4.706   3.241 -0.1054 -0.6408 -0.2633
  305SOL    HW1 1814   4.320   4.716   3.329 -1.1578  0.4453 -0.8983
  305SOL    HW2 1815   4.393   4.611   3.228  2.2103 -0.4130  2.2289
  306SOL     OW 1816   6.583   1.957   2.325  0.2020 -0.8571 -0.6652
  306SOL    HW1 1817   6.516   1.895   2.285  0.2025 -0.4678 -1.2906
  306SOL    HW2 1818   6.670   1.949   2.276  0.8669 -1.9222  0.6322
  307SOL     OW 1819   0.154   1.435   6.448 -0.2031  0.3335 -0.0526
  307SOL    HW1 1820   0.221   1.417   6.376  0.4697  0.6230  0.4892
  307SOL    HW2 1821   0.195   1.496   6.516  0.2081 -2.1857  2.1063
  308SOL     OW 1822   6.196   2.374   1.526  0.1573 -0.7966 -0.2523
  308SOL    HW1 1823   6.162   2.432   1.600 -0.0158 -0.0786 -0.8774
  308SOL    HW2 1824   6.123   2.315   1.493  0.7463 -2.5863  1.4717
  309SOL     OW 1825   2.600   6.218   2.426  0.6473  0.2935 -0.2001
  309SOL    HW1 1826   2.674   6.170   2.473 -0.2035  0.2983  1.2205
  309SOL    HW2 1827   2.621   6.315   2.421  0.9073  0.2415 -0.1402
  310SOL     OW 1828   5.423   3.208   4.901  0.4691  0.2264 -0.0282
  310SOL    HW1 1829   5.401   3.260   4.984 -0.3577 -0.1394 -0.0044
  310SOL    HW2 1830   5.480   3.263   4.841  0.8375  0.6057  0.6580
  311SOL     OW 1831   6.604   0.651   4.209  0.7849 -0.2017 -0.4192
  311SOL    HW1 1832   6.615   0.612   4.117  2.2763 -1.1947  0.1379
  311SOL    HW2 1833   6.527   0.607   4.255  0.7260 -0.5096 -0.8040
  312SOL     OW 1834   3.802   4.877   3.922  0.3412 -0.0326  0.3048
  312SOL    HW1 1835   3.801   4.864   4.021 -2.0061  0.3548  0.3915
  312SOL    HW2 1836   3.708   4.886   3.888  1.0056 -1.1835 -2.1106
  313SOL     OW 1837   4.170   6.937   5.824  0.0443  0.1186 -0.1358
  313SOL    HW1 1838   4.097   6.928   5.757 -0.9685 -0.1315  0.9551
  313SOL    HW2 1839   4.183   7.034   5.847  2.0511  0.4719 -2.3965
  314SOL     OW 1840   5.505   0.580   6.476  0.4553 -0.3901  0.1556
  314SOL    HW1 1841   5.472   0.562   6.569 -0.7748  0.8708  0.0021
  314SOL    HW2 1842   5.450   0.529   6.411 -2.2000  2.5643 -0.1876
  315SOL     OW 1843   0.601   4.278   5.888 -0.2968  0.0234 -0.1511
  315SOL    HW1 1844   0.559   4.297   5.799  1.3458 -0.0054 -0.9763
  315SOL    HW2 1845   0.700   4.265   5.876  0.3970  2.4850  2.0244
  316SOL     OW 1846   3.687   2.857   1.742 -0.1342  0.7907 -0.9313
  316SOL    HW1 1847   3.655   2.763   1.755  1.5774 -0.1547 -2.8414
  316SOL    HW2 1848   3.644   2.896   1.660 -2.1901  2.4137  0.8067
  317SOL     OW 1849   2.462   3.089   5.463 -0.4052  0.1282  0.6698
  317SOL    HW1 1850   2.484   3.066   5.368  0.3217  0.7636  0.6839
  317SOL    HW2 1851   2.545   3.110   5.513 -0.8326  0.3119  1.3199
  318SOL     OW 1852   5.353   5.938   6.703  0.5150  0.1206  0.1550
  318SOL    HW1 1853   5.369   5.852   6.752  0.1734 -0.0947 -0.1116
  318SOL    HW2 1854   5.405   6.011   6.747 -1.7763  0.4911  2.4696
  319SOL     OW 1855   3.914   6.185   3.314 -0.6464 -0.5669 -0.3715
  319SOL    HW1 1856   3.877   6.112   3.372 -1.0764 -1.9053 -2.2593
  319SOL    HW2 1857   3.988   6.231   3.363 -3.0858  0.5895  2.5443
  320SOL     OW 1858   6.571   3.833   3.548 -0.2481 -0.4114 -0.7710
  320SOL    HW1 1859   6.494   3.802   3.493 -0.2196 -1.6829 -0.1401
  320SOL    HW2 1860   6.626   3.898   3.496 -0.7410 -0.8665 -1.8930
  321SOL     OW 1861   4.000   1.541   6.505 -0.2444 -0.0247  0.1751
  321SOL    HW1 1862   4.045   1.627   6.481 -0.7801  0.0371 -0.6493
  321SOL    HW2 1863   4.023   1.472   6.437 -0.0611 -0.4535  0.6707
  322SOL     OW 1864   4.373   0.334   6.574 -0.8658 -0.3820  0.3331
  322SOL    HW1 1865   4.282   0.294   6.563 -0.5646 -0.4820 -2.3822
  322SOL    HW2 1866   4.425   0.323   6.490  1.3033  0.6532  1.4528
  323SOL     OW 1867   3.440   6.400   1.713 -0.1129  0.2279  0.2021
  323SOL    HW1 1868   3.401   6.322   1.664  0.4593 -1.2855  2.0490
  323SOL    HW2 1869   3.538   6.385   1.727 -0.1668  0.8756  1.3325
  324SOL     OW 1870   1.325   2.616   6.487  0.3216 -0.1662  0.1573
  324SOL    HW1 1871   1.405   2.671   6.508 -0.9349  0.5801  3.7315
  324SOL    HW2 1872   1.261   2.670   6.433  1.4994 -0.2255 -1.3557
  325SOL     OW 1873   3.081   5.093   2.521  0.1938  0.1366  0.4398
  325SOL    HW1 1874   2.987   5.126   2.509 -0.5628 -0.5579  3.4710
  325SOL    HW2 1875   3.085   5.035   2.602  2.7855 -1.9658 -1.0369
  326SOL     OW 1876   5.233   5.131   5.421  0.0438 -0.0864 -0.4060
  326SOL    HW1 1877   5.156   5.176   5.466 -0.2993  0.1444 -1.2016
  326SOL    HW2 1878   5.230   5.033   5.439 -0.1213 -0.0053  0.0184
  327SOL     OW 1879   4.648   0.834   6.058  0.1779 -0.1731  0.5104
  327SOL    HW1 1880   4.698   0.919   6.073  1.9190 -0.7988 -1.2615
  327SOL    HW2 1881   4.701   0.758   6.095  0.4643 -0.8137 -1.1075
  328SOL     OW 1882   5.469   1.485   3.967  0.3971  0.1139  0.3728
  328SOL    HW1 1883   5.375   1.478   4.000  0.2732  0.3039  0.0654
  328SOL    HW2 1884   5.533   1.465   4.042  0.1093 -0.2867  0.5140
  329SOL     OW 1885   3.828   2.988   2.157 -0.1161  0.2723  0.2968
  329SOL    HW1 1886   3.778   3.012   2.073 -0.7855  0.6555  0.7996
  329SOL    HW2 1887   3.917   3.034   2.157  0.4485 -0.7527 -0.8072
  330SOL     OW 1888   4.364   5.543   5.283 -0.5114  0.2075 -0.7017
  330SOL    HW1 1889   4.391   5.614   5.218 -0.9922  2.3130  1.2564
  330SOL    HW2 1890   4.430   5.541   5.358  1.3075 -3.7047 -2.1670
  331SOL     OW 1891   5.018   2.653   3.506 -0.1271 -0.0443  0.6451
  331SOL    HW1 1892   5.117   2.642   3.501 -0.0249  1.2736 -1.2529
  331SOL    HW2 1893   4.977   2.571   3.547  1.8031 -0.1390  2.5679
  332SOL     OW 1894   1.071   6.688   3.002  0.4027 -0.1638  0.1701
  332SOL    HW1 1895   1.031   6.683   2.911  0.5388 -0.6084  0.1340
  332SOL    HW2 1896   1.057   6.602   3.050 -0.8036  0.4822  1.0543
  333SOL     OW 1897   2.039   6.500   2.616  0.1942  0.0816 -0.0357
  333SOL    HW1 1898   2.099   6.427   2.648 -0.8156 -0.6647  0.2151
  333SOL    HW2 1899   2.092   6.566   2.562  1.1774 -0.6833 -0.0336
  334SOL     OW 1900   5.667   1.356   4.100 -0.5991  0.3168 -0.0141
  334SOL    HW1 1901   5.751   1.320   4.057 -1.0962  0.7207 -1.3942
  334SOL    HW2 1902   5.624   1.284   4.153  0.1164 -0.1815 -0.0885
  335SOL     OW 1903   1.580   4.478   6.246  0.4276  0.8692 -0.3324
  335SOL    HW1 1904   1.593   4.420   6.327 -0.3325  0.0143 -0.7948
  335SOL    HW2 1905   1.492   4.525   6.253 -0.2049 -0.1409 -1.1907
  336SOL     OW 1906   3.372   1.032   5.814 -0.6646 -0.4632 -0.2791
  336SOL    HW1 1907   3.292   1.053   5.758  0.0305  0.7555 -0.8386
  336SOL    HW2 1908   3.342   1.018   5.909 -1.6534 -1.0047 -0.6543
  337SOL     OW 1909   5.443   6.816   0.864  0.0576 -0.3373  0.3713
  337SOL    HW1 1910   5.476   6.781   0.776 -1.4949 -1.9213  0.3591
  337SOL    HW2 1911   5.519   6.856   0.915  1.0652  0.2858 -1.5159
  338SOL     OW 1912   2.623   6.525   2.180  0.3516  0.0141 -0.4880
  338SOL    HW1 1913   2.577   6.573   2.254  1.9538  0.3132  0.3473
  338SOL    HW2 1914   2.589   6.559   2.092  1.4837  2.8159  0.0591
  339SOL     OW 1915   0.906   0.316   2.686 -0.1351  0.3984 -0.4589
  339SOL    HW1 1916   0.881   0.223   2.713 -2.5011  1.0440 -0.1459
  339SOL    HW2 1917   1.002   0.318   2.657 -0.4042 -2.4066 -1.9160
  340SOL     OW 1918   1.066   4.697   1.672 -0.8725 -0.5892  0.3149
  340SOL    HW1 1919   0.990   4.761   1.687 -0.8384 -0.4641 -0.0538
  340SOL    HW2 1920   1.085   4.690   1.575  0.0532 -0.0965  0.4577
  341SOL     OW 1921   4.852   4.051   0.719 -0.3778 -0.8135  0.0371
  341SOL    HW1 1922   4.833   4.148   0.703 -0.6202 -0.8438  0.1388
  341SOL    HW2 1923   4.771   4.007   0.760  0.2225 -0.7426  1.3400
  342SOL     OW 1924   2.481   1.581   4.105  0.3354  0.2042  0.1136
  342SOL    HW1 1925   2.521   1.491   4.122  2.6026  0.8636 -1.3023
  342SOL    HW2 1926   2.505   1.643   4.180 -1.6863 -0.4089  1.3706
  343SOL     OW 1927   2.666   2.799   6.109  0.1444  0.3435  0.2701
  343SOL    HW1 1928   2.719   2.755   6.182  2.0469 -1.7162 -2.1589
  343SOL    HW2 1929   2.571   2.769   6.113  0.2302  0.1979  1.7883
  344SOL     OW 1930   0.209   0.329   5.691 -0.2556 -0.4205 -0.3816
  344SOL    HW1 1931   0.188   0.411   5.745  0.5574 -0.4082 -0.0640
  344SOL    HW2 1932   0.226   0.356   5.596  1.1902 -0.0229 -0.0501
  345SOL     OW 1933   6.502   1.173   3.213  0.1609 -0.1807  0.6369
  345SOL    HW1 1934   6.480   1.090   3.264 -0.9644  0.8232  1.8504
  345SOL    HW2 1935   6.569   1.227   3.264 -1.0123  0.8562  1.1536
  346SOL     OW 1936   3.393   3.223   2.196 -0.5281 -0.8968  0.9369
  346SOL    HW1 1937   3.492   3.221   2.203 -0.5580  0.4844  2.2579
  346SOL    HW2 1938   3.355   3.134   2.223  0.2712 -0.9129  2.0376
  347SOL     OW 1939   4.299   5.410   4.386 -0.0198 -0.1378 -0.0450
  347SOL    HW1 1940   4.398   5.392   4.387 -0.3357 -2.0318  0.1710
  347SOL    HW2 1941   4.250   5.329   4.417 -1.7391  0.0825 -1.9479
  348SOL     OW 1942   4.527   3.179   6.936 -0.2428 -0.4010  0.2060
  348SOL    HW1 1943   4.470   3.253   6.972  1.0576 -0.4749  2.6250
  348SOL    HW2 1944   4.621   3.212   6.925 -0.3070 -0.7995 -1.9671
  349SOL     OW 1945   5.371   1.408   5.365 -0.0751  0.1904  0.3028
  349SOL    HW1 1946   5.331   1.367   5.284 -2.5452  2.6672  0.1051
  349SOL    HW2 1947   5.364   1.345   5.442  1.3207 -1.7723 -1.0929
  350SOL     OW 1948   3.065   2.580   0.038 -0.4368  0.3066  0.2994
  350SOL    HW1 1949   3.105   2.671   0.027  0.7730 -0.1803  0.5992
  350SOL    HW2 1950   3.015   2.577   0.125  3.5846 -0.6891  2.8365
  351SOL     OW 1951   1.947   0.207   5.673 -0.1350  0.2895  0.3290
  351SOL    HW1 1952   1.897   0.133   5.719 -0.9514  0.5162 -0.1845
  351SOL    HW2 1953   1.885   0.283   5.655  0.9758  1.6970  2.0836
  352SOL     OW 1954   0.924   0.474   3.436  0.0887  0.0205 -0.3446
  352SOL    HW1 1955   0.928   0.403   3.366 -1.0338  0.3334 -0.7452
  352SOL    HW2 1956   0.881   0.438   3.518  1.5427 -0.3905  0.2601
  353SOL     OW 1957   0.721   5.738   1.696  0.2115 -0.5738 -0.0338
  353SOL    HW1 1958   0.696   5.644   1.674 -0.1177 -0.4657 -0.1226
  353SOL    HW2 1959   0.647   5.799   1.669  1.1966 -0.0735 -1.7307
  354SOL     OW 1960   3.463   3.832   3.197  0.1601 -0.4005 -0.5224
  354SOL    HW1 1961   3.553   3.803   3.228  0.0631 -0.6757 -0.4919
  354SOL    HW2 1962   3.409   3.751   3.171 -0.6548 -0.4030  1.0273
  355SOL     OW 1963   4.548   1.527   2.578 -0.1387  0.0754 -0.0023
  355SOL    HW1 1964   4.644   1.507   2.557  0.0470 -0.4166  1.2536
  355SOL    HW2 1965   4.495   1.443   2.570 -0.2363  0.0862  0.5004
  356SOL     OW 1966   5.196   0.022   6.325  0.2695 -0.2500 -0.3025
  356SOL    HW1 1967   5.287  -0.014   6.345 -0.0335 -2.4380 -2.3704
  356SOL    HW2 1968   5.201   0.083   6.246 -0.0015 -0.0633 -0.1774
  357SOL     OW 1969   5.228   3.050   3.989  0.2066  0.1406 -0.1935
  357SOL    HW1 1970   5.160   3.029   4.060  0.1698  1.0490  0.0609
  357SOL    HW2 1971   5.242   2.970   3.931 -1.3735  0.0471 -0.4840
  358SOL     OW 1972   5.242   6.616   4.654 -0.0092  0.1165 -0.2355
  358SOL    HW1 1973   5.181   6.606   4.732 -0.7173  0.2922 -0.7544
  358SOL    HW2 1974   5.271   6.525   4.623 -0.8057 -0.0308 -0.5909
  359SOL     OW 1975   5.937   2.480   6.001  0.0463  0.4948  0.1822
  359SOL    HW1 1976   5.848   2.476   6.048 -0.3713  2.6313 -0.3338
  359SOL    HW2 1977   5.925   2.525   5.912  1.5114 -0.0231 -0.2980
  360SOL     OW 1978   3.503   0.667   6.375 -0.2024 -0.1134  0.0104
  360SOL    HW1 1979   3.481   0.665   6.277 -0.2760  2.7403 -0.1309
  360SOL    HW2 1980   3.561   0.746   6.393 -1.0218 -0.0052  2.4540
  361SOL     OW 1981   1.033   3.376   5.384  0.0567 -0.2148  0.2979
  361SOL    HW1 1982   0.993   3.326   5.308  2.3194 -1.6366 -0.0429
  361SOL    HW2 1983   1.132   3.361   5.386  0.1697  0.2760  3.1475
  362SOL     OW 1984   0.378   5.520   6.655  0.6414  0.3393  0.3405
  362SOL    HW1 1985   0.368   5.421   6.644 -0.7739  0.4860  0.0587
  362SOL    HW2 1986   0.383   5.563   6.565 -0.1695  0.6331  0.4287
  363SOL     OW 1987   0.533   3.866   2.393 -0.3937  0.5427  0.4176
  363SOL    HW1 1988   0.540   3.932   2.468  1.4663  1.2102 -0.2874
  363SOL    HW2 1989   0.528   3.914   2.306 -0.8929 -0.2313  0.0091
  364SOL     OW 1990   3.645   6.883   6.958 -0.2846 -0.1416  0.0360
  364SOL    HW1 1991   3.584   6.818   7.002 -0.5561 -0.3173 -0.6018
  364SOL    HW2 1992   3.740   6.853   6.970 -0.3221  0.0546  0.8953
  365SOL     OW 1993   0.703   1.775   6.530 -0.6136 -0.3110 -0.5672
  365SOL    HW1 1994   0.702   1.720   6.446 -0.1474 -1.6311  0.2518
  365SOL    HW2 1995   0.785   1.753   6.583  0.0327  1.8354 -0.5927
  366SOL     OW 1996   6.677   2.055   0.288  0.0564 -0.8819  0.3424
  366SOL    HW1 1997   6.759   2.084   0.237 -0.2094 -0.4313  0.1616
  366SOL    HW2 1998   6.696   2.059   0.386 -0.3214  1.0634  0.3770
  367SOL     OW 1999   5.464   5.519   2.029  0.1335 -0.4280  0.1723
  367SOL    HW1 2000   5.537   5.471   1.980 -0.6467 -0.6868 -0.7780
  367SOL    HW2 2001   5.482   5.617   2.029  0.4936 -0.4931 -0.0333
  368SOL     OW 2002   2.133   4.208   3.478  0.0038  0.2846 -0.9443
  368SOL    HW1 2003   2.135   4.301   3.442  1.6772  1.1706  1.1829
  368SOL    HW2 2004   2.176   4.146   3.413  0.6086  1.3501 -1.5944
  369SOL     OW 2005   6.919   2.060   0.119  0.5245  0.8025 -0.8794
  369SOL    HW1 2006   6.921   2.070   0.020  4.1185 -1.7590 -1.2482
  369SOL    HW2 2007   7.000   2.103   0.159  0.9623 -1.1835  0.5068
  370SOL     OW 2008   2.423   4.639   2.668  0.6909  0.1198 -0.1643
  370SOL    HW1 2009   2.330   4.668   2.687  0.1692 -0.8697 -1.1131
  370SOL    HW2 2010   2.484   4.718   2.673 -0.3344  0.9497 -0.4236
  371SOL     OW 2011   6.066   4.580   2.849  0.1617 -0.2764 -0.2581
  371SOL    HW1 2012   6.064   4.678   2.830 -0.5156 -0.3224 -0.4415
  371SOL    HW2 2013   6.155   4.555   2.886  0.0310  0.5641  0.6425
  372SOL     OW 2014   1.360   1.014   3.082  0.5673  0.2093  0.0264
  372SOL    HW1 2015   1.346   1.031   3.179  0.7674  0.2256  0.0530
  372SOL    HW2 2016   1.404   0.925   3.069  1.2297  0.5285 -0.0000
  373SOL     OW 2017   0.785   6.962   5.819  0.2379  0.3662 -0.2793
  373SOL    HW1 2018   0.690   6.940   5.839  0.1988  2.3256  2.1220
  373SOL    HW2 2019   0.845   6.891   5.855 -0.2561 -0.9489 -1.9296
  374SOL     OW 2020   6.871   4.543   3.003  0.0744 -0.2133  0.5064
  374SOL    HW1 2021   6.880   4.640   3.027  0.7752 -0.1643  0.0715
  374SOL    HW2 2022   6.958   4.497   3.018  0.3060 -0.3535 -1.1015
  375SOL     OW 2023   2.157   2.121   0.936  0.0813 -0.3630 -0.1646
  375SOL    HW1 2024   2.183   2.213   0.965 -0.2387  0.3698 -2.0643
  375SOL    HW2 2025   2.064   2.122   0.899  0.4275 -1.2355 -1.1124
  376SOL     OW 2026   1.470   0.766   3.001  0.0513  0.5125  0.4144
  376SOL    HW1 2027   1.509   0.714   3.077  0.1860  0.0840  0.0543
  376SOL    HW2 2028   1.456   0.706   2.923  4.6864  1.7952 -1.7488
  377SOL     OW 2029   4.094   1.103   4.183 -0.1652  0.1643  0.3342
  377SOL    HW1 2030   4.091   1.012   4.224  1.1141  0.8165  1.9588
  377SOL    HW2 2031   4.147   1.099   4.098  0.8886 -0.4108  0.9953
  378SOL     OW 2032   3.265   3.998   2.911  0.4261  0.2597  0.1744
  378SOL    HW1 2033   3.298   4.003   2.817 -0.7674  0.2903 -0.2644
  378SOL    HW2 2034   3.336   4.030   2.973  1.0040  0.8585 -0.7658
  379SOL     OW 2035   0.172   2.383   4.058 -0.5327  0.1874 -0.2488
  379SOL    HW1 2036   0.160   2.346   4.150 -0.7896  1.4240  0.2454
  379SOL    HW2 2037   0.270   2.385   4.035 -0.1565  2.4556  1.1841
  380SOL     OW 2038   5.089   5.118   0.023 -0.1710  0.0883 -0.3650
  380SOL    HW1 2039   5.009   5.168   0.056 -1.1076 -1.0482 -0.8307
  380SOL    HW2 2040   5.098   5.133  -0.076 -0.5474 -0.7597 -0.5336
  381SOL     OW 2041   4.098   2.164   1.684  0.3302  0.2878 -0.2020
  381SOL    HW1 2042   4.156   2.216   1.621  0.7362  0.2144  0.1048
  381SOL    HW2 2043   4.011   2.211   1.695  1.5641  2.2851  1.9853
  382SOL     OW 2044   4.790   1.061   0.806 -0.4838 -0.5253  0.1563
  382SOL    HW1 2045   4.754   1.133   0.865  1.9147  0.9602 -0.0123
  382SOL    HW2 2046   4.791   0.974   0.855  1.1786  0.5994  2.3255
  383SOL     OW 2047   3.718   5.800   1.487 -0.1591  0.5120  0.4036
  383SOL    HW1 2048   3.795   5.738   1.505 -0.3754 -0.1033 -0.7274
  383SOL    HW2 2049   3.695   5.797   1.390 -1.8677  0.4012  0.7881
  384SOL     OW 2050   5.085   2.482   5.697 -0.1580 -0.1433 -0.2976
  384SOL    HW1 2051   5.180   2.514   5.693  0.8024 -2.6604  0.5438
  384SOL    HW2 2052   5.064   2.429   5.614 -1.3819  1.6361 -1.1921
  385SOL     OW 2053   4.658   2.600   5.946  0.3334  0.1595 -0.1732
  385SOL    HW1 2054   4.678   2.686   5.900  0.6718 -0.0098 -0.3370
  385SOL    HW2 2055   4.652   2.526   5.880  2.0815 -0.3170  0.1600
  386SOL     OW 2056   4.734   5.738   0.030  0.4041 -0.2396 -0.0114
  386SOL    HW1 2057   4.739   5.702  -0.063 -0.0643  0.9605 -0.5326
  386SOL    HW2 2058   4.740   5.663   0.096 -1.3332 -1.3471 -1.0356
  387SOL     OW 2059   5.863   5.508   5.385 -0.0299 -0.1090 -0.3235
  387SOL    HW1 2060   5.837   5.414   5.360  1.1157 -0.2429 -1.0703
  387SOL    HW2 2061   5.853   5.519   5.484  1.3929 -1.5611  0.0359
  388SOL     OW 2062   0.520   1.084   2.773  0.2367  0.1892  0.2664
  388SOL    HW1 2063   0.550   1.179   2.765 -2.3121  1.0451  0.1228
  388SOL    HW2 2064   0.429   1.081   2.816 -0.3033 -2.0983 -0.8929
  389SOL     OW 2065   2.379   0.939   4.744 -0.5480  0.6989  0.4799
  389SOL    HW1 2066   2.415   0.942   4.837 -0.9974  0.1385  0.6764
  389SOL    HW2 2067   2.288   0.898   4.744 -0.2379 -0.0511 -0.2920
  390SOL     OW 2068   4.604   2.764   0.727 -0.2376 -0.0076 -0.0080
  390SOL    HW1 2069   4.664   2.781   0.805 -2.6558  1.2488  1.7044
  390SOL    HW2 2070   4.582   2.666   0.722  0.4244 -0.1861  0.5041
  391SOL     OW 2071   2.868   5.445   1.334  0.0500 -0.5942  0.3838
  391SOL    HW1 2072   2.873   5.381   1.411 -0.1708  0.8909  1.6872
  391SOL    HW2 2073   2.896   5.535   1.364  2.4839 -0.4491 -1.9381
  392SOL     OW 2074   6.985   6.756   5.811  0.6164 -0.8495  0.4606
  392SOL    HW1 2075   7.009   6.837   5.865  2.6795 -2.0190  1.4052
  392SOL    HW2 2076   7.063   6.727   5.756  0.6883 -3.3602  1.7187
  393SOL     OW 2077   3.095   1.133   2.907  0.2427  0.4899 -0.0320
  393SOL    HW1 2078   3.021   1.140   2.840  0.0178  1.2660  0.2918
  393SOL    HW2 2079   3.061   1.086   2.989  0.5984 -0.7293 -0.5571
  394SOL     OW 2080   1.436   4.011   4.351 -0.0748  0.5705  0.1690
  394SOL    HW1 2081   1.495   4.059   4.287 -1.8497  0.1885 -1.8475
  394SOL    HW2 2082   1.458   3.913   4.350 -1.1439  0.3191 -1.1173
  395SOL     OW 2083   5.963   4.795   1.380  0.7171  0.5362 -0.5419
  395SOL    HW1 2084   5.926   4.771   1.290  0.3662  2.4593 -0.9542
  395SOL    HW2 2085   5.891   4.834   1.437  1.5119  1.8846 -0.4211
  396SOL     OW 2086   3.497   6.455   2.599 -0.2954  0.0586  0.4246
  396SOL    HW1 2087   3.455   6.504   2.675 -2.0006  0.4588 -0.6953
  396SOL    HW2 2088   3.462   6.492   2.512  2.8566  0.7701 -0.6455
  397SOL     OW 2089   4.886   4.873   6.189 -0.8193 -0.2456 -0.2434
  397SOL    HW1 2090   4.936   4.929   6.255 -0.2978  0.4254 -1.1993
  397SOL    HW2 2091   4.789   4.899   6.190 -1.1148 -1.2644  1.3070
  398SOL     OW 2092   3.581   3.313   1.454  0.3334 -0.1207  0.3512
  398SOL    HW1 2093   3.626   3.361   1.530  0.2937  1.8524 -0.8176
  398SOL    HW2 2094   3.646   3.301   1.379 -0.1887 -0.2282 -0.0901
  399SOL     OW 2095   2.215   0.123   6.894 -0.4244  0.1634 -0.1835
  399SOL    HW1 2096   2.182   0.039   6.850  2.2522 -0.1103 -1.8453
  399SOL    HW2 2097   2.263   0.179   6.827 -1.2889  2.6048  1.1361
  400SOL     OW 2098   2.676   3.061   5.667 -0.3036 -0.0637  0.5039
  400SOL    HW1 2099   2.665   2.962   5.663  0.7994 -0.2610  1.8383
  400SOL    HW2 2100   2.759   3.088   5.617  0.1887  0.0247  1.3586
  401SOL     OW 2101   0.816   1.308   3.205 -0.4677  0.3263  0.3737
  401SOL    HW1 2102   0.897   1.350   3.163  0.9760 -1.6540  1.0059
  401SOL    HW2 2103   0.745   1.377   3.216  0.3135  1.6720 -2.1662
  402SOL     OW 2104   6.391   3.786   3.739 -0.3005 -0.1583 -0.2492
  402SOL    HW1 2105   6.473   3.764   3.685 -0.1774  0.6886 -0.4218
  402SOL    HW2 2106   6.341   3.860   3.693 -0.1313  0.6603  0.8579
  403SOL     OW 2107   1.197   5.052   4.051 -0.2622 -0.4857 -0.3012
  403SOL    HW1 2108   1.162   5.106   3.975 -1.8572 -0.8622  0.1184
  403SOL    HW2 2109   1.269   5.102   4.098 -1.1257  0.9203 -0.4321
  404SOL     OW 2110   5.732   0.087   3.431 -0.4888 -0.3739 -0.2119
  404SOL    HW1 2111   5.666   0.156   3.399 -0.7402 -0.1663  0.7161
  404SOL    HW2 2112   5.816   0.132   3.460 -0.5308 -0.4839  0.0866
  405SOL     OW 2113   6.495   6.426   2.261  0.1340 -0.3880  0.0024
  405SOL    HW1 2114   6.533   6.404   2.351  1.1508 -0.7155 -0.4980
  405SOL    HW2 2115   6.565   6.471   2.205 -0.2344 -0.9430 -0.9152
  406SOL     OW 2116   0.522   3.572   4.364  0.0592 -0.4510 -0.6317
  406SOL    HW1 2117   0.619   3.558   4.385  0.0350  0.7464  0.3889
  406SOL    HW2 2118   0.471   3.579   4.449 -0.2724  3.1784 -0.9680
  407SOL     OW 2119   4.415   6.822   2.594  0.0745  0.6932 -0.0510
  407SOL    HW1 2120   4.427   6.762   2.673 -1.3370 -0.0964 -0.3970
  407SOL    HW2 2121   4.365   6.904   2.621 -2.1099 -0.4361 -0.4194
  408SOL     OW 2122   3.957   1.325   4.241  0.5167 -0.1182  0.2055
  408SOL    HW1 2123   4.023   1.255   4.213  0.0756 -0.1506 -0.7819
  408SOL    HW2 2124   3.869   1.282   4.260  0.8945 -0.1555  2.0919
  409SOL     OW 2125   2.027   0.807   4.477  0.9507  0.6123  1.0592
  409SOL    HW1 2126   2.090   0.764   4.412 -1.1344 -2.1374  0.6550
  409SOL    HW2 2127   1.996   0.895   4.440  0.5835 -0.4037 -1.2750
  410SOL     OW 2128   1.700   1.233   4.387  0.5420 -0.3964  0.0731
  410SOL    HW1 2129   1.605   1.214   4.413  0.7786 -1.4942  0.1588
  410SOL    HW2 2130   1.710   1.331   4.371 -0.8660 -0.3720 -0.9408
  411SOL     OW 2131   5.280   5.535   3.455  0.2816 -0.2256  0.1319
  411SOL    HW1 2132   5.229   5.539   3.369  1.4076  2.1365 -0.4983
  411SOL    HW2 2133   5.237   5.594   3.523  0.3826 -0.7250  0.6397
  412SOL     OW 2134   2.972   6.031   3.536  0.2222 -0.1528 -0.3450
  412SOL    HW1 2135   3.050   6.088   3.560 -0.1983  0.4926 -0.4931
  412SOL    HW2 2136   2.901   6.087   3.494 -1.2191 -0.3090  1.7116
  413SOL     OW 2137   1.639   0.113   5.135  0.3085 -0.3664  0.2862
  413SOL    HW1 2138   1.587   0.177   5.078  1.1415  1.1270  1.1399
  413SOL    HW2 2139   1.643   0.024   5.090 -3.0552 -0.6049  0.2402
  414SOL     OW 2140   3.367   1.610   3.230 -0.0019 -0.0596  0.1059
  414SOL    HW1 2141   3.324   1.695   3.200  1.2316  1.2109  1.7439
  414SOL    HW2 2142   3.417   1.626   3.315  0.0258 -2.5108  0.6330
  415SOL     OW 2143   3.683   1.056   2.680  0.0309 -0.1578 -0.0764
  415SOL    HW1 2144   3.614   1.107   2.628 -0.2752 -0.1540  0.3362
  415SOL    HW2 2145   3.643   1.020   2.764  0.9738  1.3462  1.0572
  416SOL     OW 2146   4.459   0.822   6.366  0.2996 -0.0352 -0.0054
  416SOL    HW1 2147   4.402   0.791   6.442 -1.6432  2.3218 -0.3714
  416SOL    HW2 2148   4.448   0.759   6.289 -2.2319  0.5018 -0.1947
  417SOL     OW 2149   0.664   5.413   3.105  0.5276  0.1455  0.3527
  417SOL    HW1 2150   0.691   5.509   3.110 -0.6635  0.4765  0.7221
  417SOL    HW2 2151   0.591   5.402   3.038 -0.8340 -0.1214  1.8294
  418SOL     OW 2152   2.194   6.145   4.955  0.2270 -0.3783  0.0341
  418SOL    HW1 2153   2.106   6.180   4.988  0.2308  0.0624 -0.4110
  418SOL    HW2 2154   2.253   6.222   4.931 -0.2795 -0.6586 -2.3538
  419SOL     OW 2155   3.419   3.025   6.002  0.5208 -0.0089 -0.0323
  419SOL    HW1 2156   3.320   3.022   6.017  0.3709  1.3575 -0.6233
  419SOL    HW2 2157   3.447   3.118   5.979  2.2341  0.0088  1.8876
  420SOL     OW 2158   1.242   2.539   3.424  0.4092 -0.5134  0.1335
  420SOL    HW1 2159   1.250   2.552   3.325 -0.7735 -1.7221 -0.1510
  420SOL    HW2 2160   1.315   2.479   3.456  0.8027 -0.1081  0.0008
  421SOL     OW 2161   2.580   1.069   1.468 -0.7080  0.7182  0.4898
  421SOL    HW1 2162   2.596   1.101   1.562 -0.8173 -0.2148  0.8413
  421SOL    HW2 2163   2.654   1.008   1.441 -2.2047 -1.5316  1.1565
  422SOL     OW 2164   5.554   5.036   1.081 -0.0566  0.3552  0.3408
  422SOL    HW1 2165   5.502   4.992   1.154 -0.3513 -1.0982 -0.6942
  422SOL    HW2 2166   5.532   5.134   1.079 -1.2222  0.1397  1.2052
  423SOL     OW 2167   4.170   0.227   3.877 -0.0750 -0.0826  0.2373
  423SOL    HW1 2168   4.209   0.306   3.830  0.0731  0.3359  1.0478
  423SOL    HW2 2169   4.077   0.248   3.906 -0.2110 -0.3851  0.0280
  424SOL     OW 2170   0.280   4.616   5.942 -0.4560  0.5267  0.1602
  424SOL    HW1 2171   0.333   4.680   5.997  0.2857  0.7934 -0.8407
  424SOL    HW2 2172   0.297   4.523   5.973  0.5359  0.6178 -0.0932
  425SOL     OW 2173   2.133   0.825   4.742 -0.3622  0.2301 -0.0966
  425SOL    HW1 2174   2.079   0.792   4.819  1.9075 -1.5664  0.8697
  425SOL    HW2 2175   2.083   0.811   4.657 -1.1300 -2.0595  0.6691
  426SOL     OW 2176   1.496   2.073   0.894 -0.4082  0.5928 -0.0473
  426SOL    HW1 2177   1.522   2.153   0.840 -1.2133  1.0702  0.2622
  426SOL    HW2 2178   1.460   2.002   0.833  2.4665 -0.5057 -0.6400
  427SOL     OW 2179   6.398   0.120   6.318  0.0643  0.0566  0.2934
  427SOL    HW1 2180   6.400   0.220   6.318 -1.2974  0.1074  0.0791
  427SOL    HW2 2181   6.313   0.089   6.275  0.9210 -1.2121 -0.5425
  428SOL     OW 2182   3.547   1.599   3.458  0.1060 -0.3715  0.2379
  428SOL    HW1 2183   3.627   1.590   3.398  0.0880 -0.8382  0.2866
  428SOL    HW2 2184   3.555   1.684   3.510  0.2779 -0.1175 -0.1918
  429SOL     OW 2185   4.992   2.370   2.466 -0.0167 -0.7350 -0.2345
  429SOL    HW1 2186   4.960   2.279   2.439  0.6766 -1.0046 -0.1909
  429SOL    HW2 2187   4.914   2.429   2.486 -0.4702 -1.3970 -0.0217
  430SOL     OW 2188   2.975   4.622   0.588  0.2368  0.3775  0.0278
  430SOL    HW1 2189   2.915   4.553   0.627 -0.3620  0.6269 -0.4317
  430SOL    HW2 2190   2.963   4.624   0.488  0.4763  0.9224  0.0082
  431SOL     OW 2191   5.952   2.640   2.641 -0.0243 -1.0347 -0.1657
  431SOL    HW1 2192   5.969   2.679   2.550  0.1623 -2.4774 -0.7784
  431SOL    HW2 2193   6.038   2.640   2.693 -0.2413  0.2644  0.2167
  432SOL     OW 2194   2.478   1.103   0.559 -0.5155 -0.6608  0.1626
  432SOL    HW1 2195   2.439   1.047   0.632 -0.3753  0.2429  0.9479
  432SOL    HW2 2196   2.538   1.173   0.598  0.5688 -0.9458 -0.9041
  433SOL     OW 2197   5.311   2.875   2.528  0.5044 -0.3401  0.3580
  433SOL    HW1 2198   5.299   2.883   2.627 -0.5561 -0.6153  0.2634
  433SOL    HW2 2199   5.322   2.779   2.503 -0.4284 -0.3848  0.0948
  434SOL     OW 2200   2.764   4.495   0.700 -0.0450 -0.4247 -0.1087
  434SOL    HW1 2201   2.712   4.488   0.615  0.4640  4.0395 -1.0059
  434SOL    HW2 2202   2.711   4.548   0.767  2.1355  1.9307 -0.1119
  435SOL     OW 2203   0.102   5.306   6.640  0.3608  0.0969  0.0955
  435SOL    HW1 2204   0.076   5.403   6.629  0.1494  0.0435  0.1120
  435SOL    HW2 2205   0.154   5.277   6.560  0.4757  0.2405  0.1166
  436SOL     OW 2206   3.700   4.300   1.494  0.4533 -0.1155  0.2309
  436SOL    HW1 2207   3.777   4.354   1.460  0.8993 -0.9457 -0.1092
  436SOL    HW2 2208   3.728   4.204   1.503  0.0446 -0.0937  2.0015
  437SOL     OW 2209   3.943   4.825   3.087 -0.1631  0.4359 -0.3335
  437SOL    HW1 2210   3.883   4.782   3.020 -0.1249  0.9451 -0.7037
  437SOL    HW2 2211   3.953   4.922   3.065 -1.1406  0.8991  1.1234
  438SOL     OW 2212   0.348   5.855   5.961 -0.0460 -0.0815  0.4770
  438SOL    HW1 2213   0.381   5.761   5.949 -0.6193 -0.1253 -1.0210
  438SOL    HW2 2214   0.385   5.912   5.888 -0.5249  0.6305  0.7823
  439SOL     OW 2215   1.868   0.668   1.050 -0.1293 -0.7838  0.0025
  439SOL    HW1 2216   1.895   0.695   1.142  0.6016 -2.0319  0.1808
  439SOL    HW2 2217   1.851   0.750   0.995 -1.0789 -0.0365  1.3732
  440SOL     OW 2218   2.827   6.703   3.497 -0.2964 -0.2519 -0.1643
  440SOL    HW1 2219   2.889   6.658   3.562 -1.0040 -0.8145  0.1254
  440SOL    HW2 2220   2.741   6.653   3.492 -1.2839  1.2927  0.5068
  441SOL     OW 2221   1.791   6.350   6.324  0.5080  0.4472  0.6604
  441SOL    HW1 2222   1.802   6.321   6.418 -0.7026  0.8027  0.9198
  441SOL    HW2 2223   1.880   6.381   6.289  0.9307  0.5014  1.7364
  442SOL     OW 2224   1.512   1.082   4.730 -0.0622 -0.6578  0.0532
  442SOL    HW1 2225   1.494   1.002   4.673  0.2751  0.3920 -1.5847
  442SOL    HW2 2226   1.596   1.069   4.781  0.5192 -0.9613 -0.9601
  443SOL     OW 2227   3.620   4.204   6.499 -0.0523 -0.0702 -0.2824
  443SOL    HW1 2228   3.543   4.162   6.546  0.5963 -1.3157 -0.3108
  443SOL    HW2 2229   3.651   4.284   6.551 -1.3427  0.4574 -0.2732
  444SOL     OW 2230   0.587   0.417   3.110 -0.2357  0.1883 -0.0542
  444SOL    HW1 2231   0.660   0.366   3.065 -0.1860 -2.3724  2.6163
  444SOL    HW2 2232   0.542   0.477   3.044  2.3757 -0.3079 -2.4381
  445SOL     OW 2233   6.248   5.267   4.620 -0.4127 -0.2409  0.6914
  445SOL    HW1 2234   6.158   5.291   4.656  0.0703  0.5358  1.4367
  445SOL    HW2 2235   6.238   5.228   4.529 -1.4052  1.2371  0.1184
  446SOL     OW 2236   2.145   2.599   1.522  0.3580  0.3733  0.3070
  446SOL    HW1 2237   2.209   2.676   1.528  0.9996 -0.1106 -0.2366
  446SOL    HW2 2238   2.062   2.629   1.476  1.2056  0.3830 -1.2936
  447SOL     OW 2239   3.436   6.085   2.177 -0.2257  0.0978 -0.3096
  447SOL    HW1 2240   3.422   6.163   2.116 -1.1138 -0.1333 -0.4218
  447SOL    HW2 2241   3.350   6.065   2.226  0.4096  0.1566  0.8775
  448SOL     OW 2242   1.921   1.074   4.374  0.0752 -0.0050 -0.4553
  448SOL    HW1 2243   1.833   1.121   4.383  1.0377  1.3885  3.3520
  448SOL    HW2 2244   1.987   1.136   4.330  0.0696  0.3662  0.0461
  449SOL     OW 2245   5.731   1.476   3.416  0.2965  0.3352  0.0343
  449SOL    HW1 2246   5.666   1.541   3.376  1.5954  1.2948 -0.5932
  449SOL    HW2 2247   5.702   1.452   3.508 -1.5408 -0.1383 -0.6326
  450SOL     OW 2248   3.812   6.900   0.380  0.0674 -0.5413  0.4611
  450SOL    HW1 2249   3.849   6.834   0.316 -0.8000  0.3464 -1.0086
  450SOL    HW2 2250   3.864   6.986   0.374  0.0433 -0.4771  1.0409
  451SOL     OW 2251   5.494   5.476   4.553 -0.2212  0.3458 -0.8892
  451SOL    HW1 2252   5.418   5.416   4.525 -0.9691  1.1120 -0.5438
  451SOL    HW2 2253   5.467   5.571   4.543  0.8833  0.6423 -1.2106
  452SOL     OW 2254   6.894   4.181   0.934  0.4101  0.7368  0.3285
  452SOL    HW1 2255   6.949   4.153   1.013  2.4910  0.6716 -1.0758
  452SOL    HW2 2256   6.902   4.280   0.922  0.6628  0.6487 -0.2233
  453SOL     OW 2257   5.331   2.615   4.895  0.3678 -0.5050  0.4329
  453SOL    HW1 2258   5.378   2.702   4.885  2.1948 -1.5810 -0.9450
  453SOL    HW2 2259   5.397   2.540   4.890 -1.3122 -2.0449  0.1099
  454SOL     OW 2260   4.474   1.883   4.278  0.2179  0.2193 -0.1184
  454SOL    HW1 2261   4.482   1.797   4.327 -0.3785  0.4921  0.4821
  454SOL    HW2 2262   4.410   1.873   4.201 -1.8168  0.7146  1.4191
  455SOL     OW 2263   1.907   5.047   5.502 -0.6329 -0.3375 -0.6762
  455SOL    HW1 2264   1.987   5.086   5.548  0.1050 -0.8046 -1.5275
  455SOL    HW2 2265   1.850   4.999   5.569 -0.2406  0.0651 -0.0472
  456SOL     OW 2266   5.630   5.245   6.725  0.3315 -0.6882  0.3083
  456SOL    HW1 2267   5.725   5.260   6.697 -0.0123  2.2813  0.4385
  456SOL    HW2 2268   5.582   5.332   6.726 -1.6924 -1.7150  2.8906
  457SOL     OW 2269   6.086   3.405   3.627 -0.1646  0.3909 -0.5840
  457SOL    HW1 2270   6.046   3.381   3.715 -1.6261  1.5833 -0.8877
  457SOL    HW2 2271   6.045   3.348   3.555  0.4904 -0.0698 -0.6033
  458SOL     OW 2272   6.040   4.890   4.132 -0.1492 -0.2570 -0.3124
  458SOL    HW1 2273   5.997   4.940   4.208  1.5883 -1.1385  1.3555
  458SOL    HW2 2274   6.052   4.952   4.055 -3.4389  0.2562 -0.5426
  459SOL     OW 2275   6.218   0.525   5.122  0.4526 -0.0601 -0.1224
  459SOL    HW1 2276   6.195   0.454   5.056  0.4538 -1.8092  1.6774
  459SOL    HW2 2277   6.316   0.521   5.143  0.0510 -1.1586  1.7449
  460SOL     OW 2278   0.021   5.248   3.739  0.6865  0.4712  0.0910
  460SOL    HW1 2279  -0.076   5.243   3.763  0.9906  0.1949  1.3186
  460SOL    HW2 2280   0.068   5.167   3.773  1.5386  1.0866  0.4066
  461SOL     OW 2281   4.102   5.541   0.309 -0.4481  0.1993  0.1431
  461SOL    HW1 2282   4.021   5.549   0.252 -1.2575 -0.2938  1.1771
  461SOL    HW2 2283   4.131   5.445   0.312  0.4967  0.4389 -0.6217
  462SOL     OW 2284   5.968   2.146   0.490 -0.1152 -0.4119 -0.0080
  462SOL    HW1 2285   5.985   2.244   0.487  2.3857 -0.7751  0.0891
  462SOL    HW2 2286   5.906   2.125   0.565 -0.2773  1.0442  0.2827
  463SOL     OW 2287   3.352   5.638   1.715  0.3544  0.0516 -0.5561
  463SOL    HW1 2288   3.388   5.561   1.768  1.9874  1.8260  1.0872
  463SOL    HW2 2289   3.291   5.604   1.643  0.2827 -2.6659  0.6725
  464SOL     OW 2290   5.487   7.008   2.265  0.3328  0.1514  0.2357
  464SOL    HW1 2291   5.513   6.998   2.169  1.7253 -2.9459  0.8319
  464SOL    HW2 2292   5.398   6.965   2.280  0.8516 -0.8200  0.5979
  465SOL     OW 2293   6.228   6.440   6.881  0.2283  0.2249 -0.2225
  465SOL    HW1 2294   6.247   6.440   6.980  1.6068  1.6383 -0.4520
  465SOL    HW2 2295   6.129   6.430   6.866 -0.6569  4.3094  1.5073
  466SOL     OW 2296   1.697   4.110   1.072  0.1866 -0.1205 -0.6103
  466SOL    HW1 2297   1.652   4.179   1.016  1.8207  0.4076 -1.3202
  466SOL    HW2 2298   1.759   4.154   1.137  0.3378 -0.8681 -0.2230
  467SOL     OW 2299   0.779   2.779   2.492  0.4652 -0.5415 -0.0553
  467SOL    HW1 2300   0.759   2.876   2.505  0.7369 -0.6863  1.6368
  467SOL    HW2 2301   0.779   2.758   2.394  3.1935  1.7530 -0.6711
  468SOL     OW 2302   2.323   2.324   2.737 -0.1455  0.0495 -0.1311
  468SOL    HW1 2303   2.290   2.236   2.703 -0.2959 -0.3351  0.9692
  468SOL    HW2 2304   2.250   2.370   2.787  0.1601  0.4638 -0.0554
  469SOL     OW 2305   3.214   5.642   6.741 -0.5002  0.0288 -0.0835
  469SOL    HW1 2306   3.130   5.593   6.717 -0.9632  0.8724 -0.2053
  469SOL    HW2 2307   3.210   5.735   6.707  0.6291 -0.0029 -0.3614
  470SOL     OW 2308   0.246   2.221   6.230 -0.5778  0.9925 -0.3161
  470SOL    HW1 2309   0.176   2.155   6.257  0.4733 -0.1846 -0.4048
  470SOL    HW2 2310   0.268   2.280   6.307  0.1435 -0.2998  0.5037
  471SOL     OW 2311   5.056   2.821   1.631  0.2843 -0.3643 -0.1363
  471SOL    HW1 2312   5.096   2.807   1.540  0.6822 -1.0397  0.1347
  471SOL    HW2 2313   5.127   2.811   1.701  0.3718  1.9175  0.1825
  472SOL     OW 2314   4.115   4.893   1.400  0.1750  0.1186 -0.2828
  472SOL    HW1 2315   4.089   4.949   1.322 -1.8243  0.5988  0.6450
  472SOL    HW2 2316   4.214   4.894   1.411  0.6707 -1.0157 -3.5230
  473SOL     OW 2317   2.199   2.168   6.357 -0.3797  0.2540  0.2595
  473SOL    HW1 2318   2.130   2.096   6.354  1.2257 -1.5439  2.7046
  473SOL    HW2 2319   2.273   2.145   6.293  0.3192 -0.5370  1.3230
  474SOL     OW 2320   6.118   5.803   6.297 -0.2114  0.2976 -0.5835
  474SOL    HW1 2321   6.170   5.733   6.347 -0.5661  0.1692 -0.3888
  474SOL    HW2 2322   6.171   5.833   6.218 -1.1639 -2.1789 -2.2838
  475SOL     OW 2323   0.490   4.908   4.684 -1.0105  0.6739 -0.0680
  475SOL    HW1 2324   0.504   4.857   4.600  0.3976  1.4478 -0.3265
  475SOL    HW2 2325   0.477   5.005   4.663 -0.7572  0.8554  0.5825
  476SOL     OW 2326   2.969   3.249   5.507 -0.2391 -0.7070 -0.2962
  476SOL    HW1 2327   3.042   3.186   5.533 -2.7266 -3.3380  0.8668
  476SOL    HW2 2328   2.949   3.239   5.410 -0.9441 -2.2070 -0.0279
  477SOL     OW 2329   5.758   5.829   0.176 -0.2512  0.1292  0.1749
  477SOL    HW1 2330   5.701   5.863   0.101 -0.6093 -0.9521 -0.0600
  477SOL    HW2 2331   5.801   5.743   0.149 -0.7260 -0.4977  1.3663
  478SOL     OW 2332   1.767   4.930   1.024  0.6479 -0.3573  0.1639
  478SOL    HW1 2333   1.751   4.859   0.955 -1.2642 -0.2641  0.4603
  478SOL    HW2 2334   1.679   4.965   1.056  1.5152  0.2601  1.9857
  479SOL     OW 2335   3.562   1.503   1.585  0.2692 -0.0147 -0.2831
  479SOL    HW1 2336   3.466   1.483   1.607  0.1884  0.1319 -0.5027
  479SOL    HW2 2337   3.587   1.591   1.626  0.6396 -0.5706  0.7287
  480SOL     OW 2338   3.387   4.952   1.194 -0.8360  0.0943  0.1500
  480SOL    HW1 2339   3.384   4.968   1.292  0.6901  1.8823 -0.0232
  480SOL    HW2 2340   3.382   4.854   1.175 -3.3433 -0.1787  1.8460
  481SOL     OW 2341   2.225   2.655   3.374  0.4587  0.7326 -0.3863
  481SOL    HW1 2342   2.139   2.636   3.421  0.9045 -0.7339 -0.0855
  481SOL    HW2 2343   2.302   2.626   3.432  1.0459 -0.4000 -1.6642
  482SOL     OW 2344   3.355   4.309   0.972  0.0160 -0.7676  0.0090
  482SOL    HW1 2345   3.360   4.353   1.061 -1.5410  2.0243 -1.1848
  482SOL    HW2 2346   3.309   4.220   0.981 -1.1126 -0.0409  1.8208
  483SOL     OW 2347   0.523   2.624   1.030  0.3361  0.1465 -0.5733
  483SOL    HW1 2348   0.518   2.550   0.964  0.2657 -0.8899  0.5560
  483SOL    HW2 2349   0.615   2.628   1.069  0.1283  0.1496 -0.0750
  484SOL     OW 2350   0.006   5.133   3.440  0.1148  0.5851  0.4694
  484SOL    HW1 2351   0.040   5.195   3.510  0.6573 -0.3623  1.0710
  484SOL    HW2 2352   0.076   5.119   3.370 -0.4543  1.5898 -0.3196
  485SOL     OW 2353   1.580   0.589   1.758  0.0504 -0.4403 -0.4768
  485SOL    HW1 2354   1.609   0.572   1.663 -1.0553  0.8647 -1.0822
  485SOL    HW2 2355   1.642   0.654   1.800  0.0919 -0.4169 -0.5727
  486SOL     OW 2356   6.032   6.061   6.972 -0.6312 -0.4081  0.0494
  486SOL    HW1 2357   6.070   6.089   7.060 -0.1198  0.1455 -0.3386
  486SOL    HW2 2358   5.953   6.117   6.950 -0.6910 -0.4715  0.1016
  487SOL     OW 2359   6.107   4.347   4.958  0.2566  0.8208  0.0616
  487SOL    HW1 2360   6.145   4.418   5.017  1.7271  0.1679 -0.0609
  487SOL    HW2 2361   6.171   4.328   4.883 -0.7904  0.4026 -0.7493
  488SOL     OW 2362   6.357   3.591   1.927  0.3402  0.6141 -0.6059
  488SOL    HW1 2363   6.357   3.659   2.001 -1.0033  0.8748 -0.8312
  488SOL    HW2 2364   6.448   3.549   1.922  1.1288  2.1959 -0.2940
  489SOL     OW 2365   6.795   3.866   0.115 -0.2739  0.1887 -0.0852
  489SOL    HW1 2366   6.740   3.807   0.055 -1.2193  0.1257  0.8161
  489SOL    HW2 2367   6.858   3.810   0.169  0.3171  0.2121 -0.7386
  490SOL     OW 2368   5.615   1.910   6.645  0.1500  0.0538  0.3018
  490SOL    HW1 2369   5.640   1.973   6.572 -3.2658  0.7828 -0.4299
  490SOL    HW2 2370   5.617   1.958   6.733 -1.8627  1.1284 -0.1821
  491SOL     OW 2371   5.547   2.920   6.008  0.4604  0.1381 -0.0639
  491SOL    HW1 2372   5.543   3.008   5.961  0.0093  1.0443  1.5810
  491SOL    HW2 2373   5.459   2.901   6.052  0.8997 -0.5857  0.5296
  492SOL     OW 2374   5.473   6.524   0.946  0.0243  0.2984  0.1799
  492SOL    HW1 2375   5.460   6.569   1.035 -0.3566  0.1009  0.2259
  492SOL    HW2 2376   5.469   6.593   0.874 -0.5388  0.3469  0.2531
  493SOL     OW 2377   3.367   3.999   2.656 -0.8549 -0.2667  0.6934
  493SOL    HW1 2378   3.304   4.029   2.584  0.8388 -1.6867 -1.5038
  493SOL    HW2 2379   3.434   4.071   2.674 -1.6553  0.3345  1.3478
  494SOL     OW 2380   0.284   1.287   5.846 -0.3310  0.0540  0.7296
  494SOL    HW1 2381   0.344   1.259   5.920  0.4004  0.7092  0.3998
  494SOL    HW2 2382   0.294   1.225   5.768  0.3118  0.4651  0.4819
  495SOL     OW 2383   6.078   1.438   6.230 -0.3383 -0.2837  0.5139
  495SOL    HW1 2384   6.101   1.346   6.261 -2.4023 -0.7187  0.9368
  495SOL    HW2 2385   6.114   1.452   6.137 -0.1833 -1.6004  0.3496
  496SOL     OW 2386   4.850   6.748   5.770 -0.0827  0.2152  0.6491
  496SOL    HW1 2387   4.858   6.713   5.863 -1.9781  1.3011  1.2762
  496SOL    HW2 2388   4.756   6.778   5.754 -0.5921 -2.4980 -2.5340
  497SOL     OW 2389   6.532   5.498   4.470  0.0204 -0.3292 -0.3744
  497SOL    HW1 2390   6.526   5.561   4.393 -1.9400 -0.2781 -0.2414
  497SOL    HW2 2391   6.554   5.406   4.436 -0.9656 -0.3349 -1.0511
  498SOL     OW 2392   4.672   0.331   0.844 -0.4768  0.2577 -0.1286
  498SOL    HW1 2393   4.757   0.383   0.835  0.2788 -0.6714  1.3839
  498SOL    HW2 2394   4.687   0.237   0.812 -1.2798  0.3809 -0.9282
  499SOL     OW 2395   1.579   0.764   5.991 -0.1598 -0.2231 -0.0169
  499SOL    HW1 2396   1.591   0.811   5.903  0.4815  1.1925  0.7886
  499SOL    HW2 2397   1.661   0.710   6.011  0.4002  0.7804  0.4600
  500SOL     OW 2398   6.969   2.045   2.532 -0.3400  0.5579 -0.4268
  500SOL    HW1 2399   7.056   2.048   2.581  0.1441  0.2794 -1.2539
  500SOL    HW2 2400   6.904   1.989   2.583  0.9649 -1.9271 -1.3461
  501SOL     OW 2401   2.165   5.605   2.435 -0.4732 -0.3294 -0.2736
  501SOL    HW1 2402   2.129   5.698   2.424 -1.5239 -0.6254  0.5034
  501SOL    HW2 2403   2.195   5.592   2.530 -3.2501 -1.7354  0.4952
  502SOL     OW 2404   2.876   1.785   0.075  0.2320 -1.0311 -0.2389
  502SOL    HW1 2405   2.959   1.748   0.034 -0.2148 -2.4466  0.1042
  502SOL    HW2 2406   2.830   1.845   0.009  0.3067 -2.0788 -1.2708
  503SOL     OW 2407   5.860   3.161   6.953 -0.0408  0.2362  0.7068
  503SOL    HW1 2408   5.786   3.179   6.887 -1.0273  1.1450  2.0084
  503SOL    HW2 2409   5.824   3.108   7.029  0.9954 -0.4609  0.7249
  504SOL     OW 2410   1.936   3.106   2.778  0.2406 -0.3927  1.0436
  504SOL    HW1 2411   1.993   3.169   2.726  0.4077 -1.5410 -0.2123
  504SOL    HW2 2412   1.848   3.150   2.800  0.9462  0.8048  1.5736
  505SOL     OW 2413   1.535   2.092   5.066 -0.1408  0.9225 -0.3057
  505SOL    HW1 2414   1.580   2.181   5.059  1.0247  0.2773 -1.3301
  505SOL    HW2 2415   1.598   2.025   5.106 -1.1743  0.6378  0.9300
  506SOL     OW 2416   0.164   1.046   4.486  0.0593  0.6495 -0.5874
  506SOL    HW1 2417   0.171   0.989   4.567 -0.3369 -1.2031 -1.7938
  506SOL    HW2 2418   0.068   1.058   4.461  0.2161  0.1463 -1.4745
  507SOL     OW 2419   0.288   3.630   3.985  0.3869 -0.2362  0.8045
  507SOL    HW1 2420   0.380   3.624   4.023  0.1539 -0.5364  1.3356
  507SOL    HW2 2421   0.278   3.716   3.935  1.0921 -0.4109  0.3595
  508SOL     OW 2422   3.100   1.803   1.969 -0.1034  0.3786 -0.3035
  508SOL    HW1 2423   3.132   1.894   1.997 -1.7334  0.8753  0.0015
  508SOL    HW2 2424   3.002   1.806   1.949  0.1685 -0.9114 -2.0792
  509SOL     OW 2425   1.992   5.132   6.272 -0.3352  0.3478  0.4036
  509SOL    HW1 2426   1.938   5.135   6.189 -1.4325 -1.8246  0.9710
  509SOL    HW2 2427   1.938   5.167   6.349  0.3634  1.5190  0.3862
  510SOL     OW 2428   3.141   3.015   5.154  0.0532  0.2371 -0.3714
  510SOL    HW1 2429   3.048   3.037   5.183  1.2203  1.6809  2.6992
  510SOL    HW2 2430   3.195   2.985   5.232  1.8702 -2.0251 -2.3268
  511SOL     OW 2431   3.492   1.315   1.927  0.1135  0.4531 -0.2555
  511SOL    HW1 2432   3.445   1.238   1.970 -1.8229  0.8221 -1.5778
  511SOL    HW2 2433   3.575   1.283   1.883 -0.4199 -0.7979 -0.3999
  512SOL     OW 2434   1.043   1.854   2.712  0.3547  0.7564  0.2720
  512SOL    HW1 2435   1.113   1.873   2.780  0.5105 -0.3586  0.4343
  512SOL    HW2 2436   1.073   1.780   2.652  0.8765  2.6849 -1.9946
  513SOL     OW 2437   5.595   2.687   1.498  0.0931  0.1502  0.2165
  513SOL    HW1 2438   5.594   2.754   1.572  1.8708  1.0573 -0.5104
  513SOL    HW2 2439   5.583   2.735   1.411  1.2511 -0.4645 -0.3022
  514SOL     OW 2440   4.229   0.802   4.731 -0.8237 -0.0585 -0.3712
  514SOL    HW1 2441   4.207   0.885   4.680  4.2956  1.8078 -0.0830
  514SOL    HW2 2442   4.257   0.730   4.667  3.5207  1.5977 -0.6355
  515SOL     OW 2443   2.535   0.654   2.445  0.2424  0.6207  0.7573
  515SOL    HW1 2444   2.601   0.647   2.370  0.8921  4.1247  0.8190
  515SOL    HW2 2445   2.467   0.723   2.422 -1.3838 -0.4571  2.1645
  516SOL     OW 2446   3.913   6.017   6.553 -0.6877 -0.1483  0.3379
  516SOL    HW1 2447   3.947   6.097   6.604 -1.4575  1.0605 -0.9985
  516SOL    HW2 2448   3.823   6.037   6.515 -0.7113 -1.5248 -0.3802
  517SOL     OW 2449   5.813   3.063   2.435  0.4241 -0.3279  0.4307
  517SOL    HW1 2450   5.794   3.033   2.341  1.1083 -0.2684  0.2728
  517SOL    HW2 2451   5.752   3.014   2.498  0.2178 -0.6414 -0.0079
  518SOL     OW 2452   1.268   6.324   5.480  0.1078 -0.2856  0.1468
  518SOL    HW1 2453   1.309   6.267   5.409 -0.3254 -0.1926 -0.1830
  518SOL    HW2 2454   1.332   6.397   5.505 -0.1664  0.3473 -0.9446
  519SOL     OW 2455   5.889   0.533   5.515 -0.5058 -0.1926  0.7590
  519SOL    HW1 2456   5.883   0.434   5.529 -4.5714 -0.2952 -0.4505
  519SOL    HW2 2457   5.914   0.553   5.421  1.8150  0.0721  1.3618
  520SOL     OW 2458   3.243   5.402   6.177  0.4638  0.1224 -0.4321
  520SOL    HW1 2459   3.323   5.347   6.200 -0.2323 -0.3081  1.1416
  520SOL    HW2 2460   3.260   5.498   6.201  0.7339  0.1469 -0.7152
  521SOL     OW 2461   2.050   0.482   3.053 -0.5903  0.4310  0.0881
  521SOL    HW1 2462   2.056   0.524   3.143  0.0811  0.6610 -0.0559
  521SOL    HW2 2463   2.142   0.459   3.020 -0.9701 -1.8173  0.4552
  522SOL     OW 2464   2.414   5.289   4.721 -0.0670 -0.0655  0.7380
  522SOL    HW1 2465   2.315   5.278   4.709 -0.0182  0.5958 -0.3785
  522SOL    HW2 2466   2.449   5.215   4.778 -0.4931 -3.1070 -2.5608
  523SOL     OW 2467   1.894   6.389   0.906  0.3263  0.3889 -0.1212
  523SOL    HW1 2468   1.993   6.398   0.897  0.5353 -0.0624  1.4044
  523SOL    HW2 2469   1.852   6.386   0.816  1.8163 -0.4555 -0.8177
  524SOL     OW 2470   0.607   3.391   1.347 -0.1216 -0.4737  0.0567
  524SOL    HW1 2471   0.639   3.391   1.442 -0.0891  1.1023  0.0800
  524SOL    HW2 2472   0.532   3.326   1.338 -0.3520 -0.4126  1.2506
  525SOL     OW 2473   3.866   1.828   0.334  0.5231 -0.0645  0.2770
  525SOL    HW1 2474   3.869   1.916   0.287  0.9515 -0.4268 -0.3889
  525SOL    HW2 2475   3.789   1.827   0.398 -0.7955  0.0460 -1.2384
  526SOL     OW 2476   1.428   4.515   4.385  0.4148  0.3996  0.2226
  526SOL    HW1 2477   1.477   4.537   4.301  4.0510 -0.5860  1.8787
  526SOL    HW2 2478   1.420   4.416   4.394 -1.5922  0.5228  0.2507
  527SOL     OW 2479   1.818   6.059   5.514 -0.0115  0.3902 -0.0669
  527SOL    HW1 2480   1.883   6.111   5.570 -2.2665  1.7090  1.5113
  527SOL    HW2 2481   1.780   6.118   5.443 -0.5158  0.0587 -0.0790
  528SOL     OW 2482   0.508   6.427   3.729  0.3735  0.6140  0.4680
  528SOL    HW1 2483   0.430   6.365   3.729  0.3765  0.6086  0.6490
  528SOL    HW2 2484   0.491   6.503   3.666  0.1810  0.6622  0.5752
  529SOL     OW 2485   5.113   6.889   3.279  0.1282  0.0466  0.3697
  529SOL    HW1 2486   5.068   6.801   3.298 -0.2095  0.0976 -0.1761
  529SOL    HW2 2487   5.209   6.872   3.254  0.3437 -0.0838  1.2469
  530SOL     OW 2488   6.760   6.991   0.576 -0.1797  0.2820  1.0395
  530SOL    HW1 2489   6.853   7.002   0.609 -0.6655  1.5409  2.1144
  530SOL    HW2 2490   6.728   7.078   0.539 -0.8781 -0.1776  0.5367
  531SOL     OW 2491   6.024   1.680   0.584  0.1350  0.7983  0.0268
  531SOL    HW1 2492   6.015   1.583   0.560  2.7904  0.1622  1.2245
  531SOL    HW2 2493   5.946   1.730   0.548 -0.7251 -1.5676 -1.6974
  532SOL     OW 2494   3.123   6.688   2.413 -0.2023  0.0057 -0.5153
  532SOL    HW1 2495   3.141   6.786   2.406 -1.4530  0.2732 -0.2068
  532SOL    HW2 2496   3.108   6.650   2.322 -0.5222  0.2613 -0.5698
  533SOL     OW 2497   1.498   1.853   3.700 -0.4498  0.7092  0.0910
  533SOL    HW1 2498   1.468   1.830   3.607 -0.4849  0.9189  0.0488
  533SOL    HW2 2499   1.548   1.940   3.698  0.2591  0.3143  0.1432
  534SOL     OW 2500   1.940   5.239   4.538 -0.2173 -0.2394  0.5702
  534SOL    HW1 2501   2.037   5.228   4.518 -0.4453  0.7999 -1.3706
  534SOL    HW2 2502   1.886   5.211   4.458 -1.3900  1.1416  0.8313
  535SOL     OW 2503   5.794   1.798   3.709 -0.2152  0.5806  0.1665
  535SOL    HW1 2504   5.835   1.724   3.656 -2.2120 -0.2330 -0.3349
  535SOL    HW2 2505   5.862   1.870   3.724  2.3003 -1.9508  2.0023
  536SOL     OW 2506   1.828   4.538   6.107 -0.3229  0.2301  0.7208
  536SOL    HW1 2507   1.768   4.571   6.180  0.9677  2.4323  0.8732
  536SOL    HW2 2508   1.781   4.466   6.055 -2.7588  1.2817  1.3148
  537SOL     OW 2509   3.598   3.300   1.905  0.6130  0.1915 -0.1051
  537SOL    HW1 2510   3.596   3.200   1.901 -2.4167  0.1583 -0.1101
  537SOL    HW2 2511   3.657   3.329   1.980 -0.9455 -1.7822  2.0482
  538SOL     OW 2512   2.195   0.375   2.276 -0.6537 -0.1713 -0.4458
  538SOL    HW1 2513   2.224   0.465   2.310 -1.7303  0.0506 -0.0661
  538SOL    HW2 2514   2.111   0.386   2.222  0.2098 -0.7227 -1.9465
  539SOL     OW 2515   5.078   4.683   6.156  0.2862  0.1409 -0.1107
  539SOL    HW1 2516   5.017   4.761   6.170  0.4672  0.1857  0.4715
  539SOL    HW2 2517   5.025   4.598   6.159  0.4064  0.0841  1.7787
  540SOL     OW 2518   1.734   5.455   6.478 -0.8662 -0.4574  0.4585
  540SOL    HW1 2519   1.664   5.464   6.407 -1.6860 -2.1132  1.0119
  540SOL    HW2 2520   1.704   5.500   6.562 -2.5797 -3.4132  1.5597
  541SOL     OW 2521   6.884   0.577   6.767  0.1996  0.4710 -0.0793
  541SOL    HW1 2522   6.852   0.483   6.781 -0.3859  0.4589 -1.4156
  541SOL    HW2 2523   6.954   0.598   6.836 -0.6683 -0.4495  1.1468
  542SOL     OW 2524   4.229   6.911   4.437 -0.1426  0.2373 -0.4018
  542SOL    HW1 2525   4.249   6.815   4.417 -1.7169 -0.2838  0.3754
  542SOL    HW2 2526   4.148   6.939   4.386  0.2536  1.1510 -0.5497
  543SOL     OW 2527   6.289   5.085   4.385  0.2923  0.1030 -0.3100
  543SOL    HW1 2528   6.222   5.153   4.355 -0.6028  0.3719  2.1012
  543SOL    HW2 2529   6.246   4.996   4.393  1.0321 -0.4150 -1.7243
  544SOL     OW 2530   3.442   4.874   0.377  0.5755  0.3218 -0.6978
  544SOL    HW1 2531   3.489   4.876   0.289  1.3192 -0.7061 -0.3425
  544SOL    HW2 2532   3.405   4.783   0.393  0.2019  0.5770 -0.0712
  545SOL     OW 2533   3.352   6.063   5.076 -0.0578 -0.1531  0.3133
  545SOL    HW1 2534   3.409   6.000   5.022 -0.3815 -0.5883  0.4711
  545SOL    HW2 2535   3.333   6.022   5.165 -0.6159 -0.0166  0.2622
  546SOL     OW 2536   3.596   2.111   3.867 -0.5079 -0.3617  0.3802
  546SOL    HW1 2537   3.660   2.121   3.943 -0.6706  1.4350  0.3250
  546SOL    HW2 2538   3.514   2.063   3.898 -0.2234 -0.3801  1.1205
  547SOL     OW 2539   4.196   6.934   0.950  0.1672 -0.3347 -0.1604
  547SOL    HW1 2540   4.187   6.862   1.019 -0.7525 -1.2558 -1.1890
  547SOL    HW2 2541   4.263   6.907   0.882  0.8433  0.4274  0.1949
  548SOL     OW 2542   5.891   0.040   4.733 -0.0261  0.2597 -0.2450
  548SOL    HW1 2543   5.887   0.114   4.800  0.1331 -0.1888  0.2657
  548SOL    HW2 2544   5.958   0.062   4.662 -0.4610  0.9028 -0.4668
  549SOL     OW 2545   6.228   1.535   5.609 -0.0273 -0.3494  0.0648
  549SOL    HW1 2546   6.320   1.541   5.649 -0.5931  0.5886  1.3142
  549SOL    HW2 2547   6.233   1.491   5.520  1.8951  1.2342 -0.6919
  550SOL     OW 2548   0.014   2.498   3.330  0.4310 -0.8384 -0.4112
  550SOL    HW1 2549  -0.071   2.507   3.278  1.2351 -0.2918 -1.6903
  550SOL    HW2 2550   0.089   2.475   3.268  1.9062  2.2433  0.0279
  551SOL     OW 2551   3.759   4.952   6.066 -0.1679 -0.3797 -0.0585
  551SOL    HW1 2552   3.779   4.963   5.969 -0.6160 -0.6363 -0.1842
  551SOL    HW2 2553   3.730   4.857   6.084  2.9545 -1.2579  0.8765
  552SOL     OW 2554   0.251   4.038   2.202 -0.0518  0.2853  0.3870
  552SOL    HW1 2555   0.339   4.082   2.218  0.7630 -0.8571 -0.7076
  552SOL    HW2 2556   0.234   3.969   2.273  0.3713 -0.0957  0.1293
  553SOL     OW 2557   5.133   3.995   2.595 -0.3275 -0.1290 -0.2035
  553SOL    HW1 2558   5.056   4.028   2.540 -0.2439  1.1533  0.3912
  553SOL    HW2 2559   5.142   3.896   2.585 -0.9736 -0.0662 -1.6362
  554SOL     OW 2560   3.672   3.476   3.233  0.3402 -0.4460 -0.1050
  554SOL    HW1 2561   3.595   3.519   3.185 -1.1377  1.5365  3.6665
  554SOL    HW2 2562   3.637   3.401   3.290  1.4181 -0.3463  0.6947
  555SOL     OW 2563   6.416   0.798   3.112 -0.2465  0.0592  0.2923
  555SOL    HW1 2564   6.318   0.815   3.110 -0.2143  0.5454  1.6164
  555SOL    HW2 2565   6.465   0.880   3.081 -0.2284  0.6218  1.7159
  556SOL     OW 2566   3.207   5.948   2.326  0.3221 -0.2828 -0.1679
  556SOL    HW1 2567   3.204   5.921   2.422  0.3704  0.7948  0.1481
  556SOL    HW2 2568   3.115   5.969   2.294  0.5366  1.6790  0.3541
  557SOL     OW 2569   3.684   3.352   5.510 -0.1346  0.0504 -0.1131
  557SOL    HW1 2570   3.741   3.314   5.437 -1.4935 -1.8707 -0.2586
  557SOL    HW2 2571   3.726   3.435   5.546  1.9450 -0.4565 -1.2359
  558SOL     OW 2572   1.649   3.910   1.468  1.0537 -0.3049  0.1048
  558SOL    HW1 2573   1.673   4.003   1.442  1.1000 -0.3660 -0.0699
  558SOL    HW2 2574   1.596   3.867   1.394  0.1433 -0.0674  0.5956
  559SOL     OW 2575   4.546   2.839   5.229  0.8541  0.0031 -0.1803
  559SOL    HW1 2576   4.467   2.779   5.242  1.4632 -0.7979 -0.1213
  559SOL    HW2 2577   4.525   2.929   5.267  0.1836 -0.3777  0.3888
  560SOL     OW 2578   4.479   5.705   2.869 -0.7226  0.0410 -0.1850
  560SOL    HW1 2579   4.485   5.750   2.780 -0.8726 -0.5725 -0.5195
  560SOL    HW2 2580   4.440   5.613   2.856  2.0682 -1.2717  0.0871
  561SOL     OW 2581   4.133   3.495   4.663 -0.0517 -0.4324  0.3347
  561SOL    HW1 2582   4.220   3.485   4.615 -0.7965 -0.7447 -1.0155
  561SOL    HW2 2583   4.087   3.406   4.668 -1.4280  0.1308 -1.2662
  562SOL     OW 2584   4.971   6.669   3.358  0.1009  0.2417  0.2016
  562SOL    HW1 2585   4.977   6.679   3.457  0.5963  1.7535  0.0304
  562SOL    HW2 2586   4.925   6.582   3.336 -0.4677  0.1313  1.7440
  563SOL     OW 2587   0.575   1.274   5.308 -0.5658  0.3096  0.7517
  563SOL    HW1 2588   0.512   1.342   5.345  0.7690  1.3201  1.2630
  563SOL    HW2 2589   0.668   1.298   5.334  0.0156 -1.3107  0.2767
  564SOL     OW 2590   0.530   5.239   6.824 -0.0441  1.1239  0.6467
  564SOL    HW1 2591   0.543   5.326   6.872 -1.3919  0.6355  1.9580
  564SOL    HW2 2592   0.473   5.178   6.879 -0.9348  0.1995 -1.1996
  565SOL     OW 2593   4.112   1.642   0.658  0.2911  0.3879 -0.0321
  565SOL    HW1 2594   4.021   1.682   0.656  0.1845  0.1689  0.3504
  565SOL    HW2 2595   4.106   1.542   0.650  0.3846  0.2334  1.5660
  566SOL     OW 2596   0.884   0.795   2.743 -0.6567 -0.4776 -0.3449
  566SOL    HW1 2597   0.974   0.784   2.786 -0.6629 -3.6867 -0.8848
  566SOL    HW2 2598   0.825   0.850   2.802  0.9387 -0.2407  1.1113
  567SOL     OW 2599   1.878   6.862   2.639  0.2766 -0.0305  0.4866
  567SOL    HW1 2600   1.868   6.891   2.544 -3.0256 -1.9496  0.0745
  567SOL    HW2 2601   1.848   6.766   2.647  0.1342  0.1924  3.5168
  568SOL     OW 2602   6.330   4.812   2.927 -0.2963  0.3681 -0.4313
  568SOL    HW1 2603   6.367   4.736   2.980 -1.0854  0.3111  0.0587
  568SOL    HW2 2604   6.405   4.865   2.888  0.4511  1.6320  2.4249
  569SOL     OW 2605   2.612   1.920   4.993  0.3265  0.3417  0.1097
  569SOL    HW1 2606   2.687   1.864   4.960 -1.3650 -0.7020 -2.2360
  569SOL    HW2 2607   2.526   1.871   4.982 -0.8441  1.8626  1.8208
  570SOL     OW 2608   1.534   0.229   1.008 -1.2244  0.0168  1.0010
  570SOL    HW1 2609   1.438   0.214   1.034 -0.8227 -1.7440  1.5535
  570SOL    HW2 2610   1.592   0.218   1.089 -0.5788  1.7172  0.8115
  571SOL     OW 2611   6.225   2.682   3.423  0.1551 -0.0519  0.8215
  571SOL    HW1 2612   6.150   2.616   3.414  0.7320 -0.5943 -0.2602
  571SOL    HW2 2613   6.261   2.704   3.332  1.1133  0.4308  1.3024
  572SOL     OW 2614   1.643   4.577   5.363 -0.3572 -0.3759  0.3297
  572SOL    HW1 2615   1.732   4.548   5.397 -0.6641  0.7805  2.2126
  572SOL    HW2 2616   1.575   4.505   5.381 -0.0547 -0.7626 -0.0467
  573SOL     OW 2617   0.266   0.784   0.415  0.4513 -0.0689  0.2516
  573SOL    HW1 2618   0.227   0.824   0.333  1.2084  0.9653  0.3706
  573SOL    HW2 2619   0.259   0.685   0.411 -3.0167  0.0543  0.7109
  574SOL     OW 2620   3.446   3.400   5.031 -0.7447  0.3754 -0.3042
  574SOL    HW1 2621   3.475   3.466   5.099 -0.7691 -0.0914  0.1678
  574SOL    HW2 2622   3.451   3.441   4.940  0.3007  0.6721 -0.1274
  575SOL     OW 2623   0.259   3.491   3.548  0.2677  0.0973 -0.0849
  575SOL    HW1 2624   0.244   3.404   3.596 -0.5536  0.8202  1.0167
  575SOL    HW2 2625   0.349   3.527   3.572 -0.2302  0.5740  1.1725
  576SOL     OW 2626   4.887   3.804   0.559 -0.8236  0.3024  0.2385
  576SOL    HW1 2627   4.844   3.817   0.648 -1.5535  0.3120 -0.1071
  576SOL    HW2 2628   4.934   3.716   0.557  0.1326  0.7817  0.9955
  577SOL     OW 2629   6.502   6.640   4.232 -0.1515  0.0692 -1.0872
  577SOL    HW1 2630   6.500   6.583   4.150  1.5694 -1.6549 -0.0065
  577SOL    HW2 2631   6.467   6.588   4.310  2.7168 -0.1254  0.1959
  578SOL     OW 2632   2.558   6.745   1.497  0.0726 -0.0470 -0.3217
  578SOL    HW1 2633   2.549   6.844   1.494  0.5145 -0.0333 -1.7784
  578SOL    HW2 2634   2.654   6.720   1.504  0.0363 -0.3728 -0.8847
  579SOL     OW 2635   5.492   3.006   2.366  0.3472  0.4301 -0.0911
  579SOL    HW1 2636   5.438   3.010   2.282 -1.3536 -0.7063  0.9163
  579SOL    HW2 2637   5.440   2.961   2.438  1.5622  1.8296  1.7665
  580SOL     OW 2638   5.217   1.322   6.935 -0.4114 -0.0653 -0.0878
  580SOL    HW1 2639   5.298   1.336   6.991 -0.9903  1.0238  0.5081
  580SOL    HW2 2640   5.189   1.409   6.894 -1.1616 -0.4677 -0.4637
  581SOL     OW 2641   5.076   6.745   6.915  0.5253 -0.0440 -0.0635
  581SOL    HW1 2642   5.124   6.720   6.831  2.0429 -3.1584  1.5548
  581SOL    HW2 2643   5.100   6.839   6.940  2.4557 -0.0727 -1.5379
  582SOL     OW 2644   5.436   3.979   3.001  0.1719 -0.0487  0.3335
  582SOL    HW1 2645   5.510   4.041   2.974  1.1618 -0.6079  1.6121
  582SOL    HW2 2646   5.392   3.942   2.920  0.1252  1.6514 -0.4641
  583SOL     OW 2647   3.379   1.483   6.353  0.1100 -0.2914 -0.1959
  583SOL    HW1 2648   3.443   1.434   6.295  0.1583 -0.4394 -0.0193
  583SOL    HW2 2649   3.387   1.582   6.338 -1.5656 -0.3993 -2.2273
  584SOL     OW 2650   1.409   3.183   0.141 -0.0254 -0.1069  0.2667
  584SOL    HW1 2651   1.460   3.189   0.226 -0.1328 -0.4075  0.3518
  584SOL    HW2 2652   1.465   3.217   0.065 -0.5534  1.9220  0.7085
  585SOL     OW 2653   1.050   1.506   3.565  0.1212  0.3751 -0.6484
  585SOL    HW1 2654   1.103   1.591   3.565 -1.3492  1.3335 -0.9584
  585SOL    HW2 2655   1.078   1.449   3.488  0.1016  1.2694 -1.3422
  586SOL     OW 2656   1.881   0.082   6.398  0.4003  0.0276 -0.3096
  586SOL    HW1 2657   1.811   0.149   6.422 -0.1976  0.6364 -3.3783
  586SOL    HW2 2658   1.842   0.015   6.335  2.5350  0.4206 -2.1548
  587SOL     OW 2659   2.701   6.732   6.307  0.5810  0.0513  0.3648
  587SOL    HW1 2660   2.640   6.655   6.327 -0.7460  0.2667 -2.4492
  587SOL    HW2 2661   2.721   6.781   6.392 -3.3104  0.0476  1.4575
  588SOL     OW 2662   0.077   0.469   3.014 -0.5521  0.5618 -0.1043
  588SOL    HW1 2663   0.141   0.398   2.985  0.7895  2.3647 -1.7996
  588SOL    HW2 2664   0.091   0.488   3.111  0.6121  0.0271 -0.1416
  589SOL     OW 2665   5.829   4.801   6.753  0.0708 -0.3474  0.5940
  589SOL    HW1 2666   5.741   4.847   6.743 -1.0369 -2.3516  0.6097
  589SOL    HW2 2667   5.869   4.824   6.842  0.4916  2.0088 -0.1380
  590SOL     OW 2668   3.674   3.036   1.943 -0.2945  0.5351 -0.2292
  590SOL    HW1 2669   3.594   3.015   2.000  0.5938 -0.1350  0.7993
  590SOL    HW2 2670   3.694   2.958   1.884 -0.2505  0.6084 -0.3112
  591SOL     OW 2671   5.919   1.485   4.377 -0.4095  0.7451  0.3358
  591SOL    HW1 2672   5.894   1.578   4.347 -1.0704  0.9546  1.4756
  591SOL    HW2 2673   5.913   1.423   4.299  2.1441  2.0143 -0.9840
  592SOL     OW 2674   6.868   2.250   2.956  0.0966 -0.6019  0.4602
  592SOL    HW1 2675   6.800   2.233   2.884 -0.6591 -0.2050  1.0700
  592SOL    HW2 2676   6.830   2.312   3.024  0.4321 -1.7322  1.7190
  593SOL     OW 2677   4.400   0.911   1.086 -0.3608 -0.1721  0.1992
  593SOL    HW1 2678   4.387   0.929   1.184 -1.3425 -0.5763  0.1558
  593SOL    HW2 2679   4.313   0.880   1.046  0.3181 -1.1763 -0.5484
  594SOL     OW 2680   1.359   2.999   3.293 -0.2763 -0.3715  0.2770
  594SOL    HW1 2681   1.308   2.996   3.207 -0.7247 -0.1333  0.5282
  594SOL    HW2 2682   1.308   3.053   3.360 -0.2530 -1.0951  0.9013
  595SOL     OW 2683   5.477   6.161   6.818 -0.3937 -0.4517 -0.4268
  595SOL    HW1 2684   5.497   6.255   6.792 -0.0114 -0.1131  0.9671
  595SOL    HW2 2685   5.440   6.160   6.911  0.3741 -1.7336 -0.1034
  596SOL     OW 2686   3.438   5.314   1.266 -0.4988  0.1472 -0.4429
  596SOL    HW1 2687   3.385   5.252   1.324 -0.1537  1.1178  0.9442
  596SOL    HW2 2688   3.376   5.359   1.201 -1.1580  0.1620  0.1729
  597SOL     OW 2689   3.244   0.963   4.160  0.3261  0.1988 -0.2654
  597SOL    HW1 2690   3.210   0.954   4.254 -0.5260  0.9792 -0.4734
  597SOL    HW2 2691   3.167   0.958   4.097  1.0028 -1.3267 -1.0116
  598SOL     OW 2692   2.287   2.395   0.664  0.2886 -0.0323  0.4971
  598SOL    HW1 2693   2.272   2.411   0.762  0.5808  0.6296  0.4351
  598SOL    HW2 2694   2.202   2.409   0.615  0.1227 -0.4371  0.6619
  599SOL     OW 2695   4.561   4.965   6.625 -0.2159  0.2169  0.2184
  599SOL    HW1 2696   4.488   4.936   6.686  0.4979  0.2584  1.1179
  599SOL    HW2 2697   4.569   4.902   6.549 -0.2561 -0.5927  0.8749
  600SOL     OW 2698   2.246   4.634   4.452  0.4048  0.3799 -0.2172
  600SOL    HW1 2699   2.161   4.582   4.445  0.2558  0.7322 -1.0270
  600SOL    HW2 2700   2.314   4.579   4.502  0.1540 -0.4783 -0.7886
  601SOL     OW 2701   6.277   1.466   4.789 -0.0097  0.0573 -0.5379
  601SOL    HW1 2702   6.292   1.369   4.773  0.0103  0.1949 -1.4032
  601SOL    HW2 2703   6.192   1.478   4.841  0.2735 -0.4468  0.0508
  602SOL     OW 2704   2.318   4.032   6.351 -0.0881  0.2049  0.4996
  602SOL    HW1 2705   2.370   4.025   6.266 -0.0048 -0.0894  0.5743
  602SOL    HW2 2706   2.255   3.956   6.358 -0.7860  0.7506  0.2426
  603SOL     OW 2707   2.647   0.128   1.292  0.3838  0.0534  0.2058
  603SOL    HW1 2708   2.723   0.067   1.270 -1.1227 -2.1099  0.6204
  603SOL    HW2 2709   2.572   0.112   1.227 -1.0671 -0.5978  1.9500
  604SOL     OW 2710   1.400   6.584   4.835  0.1552  0.4458  0.1846
  604SOL    HW1 2711   1.420   6.625   4.746 -1.8651 -0.3808 -0.7127
  604SOL    HW2 2712   1.464   6.509   4.852  1.0221  1.0720 -0.2124
  605SOL     OW 2713   2.258   6.673   2.520  0.5839 -0.4243  0.1266
  605SOL    HW1 2714   2.355   6.672   2.542  0.4641  2.2110  1.2134
  605SOL    HW2 2715   2.239   6.746   2.454 -0.5081 -1.8205 -1.1797
  606SOL     OW 2716   0.721   6.113   4.527  0.4864 -0.4794 -0.5502
  606SOL    HW1 2717   0.626   6.084   4.535  1.4807 -3.7882  0.8010
  606SOL    HW2 2718   0.766   6.060   4.456  2.0171 -1.1709  0.8735
  607SOL     OW 2719   4.142   3.428   4.951 -0.1093  0.2880 -0.1126
  607SOL    HW1 2720   4.220   3.366   4.960 -1.3971 -1.5483 -0.9217
  607SOL    HW2 2721   4.122   3.443   4.854  0.5896  2.6071  0.0408
  608SOL     OW 2722   1.032   0.519   3.690 -0.0182  0.0601  0.3501
  608SOL    HW1 2723   0.977   0.598   3.714  0.3425 -0.2134  2.2174
  608SOL    HW2 2724   1.059   0.524   3.593 -2.2999  0.7736 -0.2908
  609SOL     OW 2725   1.814   3.849   5.497 -0.3005  0.7651  0.0863
  609SOL    HW1 2726   1.754   3.770   5.501  0.3949  0.2563  1.0267
  609SOL    HW2 2727   1.759   3.933   5.493 -1.1000  0.3369  1.3203
  610SOL     OW 2728   4.436   1.717   6.517  0.2779  0.2314  0.7382
  610SOL    HW1 2729   4.343   1.722   6.482  0.5580 -3.4832 -0.9600
  610SOL    HW2 2730   4.501   1.741   6.445  0.7024 -1.9253  0.3421
  611SOL     OW 2731   5.812   5.419   4.085  0.1343 -0.0034 -0.3570
  611SOL    HW1 2732   5.775   5.375   4.167  2.0074 -1.1832 -0.0743
  611SOL    HW2 2733   5.872   5.495   4.112 -0.7627  0.8503 -0.7308
  612SOL     OW 2734   2.112   3.084   1.372 -0.3448 -0.2499  0.6245
  612SOL    HW1 2735   2.115   3.041   1.462 -1.1176  3.0954  2.4408
  612SOL    HW2 2736   2.020   3.122   1.356  0.4842  1.4758 -0.3774
  613SOL     OW 2737   3.572   2.847   4.604 -0.4871  0.2529  0.0376
  613SOL    HW1 2738   3.616   2.757   4.604  0.2514  0.6124 -0.0579
  613SOL    HW2 2739   3.553   2.875   4.510 -2.2383 -0.5172  0.1046
  614SOL     OW 2740   6.821   3.117   2.937 -0.3759 -0.2260 -0.2766
  614SOL    HW1 2741   6.915   3.084   2.941 -1.1195 -2.6714 -0.7209
  614SOL    HW2 2742   6.797   3.159   3.025  0.8538 -0.3750  0.1524
  615SOL     OW 2743   5.202   1.227   4.521 -0.1117  0.1991 -0.4355
  615SOL    HW1 2744   5.256   1.250   4.602 -1.6048 -1.0159  1.0102
  615SOL    HW2 2745   5.209   1.128   4.504 -2.0068 -0.0519 -0.0144
  616SOL     OW 2746   1.096   1.343   3.780 -0.1055  0.0665 -0.6724
  616SOL    HW1 2747   1.064   1.407   3.710  0.0842 -0.0760 -0.8890
  616SOL    HW2 2748   1.195   1.331   3.772  0.1265  1.0728  0.4614
  617SOL     OW 2749   7.011   4.584   6.189  0.4349 -0.0314  0.0036
  617SOL    HW1 2750   7.000   4.488   6.216 -0.5626 -0.2282 -1.0516
  617SOL    HW2 2751   7.083   4.626   6.245  0.2449 -1.1314  1.1240
  618SOL     OW 2752   0.002   4.059   5.066 -0.6315 -0.3794 -0.4586
  618SOL    HW1 2753   0.095   4.045   5.032 -0.2334 -1.0784  0.8623
  618SOL    HW2 2754  -0.050   3.974   5.061 -0.9034 -0.2272 -0.3118
  619SOL     OW 2755   0.116   3.841   5.457 -0.2611  0.0837  0.0610
  619SOL    HW1 2756   0.138   3.797   5.544  0.4213  0.3498  0.0347
  619SOL    HW2 2757   0.106   3.939   5.471  0.5562  0.2250 -0.2688
  620SOL     OW 2758   1.237   3.696   6.429  0.0771 -0.1553  0.0032
  620SOL    HW1 2759   1.287   3.644   6.498  1.3664  0.3836 -0.4820
  620SOL    HW2 2760   1.296   3.712   6.350 -0.6278  1.1027 -0.3090
  621SOL     OW 2761   1.091   2.698   2.985 -0.1899 -0.4584 -0.4093
  621SOL    HW1 2762   1.049   2.784   3.014 -1.7076 -1.1588 -0.4433
  621SOL    HW2 2763   1.027   2.646   2.929  0.9113 -1.3621 -0.8831
  622SOL     OW 2764   3.535   5.554   0.369  0.0047  0.1646  0.1934
  622SOL    HW1 2765   3.536   5.624   0.297  0.4672 -0.3710 -0.3267
  622SOL    HW2 2766   3.455   5.567   0.427 -1.1968 -0.3108 -1.3179
  623SOL     OW 2767   2.461   5.246   1.716 -0.1236  0.3876  0.0783
  623SOL    HW1 2768   2.384   5.215   1.659 -1.2218 -0.4689  1.9300
  623SOL    HW2 2769   2.435   5.329   1.765  0.0908  0.0423  0.7878
  624SOL     OW 2770   0.296   0.232   0.741  0.0968 -0.3754 -0.2708
  624SOL    HW1 2771   0.297   0.133   0.725  2.2675 -0.7794  1.7441
  624SOL    HW2 2772   0.260   0.251   0.833 -1.9999  0.9135 -1.2874
  625SOL     OW 2773   3.588   4.227   5.990  0.0163  0.1491 -0.5945
  625SOL    HW1 2774   3.653   4.151   5.999 -0.4001 -0.0274  1.3204
  625SOL    HW2 2775   3.526   4.208   5.913  1.4917 -0.1884 -1.7649
  626SOL     OW 2776   0.389   1.746   6.250 -0.2547  0.3026 -0.4897
  626SOL    HW1 2777   0.435   1.832   6.226 -2.9656  1.7299 -0.9789
  626SOL    HW2 2778   0.322   1.763   6.322 -1.1284 -1.3255 -0.8721
  627SOL     OW 2779   6.045   0.185   4.507  0.0705 -0.0746  0.3239
  627SOL    HW1 2780   6.039   0.113   4.437  0.6210  0.0518  0.1379
  627SOL    HW2 2781   5.962   0.240   4.506 -1.0366 -1.6094  1.4679
  628SOL     OW 2782   1.963   5.848   3.287 -0.2469  0.2524  0.1070
  628SOL    HW1 2783   2.031   5.852   3.360 -0.4011 -0.0985  0.2757
  628SOL    HW2 2784   1.980   5.768   3.230  0.8770  1.4172 -1.2568
  629SOL     OW 2785   3.959   6.564   4.114  0.3303  0.2805  0.3442
  629SOL    HW1 2786   3.965   6.630   4.038 -0.8313 -0.1999 -0.1858
  629SOL    HW2 2787   3.925   6.610   4.196 -0.4458  0.3574 -0.0140
  630SOL     OW 2788   6.420   0.028   6.855  0.0759  0.0217  0.3279
  630SOL    HW1 2789   6.499   0.087   6.838 -0.3354  0.9963  1.5908
  630SOL    HW2 2790   6.377   0.005   6.768 -1.5496  4.1499 -0.1925
  631SOL     OW 2791   1.929   1.643   3.857 -0.2079  0.4912 -0.3239
  631SOL    HW1 2792   1.837   1.675   3.836 -0.2607 -1.2031 -3.1738
  631SOL    HW2 2793   1.944   1.553   3.816  1.9908 -0.3387  2.0251
  632SOL     OW 2794   3.697   0.582   4.575 -0.8407  0.2266  0.0521
  632SOL    HW1 2795   3.684   0.629   4.662  3.5762  1.0323  0.5075
  632SOL    HW2 2796   3.742   0.643   4.510  2.7721 -2.3618 -0.1979
  633SOL     OW 2797   6.837   2.602   1.446  0.2191 -0.5397  0.0899
  633SOL    HW1 2798   6.835   2.691   1.401  0.3305 -1.6120 -2.1429
  633SOL    HW2 2799   6.901   2.605   1.523 -0.1973  1.4262  0.4262
  634SOL     OW 2800   3.905   0.154   3.381 -0.0702 -0.7764  0.4572
  634SOL    HW1 2801   3.875   0.225   3.317 -1.6009 -1.2865  0.5483
  634SOL    HW2 2802   3.947   0.079   3.330 -3.4409 -2.3024 -0.3789
  635SOL     OW 2803   1.495   3.798   2.501  0.1962  0.0132  0.2666
  635SOL    HW1 2804   1.571   3.849   2.542  0.8154  0.1673 -0.9973
  635SOL    HW2 2805   1.519   3.701   2.496  0.4612  0.1097 -0.4320
  636SOL     OW 2806   5.961   4.284   3.770  0.0977  0.1370  0.1892
  636SOL    HW1 2807   5.899   4.209   3.798  0.8951 -0.2693  0.9150
  636SOL    HW2 2808   6.055   4.250   3.769  0.3168  0.7449 -0.9489
  637SOL     OW 2809   5.839   0.004   1.437 -0.0309  0.3984  0.5590
  637SOL    HW1 2810   5.784   0.003   1.520 -0.8166  0.9452  0.0575
  637SOL    HW2 2811   5.843  -0.088   1.399 -0.9021  0.4114  0.4145
  638SOL     OW 2812   5.244   2.254   3.786 -0.1877  0.0793 -0.3072
  638SOL    HW1 2813   5.188   2.186   3.833 -0.3514  0.9618  0.8102
  638SOL    HW2 2814   5.306   2.297   3.851 -0.7991  1.7088 -0.7660
  639SOL     OW 2815   1.062   0.152   5.815 -0.3429  0.2415 -0.5060
  639SOL    HW1 2816   0.972   0.113   5.834 -0.4838  0.9945  0.4014
  639SOL    HW2 2817   1.106   0.098   5.743 -1.1699 -0.6360 -0.3807
  640SOL     OW 2818   5.274   4.560   2.373 -0.5647 -0.1520  0.3890
  640SOL    HW1 2819   5.323   4.493   2.430 -0.9734 -1.0021 -0.2339
  640SOL    HW2 2820   5.340   4.623   2.333 -0.3196  0.8318  2.2481
  641SOL     OW 2821   5.677   3.989   0.738  0.2150 -0.2021 -0.2209
  641SOL    HW1 2822   5.640   4.076   0.706  0.0395 -0.2606 -0.1782
  641SOL    HW2 2823   5.606   3.939   0.789  0.9915  0.7089  1.8722
  642SOL     OW 2824   0.830   0.381   2.997  0.3728  0.0978 -0.4478
  642SOL    HW1 2825   0.844   0.336   2.909  1.2949 -1.0086  0.2280
  642SOL    HW2 2826   0.883   0.466   3.000  1.1432 -0.3634 -0.6111
  643SOL     OW 2827   1.986   1.594   2.076  0.0091  0.4172  0.2859
  643SOL    HW1 2828   2.043   1.667   2.038 -0.9853  1.2824  0.3850
  643SOL    HW2 2829   1.994   1.512   2.019 -1.1793  1.5621 -1.6706
  644SOL     OW 2830   0.769   5.747   4.840  0.1026 -1.0143 -0.3128
  644SOL    HW1 2831   0.835   5.694   4.894  0.9209  0.8381  0.6275
  644SOL    HW2 2832   0.683   5.755   4.890  0.3433 -0.5869  0.0445
  645SOL     OW 2833   1.243   1.951   0.438  0.5349 -0.0181 -0.5372
  645SOL    HW1 2834   1.198   2.026   0.487  1.6689  0.0087  0.5063
  645SOL    HW2 2835   1.306   1.989   0.370  1.3490  0.0081  0.2108
  646SOL     OW 2836   0.129   2.003   1.483 -0.5445  0.2399 -0.2532
  646SOL    HW1 2837   0.151   2.027   1.388 -1.6139 -0.4325 -0.6912
  646SOL    HW2 2838   0.194   2.047   1.544 -0.1823  1.1516 -1.2598
  647SOL     OW 2839   6.324   3.192   5.880 -0.2232  0.1211  0.1455
  647SOL    HW1 2840   6.266   3.233   5.951 -0.9940 -1.4448  0.4784
  647SOL    HW2 2841   6.413   3.168   5.919  0.2664  1.4895 -0.0753
  648SOL     OW 2842   1.110   1.405   3.078 -0.0506  0.7777 -0.3107
  648SOL    HW1 2843   1.121   1.400   3.177  0.2947 -1.3030 -0.4112
  648SOL    HW2 2844   1.201   1.411   3.035  0.0016 -1.2677 -0.5742
  649SOL     OW 2845   1.871   1.450   3.209 -0.2623  0.0917  0.0842
  649SOL    HW1 2846   1.875   1.537   3.258  0.7180  0.3992 -0.5130
  649SOL    HW2 2847   1.960   1.432   3.166 -1.2019  0.0412 -1.9293
  650SOL     OW 2848   4.862   3.724   4.341  0.2154  0.2487  0.7193
  650SOL    HW1 2849   4.840   3.706   4.245 -1.0509  0.0932  1.0219
  650SOL    HW2 2850   4.844   3.820   4.362  2.0279  0.6915  0.4176
  651SOL     OW 2851   6.108   3.840   1.362 -0.1354  0.4014  0.0557
  651SOL    HW1 2852   6.153   3.763   1.318 -1.1625  0.1090 -0.4977
  651SOL    HW2 2853   6.173   3.917   1.368  0.8591 -0.4469  0.5185
  652SOL     OW 2854   5.054   2.561   3.010  0.0895  0.4345 -0.3041
  652SOL    HW1 2855   4.977   2.524   2.959 -1.3636 -0.8330  2.5590
  652SOL    HW2 2856   5.122   2.489   3.024  0.2473  0.6216 -0.0957
  653SOL     OW 2857   2.404   0.677   6.210 -0.6638  0.2385 -0.5806
  653SOL    HW1 2858   2.370   0.583   6.218 -1.7817  0.7315  0.6525
  653SOL    HW2 2859   2.394   0.708   6.115 -0.7754 -0.6961 -0.8862
  654SOL     OW 2860   5.394   0.792   4.133  0.0594 -0.2370  0.7795
  654SOL    HW1 2861   5.338   0.874   4.119  0.0754 -0.2455  0.6647
  654SOL    HW2 2862   5.360   0.718   4.074  1.2880  0.2742 -0.6343
  655SOL     OW 2863   1.420   1.746   0.006  0.3289  0.4720  0.2271
  655SOL    HW1 2864   1.405   1.742   0.104  0.4317 -0.9895  0.2044
  655SOL    HW2 2865   1.395   1.658  -0.036 -1.4384  1.6380 -1.3055
  656SOL     OW 2866   3.435   3.059   6.681  0.9807 -0.5188  0.5707
  656SOL    HW1 2867   3.382   3.129   6.728  0.3813 -0.4550 -0.1787
  656SOL    HW2 2868   3.514   3.033   6.737  0.6858  0.0714  1.2699
  657SOL     OW 2869   3.549   5.405   6.444  0.0488 -0.0287 -0.4237
  657SOL    HW1 2870   3.459   5.396   6.488 -0.9897 -1.1224 -2.6165
  657SOL    HW2 2871   3.555   5.342   6.367  2.3210  0.8023 -1.0089
  658SOL     OW 2872   6.055   5.323   6.007  0.5580 -0.1561  0.4057
  658SOL    HW1 2873   6.078   5.304   5.911  1.3994  0.1540  0.5390
  658SOL    HW2 2874   5.961   5.356   6.012 -0.3203 -2.3630 -0.0433
  659SOL     OW 2875   5.999   2.908   2.216 -0.4256 -0.2018 -0.0134
  659SOL    HW1 2876   6.021   2.983   2.278 -1.1917  0.3299 -0.3717
  659SOL    HW2 2877   5.904   2.916   2.186  0.0603 -0.2022 -1.6068
  660SOL     OW 2878   3.289   5.270   4.938 -0.3275 -0.1059 -0.0857
  660SOL    HW1 2879   3.374   5.263   4.989 -0.5126  3.6492  1.0589
  660SOL    HW2 2880   3.308   5.302   4.845 -0.4373 -0.1458 -0.1225
  661SOL     OW 2881   5.609   4.299   1.971  0.1192 -0.4202  0.2268
  661SOL    HW1 2882   5.654   4.210   1.981 -1.8618 -1.3103  1.8183
  661SOL    HW2 2883   5.625   4.354   2.052  0.9087  0.5257 -0.5396
  662SOL     OW 2884   1.705   4.943   0.025  0.1422  0.0452 -0.1057
  662SOL    HW1 2885   1.720   4.968  -0.071 -0.2880  0.8635  0.0342
  662SOL    HW2 2886   1.743   4.851   0.041  1.8419  0.6062 -0.6207
  663SOL     OW 2887   2.207   6.404   4.375 -0.0965 -0.2955  0.0129
  663SOL    HW1 2888   2.284   6.402   4.311 -1.5887  2.1135 -2.0371
  663SOL    HW2 2889   2.127   6.444   4.330 -1.9999 -0.8061  2.6789
  664SOL     OW 2890   3.189   6.152   3.957 -0.5817 -0.4954  0.3811
  664SOL    HW1 2891   3.256   6.080   3.938 -0.1987  0.4728 -2.4015
  664SOL    HW2 2892   3.123   6.119   4.024  2.1640 -1.7686  2.6948
  665SOL     OW 2893   0.376   1.916   5.209  0.2106  0.0897  0.1555
  665SOL    HW1 2894   0.392   1.909   5.110 -4.0837  0.6099 -0.7875
  665SOL    HW2 2895   0.423   1.996   5.245 -0.1548  1.3615 -2.0370
  666SOL     OW 2896   4.811   3.760   1.890 -0.2514  0.9342  0.1959
  666SOL    HW1 2897   4.866   3.740   1.809  0.0909 -0.2462  0.6938
  666SOL    HW2 2898   4.835   3.695   1.963 -4.8022 -2.1647 -0.6640
  667SOL     OW 2899   4.207   6.997   6.592  0.5865 -0.3635  0.1067
  667SOL    HW1 2900   4.288   6.963   6.544  0.4770 -0.7218  0.1729
  667SOL    HW2 2901   4.206   7.097   6.589  0.4360 -0.3860 -0.8630
  668SOL     OW 2902   5.279   6.941   5.531 -0.1025  0.1897  0.5917
  668SOL    HW1 2903   5.275   7.030   5.576 -1.2301 -1.5911  4.3602
  668SOL    HW2 2904   5.189   6.898   5.533  0.7235 -1.6606  0.2142
  669SOL     OW 2905   6.658   0.139   5.925 -0.3506  0.5588 -0.8035
  669SOL    HW1 2906   6.629   0.232   5.900  0.5212  0.6734 -1.4446
  669SOL    HW2 2907   6.758   0.135   5.925 -0.3536 -0.0018  0.6761
  670SOL     OW 2908   1.964   1.893   6.177 -0.4961 -0.2132 -0.1663
  670SOL    HW1 2909   1.939   1.985   6.207  1.3296  0.4270 -0.4722
  670SOL    HW2 2910   1.965   1.890   6.077  0.4819 -0.2335 -0.1674
  671SOL     OW 2911   1.911   5.698   6.235 -0.1969  0.3277  0.3253
  671SOL    HW1 2912   1.955   5.625   6.287  1.8298  0.3723 -1.2402
  671SOL    HW2 2913   1.934   5.690   6.138 -0.8073  2.4106 -0.0525
  672SOL     OW 2914   5.711   1.455   4.585 -0.0675  0.6645 -0.3767
  672SOL    HW1 2915   5.618   1.425   4.562  0.0982 -0.3435  0.1770
  672SOL    HW2 2916   5.768   1.454   4.503 -0.0208 -0.8049 -0.3526
  673SOL     OW 2917   0.058   2.400   0.411  0.3577  0.2083  0.1310
  673SOL    HW1 2918   0.046   2.359   0.502  0.5375 -1.9242 -0.7354
  673SOL    HW2 2919   0.153   2.428   0.400  0.2597  0.7830  0.7169
  674SOL     OW 2920   3.815   5.522   0.283 -0.3739  0.5039  0.4296
  674SOL    HW1 2921   3.798   5.597   0.218 -1.4128 -0.8774 -0.9830
  674SOL    HW2 2922   3.730   5.502   0.333 -0.2718 -0.1112  0.3619
  675SOL     OW 2923   2.992   0.084   2.260  0.2655  0.0950 -0.0822
  675SOL    HW1 2924   2.923   0.154   2.279 -0.9516 -0.5975 -1.7564
  675SOL    HW2 2925   3.039   0.105   2.175  0.6547 -0.5590 -0.0355
  676SOL     OW 2926   2.587   5.650   0.460 -0.3230  0.3621  0.1186
  676SOL    HW1 2927   2.582   5.567   0.516  0.0253 -0.4138 -0.9766
  676SOL    HW2 2928   2.503   5.702   0.471  0.4500  1.2142  2.8276
  677SOL     OW 2929   2.374   4.058   6.642  0.8038  0.3522  0.2346
  677SOL    HW1 2930   2.339   4.048   6.549 -1.8889 -0.0537  1.2048
  677SOL    HW2 2931   2.384   3.968   6.683 -0.6138  0.5894  1.1710
  678SOL     OW 2932   3.925   6.056   3.732  0.5556 -0.0461 -0.2003
  678SOL    HW1 2933   3.995   6.031   3.799  0.5496 -2.0462 -0.8886
  678SOL    HW2 2934   3.842   6.084   3.781  0.6488 -1.1662  0.6425
  679SOL     OW 2935   2.532   2.510   0.401 -0.2674  0.2101 -0.2259
  679SOL    HW1 2936   2.530   2.492   0.303 -0.8195 -1.9835  0.1340
  679SOL    HW2 2937   2.612   2.466   0.442 -2.0049 -2.2761  0.7910
  680SOL     OW 2938   6.520   0.999   2.048 -0.6322 -0.0598 -0.1016
  680SOL    HW1 2939   6.617   0.974   2.056 -0.7459 -0.1918  0.9983
  680SOL    HW2 2940   6.504   1.041   1.959  0.2911 -0.6915 -0.5865
  681SOL     OW 2941   5.178   5.028   4.556 -0.2040  0.4878 -0.1402
  681SOL    HW1 2942   5.080   5.022   4.533 -0.3065  1.7532 -0.0959
  681SOL    HW2 2943   5.232   4.992   4.480 -0.6529  1.6472 -1.0356
  682SOL     OW 2944   5.363   2.052   6.250 -0.4757  0.6649 -0.0029
  682SOL    HW1 2945   5.382   2.115   6.175  0.0159  0.9376  0.3443
  682SOL    HW2 2946   5.422   1.972   6.242 -2.1976 -0.5670 -1.3654
  683SOL     OW 2947   2.987   3.864   2.608 -0.1297  0.1052  0.5516
  683SOL    HW1 2948   2.891   3.886   2.588  0.9266  4.2201 -1.1513
  683SOL    HW2 2949   3.001   3.865   2.707 -1.7928 -0.5104  0.8374
  684SOL     OW 2950   5.077   4.991   6.368  0.3526  0.2674 -0.1461
  684SOL    HW1 2951   5.135   4.987   6.449  0.2529  1.9987  0.0450
  684SOL    HW2 2952   5.132   5.016   6.288  0.1045  0.6039 -0.2146
  685SOL     OW 2953   3.354   1.981   3.992  0.2987 -0.9851 -0.1859
  685SOL    HW1 2954   3.275   2.023   4.039  0.2778 -0.5472 -0.6015
  685SOL    HW2 2955   3.338   1.883   3.981 -0.0288 -0.9607  0.0539
  686SOL     OW 2956   3.584   0.290   6.879 -0.5337 -0.3186  0.3650
  686SOL    HW1 2957   3.598   0.376   6.929 -3.4542 -0.2748  1.2907
  686SOL    HW2 2958   3.540   0.309   6.791 -2.0382 -0.8545  0.9642
  687SOL     OW 2959   3.336   2.360   0.356  0.7891  0.0930  0.2105
  687SOL    HW1 2960   3.408   2.327   0.417 -0.6790 -1.1781  1.3522
  687SOL    HW2 2961   3.375   2.382   0.266  2.5122 -0.9878  0.6515
  688SOL     OW 2962   4.946   4.382   1.432 -0.0072 -0.3895  0.1892
  688SOL    HW1 2963   4.962   4.293   1.475 -0.0216  0.0010  1.0128
  688SOL    HW2 2964   4.956   4.373   1.333 -0.6969 -1.4621  0.1972
  689SOL     OW 2965   2.405   4.948   5.389  0.2609  0.5807  0.4525
  689SOL    HW1 2966   2.383   4.984   5.298 -2.1211  0.0871  0.7660
  689SOL    HW2 2967   2.446   5.020   5.445 -0.6348  1.6392 -0.2192
  690SOL     OW 2968   2.569   5.906   1.587 -0.4269 -0.1081  0.4390
  690SOL    HW1 2969   2.589   5.965   1.509 -0.6922 -0.6202 -0.0307
  690SOL    HW2 2970   2.474   5.875   1.582 -0.1087 -1.1034  0.3021
  691SOL     OW 2971   3.084   6.647   1.357  0.4265  0.1907  0.0824
  691SOL    HW1 2972   3.098   6.567   1.298 -0.7494 -0.4216  0.5918
  691SOL    HW2 2973   3.128   6.726   1.315  0.8516 -0.5284 -0.8939
  692SOL     OW 2974   1.005   4.487   4.170 -0.1230 -0.3816  0.1512
  692SOL    HW1 2975   1.071   4.416   4.194  0.9600  0.9694  1.3335
  692SOL    HW2 2976   0.994   4.490   4.071  1.5180 -0.7191 -0.0687
  693SOL     OW 2977   6.062   5.914   4.110 -0.0739 -0.1939  0.5917
  693SOL    HW1 2978   6.105   5.997   4.072 -1.6729  1.0309  1.3404
  693SOL    HW2 2979   6.019   5.936   4.197 -1.3532 -1.6038  0.3516
  694SOL     OW 2980   3.662   5.594   6.889 -0.6207 -0.3417  0.1763
  694SOL    HW1 2981   3.704   5.631   6.972 -0.3052 -0.9614  0.2986
  694SOL    HW2 2982   3.729   5.592   6.816 -0.6044 -0.7654  0.2007
  695SOL     OW 2983   3.790   3.510   6.540 -0.3455  0.4625  0.0294
  695SOL    HW1 2984   3.857   3.540   6.608  0.5212 -0.1279 -0.5461
  695SOL    HW2 2985   3.717   3.459   6.585 -0.5285  1.2821  0.6858
  696SOL     OW 2986   3.619   2.904   3.480 -0.0788 -0.6422  0.5384
  696SOL    HW1 2987   3.718   2.886   3.480  0.2977  1.1999 -0.4363
  696SOL    HW2 2988   3.597   2.966   3.405 -2.2409 -2.2514 -0.2256
  697SOL     OW 2989   0.443   3.988   0.462 -0.2013 -0.1210 -0.4476
  697SOL    HW1 2990   0.394   3.953   0.542 -1.4952  0.0351 -1.1541
  697SOL    HW2 2991   0.495   4.070   0.488  0.1981 -0.6460  0.4505
  698SOL     OW 2992   0.723   3.548   2.357 -0.1823 -0.0356  0.4220
  698SOL    HW1 2993   0.676   3.580   2.440  0.7018  2.1995  0.1426
  698SOL    HW2 2994   0.663   3.563   2.278  0.5550  1.9689  0.1778
  699SOL     OW 2995   6.045   5.581   4.154 -0.1614  0.2935  0.0627
  699SOL    HW1 2996   6.112   5.564   4.225 -1.9110 -0.0964  1.7053
  699SOL    HW2 2997   6.082   5.644   4.086  1.1494  1.6013  1.9273
  700SOL     OW 2998   6.381   6.267   4.201 -0.0281  0.8201 -0.8371
  700SOL    HW1 2999   6.400   6.178   4.160 -1.7260 -0.5784  1.2164
  700SOL    HW2 3000   6.299   6.306   4.159 -1.4239 -0.3396  0.7066
  701SOL     OW 3001   0.467   5.718   2.903 -0.1931  0.2431 -0.5244
  701SOL    HW1 3002   0.530   5.769   2.844  1.2734  2.5382  2.7056
  701SOL    HW2 3003   0.380   5.768   2.910 -1.5500 -1.5407 -2.8276
  702SOL     OW 3004   2.729   5.669   4.003 -0.2286 -1.0034 -0.2439
  702SOL    HW1 3005   2.693   5.609   4.074 -0.6396  0.0779  0.4913
  702SOL    HW2 3006   2.655   5.724   3.965  0.1071 -1.0800 -1.0285
  703SOL     OW 3007   6.849   5.338   5.702  0.6290 -0.2793 -0.0018
  703SOL    HW1 3008   6.930   5.284   5.723 -0.3923 -1.2682  1.5472
  703SOL    HW2 3009   6.768   5.294   5.739 -0.4075  1.7116  0.2647
  704SOL     OW 3010   5.242   6.617   2.734  0.0732  0.3345 -0.2678
  704SOL    HW1 3011   5.337   6.631   2.705  0.4138 -2.6993 -0.9889
  704SOL    HW2 3012   5.232   6.525   2.772 -2.5354  0.7068  0.1410
  705SOL     OW 3013   2.829   1.957   0.523 -0.4015 -0.0338 -0.1404
  705SOL    HW1 3014   2.731   1.946   0.509 -0.8448 -1.5756  3.2451
  705SOL    HW2 3015   2.847   1.985   0.617  2.4695 -0.4196 -0.4664
  706SOL     OW 3016   5.308   3.970   3.493 -0.6255  0.5870 -0.4247
  706SOL    HW1 3017   5.358   3.935   3.572  0.0128  2.1925 -0.1002
  706SOL    HW2 3018   5.230   3.909   3.474  0.0913 -0.6626  0.4691
  707SOL     OW 3019   3.654   2.417   5.592  0.1226 -0.8671  0.1992
  707SOL    HW1 3020   3.719   2.348   5.562 -0.6122 -1.1862 -0.7338
  707SOL    HW2 3021   3.625   2.471   5.513 -0.0024 -0.0965  0.7680
  708SOL     OW 3022   5.274   0.585   1.373 -0.0660  0.3333 -0.3318
  708SOL    HW1 3023   5.198   0.554   1.317  2.3933 -3.0693 -2.1488
  708SOL    HW2 3024   5.359   0.544   1.340  2.3278  2.2389  2.8371
  709SOL     OW 3025   0.596   1.780   1.703  0.0485  0.0476 -0.3804
  709SOL    HW1 3026   0.518   1.835   1.732 -0.3624 -1.4395  1.5664
  709SOL    HW2 3027   0.660   1.770   1.778  0.2217 -1.8802 -0.7211
  710SOL     OW 3028   4.424   5.117   5.870  0.3863 -0.1286 -0.3984
  710SOL    HW1 3029   4.328   5.097   5.854  0.3243 -1.1367  1.1321
  710SOL    HW2 3030   4.437   5.153   5.962  1.6330 -1.3618 -0.0474
  711SOL     OW 3031   6.401   5.266   6.027  0.6149  0.0793  0.0124
  711SOL    HW1 3032   6.364   5.205   6.097  0.6963 -1.0635 -0.9108
  711SOL    HW2 3033   6.423   5.355   6.068  2.5743 -1.2013  1.8860
  712SOL     OW 3034   5.283   4.327   4.421 -0.0590  0.3234 -0.1775
  712SOL    HW1 3035   5.290   4.258   4.492  1.5313  0.5020 -0.1337
  712SOL    HW2 3036   5.188   4.335   4.391 -0.4744 -0.9014  0.7689
  713SOL     OW 3037   6.354   4.123   4.944  0.1824  0.4138  0.3527
  713SOL    HW1 3038   6.319   4.037   4.908 -1.1526 -0.0473  2.5444
  713SOL    HW2 3039   6.401   4.173   4.872 -2.1835 -0.4528 -1.9428
  714SOL     OW 3040   6.947   6.110   1.785 -0.0220  0.3924  0.1337
  714SOL    HW1 3041   7.039   6.128   1.751 -0.1807 -0.3642 -0.7236
  714SOL    HW2 3042   6.888   6.189   1.768  0.5327  1.0045  0.9708
  715SOL     OW 3043   4.859   3.811   4.789 -0.1958 -0.7654  1.1138
  715SOL    HW1 3044   4.819   3.739   4.845 -0.8319 -0.9838  0.3936
  715SOL    HW2 3045   4.910   3.770   4.713  0.3739 -0.4694  1.3302
  716SOL     OW 3046   3.090   5.812   4.805  0.1585  0.1446  0.0664
  716SOL    HW1 3047   3.110   5.812   4.707 -0.0781 -0.2468  0.0154
  716SOL    HW2 3048   3.090   5.906   4.839  0.8808  0.2375 -0.1745
  717SOL     OW 3049   6.091   0.772   5.904 -0.5642  0.1022 -0.0831
  717SOL    HW1 3050   6.088   0.791   6.002  0.9331 -0.1540  0.0417
  717SOL    HW2 3051   6.035   0.839   5.855 -1.0123  0.4739  0.9114
  718SOL     OW 3052   3.097   1.687   6.923  0.4217  0.0579  0.3488
  718SOL    HW1 3053   3.187   1.722   6.948  0.4814  1.3146 -1.4575
  718SOL    HW2 3054   3.108   1.599   6.876  0.7465  0.4172 -0.2523
  719SOL     OW 3055   0.098   2.833   6.441 -0.2013  0.7322  0.6206
  719SOL    HW1 3056   0.165   2.906   6.451 -0.8907  1.3802  0.5727
  719SOL    HW2 3057   0.109   2.788   6.353  0.7885  0.1912  1.0026
  720SOL     OW 3058   4.838   4.042   3.429 -0.2539 -0.6434  0.7987
  720SOL    HW1 3059   4.902   4.113   3.401 -0.4283 -0.3149  1.2111
  720SOL    HW2 3060   4.817   3.983   3.351  0.1761 -0.4641  0.5446
  721SOL     OW 3061   6.931   3.335   0.955  0.1643  0.5881 -0.2021
  721SOL    HW1 3062   7.010   3.371   1.006 -0.6737 -0.1351  1.6898
  721SOL    HW2 3063   6.963   3.293   0.870  1.6583  1.5090 -0.1323
  722SOL     OW 3064   3.729   6.132   0.115  0.3176 -0.1572  0.0202
  722SOL    HW1 3065   3.670   6.055   0.142  1.5685 -1.0268  0.3798
  722SOL    HW2 3066   3.822   6.116   0.149  1.1139  0.4894 -1.7233
  723SOL     OW 3067   4.014   1.387   3.302  0.7394  0.1268  0.1019
  723SOL    HW1 3068   4.085   1.321   3.276  1.3100  0.1484  1.4698
  723SOL    HW2 3069   4.056   1.461   3.355 -0.0678  1.0061 -0.4741
  724SOL     OW 3070   2.151   2.177   0.109  0.4807  0.0575  0.3611
  724SOL    HW1 3071   2.184   2.238   0.181  0.5323 -1.3995  1.6225
  724SOL    HW2 3072   2.130   2.087   0.148  2.3234 -1.4056 -1.7694
  725SOL     OW 3073   0.506   1.631   4.770 -0.1185 -0.2696 -0.2615
  725SOL    HW1 3074   0.470   1.547   4.730  0.0363  0.1339 -1.2792
  725SOL    HW2 3075   0.445   1.707   4.748  0.2222  0.0430 -0.1277
  726SOL     OW 3076   4.711   0.962   4.784 -0.1011  0.6322  0.0454
  726SOL    HW1 3077   4.752   0.998   4.700  1.1363  1.3549  0.9303
  726SOL    HW2 3078   4.719   1.030   4.856 -2.9932  0.8680  0.2687
  727SOL     OW 3079   5.723   1.363   5.864  0.3694  0.5553 -0.2577
  727SOL    HW1 3080   5.706   1.271   5.899 -2.4521  0.0798 -2.4912
  727SOL    HW2 3081   5.708   1.430   5.937 -1.2454 -0.5713  0.4937
  728SOL     OW 3082   4.085   1.290   2.984  0.6560 -0.2217 -0.6945
  728SOL    HW1 3083   4.010   1.225   2.976  0.3004  0.2688 -1.5154
  728SOL    HW2 3084   4.146   1.262   3.058 -0.7259 -0.2394  0.4826
  729SOL     OW 3085   3.383   2.166   5.859  0.5309 -0.4652 -0.4449
  729SOL    HW1 3086   3.295   2.120   5.869  0.0820  0.6050  0.8240
  729SOL    HW2 3087   3.444   2.137   5.933  1.0442 -0.7484 -0.9719
  730SOL     OW 3088   1.709   1.668   6.523 -0.2856  0.3972 -0.2054
  730SOL    HW1 3089   1.707   1.588   6.582 -0.0855 -0.1817 -0.9677
  730SOL    HW2 3090   1.744   1.747   6.574  1.7460 -0.5306 -0.0636
  731SOL     OW 3091   5.580   0.068   1.589 -0.2483 -0.3806 -0.5489
  731SOL    HW1 3092   5.539   0.159   1.583 -0.2613 -0.3867 -0.5520
  731SOL    HW2 3093   5.559   0.016   1.506  0.1208 -0.2361 -0.7319
  732SOL     OW 3094   5.093   2.202   0.223  0.0554  0.1135  0.2127
  732SOL    HW1 3095   5.182   2.248   0.220 -0.7046  1.6476  0.0448
  732SOL    HW2 3096   5.052   2.202   0.132 -1.0361  1.3881  0.6664
  733SOL     OW 3097   3.961   6.770   3.923 -0.3981  0.1814  0.3162
  733SOL    HW1 3098   3.917   6.707   3.859  0.8490  0.0614 -0.4512
  733SOL    HW2 3099   4.022   6.831   3.873  0.5711  0.1161  1.3806
  734SOL     OW 3100   5.583   1.926   1.587  0.0938 -0.4052 -0.1062
  734SOL    HW1 3101   5.672   1.904   1.626  0.9829  0.7089 -1.4069
  734SOL    HW2 3102   5.554   2.017   1.617  0.4204  0.1339 -1.3496
  735SOL     OW 3103   1.380   6.078   5.321 -0.2322 -0.4139 -0.4751
  735SOL    HW1 3104   1.356   6.029   5.405  0.7538 -0.6904 -0.3470
  735SOL    HW2 3105   1.361   6.019   5.242 -1.6350  0.0291 -0.5001
  736SOL     OW 3106   2.420   6.820   6.853  0.0663  0.6324 -0.5548
  736SOL    HW1 3107   2.459   6.840   6.943 -1.9038  1.7279  0.1249
  736SOL    HW2 3108   2.468   6.874   6.784 -0.6461  2.5278  0.3512
  737SOL     OW 3109   2.810   6.212   2.612  0.0430 -0.2992  0.5743
  737SOL    HW1 3110   2.811   6.121   2.652  0.8202 -1.3451 -1.7006
  737SOL    HW2 3111   2.897   6.229   2.565 -1.1775  0.4361 -1.5244
  738SOL     OW 3112   5.537   0.419   0.882  0.0748  0.3462  0.4354
  738SOL    HW1 3113   5.569   0.337   0.835  2.5997  0.7256  1.3273
  738SOL    HW2 3114   5.461   0.395   0.943 -1.6902 -0.5723 -1.9781
  739SOL     OW 3115   4.485   6.194   4.301 -0.3032 -0.1803 -0.2337
  739SOL    HW1 3116   4.574   6.148   4.299 -0.6083 -0.8026 -0.0098
  739SOL    HW2 3117   4.469   6.240   4.213 -0.9450 -2.4143 -1.3698
  740SOL     OW 3118   6.932   1.375   6.606  0.1200 -0.2209 -0.2961
  740SOL    HW1 3119   6.922   1.474   6.608  1.2338 -0.1021  0.6947
  740SOL    HW2 3120   7.007   1.349   6.545 -0.0142 -0.4454 -0.3714
  741SOL     OW 3121   0.127   3.902   1.959  0.3137  0.2918 -0.1260
  741SOL    HW1 3122   0.124   3.803   1.971  0.0601  0.5015  1.9943
  741SOL    HW2 3123   0.220   3.935   1.975  0.2544  0.4522 -0.1089
  742SOL     OW 3124   6.322   0.183   4.225  0.1258 -0.5408  0.1692
  742SOL    HW1 3125   6.379   0.201   4.144 -2.3095 -2.5826 -2.2269
  742SOL    HW2 3126   6.309   0.084   4.235 -1.5214 -0.2190  1.6618
  743SOL     OW 3127   1.841   0.758   4.828  0.2506  0.3600 -0.3312
  743SOL    HW1 3128   1.854   0.850   4.790  1.6924  1.3020  2.1700
  743SOL    HW2 3129   1.747   0.749   4.861 -0.1029  0.6526 -1.2167
  744SOL     OW 3130   2.674   4.927   5.282 -0.7764  0.4470 -0.3420
  744SOL    HW1 3131   2.697   4.830   5.290  0.7487  0.8665  0.7435
  744SOL    HW2 3132   2.610   4.939   5.206 -1.7132 -1.5041  0.0702
  745SOL     OW 3133   1.763   2.619   0.595  0.4369 -0.1652 -0.4295
  745SOL    HW1 3134   1.752   2.718   0.602  2.9406  0.1941 -0.5762
  745SOL    HW2 3135   1.714   2.575   0.670  0.7975  1.3273  0.7307
  746SOL     OW 3136   4.909   2.106   2.378 -0.3309 -0.0917 -0.0958
  746SOL    HW1 3137   4.965   2.028   2.406  0.5346 -0.1130 -1.7459
  746SOL    HW2 3138   4.936   2.135   2.285 -1.0132  1.8058  0.2469
  747SOL     OW 3139   0.413   0.704   3.522 -0.0027  0.2732  0.1962
  747SOL    HW1 3140   0.385   0.794   3.490  1.9161  1.0083  0.4779
  747SOL    HW2 3141   0.466   0.658   3.450  0.5319  0.1141  0.6803
  748SOL     OW 3142   2.843   6.795   4.982 -0.1038 -0.7438 -0.6399
  748SOL    HW1 3143   2.906   6.727   5.018 -1.0285 -1.6587 -0.6940
  748SOL    HW2 3144   2.751   6.777   5.017 -0.5279 -0.0556 -1.3591
  749SOL     OW 3145   1.514   5.805   4.223  0.0784  0.4491 -0.7649
  749SOL    HW1 3146   1.439   5.841   4.278 -0.8130  0.1022 -1.7029
  749SOL    HW2 3147   1.500   5.707   4.206  0.5218  0.4659 -1.2873
  750SOL     OW 3148   5.270   1.387   3.266  0.1726 -0.0811 -0.0431
  750SOL    HW1 3149   5.175   1.357   3.274 -0.1158  0.3243 -1.4942
  750SOL    HW2 3150   5.282   1.476   3.309  0.5036 -1.1972  2.3012
  751SOL     OW 3151   4.343   1.287   6.781  0.1172 -0.6183 -0.2694
  751SOL    HW1 3152   4.416   1.286   6.848 -0.7594  1.3560  0.8250
  751SOL    HW2 3153   4.358   1.362   6.717 -0.5428 -0.6639 -0.4851
  752SOL     OW 3154   6.224   1.002   5.371  0.1007 -0.1237  0.4818
  752SOL    HW1 3155   6.153   0.937   5.396 -0.8198  0.4386 -0.5815
  752SOL    HW2 3156   6.232   1.072   5.443 -0.6073 -0.0514  0.4971
  753SOL     OW 3157   0.498   2.026   6.244  0.1085 -0.6853 -0.0980
  753SOL    HW1 3158   0.429   2.097   6.235  0.3496 -0.4322  0.0359
  753SOL    HW2 3159   0.512   2.006   6.341  0.5888 -0.3757 -0.1013
  754SOL     OW 3160   4.526   0.957   0.225 -0.1509 -0.3341 -0.4777
  754SOL    HW1 3161   4.517   1.011   0.308  1.3006  1.0645 -1.1906
  754SOL    HW2 3162   4.466   0.877   0.231  0.1641 -0.4657  2.0489
  755SOL     OW 3163   1.766   2.362   3.948 -0.5267 -0.3923 -0.2915
  755SOL    HW1 3164   1.816   2.445   3.972 -0.9917 -0.3941  0.7422
  755SOL    HW2 3165   1.737   2.367   3.853  1.8475 -0.6197 -1.0851
  756SOL     OW 3166   1.485   2.726   4.492 -0.3264  0.3482  1.0306
  756SOL    HW1 3167   1.396   2.679   4.497 -0.5037  0.7917  2.6640
  756SOL    HW2 3168   1.556   2.665   4.527  0.0747 -0.0800 -0.4644
  757SOL     OW 3169   3.642   3.724   4.623  0.2975 -0.1521  0.5076
  757SOL    HW1 3170   3.656   3.632   4.587  1.3896 -0.3156  1.2990
  757SOL    HW2 3171   3.731   3.771   4.630 -0.3557  1.5387 -1.3190
  758SOL     OW 3172   6.804   5.198   2.321 -0.6254  0.7180  0.6884
  758SOL    HW1 3173   6.818   5.259   2.243 -1.9252  0.2607  0.0677
  758SOL    HW2 3174   6.710   5.164   2.320  0.1401 -1.5718  0.7865
  759SOL     OW 3175   2.747   0.701   6.359 -0.2632  0.0677  0.1798
  759SOL    HW1 3176   2.793   0.709   6.447 -0.5418 -3.1157  0.7314
  759SOL    HW2 3177   2.799   0.641   6.299 -1.5738 -0.1995 -0.7380
  760SOL     OW 3178   5.247   5.248   4.703  0.4406  0.5218 -0.0849
  760SOL    HW1 3179   5.271   5.165   4.654 -1.6876 -3.0275  4.1922
  760SOL    HW2 3180   5.201   5.312   4.641  1.3705 -1.7771 -3.3947
  761SOL     OW 3181   3.366   4.469   1.690  0.0372 -0.0587  0.3431
  761SOL    HW1 3182   3.436   4.521   1.740  0.1881 -0.7541  0.8641
  761SOL    HW2 3183   3.281   4.523   1.686  0.6749  0.9306 -0.5679
  762SOL     OW 3184   4.823   3.408   0.597  0.0953 -0.9001 -0.2219
  762SOL    HW1 3185   4.844   3.315   0.626  2.9974 -1.5181 -3.6201
  762SOL    HW2 3186   4.902   3.467   0.611 -1.0441  0.6403  0.0885
  763SOL     OW 3187   1.522   2.777   6.573  0.1140  0.5818  0.9053
  763SOL    HW1 3188   1.611   2.746   6.539 -0.2553  0.1843  0.2711
  763SOL    HW2 3189   1.527   2.874   6.595  0.7072  0.5631  0.8802
  764SOL     OW 3190   6.544   4.928   0.032 -0.4262  0.4338 -0.3699
  764SOL    HW1 3191   6.577   4.935   0.126 -0.5467 -0.8997 -0.2070
  764SOL    HW2 3192   6.493   5.010   0.008  0.1693  1.0740  0.4959
  765SOL     OW 3193   1.300   6.052   0.733  0.4005 -0.0680  0.0095
  765SOL    HW1 3194   1.356   6.112   0.676 -1.1228  1.1828 -0.2412
  765SOL    HW2 3195   1.250   5.988   0.674 -0.1899  0.3664  0.0314
  766SOL     OW 3196   3.964   0.030   1.186 -0.0312 -0.1362  0.8028
  766SOL    HW1 3197   4.036   0.076   1.135 -1.5185 -1.1357 -2.4260
  766SOL    HW2 3198   3.996  -0.059   1.218  0.3541 -0.3637 -0.1863
  767SOL     OW 3199   6.978   6.951   6.936  0.0583  0.3619  0.1581
  767SOL    HW1 3200   7.042   7.001   6.877 -1.7760  1.6829 -0.8378
  767SOL    HW2 3201   6.889   6.945   6.890 -0.5875 -1.3001  1.5435
  768SOL     OW 3202   4.895   5.324   6.746 -0.1065  0.2358 -0.1451
  768SOL    HW1 3203   4.903   5.302   6.843  0.5231 -0.8551 -0.4228
  768SOL    HW2 3204   4.879   5.422   6.734 -0.2859  0.3605  1.0553
  769SOL     OW 3205   0.272   3.814   0.221 -0.6096 -0.1192 -0.2741
  769SOL    HW1 3206   0.285   3.758   0.139  0.5918 -0.3600  0.0729
  769SOL    HW2 3207   0.360   3.839   0.259 -1.1505  0.9252  0.3305
  770SOL     OW 3208   0.628   1.276   5.749  0.5437  0.4687 -0.2778
  770SOL    HW1 3209   0.544   1.277   5.694  0.9808 -0.1464 -0.9853
  770SOL    HW2 3210   0.605   1.295   5.845 -0.5897 -0.8988 -0.2350
  771SOL     OW 3211   4.729   6.828   5.432  0.5805 -0.0872  0.7655
  771SOL    HW1 3212   4.679   6.880   5.363  2.4803  0.1621 -0.4951
  771SOL    HW2 3213   4.678   6.829   5.518 -1.0085  1.0639 -0.1447
  772SOL     OW 3214   6.550   5.788   6.005  0.5727  0.3922 -0.8776
  772SOL    HW1 3215   6.485   5.830   5.942 -0.8836  0.1867  0.4229
  772SOL    HW2 3216   6.577   5.855   6.074  0.8196  0.1257 -0.7152
  773SOL     OW 3217   0.434   1.118   6.617 -0.6163  0.1865  0.1775
  773SOL    HW1 3218   0.474   1.197   6.570 -0.9768  0.7707  0.8316
  773SOL    HW2 3219   0.471   1.034   6.578  1.2261  0.7014  0.7119
  774SOL     OW 3220   2.065   2.052   1.767  0.0052 -0.0981  0.2788
  774SOL    HW1 3221   2.158   2.017   1.756 -0.5580 -1.3203 -0.7375
  774SOL    HW2 3222   2.046   2.062   1.865  0.6917 -1.2700  0.5597
  775SOL     OW 3223   2.059   3.776   2.547 -0.3526 -0.4452 -0.2131
  775SOL    HW1 3224   2.106   3.854   2.504 -1.9404 -0.0777 -1.3743
  775SOL    HW2 3225   2.022   3.804   2.635 -1.4128  0.3088 -0.8827
  776SOL     OW 3226   0.325   0.260   3.297  0.1426  0.5356 -0.4331
  776SOL    HW1 3227   0.315   0.160   3.296  1.1284  0.4328 -0.8561
  776SOL    HW2 3228   0.361   0.288   3.386  1.6924  0.3086 -0.9648
  777SOL     OW 3229   5.741   6.423   4.580  0.0052  0.4577  0.2807
  777SOL    HW1 3230   5.730   6.498   4.646  1.9683  0.8585  0.1953
  777SOL    HW2 3231   5.818   6.366   4.607  0.2021  0.0303 -1.1244
  778SOL     OW 3232   2.609   5.416   3.164  0.0366  0.0327 -0.2537
  778SOL    HW1 3233   2.678   5.360   3.119  0.2197 -0.1547  0.2559
  778SOL    HW2 3234   2.528   5.361   3.183 -0.9374  0.6430 -2.3407
  779SOL     OW 3235   6.164   4.502   1.973 -0.1370  0.0464 -0.1232
  779SOL    HW1 3236   6.084   4.493   2.032 -0.6172  0.9528 -0.6128
  779SOL    HW2 3237   6.186   4.598   1.961  1.5416 -0.2128  0.6578
  780SOL     OW 3238   6.301   4.079   0.038 -0.1522  0.1947  0.4902
  780SOL    HW1 3239   6.319   4.164  -0.011 -1.2032  0.9598  1.4128
  780SOL    HW2 3240   6.225   4.030  -0.005  0.5426 -0.3769 -0.1271
  781SOL     OW 3241   2.094   3.272   2.648 -0.6914 -0.1622  0.3066
  781SOL    HW1 3242   2.185   3.269   2.606 -0.8378  2.0135 -0.2589
  781SOL    HW2 3243   2.040   3.343   2.604 -2.5757 -1.1915  0.8763
  782SOL     OW 3244   3.883   5.020   6.683  0.0328 -0.0056 -0.2143
  782SOL    HW1 3245   3.954   5.047   6.747 -1.7358 -0.2564  1.9809
  782SOL    HW2 3246   3.834   5.101   6.650  0.0443  0.0287 -0.1457
  783SOL     OW 3247   0.784   4.529   0.411 -0.8620  0.4768  0.0844
  783SOL    HW1 3248   0.788   4.603   0.478 -2.4779  0.7854 -0.1280
  783SOL    HW2 3249   0.860   4.538   0.346 -0.4995  1.3879  0.6258
  784SOL     OW 3250   1.876   2.481   6.465  0.4991 -0.3409  0.1420
  784SOL    HW1 3251   1.974   2.478   6.486  0.9347  1.3907 -1.3745
  784SOL    HW2 3252   1.860   2.434   6.378 -0.2908 -1.8966  1.0799
  785SOL     OW 3253   1.687   0.434   4.232  0.1025  0.0828  0.5212
  785SOL    HW1 3254   1.598   0.441   4.276  0.6653  2.6633  1.4105
  785SOL    HW2 3255   1.759   0.447   4.300  1.1308 -0.1470 -0.4848
  786SOL     OW 3256   1.097   4.480   0.631 -0.3311 -0.6422 -0.4720
  786SOL    HW1 3257   1.060   4.392   0.600  1.0106 -1.3550 -0.1004
  786SOL    HW2 3258   1.125   4.534   0.552 -1.6137 -0.3172 -0.7312
  787SOL     OW 3259   0.313   5.509   3.291  0.2690  0.2003  0.5826
  787SOL    HW1 3260   0.216   5.528   3.308  0.2372  0.7099 -0.1079
  787SOL    HW2 3261   0.368   5.561   3.356  0.0813 -0.3188  1.1725
  788SOL     OW 3262   3.424   3.417   1.251  0.1003  0.2414  0.2535
  788SOL    HW1 3263   3.481   3.384   1.326  0.5557 -2.4658 -1.1676
  788SOL    HW2 3264   3.410   3.516   1.261 -0.0816 -0.0167  3.9740
  789SOL     OW 3265   1.163   4.246   6.709 -0.1675  0.8064  0.0393
  789SOL    HW1 3266   1.134   4.341   6.723 -0.9013  1.4743 -4.4998
  789SOL    HW2 3267   1.084   4.185   6.719 -1.2526  1.5351 -3.0191
  790SOL     OW 3268   2.309   4.738   1.437  0.3664 -0.5409  0.0893
  790SOL    HW1 3269   2.364   4.790   1.502 -1.1064 -0.1103  1.0400
  790SOL    HW2 3270   2.285   4.649   1.476  0.1737 -0.6256 -0.2116
  791SOL     OW 3271   3.514   6.547   1.188  0.7186  0.5936 -0.0863
  791SOL    HW1 3272   3.521   6.529   1.286 -0.1218 -0.7999 -0.2483
  791SOL    HW2 3273   3.424   6.516   1.155  1.7010 -0.7888 -1.6243
  792SOL     OW 3274   3.438   5.985   5.893  0.1077 -0.2296  0.3063
  792SOL    HW1 3275   3.435   6.083   5.873  1.3765 -0.4505 -1.1952
  792SOL    HW2 3276   3.357   5.940   5.856 -0.4036  0.2056  0.8687
  793SOL     OW 3277   2.116   1.178   1.723 -0.3652  0.6055 -0.2574
  793SOL    HW1 3278   2.035   1.140   1.677 -0.3796  2.7732 -2.2282
  793SOL    HW2 3279   2.104   1.277   1.734  0.9949  0.6031  1.7576
  794SOL     OW 3280   3.427   3.801   2.292 -0.2721 -0.0869  0.0342
  794SOL    HW1 3281   3.521   3.817   2.324 -0.0298 -1.5119  0.1150
  794SOL    HW2 3282   3.367   3.786   2.371 -0.6053  0.9682 -0.0116
  795SOL     OW 3283   0.581   6.871   6.418  0.0189 -0.1772  0.0317
  795SOL    HW1 3284   0.597   6.873   6.319 -0.1193 -0.5109  0.0020
  795SOL    HW2 3285   0.660   6.908   6.465  0.0564  0.0529 -0.2077
  796SOL     OW 3286   5.233   6.652   6.691 -0.2087 -0.1545  0.5773
  796SOL    HW1 3287   5.188   6.563   6.679  1.6590 -0.9645 -0.7747
  796SOL    HW2 3288   5.328   6.646   6.661 -0.8909  3.1527 -3.0340
  797SOL     OW 3289   2.284   5.205   2.219  0.9472 -0.2211  1.0346
  797SOL    HW1 3290   2.249   5.299   2.221 -0.5932 -0.7678  1.9027
  797SOL    HW2 3291   2.346   5.194   2.142 -1.5250  0.6324 -1.2612
  798SOL     OW 3292   2.094   1.687   2.933  0.2065  0.0254 -0.0062
  798SOL    HW1 3293   1.996   1.702   2.944  0.0936 -0.8209  0.2305
  798SOL    HW2 3294   2.145   1.748   2.994 -0.1907  0.1991  0.1507
  799SOL     OW 3295   1.465   1.012   3.351  0.5624  0.2330  0.1309
  799SOL    HW1 3296   1.538   0.999   3.284  1.2226  1.8937  0.4921
  799SOL    HW2 3297   1.487   1.089   3.410 -2.3602  2.0821 -0.9824
  800SOL     OW 3298   2.249   6.329   6.605 -0.0203 -0.0231 -0.6831
  800SOL    HW1 3299   2.275   6.390   6.530  0.3132  0.1304 -0.4412
  800SOL    HW2 3300   2.155   6.350   6.633 -0.0736  0.0592 -0.9135
  801SOL     OW 3301   0.152   6.137   3.449 -0.7438 -0.1033  0.7861
  801SOL    HW1 3302   0.090   6.212   3.471 -0.2733 -0.3058  3.0283
  801SOL    HW2 3303   0.225   6.170   3.389 -1.8648  0.6211 -0.2075
  802SOL     OW 3304   3.853   6.672   4.325 -0.1468  0.0314  0.1786
  802SOL    HW1 3305   3.789   6.730   4.275  2.5097  1.5314 -1.7681
  802SOL    HW2 3306   3.881   6.718   4.409  1.4456  1.4207 -1.0366
  803SOL     OW 3307   1.864   3.581   0.364  0.1650 -0.2692 -0.3112
  803SOL    HW1 3308   1.909   3.667   0.341  2.3314 -0.9497  1.0578
  803SOL    HW2 3309   1.810   3.549   0.286 -0.3432  2.0623 -0.9956
  804SOL     OW 3310   5.095   3.409   5.637  0.0665  0.1506 -0.1235
  804SOL    HW1 3311   5.161   3.435   5.566  0.3087 -1.4265 -0.5124
  804SOL    HW2 3312   5.004   3.401   5.596 -0.0602  0.6570  0.0550
  805SOL     OW 3313   3.713   4.128   1.976 -0.4070 -0.4152  0.4908
  805SOL    HW1 3314   3.640   4.179   1.930  0.0744 -0.1402  0.0323
  805SOL    HW2 3315   3.796   4.130   1.920  0.0127 -0.5659  1.1032
  806SOL     OW 3316   1.924   6.782   3.517  0.2671  0.0250  0.1968
  806SOL    HW1 3317   2.007   6.742   3.557 -0.2218 -1.2020  0.0298
  806SOL    HW2 3318   1.866   6.709   3.481 -0.1614  0.9761 -1.1204
  807SOL     OW 3319   5.975   0.134   2.165  0.4497 -0.1182 -0.0651
  807SOL    HW1 3320   6.071   0.158   2.153  0.1191  0.1533 -2.6485
  807SOL    HW2 3321   5.917   0.201   2.119 -1.0065 -0.3292  1.3643
  808SOL     OW 3322   3.589   5.030   1.011 -0.0816 -0.1950 -0.3500
  808SOL    HW1 3323   3.515   5.007   1.075 -0.1995  2.4288  0.5652
  808SOL    HW2 3324   3.651   4.952   1.005 -1.1149 -1.2638  1.4570
  809SOL     OW 3325   5.676   0.660   0.890  0.2763  0.2518 -0.0919
  809SOL    HW1 3326   5.776   0.654   0.890  0.2490 -0.2077 -0.4200
  809SOL    HW2 3327   5.637   0.568   0.887 -0.1650  0.3513  1.4866
  810SOL     OW 3328   4.579   4.105   6.201 -0.0163  0.2450 -0.4281
  810SOL    HW1 3329   4.557   4.114   6.298  0.5302 -0.6732 -0.2089
  810SOL    HW2 3330   4.569   4.010   6.173 -0.5254  0.5649 -1.3688
  811SOL     OW 3331   6.382   2.899   6.717  0.2447  0.3050  0.2147
  811SOL    HW1 3332   6.327   2.966   6.667  1.4379  1.1251 -0.0448
  811SOL    HW2 3333   6.335   2.811   6.717 -0.6215  0.7387 -0.8015
  812SOL     OW 3334   1.904   1.918   4.227 -0.8067  0.0881 -0.2005
  812SOL    HW1 3335   1.979   1.882   4.172 -0.5620  2.2092 -1.3888
  812SOL    HW2 3336   1.933   1.924   4.322 -0.8515 -2.6256  0.0574
  813SOL     OW 3337   5.123   5.717   4.346  0.0101  0.2493  0.2937
  813SOL    HW1 3338   5.143   5.733   4.442 -0.7400  1.6993  0.2377
  813SOL    HW2 3339   5.203   5.738   4.291 -0.5444  2.8944  0.3436
  814SOL     OW 3340   6.009   2.341   5.421 -0.3011 -0.5823 -0.4426
  814SOL    HW1 3341   5.971   2.390   5.343 -1.0874 -1.4629 -0.6258
  814SOL    HW2 3342   6.088   2.391   5.457 -1.5348  1.2400 -0.1356
  815SOL     OW 3343   5.464   0.170   4.803  0.4755 -0.3955  0.6357
  815SOL    HW1 3344   5.383   0.127   4.763  0.4464 -1.0765  1.3967
  815SOL    HW2 3345   5.437   0.241   4.867  0.4723 -0.6100  0.8757
  816SOL     OW 3346   4.586   2.333   6.608 -0.2110 -0.0245 -0.1114
  816SOL    HW1 3347   4.556   2.419   6.567  1.4958  0.2170 -0.9494
  816SOL    HW2 3348   4.516   2.264   6.595  0.1345  0.0902 -3.3815
  817SOL     OW 3349   6.019   6.372   5.271  0.2308 -1.1503  0.4738
  817SOL    HW1 3350   5.988   6.449   5.216  0.3696 -0.8266  0.8426
  817SOL    HW2 3351   5.996   6.286   5.225  0.0346 -0.8899  0.0839
  818SOL     OW 3352   6.998   3.521   5.059  0.0637 -0.4687  0.2897
  818SOL    HW1 3353   6.967   3.581   4.985  0.5258 -1.5845 -0.8475
  818SOL    HW2 3354   6.980   3.565   5.147 -1.8361  0.2773 -0.4137
  819SOL     OW 3355   0.255   1.983   2.107  0.0754  0.6314 -0.4211
  819SOL    HW1 3356   0.229   1.958   2.200  0.0557 -1.0637 -0.8434
  819SOL    HW2 3357   0.204   2.064   2.078 -1.3995  0.0192  0.3622
  820SOL     OW 3358   6.505   1.439   2.727 -0.2396 -0.4077 -0.0237
  820SOL    HW1 3359   6.550   1.371   2.784 -1.7993 -2.5119 -1.1684
  820SOL    HW2 3360   6.571   1.510   2.701  1.2215 -0.9895  1.9061
  821SOL     OW 3361   1.598   5.222   4.365  0.1845  0.0027 -0.0973
  821SOL    HW1 3362   1.558   5.131   4.358  0.2838 -0.0403 -0.1011
  821SOL    HW2 3363   1.687   5.223   4.320  1.0536 -0.4054  1.5504
  822SOL     OW 3364   6.581   0.702   2.590  0.2339  0.8170  0.1354
  822SOL    HW1 3365   6.578   0.741   2.497  2.2453 -0.6436 -0.6149
  822SOL    HW2 3366   6.657   0.743   2.640  1.1549 -0.6555  0.0014
  823SOL     OW 3367   4.209   0.012   3.299 -0.4928  0.2747 -0.1942
  823SOL    HW1 3368   4.186  -0.037   3.384 -0.1464 -0.0346 -0.2812
  823SOL    HW2 3369   4.301  -0.013   3.270 -0.6786  0.2503 -0.7613
  824SOL     OW 3370   2.863   6.958   1.205  0.3611 -0.2417 -0.3136
  824SOL    HW1 3371   2.862   6.858   1.199 -2.2954 -0.2616 -0.6158
  824SOL    HW2 3372   2.818   6.997   1.124  2.2879  1.2795 -0.7214
  825SOL     OW 3373   0.497   5.922   5.747  0.6187  1.1490 -0.3850
  825SOL    HW1 3374   0.562   5.846   5.748  0.4336  0.9908 -0.1636
  825SOL    HW2 3375   0.430   5.909   5.674 -0.3783  0.2642  0.6367
  826SOL     OW 3376   3.615   0.691   6.798  0.4606  0.3277 -0.1012
  826SOL    HW1 3377   3.627   0.629   6.721 -1.2568 -1.0389  0.6512
  826SOL    HW2 3378   3.589   0.638   6.879  0.9839  1.8467  1.1026
  827SOL     OW 3379   5.071   2.909   6.146  0.4443 -0.1229 -0.2160
  827SOL    HW1 3380   5.164   2.879   6.168 -0.1373 -1.3310  0.6891
  827SOL    HW2 3381   5.010   2.830   6.140 -1.1997  0.8185  2.3806
  828SOL     OW 3382   0.840   1.398   0.772  0.4060 -0.1704  0.2954
  828SOL    HW1 3383   0.794   1.412   0.859 -0.7572 -0.6653 -0.2161
  828SOL    HW2 3384   0.782   1.432   0.698  1.7736  1.1038 -0.2503
  829SOL     OW 3385   1.162   2.036   4.453  0.0114 -0.2695 -0.0125
  829SOL    HW1 3386   1.227   1.996   4.388 -0.2004 -0.7932  0.1006
  829SOL    HW2 3387   1.166   2.136   4.445  1.5124 -0.2522  0.6539
  830SOL     OW 3388   5.586   2.043   5.356  0.6310 -0.3654  0.1174
  830SOL    HW1 3389   5.516   2.080   5.416  0.2435 -1.9523  0.6790
  830SOL    HW2 3390   5.667   2.020   5.410  0.5458 -1.1365 -0.0780
  831SOL     OW 3391   2.927   1.153   2.702 -0.4714 -0.2321  0.0872
  831SOL    HW1 3392   2.939   1.210   2.620 -0.0275  0.0142  0.3142
  831SOL    HW2 3393   2.930   1.057   2.676  2.1173 -0.2364  0.0567
  832SOL     OW 3394   4.625   4.416   2.677  1.2087 -0.4300 -0.1147
  832SOL    HW1 3395   4.713   4.382   2.645  0.7268 -2.1663  0.3160
  832SOL    HW2 3396   4.593   4.360   2.752  0.8463  1.6657  1.3952
  833SOL     OW 3397   4.215   1.221   3.262  0.1245  0.1008  0.9354
  833SOL    HW1 3398   4.279   1.224   3.339 -0.0621 -1.0796  1.1448
  833SOL    HW2 3399   4.244   1.152   3.196  0.1960  0.9964  0.0044
  834SOL     OW 3400   3.244   0.577   5.301 -0.2562 -0.4142 -0.7008
  834SOL    HW1 3401   3.185   0.595   5.223  0.2521 -1.6955 -1.4113
  834SOL    HW2 3402   3.334   0.545   5.269  1.6572  3.4709  0.2457
  835SOL     OW 3403   1.076   6.118   0.911 -0.6896  0.3720 -0.1145
  835SOL    HW1 3404   1.149   6.158   0.857 -3.2147  1.1397 -3.3029
  835SOL    HW2 3405   1.038   6.039   0.863 -2.1581  0.1940  1.2421
  836SOL     OW 3406   6.424   5.165   6.803 -0.4274  0.0971 -0.5801
  836SOL    HW1 3407   6.485   5.234   6.763  0.5750 -0.0864  0.5719
  836SOL    HW2 3408   6.346   5.211   6.846 -0.7827  0.3755 -1.4873
  837SOL     OW 3409   0.109   6.869   6.304  0.1508  0.7942  0.0788
  837SOL    HW1 3410   0.077   6.890   6.396 -0.7194  0.3494 -0.1186
  837SOL    HW2 3411   0.071   6.936   6.239  0.4508  0.8759 -0.0158
  838SOL     OW 3412   3.966   2.515   5.399  0.2602 -0.2765 -0.2446
  838SOL    HW1 3413   4.041   2.520   5.334  1.2552  1.4676  0.9314
  838SOL    HW2 3414   3.904   2.593   5.384  0.3652  0.0014  0.6888
  839SOL     OW 3415   1.278   2.853   3.947  1.0461  0.0064 -0.3250
  839SOL    HW1 3416   1.373   2.851   3.916  0.9491 -0.6814 -0.5875
  839SOL    HW2 3417   1.234   2.936   3.912  2.0994  1.4354  1.5265
  840SOL     OW 3418   4.779   4.900   3.172  0.5587  0.0125  0.0313
  840SOL    HW1 3419   4.746   4.941   3.087 -0.0507  1.5862  0.9816
  840SOL    HW2 3420   4.863   4.849   3.154  1.1134  1.3359 -1.3145
  841SOL     OW 3421   5.981   0.567   5.246 -0.3160 -0.4591 -0.5503
  841SOL    HW1 3422   5.925   0.491   5.212  1.2702 -2.3577  0.8301
  841SOL    HW2 3423   6.074   0.558   5.211  0.2254  0.0726  0.6800
  842SOL     OW 3424   2.680   1.921   6.092 -0.3091 -0.2807 -0.0087
  842SOL    HW1 3425   2.764   1.883   6.132  0.3806 -0.2037 -1.3409
  842SOL    HW2 3426   2.640   1.855   6.030  1.1494  1.2147 -2.7165
  843SOL     OW 3427   3.071   3.003   1.613  0.2071  0.0677 -0.1342
  843SOL    HW1 3428   3.106   3.056   1.690 -1.6796  0.7773  0.3073
  843SOL    HW2 3429   2.995   3.053   1.571 -1.9242 -2.3900  0.5417
  844SOL     OW 3430   3.649   0.057   0.225 -0.1763  0.2877  0.1572
  844SOL    HW1 3431   3.730   0.083   0.174 -1.6416  2.3206 -1.2916
  844SOL    HW2 3432   3.647  -0.043   0.236  2.0408  0.1221 -0.4823
  845SOL     OW 3433   6.896   4.692   4.202  0.1476 -0.2469 -0.1987
  845SOL    HW1 3434   6.896   4.683   4.301  1.4355  0.3858 -0.1175
  845SOL    HW2 3435   6.873   4.786   4.177 -0.4717 -0.4771 -0.5230
  846SOL     OW 3436   0.578   5.931   1.568  0.7488  0.0707  0.2134
  846SOL    HW1 3437   0.579   5.903   1.472  1.0161 -0.9700  0.5098
  846SOL    HW2 3438   0.631   6.015   1.579  2.4094 -0.8572 -0.2586
  847SOL     OW 3439   1.270   4.933   1.565 -0.0212  0.0537  0.1528
  847SOL    HW1 3440   1.224   5.020   1.585 -0.0427 -0.3516  2.0254
  847SOL    HW2 3441   1.224   4.888   1.489  1.2251  2.5768 -2.3048
  848SOL     OW 3442   5.401   2.603   1.059  0.1480  0.1998  0.0239
  848SOL    HW1 3443   5.413   2.685   1.003  0.7869 -0.0834 -0.2640
  848SOL    HW2 3444   5.308   2.567   1.046 -0.8922  2.0567  1.7708
  849SOL     OW 3445   1.498   5.532   6.329  0.0771 -0.2496  0.1708
  849SOL    HW1 3446   1.452   5.468   6.390  0.1606 -0.7537 -0.2851
  849SOL    HW2 3447   1.449   5.536   6.242  0.8594 -0.7589 -0.3048
  850SOL     OW 3448   5.936   3.961   0.525  0.1150  0.0059 -0.4522
  850SOL    HW1 3449   6.002   4.033   0.503  1.0899 -0.1621  1.6382
  850SOL    HW2 3450   5.873   3.994   0.596  0.2996 -1.0284  0.2167
  851SOL     OW 3451   2.405   1.583   0.599  0.0034  0.2857 -0.1768
  851SOL    HW1 3452   2.418   1.659   0.536  2.1374  0.1656  0.0475
  851SOL    HW2 3453   2.394   1.498   0.547  2.5792  0.0572 -0.4891
  852SOL     OW 3454   3.619   3.944   5.837  0.1341 -0.0591 -0.0383
  852SOL    HW1 3455   3.529   3.988   5.836  0.4605  0.6283  0.0971
  852SOL    HW2 3456   3.609   3.848   5.863 -0.5113  0.1241  0.4151
  853SOL     OW 3457   1.999   4.509   4.450 -0.1633 -0.0454  0.2149
  853SOL    HW1 3458   1.911   4.550   4.427 -0.2733  0.3373  1.2860
  853SOL    HW2 3459   1.984   4.427   4.506  0.1775  0.1912  0.6520
  854SOL     OW 3460   0.028   3.518   5.883  0.0380  0.0220  0.1968
  854SOL    HW1 3461   0.072   3.584   5.944 -0.3532  1.0266 -0.5846
  854SOL    HW2 3462  -0.027   3.454   5.937  0.5687  0.2148  0.9799
  855SOL     OW 3463   5.491   2.995   4.282 -0.6136  0.7051  0.2914
  855SOL    HW1 3464   5.547   2.942   4.346 -1.3542 -0.4435  0.0164
  855SOL    HW2 3465   5.399   3.006   4.319 -1.1654 -0.3074 -0.7141
  856SOL     OW 3466   0.957   0.209   2.298  0.5414 -0.5590 -0.3692
  856SOL    HW1 3467   0.863   0.176   2.310  0.0886  0.6084 -0.6001
  856SOL    HW2 3468   0.963   0.304   2.328  1.7647 -0.7638  0.0687
  857SOL     OW 3469   1.681   2.651   4.898  0.0906 -0.1866  0.6822
  857SOL    HW1 3470   1.752   2.605   4.952  2.2065 -0.1331 -1.8237
  857SOL    HW2 3471   1.711   2.744   4.876 -0.6252 -0.2331 -0.5967
  858SOL     OW 3472   6.501   5.451   0.297  0.3649 -0.3837 -0.3492
  858SOL    HW1 3473   6.496   5.351   0.299 -2.4736 -0.3609 -1.3991
  858SOL    HW2 3474   6.548   5.480   0.213  3.0634 -0.7524  0.9249
  859SOL     OW 3475   6.520   0.459   0.037  0.0378  0.2272  0.3404
  859SOL    HW1 3476   6.518   0.510   0.123  0.1280  0.8410 -0.0142
  859SOL    HW2 3477   6.429   0.420   0.020  0.0731 -0.0743  0.8122
  860SOL     OW 3478   1.259   0.867   0.708  0.1529 -0.1310  0.0850
  860SOL    HW1 3479   1.246   0.840   0.804  0.3515 -0.1924  0.0936
  860SOL    HW2 3480   1.169   0.887   0.667  0.1583  1.1475  0.6446
  861SOL     OW 3481   0.613   5.854   3.932  0.0446  0.0364  0.1414
  861SOL    HW1 3482   0.517   5.828   3.920 -0.1790 -1.3115  3.5657
  861SOL    HW2 3483   0.622   5.953   3.927 -1.3075  0.1323 -1.1585
  862SOL     OW 3484   5.738   2.392   2.986  0.7602 -0.1330  0.4560
  862SOL    HW1 3485   5.825   2.435   3.009  1.0203 -0.6265  0.4160
  862SOL    HW2 3486   5.739   2.361   2.891 -0.3553  1.9909 -0.3171
  863SOL     OW 3487   4.854   0.244   4.352  0.5459 -0.6108 -0.4239
  863SOL    HW1 3488   4.916   0.305   4.402 -1.0562  1.7104 -1.1111
  863SOL    HW2 3489   4.879   0.245   4.255 -0.3912  0.1796 -0.6700
  864SOL     OW 3490   6.926   0.510   1.584 -0.8913 -0.4573  0.1948
  864SOL    HW1 3491   6.841   0.537   1.538 -1.1690 -2.0291 -0.2629
  864SOL    HW2 3492   6.981   0.454   1.523 -0.1674 -0.5996  0.9634
  865SOL     OW 3493   6.943   3.075   4.043  0.1947 -0.3831 -0.2676
  865SOL    HW1 3494   6.875   3.044   4.109 -2.4810 -0.4194 -2.8132
  865SOL    HW2 3495   6.934   3.173   4.029 -1.1820 -0.7297 -2.3796
  866SOL     OW 3496   3.507   0.440   5.540 -0.1183  0.5883 -0.0835
  866SOL    HW1 3497   3.478   0.347   5.518 -0.8127  1.2138 -1.9901
  866SOL    HW2 3498   3.585   0.465   5.482  0.3449  1.0556  0.7178
  867SOL     OW 3499   5.674   5.411   2.387 -0.0346  0.2869 -0.5326
  867SOL    HW1 3500   5.594   5.436   2.332 -0.5755 -1.8310 -0.8245
  867SOL    HW2 3501   5.745   5.373   2.326  0.3371  0.1597 -0.0267
  868SOL     OW 3502   1.904   1.374   0.991  0.2159 -1.1338 -0.0406
  868SOL    HW1 3503   1.904   1.405   1.086 -1.7054 -1.1204 -0.0051
  868SOL    HW2 3504   1.997   1.378   0.954  0.6699  0.9045  1.1691
  869SOL     OW 3505   0.283   1.465   4.239  0.4643 -0.4182 -0.2164
  869SOL    HW1 3506   0.288   1.550   4.186  1.0980  0.1018  0.6448
  869SOL    HW2 3507   0.212   1.406   4.200  0.1672  0.4011 -0.9729
  870SOL     OW 3508   0.602   2.364   0.866  0.2469 -0.1977 -0.2661
  870SOL    HW1 3509   0.649   2.414   0.794 -0.1059  0.5154 -0.0081
  870SOL    HW2 3510   0.670   2.322   0.927  0.5435 -0.6286 -0.8783
  871SOL     OW 3511   6.308   5.318   1.697 -0.3537 -0.3796 -0.2271
  871SOL    HW1 3512   6.276   5.272   1.614  0.4443  0.6073 -1.1002
  871SOL    HW2 3513   6.241   5.303   1.771 -1.3184 -0.8662 -1.1706
  872SOL     OW 3514   0.951   1.634   0.971 -0.0515  0.4283 -0.1163
  872SOL    HW1 3515   0.879   1.628   0.902 -0.4119  1.2683  0.1783
  872SOL    HW2 3516   0.970   1.730   0.991  2.2592  0.3102 -1.3439
  873SOL     OW 3517   1.508   6.546   3.516 -0.5527  0.6461 -0.0312
  873SOL    HW1 3518   1.492   6.638   3.480  0.5826  1.1142  0.6007
  873SOL    HW2 3519   1.605   6.522   3.503 -0.2452  0.5627  2.0381
  874SOL     OW 3520   2.772   6.910   6.529 -0.3256  0.3102  0.4313
  874SOL    HW1 3521   2.803   6.951   6.614 -1.6941  1.5610  0.3698
  874SOL    HW2 3522   2.840   6.927   6.457 -0.6399  2.1919  0.5085
  875SOL     OW 3523   0.631   0.361   4.228  0.2333  0.1221  0.1544
  875SOL    HW1 3524   0.689   0.381   4.149 -1.6905  1.3558 -1.0472
  875SOL    HW2 3525   0.554   0.304   4.199 -0.8448  1.1171  0.9717
  876SOL     OW 3526   3.431   0.592   4.428 -0.0677 -0.4401  0.2739
  876SOL    HW1 3527   3.510   0.535   4.449 -0.2722 -1.4808 -1.5570
  876SOL    HW2 3528   3.462   0.680   4.390  0.2423 -1.3839 -1.7485
  877SOL     OW 3529   3.219   3.069   3.238 -0.4690 -0.0890 -0.0563
  877SOL    HW1 3530   3.265   3.146   3.283 -2.1019  0.5794  0.5488
  877SOL    HW2 3531   3.198   3.094   3.144 -1.8422  0.6278  0.4061
  878SOL     OW 3532   1.710   3.649   6.246 -0.1448  0.3855 -0.1883
  878SOL    HW1 3533   1.615   3.638   6.219 -0.2282  0.0549  0.2280
  878SOL    HW2 3534   1.738   3.571   6.302  0.5970  0.0912 -0.9443
  879SOL     OW 3535   6.448   2.170   0.496  0.2415 -0.2975 -0.3974
  879SOL    HW1 3536   6.480   2.097   0.556  1.1978 -1.0529 -1.7717
  879SOL    HW2 3537   6.368   2.138   0.445  1.1323 -0.7353 -1.5868
  880SOL     OW 3538   3.094   6.039   2.030 -0.5760 -0.3543  0.1809
  880SOL    HW1 3539   3.122   5.952   1.990 -4.1634 -0.6793 -2.1426
  880SOL    HW2 3540   3.147   6.114   1.990  0.1588 -1.2096 -0.4614
  881SOL     OW 3541   3.351   5.749   4.418  0.2670  0.3619  0.0248
  881SOL    HW1 3542   3.445   5.714   4.420 -0.1489 -0.8078 -0.2915
  881SOL    HW2 3543   3.294   5.689   4.363 -0.8200  0.6944  0.7607
  882SOL     OW 3544   2.877   0.936   4.357 -0.1169  0.0230  0.4307
  882SOL    HW1 3545   2.827   0.868   4.303 -1.5057 -0.8789  2.6980
  882SOL    HW2 3546   2.974   0.912   4.359  0.0261  0.1974 -1.7185
  883SOL     OW 3547   4.825   3.791   3.756  0.2010  0.7015  0.1116
  883SOL    HW1 3548   4.799   3.879   3.717  3.4570  1.7308  0.0009
  883SOL    HW2 3549   4.830   3.722   3.684 -0.9322  0.7555 -0.0364
  884SOL     OW 3550   2.624   0.110   6.149 -0.3628 -0.4708  0.3360
  884SOL    HW1 3551   2.537   0.067   6.126  0.4129 -1.1316 -1.6700
  884SOL    HW2 3552   2.611   0.209   6.159 -1.0851 -0.2809 -1.8536
  885SOL     OW 3553   3.292   1.411   0.034 -0.0113  0.2326  0.7500
  885SOL    HW1 3554   3.279   1.448  -0.058 -0.3562 -1.3546  0.1305
  885SOL    HW2 3555   3.338   1.479   0.091 -1.6263  2.0202  0.0169
  886SOL     OW 3556   1.469   0.982   0.396  0.2011 -0.5052 -0.1757
  886SOL    HW1 3557   1.517   1.041   0.331  1.2843  1.3102  2.1321
  886SOL    HW2 3558   1.522   0.899   0.412  1.3581  0.3306  0.4437
  887SOL     OW 3559   0.333   0.583   1.567 -0.0827 -0.3789  0.0075
  887SOL    HW1 3560   0.390   0.644   1.621 -0.0785 -0.5061  0.1469
  887SOL    HW2 3561   0.239   0.588   1.599 -0.3537  0.6107 -0.8943
  888SOL     OW 3562   6.824   2.008   6.659  0.2060 -0.3770  0.1738
  888SOL    HW1 3563   6.919   2.001   6.688  0.1039 -1.4614  0.2789
  888SOL    HW2 3564   6.813   1.964   6.570  0.1961  1.5370 -0.8223
  889SOL     OW 3565   2.385   3.977   0.572 -0.4878 -0.7357  0.2495
  889SOL    HW1 3566   2.368   3.977   0.671 -0.5038  1.0002  0.2822
  889SOL    HW2 3567   2.483   3.983   0.555 -0.4847 -1.0438  0.1528
  890SOL     OW 3568   4.787   4.239   2.045 -0.1006 -0.5458  0.2171
  890SOL    HW1 3569   4.687   4.229   2.046 -0.4718  1.9802 -1.5785
  890SOL    HW2 3570   4.813   4.306   1.975  3.0383 -2.6072 -0.8196
  891SOL     OW 3571   0.077   6.189   5.410 -0.2505 -0.3943  0.1067
  891SOL    HW1 3572   0.130   6.272   5.396 -0.9007 -0.2630 -1.9442
  891SOL    HW2 3573  -0.011   6.212   5.451  0.1391 -0.2595  0.8713
  892SOL     OW 3574   0.154   0.871   2.690  0.4278 -0.6509  0.2735
  892SOL    HW1 3575   0.088   0.873   2.765  0.8474 -0.9953  0.6519
  892SOL    HW2 3576   0.165   0.964   2.653  1.2096 -0.2300  1.5059
  893SOL     OW 3577   2.782   5.095   3.772  0.4700  0.1388  0.5604
  893SOL    HW1 3578   2.836   5.011   3.770 -2.2375 -1.8210  3.0512
  893SOL    HW2 3579   2.755   5.119   3.679  1.8643 -1.2914 -0.2707
  894SOL     OW 3580   4.403   1.660   0.398 -0.4143 -0.2456  0.9518
  894SOL    HW1 3581   4.461   1.612   0.464  0.5070  0.5792  0.7858
  894SOL    HW2 3582   4.347   1.727   0.446  0.2668  0.3652  0.9183
  895SOL     OW 3583   6.081   0.721   1.622 -0.0096  0.2149  0.1441
  895SOL    HW1 3584   6.051   0.674   1.539  0.5195 -0.5704  0.3846
  895SOL    HW2 3585   6.070   0.660   1.700 -0.3496  0.8928  0.6312
  896SOL     OW 3586   2.652   2.977   6.988  0.5184  0.2631 -0.3133
  896SOL    HW1 3587   2.640   3.076   6.991 -2.8232 -0.0139 -0.9375
  896SOL    HW2 3588   2.653   2.941   7.081 -0.5246  0.7302 -0.1024
  897SOL     OW 3589   4.939   2.305   6.951 -0.2591  0.1307  0.1348
  897SOL    HW1 3590   4.872   2.292   6.878 -0.0821  1.9714 -0.4098
  897SOL    HW2 3591   4.909   2.379   7.011  0.5050 -0.1089  0.8290
  898SOL     OW 3592   1.355   6.303   6.509  0.3222 -0.6471 -0.2362
  898SOL    HW1 3593   1.311   6.235   6.450  0.9234 -0.3631 -1.0190
  898SOL    HW2 3594   1.285   6.361   6.550 -0.0573 -0.2161 -1.4466
  899SOL     OW 3595   0.806   5.302   3.314  0.4972  0.6860 -0.1964
  899SOL    HW1 3596   0.777   5.207   3.302 -1.0890  1.0901  0.2771
  899SOL    HW2 3597   0.760   5.359   3.247 -1.3356  1.6173  1.7490
  900SOL     OW 3598   1.624   0.952   6.958 -0.2078  0.8257  0.5467
  900SOL    HW1 3599   1.560   0.877   6.972 -2.1406  1.4214 -3.7638
  900SOL    HW2 3600   1.715   0.924   6.989 -0.9323 -3.0878 -0.3590
  901SOL     OW 3601   3.338   5.660   6.269 -0.8064  0.1559  0.4148
  901SOL    HW1 3602   3.368   5.693   6.358 -1.3878  0.7132  0.4081
  901SOL    HW2 3603   3.313   5.737   6.211  0.4172 -0.1326 -0.5586
  902SOL     OW 3604   2.211   4.166   5.675 -0.7112 -0.0015  0.3211
  902SOL    HW1 3605   2.201   4.169   5.575  1.4632  0.0547  0.0487
  902SOL    HW2 3606   2.225   4.072   5.704 -0.3457  0.0909  0.4470
  903SOL     OW 3607   6.939   0.846   0.358  0.6003 -0.5442  0.1744
  903SOL    HW1 3608   6.946   0.750   0.384  1.7968 -0.3846  0.4987
  903SOL    HW2 3609   6.997   0.863   0.278  1.2456  0.1322  0.7740
  904SOL     OW 3610   5.212   2.048   3.528 -0.8304  0.0465 -0.0366
  904SOL    HW1 3611   5.138   2.093   3.478 -1.1215 -1.9070 -1.4615
  904SOL    HW2 3612   5.271   2.118   3.569 -1.5462  1.6966 -1.6813
  905SOL     OW 3613   2.243   0.965   1.470 -0.2963  0.6181 -0.3048
  905SOL    HW1 3614   2.224   1.059   1.500 -0.1778  0.4268  0.3817
  905SOL    HW2 3615   2.217   0.955   1.374 -2.4114  0.7338  0.2111
  906SOL     OW 3616   2.233   4.169   4.420 -0.3071  0.3482 -0.1730
  906SOL    HW1 3617   2.203   4.178   4.325 -1.5745  1.6070  0.2889
  906SOL    HW2 3618   2.207   4.079   4.455 -2.0273  0.7291 -0.3495
  907SOL     OW 3619   0.912   2.461   0.229 -0.2066  0.4439  0.2024
  907SOL    HW1 3620   0.900   2.561   0.227  1.5944  0.6892 -0.0361
  907SOL    HW2 3621   0.853   2.420   0.160 -0.2646  1.4356 -0.3651
  908SOL     OW 3622   6.961   1.464   5.592 -0.0022  0.0038  0.2484
  908SOL    HW1 3623   7.053   1.483   5.624  0.2329  0.9508 -0.9173
  908SOL    HW2 3624   6.897   1.527   5.636  0.3007  1.2057 -0.9619
  909SOL     OW 3625   2.463   0.264   3.741 -0.6844 -0.5361  0.1235
  909SOL    HW1 3626   2.379   0.304   3.705 -0.4154  0.6348  0.7321
  909SOL    HW2 3627   2.476   0.294   3.836  0.8959  0.1158 -0.2573
  910SOL     OW 3628   0.527   0.973   1.189 -0.5377 -0.2271  0.1412
  910SOL    HW1 3629   0.465   1.042   1.228  0.5521  1.4891 -0.9858
  910SOL    HW2 3630   0.611   1.018   1.159  0.1843 -2.0764 -0.7544
  911SOL     OW 3631   2.136   1.309   6.147  0.8052 -0.1414 -0.1156
  911SOL    HW1 3632   2.177   1.344   6.231  2.1901  0.2124 -0.9086
  911SOL    HW2 3633   2.073   1.378   6.110  0.7675  0.0077  0.2241
  912SOL     OW 3634   3.322   5.373   0.048  0.1494 -0.0820  0.1156
  912SOL    HW1 3635   3.401   5.312   0.045 -0.7273 -1.2373 -1.8391
  912SOL    HW2 3636   3.353   5.468   0.044  1.4534 -0.4712  0.4951
  913SOL     OW 3637   4.815   6.400   3.037  0.0952 -0.3352  0.2245
  913SOL    HW1 3638   4.718   6.383   3.054 -0.0251  0.0956 -0.0250
  913SOL    HW2 3639   4.832   6.498   3.035  0.4832 -0.4039 -0.0454
  914SOL     OW 3640   4.527   0.274   5.286  0.5650 -0.1424  0.1462
  914SOL    HW1 3641   4.487   0.329   5.213  0.6482 -0.7723 -0.3819
  914SOL    HW2 3642   4.546   0.182   5.252 -0.6260 -0.8601  1.3400
  915SOL     OW 3643   4.726   0.818   0.670  0.1757 -0.2440 -0.0335
  915SOL    HW1 3644   4.741   0.769   0.584  0.5198 -0.1775 -0.0142
  915SOL    HW2 3645   4.745   0.915   0.657  0.0637 -0.2077  0.0757
  916SOL     OW 3646   4.936   2.069   2.116 -0.2889  0.1658  0.1040
  916SOL    HW1 3647   4.861   2.002   2.115 -0.0071 -0.2607 -3.2329
  916SOL    HW2 3648   5.020   2.026   2.083 -0.2520  2.1865 -2.8192
  917SOL     OW 3649   3.832   2.491   6.747  0.2108 -0.4059  0.1640
  917SOL    HW1 3650   3.790   2.467   6.834  1.1785 -1.7959  0.2731
  917SOL    HW2 3651   3.829   2.591   6.735 -1.8786 -0.3417  0.7594
  918SOL     OW 3652   6.529   4.836   6.056  0.5103 -0.5377 -0.5150
  918SOL    HW1 3653   6.590   4.768   6.016  0.1236 -0.9036 -0.4872
  918SOL    HW2 3654   6.435   4.819   6.025  0.7236  1.4435 -2.5004
  919SOL     OW 3655   1.213   0.389   4.488  0.1378  0.1501  0.0114
  919SOL    HW1 3656   1.194   0.304   4.440 -0.9280  0.9196 -0.9762
  919SOL    HW2 3657   1.129   0.442   4.496  1.0657  1.8235 -0.7963
  920SOL     OW 3658   6.109   1.433   1.708 -0.0874  0.1609  0.0278
  920SOL    HW1 3659   6.208   1.428   1.698 -0.2644 -0.3420 -1.8535
  920SOL    HW2 3660   6.072   1.498   1.641 -1.0133  0.5809  0.9223
  921SOL     OW 3661   1.484   3.872   5.626  0.0698  0.4008  0.8948
  921SOL    HW1 3662   1.396   3.842   5.589 -0.6516  0.2468  2.6239
  921SOL    HW2 3663   1.503   3.822   5.711 -0.1343  3.2111  2.7384
  922SOL     OW 3664   7.014   3.080   5.022 -0.1744 -0.0739 -0.4183
  922SOL    HW1 3665   7.073   3.117   4.951  0.2759  2.6232  1.2192
  922SOL    HW2 3666   6.919   3.106   5.004 -0.0775  0.4947 -0.1375
  923SOL     OW 3667   0.950   2.651   2.004 -0.0495 -0.1238  0.2350
  923SOL    HW1 3668   0.973   2.579   1.939  0.1138 -1.6161  1.8606
  923SOL    HW2 3669   1.034   2.686   2.046 -0.1797  0.5698 -0.0696
  924SOL     OW 3670   3.311   3.074   0.398  0.1467 -0.2156 -0.6985
  924SOL    HW1 3671   3.232   3.079   0.337 -1.5888 -1.1808  1.3624
  924SOL    HW2 3672   3.306   3.146   0.466  0.3800 -1.0026  0.1741
  925SOL     OW 3673   0.223   2.426   1.460  0.5424  0.2683 -0.1071
  925SOL    HW1 3674   0.268   2.486   1.394  0.1635  1.0232  0.2963
  925SOL    HW2 3675   0.271   2.431   1.547  1.6621 -1.5313 -0.5896
  926SOL     OW 3676   5.572   3.540   2.108  0.3668 -0.2336 -0.9686
  926SOL    HW1 3677   5.653   3.595   2.130  0.1195  0.1925 -1.1020
  926SOL    HW2 3678   5.543   3.561   2.015  0.4550 -0.8306 -1.1323
  927SOL     OW 3679   2.083   3.430   1.562  0.4341  0.0755 -0.0529
  927SOL    HW1 3680   2.010   3.393   1.505  0.2550 -2.0512  1.4203
  927SOL    HW2 3681   2.131   3.503   1.513 -0.8652 -0.3945 -2.1400
  928SOL     OW 3682   5.725   4.184   5.140 -0.9689 -0.3897  0.1306
  928SOL    HW1 3683   5.819   4.151   5.131 -1.2353 -1.6443  1.6071
  928SOL    HW2 3684   5.717   4.242   5.221 -1.0853  1.3088 -1.0397
  929SOL     OW 3685   6.546   2.414   5.761  0.3480 -0.0333 -0.2156
  929SOL    HW1 3686   6.460   2.416   5.812  1.1375  0.9766  1.1423
  929SOL    HW2 3687   6.528   2.439   5.666 -0.6319  2.2040  0.4752
  930SOL     OW 3688   6.878   1.372   3.794  0.5717 -0.1141 -0.6039
  930SOL    HW1 3689   6.876   1.431   3.875  3.6337  0.0880 -0.5387
  930SOL    HW2 3690   6.920   1.285   3.819  1.1089 -0.2240 -1.8463
  931SOL     OW 3691   6.814   1.836   5.071 -0.3651  0.3138  0.0360
  931SOL    HW1 3692   6.811   1.855   5.170 -1.2243  2.5695 -0.3473
  931SOL    HW2 3693   6.810   1.737   5.056  0.1981 -0.1087  2.2570
  932SOL     OW 3694   4.781   6.667   0.566  0.1007  0.2598 -0.7744
  932SOL    HW1 3695   4.797   6.671   0.467 -0.2329 -0.1652 -0.8474
  932SOL    HW2 3696   4.726   6.586   0.588 -0.9416  1.0618 -0.3843
  933SOL     OW 3697   4.434   3.335   6.073  0.5684  0.1029 -0.3328
  933SOL    HW1 3698   4.412   3.249   6.119  0.6224  0.2747  0.0215
  933SOL    HW2 3699   4.350   3.385   6.053  0.5963  0.7799  1.0605
  934SOL     OW 3700   5.858   5.197   4.995  0.3741 -0.7077 -0.4962
  934SOL    HW1 3701   5.933   5.255   4.962  0.0854 -1.0579 -1.8202
  934SOL    HW2 3702   5.786   5.255   5.033  1.2343 -0.3610  0.6488
  935SOL     OW 3703   6.236   6.951   4.234  0.5718  0.3102 -0.4021
  935SOL    HW1 3704   6.253   6.859   4.201  0.8782  0.0349  0.4948
  935SOL    HW2 3705   6.141   6.958   4.265  0.9221 -0.1445  0.8555
  936SOL     OW 3706   5.378   1.249   4.746 -0.4385 -0.4573  0.3307
  936SOL    HW1 3707   5.467   1.207   4.767 -0.0110 -0.0820 -0.6717
  936SOL    HW2 3708   5.370   1.336   4.795 -1.4096 -1.7150  2.5821
  937SOL     OW 3709   3.590   4.169   2.697  0.3393  0.4295  0.4183
  937SOL    HW1 3710   3.600   4.171   2.597  1.3520  0.3682  0.5087
  937SOL    HW2 3711   3.680   4.154   2.739 -0.0739  0.5033  1.3429
  938SOL     OW 3712   0.499   6.111   3.526 -0.5536 -0.1772 -0.3362
  938SOL    HW1 3713   0.480   6.013   3.527  1.7660 -0.7116  1.6836
  938SOL    HW2 3714   0.431   6.159   3.582  0.1069 -1.1176  1.3360
  939SOL     OW 3715   3.004   4.236   1.010  0.0194 -0.1282  0.0959
  939SOL    HW1 3716   2.976   4.143   0.982  2.2299 -1.4881  2.0413
  939SOL    HW2 3717   2.923   4.293   1.019 -1.5187 -2.0957 -0.3347
  940SOL     OW 3718   6.495   4.918   5.422 -0.0637  0.0013  0.5065
  940SOL    HW1 3719   6.540   4.887   5.338 -0.0483  1.9857 -0.2670
  940SOL    HW2 3720   6.399   4.939   5.403  0.0988  1.0669  0.8207
  941SOL     OW 3721   0.859   5.292   4.633  0.2028  0.2825  0.1680
  941SOL    HW1 3722   0.895   5.378   4.598  0.1488  0.1908 -0.1133
  941SOL    HW2 3723   0.826   5.236   4.557  1.2934 -0.4769  0.2372
  942SOL     OW 3724   4.218   5.816   4.224  0.0561 -0.4883 -0.8025
  942SOL    HW1 3725   4.253   5.907   4.203 -1.0683  0.3995  0.9654
  942SOL    HW2 3726   4.227   5.758   4.144  0.1244  1.3823 -2.2139
  943SOL     OW 3727   0.071   5.514   2.871  0.2857  0.1372  0.3218
  943SOL    HW1 3728   0.163   5.493   2.904  0.2731  0.0943  0.3288
  943SOL    HW2 3729   0.004   5.460   2.922  0.4402 -2.0791 -1.7053
  944SOL     OW 3730   3.197   6.468   6.798  1.1891  0.0296 -0.2818
  944SOL    HW1 3731   3.270   6.527   6.764  0.7654 -1.0519 -3.3411
  944SOL    HW2 3732   3.233   6.409   6.870  2.5394  1.4496  0.2729
  945SOL     OW 3733   5.736   2.068   0.669  0.8645  0.2548 -0.2599
  945SOL    HW1 3734   5.639   2.058   0.693  0.8200 -1.8663 -1.0964
  945SOL    HW2 3735   5.790   2.076   0.753 -0.0339  1.8566  0.2074
  946SOL     OW 3736   3.082   1.482   0.644  0.0283  0.0077 -0.6646
  946SOL    HW1 3737   3.109   1.579   0.642 -1.1754  0.3587 -0.5589
  946SOL    HW2 3738   2.985   1.475   0.667  0.5731 -1.3403  1.4413
  947SOL     OW 3739   3.437   4.079   3.114  0.3481  0.1830  0.4658
  947SOL    HW1 3740   3.521   4.108   3.068  0.0163  0.4402  0.0116
  947SOL    HW2 3741   3.450   3.988   3.153 -0.0526 -1.0168 -2.0447
  948SOL     OW 3742   4.385   1.088   6.349  1.1785  0.0541  0.9302
  948SOL    HW1 3743   4.372   0.989   6.341 -0.7665  0.2595  1.0940
  948SOL    HW2 3744   4.449   1.108   6.424  0.8147 -1.0377  1.5451
  949SOL     OW 3745   5.339   6.694   0.442 -0.1721 -0.0945 -0.4211
  949SOL    HW1 3746   5.341   6.595   0.429 -1.3051 -0.7198  3.0720
  949SOL    HW2 3747   5.245   6.724   0.458  0.2021  1.5263 -0.9861
  950SOL     OW 3748   1.232   5.688   2.248 -0.5850  0.5614  0.0330
  950SOL    HW1 3749   1.265   5.777   2.281  0.3721  0.7129 -1.2573
  950SOL    HW2 3750   1.136   5.697   2.221 -0.7002  1.0164  0.5607
  951SOL     OW 3751   5.818   3.399   0.400  0.4979 -0.2477  0.0841
  951SOL    HW1 3752   5.739   3.390   0.339 -0.7166  1.8598  1.2110
  951SOL    HW2 3753   5.849   3.308   0.428 -1.8413 -1.1667 -0.0370
  952SOL     OW 3754   4.046   5.189   2.217  0.0982  0.0088 -0.2840
  952SOL    HW1 3755   3.952   5.162   2.239  0.2192 -1.2283 -1.1675
  952SOL    HW2 3756   4.080   5.252   2.287 -1.2826  0.2472  0.2012
  953SOL     OW 3757   2.653   4.201   5.375  0.0253 -0.0976  0.1187
  953SOL    HW1 3758   2.562   4.179   5.340 -0.0651  1.4265 -0.7060
  953SOL    HW2 3759   2.716   4.127   5.355 -0.9159 -0.9627  0.2711
  954SOL     OW 3760   4.218   4.722   3.015 -0.2429 -0.0766 -0.1286
  954SOL    HW1 3761   4.278   4.755   3.088 -0.3397  0.3696 -0.2495
  954SOL    HW2 3762   4.127   4.703   3.052  0.0507 -1.0539  0.1199
  955SOL     OW 3763   5.247   5.258   1.378  0.2350 -0.3770 -0.3882
  955SOL    HW1 3764   5.167   5.227   1.430 -1.4508  1.1572 -1.9185
  955SOL    HW2 3765   5.246   5.215   1.287 -0.0816  1.2648 -1.1924
  956SOL     OW 3766   6.240   3.606   5.779  0.3340  0.5972  0.1775
  956SOL    HW1 3767   6.196   3.695   5.792 -1.4568 -0.1540 -0.4271
  956SOL    HW2 3768   6.232   3.580   5.682 -1.0824 -1.1435  0.7132
  957SOL     OW 3769   1.973   6.679   1.987  0.2480 -0.2463 -0.2748
  957SOL    HW1 3770   2.008   6.589   2.012  0.0332 -0.7258 -1.6439
  957SOL    HW2 3771   2.004   6.747   2.054  3.9709 -0.5636 -1.4445
  958SOL     OW 3772   5.981   0.430   1.566 -0.4165  0.0537  0.2797
  958SOL    HW1 3773   6.001   0.389   1.655 -2.0915 -0.6467  0.3680
  958SOL    HW2 3774   5.882   0.436   1.554 -0.2149  0.2442 -1.5030
  959SOL     OW 3775   0.657   1.487   5.984 -0.2215 -1.1508  0.1066
  959SOL    HW1 3776   0.750   1.520   5.997  0.1173 -2.8327  2.7057
  959SOL    HW2 3777   0.611   1.541   5.913  2.3521  0.4018 -0.4780
  960SOL     OW 3778   3.601   6.536   0.405  0.1039 -0.0193 -0.3363
  960SOL    HW1 3779   3.667   6.499   0.470 -0.4439 -0.6481 -0.1273
  960SOL    HW2 3780   3.511   6.497   0.424  0.2246 -1.4974 -2.5002
  961SOL     OW 3781   2.634   0.773   2.669  0.3248  0.4047  0.0892
  961SOL    HW1 3782   2.623   0.722   2.584  2.1223 -2.0964  1.2447
  961SOL    HW2 3783   2.543   0.793   2.707 -0.5017 -1.9206 -0.4863
  962SOL     OW 3784   3.644   3.320   4.097  0.0168 -0.4014  0.0934
  962SOL    HW1 3785   3.558   3.274   4.121 -0.4007  0.1917 -0.2496
  962SOL    HW2 3786   3.647   3.334   3.998 -0.0579  0.6894  0.2365
  963SOL     OW 3787   1.524   3.453   2.896  0.3675 -0.0870 -0.2435
  963SOL    HW1 3788   1.512   3.395   2.815  0.0135 -1.5837  0.8491
  963SOL    HW2 3789   1.436   3.464   2.943  0.6362  0.4850  0.1378
  964SOL     OW 3790   2.432   1.153   1.250 -0.1080  0.2440  0.7986
  964SOL    HW1 3791   2.482   1.238   1.232  2.9328 -1.6576 -0.7414
  964SOL    HW2 3792   2.461   1.116   1.338  1.6519 -1.0260 -0.2401
  965SOL     OW 3793   5.089   2.066   3.921  0.2805 -0.3580 -0.1872
  965SOL    HW1 3794   5.013   2.130   3.929 -0.7245 -1.5794  0.3982
  965SOL    HW2 3795   5.099   2.015   4.006  1.3429 -0.6853 -0.4897
  966SOL     OW 3796   0.311   3.141   1.050  0.2724 -0.1482 -0.6055
  966SOL    HW1 3797   0.233   3.081   1.068 -0.8195  1.1737 -0.6946
  966SOL    HW2 3798   0.392   3.087   1.028  0.0477 -1.6817  1.9205
  967SOL     OW 3799   5.130   3.458   4.326 -0.0796 -0.6302 -0.4475
  967SOL    HW1 3800   5.050   3.408   4.292  0.5530 -0.9800 -1.4532
  967SOL    HW2 3801   5.129   3.551   4.288 -0.5770 -0.2751  0.4097
  968SOL     OW 3802   1.458   3.420   5.026 -0.1899 -0.4689 -0.0156
  968SOL    HW1 3803   1.473   3.518   5.044  0.6784 -0.4243 -0.9139
  968SOL    HW2 3804   1.546   3.375   5.010 -0.2694 -1.9639  2.9278
  969SOL     OW 3805   4.134   3.105   0.249  0.0773 -0.4451  0.7357
  969SOL    HW1 3806   4.045   3.077   0.213 -0.7303 -0.8179  2.8979
  969SOL    HW2 3807   4.141   3.204   0.248 -1.6223 -0.2186  3.2058
  970SOL     OW 3808   6.266   3.560   0.920  0.6888 -0.2403  0.2711
  970SOL    HW1 3809   6.249   3.591   0.826  1.0661 -1.4038 -0.2094
  970SOL    HW2 3810   6.364   3.542   0.931  0.1886 -4.6445 -0.6730
  971SOL     OW 3811   3.752   5.746   0.120  0.5570  0.2657  0.3738
  971SOL    HW1 3812   3.774   5.811   0.193  0.1913  0.0587  0.6720
  971SOL    HW2 3813   3.812   5.763   0.042  0.8887  0.5530  0.6839
  972SOL     OW 3814   6.742   5.139   3.463  0.0344 -0.4167  0.2619
  972SOL    HW1 3815   6.706   5.119   3.372  0.8363 -0.1733 -0.1204
  972SOL    HW2 3816   6.842   5.142   3.459  0.0767 -0.4098  1.1540
  973SOL     OW 3817   6.171   2.526   4.082  1.1772  0.5716 -0.2947
  973SOL    HW1 3818   6.232   2.586   4.030 -0.3159 -0.0516 -2.9540
  973SOL    HW2 3819   6.109   2.582   4.138  1.1004  1.4417 -1.2221
  974SOL     OW 3820   6.281   1.461   1.153 -0.9675 -0.7043 -0.0515
  974SOL    HW1 3821   6.187   1.435   1.133 -0.2324 -2.4085 -1.7001
  974SOL    HW2 3822   6.340   1.434   1.076  0.9337 -0.0827  1.1022
  975SOL     OW 3823   6.797   4.817   1.120 -0.2049  0.1065 -0.3534
  975SOL    HW1 3824   6.819   4.909   1.086  3.4115 -0.9347 -1.3470
  975SOL    HW2 3825   6.874   4.783   1.175 -1.4770 -2.2956  0.0789
  976SOL     OW 3826   0.342   5.806   0.795 -0.1367  0.0089 -0.1692
  976SOL    HW1 3827   0.263   5.769   0.844  0.1758 -0.9357 -0.3590
  976SOL    HW2 3828   0.415   5.826   0.860 -0.3655  0.4631 -0.0463
  977SOL     OW 3829   5.765   3.199   2.813  0.2609 -0.1102  0.3888
  977SOL    HW1 3830   5.851   3.200   2.864  0.2501  1.0768  0.3924
  977SOL    HW2 3831   5.754   3.284   2.762  0.8019 -1.6553 -2.5332
  978SOL     OW 3832   3.927   4.322   1.296  0.4094  0.0345 -1.0154
  978SOL    HW1 3833   3.996   4.261   1.336  1.6221  2.9465  1.7523
  978SOL    HW2 3834   3.969   4.376   1.224  0.1464 -0.3095 -1.4313
  979SOL     OW 3835   5.510   3.070   5.177 -0.3593 -0.3475  0.3699
  979SOL    HW1 3836   5.544   3.164   5.173 -1.5534  0.1765  1.6935
  979SOL    HW2 3837   5.548   3.018   5.101 -1.8324  1.9398 -2.1394
  980SOL     OW 3838   0.898   2.401   4.413  0.0206  0.2231  0.5376
  980SOL    HW1 3839   0.905   2.465   4.337 -0.6938  0.3672  0.5809
  980SOL    HW2 3840   0.842   2.442   4.486  1.2579  0.3716  1.4374
  981SOL     OW 3841   5.799   6.592   5.508  0.7264 -0.0200 -0.4101
  981SOL    HW1 3842   5.722   6.655   5.495  2.2626  2.1917  0.6070
  981SOL    HW2 3843   5.884   6.645   5.517  2.1275 -2.2812  0.3443
  982SOL     OW 3844   2.124   6.000   1.472  0.1874 -0.4874  0.1588
  982SOL    HW1 3845   2.135   6.060   1.393 -1.4154 -0.3301  0.0173
  982SOL    HW2 3846   2.027   5.979   1.484  0.6092 -2.2187  0.8212
  983SOL     OW 3847   1.848   5.713   1.850  0.2360  0.2358  0.3317
  983SOL    HW1 3848   1.925   5.655   1.878 -0.2116 -0.7891 -0.4822
  983SOL    HW2 3849   1.852   5.729   1.752 -0.1009  0.9313  0.4256
  984SOL     OW 3850   2.353   3.265   1.348 -0.0461 -0.1831 -0.2035
  984SOL    HW1 3851   2.450   3.251   1.368 -0.0239 -0.0827 -0.2406
  984SOL    HW2 3852   2.322   3.350   1.391  0.1129  0.2635 -0.9609
  985SOL     OW 3853   4.064   5.477   3.758  0.0643  0.5210  0.0393
  985SOL    HW1 3854   4.007   5.418   3.814 -0.6009  1.5577  0.4875
  985SOL    HW2 3855   4.006   5.539   3.705  0.7458  1.0331 -0.1205
  986SOL     OW 3856   5.680   4.643   3.591  0.2242 -0.0002 -0.3684
  986SOL    HW1 3857   5.633   4.565   3.549 -0.4879  0.6982 -0.8885
  986SOL    HW2 3858   5.653   4.651   3.687 -0.7772  0.4247 -0.6719
  987SOL     OW 3859   1.626   5.708   3.035  0.4930 -0.2967 -0.3770
  987SOL    HW1 3860   1.530   5.700   3.006  0.8451 -0.7190 -1.4670
  987SOL    HW2 3861   1.631   5.705   3.134 -0.4610 -2.3644 -0.3323
  988SOL     OW 3862   6.611   3.999   6.854  0.1159  0.7008 -0.3524
  988SOL    HW1 3863   6.528   3.946   6.872  0.2188  1.2243  2.0711
  988SOL    HW2 3864   6.680   3.940   6.812  0.2199 -1.1678  2.1986
  989SOL     OW 3865   0.261   1.186   0.293  0.4651 -0.2210  0.0476
  989SOL    HW1 3866   0.224   1.158   0.205 -1.3125  1.9363  0.0149
  989SOL    HW2 3867   0.351   1.227   0.280  0.2679 -0.0210 -0.7539
  990SOL     OW 3868   1.974   2.062   3.490 -0.4675 -0.8599 -0.0697
  990SOL    HW1 3869   1.894   2.008   3.463 -1.5235  0.4009  0.4304
  990SOL    HW2 3870   1.977   2.068   3.590 -1.1060  1.0162 -0.1255
  991SOL     OW 3871   0.591   1.348   1.341  0.0913 -0.0985 -0.9080
  991SOL    HW1 3872   0.584   1.437   1.387 -1.6387 -0.3704 -0.6017
  991SOL    HW2 3873   0.634   1.282   1.403  1.7643  0.5813 -1.2794
  992SOL     OW 3874   6.925   5.968   4.389 -0.2860  0.3142  0.3417
  992SOL    HW1 3875   6.841   5.917   4.407  0.1315 -0.0593  1.3459
  992SOL    HW2 3876   6.975   5.926   4.314 -0.2188 -0.4476  0.7993
  993SOL     OW 3877   6.631   4.013   5.497  0.3532  0.2788 -0.9030
  993SOL    HW1 3878   6.637   3.914   5.504  0.3488  0.4122  2.4019
  993SOL    HW2 3879   6.723   4.052   5.498  0.3164  0.3948  1.2533
  994SOL     OW 3880   4.634   3.475   0.394 -0.5000  0.3268 -0.0090
  994SOL    HW1 3881   4.707   3.428   0.443 -0.1698  1.3109  0.4598
  994SOL    HW2 3882   4.621   3.432   0.305  0.6745  0.1489 -0.1087
  995SOL     OW 3883   3.827   2.285   1.423  0.0753 -0.0149 -0.5350
  995SOL    HW1 3884   3.731   2.257   1.436 -0.0752  0.6136 -0.2606
  995SOL    HW2 3885   3.831   2.362   1.360  0.4323 -0.2164 -0.7638
  996SOL     OW 3886   1.209   0.523   2.328 -0.0926  0.6006  0.3277
  996SOL    HW1 3887   1.178   0.598   2.270 -0.3024  1.0527  1.0115
  996SOL    HW2 3888   1.132   0.491   2.384 -0.0385 -0.2159 -0.0595
  997SOL     OW 3889   6.845   3.626   4.859 -0.4368  0.1032 -0.2144
  997SOL    HW1 3890   6.809   3.546   4.812  1.7938 -1.6095  0.7901
  997SOL    HW2 3891   6.770   3.681   4.895 -2.0428 -1.3073 -1.2743
  998SOL     OW 3892   0.372   6.335   1.744 -0.3277  0.3101  0.0031
  998SOL    HW1 3893   0.453   6.339   1.686 -0.2031  0.1421  0.1667
  998SOL    HW2 3894   0.400   6.332   1.840 -0.4962 -0.8873  0.0302
  999SOL     OW 3895   5.701   3.470   3.766  0.5819 -0.5144 -0.4377
  999SOL    HW1 3896   5.757   3.540   3.721  0.0767 -0.0329 -0.3297
  999SOL    HW2 3897   5.627   3.443   3.705 -0.5958  0.7380  0.3866
 1000SOL     OW 3898   4.812   1.765   2.325 -0.0177 -0.3271  0.3245
 1000SOL    HW1 3899   4.774   1.819   2.250 -2.3270 -0.8298  1.0656
 1000SOL    HW2 3900   4.895   1.811   2.360 -0.1345  1.0477 -1.0787
 1001SOL     OW 3901   6.487   2.575   3.243  0.1302  0.1246 -0.2801
 1001SOL    HW1 3902   6.531   2.491   3.275 -0.1805  0.4608  1.0988
 1001SOL    HW2 3903   6.536   2.655   3.279  0.5562  0.5651 -1.7550
 1002SOL     OW 3904   6.705   6.738   3.887  0.5425 -0.3119 -0.0794
 1002SOL    HW1 3905   6.762   6.818   3.903 -0.4677  0.1037  1.5920
 1002SOL    HW2 3906   6.737   6.662   3.944  0.5459 -0.6418 -0.5136
 1003SOL     OW 3907   6.417   5.755   6.945  0.1358  0.3851  0.6587
 1003SOL    HW1 3908   6.399   5.853   6.954  0.6845  0.3359  3.1776
 1003SOL    HW2 3909   6.464   5.723   7.028 -1.6798 -2.3791  0.7310
 1004SOL     OW 3910   6.735   1.135   1.396 -0.3882 -0.2567  0.2028
 1004SOL    HW1 3911   6.829   1.103   1.406 -1.3901 -2.8146  3.3981
 1004SOL    HW2 3912   6.728   1.229   1.428  1.1049  0.0605 -0.3381
 1005SOL     OW 3913   2.528   6.461   5.077 -0.0642  0.7501  0.0784
 1005SOL    HW1 3914   2.529   6.561   5.066 -0.5558  0.5894 -1.5975
 1005SOL    HW2 3915   2.622   6.427   5.076  0.0608  1.0971 -0.3781
 1006SOL     OW 3916   3.410   0.656   6.084  0.7006 -0.0099  0.0138
 1006SOL    HW1 3917   3.328   0.697   6.044  0.0728 -0.6914  0.5881
 1006SOL    HW2 3918   3.434   0.573   6.035  2.1837  1.1691 -1.3789
 1007SOL     OW 3919   6.555   5.059   4.825  0.4725 -0.3508 -0.1651
 1007SOL    HW1 3920   6.598   4.969   4.819 -0.7971 -0.9383 -1.2417
 1007SOL    HW2 3921   6.493   5.061   4.904 -0.1585 -0.7676 -0.6279
 1008SOL     OW 3922   6.553   3.066   1.267 -0.3126  0.9275  0.1606
 1008SOL    HW1 3923   6.477   3.119   1.229 -3.2741 -2.3415  0.9336
 1008SOL    HW2 3924   6.591   3.007   1.195  1.8039  2.6697 -0.2695
 1009SOL     OW 3925   5.073   4.628   1.204  0.4438  0.4317  0.4109
 1009SOL    HW1 3926   5.108   4.681   1.127 -0.4524  2.1076  1.0855
 1009SOL    HW2 3927   5.149   4.585   1.253  1.0143 -0.7599 -1.4296
 1010SOL     OW 3928   1.867   5.674   0.179  0.1851 -0.3563 -0.3925
 1010SOL    HW1 3929   1.830   5.589   0.141  0.2807 -1.5355  1.9751
 1010SOL    HW2 3930   1.811   5.751   0.150 -2.5950 -1.7538  0.9070
 1011SOL     OW 3931   6.116   1.150   1.472  0.0041 -0.2186 -0.4733
 1011SOL    HW1 3932   6.209   1.150   1.437  0.2022  0.0472  0.0514
 1011SOL    HW2 3933   6.073   1.239   1.455  0.4705  0.3013  0.9053
 1012SOL     OW 3934   4.928   1.003   2.295 -0.3958  0.6701  0.1821
 1012SOL    HW1 3935   4.841   0.983   2.250 -0.9431  0.0729  1.4429
 1012SOL    HW2 3936   4.932   1.100   2.318 -1.1739  0.5345  0.9616
 1013SOL     OW 3937   5.903   6.662   3.173  0.3917 -0.7655  0.2866
 1013SOL    HW1 3938   5.995   6.637   3.144  0.1873 -0.9305 -0.2532
 1013SOL    HW2 3939   5.898   6.664   3.273  0.7263 -1.7234  0.3301
 1014SOL     OW 3940   4.548   3.458   5.296  0.3252 -0.0229  0.0506
 1014SOL    HW1 3941   4.585   3.522   5.229 -1.0671 -0.3025 -1.0229
 1014SOL    HW2 3942   4.460   3.423   5.264  0.3195 -1.2873  1.3453
 1015SOL     OW 3943   2.752   5.269   4.426  0.1556  0.3039 -1.2085
 1015SOL    HW1 3944   2.715   5.200   4.364  0.2125 -0.2754 -0.6241
 1015SOL    HW2 3945   2.783   5.223   4.510 -1.6633  1.2660  0.0591
 1016SOL     OW 3946   3.379   6.356   0.478 -0.8287 -0.1601  0.3557
 1016SOL    HW1 3947   3.290   6.361   0.433  0.3354  0.5296 -2.0557
 1016SOL    HW2 3948   3.433   6.282   0.437 -0.1358 -0.2784  1.4500
 1017SOL     OW 3949   1.304   6.494   2.407  0.2907 -0.0042  0.2982
 1017SOL    HW1 3950   1.350   6.420   2.455  0.1142 -1.0122 -1.0320
 1017SOL    HW2 3951   1.337   6.499   2.313 -0.1428  1.2248  0.1876
 1018SOL     OW 3952   2.638   2.067   2.851 -0.0749  0.7343  0.1719
 1018SOL    HW1 3953   2.689   2.147   2.819 -0.5330  0.7217 -0.6322
 1018SOL    HW2 3954   2.566   2.046   2.785  0.6391 -0.9059 -0.1347
 1019SOL     OW 3955   2.211   1.703   1.886  0.1421 -0.2053 -0.2992
 1019SOL    HW1 3956   2.151   1.732   1.811  0.8270  1.7351 -0.1595
 1019SOL    HW2 3957   2.267   1.625   1.855 -0.9813 -0.7139 -1.1123
 1020SOL     OW 3958   3.475   3.681   2.030 -0.5122 -0.2200 -0.3292
 1020SOL    HW1 3959   3.411   3.606   2.015 -1.1065 -0.3336  2.3258
 1020SOL    HW2 3960   3.484   3.699   2.128  2.6965  0.5616 -0.6547
 1021SOL     OW 3961   6.040   0.815   5.350 -0.5041 -0.1315 -0.3314
 1021SOL    HW1 3962   5.982   0.875   5.294  0.5746  1.5780  0.2951
 1021SOL    HW2 3963   6.030   0.721   5.319 -2.4016  0.3240 -1.2479
 1022SOL     OW 3964   3.790   4.080   4.113  0.1639  0.0924  0.3517
 1022SOL    HW1 3965   3.885   4.098   4.089  0.4474  1.5210  2.3176
 1022SOL    HW2 3966   3.785   4.003   4.176 -0.0968 -0.4847 -0.3520
 1023SOL     OW 3967   5.123   2.435   3.343 -0.0923  0.1889  0.2940
 1023SOL    HW1 3968   5.157   2.389   3.260  0.9603 -0.3828  1.0196
 1023SOL    HW2 3969   5.083   2.523   3.318 -0.1161 -0.1326 -0.8652
 1024SOL     OW 3970   1.691   0.023   7.018 -0.3917 -0.2807 -0.3339
 1024SOL    HW1 3971   1.777  -0.001   7.062  1.0607  3.3453 -0.8927
 1024SOL    HW2 3972   1.620   0.036   7.087 -0.1728 -1.8681  0.2377
 1025SOL     OW 3973   0.619   6.503   3.990 -0.3670  0.2542 -0.4685
 1025SOL    HW1 3974   0.600   6.416   4.036 -1.6055  0.3982 -0.6941
 1025SOL    HW2 3975   0.574   6.505   3.901 -2.8576  2.2368  0.6898
 1026SOL     OW 3976   0.887   3.716   0.074  0.1835 -0.2017 -0.3885
 1026SOL    HW1 3977   0.936   3.799   0.048 -0.1340 -0.0201 -0.4146
 1026SOL    HW2 3978   0.841   3.678  -0.006  1.0028 -0.8717 -0.5636
 1027SOL     OW 3979   2.126   5.628   0.122 -0.2504 -0.4861 -0.3137
 1027SOL    HW1 3980   2.124   5.594   0.028  0.5478  0.0299 -0.5224
 1027SOL    HW2 3981   2.033   5.627   0.159 -0.3044 -2.6560 -0.3908
 1028SOL     OW 3982   0.105   5.985   1.542  0.0053 -0.0766 -0.0464
 1028SOL    HW1 3983   0.067   5.916   1.481  0.9591 -0.9035  0.2548
 1028SOL    HW2 3984   0.182   6.030   1.497 -1.0096  1.2648 -0.4859
 1029SOL     OW 3985   6.890   3.439   1.812 -0.2342 -0.2476  0.2269
 1029SOL    HW1 3986   6.935   3.524   1.787 -1.0098 -0.0286 -0.4531
 1029SOL    HW2 3987   6.955   3.379   1.860  0.3383  0.6738  0.6173
 1030SOL     OW 3988   2.899   3.365   3.137  0.0583 -0.0426  0.8851
 1030SOL    HW1 3989   2.891   3.462   3.113  0.6767  0.2431  1.7907
 1030SOL    HW2 3990   2.850   3.310   3.069  1.0854  0.7776 -0.5734
 1031SOL     OW 3991   1.550   6.330   5.827 -0.5553 -0.6314  0.0124
 1031SOL    HW1 3992   1.491   6.301   5.902 -0.6340 -0.8168 -0.1195
 1031SOL    HW2 3993   1.645   6.331   5.857 -0.7597  1.3941  0.7743
 1032SOL     OW 3994   4.172   2.298   3.701 -0.6838  0.1620  0.1751
 1032SOL    HW1 3995   4.113   2.235   3.752  0.5913 -1.1930  0.0609
 1032SOL    HW2 3996   4.212   2.364   3.764 -1.0183  0.0360  0.5261
 1033SOL     OW 3997   1.502   2.585   3.897  0.1521 -0.7444 -0.3265
 1033SOL    HW1 3998   1.424   2.614   3.841  1.5314  0.8913 -1.4938
 1033SOL    HW2 3999   1.587   2.607   3.850  1.3599 -0.2717  1.9433
 1034SOL     OW 4000   4.407   0.783   1.535  0.0175 -0.1424  0.4331
 1034SOL    HW1 4001   4.485   0.738   1.579  1.0760  0.6751 -0.5221
 1034SOL    HW2 4002   4.353   0.716   1.484  2.1765 -0.2986 -1.8708
 1035SOL     OW 4003   1.373   0.304   5.543 -0.2527  0.4791 -0.0196
 1035SOL    HW1 4004   1.460   0.335   5.582  0.2081  0.1262 -0.7399
 1035SOL    HW2 4005   1.387   0.277   5.448 -1.5088  2.0606 -0.6961
 1036SOL     OW 4006   6.275   0.873   1.479 -0.8502  0.2092  0.3232
 1036SOL    HW1 4007   6.252   0.956   1.429 -0.7507  0.2063  0.2716
 1036SOL    HW2 4008   6.192   0.822   1.501 -0.8705  0.0626 -0.0917
 1037SOL     OW 4009   4.841   3.016   5.095  0.0695  0.0811 -0.4336
 1037SOL    HW1 4010   4.778   2.952   5.052  0.0715  0.3206 -0.7993
 1037SOL    HW2 4011   4.789   3.084   5.147  0.1205 -1.2423  1.4518
 1038SOL     OW 4012   6.080   2.803   4.981 -0.2184 -0.8039  0.0915
 1038SOL    HW1 4013   6.093   2.795   5.080 -1.2384 -1.0995  0.2208
 1038SOL    HW2 4014   6.102   2.716   4.937  1.8452 -0.1910 -0.1604
 1039SOL     OW 4015   3.235   4.170   1.674 -0.1718 -0.2560 -0.5949
 1039SOL    HW1 4016   3.303   4.097   1.672  1.3626  0.9399  1.9091
 1039SOL    HW2 4017   3.280   4.258   1.658 -1.3725  0.4423 -0.2656
 1040SOL     OW 4018   3.252   0.959   5.353 -0.1826 -0.5131  0.8794
 1040SOL    HW1 4019   3.170   0.927   5.307  0.1308  0.2188 -0.2124
 1040SOL    HW2 4020   3.283   0.889   5.417 -1.4074 -0.9679  1.0020
 1041SOL     OW 4021   5.466   4.362   6.854  0.7709 -0.0066  0.1711
 1041SOL    HW1 4022   5.464   4.450   6.901  0.2871  1.2272 -1.9923
 1041SOL    HW2 4023   5.373   4.324   6.851  0.7740 -0.0098  0.0983
 1042SOL     OW 4024   6.208   1.197   4.132 -0.1306  0.6218 -0.4591
 1042SOL    HW1 4025   6.257   1.209   4.219 -2.1984 -3.0949  1.4939
 1042SOL    HW2 4026   6.265   1.147   4.068 -0.0067 -0.2908  0.3471
 1043SOL     OW 4027   4.284   6.697   4.789 -0.3184 -0.1837  0.5156
 1043SOL    HW1 4028   4.280   6.651   4.700 -3.3872  0.6926  0.1040
 1043SOL    HW2 4029   4.284   6.628   4.862  1.9212 -0.9026 -0.0933
 1044SOL     OW 4030   1.444   1.323   6.136 -0.4420  0.6143  0.1886
 1044SOL    HW1 4031   1.444   1.359   6.229 -1.7599 -2.0620  1.3242
 1044SOL    HW2 4032   1.507   1.246   6.130 -1.5591 -0.2748 -0.6476
 1045SOL     OW 4033   2.462   1.585   6.660  0.0710  0.0048  0.4912
 1045SOL    HW1 4034   2.399   1.519   6.702 -0.9717  0.8529  0.2974
 1045SOL    HW2 4035   2.532   1.610   6.727  1.6899 -2.7233 -0.0123
 1046SOL     OW 4036   5.498   3.740   3.108  0.4398  0.6304  0.3109
 1046SOL    HW1 4037   5.496   3.836   3.078  1.8233  0.8251  0.7406
 1046SOL    HW2 4038   5.408   3.699   3.094  0.6707  0.9873 -3.0471
 1047SOL     OW 4039   5.023   3.096   0.379  0.0864  0.0575 -0.0186
 1047SOL    HW1 4040   4.939   3.106   0.433 -0.0269  0.7618 -0.3111
 1047SOL    HW2 4041   5.046   3.184   0.336  0.2675 -0.4529 -0.9888
 1048SOL     OW 4042   3.178   2.438   5.842  0.0720  0.6282 -0.0656
 1048SOL    HW1 4043   3.091   2.427   5.794 -1.1044  1.3960  1.7741
 1048SOL    HW2 4044   3.188   2.365   5.909  1.0107  0.3757 -0.4681
 1049SOL     OW 4045   3.877   2.982   3.474 -0.2948  0.2276 -0.0021
 1049SOL    HW1 4046   3.920   3.056   3.525 -1.2336  0.4689  0.4496
 1049SOL    HW2 4047   3.897   2.993   3.377 -0.8292  1.3548  0.0051
 1050SOL     OW 4048   6.761   5.917   6.922  0.4254  0.0160 -0.3892
 1050SOL    HW1 4049   6.668   5.916   6.884  0.3367  0.8394 -0.2177
 1050SOL    HW2 4050   6.814   5.841   6.883 -0.2676 -0.3638 -0.6105
 1051SOL     OW 4051   4.058   5.287   5.352  0.1280  0.7237 -0.2344
 1051SOL    HW1 4052   4.002   5.242   5.283  1.0663  1.9521 -1.8690
 1051SOL    HW2 4053   4.154   5.264   5.337  0.2370 -0.2766  1.6961
 1052SOL     OW 4054   0.566   4.326   1.608  0.3004 -0.2980  0.6666
 1052SOL    HW1 4055   0.603   4.401   1.554  1.8013 -1.9292 -0.7056
 1052SOL    HW2 4056   0.603   4.330   1.700  0.2195  0.7290  0.6672
 1053SOL     OW 4057   4.139   6.599   6.818  0.3660 -0.5157 -0.8358
 1053SOL    HW1 4058   4.218   6.544   6.844 -0.8523 -1.8525  0.1883
 1053SOL    HW2 4059   4.059   6.568   6.869 -0.7380  1.0808 -1.5404
 1054SOL     OW 4060   0.541   3.134   4.035  0.1307 -0.3761 -0.3387
 1054SOL    HW1 4061   0.569   3.061   3.973  2.0269 -1.4033  1.5667
 1054SOL    HW2 4062   0.583   3.119   4.125 -0.0816  2.6286  0.3742
 1055SOL     OW 4063   6.049   6.400   5.832  0.7795  0.2326 -0.5183
 1055SOL    HW1 4064   6.058   6.304   5.807  2.7767  0.2918 -0.1471
 1055SOL    HW2 4065   6.063   6.458   5.752  0.4824  0.2564 -0.5567
 1056SOL     OW 4066   0.019   5.439   6.921  0.2338  0.1750  0.2828
 1056SOL    HW1 4067   0.043   5.509   6.988  2.2590 -0.7311  0.5931
 1056SOL    HW2 4068   0.040   5.472   6.829  2.1770 -0.3563  0.5046
 1057SOL     OW 4069   1.456   3.231   1.712 -0.0016  0.2194  0.2303
 1057SOL    HW1 4070   1.504   3.315   1.737 -0.1908 -0.1960  2.1128
 1057SOL    HW2 4071   1.452   3.169   1.791 -1.2474 -0.8967 -0.6556
 1058SOL     OW 4072   6.394   2.533   4.772 -0.6921  0.5171 -0.3127
 1058SOL    HW1 4073   6.447   2.504   4.693  1.8984  2.1784  0.6962
 1058SOL    HW2 4074   6.307   2.571   4.741 -1.6941 -2.7211 -1.9855
 1059SOL     OW 4075   6.182   5.553   6.071 -0.1804  0.4195  0.0666
 1059SOL    HW1 4076   6.143   5.464   6.048 -3.4431  1.2535  1.7745
 1059SOL    HW2 4077   6.161   5.619   5.999  0.5860  0.2636 -0.3115
 1060SOL     OW 4078   5.710   4.825   3.375  0.0334  0.0018 -0.6969
 1060SOL    HW1 4079   5.622   4.817   3.328  0.3257 -0.8655 -1.1088
 1060SOL    HW2 4080   5.707   4.774   3.461 -0.9226  2.6016  0.9249
 1061SOL     OW 4081   4.983   5.994   5.079  0.0403 -0.4310 -0.4536
 1061SOL    HW1 4082   5.017   5.900   5.084  0.6704 -0.2285 -0.7942
 1061SOL    HW2 4083   4.953   6.024   5.170  2.3155 -0.0712  0.2523
 1062SOL     OW 4084   5.106   4.145   6.029  0.1131  0.0134  0.1194
 1062SOL    HW1 4085   5.103   4.118   6.125  0.7222  0.6764  0.3364
 1062SOL    HW2 4086   5.014   4.141   5.990 -0.1536 -0.1536  0.7606
 1063SOL     OW 4087   0.046   0.157   1.197 -0.1038 -0.0850 -0.1137
 1063SOL    HW1 4088   0.110   0.141   1.122 -0.0330  0.3070 -0.1356
 1063SOL    HW2 4089   0.090   0.135   1.284 -0.3249 -0.9607 -0.2108
 1064SOL     OW 4090   0.718   1.440   1.848 -0.1783  0.2553 -0.2373
 1064SOL    HW1 4091   0.751   1.495   1.771  0.4431 -0.1358 -0.2634
 1064SOL    HW2 4092   0.628   1.472   1.876 -0.5314  0.2194 -1.3087
 1065SOL     OW 4093   4.232   1.087   3.910 -0.2459  0.1778  0.1485
 1065SOL    HW1 4094   4.197   1.159   3.851 -0.8332  1.4279  1.9195
 1065SOL    HW2 4095   4.321   1.114   3.947 -0.3359 -0.1113  0.5935
 1066SOL     OW 4096   1.461   5.346   2.649 -0.2929  0.3276  0.0272
 1066SOL    HW1 4097   1.529   5.273   2.661  1.3686  2.0765  2.1145
 1066SOL    HW2 4098   1.370   5.310   2.668  0.5963 -1.0135  2.1590
 1067SOL     OW 4099   5.803   0.359   2.737 -0.0564  0.4845 -0.4831
 1067SOL    HW1 4100   5.727   0.342   2.800 -0.5583  0.6908 -1.0167
 1067SOL    HW2 4101   5.767   0.370   2.645  0.1158  4.4552 -0.2433
 1068SOL     OW 4102   5.923   1.486   2.305 -0.2866 -0.2832  0.4440
 1068SOL    HW1 4103   5.974   1.567   2.277  0.2480 -0.9440 -0.5591
 1068SOL    HW2 4104   5.978   1.432   2.370 -0.1188 -0.4812  0.1393
 1069SOL     OW 4105   2.540   1.042   2.893  0.3507 -0.3428 -0.4210
 1069SOL    HW1 4106   2.514   1.069   2.986 -0.1063 -0.3064 -0.5539
 1069SOL    HW2 4107   2.628   0.996   2.894  0.6324  0.1984 -0.0457
 1070SOL     OW 4108   2.406   0.696   3.149 -0.1923  0.5270  0.0149
 1070SOL    HW1 4109   2.445   0.604   3.147 -1.4023 -0.0816  1.7056
 1070SOL    HW2 4110   2.394   0.729   3.055 -0.4308 -1.3611 -0.6685
 1071SOL     OW 4111   1.000   6.375   2.875  0.2324  0.4857 -0.0823
 1071SOL    HW1 4112   1.000   6.445   2.804  1.1567  0.3066 -0.2746
 1071SOL    HW2 4113   1.090   6.332   2.879 -0.3029 -0.6611  0.0665
 1072SOL     OW 4114   0.811   3.280   2.325 -0.4668  0.0466  0.8057
 1072SOL    HW1 4115   0.799   3.377   2.307 -1.0578 -0.0944  0.4141
 1072SOL    HW2 4116   0.780   3.258   2.418 -2.8198 -0.2042  0.0297
 1073SOL     OW 4117   4.309   1.281   3.512  0.5223 -0.4561 -0.3455
 1073SOL    HW1 4118   4.380   1.323   3.568  1.0267 -0.0775 -1.2602
 1073SOL    HW2 4119   4.276   1.198   3.558  0.5596  0.1132  0.7539
 1074SOL     OW 4120   0.297   0.995   6.324  0.2420  0.4393 -0.1521
 1074SOL    HW1 4121   0.316   0.962   6.232  1.8095  0.4436  0.1413
 1074SOL    HW2 4122   0.313   0.921   6.390 -1.3941  0.2736  0.1008
 1075SOL     OW 4123   1.055   4.394   3.319 -0.1014  0.0862 -0.4876
 1075SOL    HW1 4124   1.134   4.333   3.316  1.4479  1.8214  1.7530
 1075SOL    HW2 4125   1.083   4.485   3.290 -0.4655  1.4216  2.9868
 1076SOL     OW 4126   1.900   2.385   5.704 -0.1336  0.5640  0.2645
 1076SOL    HW1 4127   1.997   2.401   5.685 -0.0972 -1.3149 -1.4937
 1076SOL    HW2 4128   1.876   2.292   5.676 -2.1813  0.5468  1.8656
 1077SOL     OW 4129   0.297   4.907   2.638  0.0951  0.2970 -0.5621
 1077SOL    HW1 4130   0.261   4.849   2.711 -1.5391  1.1699 -0.6415
 1077SOL    HW2 4131   0.259   4.878   2.550 -0.4972  1.2722 -0.6376
 1078SOL     OW 4132   2.955   0.544   2.231 -0.5838  0.3551  0.2734
 1078SOL    HW1 4133   2.928   0.478   2.302 -1.4070  1.2606  0.8247
 1078SOL    HW2 4134   3.017   0.612   2.271  0.8627 -0.4758 -0.4732
 1079SOL     OW 4135   0.661   3.720   1.672  0.0660  0.4116 -0.7036
 1079SOL    HW1 4136   0.758   3.700   1.656  0.5731  2.0037  0.1134
 1079SOL    HW2 4137   0.651   3.816   1.698 -1.5628 -0.0849  0.6741
 1080SOL     OW 4138   5.226   1.836   1.337 -0.1254 -0.4313 -0.5752
 1080SOL    HW1 4139   5.204   1.916   1.393  0.2426 -0.0826 -0.9211
 1080SOL    HW2 4140   5.309   1.792   1.372  1.4752  1.1452 -2.1919
 1081SOL     OW 4141   2.385   2.527   5.916  0.4026 -0.5425  0.3366
 1081SOL    HW1 4142   2.422   2.567   5.832  1.8045  0.0137  1.1978
 1081SOL    HW2 4143   2.453   2.468   5.958 -0.0242 -0.2649  1.4432
 1082SOL     OW 4144   5.798   3.636   4.541 -0.4093  0.2556  0.3601
 1082SOL    HW1 4145   5.893   3.649   4.511 -0.0442 -0.4904  1.1499
 1082SOL    HW2 4146   5.740   3.707   4.500  0.2748  0.0227 -1.0717
 1083SOL     OW 4147   4.454   3.795   1.293  0.1469 -0.3949 -0.3398
 1083SOL    HW1 4148   4.416   3.746   1.215 -0.4029  1.1032 -1.0315
 1083SOL    HW2 4149   4.529   3.854   1.262 -0.2793  0.4445  0.2070
 1084SOL     OW 4150   6.457   0.453   0.341  0.2648 -0.5089  0.8120
 1084SOL    HW1 4151   6.380   0.492   0.291  1.9735  1.6315 -0.3459
 1084SOL    HW2 4152   6.475   0.509   0.422  2.4493  1.0015 -0.6022
 1085SOL     OW 4153   4.598   6.346   5.817 -0.7368 -0.7523 -1.0225
 1085SOL    HW1 4154   4.536   6.424   5.809 -0.5196 -0.5181 -0.4980
 1085SOL    HW2 4155   4.546   6.262   5.827 -0.9722 -0.5158 -0.1968
 1086SOL     OW 4156   6.683   1.298   0.394  0.2921  0.0376 -0.7073
 1086SOL    HW1 4157   6.733   1.340   0.470 -0.9274  0.4101 -0.0718
 1086SOL    HW2 4158   6.698   1.199   0.395 -1.2570 -0.2437  1.2842
 1087SOL     OW 4159   4.322   5.445   1.274  0.0235 -0.2023 -0.0020
 1087SOL    HW1 4160   4.233   5.463   1.231  0.2114 -0.0757 -0.3470
 1087SOL    HW2 4161   4.379   5.395   1.209 -0.1199 -1.0991  0.5559
 1088SOL     OW 4162   4.608   5.297   1.965 -0.4231  0.0019 -0.0809
 1088SOL    HW1 4163   4.524   5.270   2.012  0.6887  2.0983  3.4880
 1088SOL    HW2 4164   4.584   5.344   1.880 -2.8883  0.4051  0.7288
 1089SOL     OW 4165   6.154   0.886   4.280  0.6190 -0.1157  0.0015
 1089SOL    HW1 4166   6.174   0.960   4.344  0.7837 -0.4297  0.3193
 1089SOL    HW2 4167   6.055   0.877   4.269  0.5917 -0.0096  0.1542
 1090SOL     OW 4168   1.202   6.370   4.255  0.5265 -0.2878 -0.0931
 1090SOL    HW1 4169   1.123   6.400   4.202  0.7836  0.5065 -0.0448
 1090SOL    HW2 4170   1.243   6.289   4.212 -0.0204 -0.4100 -0.3876
 1091SOL     OW 4171   3.355   1.682   4.674  0.4020 -0.7674 -0.4746
 1091SOL    HW1 4172   3.383   1.684   4.578 -1.0068 -1.7252 -0.9394
 1091SOL    HW2 4173   3.291   1.607   4.688  1.9828 -1.8158  1.6393
 1092SOL     OW 4174   4.526   0.683   4.814  0.0646 -0.0134  0.0150
 1092SOL    HW1 4175   4.573   0.645   4.894  1.5875 -0.6447 -1.1235
 1092SOL    HW2 4176   4.446   0.625   4.792 -0.8558  0.6342  1.5189
 1093SOL     OW 4177   4.753   3.042   0.477  1.0623  0.6919 -0.0948
 1093SOL    HW1 4178   4.758   2.950   0.440  0.6471  0.6013  0.0670
 1093SOL    HW2 4179   4.682   3.094   0.428  0.9069  0.7487  0.1872
 1094SOL     OW 4180   3.267   2.461   5.430 -0.2695  0.4594 -0.0752
 1094SOL    HW1 4181   3.256   2.439   5.333  0.8298  1.6304 -0.4861
 1094SOL    HW2 4182   3.307   2.382   5.477  0.8378  0.4868 -0.9332
 1095SOL     OW 4183   4.578   6.658   3.060  0.0463  0.1350  0.0074
 1095SOL    HW1 4184   4.564   6.600   2.980  0.7029 -0.3410  0.2261
 1095SOL    HW2 4185   4.676   6.669   3.076 -0.0633 -0.5832  1.3092
 1096SOL     OW 4186   1.508   2.426   4.920 -0.1065  0.4562  0.5282
 1096SOL    HW1 4187   1.563   2.505   4.949  0.9198 -0.3584  0.8569
 1096SOL    HW2 4188   1.546   2.386   4.837 -1.2984  0.9736 -0.2974
 1097SOL     OW 4189   3.431   2.769   0.875  0.2529 -0.6896  1.0585
 1097SOL    HW1 4190   3.450   2.821   0.792  0.4305 -1.6419  0.4825
 1097SOL    HW2 4191   3.335   2.778   0.900 -0.6242 -2.9133 -1.0993
 1098SOL     OW 4192   0.346   1.628   2.868 -0.3773  0.5523 -0.2124
 1098SOL    HW1 4193   0.297   1.640   2.954  2.7709 -2.5980  2.2973
 1098SOL    HW2 4194   0.330   1.535   2.834 -0.8491  1.4518 -2.6815
 1099SOL     OW 4195   2.599   1.390   3.328 -0.8825 -0.5369 -0.5796
 1099SOL    HW1 4196   2.588   1.465   3.394 -0.0294 -0.3778 -0.5968
 1099SOL    HW2 4197   2.630   1.428   3.240 -2.9330 -0.6341 -1.4003
 1100SOL     OW 4198   0.247   2.848   3.955 -0.4119  0.0440  0.3571
 1100SOL    HW1 4199   0.191   2.908   3.898  0.7870 -0.7046 -1.7240
 1100SOL    HW2 4200   0.253   2.758   3.912  0.1265 -0.7291  1.9675
 1101SOL     OW 4201   6.086   3.171   6.796 -0.1390 -0.5249 -0.3098
 1101SOL    HW1 4202   6.021   3.124   6.857 -1.5081  0.0773 -1.2634
 1101SOL    HW2 4203   6.039   3.245   6.748  1.3060  0.0098 -0.9434
 1102SOL     OW 4204   0.621   6.254   4.126  0.1507 -0.6071 -0.4014
 1102SOL    HW1 4205   0.601   6.197   4.046 -0.3111 -2.2995  0.8747
 1102SOL    HW2 4206   0.708   6.224   4.167 -0.8882 -1.5416  1.2217
 1103SOL     OW 4207   2.260   2.316   5.742  0.4366  0.5923  0.0070
 1103SOL    HW1 4208   2.303   2.335   5.654 -0.2530 -0.6105 -0.6141
 1103SOL    HW2 4209   2.277   2.392   5.805  2.4946  0.6567 -0.5607
 1104SOL     OW 4210   4.589   5.640   4.596  0.0318 -0.1728 -0.1554
 1104SOL    HW1 4211   4.553   5.718   4.545  0.0167 -0.5230 -0.6932
 1104SOL    HW2 4212   4.582   5.557   4.540 -1.0378 -0.7914  0.8446
 1105SOL     OW 4213   1.288   1.914   5.994 -0.0220  0.4622  0.5438
 1105SOL    HW1 4214   1.261   1.843   5.929  0.6517 -0.0450  0.8016
 1105SOL    HW2 4215   1.385   1.903   6.017 -0.3053  0.4701  1.8141
 1106SOL     OW 4216   5.344   1.500   6.026  0.0254  0.8003  0.1806
 1106SOL    HW1 4217   5.404   1.490   6.106 -0.5160  1.8572  0.7365
 1106SOL    HW2 4218   5.257   1.455   6.045  0.4679 -0.3873 -0.4747
 1107SOL     OW 4219   1.352   5.245   4.159 -0.1196 -0.0195  0.0104
 1107SOL    HW1 4220   1.379   5.324   4.214  0.7457  0.0805 -0.5314
 1107SOL    HW2 4221   1.434   5.203   4.118 -0.6132 -0.8936 -0.1170
 1108SOL     OW 4222   2.467   6.555   0.495  0.0705  0.2738  0.3844
 1108SOL    HW1 4223   2.461   6.645   0.537  2.5556  0.6279  0.1284
 1108SOL    HW2 4224   2.515   6.562   0.408  2.6967 -1.5654  1.5565
 1109SOL     OW 4225   0.838   4.413   0.829  0.3263  0.5491 -0.0409
 1109SOL    HW1 4226   0.740   4.419   0.846  0.1136  0.0283 -1.0059
 1109SOL    HW2 4227   0.854   4.368   0.741  1.3996  1.5287 -0.3803
 1110SOL     OW 4228   5.192   3.348   5.901 -0.0495 -0.2317  0.0242
 1110SOL    HW1 4229   5.181   3.265   5.957 -1.3415  0.0916  0.2818
 1110SOL    HW2 4230   5.127   3.345   5.826  0.4089  0.2211 -0.3948
 1111SOL     OW 4231   5.984   1.554   3.372  0.5902 -0.0227 -0.4690
 1111SOL    HW1 4232   5.900   1.508   3.403  1.0433 -0.5181  0.0443
 1111SOL    HW2 4233   6.037   1.493   3.314  1.4801 -0.3899  0.6846
 1112SOL     OW 4234   6.894   4.865   6.856 -0.6321 -0.3111 -0.0628
 1112SOL    HW1 4235   6.945   4.808   6.792 -2.1511 -1.6621 -0.1333
 1112SOL    HW2 4236   6.801   4.879   6.822 -0.7611  0.9330  0.7217
 1113SOL     OW 4237   4.972   5.791   6.257 -0.1633  0.0544  0.1159
 1113SOL    HW1 4238   5.060   5.819   6.294 -0.0239 -1.0470  0.6702
 1113SOL    HW2 4239   4.985   5.736   6.175 -0.4594  2.1317 -1.3965
 1114SOL     OW 4240   0.669   4.185   4.946 -0.1226 -0.4165 -0.0589
 1114SOL    HW1 4241   0.673   4.285   4.952 -1.1841 -0.1990 -2.2464
 1114SOL    HW2 4242   0.636   4.158   4.856  1.8314 -2.8124 -0.1389
 1115SOL     OW 4243   2.428   3.470   6.133 -0.3530  0.1587  0.1818
 1115SOL    HW1 4244   2.495   3.400   6.159 -0.6848 -0.0098  0.5964
 1115SOL    HW2 4245   2.365   3.432   6.066 -0.1386  0.2618 -0.0767
 1116SOL     OW 4246   2.408   1.733   4.961 -0.1582 -0.0440 -0.3415
 1116SOL    HW1 4247   2.362   1.699   4.879 -0.9852  0.5723 -0.1474
 1116SOL    HW2 4248   2.340   1.754   5.031  0.5580 -0.8130  0.6081
 1117SOL     OW 4249   4.784   6.267   3.953  0.5456  0.3788 -0.1525
 1117SOL    HW1 4250   4.858   6.215   3.995  0.0845 -1.2398 -1.2384
 1117SOL    HW2 4251   4.700   6.254   4.005  0.6727  0.9456  0.1984
 1118SOL     OW 4252   4.729   0.256   6.467  0.0156 -0.7772  0.2467
 1118SOL    HW1 4253   4.813   0.229   6.419  0.7971  2.0388 -0.1263
 1118SOL    HW2 4254   4.698   0.344   6.432 -1.1815 -0.1286  2.7797
 1119SOL     OW 4255   3.570   6.342   0.037  0.3643  0.7522 -0.1416
 1119SOL    HW1 4256   3.576   6.356  -0.061  2.2827  1.4928  0.0331
 1119SOL    HW2 4257   3.621   6.260   0.063 -0.6395  0.2127  0.1879
 1120SOL     OW 4258   5.665   0.213   2.275  0.3310  0.1407 -0.0053
 1120SOL    HW1 4259   5.596   0.143   2.297 -0.8796  0.7331 -1.7513
 1120SOL    HW2 4260   5.701   0.197   2.183 -0.1221  1.9232 -0.5215
 1121SOL     OW 4261   3.202   5.537   1.474 -0.0648 -0.7452 -0.9736
 1121SOL    HW1 4262   3.130   5.605   1.458 -0.4972 -0.3785  1.9898
 1121SOL    HW2 4263   3.161   5.447   1.486 -0.0986 -0.5272  0.7702
 1122SOL     OW 4264   2.674   1.859   3.552  0.1364 -0.4794 -0.5263
 1122SOL    HW1 4265   2.655   1.884   3.647  0.4143 -0.7684 -0.3913
 1122SOL    HW2 4266   2.672   1.941   3.495  0.7856 -0.1743 -0.1299
 1123SOL     OW 4267   1.835   3.150   4.596  0.0085  0.0902 -0.0713
 1123SOL    HW1 4268   1.802   3.056   4.591  1.6366 -0.6727  2.1746
 1123SOL    HW2 4269   1.910   3.163   4.531  1.3901 -0.9464  1.2405
 1124SOL     OW 4270   0.172   2.447   2.424 -0.2067 -0.0270 -0.7728
 1124SOL    HW1 4271   0.261   2.492   2.416 -0.2938  0.5078  0.9099
 1124SOL    HW2 4272   0.099   2.513   2.403 -0.2637  0.0179 -0.4325
 1125SOL     OW 4273   1.137   0.369   5.990  0.3760  0.3286  0.3434
 1125SOL    HW1 4274   1.117   0.308   5.913  1.5509  0.9979 -0.5351
 1125SOL    HW2 4275   1.166   0.315   6.069 -3.1416 -0.5699  1.1977
 1126SOL     OW 4276   4.980   2.733   4.208 -0.2461  0.0834 -0.7107
 1126SOL    HW1 4277   4.913   2.777   4.267  0.1321  0.0931 -0.2808
 1126SOL    HW2 4278   5.036   2.670   4.262 -0.5110 -0.6162 -1.2370
 1127SOL     OW 4279   6.162   3.374   1.265  0.1190 -0.0481  0.7606
 1127SOL    HW1 4280   6.202   3.429   1.338  2.0058 -2.8153  2.0145
 1127SOL    HW2 4281   6.064   3.389   1.260  0.6292  4.2355  0.1379
 1128SOL     OW 4282   5.934   3.099   4.538  0.0960 -0.3821 -0.4911
 1128SOL    HW1 4283   5.895   3.177   4.490  1.6315 -0.2194 -1.5793
 1128SOL    HW2 4284   5.917   3.107   4.636 -0.9734  0.5773 -0.7399
 1129SOL     OW 4285   2.250   6.990   4.704  0.4005 -0.0564  0.7247
 1129SOL    HW1 4286   2.257   7.019   4.608 -0.4634 -0.8102  0.4163
 1129SOL    HW2 4287   2.194   7.056   4.754 -2.4576 -1.5730 -0.2135
 1130SOL     OW 4288   0.509   3.572   0.962 -0.0645  0.4069 -0.1782
 1130SOL    HW1 4289   0.516   3.661   0.915 -4.4031  0.1097 -1.8020
 1130SOL    HW2 4290   0.568   3.506   0.916  3.1972  2.2352  1.0030
 1131SOL     OW 4291   6.765   5.908   0.528 -0.1174 -0.0063  0.1176
 1131SOL    HW1 4292   6.852   5.860   0.531  0.7354  1.4954  0.0308
 1131SOL    HW2 4293   6.734   5.927   0.622 -0.4152 -0.6044  0.1501
 1132SOL     OW 4294   1.016   1.184   2.717  0.1216  0.1958 -0.6551
 1132SOL    HW1 4295   0.988   1.095   2.683 -2.0244  0.3248  0.6344
 1132SOL    HW2 4296   1.055   1.174   2.809  0.3185  0.5349 -0.6995
 1133SOL     OW 4297   3.470   4.165   5.050  0.0234  0.3492 -0.0536
 1133SOL    HW1 4298   3.426   4.220   5.121 -0.2621 -1.6755  1.4205
 1133SOL    HW2 4299   3.569   4.180   5.052 -0.0967  1.1820 -0.0358
 1134SOL     OW 4300   3.219   2.932   5.385 -0.0812  0.0488 -0.5003
 1134SOL    HW1 4301   3.308   2.971   5.408 -0.3004  0.4440 -0.2969
 1134SOL    HW2 4302   3.230   2.839   5.351  0.3463 -0.1953  0.2896
 1135SOL     OW 4303   1.326   0.399   3.571  0.4635 -0.2315 -0.6212
 1135SOL    HW1 4304   1.319   0.474   3.636  0.7736  0.7739 -1.7281
 1135SOL    HW2 4305   1.368   0.431   3.486  1.2137 -1.8089 -0.8861
 1136SOL     OW 4306   1.587   3.815   0.736 -0.2022 -0.0763  0.9008
 1136SOL    HW1 4307   1.534   3.781   0.813  0.5929 -1.0470  1.0393
 1136SOL    HW2 4308   1.676   3.847   0.769  1.6802 -3.8996  0.0435
 1137SOL     OW 4309   0.282   5.421   4.948  0.1565 -0.7681 -0.8189
 1137SOL    HW1 4310   0.346   5.496   4.931 -1.4335  0.6393 -0.8639
 1137SOL    HW2 4311   0.189   5.452   4.930 -0.6059 -2.5992 -0.2568
 1138SOL     OW 4312   4.761   6.095   0.255  0.1188  0.1426 -0.5063
 1138SOL    HW1 4313   4.802   6.157   0.188  1.8258 -1.6527 -1.1901
 1138SOL    HW2 4314   4.825   6.080   0.330 -0.1859 -0.9202 -0.4459
 1139SOL     OW 4315   6.666   5.115   2.922 -0.0747 -0.1428  0.6420
 1139SOL    HW1 4316   6.659   5.121   2.822 -2.1204  1.0968  0.8218
 1139SOL    HW2 4317   6.681   5.019   2.948  0.0936 -0.5441 -0.8220
 1140SOL     OW 4318   3.667   1.696   5.642 -0.5183 -0.7360 -0.2868
 1140SOL    HW1 4319   3.639   1.754   5.565  0.0656 -0.0398  0.0144
 1140SOL    HW2 4320   3.742   1.740   5.691 -0.9984 -1.0959  0.7948
 1141SOL     OW 4321   3.815   0.146   6.015  0.1851 -0.2970 -0.4552
 1141SOL    HW1 4322   3.755   0.183   5.944 -1.0678  0.8357  1.1183
 1141SOL    HW2 4323   3.839   0.052   5.993 -0.3537 -0.0500 -2.2493
 1142SOL     OW 4324   1.636   4.554   6.586 -0.2099 -0.1442 -0.1576
 1142SOL    HW1 4325   1.569   4.626   6.599 -0.5904 -0.4219 -0.5382
 1142SOL    HW2 4326   1.655   4.509   6.673 -2.1020 -1.4515 -0.3463
 1143SOL     OW 4327   6.810   2.540   3.090 -0.3027 -0.9343  0.0363
 1143SOL    HW1 4328   6.797   2.583   3.000  2.7300  0.2610  0.0557
 1143SOL    HW2 4329   6.830   2.611   3.158 -1.0352 -1.9562  1.3684
 1144SOL     OW 4330   3.618   1.795   2.360  0.2015 -0.0434  0.8147
 1144SOL    HW1 4331   3.599   1.884   2.321  0.2217 -0.6672 -0.6975
 1144SOL    HW2 4332   3.622   1.802   2.460 -1.0263  1.3845  0.7946
 1145SOL     OW 4333   2.159   3.880   4.463 -0.1651 -0.0172  0.8627
 1145SOL    HW1 4334   2.060   3.862   4.464  0.2101 -2.5728 -0.5588
 1145SOL    HW2 4335   2.192   3.889   4.557 -1.5864 -0.0934  1.3942
 1146SOL     OW 4336   5.223   1.656   0.994 -0.0767  0.3491 -0.2814
 1146SOL    HW1 4337   5.145   1.593   0.988 -0.1463  0.4357 -0.2931
 1146SOL    HW2 4338   5.264   1.667   0.903 -0.3650  0.6968 -0.3707
 1147SOL     OW 4339   4.389   6.843   0.543 -0.1525 -0.2107 -0.2984
 1147SOL    HW1 4340   4.336   6.781   0.601 -0.0523 -0.1456 -0.1390
 1147SOL    HW2 4341   4.472   6.870   0.590 -0.0216 -0.2386 -0.5124
 1148SOL     OW 4342   4.273   3.101   1.624  0.1760  0.0991  0.1711
 1148SOL    HW1 4343   4.367   3.114   1.655  0.3646  0.1881 -0.4240
 1148SOL    HW2 4344   4.254   3.003   1.617 -0.0340  0.0659  1.0364
 1149SOL     OW 4345   0.106   1.227   3.607  0.1307  0.2073 -0.0369
 1149SOL    HW1 4346   0.040   1.300   3.587 -0.9515 -0.2434  1.6877
 1149SOL    HW2 4347   0.171   1.259   3.676 -0.2304 -0.3965  0.5826
 1150SOL     OW 4348   0.827   1.520   3.767 -0.3542 -0.0236  0.2390
 1150SOL    HW1 4349   0.896   1.516   3.696 -0.2802  0.6222  0.2661
 1150SOL    HW2 4350   0.847   1.452   3.838 -0.4632 -0.7088 -0.3764
 1151SOL     OW 4351   1.350   0.609   0.876  0.0862  0.3746 -0.3787
 1151SOL    HW1 4352   1.325   0.512   0.869 -1.6460  0.7175  0.5949
 1151SOL    HW2 4353   1.450   0.617   0.874  0.2575 -1.3274 -1.4267
 1152SOL     OW 4354   5.564   0.418   4.235 -0.2031 -0.0333  0.4467
 1152SOL    HW1 4355   5.656   0.406   4.199  0.2058 -1.6194  1.8923
 1152SOL    HW2 4356   5.530   0.509   4.209  2.5724  1.4579  1.5712
 1153SOL     OW 4357   6.724   5.617   3.646 -0.2173 -0.4152  0.5160
 1153SOL    HW1 4358   6.659   5.629   3.571 -0.2901 -2.6139  0.1472
 1153SOL    HW2 4359   6.807   5.573   3.611  1.4325  2.1268  1.0246
 1154SOL     OW 4360   4.666   1.643   1.391  0.2152 -0.3197 -0.5078
 1154SOL    HW1 4361   4.632   1.657   1.298  2.0110  1.1396 -0.9919
 1154SOL    HW2 4362   4.635   1.718   1.449  0.0910 -0.6000 -0.2116
 1155SOL     OW 4363   1.139   2.107   4.741 -0.4047  0.0251 -0.0485
 1155SOL    HW1 4364   1.194   2.159   4.806 -1.7127  0.7374  0.5339
 1155SOL    HW2 4365   1.180   2.113   4.650 -0.0307  1.3656  0.1821
 1156SOL     OW 4366   1.496   2.412   6.407 -0.4455 -1.0225  0.0269
 1156SOL    HW1 4367   1.567   2.401   6.477  1.4107 -1.0596 -1.7658
 1156SOL    HW2 4368   1.436   2.489   6.432  0.2169 -0.9774  1.5870
 1157SOL     OW 4369   2.067   4.799   4.111 -0.2971  0.6745  0.4024
 1157SOL    HW1 4370   2.102   4.876   4.058 -0.6439  2.3135  2.4671
 1157SOL    HW2 4371   1.967   4.804   4.116 -0.3394 -0.0326  0.4197
 1158SOL     OW 4372   5.803   5.408   6.072 -0.1104  0.3598  0.0858
 1158SOL    HW1 4373   5.793   5.363   6.161  0.9025  0.9822  0.5412
 1158SOL    HW2 4374   5.811   5.507   6.086 -1.3636  0.6040 -0.8220
 1159SOL     OW 4375   0.080   3.021   3.419 -0.6290 -0.4549 -0.2666
 1159SOL    HW1 4376   0.071   2.928   3.455 -1.8161  0.2044  1.2342
 1159SOL    HW2 4377  -0.004   3.072   3.436 -0.4168  0.5812 -2.0977
 1160SOL     OW 4378   0.262   6.687   5.302 -0.1765  0.3247 -0.7869
 1160SOL    HW1 4379   0.360   6.686   5.324 -0.0720 -1.9518 -1.0971
 1160SOL    HW2 4380   0.213   6.625   5.363 -1.5945  1.9609 -0.1771
 1161SOL     OW 4381   5.239   3.674   3.080  0.2722  0.3410  0.1409
 1161SOL    HW1 4382   5.144   3.687   3.109  0.3594 -0.1534  0.6643
 1161SOL    HW2 4383   5.255   3.578   3.060  0.6833  0.4095  0.1280
 1162SOL     OW 4384   0.106   2.866   4.569  0.8303 -0.3382  0.4431
 1162SOL    HW1 4385   0.093   2.800   4.494  0.1570 -1.4571  1.5049
 1162SOL    HW2 4386   0.160   2.823   4.641  1.3198  0.6713  0.6914
 1163SOL     OW 4387   6.354   5.806   6.572 -0.3253  0.3034  0.0181
 1163SOL    HW1 4388   6.258   5.826   6.589 -0.7052 -0.9681 -0.5540
 1163SOL    HW2 4389   6.365   5.710   6.547  1.0339  0.5464 -0.4222
 1164SOL     OW 4390   4.365   6.124   6.916  0.5353  0.0969  0.1631
 1164SOL    HW1 4391   4.429   6.127   6.993  1.7688 -2.7942 -0.6268
 1164SOL    HW2 4392   4.397   6.057   6.849 -2.7943 -0.6575 -0.8167
 1165SOL     OW 4393   0.402   3.550   0.311 -0.0073 -0.2451  0.2048
 1165SOL    HW1 4394   0.304   3.558   0.327 -0.1021 -0.1490 -0.3958
 1165SOL    HW2 4395   0.443   3.641   0.307 -0.3035 -0.1564 -1.9189
 1166SOL     OW 4396   5.655   2.742   0.953  0.1487 -0.1379  0.0508
 1166SOL    HW1 4397   5.729   2.676   0.939 -1.2310 -1.3173 -2.2298
 1166SOL    HW2 4398   5.674   2.824   0.899 -0.8358 -1.0421 -1.7613
 1167SOL     OW 4399   3.001   5.199   3.431 -0.2273  0.2398 -0.9440
 1167SOL    HW1 4400   3.026   5.110   3.468 -1.8602  0.6512  1.2872
 1167SOL    HW2 4401   3.059   5.269   3.472 -1.2536  0.5656 -0.0197
 1168SOL     OW 4402   1.501   0.874   4.113  0.3228 -0.3757 -0.6755
 1168SOL    HW1 4403   1.526   0.969   4.129 -2.6274  0.3974 -0.2432
 1168SOL    HW2 4404   1.558   0.815   4.171  0.3948  1.2954  1.0397
 1169SOL     OW 4405   5.942   1.736   2.787  0.5607  0.5677  0.1892
 1169SOL    HW1 4406   5.867   1.700   2.842  0.7529 -0.2343 -0.0758
 1169SOL    HW2 4407   6.018   1.761   2.848  0.7325 -0.2159  0.2988
 1170SOL     OW 4408   2.339   1.334   0.480  0.4434  0.1933 -0.0475
 1170SOL    HW1 4409   2.373   1.241   0.494  0.2910  0.3374  1.4122
 1170SOL    HW2 4410   2.246   1.341   0.516  0.1198  0.6920 -0.9521
 1171SOL     OW 4411   1.860   6.389   0.458  0.2762 -0.5996  0.0626
 1171SOL    HW1 4412   1.788   6.336   0.413  1.9874 -1.0222 -2.3860
 1171SOL    HW2 4413   1.930   6.326   0.493  0.7789 -0.1140 -0.0516
 1172SOL     OW 4414   4.282   4.661   2.751 -0.1748 -0.0721  0.0369
 1172SOL    HW1 4415   4.285   4.669   2.851  0.9756  1.5201 -0.0791
 1172SOL    HW2 4416   4.188   4.674   2.720  0.0337  4.5399  0.6709
 1173SOL     OW 4417   1.419   1.026   5.817 -0.1916 -0.3920 -0.1316
 1173SOL    HW1 4418   1.323   0.997   5.826 -0.8441  0.9974 -1.9902
 1173SOL    HW2 4419   1.461   1.029   5.908 -2.0985 -0.4510  0.8088
 1174SOL     OW 4420   1.267   4.012   3.589  0.8857 -0.2591  0.0761
 1174SOL    HW1 4421   1.338   4.082   3.597 -0.7738  1.5123  0.1248
 1174SOL    HW2 4422   1.198   4.042   3.522  0.7431 -2.4510 -0.8340
 1175SOL     OW 4423   5.395   0.400   4.964  0.0074  0.2210 -0.2991
 1175SOL    HW1 4424   5.400   0.499   4.971  2.2656  0.2099 -0.8829
 1175SOL    HW2 4425   5.349   0.363   5.045 -1.2859  1.7396 -0.3054
 1176SOL     OW 4426   3.857   0.718   5.160  0.5662  0.5099  0.1867
 1176SOL    HW1 4427   3.793   0.794   5.146  0.8924  1.2965  2.6367
 1176SOL    HW2 4428   3.950   0.753   5.164  0.7699 -0.0869  0.7409
 1177SOL     OW 4429   1.190   2.994   4.247  0.0556 -0.1527  0.1145
 1177SOL    HW1 4430   1.274   2.942   4.232 -0.0294 -0.1364 -0.4365
 1177SOL    HW2 4431   1.170   2.997   4.345  0.2861 -0.8056  0.1858
 1178SOL     OW 4432   1.195   1.393   6.864  0.4454  0.1981 -0.1013
 1178SOL    HW1 4433   1.225   1.432   6.951 -0.8974 -0.0460  0.4953
 1178SOL    HW2 4434   1.222   1.297   6.859  3.0432  0.9013 -1.2252
 1179SOL     OW 4435   6.733   3.105   5.036 -0.7233 -0.8647  0.2151
 1179SOL    HW1 4436   6.686   3.071   4.954 -0.7487  0.3330 -0.2860
 1179SOL    HW2 4437   6.711   3.202   5.050 -0.9334 -1.1127  1.8072
 1180SOL     OW 4438   0.952   1.117   0.194 -0.0898  0.2483 -0.2602
 1180SOL    HW1 4439   0.897   1.034   0.208  0.0871  0.2860  0.7280
 1180SOL    HW2 4440   0.976   1.156   0.283 -0.1651  1.3640 -0.7188
 1181SOL     OW 4441   6.290   6.483   0.415 -0.0880 -0.2174  0.1031
 1181SOL    HW1 4442   6.362   6.529   0.466 -0.9287 -0.1295  1.2269
 1181SOL    HW2 4443   6.227   6.438   0.478 -2.9287  2.4288 -0.6065
 1182SOL     OW 4444   6.166   0.863   0.864  0.6627  0.4619  0.5972
 1182SOL    HW1 4445   6.253   0.869   0.913 -0.6601  0.6102  3.0952
 1182SOL    HW2 4446   6.106   0.937   0.893 -0.7064 -0.2803 -0.2224
 1183SOL     OW 4447   6.934   0.341   0.188 -0.1548 -0.1307  0.3470
 1183SOL    HW1 4448   6.836   0.342   0.207 -0.6183 -0.2376 -1.7606
 1183SOL    HW2 4449   6.977   0.267   0.239 -1.2323 -0.3049  1.0373
 1184SOL     OW 4450   2.038   0.285   3.562  0.6856 -0.6570  0.2329
 1184SOL    HW1 4451   1.987   0.339   3.496 -0.1299 -0.9545  0.5928
 1184SOL    HW2 4452   2.126   0.327   3.581 -0.4646  1.3165  1.5323
 1185SOL     OW 4453   6.654   6.923   1.878  0.5664 -0.3174 -1.1338
 1185SOL    HW1 4454   6.564   6.967   1.885 -0.1447 -1.6776 -1.5090
 1185SOL    HW2 4455   6.689   6.904   1.969 -0.1830 -1.0749 -0.9966
 1186SOL     OW 4456   6.684   1.771   5.491  0.2209 -1.2054 -0.1055
 1186SOL    HW1 4457   6.730   1.838   5.433  0.0395 -0.8339  0.1757
 1186SOL    HW2 4458   6.598   1.742   5.447  0.4588 -1.5051 -0.3818
 1187SOL     OW 4459   0.708   5.246   1.280 -0.2567  0.4683 -0.0694
 1187SOL    HW1 4460   0.789   5.259   1.338 -0.3871  0.6477  0.0739
 1187SOL    HW2 4461   0.628   5.286   1.325 -0.1816  1.4865 -0.8157
 1188SOL     OW 4462   1.025   6.966   4.424  0.6685 -0.1234 -0.1025
 1188SOL    HW1 4463   0.940   7.009   4.392 -0.7147 -1.9525  0.9156
 1188SOL    HW2 4464   1.102   7.024   4.401 -0.9417  2.1129 -0.1766
 1189SOL     OW 4465   5.810   4.549   6.722 -0.1478  0.6270  0.2212
 1189SOL    HW1 4466   5.780   4.644   6.730 -0.1149  0.4909  2.4937
 1189SOL    HW2 4467   5.908   4.543   6.740 -0.1024  0.1694 -0.1450
 1190SOL     OW 4468   5.985   2.403   0.603 -0.0433 -0.5451  0.3665
 1190SOL    HW1 4469   5.918   2.404   0.529 -0.6508 -0.2978  0.9108
 1190SOL    HW2 4470   6.062   2.461   0.579 -0.3529 -0.2679  0.0243
 1191SOL     OW 4471   2.891   2.135   0.032  0.1367 -0.8015 -0.3039
 1191SOL    HW1 4472   2.902   2.046  -0.012 -1.0472 -0.5942 -1.0552
 1191SOL    HW2 4473   2.891   2.123   0.131  0.4824 -1.5705 -0.3909
 1192SOL     OW 4474   2.318   1.605   6.380 -0.4205  0.2318 -0.3175
 1192SOL    HW1 4475   2.288   1.621   6.474  0.3504  2.6568 -0.4162
 1192SOL    HW2 4476   2.415   1.584   6.379 -0.7113 -1.2151 -0.5039
 1193SOL     OW 4477   6.734   5.694   3.366 -0.3743  0.2219 -0.1960
 1193SOL    HW1 4478   6.778   5.623   3.311 -1.1751  0.6314 -1.4334
 1193SOL    HW2 4479   6.635   5.678   3.368 -0.6247  1.5062 -0.8703
 1194SOL     OW 4480   2.392   3.004   6.160 -0.1134 -0.2093  0.4540
 1194SOL    HW1 4481   2.459   3.021   6.087  0.4511  0.5381  1.1283
 1194SOL    HW2 4482   2.376   2.905   6.168  1.5498 -0.4869  0.8208
 1195SOL     OW 4483   1.046   5.505   0.635 -0.1666 -0.2823  0.2701
 1195SOL    HW1 4484   1.036   5.572   0.562 -0.3278 -0.2613  0.3098
 1195SOL    HW2 4485   0.991   5.424   0.614 -1.3720  0.3114  1.0496
 1196SOL     OW 4486   0.375   4.094   6.832 -0.3753  0.1304  0.1635
 1196SOL    HW1 4487   0.389   4.135   6.922  0.0920  0.0913  0.1126
 1196SOL    HW2 4488   0.462   4.094   6.782 -1.0569  2.1381 -1.1455
 1197SOL     OW 4489   1.416   0.485   4.323 -0.5917  0.3915 -0.0076
 1197SOL    HW1 4490   1.340   0.460   4.384 -1.4223  1.5689 -0.5273
 1197SOL    HW2 4491   1.382   0.544   4.250  0.9283  1.3710  0.0440
 1198SOL     OW 4492   6.848   4.454   4.028  0.9766 -0.6839 -0.1530
 1198SOL    HW1 4493   6.888   4.513   4.099  0.7908 -0.7525  0.0102
 1198SOL    HW2 4494   6.862   4.359   4.054  0.0564 -0.7088  0.2777
 1199SOL     OW 4495   4.549   4.686   5.120  0.1515 -0.1369  0.2277
 1199SOL    HW1 4496   4.610   4.613   5.152 -1.0549 -1.5176 -0.4776
 1199SOL    HW2 4497   4.470   4.645   5.075 -1.7460  1.5323  1.8246
 1200SOL     OW 4498   3.662   2.989   4.131 -0.0058 -0.5038 -0.1127
 1200SOL    HW1 4499   3.752   3.029   4.119  0.1060 -0.9877 -1.0297
 1200SOL    HW2 4500   3.610   2.998   4.046 -0.9512  0.0671  0.5085
 1201SOL     OW 4501   3.717   6.647   5.941  0.4856  0.1675  0.4127
 1201SOL    HW1 4502   3.801   6.654   5.888  1.3554 -0.9403  1.5951
 1201SOL    HW2 4503   3.657   6.579   5.898 -0.2282  1.5686 -0.9176
 1202SOL     OW 4504   5.983   1.153   0.337 -0.2706 -0.5859 -0.7919
 1202SOL    HW1 4505   5.884   1.144   0.331 -0.7582  1.4512  2.0035
 1202SOL    HW2 4506   6.016   1.104   0.418  0.3484  1.8485  0.5412
 1203SOL     OW 4507   3.697   6.641   5.532  0.4469  0.2501 -0.2644
 1203SOL    HW1 4508   3.712   6.708   5.458  0.4846 -0.7491 -1.1862
 1203SOL    HW2 4509   3.618   6.670   5.587  0.8922  1.4180 -0.2039
 1204SOL     OW 4510   4.167   0.239   3.104  0.2306  0.7085 -0.1572
 1204SOL    HW1 4511   4.250   0.213   3.155 -0.4854  1.9496  1.7320
 1204SOL    HW2 4512   4.160   0.338   3.100 -0.4039  0.6294 -1.6697
 1205SOL     OW 4513   5.803   4.789   2.078 -0.4053 -0.4046  0.6011
 1205SOL    HW1 4514   5.900   4.809   2.073  0.1089 -2.7127  0.4193
 1205SOL    HW2 4515   5.779   4.720   2.010 -2.3167  0.5469  0.2273
 1206SOL     OW 4516   6.476   1.102   1.750 -0.2758  0.8817  0.0263
 1206SOL    HW1 4517   6.431   1.141   1.669 -0.3655 -0.3656 -0.5388
 1206SOL    HW2 4518   6.513   1.012   1.728  2.3398  1.7418  0.5189
 1207SOL     OW 4519   5.693   3.540   4.051 -0.1096 -0.1184  0.3218
 1207SOL    HW1 4520   5.633   3.618   4.069  0.1744  0.2525 -0.3024
 1207SOL    HW2 4521   5.684   3.512   3.956  0.0140 -0.6544  0.4667
 1208SOL     OW 4522   3.059   4.053   1.477 -0.6182  1.3443 -0.1082
 1208SOL    HW1 4523   2.997   3.993   1.526 -0.5915  0.4704 -1.1011
 1208SOL    HW2 4524   3.115   4.104   1.542  1.8788 -2.2868  0.9026
 1209SOL     OW 4525   3.368   5.913   6.156  0.3782  0.6284 -0.1088
 1209SOL    HW1 4526   3.362   5.950   6.063 -0.6263  2.3822  0.6047
 1209SOL    HW2 4527   3.461   5.926   6.190  0.4773  0.9455 -0.4893
 1210SOL     OW 4528   6.380   0.397   6.323 -0.5072  0.7729  0.0517
 1210SOL    HW1 4529   6.453   0.464   6.341 -3.1127  3.5550  1.2020
 1210SOL    HW2 4530   6.307   0.441   6.271 -2.3559 -1.2283  0.8193
 1211SOL     OW 4531   2.611   2.947   6.551 -0.2481 -0.7096  0.3361
 1211SOL    HW1 4532   2.552   2.898   6.486  0.6060  0.2720 -1.2584
 1211SOL    HW2 4533   2.554   3.005   6.609 -0.9292  0.4138 -1.3390
 1212SOL     OW 4534   4.316   2.824   6.332  0.2920 -0.2488 -0.1892
 1212SOL    HW1 4535   4.280   2.838   6.424  0.8683 -0.3430  0.0503
 1212SOL    HW2 4536   4.240   2.829   6.266 -0.0211  0.5591  0.2121
 1213SOL     OW 4537   4.259   1.164   5.290 -0.0107 -0.5723  0.2009
 1213SOL    HW1 4538   4.221   1.210   5.370 -2.1732 -1.7702 -0.0461
 1213SOL    HW2 4539   4.200   1.182   5.211  2.6055  1.4252 -1.4603
 1214SOL     OW 4540   0.760   6.380   2.323 -0.3412 -0.0578 -0.1829
 1214SOL    HW1 4541   0.755   6.479   2.314  2.0924  0.0169 -1.4497
 1214SOL    HW2 4542   0.828   6.356   2.393 -0.3723 -0.8225 -0.3969
 1215SOL     OW 4543   5.713   4.739   2.807  0.4768  0.1471 -0.4119
 1215SOL    HW1 4544   5.699   4.836   2.831 -0.9676 -0.3858  1.0737
 1215SOL    HW2 4545   5.745   4.690   2.888  0.2497 -0.8207 -0.8998
 1216SOL     OW 4546   2.204   4.578   0.139 -0.2239 -0.8847  0.0124
 1216SOL    HW1 4547   2.128   4.626   0.185 -0.1621 -1.0176  0.2579
 1216SOL    HW2 4548   2.231   4.500   0.195  0.0854 -0.8452 -0.0838
 1217SOL     OW 4549   2.064   3.467   5.805 -0.0588 -0.1411  0.3196
 1217SOL    HW1 4550   2.024   3.551   5.841  0.1473 -0.1648  0.6131
 1217SOL    HW2 4551   1.992   3.399   5.789 -0.2693  0.2209 -0.2826
 1218SOL     OW 4552   1.055   1.456   5.127  0.3000  0.2176  0.7829
 1218SOL    HW1 4553   1.089   1.518   5.198  1.5934  1.5527 -0.9122
 1218SOL    HW2 4554   1.032   1.509   5.045  0.3749 -1.4458 -0.3510
 1219SOL     OW 4555   5.740   2.671   4.841 -0.8649  0.1065  0.7502
 1219SOL    HW1 4556   5.756   2.666   4.743 -0.3738 -1.3825  0.8885
 1219SOL    HW2 4557   5.673   2.602   4.868  0.8375 -1.1989  1.8008
 1220SOL     OW 4558   3.061   1.523   1.385  0.5673 -0.6928  0.0079
 1220SOL    HW1 4559   3.143   1.477   1.348  0.8450  1.1053 -1.8217
 1220SOL    HW2 4560   3.089   1.595   1.447  0.5652  0.9724 -1.8133
 1221SOL     OW 4561   2.517   7.008   6.693 -0.0700 -0.4229  0.2997
 1221SOL    HW1 4562   2.447   7.067   6.651  0.0816 -0.9442 -0.6990
 1221SOL    HW2 4563   2.598   7.005   6.635  0.0518 -1.3554  0.4999
 1222SOL     OW 4564   2.497   1.337   1.637 -0.3400 -0.5743  0.5873
 1222SOL    HW1 4565   2.578   1.371   1.684 -0.6602 -0.5590  1.1386
 1222SOL    HW2 4566   2.461   1.257   1.686 -1.1568 -0.0616  0.8555
 1223SOL     OW 4567   3.106   6.813   3.791  0.1546 -0.1758 -0.2455
 1223SOL    HW1 4568   3.107   6.731   3.733  1.5657 -1.7868  1.9176
 1223SOL    HW2 4569   3.043   6.800   3.867  2.5083 -0.5868  1.7713
 1224SOL     OW 4570   6.964   6.580   0.065  0.4914 -0.2389 -0.4353
 1224SOL    HW1 4571   6.912   6.512   0.117  1.5064 -0.7012  0.0026
 1224SOL    HW2 4572   6.941   6.573  -0.032  0.5192 -1.1591 -0.3821
 1225SOL     OW 4573   1.105   0.543   6.905  0.3895  0.2504  0.0161
 1225SOL    HW1 4574   1.180   0.567   6.844 -0.6762 -1.2312 -1.9781
 1225SOL    HW2 4575   1.046   0.623   6.917  0.0697  0.3188 -1.7429
 1226SOL     OW 4576   1.475   4.528   1.437 -0.5784 -0.5050  0.1693
 1226SOL    HW1 4577   1.400   4.473   1.474 -0.6400 -0.2823  0.3754
 1226SOL    HW2 4578   1.452   4.559   1.345 -0.1127 -1.6947 -0.3714
 1227SOL     OW 4579   2.218   1.979   6.734 -0.0319 -0.0280 -1.0986
 1227SOL    HW1 4580   2.302   1.941   6.696  0.1910 -2.4132  1.4378
 1227SOL    HW2 4581   2.148   1.908   6.736 -0.9442  0.8655  0.1069
 1228SOL     OW 4582   6.773   3.276   3.147 -0.2753 -0.5713 -0.0765
 1228SOL    HW1 4583   6.693   3.315   3.102 -0.5647 -2.1153 -0.9842
 1228SOL    HW2 4584   6.775   3.305   3.243 -1.4685  0.1468 -0.2462
 1229SOL     OW 4585   1.715   4.801   6.781 -0.8411  0.0283  0.4958
 1229SOL    HW1 4586   1.758   4.717   6.814 -2.0316 -0.3394  1.2112
 1229SOL    HW2 4587   1.680   4.786   6.689 -1.8105 -0.5739  0.9419
 1230SOL     OW 4588   6.424   0.962   3.355  0.3344  0.8685  0.7137
 1230SOL    HW1 4589   6.477   0.899   3.299 -1.3962  0.3728 -0.4451
 1230SOL    HW2 4590   6.411   0.923   3.446 -0.1433 -0.1557  0.2218
 1231SOL     OW 4591   2.409   3.603   0.953  0.2758 -0.0021  0.4125
 1231SOL    HW1 4592   2.312   3.627   0.957  0.4444  0.4450  2.5879
 1231SOL    HW2 4593   2.464   3.678   0.990  1.3512 -0.8776  0.6329
 1232SOL     OW 4594   6.184   2.922   5.535  0.6337  0.0657  0.1950
 1232SOL    HW1 4595   6.183   2.849   5.602 -1.0508  1.2055  1.4985
 1232SOL    HW2 4596   6.099   2.920   5.482  1.2527  0.1594 -0.8421
 1233SOL     OW 4597   3.468   1.517   0.253 -0.5331 -0.1772  0.1892
 1233SOL    HW1 4598   3.523   1.507   0.170 -1.2928 -0.4927 -0.2929
 1233SOL    HW2 4599   3.525   1.500   0.333  0.1125 -0.2916 -0.2853
 1234SOL     OW 4600   1.110   0.989   5.030 -0.3028 -0.3208  0.6754
 1234SOL    HW1 4601   1.209   0.997   5.018 -0.1980 -1.4208  0.6505
 1234SOL    HW2 4602   1.090   0.910   5.089 -1.2477 -1.9183 -1.6152
 1235SOL     OW 4603   6.376   2.641   1.686  0.1659 -0.2455  0.8765
 1235SOL    HW1 4604   6.383   2.718   1.749  0.1942  1.0269 -0.6375
 1235SOL    HW2 4605   6.286   2.598   1.696 -0.2183  0.5853  1.0854
 1236SOL     OW 4606   2.652   4.709   2.402  0.1197  0.3499 -0.2752
 1236SOL    HW1 4607   2.662   4.730   2.305 -0.9375  1.8407 -0.0954
 1236SOL    HW2 4608   2.736   4.732   2.450 -0.4091  2.7983 -0.3652
 1237SOL     OW 4609   3.220   2.974   1.995  0.2740  0.4825 -0.0329
 1237SOL    HW1 4610   3.134   2.998   2.040 -0.0367  0.7868 -0.7703
 1237SOL    HW2 4611   3.250   3.050   1.938  0.0971 -0.2714 -1.1692
 1238SOL     OW 4612   4.825   1.470   1.265 -0.3880 -0.6922 -0.1331
 1238SOL    HW1 4613   4.911   1.469   1.315 -0.0542 -0.1759 -0.6895
 1238SOL    HW2 4614   4.749   1.486   1.329  0.1988  2.0968  0.0035
 1239SOL     OW 4615   6.090   5.814   2.922 -0.1518  0.0945  0.0767
 1239SOL    HW1 4616   6.090   5.717   2.898 -0.0316  0.6227 -2.3040
 1239SOL    HW2 4617   6.005   5.856   2.891 -0.7628  0.5503  2.2150
 1240SOL     OW 4618   4.259   6.912   1.904  0.0552  0.1173  0.3418
 1240SOL    HW1 4619   4.284   6.834   1.847  0.4557 -1.2723  2.2846
 1240SOL    HW2 4620   4.165   6.899   1.938  0.2305  0.3028  0.9163
 1241SOL     OW 4621   2.999   0.174   4.133  0.1998 -0.2252 -0.0846
 1241SOL    HW1 4622   2.945   0.241   4.083 -0.7623 -0.2088  0.9345
 1241SOL    HW2 4623   3.052   0.119   4.069 -1.8786 -1.0065 -1.2278
 1242SOL     OW 4624   5.787   3.551   5.679 -0.3035 -0.2564  0.1414
 1242SOL    HW1 4625   5.700   3.512   5.651 -1.1467  0.7216  1.3067
 1242SOL    HW2 4626   5.839   3.484   5.731 -0.3682 -0.8266 -0.5215
 1243SOL     OW 4627   2.170   6.375   0.908  0.2766 -0.3225  0.6103
 1243SOL    HW1 4628   2.223   6.425   0.840 -0.0239  0.0646  0.6580
 1243SOL    HW2 4629   2.212   6.387   0.998 -0.4949  0.8711  0.8205
 1244SOL     OW 4630   0.761   6.393   2.792 -0.4456 -0.4860  0.1289
 1244SOL    HW1 4631   0.741   6.491   2.802 -1.3411 -0.8155  2.1472
 1244SOL    HW2 4632   0.849   6.373   2.836 -0.5207 -0.6703  0.1960
 1245SOL     OW 4633   5.271   3.209   3.384  0.1793 -0.3075  0.1398
 1245SOL    HW1 4634   5.348   3.238   3.326 -0.4890  1.9352  0.2879
 1245SOL    HW2 4635   5.189   3.199   3.327 -0.0084 -0.1440  0.3817
 1246SOL     OW 4636   6.560   1.900   1.465 -0.3292  0.0466  0.3411
 1246SOL    HW1 4637   6.583   1.992   1.431 -1.0728  0.6016  1.2953
 1246SOL    HW2 4638   6.464   1.897   1.490 -0.2314 -0.9143  0.6146
 1247SOL     OW 4639   6.189   0.610   3.329  0.4131  0.0899  0.0769
 1247SOL    HW1 4640   6.272   0.644   3.283  1.1597 -2.4299 -0.5936
 1247SOL    HW2 4641   6.113   0.608   3.264  1.2080 -2.4850 -0.8970
 1248SOL     OW 4642   2.176   2.103   4.231 -0.1774 -0.0139 -0.1648
 1248SOL    HW1 4643   2.149   2.008   4.216 -0.7273  0.0177  0.6076
 1248SOL    HW2 4644   2.129   2.162   4.165 -1.2649 -0.0688  0.5507
 1249SOL     OW 4645   1.761   3.953   2.028  0.4078  0.2283 -0.8675
 1249SOL    HW1 4646   1.738   3.959   2.125  0.9555 -0.5404 -0.6862
 1249SOL    HW2 4647   1.860   3.953   2.017  0.3700 -1.2156 -1.3126
 1250SOL     OW 4648   3.627   4.745   6.887 -0.0417  0.2396  0.5271
 1250SOL    HW1 4649   3.595   4.658   6.923  2.1285 -0.4692  0.8678
 1250SOL    HW2 4650   3.714   4.732   6.840 -0.1358  2.0874 -0.2555
 1251SOL     OW 4651   1.107   0.385   0.656 -0.0911 -0.1660  0.7564
 1251SOL    HW1 4652   1.063   0.475   0.660  0.4013  0.2906 -2.1369
 1251SOL    HW2 4653   1.205   0.396   0.670  0.1375 -0.0533 -0.8527
 1252SOL     OW 4654   1.376   0.634   3.688 -0.2957 -0.3548 -0.0116
 1252SOL    HW1 4655   1.427   0.672   3.765 -1.2077  0.0043  0.4367
 1252SOL    HW2 4656   1.329   0.708   3.639 -1.2064 -0.7697  0.2084
 1253SOL     OW 4657   2.973   5.478   6.692  0.3135  0.4851 -0.4144
 1253SOL    HW1 4658   3.011   5.429   6.770  0.0453  0.5264 -0.2565
 1253SOL    HW2 4659   2.887   5.435   6.665  1.6283 -1.1426 -2.2917
 1254SOL     OW 4660   5.433   2.214   3.127 -0.2603 -0.4533 -0.3880
 1254SOL    HW1 4661   5.489   2.172   3.056  0.6710 -0.3927  0.3045
 1254SOL    HW2 4662   5.421   2.150   3.203 -1.8182 -0.7706 -0.8646
 1255SOL     OW 4663   3.011   0.813   5.259  0.1898 -0.3752 -0.3256
 1255SOL    HW1 4664   3.042   0.719   5.271  1.1568  0.0260  0.3655
 1255SOL    HW2 4665   3.009   0.836   5.161  1.3504 -0.6563 -0.4257
 1256SOL     OW 4666   5.644   2.963   0.773 -0.4241  0.2471 -0.1012
 1256SOL    HW1 4667   5.700   2.950   0.691 -0.0219 -1.8326  0.4430
 1256SOL    HW2 4668   5.548   2.972   0.747 -0.4714 -1.7257 -0.8076
 1257SOL     OW 4669   5.651   5.296   3.304 -0.2973  0.0137 -0.1377
 1257SOL    HW1 4670   5.654   5.357   3.382  0.4919  0.9772 -0.8888
 1257SOL    HW2 4671   5.702   5.212   3.325 -1.0576 -0.2400  0.7588
 1258SOL     OW 4672   0.388   4.790   1.497  0.2380  0.1679 -0.4382
 1258SOL    HW1 4673   0.398   4.700   1.455  0.2355  0.8871 -2.0473
 1258SOL    HW2 4674   0.292   4.806   1.519  0.3830 -0.6285  0.8334
 1259SOL     OW 4675   6.784   2.748   5.754  0.0569 -0.2130 -0.0235
 1259SOL    HW1 4676   6.782   2.847   5.764  2.1454  0.0081 -1.2257
 1259SOL    HW2 4677   6.866   2.721   5.704 -1.4212 -2.4204 -1.4333
 1260SOL     OW 4678   2.583   1.709   2.938 -0.1451  0.0014 -0.5487
 1260SOL    HW1 4679   2.643   1.636   2.970 -0.0606 -0.5200 -1.8260
 1260SOL    HW2 4680   2.600   1.792   2.991  0.4172 -0.6461  0.3066
 1261SOL     OW 4681   1.547   3.606   3.170  0.1648  0.7723  0.3836
 1261SOL    HW1 4682   1.543   3.608   3.070  0.4458  0.1007  0.3503
 1261SOL    HW2 4683   1.475   3.663   3.207 -0.7470  0.0341 -0.2005
 1262SOL     OW 4684   2.621   4.602   4.600 -0.2302 -0.3551  0.4978
 1262SOL    HW1 4685   2.626   4.549   4.685  0.0139 -1.6923 -0.3237
 1262SOL    HW2 4686   2.567   4.552   4.533  0.1164  0.3851 -0.3484
 1263SOL     OW 4687   0.224   2.595   3.820  0.4989  0.0692  0.3041
 1263SOL    HW1 4688   0.176   2.521   3.868  1.5122  0.9432  2.8383
 1263SOL    HW2 4689   0.305   2.557   3.774  0.1071 -0.6417  0.1845
 1264SOL     OW 4690   3.133   1.702   1.589  0.5383  0.1470  0.0646
 1264SOL    HW1 4691   3.097   1.784   1.544  1.1682  0.1895 -0.3679
 1264SOL    HW2 4692   3.219   1.724   1.634  0.1125  0.0050  0.9677
 1265SOL     OW 4693   3.410   3.414   6.541  0.3379 -0.0262  1.1250
 1265SOL    HW1 4694   3.316   3.404   6.574  0.3295 -0.5390  0.9573
 1265SOL    HW2 4695   3.471   3.430   6.618  0.0877  0.5017  1.2150
 1266SOL     OW 4696   3.204   0.151   3.622 -0.6415  0.3704  0.3594
 1266SOL    HW1 4697   3.209   0.228   3.559 -1.6170 -1.0051 -1.4967
 1266SOL    HW2 4698   3.114   0.108   3.615 -0.7129  0.0492  2.5904
 1267SOL     OW 4699   3.318   1.971   0.683  0.1030 -0.4563 -0.1820
 1267SOL    HW1 4700   3.314   2.063   0.722  2.3657 -0.1943 -0.4579
 1267SOL    HW2 4701   3.309   1.977   0.583  2.1448 -0.2958 -0.3875
 1268SOL     OW 4702   2.061   1.084   0.216  0.0976 -0.1161  0.0615
 1268SOL    HW1 4703   2.158   1.082   0.240  0.0617 -0.1072  0.2075
 1268SOL    HW2 4704   2.050   1.123   0.125  0.1164  1.2874  0.6410
 1269SOL     OW 4705   1.236   0.801   4.822 -0.2916 -0.6720 -0.0146
 1269SOL    HW1 4706   1.178   0.879   4.841  0.6326  0.1354 -0.3916
 1269SOL    HW2 4707   1.284   0.773   4.905 -0.1683 -0.4456 -0.0085
 1270SOL     OW 4708   6.436   2.624   6.483  0.0100 -0.1019 -0.0127
 1270SOL    HW1 4709   6.365   2.648   6.548  0.0406 -0.1129  0.0251
 1270SOL    HW2 4710   6.479   2.537   6.510  0.7493  0.4266  0.5482
 1271SOL     OW 4711   3.615   1.504   2.223  0.4944  0.0003  0.2688
 1271SOL    HW1 4712   3.605   1.593   2.269 -0.3648 -0.9425  2.0135
 1271SOL    HW2 4713   3.638   1.434   2.291 -0.0034 -1.3296 -0.8901
 1272SOL     OW 4714   4.870   2.513   0.139  0.2208  0.4332 -0.0869
 1272SOL    HW1 4715   4.907   2.489   0.229  1.4297 -0.4880 -0.8117
 1272SOL    HW2 4716   4.773   2.487   0.135 -0.8199  3.3261  2.0063
 1273SOL     OW 4717   4.944   3.305   1.862  0.6926  0.0759  0.1635
 1273SOL    HW1 4718   4.943   3.298   1.962 -0.2068  0.7770  0.2190
 1273SOL    HW2 4719   4.898   3.226   1.823  0.5282  0.0929  0.3225
 1274SOL     OW 4720   6.535   5.935   6.755  0.1192  0.4669 -0.8867
 1274SOL    HW1 4721   6.479   5.992   6.815 -0.4673 -0.0879 -0.8954
 1274SOL    HW2 4722   6.477   5.895   6.683 -0.0899 -2.3659  0.7155
 1275SOL     OW 4723   6.270   3.283   5.329 -0.3199  0.4340  0.6950
 1275SOL    HW1 4724   6.179   3.289   5.371  0.1375  1.0498  1.6159
 1275SOL    HW2 4725   6.338   3.326   5.389  0.8955 -1.6496  0.8991
 1276SOL     OW 4726   2.283   0.418   6.231  0.4540  0.8519  0.3782
 1276SOL    HW1 4727   2.189   0.440   6.259 -0.4425  1.6180 -2.7808
 1276SOL    HW2 4728   2.293   0.320   6.219 -1.3165  0.9375 -3.0333
 1277SOL     OW 4729   3.373   6.639   6.662  0.1929 -0.4700 -0.0050
 1277SOL    HW1 4730   3.376   6.681   6.571 -0.2269  1.8438  0.9594
 1277SOL    HW2 4731   3.401   6.544   6.656 -1.7263 -0.9633 -2.8377
 1278SOL     OW 4732   2.083   5.380   0.922  0.0235  0.0715  0.7402
 1278SOL    HW1 4733   2.058   5.294   0.966  0.4395 -0.5009 -0.1142
 1278SOL    HW2 4734   2.137   5.361   0.840 -0.2641  1.1360  0.2904
 1279SOL     OW 4735   3.264   4.227   0.678  0.6180  0.4040  0.0530
 1279SOL    HW1 4736   3.287   4.296   0.747  1.6226  0.1024  0.0323
 1279SOL    HW2 4737   3.166   4.208   0.682  0.8482 -0.7039  2.4718
 1280SOL     OW 4738   3.983   5.417   6.493  0.1963 -0.3336  0.3161
 1280SOL    HW1 4739   3.908   5.402   6.557  0.9521 -1.1723  1.0381
 1280SOL    HW2 4740   4.062   5.364   6.522  0.5136 -0.8647 -1.4167
 1281SOL     OW 4741   0.848   1.330   5.285 -0.0620  0.0098 -0.2332
 1281SOL    HW1 4742   0.882   1.255   5.341 -0.3203 -0.3080 -0.5006
 1281SOL    HW2 4743   0.920   1.358   5.220  0.7041  1.2261  1.0871
 1282SOL     OW 4744   3.632   0.333   4.675  0.1641  0.0895 -0.2090
 1282SOL    HW1 4745   3.589   0.276   4.605 -3.5642  0.6141  1.3816
 1282SOL    HW2 4746   3.665   0.418   4.634 -2.0556  0.4514 -1.3982
 1283SOL     OW 4747   1.136   0.943   5.813 -0.2527  0.5603  0.5268
 1283SOL    HW1 4748   1.085   1.029   5.823  1.4761  1.4908  1.9381
 1283SOL    HW2 4749   1.116   0.883   5.891 -1.6237 -0.4646 -0.5636
 1284SOL     OW 4750   6.780   0.680   5.179 -0.2090  0.1153 -0.1897
 1284SOL    HW1 4751   6.855   0.717   5.235 -1.3279  3.0270 -0.4252
 1284SOL    HW2 4752   6.720   0.625   5.237  0.8964 -0.4244  0.4938
 1285SOL     OW 4753   3.252   4.342   5.902  0.0924 -0.0934 -0.2731
 1285SOL    HW1 4754   3.263   4.321   5.999  0.3903  0.8647 -0.0921
 1285SOL    HW2 4755   3.183   4.413   5.891 -0.7529 -0.9829 -0.8610
 1286SOL     OW 4756   2.802   5.446   5.489 -0.7452 -0.0826  0.0145
 1286SOL    HW1 4757   2.760   5.455   5.579 -1.4522 -0.5332 -0.2660
 1286SOL    HW2 4758   2.881   5.385   5.495  0.4328  1.4247  0.7111
 1287SOL     OW 4759   5.985   5.627   0.592  0.2285 -0.3737 -0.3370
 1287SOL    HW1 4760   6.080   5.645   0.566  0.6384 -3.1938 -1.1953
 1287SOL    HW2 4761   5.933   5.597   0.512 -1.0289 -0.1601  0.3670
 1288SOL     OW 4762   4.620   4.985   2.243  0.4772  0.1505  0.0223
 1288SOL    HW1 4763   4.584   4.892   2.232 -2.1002  0.9938  0.7036
 1288SOL    HW2 4764   4.698   4.997   2.181 -0.7868 -1.6468 -2.1076
 1289SOL     OW 4765   1.176   3.000   5.143 -0.2032  0.1416 -0.1462
 1289SOL    HW1 4766   1.210   3.093   5.148  1.6668 -0.4741 -0.5435
 1289SOL    HW2 4767   1.197   2.961   5.053 -0.5293 -0.8128  0.1712
 1290SOL     OW 4768   2.807   2.374   4.692 -0.1907  0.4548 -0.3865
 1290SOL    HW1 4769   2.710   2.349   4.700 -0.4464  1.1906 -1.0482
 1290SOL    HW2 4770   2.832   2.380   4.596  0.9075 -1.1369 -0.2373
 1291SOL     OW 4771   5.588   1.988   1.302 -0.0144 -0.2908  0.0202
 1291SOL    HW1 4772   5.553   1.902   1.266  1.0669 -1.0243  0.6623
 1291SOL    HW2 4773   5.577   1.989   1.402 -3.3173  1.8661 -0.1909
 1292SOL     OW 4774   5.215   6.048   1.822  0.3645 -0.3303 -0.2655
 1292SOL    HW1 4775   5.149   6.122   1.834  1.1404  0.0732  1.7864
 1292SOL    HW2 4776   5.167   5.962   1.803 -0.6407  0.2765 -0.4988
 1293SOL     OW 4777   1.731   3.439   0.873  0.0426 -0.3245 -0.2520
 1293SOL    HW1 4778   1.640   3.404   0.853  0.0824  0.0267 -1.0798
 1293SOL    HW2 4779   1.798   3.390   0.816  0.3816 -0.6263  0.3967
 1294SOL     OW 4780   5.611   3.569   0.038 -0.3522  0.1028 -0.3136
 1294SOL    HW1 4781   5.690   3.569  -0.023 -0.5656  0.1454 -0.5983
 1294SOL    HW2 4782   5.583   3.663   0.056 -0.1823  0.0954 -0.0037
 1295SOL     OW 4783   0.320   4.261   0.948 -0.4802 -0.2253 -0.6887
 1295SOL    HW1 4784   0.274   4.312   0.876  0.5904  0.2575 -1.0567
 1295SOL    HW2 4785   0.269   4.178   0.969 -0.1934 -1.0125 -2.8577
 1296SOL     OW 4786   0.424   4.101   3.601  0.3257  0.2832 -0.5865
 1296SOL    HW1 4787   0.440   4.014   3.554 -0.0829 -0.7439  1.0884
 1296SOL    HW2 4788   0.334   4.100   3.644  1.2541  0.5219  1.4898
 1297SOL     OW 4789   3.368   5.732   0.163  0.4669 -0.4213  0.4753
 1297SOL    HW1 4790   3.273   5.743   0.192  0.5207  2.4976 -0.1220
 1297SOL    HW2 4791   3.371   5.692   0.071 -0.0966 -1.5355  0.9243
 1298SOL     OW 4792   2.284   6.928   2.127 -0.9061 -0.0821  0.3057
 1298SOL    HW1 4793   2.265   6.868   2.049 -0.3586 -1.2050  0.9975
 1298SOL    HW2 4794   2.306   7.020   2.095  1.4273 -1.0229 -1.0633
 1299SOL     OW 4795   0.138   1.617   5.260  0.0072 -1.1592 -0.2448
 1299SOL    HW1 4796   0.114   1.710   5.287 -1.2085 -1.0069 -1.7097
 1299SOL    HW2 4797   0.068   1.554   5.294  1.2865 -1.6991  1.5114
 1300SOL     OW 4798   4.877   5.434   0.787 -0.5050  0.0217  0.4176
 1300SOL    HW1 4799   4.785   5.402   0.764 -1.5673  2.2942  1.2055
 1300SOL    HW2 4800   4.873   5.531   0.811  2.2112  0.3202 -0.0473
 1301SOL     OW 4801   2.618   0.013   1.521 -0.8283 -0.1993 -0.3045
 1301SOL    HW1 4802   2.627   0.069   1.439 -1.2225  3.6521  2.0373
 1301SOL    HW2 4803   2.709  -0.015   1.552 -0.5104  0.2972 -0.7696
 1302SOL     OW 4804   5.243   2.298   2.409 -0.1708 -0.3603  0.3483
 1302SOL    HW1 4805   5.153   2.336   2.429  0.1269  1.3299 -1.3381
 1302SOL    HW2 4806   5.299   2.300   2.493 -1.0404  0.4544  0.9312
 1303SOL     OW 4807   3.046   2.238   3.252 -0.5010  0.0236  0.4183
 1303SOL    HW1 4808   3.012   2.245   3.345  1.0620  0.5040  0.9930
 1303SOL    HW2 4809   2.970   2.223   3.189 -1.6710  0.5693  1.6637
 1304SOL     OW 4810   5.362   2.954   2.862 -0.5688  0.1885  0.4273
 1304SOL    HW1 4811   5.301   3.020   2.818  1.3286  1.0807 -1.0082
 1304SOL    HW2 4812   5.456   2.986   2.855  0.2760 -1.9902  1.0173
 1305SOL     OW 4813   3.636   6.693   3.587  0.0593 -0.3574 -0.5758
 1305SOL    HW1 4814   3.641   6.678   3.685  0.7485 -0.9784 -0.6956
 1305SOL    HW2 4815   3.540   6.705   3.559 -0.1363 -0.2025  0.1604
 1306SOL     OW 4816   4.650   5.823   0.655 -1.0022 -0.1076 -0.1468
 1306SOL    HW1 4817   4.661   5.867   0.744 -2.1640  0.2263 -0.1604
 1306SOL    HW2 4818   4.556   5.789   0.646 -0.8306 -0.3258 -1.1643
 1307SOL     OW 4819   0.580   1.921   5.995 -0.2049 -0.1408 -0.5797
 1307SOL    HW1 4820   0.589   1.977   6.077  0.7580 -1.7555  0.4881
 1307SOL    HW2 4821   0.507   1.957   5.938 -0.4396  1.4385  0.6442
 1308SOL     OW 4822   2.947   2.174   0.880  0.3395  0.0428 -0.3317
 1308SOL    HW1 4823   3.029   2.148   0.930  0.3815  2.1858  0.7970
 1308SOL    HW2 4824   2.890   2.093   0.865  0.7630 -0.8426  2.3781
 1309SOL     OW 4825   5.139   6.888   2.704 -0.4040  0.0621  0.2575
 1309SOL    HW1 4826   5.205   6.949   2.661  1.9264 -0.9927  2.1521
 1309SOL    HW2 4827   5.159   6.794   2.679 -1.4217 -0.2546  0.5812
 1310SOL     OW 4828   4.468   6.697   5.630  0.0475  0.0193  0.1687
 1310SOL    HW1 4829   4.424   6.652   5.708  0.7037  0.1325  0.6049
 1310SOL    HW2 4830   4.397   6.728   5.566 -0.5530  0.6957  1.1291
 1311SOL     OW 4831   6.674   4.261   6.909  0.1289  0.1672  0.8869
 1311SOL    HW1 4832   6.649   4.169   6.878  1.2586  0.5254 -1.2937
 1311SOL    HW2 4833   6.599   4.324   6.888  0.3271  0.1505  0.0771
 1312SOL     OW 4834   2.163   6.882   6.778 -0.0576 -0.6516  0.0400
 1312SOL    HW1 4835   2.252   6.847   6.806  0.1497 -1.4647 -1.5053
 1312SOL    HW2 4836   2.124   6.821   6.709 -1.0772  0.5692 -0.5056
 1313SOL     OW 4837   0.807   3.557   5.396 -0.1558 -0.0140  0.0809
 1313SOL    HW1 4838   0.891   3.505   5.409  0.3623  1.1219  1.5910
 1313SOL    HW2 4839   0.754   3.518   5.321  2.2224 -0.1218 -1.6467
 1314SOL     OW 4840   5.715   6.322   0.091 -0.5542 -0.1900  0.5054
 1314SOL    HW1 4841   5.781   6.340   0.164 -0.8607  2.2524  0.2851
 1314SOL    HW2 4842   5.622   6.324   0.129 -0.6928  0.6969  0.1433
 1315SOL     OW 4843   2.945   5.155   5.909  0.2321  0.1400 -0.0114
 1315SOL    HW1 4844   2.996   5.084   5.958  0.3879 -1.2523 -2.0487
 1315SOL    HW2 4845   3.007   5.204   5.848 -0.8089 -2.1210 -3.1380
 1316SOL     OW 4846   5.303   3.398   1.619  0.3610 -0.0090 -0.4294
 1316SOL    HW1 4847   5.357   3.354   1.691  0.0814 -0.3374 -0.4175
 1316SOL    HW2 4848   5.227   3.338   1.593 -0.1987  0.5829 -0.2059
 1317SOL     OW 4849   4.881   6.403   3.321  0.7322  0.0547 -0.3424
 1317SOL    HW1 4850   4.799   6.375   3.371 -0.6697  1.4775 -1.7330
 1317SOL    HW2 4851   4.886   6.354   3.234  0.2746  1.3502 -1.1250
 1318SOL     OW 4852   4.035   5.011   1.777 -0.1361 -0.0462 -0.1317
 1318SOL    HW1 4853   3.978   5.001   1.696  0.1289  1.7059 -0.5630
 1318SOL    HW2 4854   3.985   5.060   1.848 -0.1752 -1.0859  0.5799
 1319SOL     OW 4855   6.657   3.039   1.864  0.3858 -0.5328 -0.2557
 1319SOL    HW1 4856   6.740   3.047   1.919  0.7785 -1.8473 -0.6331
 1319SOL    HW2 4857   6.679   3.050   1.767 -0.3462  2.0506 -0.2135
 1320SOL     OW 4858   6.194   2.681   5.721  0.7134 -0.0634  0.0018
 1320SOL    HW1 4859   6.276   2.697   5.777  1.1982 -1.3658 -0.2974
 1320SOL    HW2 4860   6.212   2.607   5.656 -0.8168 -0.6098  0.1648
 1321SOL     OW 4861   1.989   5.544   6.436  0.5515  0.2139 -0.0754
 1321SOL    HW1 4862   1.900   5.513   6.469  1.0344  1.2792  2.4621
 1321SOL    HW2 4863   2.057   5.472   6.452  0.3525 -0.2116 -1.0827
 1322SOL     OW 4864   4.244   0.223   4.740 -0.0708  0.3625  0.1726
 1322SOL    HW1 4865   4.269   0.195   4.833  0.6275 -0.5107 -0.2648
 1322SOL    HW2 4866   4.304   0.177   4.674  1.0278  2.7735 -0.6105
 1323SOL     OW 4867   3.382   0.763   1.366  0.0662 -0.0280 -0.0548
 1323SOL    HW1 4868   3.388   0.692   1.296  0.2063 -0.8414  0.7613
 1323SOL    HW2 4869   3.475   0.791   1.391  0.0054  0.6637 -0.5842
 1324SOL     OW 4870   4.991   4.985   3.928 -0.3059 -0.1841 -0.3611
 1324SOL    HW1 4871   5.018   4.935   3.846  0.0235 -2.5936  1.1380
 1324SOL    HW2 4872   4.898   4.959   3.955 -0.1488  0.0328  0.4340
 1325SOL     OW 4873   5.375   6.373   5.314 -0.1795  0.1586  0.0664
 1325SOL    HW1 4874   5.414   6.424   5.390  0.7673 -0.5284  0.0595
 1325SOL    HW2 4875   5.296   6.322   5.345 -0.2163  0.4306  0.4249
 1326SOL     OW 4876   4.077   5.121   6.819 -0.5352  0.0616 -0.2845
 1326SOL    HW1 4877   4.170   5.087   6.833 -0.3382  0.5961 -0.2993
 1326SOL    HW2 4878   4.044   5.163   6.903 -1.2206 -1.1915  0.1048
 1327SOL     OW 4879   6.045   6.477   0.768  0.1706  0.3396 -0.1913
 1327SOL    HW1 4880   6.096   6.554   0.730 -0.2668 -0.0111 -1.5421
 1327SOL    HW2 4881   6.026   6.411   0.695 -0.4725 -0.4865  0.7099
 1328SOL     OW 4882   2.111   3.320   2.938  0.3315 -0.2278  0.5811
 1328SOL    HW1 4883   2.012   3.332   2.948  0.6342  1.0532  2.8899
 1328SOL    HW2 4884   2.132   3.291   2.845 -2.3366 -2.3692  0.5124
 1329SOL     OW 4885   2.983   0.740   0.813  0.5410 -0.1515  0.1876
 1329SOL    HW1 4886   2.951   0.681   0.887  0.0878  0.6610  0.6465
 1329SOL    HW2 4887   3.039   0.813   0.850 -1.8633  1.8742  0.1337
 1330SOL     OW 4888   6.294   3.582   2.679  0.4984  0.0729 -0.9463
 1330SOL    HW1 4889   6.367   3.624   2.627  2.2462 -0.7190  0.7495
 1330SOL    HW2 4890   6.281   3.631   2.765  0.7314 -1.1876 -0.1531
 1331SOL     OW 4891   6.630   0.048   0.848 -0.7792  0.2850  0.5371
 1331SOL    HW1 4892   6.711   0.106   0.859  0.9531 -2.0155  0.6713
 1331SOL    HW2 4893   6.611   0.035   0.751  0.0733 -0.4834  0.4558
 1332SOL     OW 4894   0.513   2.927   0.997  0.2274  0.3401 -0.2548
 1332SOL    HW1 4895   0.552   2.946   0.907 -1.4807 -1.2838 -1.4002
 1332SOL    HW2 4896   0.580   2.877   1.052  0.7719  0.0672 -1.1400
 1333SOL     OW 4897   4.401   6.193   5.556  0.7119  0.0581 -0.3794
 1333SOL    HW1 4898   4.303   6.210   5.568  0.5134 -1.3739  0.2768
 1333SOL    HW2 4899   4.444   6.272   5.512 -0.2927  1.7626  1.5090
 1334SOL     OW 4900   1.065   5.750   5.537 -0.0484  0.2677 -0.0673
 1334SOL    HW1 4901   1.053   5.838   5.583  0.5993  0.4051 -0.1451
 1334SOL    HW2 4902   1.069   5.765   5.438  0.6819  0.2282 -0.0466
 1335SOL     OW 4903   3.757   5.255   4.405 -0.1841 -0.3187  0.2206
 1335SOL    HW1 4904   3.711   5.259   4.316  1.0532  0.4308 -0.4174
 1335SOL    HW2 4905   3.806   5.341   4.420  0.7904 -0.9917  0.9722
 1336SOL     OW 4906   1.618   3.068   3.265 -0.1743 -0.2351  0.2751
 1336SOL    HW1 4907   1.524   3.032   3.266 -0.4535  0.4711  0.1700
 1336SOL    HW2 4908   1.671   3.024   3.193 -0.6621 -0.0629 -0.1947
 1337SOL     OW 4909   1.440   1.795   1.183 -0.0883 -0.6211  0.7479
 1337SOL    HW1 4910   1.438   1.793   1.083 -0.2138  0.4592  0.7124
 1337SOL    HW2 4911   1.533   1.812   1.215 -0.0445 -0.9877  0.8123
 1338SOL     OW 4912   1.440   6.773   3.925 -0.0743 -0.2410  0.4620
 1338SOL    HW1 4913   1.508   6.703   3.902  0.8728  0.2229  1.7260
 1338SOL    HW2 4914   1.359   6.761   3.868  0.8183 -1.1963 -0.6522
 1339SOL     OW 4915   3.563   3.726   0.722 -0.4658 -0.0209 -0.1025
 1339SOL    HW1 4916   3.559   3.657   0.650 -2.2140 -3.6962  3.1119
 1339SOL    HW2 4917   3.473   3.766   0.736 -0.5947 -0.6784  1.1093
 1340SOL     OW 4918   4.796   4.827   5.124 -0.5918 -0.2045 -0.6346
 1340SOL    HW1 4919   4.700   4.832   5.098 -0.1538  1.4534 -2.1967
 1340SOL    HW2 4920   4.809   4.871   5.212 -1.1654  0.2487 -0.7721
 1341SOL     OW 4921   5.828   4.294   0.451  0.2814 -0.5406 -0.3835
 1341SOL    HW1 4922   5.738   4.259   0.424 -0.8106  0.3424  1.8832
 1341SOL    HW2 4923   5.894   4.218   0.453 -1.3267 -1.9826  1.5332
 1342SOL     OW 4924   3.048   4.858   6.810 -0.2267 -0.2956 -0.0178
 1342SOL    HW1 4925   3.021   4.833   6.903 -1.7253  0.1050 -0.3195
 1342SOL    HW2 4926   3.044   4.778   6.751  1.2530 -0.6726  0.3396
 1343SOL     OW 4927   4.759   3.629   0.135 -0.4180  0.0925  0.0649
 1343SOL    HW1 4928   4.806   3.694   0.076 -2.7297  0.1166 -1.9193
 1343SOL    HW2 4929   4.747   3.668   0.226 -1.1874  2.2090 -0.8904
 1344SOL     OW 4930   6.723   0.093   2.774  0.6545 -0.0266 -0.4541
 1344SOL    HW1 4931   6.649   0.160   2.773  1.1490  0.5455 -1.4906
 1344SOL    HW2 4932   6.704   0.021   2.707  1.1790  0.3024 -0.9660
 1345SOL     OW 4933   0.493   5.429   0.724 -0.0089 -0.1607  0.4763
 1345SOL    HW1 4934   0.470   5.437   0.627  0.1071  0.7338  0.5149
 1345SOL    HW2 4935   0.429   5.367   0.769  1.4722 -2.7199 -0.6862
 1346SOL     OW 4936   0.096   3.521   0.240  0.0137 -0.1069  0.2575
 1346SOL    HW1 4937   0.136   3.551   0.153  2.2408 -1.1100  0.8428
 1346SOL    HW2 4938   0.130   3.429   0.262  0.7947  0.7152  2.8849
 1347SOL     OW 4939   5.180   6.172   0.573 -0.6088  0.0492  0.2560
 1347SOL    HW1 4940   5.109   6.172   0.643  0.4490 -1.7837  1.4229
 1347SOL    HW2 4941   5.241   6.094   0.588  0.9718  0.8972 -1.3944
 1348SOL     OW 4942   1.277   0.985   1.663  0.1817  0.1565  0.4180
 1348SOL    HW1 4943   1.255   1.008   1.758 -1.2409 -1.6688  0.5796
 1348SOL    HW2 4944   1.315   0.893   1.659  3.2466  1.3543 -0.4822
 1349SOL     OW 4945   2.763   0.389   0.294 -0.7556 -0.9683 -0.9680
 1349SOL    HW1 4946   2.839   0.414   0.354  0.6395  0.7022 -3.2852
 1349SOL    HW2 4947   2.691   0.347   0.349  0.2804  0.6849  1.9145
 1350SOL     OW 4948   0.578   4.107   1.439 -0.5113  0.5143  0.3661
 1350SOL    HW1 4949   0.646   4.117   1.366  0.4180 -0.6849  1.0379
 1350SOL    HW2 4950   0.574   4.192   1.492  0.8373  0.4310  0.6204
 1351SOL     OW 4951   0.010   5.718   3.818 -0.1652 -0.8022  0.0469
 1351SOL    HW1 4952  -0.049   5.696   3.896  0.8076 -2.0928  0.4621
 1351SOL    HW2 4953  -0.002   5.814   3.793 -2.5565 -1.0536 -0.0116
 1352SOL     OW 4954   3.582   5.013   3.608  0.1722  0.2310 -0.4463
 1352SOL    HW1 4955   3.585   4.939   3.675 -2.1877 -1.4179 -2.0174
 1352SOL    HW2 4956   3.603   5.100   3.653 -2.8632 -0.5249  2.8559
 1353SOL     OW 4957   4.108   4.386   6.016 -0.2321  0.3567 -0.0845
 1353SOL    HW1 4958   4.126   4.408   6.112  0.0342 -2.6562  0.6654
 1353SOL    HW2 4959   4.023   4.335   6.009  0.5915 -0.9232 -1.2031
 1354SOL     OW 4960   0.358   5.150   6.035 -0.4957 -0.3433  0.6689
 1354SOL    HW1 4961   0.265   5.151   6.070 -0.5331  1.4034  0.5668
 1354SOL    HW2 4962   0.357   5.146   5.935 -0.5090  1.1298  0.5938
 1355SOL     OW 4963   2.587   6.804   2.347 -0.5322  0.4065 -0.8931
 1355SOL    HW1 4964   2.591   6.752   2.433 -1.6911 -0.0436 -1.0867
 1355SOL    HW2 4965   2.680   6.827   2.318 -0.1026  0.3246  0.3281
 1356SOL     OW 4966   3.585   4.505   6.041  0.0920 -0.4262  0.1853
 1356SOL    HW1 4967   3.554   4.556   5.962 -0.1575 -0.1654  0.4493
 1356SOL    HW2 4968   3.571   4.407   6.026  0.3983 -0.4071 -0.2434
 1357SOL     OW 4969   4.224   4.669   0.369  0.2592 -0.3504 -0.0031
 1357SOL    HW1 4970   4.149   4.736   0.363 -0.1902 -0.8122  0.3215
 1357SOL    HW2 4971   4.193   4.582   0.332  1.3555  0.0263 -1.9228
 1358SOL     OW 4972   0.999   3.789   5.576  0.3799 -0.0346 -0.3090
 1358SOL    HW1 4973   1.087   3.811   5.534  1.0857  0.2953  1.2875
 1358SOL    HW2 4974   1.002   3.697   5.613 -0.1444 -0.2239 -0.7281
 1359SOL     OW 4975   2.770   0.029   5.560 -0.0743 -0.8160  0.4940
 1359SOL    HW1 4976   2.687   0.023   5.505 -0.7411  0.7075  1.2789
 1359SOL    HW2 4977   2.842   0.074   5.508 -0.4616 -0.0833  0.5801
 1360SOL     OW 4978   0.496   0.470   2.822  0.4984  1.1830  0.4312
 1360SOL    HW1 4979   0.400   0.479   2.797  0.6588 -0.3401 -0.9098
 1360SOL    HW2 4980   0.544   0.556   2.804  0.4360  0.5396 -4.1105
 1361SOL     OW 4981   0.800   6.470   3.305 -0.2654  0.0153  0.5063
 1361SOL    HW1 4982   0.720   6.438   3.356  0.5216 -0.0630  1.7249
 1361SOL    HW2 4983   0.781   6.560   3.266 -0.8610  0.1025  0.9824
 1362SOL     OW 4984   4.380   3.071   6.121 -0.0080  0.4541  0.6584
 1362SOL    HW1 4985   4.318   3.040   6.049  0.2607  2.3521 -0.4335
 1362SOL    HW2 4986   4.340   3.047   6.210  0.1164 -2.8092 -0.0068
 1363SOL     OW 4987   5.752   4.410   0.932  0.5908 -0.1857  0.1494
 1363SOL    HW1 4988   5.697   4.465   0.995  1.4712 -1.9615  2.6872
 1363SOL    HW2 4989   5.848   4.436   0.941  0.5174  1.1943 -2.3884
 1364SOL     OW 4990   1.672   4.249   1.744  0.8136 -0.1427 -0.2523
 1364SOL    HW1 4991   1.692   4.336   1.699 -0.0485  1.7177  2.7046
 1364SOL    HW2 4992   1.591   4.208   1.701  0.6032  1.0423 -1.0440
 1365SOL     OW 4993   2.590   1.086   6.162  0.0050 -0.2742  0.0405
 1365SOL    HW1 4994   2.616   1.116   6.254  0.2889 -0.5387  0.0461
 1365SOL    HW2 4995   2.649   1.011   6.133 -0.3062 -0.4200 -0.2219
 1366SOL     OW 4996   4.915   6.619   1.571  0.5866  0.0545  0.4641
 1366SOL    HW1 4997   4.871   6.694   1.621  0.5471 -0.0548  0.5928
 1366SOL    HW2 4998   4.994   6.586   1.622  0.7898  0.2129  0.2598
 1367SOL     OW 4999   4.152   1.954   2.342  0.1679  0.0774 -0.1300
 1367SOL    HW1 5000   4.105   2.031   2.384  1.4398  2.3412 -2.5737
 1367SOL    HW2 5001   4.109   1.932   2.255  1.7197  0.2023 -0.9666
 1368SOL     OW 5002   3.086   1.921   6.581  0.3702 -0.0230 -0.1629
 1368SOL    HW1 5003   3.023   1.844   6.594 -0.4153  0.4622 -0.9661
 1368SOL    HW2 5004   3.170   1.888   6.537 -0.7632 -0.1461 -2.3743
 1369SOL     OW 5005   1.582   5.155   5.008  0.0104 -0.4690 -0.3046
 1369SOL    HW1 5006   1.557   5.124   5.099 -0.1926  0.7778  0.0798
 1369SOL    HW2 5007   1.674   5.122   4.986  0.2337 -0.4112  0.5244
 1370SOL     OW 5008   1.899   3.162   6.074  0.0569  0.0104 -0.0747
 1370SOL    HW1 5009   1.923   3.132   5.982 -0.9196  1.8608 -0.9942
 1370SOL    HW2 5010   1.858   3.253   6.070 -0.7023 -0.1623  2.1250
 1371SOL     OW 5011   2.335   6.839   4.089  0.2465 -0.0991 -0.0823
 1371SOL    HW1 5012   2.354   6.934   4.113  0.8136 -0.1648 -0.2635
 1371SOL    HW2 5013   2.268   6.836   4.014 -0.6554  0.1270  0.6963
 1372SOL     OW 5014   2.562   1.071   1.772 -0.0892 -0.5500 -0.1007
 1372SOL    HW1 5015   2.600   1.055   1.863 -0.6851  1.6519  0.6146
 1372SOL    HW2 5016   2.525   0.986   1.736 -1.9622 -1.0640  2.7196
 1373SOL     OW 5017   1.837   5.172   6.045 -0.3303  0.3792  0.0256
 1373SOL    HW1 5018   1.849   5.265   6.009  1.5541  0.5710  1.0543
 1373SOL    HW2 5019   1.740   5.158   6.068 -0.6085  2.1781  0.1137
 1374SOL     OW 5020   1.566   0.267   3.116  0.2535 -0.5080  0.7221
 1374SOL    HW1 5021   1.607   0.295   3.203 -0.1777  0.5395  0.5994
 1374SOL    HW2 5022   1.596   0.328   3.043 -0.4013 -0.5948  0.3690
 1375SOL     OW 5023   6.858   5.898   1.653 -0.3596 -0.6353 -0.3201
 1375SOL    HW1 5024   6.918   5.955   1.710  0.8547 -2.8893  0.7806
 1375SOL    HW2 5025   6.901   5.883   1.564  0.1762 -1.2778  0.0400
 1376SOL     OW 5026   3.992   0.020   4.341 -0.2008  0.0708  0.0861
 1376SOL    HW1 5027   3.951  -0.010   4.427  1.7278 -0.2191  0.9520
 1376SOL    HW2 5028   3.932  -0.006   4.265 -2.3498  1.0696  1.3558
 1377SOL     OW 5029   6.755   2.503   5.153 -0.0381 -0.0090  0.3749
 1377SOL    HW1 5030   6.672   2.495   5.097  0.4740  3.4539 -1.1063
 1377SOL    HW2 5031   6.827   2.446   5.114 -0.7488 -0.4406 -0.3302
 1378SOL     OW 5032   2.633   6.752   4.141 -0.2117 -0.3927 -0.0656
 1378SOL    HW1 5033   2.603   6.845   4.118  0.0681 -0.0353  0.9489
 1378SOL    HW2 5034   2.625   6.738   4.240 -1.4222 -1.8818 -0.3361
 1379SOL     OW 5035   1.132   2.205   6.487 -0.1653  0.1931 -0.2316
 1379SOL    HW1 5036   1.142   2.186   6.585  0.7189  1.8708  0.0495
 1379SOL    HW2 5037   1.135   2.119   6.436 -2.8663 -0.9629  1.3178
 1380SOL     OW 5038   6.409   2.878   2.778 -0.0000  0.0346  0.4989
 1380SOL    HW1 5039   6.407   2.846   2.683 -0.6743 -1.0382  0.8656
 1380SOL    HW2 5040   6.434   2.802   2.838 -0.9267  0.3656  1.3170
 1381SOL     OW 5041   5.966   4.595   5.196 -0.3134 -0.1076  0.0127
 1381SOL    HW1 5042   6.051   4.588   5.143 -0.5282  1.6626 -0.6622
 1381SOL    HW2 5043   5.900   4.650   5.145 -2.1136 -1.9171  0.2692
 1382SOL     OW 5044   0.539   2.506   4.181 -0.1198 -0.0124 -0.1357
 1382SOL    HW1 5045   0.566   2.435   4.245  2.1450 -1.4554 -2.5053
 1382SOL    HW2 5046   0.464   2.473   4.123 -0.5685  0.4176  0.1817
 1383SOL     OW 5047   3.764   1.156   6.017 -0.1567  0.0252  0.2652
 1383SOL    HW1 5048   3.840   1.143   5.953  1.3140  1.9303  1.5242
 1383SOL    HW2 5049   3.678   1.165   5.965  0.3961 -2.1807 -1.1834
 1384SOL     OW 5050   6.049   5.715   5.606  0.5232 -0.1915 -0.3647
 1384SOL    HW1 5051   6.098   5.724   5.519 -0.9100  1.0381 -1.0701
 1384SOL    HW2 5052   5.956   5.750   5.596  0.0565 -0.8376  1.4407
 1385SOL     OW 5053   5.151   0.602   6.793  0.0862 -0.4421  0.3490
 1385SOL    HW1 5054   5.106   0.556   6.716 -0.2008 -1.3997  1.0689
 1385SOL    HW2 5055   5.145   0.701   6.781 -0.6183 -0.5795 -0.4896
 1386SOL     OW 5056   2.790   5.424   6.273  0.1196  0.0664 -1.0098
 1386SOL    HW1 5057   2.701   5.457   6.240 -1.1500 -1.1067  1.0753
 1386SOL    HW2 5058   2.831   5.365   6.204 -0.7629  0.5271 -1.9594
 1387SOL     OW 5059   5.053   5.504   3.656 -0.3085 -0.1708  0.0102
 1387SOL    HW1 5060   5.074   5.417   3.701  3.1250 -0.1484 -1.2034
 1387SOL    HW2 5061   5.039   5.488   3.558  0.2816  0.5846 -0.2109
 1388SOL     OW 5062   6.738   0.516   1.930 -0.7114  0.4341 -0.3657
 1388SOL    HW1 5063   6.724   0.417   1.938 -1.2568  0.5919  0.7023
 1388SOL    HW2 5064   6.836   0.536   1.926 -0.5890 -0.1081 -0.0768
 1389SOL     OW 5065   5.534   6.141   6.098  0.1009 -0.5003 -0.1832
 1389SOL    HW1 5066   5.556   6.044   6.107  1.6293 -0.1830 -0.2711
 1389SOL    HW2 5067   5.612   6.196   6.129 -0.0217  0.6983 -1.8845
 1390SOL     OW 5068   6.433   2.017   4.755  0.2815 -0.2117  0.0814
 1390SOL    HW1 5069   6.531   2.013   4.777  0.5503 -0.7279 -1.1126
 1390SOL    HW2 5070   6.420   2.074   4.674 -0.3837 -0.4002  0.0507
 1391SOL     OW 5071   6.691   4.251   3.478 -0.3622  0.2535 -0.1973
 1391SOL    HW1 5072   6.718   4.342   3.448  1.1171 -0.5289 -1.3100
 1391SOL    HW2 5073   6.736   4.229   3.565  0.3004  0.0769 -0.5870
 1392SOL     OW 5074   1.722   5.894   6.173 -0.4482 -0.0388  0.1096
 1392SOL    HW1 5075   1.781   5.973   6.156  0.7778 -0.5297  1.8157
 1392SOL    HW2 5076   1.778   5.816   6.201 -1.5878 -1.7036 -1.9269
 1393SOL     OW 5077   6.842   3.706   3.407  0.3330  0.2318 -0.3422
 1393SOL    HW1 5078   6.790   3.760   3.340  0.7722  1.1532  0.0469
 1393SOL    HW2 5079   6.779   3.646   3.456 -0.4305  1.4705  0.2556
 1394SOL     OW 5080   4.044   6.904   6.288 -0.5106 -0.8422  0.1709
 1394SOL    HW1 5081   3.979   6.837   6.251 -2.6365  1.5131 -0.6920
 1394SOL    HW2 5082   4.045   6.898   6.388 -3.8608  0.4163  0.4225
 1395SOL     OW 5083   6.840   2.693   1.148  0.2210  0.0918  0.0447
 1395SOL    HW1 5084   6.835   2.771   1.210  0.9508  0.4233 -0.3057
 1395SOL    HW2 5085   6.784   2.710   1.068 -2.1460 -1.0510  1.3330
 1396SOL     OW 5086   1.906   1.675   1.453  0.3079  0.0754  0.1374
 1396SOL    HW1 5087   1.941   1.718   1.536  1.2159 -0.0334 -0.1769
 1396SOL    HW2 5088   1.970   1.691   1.378 -0.3371 -0.1129 -0.4660
 1397SOL     OW 5089   3.572   5.199   4.838 -0.3685  0.0280  0.6311
 1397SOL    HW1 5090   3.611   5.113   4.804  0.9033  0.5118  0.8116
 1397SOL    HW2 5091   3.547   5.188   4.934  1.5208  0.3634  1.2048
 1398SOL     OW 5092   2.298   5.818   4.183 -0.2315  0.5035 -0.0683
 1398SOL    HW1 5093   2.374   5.799   4.247  0.3782  1.1147 -0.6044
 1398SOL    HW2 5094   2.219   5.762   4.209  0.3847 -0.1222  0.5271
 1399SOL     OW 5095   0.797   2.321   4.095 -0.4034 -0.4076 -0.5221
 1399SOL    HW1 5096   0.832   2.390   4.158  3.2828 -0.7957 -1.8598
 1399SOL    HW2 5097   0.700   2.335   4.080 -0.4895  2.3950  1.7738
 1400SOL     OW 5098   0.081   3.493   6.840  0.3353  0.4559  0.6903
 1400SOL    HW1 5099   0.143   3.468   6.765  0.8241 -0.1312  1.2797
 1400SOL    HW2 5100   0.129   3.551   6.905 -0.0441  0.8388  0.6327
 1401SOL     OW 5101   2.578   3.357   0.882 -0.0978  0.3037  0.8462
 1401SOL    HW1 5102   2.503   3.345   0.946  0.1416 -0.8159  0.9352
 1401SOL    HW2 5103   2.609   3.452   0.884 -1.8995  0.9247  0.3490
 1402SOL     OW 5104   5.340   2.509   0.424 -0.1494  0.0867  0.2808
 1402SOL    HW1 5105   5.342   2.437   0.493  2.8049  0.7148  0.9892
 1402SOL    HW2 5106   5.413   2.493   0.358  0.1512  2.0525  0.0904
 1403SOL     OW 5107   1.557   3.723   0.202  0.7913  0.3921 -0.1928
 1403SOL    HW1 5108   1.622   3.780   0.151 -0.2913 -0.8376 -3.1767
 1403SOL    HW2 5109   1.475   3.707   0.146 -1.0609 -0.1500  2.4519
 1404SOL     OW 5110   0.132   5.410   1.496 -0.3144  1.0380  0.4399
 1404SOL    HW1 5111   0.158   5.322   1.535 -1.1773  0.3089 -0.5816
 1404SOL    HW2 5112   0.044   5.439   1.532 -1.0635  0.4157 -0.7994
 1405SOL     OW 5113   1.533   5.874   6.774  0.5668 -0.5190  0.3999
 1405SOL    HW1 5114   1.536   5.968   6.738 -1.2879 -1.2546 -1.8795
 1405SOL    HW2 5115   1.622   5.830   6.758  0.1729 -0.4412 -2.4229
 1406SOL     OW 5116   1.379   1.314   4.792  0.1657  0.0938  0.3035
 1406SOL    HW1 5117   1.441   1.248   4.749 -0.9571 -0.5775 -0.3353
 1406SOL    HW2 5118   1.284   1.286   4.776 -0.3189  0.3533  2.4166
 1407SOL     OW 5119   2.244   4.768   5.558 -0.2972  0.0094 -0.4852
 1407SOL    HW1 5120   2.309   4.844   5.554  0.4325 -0.5918 -0.4594
 1407SOL    HW2 5121   2.167   4.792   5.617  0.7261  0.1376  0.8538
 1408SOL     OW 5122   1.817   4.924   4.925  0.0399  0.2300  0.5086
 1408SOL    HW1 5123   1.773   4.852   4.978  1.7422 -1.3159 -0.0554
 1408SOL    HW2 5124   1.902   4.889   4.884  0.4367  2.2811 -0.6109
 1409SOL     OW 5125   0.048   1.868   5.655  0.2806 -0.5846  0.2388
 1409SOL    HW1 5126  -0.008   1.786   5.652 -0.2932 -0.1877 -0.1927
 1409SOL    HW2 5127   0.088   1.885   5.565 -1.6163  0.9516 -0.3922
 1410SOL     OW 5128   2.181   6.823   5.053 -0.3630  0.9361  0.4163
 1410SOL    HW1 5129   2.180   6.729   5.085  0.4836  0.4240 -0.9496
 1410SOL    HW2 5130   2.094   6.845   5.010 -0.0217  0.2350 -0.6720
 1411SOL     OW 5131   2.949   4.745   0.019 -0.0827  0.1866  0.8559
 1411SOL    HW1 5132   2.874   4.795   0.064  0.0471  1.0301  0.1615
 1411SOL    HW2 5133   3.005   4.701   0.089 -1.2653 -0.5401  1.3835
 1412SOL     OW 5134   3.539   1.824   2.611 -0.6434 -0.1478 -0.3835
 1412SOL    HW1 5135   3.577   1.765   2.683  1.1592  2.0762  0.5995
 1412SOL    HW2 5136   3.439   1.820   2.615 -0.5778 -1.6135  0.9036
 1413SOL     OW 5137   5.181   6.930   4.900 -0.1106  0.9693 -0.3099
 1413SOL    HW1 5138   5.250   6.934   4.971  0.8739 -2.3855 -0.8790
 1413SOL    HW2 5139   5.208   6.987   4.823  0.4991  1.9675  0.6147
 1414SOL     OW 5140   1.207   5.241   2.683 -0.0037 -1.1300  0.1260
 1414SOL    HW1 5141   1.143   5.258   2.758 -0.9631  0.9430 -1.0598
 1414SOL    HW2 5142   1.189   5.152   2.642 -1.3455 -1.0788  0.5708
 1415SOL     OW 5143   2.672   2.308   2.009  0.4445  0.4772  0.3147
 1415SOL    HW1 5144   2.770   2.292   2.022  1.3093  4.2888 -0.4634
 1415SOL    HW2 5145   2.649   2.401   2.037 -2.6545  0.2683 -1.1148
 1416SOL     OW 5146   0.609   2.301   1.741 -0.1158 -0.2690 -0.5028
 1416SOL    HW1 5147   0.588   2.220   1.795  1.7601 -0.8434 -0.5837
 1416SOL    HW2 5148   0.611   2.381   1.800 -2.3264 -0.1709 -0.4781
 1417SOL     OW 5149   3.509   1.195   3.992  0.3156  0.3368  0.4597
 1417SOL    HW1 5150   3.410   1.197   3.974  0.3260 -0.7521  0.2248
 1417SOL    HW2 5151   3.536   1.103   4.018  1.6386  0.0780 -1.6116
 1418SOL     OW 5152   3.136   4.051   4.077  0.0496 -0.4823 -0.2606
 1418SOL    HW1 5153   3.118   4.028   3.981  1.1998  0.7425 -0.8033
 1418SOL    HW2 5154   3.123   4.149   4.090  1.3333 -0.4009  0.4860
 1419SOL     OW 5155   1.202   2.150   0.135 -0.3963  0.3566 -0.2132
 1419SOL    HW1 5156   1.116   2.102   0.149  0.2385 -0.8383 -0.2980
 1419SOL    HW2 5157   1.209   2.180   0.040 -1.2500  1.5773  0.0774
 1420SOL     OW 5158   3.983   4.639   5.923  0.6219  0.5885  0.3007
 1420SOL    HW1 5159   4.027   4.560   5.965  0.1966 -0.2486 -0.7785
 1420SOL    HW2 5160   4.001   4.638   5.824 -0.2476  1.2679  0.1299
 1421SOL     OW 5161   2.281   0.127   6.212  0.7126 -0.2452 -0.4318
 1421SOL    HW1 5162   2.223   0.048   6.234 -0.4952  0.7756  0.1608
 1421SOL    HW2 5163   2.334   0.107   6.129 -2.5755 -0.2061 -2.7155
 1422SOL     OW 5164   5.020   6.430   4.033 -0.1988  0.1058 -0.0250
 1422SOL    HW1 5165   5.110   6.463   4.004 -0.6189  2.2294  0.9008
 1422SOL    HW2 5166   4.949   6.478   3.982 -0.8362 -0.2164  0.5369
 1423SOL     OW 5167   3.842   3.031   0.437  0.3326 -0.2773 -0.3320
 1423SOL    HW1 5168   3.879   3.005   0.348  1.7847 -3.1738  0.9933
 1423SOL    HW2 5169   3.745   3.010   0.441  0.5770 -1.5294 -0.7499
 1424SOL     OW 5170   6.819   5.338   4.983  0.1024 -0.2071 -0.1344
 1424SOL    HW1 5171   6.793   5.264   4.921  0.7817 -1.2919  0.8282
 1424SOL    HW2 5172   6.759   5.337   5.063  0.7357 -0.3717  0.3504
 1425SOL     OW 5173   1.339   3.612   3.890  0.7706 -0.1073  0.4113
 1425SOL    HW1 5174   1.247   3.580   3.913  0.1720  0.8012 -0.6170
 1425SOL    HW2 5175   1.393   3.536   3.854  0.3687 -0.6028  0.8301
 1426SOL     OW 5176   4.262   1.861   0.543 -0.4490 -0.1491  0.0776
 1426SOL    HW1 5177   4.226   1.789   0.603 -0.2543  0.5086  1.0027
 1426SOL    HW2 5178   4.239   1.951   0.582  1.8379  0.2944  0.5102
 1427SOL     OW 5179   4.656   3.460   6.473 -0.2284 -0.3054 -0.0888
 1427SOL    HW1 5180   4.649   3.497   6.380 -2.6204 -0.1536  0.1015
 1427SOL    HW2 5181   4.614   3.369   6.476  0.5404 -0.6501  0.6957
 1428SOL     OW 5182   3.499   0.886   6.620 -0.1745  0.5476  0.2009
 1428SOL    HW1 5183   3.402   0.906   6.639  0.3447  1.5972  2.0077
 1428SOL    HW2 5184   3.531   0.817   6.685 -0.0855 -1.0613 -1.4607
 1429SOL     OW 5185   2.149   2.103   3.069  0.0345 -0.4205 -0.0256
 1429SOL    HW1 5186   2.230   2.158   3.046 -0.9143  0.8338 -0.4942
 1429SOL    HW2 5187   2.078   2.162   3.108 -0.3728 -1.6386  1.1476
 1430SOL     OW 5188   2.073   4.381   3.790 -0.3109 -0.1285 -0.4689
 1430SOL    HW1 5189   2.115   4.309   3.845 -1.5582 -0.3892  0.1831
 1430SOL    HW2 5190   2.119   4.468   3.808 -1.7717  0.1623  2.4295
 1431SOL     OW 5191   0.042   6.251   6.197  0.4713  1.0196 -0.3572
 1431SOL    HW1 5192   0.037   6.328   6.260 -1.7052 -1.6014  3.0714
 1431SOL    HW2 5193   0.099   6.179   6.237 -0.0806 -0.3659 -1.9086
 1432SOL     OW 5194   2.156   0.898   1.196  0.0148 -0.4766  0.2082
 1432SOL    HW1 5195   2.089   0.934   1.131  0.2326 -1.2676 -0.4614
 1432SOL    HW2 5196   2.238   0.870   1.147  1.2032  1.2501  1.0971
 1433SOL     OW 5197   1.501   4.376   4.704  1.3526  0.7047  0.2424
 1433SOL    HW1 5198   1.483   4.301   4.767 -2.2505 -0.9960 -2.4352
 1433SOL    HW2 5199   1.439   4.452   4.724  0.6101  0.3925 -0.7860
 1434SOL     OW 5200   3.793   3.009   0.849 -0.2982 -0.1108  0.3851
 1434SOL    HW1 5201   3.872   2.964   0.806 -0.9156 -0.4865 -0.3790
 1434SOL    HW2 5202   3.787   3.103   0.818  0.4356  0.2334  1.2405
 1435SOL     OW 5203   5.377   6.799   3.218 -0.3892 -0.5962  0.4280
 1435SOL    HW1 5204   5.393   6.706   3.186 -0.2660 -0.6273  0.5796
 1435SOL    HW2 5205   5.435   6.863   3.167  1.9299 -0.9268  2.4605
 1436SOL     OW 5206   2.413   4.892   1.202 -0.2289  0.0324 -0.2954
 1436SOL    HW1 5207   2.404   4.991   1.210  3.5874  0.5065 -0.0176
 1436SOL    HW2 5208   2.366   4.848   1.278 -0.7440  1.7208  0.4075
 1437SOL     OW 5209   0.763   3.284   1.148  0.1146 -0.5478  0.1051
 1437SOL    HW1 5210   0.738   3.320   1.058 -0.6468  0.5318  0.7269
 1437SOL    HW2 5211   0.715   3.335   1.219  1.2911 -0.8720  1.1745
 1438SOL     OW 5212   3.121   2.953   1.342 -0.2826 -0.0230 -0.1237
 1438SOL    HW1 5213   3.052   2.883   1.325  1.5485 -1.9468  0.0724
 1438SOL    HW2 5214   3.130   2.969   1.440 -0.4928  0.2927 -0.1532
 1439SOL     OW 5215   5.263   0.274   2.210  0.8623 -0.4280 -0.0970
 1439SOL    HW1 5216   5.239   0.177   2.215 -0.4714 -0.2282 -1.5998
 1439SOL    HW2 5217   5.322   0.290   2.131  0.5908  0.0414 -0.2116
 1440SOL     OW 5218   1.453   0.828   6.754 -0.0628  0.5819 -0.6164
 1440SOL    HW1 5219   1.424   0.826   6.849  1.1364  1.7942 -0.1842
 1440SOL    HW2 5220   1.380   0.793   6.696 -0.4924 -1.0049  0.7982
 1441SOL     OW 5221   6.762   0.476   1.216 -0.5142 -0.1584  0.1441
 1441SOL    HW1 5222   6.753   0.454   1.314  1.3195  0.9022  0.5981
 1441SOL    HW2 5223   6.702   0.553   1.194 -0.0827  0.3537  0.7237
 1442SOL     OW 5224   2.890   2.117   0.294 -0.3226  0.3789  0.7554
 1442SOL    HW1 5225   2.862   2.210   0.320 -0.8353  0.0735  1.3195
 1442SOL    HW2 5226   2.873   2.055   0.370 -0.1437 -0.2176  0.3147
 1443SOL     OW 5227   0.016   0.053   4.096 -0.3385 -0.3316 -0.3262
 1443SOL    HW1 5228  -0.005   0.016   4.187 -0.5405  0.2096 -0.1507
 1443SOL    HW2 5229   0.104   0.102   4.100  0.2160 -1.2641 -0.6929
 1444SOL     OW 5230   1.146   5.968   2.294 -0.1476  0.1502 -0.1177
 1444SOL    HW1 5231   1.150   6.052   2.348 -2.4011 -0.1038  0.5211
 1444SOL    HW2 5232   1.098   5.985   2.208  0.7891 -0.1520 -0.7242
 1445SOL     OW 5233   1.641   2.611   6.839 -0.1240 -0.4419 -0.4637
 1445SOL    HW1 5234   1.544   2.616   6.816 -0.2534 -0.6447  0.0286
 1445SOL    HW2 5235   1.656   2.541   6.909  0.5392 -1.1881 -1.3396
 1446SOL     OW 5236   2.115   6.215   5.865  0.4697 -0.2400 -0.1887
 1446SOL    HW1 5237   2.186   6.209   5.795  0.7964 -0.3381  0.1470
 1446SOL    HW2 5238   2.157   6.209   5.956 -0.0263 -0.9006  0.0028
 1447SOL     OW 5239   2.585   5.604   6.557 -0.4002 -0.2285 -0.2171
 1447SOL    HW1 5240   2.576   5.508   6.531  0.3492 -0.4618  0.3420
 1447SOL    HW2 5241   2.597   5.610   6.656 -0.1227  0.4119 -0.2849
 1448SOL     OW 5242   3.186   3.732   2.461  0.3942 -0.0665  0.7250
 1448SOL    HW1 5243   3.169   3.765   2.368  0.7994 -0.6343  0.4462
 1448SOL    HW2 5244   3.110   3.760   2.520 -0.7385 -1.1635 -0.1488
 1449SOL     OW 5245   2.921   5.026   4.349 -0.4834  0.7232 -0.4373
 1449SOL    HW1 5246   2.974   5.053   4.268 -1.0118 -1.4886 -1.5910
 1449SOL    HW2 5247   2.971   5.052   4.432  2.3223 -1.0095 -1.4621
 1450SOL     OW 5248   5.643   3.392   6.001 -0.0910  0.4188 -0.0655
 1450SOL    HW1 5249   5.605   3.446   6.076  1.2887  0.5451  0.5865
 1450SOL    HW2 5250   5.742   3.406   5.998 -0.2307  1.4729 -2.7647
 1451SOL     OW 5251   6.396   4.532   3.850 -0.2851 -0.3269  0.2690
 1451SOL    HW1 5252   6.392   4.608   3.915  2.1598  0.1216 -0.0056
 1451SOL    HW2 5253   6.425   4.449   3.898  1.7291  0.0513 -0.1894
 1452SOL     OW 5254   2.149   6.614   5.777  0.0034  0.0755  0.4774
 1452SOL    HW1 5255   2.065   6.620   5.724 -0.2334  0.1378  0.8579
 1452SOL    HW2 5256   2.166   6.701   5.824  0.5512  0.2332 -0.0014
 1453SOL     OW 5257   0.963   3.237   3.821  0.7574  0.9314  0.0770
 1453SOL    HW1 5258   0.878   3.259   3.869  0.2371  1.5885 -1.0981
 1453SOL    HW2 5259   1.020   3.319   3.815  2.4828  0.0559  2.6792
 1454SOL     OW 5260   5.910   4.101   0.830 -0.3549  0.4125  0.2260
 1454SOL    HW1 5261   5.823   4.073   0.789  0.4611 -1.1762 -0.5008
 1454SOL    HW2 5262   5.938   4.034   0.898  0.6140  0.5703 -0.0021
 1455SOL     OW 5263   6.280   2.269   5.224 -0.1350  0.6155  0.0345
 1455SOL    HW1 5264   6.336   2.246   5.144 -0.3124  0.6452 -0.1004
 1455SOL    HW2 5265   6.318   2.226   5.306 -0.2601  0.1490 -0.1533
 1456SOL     OW 5266   5.522   2.915   6.674 -0.8018  0.1702 -0.1492
 1456SOL    HW1 5267   5.424   2.899   6.690 -0.4146 -0.0086  2.4620
 1456SOL    HW2 5268   5.568   2.828   6.656 -1.0930  0.2632 -1.4609
 1457SOL     OW 5269   1.162   3.849   0.856  0.1560 -0.2426 -0.1366
 1457SOL    HW1 5270   1.237   3.794   0.891  0.0381  1.2285  2.6974
 1457SOL    HW2 5271   1.081   3.836   0.914 -0.4039  1.5347 -0.4597
 1458SOL     OW 5272   4.964   5.227   0.644 -0.2418  0.3502  0.2127
 1458SOL    HW1 5273   4.927   5.296   0.705 -0.0482  1.1514 -0.5573
 1458SOL    HW2 5274   5.054   5.255   0.612  0.6326 -1.0980  1.2700
 1459SOL     OW 5275   6.416   2.562   0.566 -0.0837 -0.2195 -0.1521
 1459SOL    HW1 5276   6.476   2.626   0.519 -0.0511 -0.3044 -0.2268
 1459SOL    HW2 5277   6.449   2.547   0.659 -1.9711  2.5280  1.0964
 1460SOL     OW 5278   1.334   3.462   4.320 -0.0675 -0.2336  0.3017
 1460SOL    HW1 5279   1.297   3.533   4.380  0.3088 -1.0941  1.6052
 1460SOL    HW2 5280   1.414   3.497   4.272  0.0120  0.2768  0.7930
 1461SOL     OW 5281   0.021   1.308   6.010 -0.0801  0.2934 -0.4559
 1461SOL    HW1 5282   0.110   1.286   5.969  0.2714  3.3861 -1.6007
 1461SOL    HW2 5283   0.035   1.365   6.091 -1.0245  0.6514 -0.5323
 1462SOL     OW 5284   1.868   6.595   4.697  0.2717 -0.2339 -0.1086
 1462SOL    HW1 5285   1.796   6.591   4.767  0.3393  2.0626  0.1549
 1462SOL    HW2 5286   1.924   6.676   4.711  0.8823 -0.2232 -2.2896
 1463SOL     OW 5287   5.149   5.574   3.208  0.3110  0.1359 -0.0547
 1463SOL    HW1 5288   5.079   5.627   3.256 -0.3883  0.5357 -1.4581
 1463SOL    HW2 5289   5.142   5.590   3.109 -0.1157 -2.7670 -0.5954
 1464SOL     OW 5290   1.036   5.178   0.808  0.1099  0.7725 -0.6418
 1464SOL    HW1 5291   0.997   5.091   0.838  1.0782  0.3695 -0.5505
 1464SOL    HW2 5292   1.096   5.214   0.879  0.3926  1.0911 -1.0393
 1465SOL     OW 5293   3.363   1.787   2.252 -0.0429  0.1102  0.0069
 1465SOL    HW1 5294   3.355   1.726   2.173 -1.2022  1.4004 -0.9336
 1465SOL    HW2 5295   3.448   1.768   2.301 -0.2490 -2.0462 -0.3904
 1466SOL     OW 5296   1.880   2.479   0.962  0.3779  0.8119 -0.2541
 1466SOL    HW1 5297   1.940   2.465   1.041 -0.4894 -1.0760  0.1370
 1466SOL    HW2 5298   1.842   2.571   0.965  1.8608  1.4403  0.4493
 1467SOL     OW 5299   0.149   3.476   4.568 -0.2126 -0.1120 -0.1260
 1467SOL    HW1 5300   0.122   3.547   4.633  1.6814  2.2518 -1.7313
 1467SOL    HW2 5301   0.075   3.461   4.503 -1.4300 -1.2098  1.4352
 1468SOL     OW 5302   3.859   0.291   6.589 -0.1486  0.2694 -0.2772
 1468SOL    HW1 5303   3.808   0.376   6.599  0.9030  0.8395  0.4363
 1468SOL    HW2 5304   3.828   0.225   6.658  0.3788  0.7818  0.4712
 1469SOL     OW 5305   2.329   1.189   0.170 -0.2840  0.7707  0.8973
 1469SOL    HW1 5306   2.371   1.117   0.225  0.9900  0.0434 -0.9202
 1469SOL    HW2 5307   2.381   1.274   0.179  0.7516  0.2762 -0.1986
 1470SOL     OW 5308   4.285   4.644   4.172 -0.3291 -0.0345 -0.0904
 1470SOL    HW1 5309   4.272   4.741   4.152  2.1812  0.3977  0.0124
 1470SOL    HW2 5310   4.275   4.629   4.270  0.3031  0.3337  0.0365
 1471SOL     OW 5311   4.392   6.799   2.898 -0.2069 -0.4711  0.0537
 1471SOL    HW1 5312   4.478   6.830   2.940 -0.9437  0.8012  0.6763
 1471SOL    HW2 5313   4.315   6.846   2.942 -1.1270 -0.4843 -1.4909
 1472SOL     OW 5314   6.936   4.296   1.520 -0.2882 -0.4001 -0.2415
 1472SOL    HW1 5315   6.861   4.359   1.542  0.2962  0.1018  0.3903
 1472SOL    HW2 5316   6.970   4.255   1.605 -0.6315 -1.5444 -0.6455
 1473SOL     OW 5317   2.380   2.418   5.511 -0.7825  0.5478 -0.3657
 1473SOL    HW1 5318   2.389   2.328   5.468 -0.5078  0.3368  0.1330
 1473SOL    HW2 5319   2.415   2.489   5.449 -2.4757  0.5002 -1.4480
 1474SOL     OW 5320   0.268   3.713   2.608 -0.2295  0.3573 -0.3488
 1474SOL    HW1 5321   0.215   3.730   2.691 -0.5382 -0.3014 -0.4056
 1474SOL    HW2 5322   0.283   3.800   2.560 -0.0898  0.7301  0.3660
 1475SOL     OW 5323   5.707   2.817   2.975 -0.1037 -0.3060  0.6824
 1475SOL    HW1 5324   5.644   2.792   2.902 -1.3470  2.8587  0.5513
 1475SOL    HW2 5325   5.800   2.787   2.950 -0.7541 -0.7151 -1.4303
 1476SOL     OW 5326   0.805   1.769   1.892  0.2645 -0.1475  0.4015
 1476SOL    HW1 5327   0.876   1.722   1.944  1.0902  0.1879 -0.3927
 1476SOL    HW2 5328   0.848   1.839   1.834 -0.5212 -1.1065 -1.4046
 1477SOL     OW 5329   2.103   4.435   0.812  0.1749 -0.1537 -0.1215
 1477SOL    HW1 5330   2.153   4.479   0.886  1.2970  0.1723 -1.0344
 1477SOL    HW2 5331   2.124   4.337   0.811  0.8383 -0.0179 -0.5048
 1478SOL     OW 5332   2.542   6.595   3.527  0.3398  0.0295  0.7238
 1478SOL    HW1 5333   2.498   6.526   3.583 -0.2661 -0.3195 -0.1497
 1478SOL    HW2 5334   2.542   6.682   3.575 -2.0915  0.2618  0.4655
 1479SOL     OW 5335   6.716   5.136   1.011  0.1508 -0.1154  0.0943
 1479SOL    HW1 5336   6.662   5.141   1.095  0.6633 -1.5174  0.5460
 1479SOL    HW2 5337   6.664   5.089   0.940 -0.0212  0.4536 -0.1615
 1480SOL     OW 5338   5.365   5.984   1.286 -0.4033 -0.1113  0.3920
 1480SOL    HW1 5339   5.404   5.915   1.226  0.3683  0.3774  0.3247
 1480SOL    HW2 5340   5.335   6.063   1.232  0.3338  0.3476  0.6455
 1481SOL     OW 5341   0.940   2.004   2.480  0.0217  0.4024 -0.3283
 1481SOL    HW1 5342   1.000   2.000   2.561 -1.1399  0.4051  0.5584
 1481SOL    HW2 5343   0.995   1.987   2.398  0.8469 -2.2823  0.6411
 1482SOL     OW 5344   1.167   4.664   0.033 -0.0293 -0.4227 -0.4403
 1482SOL    HW1 5345   1.257   4.677  -0.007 -0.8699  0.3816 -2.1402
 1482SOL    HW2 5346   1.126   4.753   0.054 -0.1405 -0.7940  1.0786
 1483SOL     OW 5347   5.292   5.997   5.612 -0.0888 -0.1341  0.2444
 1483SOL    HW1 5348   5.345   6.028   5.691  0.9194  0.3637 -0.6055
 1483SOL    HW2 5349   5.199   6.033   5.618 -0.2652 -0.7543  1.5961
 1484SOL     OW 5350   0.312   4.406   3.599 -0.4403 -0.3173 -0.1266
 1484SOL    HW1 5351   0.359   4.319   3.608 -0.4052 -0.3164 -0.2919
 1484SOL    HW2 5352   0.217   4.397   3.631 -0.3420 -0.3316  0.1589
 1485SOL     OW 5353   1.631   6.551   1.757  0.1422 -0.3865 -0.8748
 1485SOL    HW1 5354   1.663   6.457   1.771  1.7894  0.2888  0.2067
 1485SOL    HW2 5355   1.562   6.573   1.826 -0.2067 -0.7696 -1.0950
 1486SOL     OW 5356   5.378   6.308   3.093  0.3334 -0.3632 -0.1241
 1486SOL    HW1 5357   5.414   6.386   3.041  0.1898 -0.2001  0.0169
 1486SOL    HW2 5358   5.377   6.331   3.191  2.1967 -1.2834  0.1549
 1487SOL     OW 5359   0.995   5.596   0.141  0.4933  0.0102 -0.0261
 1487SOL    HW1 5360   1.029   5.521   0.197 -0.6912 -0.9539 -0.5562
 1487SOL    HW2 5361   1.028   5.585   0.047  1.5368  0.9920  0.2059
 1488SOL     OW 5362   0.410   4.397   4.807 -0.7565  0.1964  0.9153
 1488SOL    HW1 5363   0.395   4.496   4.800  0.8893  0.3815 -0.4539
 1488SOL    HW2 5364   0.488   4.371   4.751 -0.4769 -1.7438  2.1372
 1489SOL     OW 5365   2.179   3.008   3.884 -0.8755 -0.2671  0.1534
 1489SOL    HW1 5366   2.175   3.107   3.898  0.1762 -0.5074  2.7677
 1489SOL    HW2 5367   2.094   2.977   3.842 -1.7517  1.6012  0.4536
 1490SOL     OW 5368   6.944   3.706   0.338 -0.1395 -0.4466  0.9290
 1490SOL    HW1 5369   6.903   3.654   0.413  1.6258 -3.2883  0.0797
 1490SOL    HW2 5370   7.016   3.651   0.295 -0.5250  1.3495 -2.3444
 1491SOL     OW 5371   3.057   2.169   0.582  0.2186  0.3167 -0.3458
 1491SOL    HW1 5372   3.011   2.166   0.671  2.1114 -1.7738  0.6818
 1491SOL    HW2 5373   3.072   2.264   0.556  0.2174  1.0085  1.9011
 1492SOL     OW 5374   4.794   6.746   0.020 -0.4409  0.0984  0.0360
 1492SOL    HW1 5375   4.796   6.845   0.012 -0.7219  0.1592  0.7056
 1492SOL    HW2 5376   4.866   6.707  -0.038  0.4080  0.7447  0.6216
 1493SOL     OW 5377   1.824   5.878   2.618 -0.6171 -0.6020  0.4102
 1493SOL    HW1 5378   1.724   5.883   2.621 -0.7808 -2.2665 -1.0878
 1493SOL    HW2 5379   1.860   5.869   2.711 -1.8345 -0.0653  0.9594
 1494SOL     OW 5380   0.493   1.980   6.576  0.0184  0.0212  0.1990
 1494SOL    HW1 5381   0.573   1.920   6.584 -0.7236 -1.1289 -0.7777
 1494SOL    HW2 5382   0.523   2.075   6.586  1.8763 -0.2077 -2.0998
 1495SOL     OW 5383   3.406   0.624   1.137  0.2054  0.2546 -0.3174
 1495SOL    HW1 5384   3.434   0.546   1.081 -2.3892 -0.6534 -0.4847
 1495SOL    HW2 5385   3.419   0.709   1.085 -3.5128 -0.6381 -3.1213
 1496SOL     OW 5386   5.925   2.488   3.963 -0.0904 -0.1261 -0.1703
 1496SOL    HW1 5387   6.000   2.467   4.025 -1.5041 -3.6946  0.5723
 1496SOL    HW2 5388   5.960   2.494   3.869  1.1375 -1.9824  0.1191
 1497SOL     OW 5389   3.330   5.388   5.557  0.0785  0.0570  0.5749
 1497SOL    HW1 5390   3.296   5.468   5.507  1.1529  0.6689  0.7831
 1497SOL    HW2 5391   3.351   5.413   5.651 -0.3398 -0.6811  0.8757
 1498SOL     OW 5392   1.226   3.131   6.714 -0.7153 -0.0628  0.0020
 1498SOL    HW1 5393   1.315   3.093   6.739 -0.2626 -0.1556 -1.6522
 1498SOL    HW2 5394   1.216   3.222   6.755 -0.4105 -0.5521  1.2177
 1499SOL     OW 5395   2.015   2.248   2.668  0.5738 -0.1963 -0.0750
 1499SOL    HW1 5396   1.974   2.260   2.758  1.6304  1.5483  0.2197
 1499SOL    HW2 5397   1.943   2.229   2.601 -0.5102  0.9683  0.7235
 1500SOL     OW 5398   6.071   2.657   0.184 -0.3009  0.0246  0.2029
 1500SOL    HW1 5399   6.082   2.651   0.085  0.5456 -1.3477  0.3618
 1500SOL    HW2 5400   6.153   2.698   0.225 -0.7130  0.7374  0.3308
 1501SOL     OW 5401   2.360   0.096   0.289 -0.0421  0.0923 -0.5916
 1501SOL    HW1 5402   2.311   0.169   0.242  0.0630  1.0742  0.7538
 1501SOL    HW2 5403   2.306   0.066   0.368  0.8769  0.2062  0.0932
 1502SOL     OW 5404   1.217   6.822   0.073  0.7799 -0.1939 -0.0200
 1502SOL    HW1 5405   1.193   6.875   0.154  0.4351 -0.3723 -0.0019
 1502SOL    HW2 5406   1.163   6.738   0.071  3.0176 -1.7554  1.2469
 1503SOL     OW 5407   2.680   1.814   5.672  0.1277  0.0436 -0.6367
 1503SOL    HW1 5408   2.712   1.900   5.632 -1.1370  0.4342 -0.8803
 1503SOL    HW2 5409   2.644   1.832   5.764 -0.9571 -0.0415 -1.0316
 1504SOL     OW 5410   6.609   6.046   3.818 -0.2020 -0.5239 -0.3735
 1504SOL    HW1 5411   6.558   6.132   3.830  0.8044  0.5776 -3.2482
 1504SOL    HW2 5412   6.591   6.009   3.727  1.5746 -1.8678 -0.2216
 1505SOL     OW 5413   0.343   0.895   4.220  0.2924  0.7122 -0.2616
 1505SOL    HW1 5414   0.425   0.856   4.263 -0.8775 -0.2825  1.1841
 1505SOL    HW2 5415   0.304   0.964   4.281 -1.6516 -1.0404  0.5992
 1506SOL     OW 5416   1.754   3.315   5.062 -0.4824 -0.6696 -0.2583
 1506SOL    HW1 5417   1.778   3.383   5.131 -1.5516  0.2466 -0.7626
 1506SOL    HW2 5418   1.759   3.357   4.971 -2.8212 -0.7291 -0.4675
 1507SOL     OW 5419   2.592   6.251   1.789 -0.5493  0.2821  0.2089
 1507SOL    HW1 5420   2.689   6.251   1.765 -0.8598 -2.0531 -1.4035
 1507SOL    HW2 5421   2.571   6.334   1.841  1.8990  1.7679 -0.9591
 1508SOL     OW 5422   5.127   3.702   6.153  0.0199 -0.3427 -0.2458
 1508SOL    HW1 5423   5.215   3.746   6.137  0.4343 -1.7361 -2.0322
 1508SOL    HW2 5424   5.137   3.603   6.151 -1.5487 -0.5369 -0.1724
 1509SOL     OW 5425   6.980   0.927   5.017 -0.4105 -0.2666  0.6500
 1509SOL    HW1 5426   6.991   0.833   4.985  1.1239  0.2589 -0.4985
 1509SOL    HW2 5427   7.063   0.954   5.066 -0.2665  0.9165 -0.2179
 1510SOL     OW 5428   1.473   4.988   2.383 -0.1130  0.0078  0.0619
 1510SOL    HW1 5429   1.442   5.031   2.299  0.0828 -0.4286 -0.2379
 1510SOL    HW2 5430   1.539   4.916   2.362  0.2684  0.1834  0.6186
 1511SOL     OW 5431   0.468   6.017   6.484  0.1947 -0.5074  0.3922
 1511SOL    HW1 5432   0.452   5.998   6.387 -0.5562 -1.7157  0.7233
 1511SOL    HW2 5433   0.563   5.998   6.507  0.0254 -1.7224  0.1905
 1512SOL     OW 5434   2.486   0.351   3.998  0.0781 -0.1874 -0.2994
 1512SOL    HW1 5435   2.446   0.362   4.089  0.7214 -1.0694  0.1112
 1512SOL    HW2 5436   2.544   0.429   3.977  2.1968 -1.2476  1.2700
 1513SOL     OW 5437   0.055   1.553   2.213  0.0727 -0.3329  0.2230
 1513SOL    HW1 5438   0.090   1.573   2.121  1.8015  0.0852  0.9451
 1513SOL    HW2 5439  -0.009   1.625   2.239  0.5925  0.2684 -0.1299
 1514SOL     OW 5440   6.290   3.208   6.978 -0.6207 -0.0685 -0.1760
 1514SOL    HW1 5441   6.225   3.200   6.903 -0.1217  0.4918 -0.6723
 1514SOL    HW2 5442   6.279   3.297   7.023  1.1474  0.9110 -1.5606
 1515SOL     OW 5443   0.144   6.589   3.208 -0.1223  0.4541 -0.2385
 1515SOL    HW1 5444   0.049   6.555   3.209 -0.0982  0.3683  1.2088
 1515SOL    HW2 5445   0.153   6.663   3.274  0.2047  2.3183 -2.2748
 1516SOL     OW 5446   0.946   2.893   4.213 -0.1877 -0.1726 -0.6339
 1516SOL    HW1 5447   0.911   2.892   4.306  0.4129  0.8498 -0.3790
 1516SOL    HW2 5448   1.046   2.895   4.215 -0.1687 -0.0565 -1.2999
 1517SOL     OW 5449   4.566   6.196   4.707 -0.6299  0.0942  0.0513
 1517SOL    HW1 5450   4.645   6.211   4.647 -0.0556 -0.3366  0.6735
 1517SOL    HW2 5451   4.493   6.151   4.656 -0.7441  1.1377 -0.7137
 1518SOL     OW 5452   0.528   4.958   0.378  0.4973 -0.0930  0.0713
 1518SOL    HW1 5453   0.515   5.040   0.322  0.3132 -0.4794 -0.4625
 1518SOL    HW2 5454   0.454   4.893   0.360  1.3238 -0.9177 -0.4874
 1519SOL     OW 5455   0.629   0.220   0.397  0.4014  0.1236 -0.2692
 1519SOL    HW1 5456   0.577   0.136   0.387 -0.5736  0.7834 -0.9223
 1519SOL    HW2 5457   0.706   0.221   0.333 -0.2521  0.2081 -1.0723
 1520SOL     OW 5458   6.860   6.460   1.279 -0.3843  0.1547  0.2850
 1520SOL    HW1 5459   6.889   6.551   1.248  0.6560 -0.3462 -0.2417
 1520SOL    HW2 5460   6.940   6.405   1.301 -1.0161 -0.5686  0.8242
 1521SOL     OW 5461   1.688   4.262   2.009  0.4353 -0.1087  0.4460
 1521SOL    HW1 5462   1.641   4.181   2.043  2.9362 -2.0486 -0.4541
 1521SOL    HW2 5463   1.669   4.273   1.911  0.0923  0.4297  0.5672
 1522SOL     OW 5464   6.723   2.562   2.386 -0.1773  0.1344  0.0617
 1522SOL    HW1 5465   6.816   2.568   2.423  0.0114  0.6676 -0.4845
 1522SOL    HW2 5466   6.689   2.654   2.367 -0.6669 -0.0822 -0.1199
 1523SOL     OW 5467   0.733   5.413   1.646  0.6476  0.0079  0.5932
 1523SOL    HW1 5468   0.649   5.395   1.594  1.7281  0.2762 -1.3208
 1523SOL    HW2 5469   0.749   5.337   1.708 -0.1522 -0.8384 -0.1897
 1524SOL     OW 5470   3.439   4.719   5.494  0.4951  0.5481 -0.6657
 1524SOL    HW1 5471   3.475   4.754   5.580  0.4272  1.3341 -0.9442
 1524SOL    HW2 5472   3.356   4.666   5.511  0.6932  0.3786 -0.2145
 1525SOL     OW 5473   3.436   6.523   6.124 -0.4285  0.0600 -0.3758
 1525SOL    HW1 5474   3.513   6.460   6.124  0.5425  1.2086 -0.0844
 1525SOL    HW2 5475   3.354   6.475   6.154  0.4290 -0.8768  0.5518
 1526SOL     OW 5476   0.235   1.761   3.471 -0.5387  1.0452 -0.3210
 1526SOL    HW1 5477   0.274   1.853   3.478  1.1247  0.4303 -0.9682
 1526SOL    HW2 5478   0.291   1.706   3.409 -0.8236 -0.7325  0.9158
 1527SOL     OW 5479   1.943   5.143   5.019  0.0610 -0.2611 -0.0245
 1527SOL    HW1 5480   1.946   5.100   5.109 -2.0881 -0.3142  0.0793
 1527SOL    HW2 5481   1.903   5.080   4.953  1.4783 -0.1672 -1.0179
 1528SOL     OW 5482   5.989   1.596   4.079 -0.0974  0.3000 -0.1332
 1528SOL    HW1 5483   6.060   1.662   4.055 -0.4822  0.7712  0.0027
 1528SOL    HW2 5484   5.936   1.630   4.156 -2.2287  1.2820 -1.9133
 1529SOL     OW 5485   2.382   6.422   3.627 -0.0408 -0.1215 -0.5655
 1529SOL    HW1 5486   2.370   6.365   3.708  0.6927  3.0349  1.9935
 1529SOL    HW2 5487   2.307   6.407   3.563 -0.9829 -2.3288  0.9579
 1530SOL     OW 5488   1.437   0.248   0.478  0.0423 -0.7197  0.3050
 1530SOL    HW1 5489   1.527   0.259   0.436 -0.8577 -2.5758 -2.4415
 1530SOL    HW2 5490   1.435   0.164   0.532  0.2198 -0.1248  1.2599
 1531SOL     OW 5491   5.657   2.041   6.418 -0.0621 -0.3583 -0.2206
 1531SOL    HW1 5492   5.623   1.983   6.344  3.5812 -1.7581 -1.0121
 1531SOL    HW2 5493   5.711   2.116   6.379  1.3557 -0.7260  0.9570
 1532SOL     OW 5494   2.062   2.841   2.473 -0.6387  0.0268 -0.5750
 1532SOL    HW1 5495   2.107   2.917   2.426 -0.3781 -0.5059 -1.1948
 1532SOL    HW2 5496   2.053   2.764   2.411 -2.3304  0.0761 -0.4269
 1533SOL     OW 5497   5.067   4.802   6.905  0.4229  0.1098  0.1836
 1533SOL    HW1 5498   5.082   4.765   6.997 -1.9551 -1.3938  0.0445
 1533SOL    HW2 5499   4.969   4.806   6.886  0.8654 -0.2038 -2.5349
 1534SOL     OW 5500   6.666   1.154   3.544  0.1977 -0.1427 -0.3853
 1534SOL    HW1 5501   6.680   1.169   3.642  1.8152 -0.7553 -0.4884
 1534SOL    HW2 5502   6.570   1.134   3.526 -0.6248  2.3751  0.7315
 1535SOL     OW 5503   3.384   6.576   2.365 -0.3028  1.0721  0.0804
 1535SOL    HW1 5504   3.382   6.559   2.266 -1.7431 -1.4743  0.4540
 1535SOL    HW2 5505   3.295   6.612   2.394 -0.0678  1.2998  0.5349
 1536SOL     OW 5506   2.236   5.562   1.493 -0.2131 -0.0201  0.0130
 1536SOL    HW1 5507   2.151   5.567   1.440 -0.4485  0.1725  0.4066
 1536SOL    HW2 5508   2.224   5.499   1.570  0.1989 -0.4719 -0.2904
 1537SOL     OW 5509   0.106   3.670   5.684  0.4077 -0.6068 -0.6111
 1537SOL    HW1 5510   0.064   3.603   5.745 -1.0364  2.7511  2.3993
 1537SOL    HW2 5511   0.195   3.698   5.721 -1.4064  3.0455  1.5144
 1538SOL     OW 5512   0.150   2.039   2.737 -0.5101  0.0564 -0.2000
 1538SOL    HW1 5513   0.231   1.991   2.768 -0.8594 -1.2895 -1.2715
 1538SOL    HW2 5514   0.166   2.138   2.741 -0.1838 -0.0183  3.1349
 1539SOL     OW 5515   5.576   4.480   2.194  0.5971 -0.2774 -0.2174
 1539SOL    HW1 5516   5.530   4.558   2.237  0.3083  0.9279 -2.5157
 1539SOL    HW2 5517   5.580   4.404   2.258  1.1966  1.7002  2.2785
 1540SOL     OW 5518   2.895   6.954   1.884 -0.4357  0.4541  0.9046
 1540SOL    HW1 5519   2.958   6.894   1.934  1.3440  1.3097 -0.2232
 1540SOL    HW2 5520   2.806   6.954   1.930 -0.3742 -2.6237  1.2397
 1541SOL     OW 5521   5.007   2.754   5.775  0.3349  0.0542 -0.4706
 1541SOL    HW1 5522   4.993   2.665   5.733 -2.6473 -0.7257  1.8510
 1541SOL    HW2 5523   5.083   2.748   5.840  1.0323 -0.3807 -1.3087
 1542SOL     OW 5524   2.927   5.873   2.795 -0.3025  0.3995 -0.4427
 1542SOL    HW1 5525   2.913   5.837   2.703 -0.2967  0.6133 -0.5264
 1542SOL    HW2 5526   2.858   5.941   2.816  0.3340  1.1391 -0.6954
 1543SOL     OW 5527   3.567   6.907   0.512  0.5499  0.0365 -0.4927
 1543SOL    HW1 5528   3.522   6.822   0.538 -1.1383  1.1725  0.4948
 1543SOL    HW2 5529   3.656   6.887   0.470  0.2970 -2.1679 -0.0682
 1544SOL     OW 5530   3.003   0.042   0.590  0.2899 -0.0229 -0.9786
 1544SOL    HW1 5531   3.072   0.114   0.580  1.5517 -1.0882 -0.1628
 1544SOL    HW2 5532   2.985   0.027   0.687  1.1688 -1.8307 -1.0592
 1545SOL     OW 5533   2.786   0.022   5.204  0.3558  0.1217  0.1727
 1545SOL    HW1 5534   2.879  -0.016   5.204 -0.3028 -1.6948 -1.4794
 1545SOL    HW2 5535   2.721  -0.048   5.235 -0.4434  1.5636  1.9055
 1546SOL     OW 5536   4.217   1.531   3.444 -0.3469  0.9939 -0.1691
 1546SOL    HW1 5537   4.216   1.583   3.530  2.8675  0.8808  0.0798
 1546SOL    HW2 5538   4.239   1.436   3.463  0.7556  1.0379 -1.1063
 1547SOL     OW 5539   1.241   5.426   5.895  0.4835 -0.0229 -0.5140
 1547SOL    HW1 5540   1.191   5.348   5.858 -0.4740  1.2432 -2.0348
 1547SOL    HW2 5541   1.324   5.441   5.841  0.9776 -0.3284  0.1488
 1548SOL     OW 5542   3.850   0.034   3.607 -0.0663  0.2825 -0.1884
 1548SOL    HW1 5543   3.927   0.016   3.668 -0.3233 -1.9988 -0.4534
 1548SOL    HW2 5544   3.883   0.073   3.521  0.6999  0.0607  0.0043
 1549SOL     OW 5545   6.162   4.557   3.549  0.6185 -0.1732 -0.2114
 1549SOL    HW1 5546   6.235   4.489   3.557  0.4124 -0.3956 -0.2400
 1549SOL    HW2 5547   6.129   4.581   3.640  0.2459 -0.5887 -0.2375
 1550SOL     OW 5548   0.517   5.838   4.277  0.0863  0.0969  0.0063
 1550SOL    HW1 5549   0.449   5.904   4.246 -1.0088 -1.2181 -0.5253
 1550SOL    HW2 5550   0.606   5.862   4.238 -0.4236  0.8640 -0.7399
 1551SOL     OW 5551   2.758   1.444   1.729 -0.2791  0.2786 -0.1476
 1551SOL    HW1 5552   2.828   1.373   1.728 -1.7283 -1.2461 -2.1239
 1551SOL    HW2 5553   2.791   1.525   1.681  0.6774  0.1872  0.3417
 1552SOL     OW 5554   4.187   2.780   5.732 -0.2591 -0.4447  0.0308
 1552SOL    HW1 5555   4.276   2.825   5.736 -1.6214  2.3916  1.5184
 1552SOL    HW2 5556   4.198   2.682   5.748  2.7420 -0.5729 -1.9772
 1553SOL     OW 5557   3.812   1.905   5.128  0.1872  0.3494 -0.6572
 1553SOL    HW1 5558   3.842   1.907   5.224 -1.3769 -2.2117 -0.0229
 1553SOL    HW2 5559   3.878   1.853   5.074  0.5701  0.9617 -0.7888
 1554SOL     OW 5560   0.030   3.968   6.047  0.4118  0.7536 -0.1434
 1554SOL    HW1 5561   0.005   3.892   5.988 -1.2051  0.6838  0.5630
 1554SOL    HW2 5562   0.043   3.935   6.141  2.1023  0.9906 -0.2639
 1555SOL     OW 5563   1.822   5.522   2.914 -0.0386 -0.2277 -0.0690
 1555SOL    HW1 5564   1.890   5.581   2.872  0.8763  1.1870  3.0612
 1555SOL    HW2 5565   1.764   5.576   2.976 -1.0298 -2.1429  0.7914
 1556SOL     OW 5566   4.849   6.815   1.740 -0.1856  0.5758 -0.1380
 1556SOL    HW1 5567   4.815   6.903   1.707  0.5179  1.0628  0.3950
 1556SOL    HW2 5568   4.815   6.800   1.833  0.6559  0.8607  0.2294
 1557SOL     OW 5569   1.583   0.302   3.693 -0.5136  0.1427 -0.5011
 1557SOL    HW1 5570   1.501   0.357   3.678 -1.6730 -0.6161  2.4377
 1557SOL    HW2 5571   1.594   0.237   3.618 -2.2172  0.7013 -1.2762
 1558SOL     OW 5572   3.212   0.299   6.660  0.0903 -0.0916 -0.3783
 1558SOL    HW1 5573   3.187   0.389   6.697  0.3534  0.2538 -1.0254
 1558SOL    HW2 5574   3.172   0.227   6.717  0.8447  0.4148  0.8490
 1559SOL     OW 5575   5.413   2.417   3.925  0.1029  0.4886 -0.4076
 1559SOL    HW1 5576   5.498   2.391   3.970  0.5546  2.6108  0.0727
 1559SOL    HW2 5577   5.401   2.516   3.929 -1.2066  0.5060 -2.6068
 1560SOL     OW 5578   5.793   0.003   5.582 -0.0764  0.4314  0.0757
 1560SOL    HW1 5579   5.728  -0.039   5.519 -2.7527  1.3807  2.0422
 1560SOL    HW2 5580   5.781  -0.037   5.673  0.5022  2.2210  0.9796
 1561SOL     OW 5581   1.528   6.406   1.237 -0.0322 -0.0755 -0.2051
 1561SOL    HW1 5582   1.524   6.427   1.334 -1.5989 -2.2224  0.2775
 1561SOL    HW2 5583   1.587   6.326   1.223 -1.6446 -1.2355 -0.6616
 1562SOL     OW 5584   0.051   3.959   0.343 -0.3753 -0.1377  0.7077
 1562SOL    HW1 5585   0.135   3.916   0.308  0.0880  1.4648 -0.2524
 1562SOL    HW2 5586  -0.001   3.892   0.395  1.2717 -1.3137  0.9306
 1563SOL     OW 5587   6.981   0.018   2.872  0.0548 -0.4685 -0.0548
 1563SOL    HW1 5588   7.052   0.084   2.850 -0.3728  0.0431  0.1023
 1563SOL    HW2 5589   6.905   0.027   2.808 -0.6768  0.2301  0.8893
 1564SOL     OW 5590   6.042   1.146   4.513  0.4990  0.4086  0.6242
 1564SOL    HW1 5591   6.122   1.181   4.561  1.8744  0.6338 -1.6405
 1564SOL    HW2 5592   5.995   1.222   4.467 -1.7310  0.4524  2.7559
 1565SOL     OW 5593   1.894   5.633   5.695 -0.1518 -0.0635 -0.0408
 1565SOL    HW1 5594   1.939   5.603   5.779  1.9868  0.6695 -0.8529
 1565SOL    HW2 5595   1.866   5.729   5.704  1.2203  0.4116 -0.5495
 1566SOL     OW 5596   2.969   5.578   1.885  0.8042  0.1996 -0.0012
 1566SOL    HW1 5597   2.986   5.480   1.894 -0.3568  0.1126  1.7249
 1566SOL    HW2 5598   2.987   5.623   1.972 -0.0889  1.2970 -0.3589
 1567SOL     OW 5599   5.334   5.859   4.170  0.4125  0.2133  0.5527
 1567SOL    HW1 5600   5.431   5.862   4.194  0.7252 -2.2157 -0.1016
 1567SOL    HW2 5601   5.324   5.871   4.071  0.2489 -1.2508  0.3708
 1568SOL     OW 5602   6.873   1.474   3.254 -0.8488  0.5310  0.1018
 1568SOL    HW1 5603   6.933   1.464   3.333  0.6062  2.5645 -0.6606
 1568SOL    HW2 5604   6.869   1.388   3.203 -0.2114 -0.2188  1.2771
 1569SOL     OW 5605   1.393   5.779   5.736  0.2661 -0.3183  0.0287
 1569SOL    HW1 5606   1.315   5.756   5.794  0.9854  1.3413  1.7565
 1569SOL    HW2 5607   1.469   5.811   5.792  1.1224  1.1197 -1.8125
 1570SOL     OW 5608   2.248   1.189   4.641  0.6845  0.4347  0.1676
 1570SOL    HW1 5609   2.304   1.111   4.666  1.1839  0.4840 -0.7535
 1570SOL    HW2 5610   2.219   1.237   4.724  0.8312 -0.3964  0.7121
 1571SOL     OW 5611   4.079   6.365   4.942 -0.3534 -0.3482 -0.1791
 1571SOL    HW1 5612   4.040   6.423   4.871  0.9198 -0.4179 -0.9477
 1571SOL    HW2 5613   4.070   6.269   4.915 -2.1279 -0.5537  0.9266
 1572SOL     OW 5614   4.202   2.964   5.930  0.0695 -0.2105 -0.1041
 1572SOL    HW1 5615   4.172   2.907   6.006  0.4529 -0.1993  0.0557
 1572SOL    HW2 5616   4.203   2.910   5.846  2.4370 -1.0405  0.3968
 1573SOL     OW 5617   3.322   0.805   0.548 -0.5724 -0.0176  0.3520
 1573SOL    HW1 5618   3.377   0.861   0.487  1.1328 -0.8135  1.0899
 1573SOL    HW2 5619   3.239   0.776   0.501 -1.2210  2.5675 -0.2414
 1574SOL     OW 5620   0.070   6.051   4.624 -0.0733  0.1463 -0.0245
 1574SOL    HW1 5621   0.044   5.989   4.550  0.4210 -1.9925  1.4855
 1574SOL    HW2 5622   0.122   6.128   4.587 -0.7121 -0.3137 -1.9855
 1575SOL     OW 5623   0.067   6.479   3.879  0.6505 -0.4086 -0.4992
 1575SOL    HW1 5624  -0.020   6.470   3.829  0.9363 -0.0431 -1.0782
 1575SOL    HW2 5625   0.049   6.479   3.977 -0.6212  4.3955 -0.4822
 1576SOL     OW 5626   2.675   0.167   4.068  0.2884 -0.0096  0.2903
 1576SOL    HW1 5627   2.616   0.243   4.040  1.2325  0.2311 -1.1038
 1576SOL    HW2 5628   2.730   0.136   3.991  3.3138  0.9302  1.9210
 1577SOL     OW 5629   5.406   3.862   1.160 -0.0052  0.3666  1.1661
 1577SOL    HW1 5630   5.423   3.864   1.061 -2.4260  0.6828  0.6850
 1577SOL    HW2 5631   5.393   3.956   1.193  0.4141  0.2350  1.7184
 1578SOL     OW 5632   2.141   0.222   5.887 -0.5468 -0.3394  0.3787
 1578SOL    HW1 5633   2.063   0.227   5.823 -2.1767  0.1527  2.2984
 1578SOL    HW2 5634   2.226   0.213   5.835 -1.7042  0.8499 -1.8925
 1579SOL     OW 5635   0.819   2.882   5.631 -0.6126 -0.1846  0.5534
 1579SOL    HW1 5636   0.728   2.924   5.630  0.3777  2.3432 -2.6947
 1579SOL    HW2 5637   0.885   2.949   5.664  0.4500 -0.8220 -0.2389
 1580SOL     OW 5638   5.819   2.893   3.360 -0.0251 -0.7869  0.4571
 1580SOL    HW1 5639   5.815   2.794   3.376  0.4750 -0.6697  1.3716
 1580SOL    HW2 5640   5.759   2.916   3.283  1.2463 -2.0254 -0.9796
 1581SOL     OW 5641   6.472   2.232   5.038 -0.2732 -0.4714  0.4051
 1581SOL    HW1 5642   6.438   2.175   4.963 -0.6338 -1.2632  1.1571
 1581SOL    HW2 5643   6.484   2.326   5.005 -1.2615 -0.6114 -0.4105
 1582SOL     OW 5644   6.896   6.974   1.000  0.1175  0.4483 -0.0377
 1582SOL    HW1 5645   6.986   7.015   0.990  0.9366 -0.6241  2.2524
 1582SOL    HW2 5646   6.842   7.028   1.066  0.3569 -0.7770  1.1977
 1583SOL     OW 5647   4.235   3.366   5.702  0.1613  0.2934  0.0651
 1583SOL    HW1 5648   4.225   3.463   5.727 -0.6130 -0.2215  1.9116
 1583SOL    HW2 5649   4.145   3.325   5.692  0.4561  0.1089 -2.3902
 1584SOL     OW 5650   4.853   6.297   2.361  0.6342  0.1919  0.1181
 1584SOL    HW1 5651   4.798   6.232   2.307  2.0487 -1.8427  1.0132
 1584SOL    HW2 5652   4.899   6.248   2.435 -0.1144  2.6721  2.3445
 1585SOL     OW 5653   3.182   6.174   1.374  0.5956  0.3578 -0.1727
 1585SOL    HW1 5654   3.270   6.175   1.421  0.8964  0.8341 -0.7307
 1585SOL    HW2 5655   3.178   6.093   1.315  1.8537  1.7585 -2.3121
 1586SOL     OW 5656   4.127   2.297   6.022  0.1590 -0.5679  0.2563
 1586SOL    HW1 5657   4.140   2.351   6.104  2.8358 -1.9279  0.8384
 1586SOL    HW2 5658   4.104   2.203   6.047  0.6178 -0.9076 -0.5500
 1587SOL     OW 5659   7.015   3.164   4.441  0.6908 -0.6597 -0.5046
 1587SOL    HW1 5660   7.035   3.076   4.482 -0.4171 -0.7206 -0.0563
 1587SOL    HW2 5661   7.080   3.182   4.367  2.2131 -0.9052  0.7218
 1588SOL     OW 5662   2.520   1.350   2.115  0.3190 -0.2827  0.1512
 1588SOL    HW1 5663   2.452   1.382   2.182 -0.1054  0.7762 -0.7353
 1588SOL    HW2 5664   2.566   1.429   2.075 -1.2197 -0.6297 -2.6157
 1589SOL     OW 5665   1.758   2.265   5.091  0.0605 -0.4050 -1.0484
 1589SOL    HW1 5666   1.810   2.206   5.030  1.5256 -1.4234  1.0432
 1589SOL    HW2 5667   1.801   2.355   5.095  0.0279 -0.3724 -1.4148
 1590SOL     OW 5668   5.788   5.343   4.375 -0.1324  0.5577 -0.4075
 1590SOL    HW1 5669   5.727   5.283   4.427  0.4125 -0.2331 -0.6615
 1590SOL    HW2 5670   5.736   5.420   4.338 -0.7194  0.5988  0.4693
 1591SOL     OW 5671   4.287   2.610   6.651 -0.6090  0.1153 -0.2827
 1591SOL    HW1 5672   4.272   2.521   6.608  1.8341 -0.5210  0.0724
 1591SOL    HW2 5673   4.272   2.602   6.750 -2.8629  0.7695 -0.5083
 1592SOL     OW 5674   1.430   3.975   3.254  0.0733 -0.3720 -0.2711
 1592SOL    HW1 5675   1.527   3.998   3.245  0.0172  0.1061  0.2461
 1592SOL    HW2 5676   1.421   3.882   3.288  0.3196 -0.9683 -1.7736
 1593SOL     OW 5677   6.778   2.420   6.268 -0.0467 -0.1087 -0.0999
 1593SOL    HW1 5678   6.821   2.441   6.180  3.3178 -1.6055  1.0076
 1593SOL    HW2 5679   6.827   2.468   6.341 -2.4708  0.7305  1.0842
 1594SOL     OW 5680   2.184   6.136   1.186  0.4819  0.2580  0.3484
 1594SOL    HW1 5681   2.263   6.195   1.169  0.7977 -0.4818 -0.8748
 1594SOL    HW2 5682   2.188   6.057   1.126 -0.9124 -0.0750  0.6564
 1595SOL     OW 5683   2.642   1.840   2.455 -0.0511  0.3665  0.2843
 1595SOL    HW1 5684   2.654   1.747   2.421  0.7715  0.5897 -0.0577
 1595SOL    HW2 5685   2.674   1.846   2.549 -0.7126  0.1542  0.5261
 1596SOL     OW 5686   1.445   4.536   1.920 -0.1493 -0.3041  0.0488
 1596SOL    HW1 5687   1.424   4.471   1.848  0.1783 -0.1013 -0.2345
 1596SOL    HW2 5688   1.402   4.507   2.005 -0.1786 -0.7765 -0.1254
 1597SOL     OW 5689   5.127   2.599   4.462  0.2957  0.4151  0.3401
 1597SOL    HW1 5690   5.222   2.569   4.470 -0.0127 -0.2960  1.6810
 1597SOL    HW2 5691   5.097   2.640   4.548 -0.7286  0.2501  0.0829
 1598SOL     OW 5692   5.245   5.245   6.341  0.2825 -0.2137 -0.8374
 1598SOL    HW1 5693   5.189   5.226   6.422 -0.7042 -1.8408 -1.8478
 1598SOL    HW2 5694   5.337   5.273   6.370  0.0849 -1.1689  0.8481
 1599SOL     OW 5695   3.478   0.269   6.611 -0.4339  0.3180  0.2646
 1599SOL    HW1 5696   3.381   0.280   6.631 -0.1081  0.7010  1.7092
 1599SOL    HW2 5697   3.499   0.172   6.597 -0.7831  0.0935  1.2655
 1600SOL     OW 5698   3.759   3.318   5.917 -0.8030  0.2337 -0.1988
 1600SOL    HW1 5699   3.710   3.324   6.004 -2.6155  3.8126 -1.2702
 1600SOL    HW2 5700   3.702   3.270   5.850  0.6677 -2.6896  0.4680
 1601SOL     OW 5701   1.061   1.189   4.057 -0.0328  0.4749 -0.0087
 1601SOL    HW1 5702   1.142   1.222   4.106  0.7255  0.7166 -1.3514
 1601SOL    HW2 5703   1.070   1.212   3.960 -1.2158 -0.4545 -0.3608
 1602SOL     OW 5704   1.816   0.762   6.340  0.1006  0.4841  0.2742
 1602SOL    HW1 5705   1.829   0.741   6.243 -0.8928 -0.0951  0.2411
 1602SOL    HW2 5706   1.842   0.856   6.358  1.1021  0.3458 -0.3787
 1603SOL     OW 5707   6.685   1.568   2.386 -0.0597 -0.0260 -0.2090
 1603SOL    HW1 5708   6.598   1.567   2.338 -0.2604 -0.7224  0.1543
 1603SOL    HW2 5709   6.743   1.494   2.352  0.4503  0.5216 -0.5497
 1604SOL     OW 5710   6.051   2.752   2.980  0.4989 -0.4073  0.0458
 1604SOL    HW1 5711   6.133   2.714   2.937  0.4247 -0.4834 -0.0302
 1604SOL    HW2 5712   5.992   2.677   3.011 -0.3212 -0.3833 -1.3699
 1605SOL     OW 5713   0.694   3.639   4.683 -0.5858 -0.5869  0.2108
 1605SOL    HW1 5714   0.594   3.631   4.680 -0.7289  1.1000 -0.0852
 1605SOL    HW2 5715   0.732   3.610   4.595 -0.7606 -1.6376  0.4652
 1606SOL     OW 5716   4.556   6.762   6.714 -0.1085 -0.1622  0.2369
 1606SOL    HW1 5717   4.587   6.852   6.742 -1.7384  0.2434  0.8365
 1606SOL    HW2 5718   4.544   6.760   6.614  0.2524  0.1667  0.1857
 1607SOL     OW 5719   0.727   4.942   6.655  0.3877 -0.4427 -0.4957
 1607SOL    HW1 5720   0.744   4.844   6.641  2.1638 -0.3115  0.4252
 1607SOL    HW2 5721   0.749   4.992   6.571  3.2851 -0.4798  0.1335
 1608SOL     OW 5722   1.090   1.558   4.013 -0.1117 -0.5567  0.1950
 1608SOL    HW1 5723   1.095   1.520   3.921 -1.4653 -2.9407  1.0218
 1608SOL    HW2 5724   1.003   1.606   4.025  0.3376  0.3155  0.0679
 1609SOL     OW 5725   4.627   5.911   1.985 -0.6952 -0.3699 -0.0077
 1609SOL    HW1 5726   4.674   5.996   1.959 -1.1647 -0.0781  0.0956
 1609SOL    HW2 5727   4.568   5.928   2.063  1.9297 -1.5896  2.4484
 1610SOL     OW 5728   6.049   1.422   0.810  0.4562 -0.0654 -0.0335
 1610SOL    HW1 5729   6.091   1.500   0.855  3.1392 -1.8225  0.7580
 1610SOL    HW2 5730   6.057   1.432   0.711 -0.7160  1.3598 -0.0169
 1611SOL     OW 5731   5.081   1.028   0.734 -0.6164 -0.0168  0.8200
 1611SOL    HW1 5732   4.997   1.078   0.756 -1.0364 -1.1695  1.9199
 1611SOL    HW2 5733   5.068   0.978   0.649  0.5024  3.2663 -1.4790
 1612SOL     OW 5734   4.720   0.230   2.903 -0.5513 -0.2906  0.2604
 1612SOL    HW1 5735   4.732   0.305   2.968 -1.4730  0.3232 -0.2496
 1612SOL    HW2 5736   4.787   0.238   2.829 -1.5070  0.8585 -0.5221
 1613SOL     OW 5737   0.259   0.761   1.804  0.1310  0.7236 -0.0337
 1613SOL    HW1 5738   0.325   0.832   1.778 -0.1361  1.1124  0.3361
 1613SOL    HW2 5739   0.172   0.804   1.829  0.5295  0.4254  2.0342
 1614SOL     OW 5740   2.121   3.566   2.219 -0.2778  0.0627 -0.0047
 1614SOL    HW1 5741   2.155   3.530   2.133 -2.9140  0.0301 -1.1283
 1614SOL    HW2 5742   2.066   3.648   2.202  2.7168  2.8315  2.1384
 1615SOL     OW 5743   5.096   4.677   5.650 -0.1927 -0.5100  0.0301
 1615SOL    HW1 5744   5.068   4.691   5.745  2.0895  0.4473  0.6337
 1615SOL    HW2 5745   5.136   4.586   5.640 -0.5671 -0.6658 -0.0475
 1616SOL     OW 5746   3.553   5.594   4.836 -0.5593  0.1569  0.5890
 1616SOL    HW1 5747   3.462   5.556   4.822 -0.4972 -0.6917  2.2065
 1616SOL    HW2 5748   3.618   5.548   4.776 -1.0184  0.0165  0.1962
 1617SOL     OW 5749   4.861   6.659   6.029  0.4292 -0.0252  0.1703
 1617SOL    HW1 5750   4.895   6.715   6.104  0.0436  0.5115 -0.0478
 1617SOL    HW2 5751   4.870   6.562   6.052  0.1457  0.1403  0.9782
 1618SOL     OW 5752   2.511   0.509   4.224  0.0642  0.4263  0.2709
 1618SOL    HW1 5753   2.547   0.601   4.240  1.0656  0.2205 -0.6340
 1618SOL    HW2 5754   2.567   0.443   4.273  1.2583  0.0648 -1.4833
 1619SOL     OW 5755   6.500   1.335   5.377  0.2844 -0.5899  0.4672
 1619SOL    HW1 5756   6.566   1.377   5.314  0.1278 -0.4467  0.3991
 1619SOL    HW2 5757   6.518   1.366   5.470 -0.5468  0.5375  0.2748
 1620SOL     OW 5758   6.719   4.278   0.425 -0.3420  0.0286  0.7673
 1620SOL    HW1 5759   6.749   4.222   0.348 -1.3827  1.9218 -1.1198
 1620SOL    HW2 5760   6.683   4.218   0.498  0.0901 -1.7937 -0.4461
 1621SOL     OW 5761   1.665   1.779   4.310 -0.1806  0.8606  0.0980
 1621SOL    HW1 5762   1.745   1.827   4.274  1.0514 -1.1157  0.0878
 1621SOL    HW2 5763   1.616   1.840   4.372  2.9878  1.2723  2.4593
 1622SOL     OW 5764   0.471   3.688   1.453 -0.3849  0.2783  0.5560
 1622SOL    HW1 5765   0.524   3.696   1.538 -0.2646 -0.8918  0.6081
 1622SOL    HW2 5766   0.524   3.638   1.385 -0.5418  1.0825 -0.1724
 1623SOL     OW 5767   0.670   2.589   1.522 -0.5612  0.0564  0.2424
 1623SOL    HW1 5768   0.611   2.588   1.441  0.3335 -1.1600 -0.4289
 1623SOL    HW2 5769   0.618   2.559   1.602 -2.0984  3.4173  0.6581
 1624SOL     OW 5770   6.203   4.109   1.447 -0.5220  0.4687  0.2194
 1624SOL    HW1 5771   6.194   4.162   1.363 -1.6338  0.3163  0.2387
 1624SOL    HW2 5772   6.237   4.170   1.520  2.6684  0.1288 -0.7987
 1625SOL     OW 5773   4.258   2.026   4.870  0.3085 -0.1624 -0.5071
 1625SOL    HW1 5774   4.160   2.018   4.889  0.4882  0.2339  0.6994
 1625SOL    HW2 5775   4.277   2.115   4.828  0.1033 -0.4289 -1.1840
 1626SOL     OW 5776   4.066   1.262   4.534 -0.5646 -0.4874  0.2292
 1626SOL    HW1 5777   4.111   1.338   4.581 -0.1479 -0.9849  0.6334
 1626SOL    HW2 5778   4.028   1.295   4.447  1.4908 -0.2871 -0.6479
 1627SOL     OW 5779   5.094   0.113   0.292 -0.2604  0.0757  0.2786
 1627SOL    HW1 5780   5.013   0.171   0.292 -0.0010  0.4444 -0.0939
 1627SOL    HW2 5781   5.157   0.144   0.220  0.4845  0.1820  0.9646
 1628SOL     OW 5782   3.871   2.076   2.162 -0.0991  0.1430 -0.0872
 1628SOL    HW1 5783   3.938   2.149   2.143 -0.2910 -0.0590 -1.7107
 1628SOL    HW2 5784   3.784   2.100   2.120 -1.0081  0.2700  1.7810
 1629SOL     OW 5785   1.256   0.137   3.638  0.8319 -0.0568 -0.0998
 1629SOL    HW1 5786   1.282   0.225   3.597 -0.3585  0.3575  0.0033
 1629SOL    HW2 5787   1.310   0.122   3.721  0.7625  0.7798  0.1086
 1630SOL     OW 5788   3.233   0.840   6.783  0.0568  0.3875  0.1865
 1630SOL    HW1 5789   3.289   0.886   6.852 -1.7053 -0.3552  2.2509
 1630SOL    HW2 5790   3.166   0.904   6.747  1.9850  1.2275 -2.1542
 1631SOL     OW 5791   0.853   6.756   6.151 -0.1498  0.5465  0.3301
 1631SOL    HW1 5792   0.884   6.759   6.056  0.6627 -0.7749  0.5203
 1631SOL    HW2 5793   0.829   6.661   6.175 -0.6868  0.9199  1.3424
 1632SOL     OW 5794   5.961   5.518   1.809 -0.6773  0.1651 -0.7578
 1632SOL    HW1 5795   5.918   5.608   1.824  2.1988  1.4128  0.6850
 1632SOL    HW2 5796   6.025   5.525   1.732  1.0506 -0.0212  0.6047
 1633SOL     OW 5797   1.409   2.354   5.266 -0.6973 -0.5161  0.0211
 1633SOL    HW1 5798   1.320   2.346   5.220 -1.4244  0.3340  1.2109
 1633SOL    HW2 5799   1.468   2.414   5.213 -0.8521 -1.0179 -0.7407
 1634SOL     OW 5800   2.084   2.704   6.880  0.6067  0.5729  0.2844
 1634SOL    HW1 5801   2.022   2.633   6.913 -1.0723  1.1350 -1.4621
 1634SOL    HW2 5802   2.136   2.669   6.802 -0.9132  1.4600 -1.1940
 1635SOL     OW 5803   1.945   4.119   3.157 -0.2630  0.0810 -0.0902
 1635SOL    HW1 5804   1.988   4.087   3.072  0.6007  1.2484 -0.1142
 1635SOL    HW2 5805   2.015   4.125   3.229 -0.6800  0.5847  0.2795
 1636SOL     OW 5806   3.990   6.550   4.722  0.0753 -0.1224  0.3250
 1636SOL    HW1 5807   4.007   6.645   4.744  1.1926 -0.1653 -0.3077
 1636SOL    HW2 5808   4.043   6.524   4.641 -0.0728 -1.3300  0.5965
 1637SOL     OW 5809   5.723   2.055   5.110 -0.8340 -0.1923 -0.1253
 1637SOL    HW1 5810   5.643   2.047   5.052 -1.8270  2.9776  0.5740
 1637SOL    HW2 5811   5.695   2.086   5.201  1.1219  0.3750  0.3365
 1638SOL     OW 5812   2.393   6.103   2.293  0.0074  0.0837 -0.0149
 1638SOL    HW1 5813   2.461   6.170   2.323  0.6747 -0.2319 -0.7627
 1638SOL    HW2 5814   2.439   6.016   2.272 -0.6678 -0.2212 -0.2767
 1639SOL     OW 5815   3.696   5.587   5.659  0.4422  0.3965 -0.1060
 1639SOL    HW1 5816   3.660   5.652   5.726 -1.8156 -0.7451 -0.1171
 1639SOL    HW2 5817   3.723   5.503   5.705  1.4212  0.5793 -0.3315
 1640SOL     OW 5818   4.362   1.383   0.279 -0.2219 -0.2247 -0.5134
 1640SOL    HW1 5819   4.454   1.370   0.244 -0.5945  0.1557 -1.6636
 1640SOL    HW2 5820   4.355   1.473   0.322  0.2530 -0.7200  0.6502
 1641SOL     OW 5821   6.885   1.305   1.898  0.0561  0.3169  0.3644
 1641SOL    HW1 5822   6.802   1.346   1.937 -0.1889 -0.3610  0.5828
 1641SOL    HW2 5823   6.931   1.371   1.839 -1.1580  0.4097 -0.5215
 1642SOL     OW 5824   0.926   6.364   2.531  0.1227  0.4211 -0.2397
 1642SOL    HW1 5825   0.940   6.275   2.575 -2.4902 -0.3461 -0.7937
 1642SOL    HW2 5826   0.901   6.431   2.601 -0.8383 -0.0330 -0.1201
 1643SOL     OW 5827   2.554   2.489   0.129  0.2268  0.1703 -0.0330
 1643SOL    HW1 5828   2.570   2.572   0.076 -0.5018  0.7677  0.6492
 1643SOL    HW2 5829   2.514   2.419   0.069  0.3394  0.4886 -0.4895
 1644SOL     OW 5830   5.560   2.729   6.996 -0.0117  0.2383  0.1117
 1644SOL    HW1 5831   5.625   2.697   7.065  1.3774  0.1601 -1.1657
 1644SOL    HW2 5832   5.470   2.741   7.037  0.2980 -1.6978  1.4900
 1645SOL     OW 5833   2.972   0.708   4.823 -0.3990  0.0490  0.4799
 1645SOL    HW1 5834   3.069   0.695   4.804 -0.0117 -0.6750  2.7464
 1645SOL    HW2 5835   2.961   0.764   4.905 -1.8903 -0.4427  0.6397
 1646SOL     OW 5836   6.263   6.415   0.897 -0.4704 -0.2312 -0.3908
 1646SOL    HW1 5837   6.232   6.337   0.951  0.7408 -0.4271  0.0381
 1646SOL    HW2 5838   6.187   6.447   0.840 -1.0157 -1.6631 -0.5194
 1647SOL     OW 5839   2.836   0.104   4.597 -0.2633 -0.1657 -0.5886
 1647SOL    HW1 5840   2.869   0.063   4.682 -1.2896  1.3115  0.5624
 1647SOL    HW2 5841   2.899   0.177   4.569 -0.1589 -0.3565 -0.8471
 1648SOL     OW 5842   6.806   5.346   0.385 -0.0514  0.5193  0.0450
 1648SOL    HW1 5843   6.880   5.345   0.318  0.1945 -0.7261  0.3151
 1648SOL    HW2 5844   6.829   5.286   0.461 -2.2593 -1.7321 -0.9127
 1649SOL     OW 5845   1.377   0.035   3.407  0.0430  0.4139 -0.3850
 1649SOL    HW1 5846   1.354   0.068   3.498 -2.6531 -2.7934  0.3053
 1649SOL    HW2 5847   1.327   0.088   3.338  0.2999  1.3913  0.1733
 1650SOL     OW 5848   0.838   0.914   5.898 -0.2441  0.0227 -0.8313
 1650SOL    HW1 5849   0.857   1.009   5.920  0.6125 -0.1240 -0.9032
 1650SOL    HW2 5850   0.898   0.854   5.951 -0.2259 -0.4423 -1.3605
 1651SOL     OW 5851   2.549   3.814   1.082  0.3457 -0.3752 -0.1841
 1651SOL    HW1 5852   2.606   3.738   1.113  1.3088 -0.5259 -2.1681
 1651SOL    HW2 5853   2.605   3.896   1.074 -0.1208 -0.0768 -0.4243
 1652SOL     OW 5854   0.960   3.354   3.253 -0.2178  0.0815  0.2053
 1652SOL    HW1 5855   0.904   3.401   3.321  1.5427 -1.6172  3.0307
 1652SOL    HW2 5856   1.014   3.421   3.202  0.7926  1.3494  2.7541
 1653SOL     OW 5857   6.836   5.545   4.266 -0.2574 -0.2184 -0.5317
 1653SOL    HW1 5858   6.921   5.515   4.309 -2.0731 -0.7097  3.0908
 1653SOL    HW2 5859   6.772   5.468   4.262 -1.5594  0.8132 -0.3731
 1654SOL     OW 5860   5.595   2.380   6.982 -0.0324  0.7661  0.2733
 1654SOL    HW1 5861   5.669   2.315   6.998  0.0656 -0.3440 -3.6203
 1654SOL    HW2 5862   5.633   2.465   6.945 -0.5492  0.6695 -0.5131
 1655SOL     OW 5863   0.199   3.931   3.449 -0.2359 -0.5692 -0.1991
 1655SOL    HW1 5864   0.163   3.934   3.356  1.6053  0.5942 -0.9319
 1655SOL    HW2 5865   0.135   3.975   3.511 -0.9407 -0.2488 -1.1225
 1656SOL     OW 5866   1.800   6.050   5.163 -0.0014 -0.1907 -0.1972
 1656SOL    HW1 5867   1.848   6.132   5.130  0.2315  0.3244  1.3208
 1656SOL    HW2 5868   1.724   6.078   5.221 -0.8417 -1.0471 -0.8650
 1657SOL     OW 5869   2.586   4.665   0.783  0.5473  0.2921 -0.3874
 1657SOL    HW1 5870   2.615   4.753   0.745  2.1276 -0.1256 -0.2202
 1657SOL    HW2 5871   2.517   4.680   0.853 -0.0987  1.2971 -1.2109
 1658SOL     OW 5872   3.901   0.456   4.868  0.1633 -0.8181 -0.8983
 1658SOL    HW1 5873   3.816   0.504   4.846  0.3675 -1.0752 -2.3702
 1658SOL    HW2 5874   3.916   0.457   4.967 -0.9390  0.2558 -0.7254
 1659SOL     OW 5875   2.249   5.083   0.915 -0.6174  0.2815 -0.1732
 1659SOL    HW1 5876   2.252   5.046   0.822 -0.8494  1.6269 -0.7494
 1659SOL    HW2 5877   2.217   5.013   0.978  0.4391 -0.9432 -0.9456
 1660SOL     OW 5878   1.427   1.416   3.216 -0.3038 -0.3247 -0.0140
 1660SOL    HW1 5879   1.507   1.361   3.194 -0.0352 -0.6270  1.6275
 1660SOL    HW2 5880   1.384   1.447   3.131  0.2510 -2.0230 -0.9659
 1661SOL     OW 5881   4.325   4.684   1.664  0.3156  0.1110  0.2707
 1661SOL    HW1 5882   4.236   4.674   1.710 -0.5044  0.9651 -1.0798
 1661SOL    HW2 5883   4.337   4.779   1.636  0.6750 -0.4279 -1.4901
 1662SOL     OW 5884   5.479   0.447   1.245  0.7601 -0.2750  0.1891
 1662SOL    HW1 5885   5.438   0.424   1.156  1.9615 -1.2295 -0.1491
 1662SOL    HW2 5886   5.564   0.496   1.230  0.2403  0.8696  0.8691
 1663SOL     OW 5887   6.759   5.710   2.930 -0.8249  0.2589  0.3469
 1663SOL    HW1 5888   6.785   5.806   2.921  0.3568 -0.1640 -1.0790
 1663SOL    HW2 5889   6.806   5.670   3.008  0.9676  0.1401 -0.7531
 1664SOL     OW 5890   3.488   6.667   0.632 -0.1257 -0.0915 -0.0054
 1664SOL    HW1 5891   3.462   6.578   0.669  1.3251  0.2178  1.9292
 1664SOL    HW2 5892   3.413   6.732   0.643 -1.2748 -1.0924 -1.6377
 1665SOL     OW 5893   7.002   3.249   6.977 -0.0616  0.2621 -0.2818
 1665SOL    HW1 5894   7.018   3.155   6.946 -2.7070  0.1219 -1.4928
 1665SOL    HW2 5895   7.037   3.313   6.909  0.3320  0.1120 -0.2208
 1666SOL     OW 5896   6.416   4.672   0.198  0.0540  0.0118  0.1356
 1666SOL    HW1 5897   6.468   4.738   0.143  0.5399 -0.6650 -0.2303
 1666SOL    HW2 5898   6.480   4.610   0.243 -0.4121 -0.3383  0.3125
 1667SOL     OW 5899   4.790   4.083   3.692 -0.1988  0.4932 -0.1326
 1667SOL    HW1 5900   4.842   4.066   3.608 -0.3350 -1.8237  0.1710
 1667SOL    HW2 5901   4.717   4.148   3.674 -0.3888 -0.1523 -1.9011
 1668SOL     OW 5902   2.816   5.753   0.153  0.3730  0.0301  0.2625
 1668SOL    HW1 5903   2.883   5.759   0.079  3.0032 -0.4518  2.4448
 1668SOL    HW2 5904   2.841   5.679   0.215  0.3700  2.4649  3.4527
 1669SOL     OW 5905   3.567   0.078   1.764 -0.3427 -0.2078  0.3087
 1669SOL    HW1 5906   3.478   0.039   1.738 -0.4946 -1.3293  2.3045
 1669SOL    HW2 5907   3.556   0.135   1.846  0.9278 -1.4259  1.3884
 1670SOL     OW 5908   0.288   2.566   3.196  0.5353 -0.3287 -0.7519
 1670SOL    HW1 5909   0.254   2.635   3.132 -3.8932  0.3354  1.8866
 1670SOL    HW2 5910   0.307   2.608   3.284 -0.5402 -2.1467  0.4143
 1671SOL     OW 5911   4.085   3.550   6.920 -0.1645 -0.0626 -0.0682
 1671SOL    HW1 5912   4.136   3.465   6.906  1.3639  0.8827 -0.4465
 1671SOL    HW2 5913   4.055   3.586   6.832  0.6724  0.6590 -0.0645
 1672SOL     OW 5914   5.866   1.834   2.530 -0.7943  0.0071 -0.1619
 1672SOL    HW1 5915   5.853   1.934   2.534 -0.5321  0.0332  0.0848
 1672SOL    HW2 5916   5.912   1.804   2.614 -1.0704 -0.3503 -0.1393
 1673SOL     OW 5917   4.456   4.845   3.835  0.1144 -0.1249  0.0152
 1673SOL    HW1 5918   4.390   4.770   3.844 -0.7202  0.5682 -0.2445
 1673SOL    HW2 5919   4.429   4.904   3.759 -1.1253  2.3000  2.2068
 1674SOL     OW 5920   5.554   5.699   3.337 -0.4757 -0.2234 -0.1883
 1674SOL    HW1 5921   5.478   5.759   3.360 -0.9279  0.2377 -2.5603
 1674SOL    HW2 5922   5.543   5.611   3.382  0.0166  1.2495  3.0969
 1675SOL     OW 5923   4.091   0.439   4.645  0.2042  0.1093 -0.2737
 1675SOL    HW1 5924   4.147   0.364   4.680 -0.6229 -1.1563 -1.5447
 1675SOL    HW2 5925   4.024   0.466   4.714 -0.3407 -1.2425 -0.2297
 1676SOL     OW 5926   4.637   0.154   2.558  0.2675 -0.3594  0.1731
 1676SOL    HW1 5927   4.558   0.200   2.599 -0.1212 -1.6732  0.9654
 1676SOL    HW2 5928   4.721   0.186   2.602 -0.0323 -0.7047  1.0196
 1677SOL     OW 5929   6.185   6.657   0.130  0.8469 -0.4691 -0.6101
 1677SOL    HW1 5930   6.266   6.716   0.123  2.1043 -2.0392  0.0105
 1677SOL    HW2 5931   6.214   6.561   0.129 -1.2630 -1.1812 -3.3110
 1678SOL     OW 5932   5.657   6.808   5.431 -0.0208 -0.4934  0.3333
 1678SOL    HW1 5933   5.561   6.808   5.402 -0.0729  0.9027  0.4389
 1678SOL    HW2 5934   5.716   6.800   5.351 -0.2149 -1.0365  0.2407
 1679SOL     OW 5935   0.409   3.389   6.996  0.7166 -0.6471 -0.3822
 1679SOL    HW1 5936   0.493   3.394   6.943  1.5210  0.1533  0.9206
 1679SOL    HW2 5937   0.430   3.369   7.092 -0.5628 -0.3988 -0.0259
 1680SOL     OW 5938   0.851   3.819   5.195  0.2753  0.7537  0.3123
 1680SOL    HW1 5939   0.827   3.766   5.114  0.1867  0.7307  0.3535
 1680SOL    HW2 5940   0.831   3.916   5.178 -0.8892  0.5988  0.7421
 1681SOL     OW 5941   5.940   5.145   1.279  0.5720 -0.1316  0.3975
 1681SOL    HW1 5942   5.859   5.146   1.339  0.7032 -0.2577  0.5779
 1681SOL    HW2 5943   5.930   5.215   1.208  1.0770  1.0332  1.4451
 1682SOL     OW 5944   6.865   5.697   6.808  0.3676  0.1402 -0.2423
 1682SOL    HW1 5945   6.924   5.645   6.747 -0.7779 -0.2250 -1.0717
 1682SOL    HW2 5946   6.813   5.634   6.866 -1.1067  0.3166 -1.3289
 1683SOL     OW 5947   1.306   0.716   5.074 -0.2976 -0.7036  0.3746
 1683SOL    HW1 5948   1.316   0.788   5.143  1.5407 -0.4664 -0.0892
 1683SOL    HW2 5949   1.376   0.647   5.088  0.9949  0.0281 -2.0394
 1684SOL     OW 5950   6.250   6.399   6.043 -0.3267 -0.1251  0.8097
 1684SOL    HW1 5951   6.336   6.437   6.007 -0.2390 -1.6547 -0.7433
 1684SOL    HW2 5952   6.176   6.422   5.981 -0.5344 -1.1339  0.6624
 1685SOL     OW 5953   2.646   0.518   3.818  0.3221 -0.2112 -0.0488
 1685SOL    HW1 5954   2.630   0.441   3.756  1.0476 -1.0664  0.7925
 1685SOL    HW2 5955   2.741   0.549   3.808  0.9619 -1.4165  1.7169
 1686SOL     OW 5956   1.225   4.935   5.707  0.3354  0.0691  0.7645
 1686SOL    HW1 5957   1.178   4.850   5.731 -0.1920  0.1543  0.0633
 1686SOL    HW2 5958   1.322   4.926   5.727  0.5477 -1.2683 -0.7076
 1687SOL     OW 5959   3.462   4.245   5.451 -0.5899 -0.4512 -0.0274
 1687SOL    HW1 5960   3.433   4.163   5.500 -1.4779  0.4048  0.9488
 1687SOL    HW2 5961   3.408   4.255   5.367 -0.2507 -1.0333 -0.3150
 1688SOL     OW 5962   1.614   2.126   6.640 -0.2045  1.0008 -0.2494
 1688SOL    HW1 5963   1.585   2.098   6.548  0.8284 -1.7136  0.1710
 1688SOL    HW2 5964   1.685   2.196   6.632  0.1345  0.5507 -1.5633
 1689SOL     OW 5965   5.650   5.976   4.806  0.6104  0.1235  0.7608
 1689SOL    HW1 5966   5.700   5.906   4.856  0.3732  0.4460  1.4526
 1689SOL    HW2 5967   5.553   5.972   4.830  0.3282 -0.3014 -0.3453
 1690SOL     OW 5968   5.099   3.013   4.945  0.4300 -0.0283 -0.6782
 1690SOL    HW1 5969   5.014   3.012   4.998  0.7449  0.1899 -0.1614
 1690SOL    HW2 5970   5.101   3.094   4.886  0.6084  0.3696 -0.1364
 1691SOL     OW 5971   5.979   1.755   1.461  0.0679 -0.5579 -0.0503
 1691SOL    HW1 5972   6.046   1.697   1.414 -1.0057 -2.1912  0.3549
 1691SOL    HW2 5973   5.911   1.698   1.506 -0.5266  1.0238  1.1703
 1692SOL     OW 5974   3.686   2.326   6.328 -0.3804  0.1884  0.3767
 1692SOL    HW1 5975   3.615   2.278   6.380  1.0183 -0.5682  1.6538
 1692SOL    HW2 5976   3.658   2.331   6.232 -2.0958 -0.1818  0.8084
 1693SOL     OW 5977   0.716   4.452   4.941  0.5887 -0.5096  0.0501
 1693SOL    HW1 5978   0.685   4.537   4.984  0.1289 -0.9348  0.5602
 1693SOL    HW2 5979   0.814   4.441   4.957  0.4454 -0.6048  0.9051
 1694SOL     OW 5980   3.525   4.068   6.729  0.0629 -0.1402 -0.0427
 1694SOL    HW1 5981   3.625   4.073   6.719  0.1242  2.1536  0.9893
 1694SOL    HW2 5982   3.486   4.022   6.649  1.8204  0.3266 -1.2449
 1695SOL     OW 5983   6.223   3.775   6.315  0.1057  0.1688  0.1295
 1695SOL    HW1 5984   6.293   3.708   6.343  0.5620 -0.0360 -1.3760
 1695SOL    HW2 5985   6.255   3.867   6.337  0.5835  0.0378  0.0023
 1696SOL     OW 5986   5.358   0.804   3.795  0.2636  0.1319  0.3969
 1696SOL    HW1 5987   5.340   0.822   3.698 -1.3569 -1.9453  0.2592
 1696SOL    HW2 5988   5.457   0.803   3.810  0.5542  0.4353 -1.2329
 1697SOL     OW 5989   0.337   2.454   1.733  0.2350  0.3915  0.3904
 1697SOL    HW1 5990   0.408   2.509   1.777  1.4518 -1.4834  0.9387
 1697SOL    HW2 5991   0.267   2.430   1.800  0.3610  0.2692  0.4808
 1698SOL     OW 5992   5.815   5.110   4.062  0.5770  0.1010  0.2611
 1698SOL    HW1 5993   5.735   5.084   4.116  1.7735 -1.6625  1.2823
 1698SOL    HW2 5994   5.821   5.210   4.057 -2.1631  0.3041 -0.6441
 1699SOL     OW 5995   1.720   0.221   0.779  0.1863 -0.3525 -0.5738
 1699SOL    HW1 5996   1.646   0.215   0.846 -0.8924  0.0719 -1.6959
 1699SOL    HW2 5997   1.734   0.132   0.736  1.1663 -0.7331  0.4721
 1700SOL     OW 5998   3.990   5.995   0.844 -0.0042  0.4952  0.5484
 1700SOL    HW1 5999   3.989   5.902   0.880 -0.6113  0.3632  0.2066
 1700SOL    HW2 6000   4.076   6.040   0.869  1.5858 -1.0746 -1.6985
 1701SOL     OW 6001   6.868   1.021   4.504  0.0054 -0.4983 -0.0801
 1701SOL    HW1 6002   6.878   0.933   4.457 -2.2306  0.4261 -2.5311
 1701SOL    HW2 6003   6.832   1.005   4.596  0.0220 -2.1635 -0.3255
 1702SOL     OW 6004   6.737   4.858   0.604 -0.5557 -0.0754 -0.0235
 1702SOL    HW1 6005   6.675   4.788   0.639 -0.4741 -0.7471 -1.1508
 1702SOL    HW2 6006   6.823   4.815   0.577 -0.1865  0.6013  0.0621
 1703SOL     OW 6007   2.670   5.798   5.918 -0.0053 -0.0695  0.1078
 1703SOL    HW1 6008   2.692   5.840   6.006  1.7191 -0.3922 -0.1348
 1703SOL    HW2 6009   2.752   5.795   5.861 -0.8667 -0.7575 -1.1463
 1704SOL     OW 6010   1.248   3.869   2.405 -0.1647  0.1618 -0.2059
 1704SOL    HW1 6011   1.179   3.858   2.476  1.0229  1.4297  1.2246
 1704SOL    HW2 6012   1.339   3.863   2.446  0.5903 -0.7176 -1.9177
 1705SOL     OW 6013   5.989   0.007   0.500  0.3450  0.2062  0.1988
 1705SOL    HW1 6014   6.034  -0.083   0.494 -1.0195 -0.5825  1.1932
 1705SOL    HW2 6015   6.037   0.063   0.568  0.7321 -0.0591  0.1497
 1706SOL     OW 6016   2.327   1.936   1.820  0.3099  0.5409  0.1961
 1706SOL    HW1 6017   2.291   1.846   1.848 -0.2096  1.0065  1.0958
 1706SOL    HW2 6018   2.335   1.994   1.901 -0.4382  1.6814 -0.5207
 1707SOL     OW 6019   0.293   4.790   3.327  0.2700 -0.0380  0.5035
 1707SOL    HW1 6020   0.337   4.789   3.417  0.2479 -0.4170  0.5144
 1707SOL    HW2 6021   0.344   4.730   3.265  0.1740  0.0731  0.3171
 1708SOL     OW 6022   4.007   4.739   1.896 -0.1356  0.5934 -0.0257
 1708SOL    HW1 6023   3.971   4.693   1.815  0.6058 -0.4759  0.2287
 1708SOL    HW2 6024   4.073   4.809   1.869  1.2352 -0.7828 -0.3028
 1709SOL     OW 6025   1.294   5.224   1.638 -0.2083  0.1116  0.2904
 1709SOL    HW1 6026   1.358   5.228   1.560 -1.3137  0.7697 -0.6208
 1709SOL    HW2 6027   1.232   5.302   1.633 -2.3514 -1.5443  0.0378
 1710SOL     OW 6028   5.859   4.727   4.421  0.3997 -0.6334 -0.4578
 1710SOL    HW1 6029   5.789   4.726   4.492 -0.3564  0.0016 -1.1797
 1710SOL    HW2 6030   5.819   4.697   4.334  0.3411  2.1304 -1.4588
 1711SOL     OW 6031   3.142   6.527   3.372 -0.1746 -0.3183 -0.0712
 1711SOL    HW1 6032   3.089   6.604   3.336 -0.5064  0.2401  1.5319
 1711SOL    HW2 6033   3.114   6.443   3.326 -0.8141  0.3030 -0.8575
 1712SOL     OW 6034   5.682   1.624   5.006 -0.3877 -0.1938  0.0954
 1712SOL    HW1 6035   5.745   1.688   4.963  0.1827 -0.2919  0.7568
 1712SOL    HW2 6036   5.662   1.655   5.100  0.7172 -1.5056  0.7970
 1713SOL     OW 6037   1.566   4.646   2.856 -0.3829 -0.4078  0.0517
 1713SOL    HW1 6038   1.502   4.651   2.932  2.3387  0.1346  2.5077
 1713SOL    HW2 6039   1.602   4.738   2.837  2.1134 -1.0677  1.1461
 1714SOL     OW 6040   3.279   0.426   4.098  0.3570  0.1857 -0.1368
 1714SOL    HW1 6041   3.208   0.495   4.112  0.2385 -0.1003  0.7981
 1714SOL    HW2 6042   3.359   0.468   4.055  0.3648  0.9683  0.6087
 1715SOL     OW 6043   5.951   0.674   0.902  0.1170 -0.3843 -0.0994
 1715SOL    HW1 6044   6.030   0.732   0.881 -0.4620  0.7149  0.6307
 1715SOL    HW2 6045   5.982   0.583   0.930  1.0450 -0.4510 -1.3051
 1716SOL     OW 6046   4.737   6.421   2.717  0.2488 -0.0349 -0.1869
 1716SOL    HW1 6047   4.689   6.333   2.712  0.9796 -0.3849 -1.1304
 1716SOL    HW2 6048   4.676   6.489   2.758  0.1138 -1.2699  1.8280
 1717SOL     OW 6049   1.836   6.700   0.759 -0.2220 -0.5930 -0.5126
 1717SOL    HW1 6050   1.837   6.790   0.714  1.7056 -1.3887 -2.2214
 1717SOL    HW2 6051   1.746   6.684   0.799 -1.9794  0.4351 -3.6629
 1718SOL     OW 6052   6.702   3.661   4.038 -0.1020 -0.3080 -0.3703
 1718SOL    HW1 6053   6.665   3.607   3.963  1.2915 -2.8581  0.6604
 1718SOL    HW2 6054   6.668   3.626   4.125 -0.8933  1.9471  0.3042
 1719SOL     OW 6055   2.466   3.548   0.656  0.3499 -0.1589  0.9075
 1719SOL    HW1 6056   2.445   3.572   0.751 -0.3549  0.2224  0.6591
 1719SOL    HW2 6057   2.480   3.449   0.649  0.6307 -0.1603  1.4498
 1720SOL     OW 6058   5.481   2.126   4.979  0.2025 -0.1871  0.3060
 1720SOL    HW1 6059   5.514   2.175   4.899  0.1097 -0.5293  0.0513
 1720SOL    HW2 6060   5.418   2.184   5.030  0.6629  0.2192  0.4161
 1721SOL     OW 6061   1.219   1.505   0.947 -0.2044  0.0356 -0.4641
 1721SOL    HW1 6062   1.130   1.548   0.934 -0.7494 -0.7576  0.5307
 1721SOL    HW2 6063   1.209   1.420   1.000  1.2508  0.4627  0.5779
 1722SOL     OW 6064   4.867   1.607   2.695 -0.4415  0.4456 -0.1376
 1722SOL    HW1 6065   4.964   1.602   2.718 -0.1941 -0.6592 -1.3162
 1722SOL    HW2 6066   4.843   1.702   2.673  0.4805  0.6521 -0.2979
 1723SOL     OW 6067   1.984   6.259   6.807  0.5303  0.0640  0.5319
 1723SOL    HW1 6068   2.049   6.275   6.882  1.3249 -0.1066 -0.1101
 1723SOL    HW2 6069   2.022   6.192   6.744 -0.2842 -0.0462  0.1496
 1724SOL     OW 6070   0.642   1.003   2.038  0.3824  0.5056  0.8818
 1724SOL    HW1 6071   0.712   1.044   1.979  2.0201 -1.4317  1.3923
 1724SOL    HW2 6072   0.686   0.944   2.105 -1.7744 -0.8286  1.1878
 1725SOL     OW 6073   2.648   4.085   0.940  0.2978 -0.0819 -0.2198
 1725SOL    HW1 6074   2.706   4.125   0.869  2.2811  1.0964  1.9681
 1725SOL    HW2 6075   2.593   4.156   0.983  0.6451 -0.3998  0.7860
 1726SOL     OW 6076   1.984   6.278   1.502 -0.1888  0.0370 -0.1312
 1726SOL    HW1 6077   1.903   6.260   1.446 -2.1627  0.9239  2.2485
 1726SOL    HW2 6078   2.014   6.372   1.488 -0.2123  0.0271 -0.2511
 1727SOL     OW 6079   3.680   3.740   3.325  0.5346 -0.3829  0.2312
 1727SOL    HW1 6080   3.688   3.641   3.312 -2.1626 -0.2779 -3.9426
 1727SOL    HW2 6081   3.763   3.784   3.291  0.1508 -1.0752 -1.6938
 1728SOL     OW 6082   2.425   4.684   5.331 -0.2137  0.3477  0.4330
 1728SOL    HW1 6083   2.397   4.778   5.348 -1.7757  0.0606 -0.3994
 1728SOL    HW2 6084   2.525   4.679   5.333 -0.0952  2.0083  0.5067
 1729SOL     OW 6085   4.861   6.671   0.307  0.2210 -0.1503  0.4323
 1729SOL    HW1 6086   4.932   6.607   0.336 -0.6261 -0.5499  1.7028
 1729SOL    HW2 6087   4.882   6.705   0.215  1.3954 -1.1985  0.2886
 1730SOL     OW 6088   5.055   1.302   3.962  0.3748  0.1627  0.2399
 1730SOL    HW1 6089   4.961   1.297   3.998  0.1789 -0.0661 -0.2918
 1730SOL    HW2 6090   5.107   1.369   4.015 -0.0724  0.2534  0.5760
 1731SOL     OW 6091   0.209   2.204   4.982  0.4965 -0.1835 -0.6175
 1731SOL    HW1 6092   0.116   2.205   5.020 -0.0450 -3.1756 -1.5668
 1731SOL    HW2 6093   0.270   2.254   5.043 -1.1532 -0.9017  1.7958
 1732SOL     OW 6094   5.891   2.183   4.089 -0.5629  0.1121 -0.2494
 1732SOL    HW1 6095   5.910   2.087   4.111 -0.8102 -0.5126 -2.4392
 1732SOL    HW2 6096   5.976   2.235   4.093 -0.0847 -0.5999 -0.7413
 1733SOL     OW 6097   1.585   3.931   5.199  0.0285  0.2089 -0.2092
 1733SOL    HW1 6098   1.604   3.969   5.289 -0.1888 -1.3693  0.5180
 1733SOL    HW2 6099   1.489   3.947   5.175 -0.1361 -0.1374  0.2202
 1734SOL     OW 6100   6.166   6.181   1.070  0.5432 -0.0484 -0.4423
 1734SOL    HW1 6101   6.126   6.199   1.160  1.9217 -0.7878  0.3522
 1734SOL    HW2 6102   6.114   6.109   1.024  0.7377 -0.7568  0.4200
 1735SOL     OW 6103   4.722   0.918   6.394  0.5190 -0.1204 -0.1922
 1735SOL    HW1 6104   4.632   0.878   6.378  0.8300 -0.7776 -0.3453
 1735SOL    HW2 6105   4.731   0.943   6.491  0.3753 -0.5716 -0.0611
 1736SOL     OW 6106   0.806   4.418   6.760  0.0762  0.1023  0.3306
 1736SOL    HW1 6107   0.801   4.368   6.846  1.2511 -0.5706  0.0217
 1736SOL    HW2 6108   0.791   4.355   6.684  0.9498  0.3313 -0.0388
 1737SOL     OW 6109   2.435   1.035   2.639  0.2109 -0.0658 -0.4297
 1737SOL    HW1 6110   2.388   1.123   2.641 -0.3102 -0.3548  0.9178
 1737SOL    HW2 6111   2.500   1.030   2.716  2.0834  0.1063 -1.9149
 1738SOL     OW 6112   6.797   5.891   6.598 -0.7103  0.4059  0.1413
 1738SOL    HW1 6113   6.828   5.829   6.671  1.6495  1.8945  0.4974
 1738SOL    HW2 6114   6.707   5.928   6.622 -0.6889 -0.3564  1.5189
 1739SOL     OW 6115   1.556   0.576   0.008  0.5448 -0.2234  0.3279
 1739SOL    HW1 6116   1.506   0.593   0.093 -0.2763  2.3362 -0.5807
 1739SOL    HW2 6117   1.591   0.482   0.009 -0.8458 -0.8190  2.7386
 1740SOL     OW 6118   5.796   3.546   6.866 -0.4928 -0.2576  0.3580
 1740SOL    HW1 6119   5.770   3.554   6.770 -0.8893  1.0289  0.5612
 1740SOL    HW2 6120   5.889   3.511   6.872  0.0063  0.8401 -0.5442
 1741SOL     OW 6121   5.735   1.349   6.511  0.4394  0.0381  0.1800
 1741SOL    HW1 6122   5.785   1.277   6.560  0.4454  0.7754  1.2860
 1741SOL    HW2 6123   5.756   1.342   6.414 -0.2826 -2.0344  0.1166
 1742SOL     OW 6124   0.908   0.435   5.148 -0.6065  0.2806 -0.4188
 1742SOL    HW1 6125   0.912   0.346   5.194 -0.0320  0.8952  0.7697
 1742SOL    HW2 6126   0.815   0.471   5.153 -1.0424 -0.6093 -1.6468
 1743SOL     OW 6127   2.464   0.436   0.084  0.3472 -0.1000 -0.0160
 1743SOL    HW1 6128   2.545   0.441   0.026  1.1602  0.9524  1.1530
 1743SOL    HW2 6129   2.412   0.521   0.074  0.2290 -0.1204  0.4156
 1744SOL     OW 6130   0.831   6.853   1.567  0.8076 -0.1172 -0.1101
 1744SOL    HW1 6131   0.834   6.946   1.603 -0.3913  0.5427 -1.6441
 1744SOL    HW2 6132   0.742   6.812   1.589 -0.1430  0.4624 -2.5831
 1745SOL     OW 6133   3.588   6.273   4.779 -0.1874 -0.3081  0.0503
 1745SOL    HW1 6134   3.620   6.259   4.872  0.7993  0.4710 -0.1529
 1745SOL    HW2 6135   3.666   6.292   4.719 -0.6074 -2.3738 -1.2680
 1746SOL     OW 6136   3.292   2.417   6.287  0.4002  0.0831  0.1173
 1746SOL    HW1 6137   3.333   2.482   6.223  1.6132  1.7050  2.3946
 1746SOL    HW2 6138   3.364   2.372   6.340 -0.4760 -2.5637 -0.7872
 1747SOL     OW 6139   3.095   5.355   2.751  0.1938  0.5265 -0.0979
 1747SOL    HW1 6140   3.129   5.339   2.658  0.2173  1.0528 -0.1803
 1747SOL    HW2 6141   3.170   5.350   2.816  0.1428 -0.0638 -0.0794
 1748SOL     OW 6142   6.691   0.470   2.932 -0.1078 -0.2965  0.1886
 1748SOL    HW1 6143   6.739   0.384   2.951 -0.4223 -0.6382 -0.5163
 1748SOL    HW2 6144   6.758   0.543   2.917  0.3524 -1.2313 -3.0380
 1749SOL     OW 6145   2.603   2.423   4.322  0.4455 -0.1610 -0.0445
 1749SOL    HW1 6146   2.534   2.359   4.290  0.3414  0.8162 -1.9416
 1749SOL    HW2 6147   2.562   2.488   4.385  0.5426 -1.8566  1.8594
 1750SOL     OW 6148   4.571   6.195   0.437 -0.0612  0.2931  0.3801
 1750SOL    HW1 6149   4.536   6.281   0.399 -1.2233  0.5725  1.9828
 1750SOL    HW2 6150   4.628   6.150   0.369  1.2671  2.7078 -0.2208
 1751SOL     OW 6151   5.902   6.856   2.236  0.4000 -0.0890 -0.6926
 1751SOL    HW1 6152   5.900   6.826   2.332  1.2045  0.8701 -0.3649
 1751SOL    HW2 6153   5.903   6.956   2.232 -2.4378  0.0048 -1.7714
 1752SOL     OW 6154   1.750   5.656   3.361  0.0904 -0.4438  0.2780
 1752SOL    HW1 6155   1.812   5.704   3.423  0.8594 -1.3355  0.2020
 1752SOL    HW2 6156   1.719   5.571   3.404 -0.4479 -0.3964 -0.0108
 1753SOL     OW 6157   1.763   5.313   2.119  0.3163 -0.1284 -0.5000
 1753SOL    HW1 6158   1.668   5.346   2.114  0.1149 -0.6483 -0.1698
 1753SOL    HW2 6159   1.797   5.298   2.026  0.6973  1.7699 -0.7201
 1754SOL     OW 6160   6.087   3.911   6.690  0.4979 -0.1555  0.0266
 1754SOL    HW1 6161   6.094   3.877   6.784  0.1171 -0.9177 -0.2116
 1754SOL    HW2 6162   6.025   3.853   6.638 -0.9165  1.4738 -0.1696
 1755SOL     OW 6163   0.008   4.709   6.648 -0.2594 -0.1000  0.4318
 1755SOL    HW1 6164  -0.040   4.730   6.563  1.5120 -1.4794 -1.0079
 1755SOL    HW2 6165   0.084   4.774   6.661 -0.6029  0.1891  1.0490
 1756SOL     OW 6166   6.019   4.121   5.172 -0.3164  0.6858 -0.5342
 1756SOL    HW1 6167   6.091   4.166   5.120 -0.6938  2.3680  0.3480
 1756SOL    HW2 6168   6.031   4.140   5.269 -1.3907  0.1676 -0.2839
 1757SOL     OW 6169   0.559   3.641   2.550  0.2463  0.4630  0.6229
 1757SOL    HW1 6170   0.497   3.671   2.623 -1.5302 -0.7227 -0.3498
 1757SOL    HW2 6171   0.560   3.710   2.477 -1.2601 -0.2442 -0.1055
 1758SOL     OW 6172   2.112   1.905   0.295  0.1044 -0.5833  0.7715
 1758SOL    HW1 6173   2.040   1.956   0.341 -0.6472  0.0727 -1.0393
 1758SOL    HW2 6174   2.072   1.834   0.237  0.9301 -0.5163  0.0858
 1759SOL     OW 6175   2.383   0.329   5.126  0.0811  0.1307  0.4564
 1759SOL    HW1 6176   2.475   0.289   5.126  0.0677  0.0473 -1.1283
 1759SOL    HW2 6177   2.374   0.392   5.203  1.1212 -0.6042  1.2160
 1760SOL     OW 6178   5.376   0.591   3.285  0.0762  0.4005  0.3986
 1760SOL    HW1 6179   5.435   0.653   3.234 -0.7540  1.0557  0.2342
 1760SOL    HW2 6180   5.317   0.541   3.222  1.8074 -1.7895  0.3396
 1761SOL     OW 6181   0.391   0.955   3.407  0.1344  0.5418  0.0370
 1761SOL    HW1 6182   0.480   0.998   3.421  0.6702 -0.6021  0.1982
 1761SOL    HW2 6183   0.397   0.886   3.335 -0.7704  0.8727 -0.3778
 1762SOL     OW 6184   2.623   0.368   0.806 -0.0904  0.1190  0.4700
 1762SOL    HW1 6185   2.714   0.385   0.770 -0.5363 -0.0775 -0.7818
 1762SOL    HW2 6186   2.557   0.428   0.762 -0.4084  1.2424  2.3443
 1763SOL     OW 6187   2.030   2.282   4.061 -0.0543 -0.5027  0.1405
 1763SOL    HW1 6188   2.010   2.216   3.989 -2.0729 -0.9096  0.9935
 1763SOL    HW2 6189   2.001   2.373   4.031  1.3626 -0.2372 -0.4693
 1764SOL     OW 6190   2.696   5.457   5.747  0.0042  0.3481  0.3980
 1764SOL    HW1 6191   2.611   5.504   5.773 -0.2073 -0.2077  0.7334
 1764SOL    HW2 6192   2.684   5.358   5.757  0.2506  0.1737 -0.8619
 1765SOL     OW 6193   6.077   6.640   2.094 -0.2064 -0.4423  0.1316
 1765SOL    HW1 6194   6.154   6.615   2.153 -0.2841 -1.6345 -0.2312
 1765SOL    HW2 6195   6.008   6.689   2.148  1.0097  1.0980  0.3457
 1766SOL     OW 6196   4.426   4.809   5.534 -0.3089 -0.1758 -0.0322
 1766SOL    HW1 6197   4.490   4.862   5.590 -2.4011  1.0155  1.3601
 1766SOL    HW2 6198   4.405   4.723   5.581  1.5057 -1.3880 -1.3146
 1767SOL     OW 6199   3.193   1.013   2.419  0.1960 -0.3672 -0.0204
 1767SOL    HW1 6200   3.245   1.083   2.369 -0.9323  0.3056 -0.2774
 1767SOL    HW2 6201   3.229   1.006   2.512  0.5966  0.2490 -0.1200
 1768SOL     OW 6202   2.719   5.564   4.762  0.1350  0.2875 -0.4642
 1768SOL    HW1 6203   2.620   5.575   4.758  0.1931  1.8062  0.9033
 1768SOL    HW2 6204   2.744   5.517   4.847  0.6201  0.2365 -0.6285
 1769SOL     OW 6205   3.444   5.716   6.548 -0.4927 -0.1095  0.2956
 1769SOL    HW1 6206   3.405   5.626   6.569  0.2990 -0.3095  0.9707
 1769SOL    HW2 6207   3.520   5.734   6.610  0.4946  0.2636 -0.9941
 1770SOL     OW 6208   1.997   2.516   0.283 -0.2328 -0.0796 -0.9036
 1770SOL    HW1 6209   2.006   2.615   0.285 -1.2827  0.0089  0.1825
 1770SOL    HW2 6210   2.087   2.474   0.299 -0.0391  0.6992  0.1024
 1771SOL     OW 6211   5.185   3.149   6.963 -0.1144  0.0171 -0.1584
 1771SOL    HW1 6212   5.267   3.096   6.982 -1.2034 -2.1548 -1.1387
 1771SOL    HW2 6213   5.204   3.246   6.975  2.9258 -0.3094 -1.4912
 1772SOL     OW 6214   4.728   0.578   3.684  0.0254  0.2794  0.0517
 1772SOL    HW1 6215   4.647   0.634   3.672 -0.7448 -0.6243  0.8646
 1772SOL    HW2 6216   4.727   0.502   3.619 -0.4671 -0.4685  0.8984
 1773SOL     OW 6217   1.890   2.375   6.214 -0.8162 -0.1294  0.7380
 1773SOL    HW1 6218   1.827   2.430   6.159 -0.2711 -1.0871 -0.9074
 1773SOL    HW2 6219   1.984   2.389   6.181 -0.7443 -2.6289 -0.2972
 1774SOL     OW 6220   5.141   3.216   4.793 -0.0986  0.6862  0.6860
 1774SOL    HW1 6221   5.165   3.212   4.696  1.8478  1.6350  1.0769
 1774SOL    HW2 6222   5.224   3.223   4.847 -1.2177  3.7552  2.2223
 1775SOL     OW 6223   5.774   4.093   4.529 -0.7346 -0.0123 -0.1968
 1775SOL    HW1 6224   5.719   4.161   4.480 -0.0753  0.7107  0.0385
 1775SOL    HW2 6225   5.854   4.069   4.473 -1.2454 -1.0225 -0.5187
 1776SOL     OW 6226   6.892   3.730   4.366 -0.1142  0.1368 -0.1421
 1776SOL    HW1 6227   6.938   3.785   4.436 -0.4494 -0.3443  0.4531
 1776SOL    HW2 6228   6.845   3.791   4.302  2.0141  0.7196 -1.2796
 1777SOL     OW 6229   4.735   6.788   2.486  1.0211  0.3033 -0.4692
 1777SOL    HW1 6230   4.779   6.699   2.471  1.1858  0.2079  0.5139
 1777SOL    HW2 6231   4.647   6.774   2.533  0.5874  0.5973 -1.1720
 1778SOL     OW 6232   0.097   2.034   4.700  0.1692 -0.5747 -0.2892
 1778SOL    HW1 6233   0.112   1.960   4.766  1.8756 -0.0437 -0.0388
 1778SOL    HW2 6234   0.165   2.106   4.715  0.0171 -0.0292 -2.0622
 1779SOL     OW 6235   3.119   5.091   4.545  0.3182 -0.3610  0.0177
 1779SOL    HW1 6236   3.154   5.166   4.489 -0.8278 -0.2677 -0.6011
 1779SOL    HW2 6237   3.098   5.124   4.637  0.1203  0.0009 -0.1587
 1780SOL     OW 6238   4.472   2.438   2.805  0.3765  0.6083  0.4794
 1780SOL    HW1 6239   4.469   2.433   2.705  2.8593  0.8377  0.3301
 1780SOL    HW2 6240   4.528   2.516   2.833 -0.5276  0.7374  2.0894
 1781SOL     OW 6241   0.113   2.368   2.908  0.0443 -0.5070 -0.2747
 1781SOL    HW1 6242   0.124   2.462   2.939  0.2914 -0.5696 -0.1736
 1781SOL    HW2 6243   0.020   2.337   2.930  0.5586 -0.9343  1.4756
 1782SOL     OW 6244   6.259   3.885   4.885  0.1666 -0.1889 -0.4351
 1782SOL    HW1 6245   6.170   3.842   4.899  0.5603 -1.0103 -0.3975
 1782SOL    HW2 6246   6.318   3.823   4.834  0.8564  0.1735 -0.0882
 1783SOL     OW 6247   4.298   6.819   6.202 -0.5190 -0.4832  0.2514
 1783SOL    HW1 6248   4.201   6.835   6.222 -0.1916  1.8231  0.2726
 1783SOL    HW2 6249   4.309   6.800   6.104 -0.7398  2.6623 -0.4839
 1784SOL     OW 6250   3.694   6.258   5.019 -0.1494  0.1289 -0.1814
 1784SOL    HW1 6251   3.645   6.191   5.075  0.5758 -0.5015 -0.2782
 1784SOL    HW2 6252   3.793   6.244   5.029  0.0521  1.7798  0.5103
 1785SOL     OW 6253   0.793   6.020   6.226 -0.1292 -0.4372 -0.1941
 1785SOL    HW1 6254   0.721   6.069   6.177 -1.0862 -2.3738 -0.8487
 1785SOL    HW2 6255   0.751   5.958   6.293  1.0756  0.4128  1.4073
 1786SOL     OW 6256   3.300   6.963   5.962 -0.0487 -0.6262  0.1942
 1786SOL    HW1 6257   3.386   6.916   5.983  0.7421  0.5512 -0.3084
 1786SOL    HW2 6258   3.311   7.015   5.877 -1.2363 -0.3788  0.1819
 1787SOL     OW 6259   2.175   5.627   5.440 -0.3023  0.3083  0.6843
 1787SOL    HW1 6260   2.084   5.661   5.415 -0.8572 -0.8721  1.0008
 1787SOL    HW2 6261   2.178   5.528   5.426  1.0684  0.3804  0.3183
 1788SOL     OW 6262   4.513   2.229   4.990 -0.5746 -0.4271  0.0367
 1788SOL    HW1 6263   4.454   2.268   4.919  0.8059  0.5662 -0.6309
 1788SOL    HW2 6264   4.458   2.201   5.068 -1.7332  3.0131  0.6597
 1789SOL     OW 6265   3.067   0.325   2.117 -0.4308 -0.3702  0.4908
 1789SOL    HW1 6266   3.009   0.404   2.138 -0.2880 -0.5537  1.6767
 1789SOL    HW2 6267   3.085   0.322   2.019 -1.8067  0.1203  0.1893
 1790SOL     OW 6268   3.273   1.941   5.661  0.2725  0.8820  0.0037
 1790SOL    HW1 6269   3.192   1.993   5.687 -0.6989  0.0664 -1.2518
 1790SOL    HW2 6270   3.277   1.933   5.561  1.2147 -0.1729  0.1047
 1791SOL     OW 6271   2.720   0.710   2.173 -0.0267  0.6401  0.3890
 1791SOL    HW1 6272   2.805   0.669   2.207 -0.6227 -0.3106  0.7839
 1791SOL    HW2 6273   2.721   0.711   2.073 -0.2167 -0.8631  0.3496
 1792SOL     OW 6274   4.311   1.586   5.893  0.1828 -0.2636 -0.1347
 1792SOL    HW1 6275   4.299   1.619   5.987 -1.0335 -1.7549  0.2768
 1792SOL    HW2 6276   4.327   1.487   5.895  2.0142 -0.0474 -1.4214
 1793SOL     OW 6277   0.313   5.853   0.303 -0.8347 -0.8597  0.4342
 1793SOL    HW1 6278   0.378   5.865   0.377  0.3701  0.0579 -0.7126
 1793SOL    HW2 6279   0.345   5.782   0.241 -1.1949 -0.7741  0.1396
 1794SOL     OW 6280   0.380   4.372   5.072 -0.3834 -0.2239 -0.1373
 1794SOL    HW1 6281   0.309   4.307   5.099 -1.4596  0.7514 -0.5662
 1794SOL    HW2 6282   0.381   4.379   4.972 -1.2689  1.4932 -0.0468
 1795SOL     OW 6283   5.851   0.283   2.467 -0.3412  0.0577 -0.5683
 1795SOL    HW1 6284   5.809   0.246   2.384 -0.0926 -1.6093  0.0168
 1795SOL    HW2 6285   5.932   0.229   2.490  0.0616  1.0183  0.3088
 1796SOL     OW 6286   0.624   5.197   2.432  0.1817 -0.4522 -0.2944
 1796SOL    HW1 6287   0.715   5.194   2.390  1.0972 -0.2448  1.5558
 1796SOL    HW2 6288   0.608   5.113   2.484  1.8301  1.6346  4.1152
 1797SOL     OW 6289   6.785   1.969   5.326  0.0724  0.1329  0.5444
 1797SOL    HW1 6290   6.774   2.030   5.247 -0.9268 -0.9999 -0.2250
 1797SOL    HW2 6291   6.794   2.024   5.409 -3.3614  1.4149  0.2231
 1798SOL     OW 6292   2.515   3.147   5.917  0.2274  0.1739 -0.1991
 1798SOL    HW1 6293   2.427   3.135   5.871 -0.2553 -0.7558  0.9269
 1798SOL    HW2 6294   2.589   3.121   5.855 -0.4121 -1.0586 -0.4665
 1799SOL     OW 6295   0.748   6.907   2.247 -0.0278  0.7416  0.0961
 1799SOL    HW1 6296   0.808   6.954   2.181  0.0888 -0.3880 -0.6224
 1799SOL    HW2 6297   0.668   6.871   2.198  1.0282 -1.8634  0.1544
 1800SOL     OW 6298   2.522   6.126   4.327 -0.1496  0.4590  0.2871
 1800SOL    HW1 6299   2.446   6.116   4.391  0.2999  0.7667  0.8779
 1800SOL    HW2 6300   2.607   6.133   4.378  0.4971 -1.6305 -0.3814
 1801SOL     OW 6301   5.938   3.703   6.242 -0.2153 -0.3898 -0.4796
 1801SOL    HW1 6302   6.036   3.701   6.222 -0.0341  1.1592  0.1596
 1801SOL    HW2 6303   5.924   3.706   6.341 -0.8959 -0.1982 -0.5771
 1802SOL     OW 6304   1.075   1.078   6.560  0.0767 -0.0273  0.2882
 1802SOL    HW1 6305   1.000   1.014   6.546  0.9943 -1.8481  2.8434
 1802SOL    HW2 6306   1.143   1.067   6.488 -0.2884 -1.1904  0.1016
 1803SOL     OW 6307   4.105   0.885   5.183  0.4481  0.4000  0.2730
 1803SOL    HW1 6308   4.193   0.855   5.220  0.0350 -0.9448  0.2196
 1803SOL    HW2 6309   4.107   0.882   5.083 -0.1179 -1.1041  0.2837
 1804SOL     OW 6310   3.750   2.872   4.987 -0.2329  0.9314 -0.2799
 1804SOL    HW1 6311   3.752   2.912   4.895  2.2871  1.9167  0.1155
 1804SOL    HW2 6312   3.743   2.772   4.980 -2.9701  1.1228 -1.3912
 1805SOL     OW 6313   2.771   3.599   6.963  0.5085 -0.0309 -0.1033
 1805SOL    HW1 6314   2.775   3.680   7.020 -1.4066 -0.1499  0.2743
 1805SOL    HW2 6315   2.749   3.625   6.869 -1.3107 -0.1522  0.2581
 1806SOL     OW 6316   0.392   5.506   2.242  0.3042 -0.1513  0.1233
 1806SOL    HW1 6317   0.448   5.588   2.228  0.2655 -0.3976 -1.7462
 1806SOL    HW2 6318   0.306   5.516   2.191  0.2813 -1.3204 -0.0963
 1807SOL     OW 6319   5.160   4.232   4.909 -0.7706  0.3373  0.5555
 1807SOL    HW1 6320   5.153   4.311   4.969  0.7216 -0.5726  1.9810
 1807SOL    HW2 6321   5.251   4.229   4.868 -0.4743 -1.1240  1.2555
 1808SOL     OW 6322   3.600   3.189   5.728  0.0678 -0.3992 -0.2419
 1808SOL    HW1 6323   3.616   3.253   5.653 -2.7896 -1.2090 -1.6889
 1808SOL    HW2 6324   3.633   3.099   5.702 -0.7934 -0.6475 -0.5380
 1809SOL     OW 6325   4.509   6.352   2.405 -0.0164  0.3565  0.2503
 1809SOL    HW1 6326   4.430   6.398   2.364  1.2966  1.1873 -1.4841
 1809SOL    HW2 6327   4.545   6.408   2.480  0.6842  1.5477 -0.9041
 1810SOL     OW 6328   1.865   6.524   5.208 -0.2308  0.2563 -0.0767
 1810SOL    HW1 6329   1.947   6.496   5.257  0.0807 -0.4993 -0.9915
 1810SOL    HW2 6330   1.787   6.469   5.239  0.1087 -0.7243 -0.9034
 1811SOL     OW 6331   0.803   0.192   0.165 -0.2489  0.7035  0.9967
 1811SOL    HW1 6332   0.807   0.275   0.111 -0.9937 -0.7816 -1.4840
 1811SOL    HW2 6333   0.881   0.133   0.142 -2.2128 -1.3237 -0.9861
 1812SOL     OW 6334   0.889   0.332   6.429  0.2383 -0.6616  0.1364
 1812SOL    HW1 6335   0.916   0.289   6.343  0.8875  1.9092 -1.0276
 1812SOL    HW2 6336   0.966   0.383   6.466 -0.7015  0.1114  1.0669
 1813SOL     OW 6337   0.985   6.610   2.727 -0.1405  0.1391 -0.1838
 1813SOL    HW1 6338   0.952   6.694   2.684 -0.4942 -0.0292 -0.2446
 1813SOL    HW2 6339   1.084   6.603   2.715 -0.3295 -0.2585 -1.5817
 1814SOL     OW 6340   6.642   0.193   6.988 -0.3784 -0.4528  0.2766
 1814SOL    HW1 6341   6.628   0.288   7.016 -1.2642 -0.5295  0.1428
 1814SOL    HW2 6342   6.654   0.136   7.069  0.3041 -0.2096  0.3523
 1815SOL     OW 6343   2.729   4.686   1.512  0.2672  0.1330 -0.5058
 1815SOL    HW1 6344   2.692   4.605   1.558  1.4294 -0.5157 -0.6545
 1815SOL    HW2 6345   2.655   4.742   1.478 -0.6980  0.8604  2.4941
 1816SOL     OW 6346   2.634   6.793   1.067 -0.9498 -0.3989  0.8681
 1816SOL    HW1 6347   2.692   6.785   0.986 -1.0233 -2.3616  0.9760
 1816SOL    HW2 6348   2.575   6.874   1.058 -0.6697 -0.3584 -0.8472
 1817SOL     OW 6349   4.442   6.715   0.132 -0.0985  0.0925  0.2620
 1817SOL    HW1 6350   4.361   6.665   0.163  0.6786 -0.8000  0.8892
 1817SOL    HW2 6351   4.423   6.756   0.042 -1.5897  0.7705  0.8503
 1818SOL     OW 6352   0.116   5.260   1.936  0.6047  0.2475 -0.8095
 1818SOL    HW1 6353   0.127   5.353   1.971 -0.3768  0.5585 -1.2951
 1818SOL    HW2 6354   0.028   5.252   1.888  1.5559 -0.3883 -2.5230
 1819SOL     OW 6355   2.739   1.232   3.739 -0.4874  0.6934 -0.4131
 1819SOL    HW1 6356   2.805   1.175   3.691 -1.3211 -0.9883  0.3831
 1819SOL    HW2 6357   2.647   1.215   3.703 -0.9470  0.3792  0.8719
 1820SOL     OW 6358   3.808   5.745   6.664  0.1005 -0.0170 -0.4547
 1820SOL    HW1 6359   3.884   5.767   6.603 -0.0351  2.1776  0.1050
 1820SOL    HW2 6360   3.801   5.813   6.736 -3.2388  0.7144 -1.2869
 1821SOL     OW 6361   7.000   1.711   2.895 -0.2180 -0.1798  0.3402
 1821SOL    HW1 6362   6.959   1.801   2.898 -0.7709 -0.3165 -1.7676
 1821SOL    HW2 6363   6.932   1.644   2.866  0.7375 -0.8938 -0.3092
 1822SOL     OW 6364   5.707   6.277   1.604  0.1899  0.3577  0.4512
 1822SOL    HW1 6365   5.746   6.195   1.564  0.1003  0.5194  0.0248
 1822SOL    HW2 6366   5.764   6.308   1.680  1.1123  0.8093 -0.4020
 1823SOL     OW 6367   4.758   5.168   5.549  0.3357  0.0507 -0.8331
 1823SOL    HW1 6368   4.825   5.201   5.615  0.0690 -0.5280 -0.2518
 1823SOL    HW2 6369   4.802   5.104   5.485  0.1626 -1.1195  0.1686
 1824SOL     OW 6370   5.350   1.903   5.235  0.2212 -0.1077 -0.3607
 1824SOL    HW1 6371   5.434   1.951   5.257  1.2028 -1.3071 -1.3340
 1824SOL    HW2 6372   5.356   1.808   5.267 -1.6378  0.3050  1.4618
 1825SOL     OW 6373   0.233   6.684   1.151 -0.2864 -0.2849  0.5560
 1825SOL    HW1 6374   0.233   6.685   1.251 -0.1245  0.8003  0.5569
 1825SOL    HW2 6375   0.323   6.712   1.117 -0.9224  1.3338  0.1220
 1826SOL     OW 6376   6.952   3.733   1.182 -0.5155 -0.1496 -0.0555
 1826SOL    HW1 6377   6.964   3.830   1.159  0.5300  0.0393  1.1308
 1826SOL    HW2 6378   7.041   3.693   1.202 -0.9589 -1.3322 -0.3841
 1827SOL     OW 6379   1.494   3.596   4.115  0.1756  0.7957  0.5372
 1827SOL    HW1 6380   1.590   3.577   4.095  0.5363  1.7953  1.2448
 1827SOL    HW2 6381   1.445   3.616   4.030  0.0984 -1.6744 -0.0892
 1828SOL     OW 6382   2.869   1.109   4.601 -0.1178 -0.2425 -0.1461
 1828SOL    HW1 6383   2.871   1.129   4.503 -1.0487 -1.6832 -0.4849
 1828SOL    HW2 6384   2.833   1.017   4.616  0.2194 -0.1334  1.5480
 1829SOL     OW 6385   1.579   4.477   2.403  0.5061 -0.2260 -0.1914
 1829SOL    HW1 6386   1.676   4.470   2.383  0.6492  1.0724  0.0195
 1829SOL    HW2 6387   1.564   4.457   2.500  0.4790 -0.9307 -0.3284
 1830SOL     OW 6388   1.273   2.670   4.236  0.2545  0.3096 -0.2123
 1830SOL    HW1 6389   1.206   2.676   4.162 -0.6914 -0.8240  0.5309
 1830SOL    HW2 6390   1.365   2.668   4.197 -0.2641 -1.9175 -1.5136
 1831SOL     OW 6391   6.227   1.750   5.054  0.7367  0.4436 -0.9239
 1831SOL    HW1 6392   6.305   1.689   5.065  0.0730 -0.2770 -0.0966
 1831SOL    HW2 6393   6.231   1.822   5.124 -0.4110 -0.7872  0.4536
 1832SOL     OW 6394   2.389   0.631   4.841  0.1305  0.2168 -0.3146
 1832SOL    HW1 6395   2.409   0.719   4.799  1.8421  0.2319  0.4392
 1832SOL    HW2 6396   2.440   0.559   4.793 -0.8966 -0.3308 -0.6365
 1833SOL     OW 6397   0.130   6.181   0.021  1.0306  0.3542 -0.1954
 1833SOL    HW1 6398   0.096   6.090   0.045  3.5221 -1.3940 -2.6729
 1833SOL    HW2 6399   0.079   6.215  -0.059  1.4554  0.2128 -0.5262
 1834SOL     OW 6400   5.075   3.629   0.915 -0.4392 -0.1103  0.3900
 1834SOL    HW1 6401   5.029   3.542   0.903  0.2492 -0.4995  0.5377
 1834SOL    HW2 6402   5.172   3.614   0.935 -0.3729  0.6771  0.7158
 1835SOL     OW 6403   6.627   3.099   3.342  0.2631  0.1283 -0.6181
 1835SOL    HW1 6404   6.657   3.070   3.251 -1.6715 -0.6442 -1.0484
 1835SOL    HW2 6405   6.529   3.082   3.352  0.0337  2.0106  0.9211
 1836SOL     OW 6406   5.820   2.552   1.397 -0.0693 -0.2596  0.0567
 1836SOL    HW1 6407   5.885   2.505   1.457  1.2519  1.4419  0.0279
 1836SOL    HW2 6408   5.736   2.570   1.447  0.1715 -0.8438  0.6936
 1837SOL     OW 6409   0.424   4.990   5.793  0.1501  0.7839 -0.0584
 1837SOL    HW1 6410   0.443   4.989   5.694 -0.2356  0.3568 -0.1291
 1837SOL    HW2 6411   0.506   4.962   5.842  0.0732  0.1216 -0.3047
 1838SOL     OW 6412   0.155   1.394   3.273  0.1309 -0.0074 -0.2289
 1838SOL    HW1 6413   0.119   1.438   3.356  4.6207 -1.5906  2.9346
 1838SOL    HW2 6414   0.159   1.295   3.287  2.0636 -0.2115 -1.8686
 1839SOL     OW 6415   4.857   5.896   0.964  0.2474 -0.4476 -0.8464
 1839SOL    HW1 6416   4.758   5.904   0.954  0.4825  0.5173 -2.8827
 1839SOL    HW2 6417   4.896   5.988   0.976  1.0034 -0.6896 -1.4265
 1840SOL     OW 6418   1.704   3.483   3.378 -0.5744  0.3698  0.0665
 1840SOL    HW1 6419   1.674   3.502   3.285  1.0709  0.7686 -0.4133
 1840SOL    HW2 6420   1.757   3.560   3.413  0.0185 -0.3583  0.8100
 1841SOL     OW 6421   5.153   4.932   6.687 -0.0202  0.1855  0.4198
 1841SOL    HW1 6422   5.129   4.924   6.783  0.1544  3.9171  0.9436
 1841SOL    HW2 6423   5.248   4.962   6.678 -0.3780  1.1081 -0.7816
 1842SOL     OW 6424   6.434   3.948   0.238  0.0585 -0.0607  0.9071
 1842SOL    HW1 6425   6.383   4.008   0.176 -0.2661 -0.4801  0.7596
 1842SOL    HW2 6426   6.531   3.973   0.236  0.2577 -0.7976 -0.6700
 1843SOL     OW 6427   1.367   6.267   3.358 -0.1838  0.4943 -0.0205
 1843SOL    HW1 6428   1.459   6.238   3.382 -1.2065 -2.7113  0.5533
 1843SOL    HW2 6429   1.365   6.298   3.263  1.6780  1.9555  0.3683
 1844SOL     OW 6430   2.794   6.800   4.614 -0.8156 -0.4371 -0.6869
 1844SOL    HW1 6431   2.738   6.749   4.549  0.7192 -3.7374  0.3645
 1844SOL    HW2 6432   2.880   6.828   4.570 -0.9992 -0.1168 -0.8437
 1845SOL     OW 6433   0.769   0.926   3.323 -0.0707 -0.1324 -0.5886
 1845SOL    HW1 6434   0.718   1.005   3.356  0.3129 -0.3791  0.6611
 1845SOL    HW2 6435   0.815   0.948   3.237  1.6543  1.6758  0.7178
 1846SOL     OW 6436   1.531   2.986   2.802 -0.1584 -0.2218  0.1769
 1846SOL    HW1 6437   1.515   2.925   2.724  0.8254 -0.4436  0.1285
 1846SOL    HW2 6438   1.461   3.057   2.804  0.2106  0.2174 -1.3385
 1847SOL     OW 6439   4.165   2.124   0.949  0.0000  0.2694 -0.5565
 1847SOL    HW1 6440   4.120   2.206   0.986 -0.6701 -0.4274  0.2188
 1847SOL    HW2 6441   4.112   2.043   0.973  0.3410 -0.3547 -1.8275
 1848SOL     OW 6442   7.012   0.266   5.445  0.0789  0.1571 -0.0838
 1848SOL    HW1 6443   7.098   0.314   5.463 -0.2351  0.6018  0.2731
 1848SOL    HW2 6444   6.991   0.206   5.522  0.2863 -0.2740 -0.3641
 1849SOL     OW 6445   5.429   1.555   6.583 -0.2492  0.8451  0.0350
 1849SOL    HW1 6446   5.420   1.602   6.670  1.6695  1.2402  0.0603
 1849SOL    HW2 6447   5.425   1.456   6.598  0.1312  0.9106  0.6007
 1850SOL     OW 6448   5.842   2.013   2.781 -1.1250  0.4724  0.1412
 1850SOL    HW1 6449   5.835   1.913   2.788 -1.2426  0.4645 -0.0868
 1850SOL    HW2 6450   5.821   2.041   2.688  0.0964  0.6128 -0.1040
 1851SOL     OW 6451   2.298   4.956   1.744  0.4696 -0.3085 -0.7046
 1851SOL    HW1 6452   2.282   4.866   1.787 -0.7183 -0.1819 -0.8443
 1851SOL    HW2 6453   2.225   4.974   1.678  0.0850  1.2345  0.1027
 1852SOL     OW 6454   4.105   3.687   3.871  0.3111 -0.2054  0.0297
 1852SOL    HW1 6455   4.186   3.723   3.824  0.6680  0.2822  1.0102
 1852SOL    HW2 6456   4.134   3.628   3.946 -0.2519 -0.2841  0.1836
 1853SOL     OW 6457   2.911   5.779   1.673 -0.3498 -0.1311 -0.4856
 1853SOL    HW1 6458   2.811   5.776   1.666 -0.4667  0.5512  0.6400
 1853SOL    HW2 6459   2.937   5.770   1.769  0.5331  2.8130 -0.3702
 1854SOL     OW 6460   4.675   5.181   0.913 -0.1570  0.0198  0.1127
 1854SOL    HW1 6461   4.668   5.139   0.822  1.3601  1.1136 -0.5637
 1854SOL    HW2 6462   4.772   5.197   0.935 -0.4612 -0.6859  2.1642
 1855SOL     OW 6463   5.693   6.902   4.016 -0.3729  0.1898  0.6603
 1855SOL    HW1 6464   5.694   6.831   4.086  0.7929  1.7341  2.3112
 1855SOL    HW2 6465   5.732   6.865   3.931  0.2354 -1.1333  1.4760
 1856SOL     OW 6466   0.351   1.162   1.315 -0.2752 -0.0396  0.2503
 1856SOL    HW1 6467   0.411   1.242   1.328  0.7478 -0.6061 -0.7672
 1856SOL    HW2 6468   0.261   1.181   1.354  0.5315  0.8753  1.7621
 1857SOL     OW 6469   0.777   4.412   1.140  0.1068  0.3753  0.1403
 1857SOL    HW1 6470   0.830   4.367   1.069 -1.6414  0.7111 -1.4489
 1857SOL    HW2 6471   0.766   4.509   1.117 -0.8695  0.3932  0.6341
 1858SOL     OW 6472   5.549   0.978   5.831 -0.0491  0.3407  0.1406
 1858SOL    HW1 6473   5.621   0.944   5.892 -1.6703 -0.8002  1.4969
 1858SOL    HW2 6474   5.498   1.051   5.877 -3.2286 -2.5331  1.5662
 1859SOL     OW 6475   2.571   1.141   5.026 -0.4415  0.3150 -0.6580
 1859SOL    HW1 6476   2.485   1.090   5.038  1.1181 -2.7417 -1.5085
 1859SOL    HW2 6477   2.614   1.154   5.116 -0.3323 -0.9653 -0.5000
 1860SOL     OW 6478   1.251   6.555   2.718  0.3385  0.3058 -0.2349
 1860SOL    HW1 6479   1.284   6.556   2.813 -0.1404 -0.1249 -0.0597
 1860SOL    HW2 6480   1.329   6.545   2.656  0.8217  2.2296  0.0185
 1861SOL     OW 6481   5.064   2.143   2.955  0.1038  0.1320 -0.4348
 1861SOL    HW1 6482   4.973   2.185   2.953  0.6416  1.3265 -0.1341
 1861SOL    HW2 6483   5.077   2.095   3.042 -1.1274 -2.1338 -1.4019
 1862SOL     OW 6484   1.468   2.049   5.825 -0.0571  0.6994 -0.3111
 1862SOL    HW1 6485   1.554   2.044   5.875 -0.6779 -1.0580  0.6958
 1862SOL    HW2 6486   1.392   2.055   5.890 -1.0417 -3.8559 -0.7146
 1863SOL     OW 6487   4.122   5.165   4.769  0.1273  0.1363 -0.3394
 1863SOL    HW1 6488   4.189   5.165   4.844  1.2115 -0.5065 -1.2691
 1863SOL    HW2 6489   4.098   5.260   4.746 -0.9784  0.3275  1.4394
 1864SOL     OW 6490   1.182   5.142   5.150 -0.3279  0.6474  0.4026
 1864SOL    HW1 6491   1.244   5.081   5.101  0.2269  1.2391  0.3621
 1864SOL    HW2 6492   1.150   5.096   5.234 -0.2285  0.1549  0.1749
 1865SOL     OW 6493   2.823   5.178   2.444  0.0914  0.1608 -0.2007
 1865SOL    HW1 6494   2.835   5.134   2.356 -1.3348  0.5536 -0.6220
 1865SOL    HW2 6495   2.736   5.228   2.445 -0.4151 -0.6569  1.7536
 1866SOL     OW 6496   0.443   4.168   4.438 -0.7354  0.1089 -0.0368
 1866SOL    HW1 6497   0.345   4.161   4.422 -0.9965  0.4902  1.2894
 1866SOL    HW2 6498   0.486   4.212   4.359 -1.9462  1.8398  0.1982
 1867SOL     OW 6499   2.785   4.129   0.708 -0.3731  0.0824  0.7934
 1867SOL    HW1 6500   2.868   4.073   0.708 -1.1594 -1.1443  1.2420
 1867SOL    HW2 6501   2.786   4.191   0.629  1.1983  0.4784  1.0986
 1868SOL     OW 6502   4.487   1.584   2.106 -0.0646 -0.4242 -0.2325
 1868SOL    HW1 6503   4.488   1.667   2.162 -1.2725  0.6243 -1.6706
 1868SOL    HW2 6504   4.578   1.568   2.068  0.4705 -0.4680  1.0331
 1869SOL     OW 6505   6.682   0.289   0.330 -0.4554 -0.6664 -0.2005
 1869SOL    HW1 6506   6.692   0.271   0.428 -1.2956  0.5518  0.1187
 1869SOL    HW2 6507   6.599   0.341   0.313 -0.6625 -1.4097 -1.6449
 1870SOL     OW 6508   1.030   4.711   3.448  0.4588 -0.7071  0.2082
 1870SOL    HW1 6509   1.108   4.718   3.511  0.4968 -0.4097  0.1326
 1870SOL    HW2 6510   0.962   4.779   3.473 -0.7301 -2.3250  1.5699
 1871SOL     OW 6511   6.590   5.732   1.482  0.3120 -0.3334  0.5960
 1871SOL    HW1 6512   6.649   5.681   1.419  2.6719  0.0061  2.3801
 1871SOL    HW2 6513   6.633   5.820   1.504 -1.7234  0.6915  0.7120
 1872SOL     OW 6514   3.474   5.564   1.365 -0.4436  0.0489  0.2280
 1872SOL    HW1 6515   3.388   5.571   1.415  1.0260 -0.2283  2.9909
 1872SOL    HW2 6516   3.472   5.483   1.306 -2.2431  0.4036 -0.2788
 1873SOL     OW 6517   5.431   6.752   5.671 -0.0593 -0.7594  0.0792
 1873SOL    HW1 6518   5.394   6.833   5.627 -0.8756 -1.2280 -0.1082
 1873SOL    HW2 6519   5.411   6.671   5.616 -0.0204 -1.1989  0.6964
 1874SOL     OW 6520   6.319   3.825   2.286  0.0459 -0.6802  0.3264
 1874SOL    HW1 6521   6.303   3.924   2.294 -0.2178 -0.8478  2.3540
 1874SOL    HW2 6522   6.401   3.809   2.230  0.6774  0.7385  0.7898
 1875SOL     OW 6523   2.894   0.868   2.699  0.4226  0.3552  0.4135
 1875SOL    HW1 6524   2.947   0.786   2.722  0.2120 -0.2256 -1.0435
 1875SOL    HW2 6525   2.798   0.843   2.685  0.1420  1.0504  0.9986
 1876SOL     OW 6526   2.114   1.785   4.826 -0.6355 -0.2443  0.5004
 1876SOL    HW1 6527   2.156   1.819   4.743  0.0888  0.7655  1.2525
 1876SOL    HW2 6528   2.120   1.685   4.829  0.3196 -0.2126 -0.1313
 1877SOL     OW 6529   4.110   1.899   3.615  0.3752 -0.3201  0.3449
 1877SOL    HW1 6530   4.051   1.980   3.619  0.2113 -0.4718  1.8080
 1877SOL    HW2 6531   4.169   1.904   3.535  0.0824  1.0487  0.1883
 1878SOL     OW 6532   2.384   5.201   0.401  0.0733  0.4528  0.5915
 1878SOL    HW1 6533   2.424   5.110   0.400 -0.7197  0.0914  0.8845
 1878SOL    HW2 6534   2.346   5.222   0.311  1.3845  1.0248  0.1428
 1879SOL     OW 6535   6.449   0.241   5.560  0.0934  0.1219  0.1314
 1879SOL    HW1 6536   6.546   0.255   5.582  0.3840 -2.2436  0.6525
 1879SOL    HW2 6537   6.411   0.325   5.520  2.1172  1.3751  0.6854
 1880SOL     OW 6538   6.155   6.590   1.656  0.3523  0.4463 -0.4010
 1880SOL    HW1 6539   6.166   6.538   1.740 -0.3479 -0.7348 -1.0028
 1880SOL    HW2 6540   6.211   6.673   1.659 -0.9809  1.3594  1.9500
 1881SOL     OW 6541   2.243   3.893   2.164 -0.3109 -0.3600 -0.3635
 1881SOL    HW1 6542   2.326   3.891   2.109 -0.1035 -0.6515 -0.0462
 1881SOL    HW2 6543   2.224   3.802   2.199  0.3918  0.0686  1.2583
 1882SOL     OW 6544   5.842   1.771   0.922  0.8768 -0.7359 -0.2249
 1882SOL    HW1 6545   5.876   1.861   0.894 -1.7010  1.3490  2.6370
 1882SOL    HW2 6546   5.892   1.741   1.004 -1.6962  0.8606  2.1096
 1883SOL     OW 6547   4.283   1.097   1.605 -0.3207 -0.3889 -0.0976
 1883SOL    HW1 6548   4.201   1.108   1.548 -0.3691  1.1633  0.2395
 1883SOL    HW2 6549   4.362   1.079   1.547 -0.5898 -0.1000 -0.5561
 1884SOL     OW 6550   4.430   5.067   4.034  0.6757 -0.0468  0.1906
 1884SOL    HW1 6551   4.337   5.068   3.996  0.7387  0.4491  0.0420
 1884SOL    HW2 6552   4.482   4.992   3.992  0.5498  0.0937 -0.2268
 1885SOL     OW 6553   5.041   5.502   0.266 -0.7784 -0.5130  0.0570
 1885SOL    HW1 6554   5.124   5.447   0.263 -0.3021  0.2063 -0.3745
 1885SOL    HW2 6555   5.022   5.529   0.360  0.2369  0.4186  0.0158
 1886SOL     OW 6556   0.539   3.664   6.656 -0.1000  0.1609 -0.0928
 1886SOL    HW1 6557   0.504   3.574   6.678 -1.6247  0.6921 -0.2484
 1886SOL    HW2 6558   0.505   3.692   6.566 -0.0045  1.0687  0.1426
 1887SOL     OW 6559   1.099   1.723   5.551 -0.5722  0.1178  0.4370
 1887SOL    HW1 6560   1.060   1.814   5.539 -0.5878  0.0707  0.1044
 1887SOL    HW2 6561   1.028   1.660   5.581 -0.4568  0.3166  1.1271
 1888SOL     OW 6562   0.917   2.882   3.933 -0.1545 -0.4062 -0.0075
 1888SOL    HW1 6563   1.011   2.905   3.909 -0.5013  0.0155 -0.9916
 1888SOL    HW2 6564   0.901   2.905   4.030 -0.0680  2.2457 -0.5440
 1889SOL     OW 6565   5.625   0.731   1.550 -0.1396  0.0764  0.4026
 1889SOL    HW1 6566   5.710   0.778   1.574 -0.8550  0.6667  1.9427
 1889SOL    HW2 6567   5.581   0.699   1.634 -0.2877 -2.3062 -0.5222
 1890SOL     OW 6568   4.181   6.909   3.042  0.0654 -0.5181 -0.3387
 1890SOL    HW1 6569   4.169   6.957   3.130 -0.0247 -0.3833 -0.4244
 1890SOL    HW2 6570   4.158   6.813   3.054 -0.4988 -0.3901 -0.3475
 1891SOL     OW 6571   1.573   6.807   5.354 -0.6235 -0.0164  0.2201
 1891SOL    HW1 6572   1.598   6.845   5.264 -0.2557 -2.0633 -0.5947
 1891SOL    HW2 6573   1.654   6.804   5.412 -0.6071  0.2123  0.2114
 1892SOL     OW 6574   0.183   1.852   0.063 -0.7421 -0.6888 -0.2276
 1892SOL    HW1 6575   0.215   1.778   0.121  0.1744 -0.4527 -0.4229
 1892SOL    HW2 6576   0.166   1.933   0.118 -1.9759 -1.0918  0.0234
 1893SOL     OW 6577   4.131   6.567   3.095 -0.2701 -0.2360  0.7576
 1893SOL    HW1 6578   4.116   6.542   3.000  1.9612  3.0080 -0.6457
 1893SOL    HW2 6579   4.054   6.622   3.128 -0.8273 -0.9563  0.6560
 1894SOL     OW 6580   1.502   3.593   1.449 -0.1044 -0.3809 -0.4498
 1894SOL    HW1 6581   1.468   3.587   1.542  1.5711 -0.5454  0.1883
 1894SOL    HW2 6582   1.504   3.689   1.420  0.6466 -0.1842  0.2123
 1895SOL     OW 6583   1.532   0.228   2.392  0.8839 -0.2573 -0.2411
 1895SOL    HW1 6584   1.472   0.147   2.390  1.1661 -0.4592 -1.7053
 1895SOL    HW2 6585   1.619   0.203   2.434  0.7542 -0.5564 -0.1453
 1896SOL     OW 6586   5.819   6.820   4.492  0.0321 -0.4640 -0.1868
 1896SOL    HW1 6587   5.907   6.817   4.539 -0.6246  0.1923  1.1546
 1896SOL    HW2 6588   5.754   6.873   4.547 -1.4904 -1.7654 -0.6651
 1897SOL     OW 6589   2.500   6.630   1.243  0.3130 -0.2750 -0.1187
 1897SOL    HW1 6590   2.529   6.709   1.188 -0.9419  0.9878  0.9450
 1897SOL    HW2 6591   2.498   6.656   1.339  0.4216 -1.8151  0.3227
 1898SOL     OW 6592   2.065   2.315   3.458  0.3065  0.4058 -0.2445
 1898SOL    HW1 6593   2.028   2.231   3.498  0.2361  0.3324 -0.4571
 1898SOL    HW2 6594   2.107   2.294   3.370 -0.4985  0.7268 -0.7221
 1899SOL     OW 6595   6.768   5.395   2.660  0.2781 -0.3473  0.0497
 1899SOL    HW1 6596   6.690   5.439   2.704  1.3878  1.6634  0.1287
 1899SOL    HW2 6597   6.805   5.455   2.590  2.4776 -0.6924  0.8255
 1900SOL     OW 6598   4.230   0.942   0.665  0.2195  0.6362  0.1039
 1900SOL    HW1 6599   4.251   1.039   0.678  2.3874  0.1935  0.3566
 1900SOL    HW2 6600   4.315   0.889   0.666 -0.8715 -1.2371 -0.4503
 1901SOL     OW 6601   0.922   0.455   2.416 -0.4933 -0.8772  0.2431
 1901SOL    HW1 6602   0.831   0.465   2.375  0.8357  1.0625 -2.5653
 1901SOL    HW2 6603   0.932   0.517   2.493 -1.0457  0.1585 -0.4940
 1902SOL     OW 6604   1.139   0.787   2.863 -0.0252 -0.1350  0.2463
 1902SOL    HW1 6605   1.236   0.810   2.863 -0.3136  1.1942 -0.1950
 1902SOL    HW2 6606   1.125   0.699   2.907  1.7288 -2.0161 -2.6634
 1903SOL     OW 6607   0.188   5.115   2.347  0.3595  0.2130 -0.1421
 1903SOL    HW1 6608   0.266   5.152   2.398 -0.8152  1.0822  1.0963
 1903SOL    HW2 6609   0.113   5.182   2.349 -0.0055 -0.0642 -2.3737
 1904SOL     OW 6610   5.460   1.117   6.059 -0.1464 -0.0820 -0.1561
 1904SOL    HW1 6611   5.384   1.175   6.029 -0.1969  0.4696  1.0133
 1904SOL    HW2 6612   5.454   1.102   6.158  0.7367 -0.8214 -0.2022
 1905SOL     OW 6613   0.436   6.952   1.715  0.1392  0.3725 -0.2364
 1905SOL    HW1 6614   0.435   7.049   1.689  0.0215 -0.1203 -2.2254
 1905SOL    HW2 6615   0.528   6.915   1.699 -0.2469 -0.2328 -1.1428
 1906SOL     OW 6616   6.701   6.199   4.470  0.1192  0.4486 -0.2831
 1906SOL    HW1 6617   6.671   6.119   4.418  0.7531  0.2615 -0.3643
 1906SOL    HW2 6618   6.764   6.171   4.542  2.0823  1.0833 -1.6884
 1907SOL     OW 6619   3.742   0.659   5.382  0.3072 -0.2755  0.2721
 1907SOL    HW1 6620   3.796   0.646   5.298  1.6787  0.9956  0.9014
 1907SOL    HW2 6621   3.714   0.755   5.388 -0.7042 -0.5950  0.7505
 1908SOL     OW 6622   5.113   6.484   0.771  0.2098 -0.1201 -0.2934
 1908SOL    HW1 6623   5.148   6.411   0.830 -1.2762  0.1969  1.0463
 1908SOL    HW2 6624   5.175   6.497   0.694  0.6644 -2.6202 -0.4461
 1909SOL     OW 6625   6.561   1.682   6.500  0.0160  0.5195 -0.7984
 1909SOL    HW1 6626   6.463   1.678   6.482 -0.1584  0.8810  0.0487
 1909SOL    HW2 6627   6.591   1.596   6.539 -0.1999  0.8200  0.0542
 1910SOL     OW 6628   2.934   3.281   6.481 -0.0148  0.6738 -0.0515
 1910SOL    HW1 6629   2.908   3.188   6.455 -0.5452  0.4253  1.3019
 1910SOL    HW2 6630   2.895   3.346   6.415 -1.0457  0.0573 -0.0735
 1911SOL     OW 6631   3.989   6.861   6.546 -0.4117  0.0151  0.0409
 1911SOL    HW1 6632   3.935   6.849   6.629  0.3508  0.2644  0.5925
 1911SOL    HW2 6633   4.061   6.928   6.563 -0.2939  0.1272 -0.8532
 1912SOL     OW 6634   3.227   3.800   4.479 -0.8406  0.2622 -0.0845
 1912SOL    HW1 6635   3.187   3.722   4.432  0.1260 -0.3079  0.0061
 1912SOL    HW2 6636   3.207   3.795   4.577  0.0827 -0.4361  0.0771
 1913SOL     OW 6637   4.842   5.555   2.868  0.1508 -0.0315  0.3908
 1913SOL    HW1 6638   4.934   5.588   2.891 -0.5268  1.4781  1.0476
 1913SOL    HW2 6639   4.774   5.624   2.895 -1.0534 -0.3066 -1.7194
 1914SOL     OW 6640   1.414   6.050   2.167 -0.1518 -0.0556  0.1431
 1914SOL    HW1 6641   1.402   5.977   2.233  0.8227  0.1573  0.5654
 1914SOL    HW2 6642   1.330   6.060   2.113 -0.3451 -1.3753  0.1749
 1915SOL     OW 6643   2.932   0.817   3.273 -0.4264  0.0705 -0.6043
 1915SOL    HW1 6644   2.957   0.845   3.366 -0.2063 -0.5309 -0.4746
 1915SOL    HW2 6645   2.976   0.877   3.207  2.1176 -1.4177 -0.4069
 1916SOL     OW 6646   5.376   5.898   2.283  0.0813 -0.1244 -0.0899
 1916SOL    HW1 6647   5.326   5.985   2.287  1.6188  0.8891 -1.6385
 1916SOL    HW2 6648   5.404   5.880   2.189  3.3854 -0.1765  0.7835
 1917SOL     OW 6649   2.996   5.881   5.286  0.0080  0.2419 -0.2304
 1917SOL    HW1 6650   2.981   5.842   5.377  0.5968 -0.4414 -0.4234
 1917SOL    HW2 6651   2.996   5.808   5.218  0.7452  0.6195 -0.6402
 1918SOL     OW 6652   4.789   6.367   6.157  0.5053 -0.1704  0.3110
 1918SOL    HW1 6653   4.719   6.438   6.160  0.6312  0.1841 -2.2182
 1918SOL    HW2 6654   4.749   6.278   6.177  0.0845  0.4204  2.2553
 1919SOL     OW 6655   1.624   2.594   2.552 -0.0968  0.0865 -0.0815
 1919SOL    HW1 6656   1.543   2.648   2.574  0.3433  1.0175 -0.6706
 1919SOL    HW2 6657   1.666   2.630   2.468  0.7529 -0.5696  0.0483
 1920SOL     OW 6658   6.354   1.232   3.005  0.2740 -0.7901  0.3646
 1920SOL    HW1 6659   6.394   1.199   3.091  1.2411 -0.9874 -0.1501
 1920SOL    HW2 6660   6.421   1.223   2.931 -0.3091  0.0268 -0.2818
 1921SOL     OW 6661   5.628   0.699   2.461  0.3162 -0.6079  0.3637
 1921SOL    HW1 6662   5.586   0.679   2.550  1.3997 -1.0306  0.7985
 1921SOL    HW2 6663   5.621   0.619   2.402 -3.6693  0.7784 -1.3330
 1922SOL     OW 6664   4.304   4.304   5.381  0.0696  0.6826 -1.0037
 1922SOL    HW1 6665   4.403   4.296   5.398 -0.1256  1.0172  0.3509
 1922SOL    HW2 6666   4.290   4.337   5.288  1.1763 -1.3143 -1.9510
 1923SOL     OW 6667   1.894   1.927   3.066 -0.6865  0.2843 -0.6597
 1923SOL    HW1 6668   1.829   2.001   3.087 -0.6073 -0.5766  3.6068
 1923SOL    HW2 6669   1.987   1.964   3.066 -0.7661  0.4958 -0.2196
 1924SOL     OW 6670   2.138   3.220   1.132  0.6128 -0.1414  0.2948
 1924SOL    HW1 6671   2.185   3.186   1.213  1.0948 -2.5164 -0.9044
 1924SOL    HW2 6672   2.200   3.282   1.083  1.1122 -0.3546  0.6372
 1925SOL     OW 6673   3.229   1.739   0.553 -0.2108  0.4530 -0.3308
 1925SOL    HW1 6674   3.149   1.769   0.501  0.0306  2.3852  0.3307
 1925SOL    HW2 6675   3.248   1.804   0.626  1.2489 -0.6149  0.3019
 1926SOL     OW 6676   5.874   3.032   3.615  0.0459 -0.0878  0.1649
 1926SOL    HW1 6677   5.844   2.994   3.703 -0.4549  0.4586  0.2367
 1926SOL    HW2 6678   5.853   2.967   3.542 -0.0397 -0.3093  0.3833
 1927SOL     OW 6679   6.713   4.466   5.728 -0.2767 -0.1318  0.4385
 1927SOL    HW1 6680   6.657   4.408   5.668  0.9639 -0.9122 -0.0155
 1927SOL    HW2 6681   6.774   4.408   5.782  1.9366  0.7680 -0.9726
 1928SOL     OW 6682   2.578   5.657   2.632  0.3109  0.0972  0.3314
 1928SOL    HW1 6683   2.481   5.642   2.653  0.2224 -0.2418 -0.3175
 1928SOL    HW2 6684   2.622   5.698   2.712 -0.2080 -0.3847  0.8815
 1929SOL     OW 6685   4.754   6.816   4.847  0.2414 -0.2637 -0.2322
 1929SOL    HW1 6686   4.813   6.766   4.783  0.0807  0.3194 -0.8585
 1929SOL    HW2 6687   4.664   6.830   4.805  0.7381  1.8608 -0.7503
 1930SOL     OW 6688   2.354   0.849   2.324 -0.5359 -0.7188 -0.2001
 1930SOL    HW1 6689   2.349   0.949   2.329 -0.0016 -0.7012  0.1636
 1930SOL    HW2 6690   2.324   0.818   2.233  1.7036 -0.0198 -1.2578
 1931SOL     OW 6691   2.788   2.134   6.702  0.1599 -0.2724 -0.2386
 1931SOL    HW1 6692   2.843   2.159   6.622 -1.0995  0.6899 -0.8425
 1931SOL    HW2 6693   2.758   2.217   6.749  0.6188 -0.8249  1.0696
 1932SOL     OW 6694   4.911   3.362   6.228  0.1871  0.5108 -0.0483
 1932SOL    HW1 6695   4.951   3.380   6.318  0.1158  0.7613 -0.0659
 1932SOL    HW2 6696   4.884   3.266   6.222 -0.4088  0.6449  0.4355
 1933SOL     OW 6697   0.274   0.518   4.717 -0.4123  0.4233  0.0945
 1933SOL    HW1 6698   0.338   0.441   4.710 -0.5892  0.3481 -0.8955
 1933SOL    HW2 6699   0.183   0.488   4.688 -1.2744  0.1505  2.7630
 1934SOL     OW 6700   4.465   3.928   0.385  0.0011  0.0725  0.5825
 1934SOL    HW1 6701   4.414   3.935   0.471 -1.4658 -0.6629 -0.1858
 1934SOL    HW2 6702   4.540   3.862   0.396  0.5509  0.8303  1.6051
 1935SOL     OW 6703   3.672   3.452   0.991 -0.1086 -0.4054 -0.1720
 1935SOL    HW1 6704   3.694   3.369   0.940  0.2147 -0.8559  0.6849
 1935SOL    HW2 6705   3.663   3.430   1.088  1.3011  0.7950  0.2580
 1936SOL     OW 6706   4.263   2.437   1.802 -0.0952 -0.1176 -0.0340
 1936SOL    HW1 6707   4.172   2.456   1.764  0.2556  0.1000 -0.7941
 1936SOL    HW2 6708   4.256   2.426   1.901 -0.5530  2.6154  0.3203
 1937SOL     OW 6709   6.055   3.368   4.897 -0.7555 -0.5398  0.2655
 1937SOL    HW1 6710   6.138   3.334   4.940 -0.5809 -1.4994 -0.7905
 1937SOL    HW2 6711   6.071   3.461   4.863 -0.2274 -0.5921  0.3675
 1938SOL     OW 6712   4.527   5.359   5.639 -0.0860 -0.2189  0.2089
 1938SOL    HW1 6713   4.611   5.306   5.655 -0.4443 -0.7100  0.5014
 1938SOL    HW2 6714   4.448   5.299   5.649 -0.4273 -0.0339 -1.2875
 1939SOL     OW 6715   2.005   4.774   5.706  0.0234  0.0705 -0.2188
 1939SOL    HW1 6716   1.982   4.860   5.750  1.3706  1.4100 -1.9607
 1939SOL    HW2 6717   1.928   4.743   5.651 -0.4540  0.1957  0.3788
 1940SOL     OW 6718   6.058   3.185   0.899 -0.0523 -0.7060 -0.1261
 1940SOL    HW1 6719   6.091   3.090   0.898 -1.3924 -1.3087  2.4757
 1940SOL    HW2 6720   6.063   3.221   0.992  0.6423  1.9361 -1.0932
 1941SOL     OW 6721   3.840   6.939   1.498 -0.1932 -0.5207  0.5968
 1941SOL    HW1 6722   3.792   6.862   1.456 -0.5670  0.0837 -0.1185
 1941SOL    HW2 6723   3.818   6.942   1.596  1.4366 -2.5003  1.0944
 1942SOL     OW 6724   4.995   1.209   1.245 -0.1098  0.1171 -0.3080
 1942SOL    HW1 6725   4.968   1.189   1.151 -0.3817 -1.2016  0.0236
 1942SOL    HW2 6726   4.925   1.265   1.289 -0.4548 -0.0786 -0.6035
 1943SOL     OW 6727   3.857   0.106   0.081  0.0931 -0.0308 -0.5595
 1943SOL    HW1 6728   3.899   0.186   0.124  0.3988 -0.5355  0.0868
 1943SOL    HW2 6729   3.922   0.065   0.017 -0.9263  1.7301 -2.9255
 1944SOL     OW 6730   2.197   4.175   0.888 -0.0280 -0.0231 -0.2041
 1944SOL    HW1 6731   2.258   4.097   0.870  0.6637 -0.2033  2.3764
 1944SOL    HW2 6732   2.219   4.214   0.978 -1.6308  1.9738 -0.5963
 1945SOL     OW 6733   5.165   0.525   3.124  0.0868  0.2445  0.4662
 1945SOL    HW1 6734   5.136   0.621   3.133 -0.6159  0.0306  0.5387
 1945SOL    HW2 6735   5.105   0.467   3.179 -0.2223 -0.3695 -0.4860
 1946SOL     OW 6736   0.110   4.177   2.938 -0.2355 -0.6482 -0.3496
 1946SOL    HW1 6737   0.128   4.246   3.007 -0.8616 -0.5140 -0.3160
 1946SOL    HW2 6738   0.182   4.108   2.939 -0.4142 -0.8276  0.6592
 1947SOL     OW 6739   1.929   4.743   1.821 -0.0982 -0.2712 -0.0172
 1947SOL    HW1 6740   1.888   4.795   1.746  1.3378  0.1583 -0.5469
 1947SOL    HW2 6741   1.870   4.665   1.844 -0.0434 -1.0965 -2.3777
 1948SOL     OW 6742   5.328   4.175   5.775  0.1823  0.0849 -0.1313
 1948SOL    HW1 6743   5.237   4.134   5.779  0.6469 -1.0052 -0.6244
 1948SOL    HW2 6744   5.384   4.139   5.849  0.4042  0.3116 -0.1864
 1949SOL     OW 6745   3.968   2.869   6.484  0.5898 -0.6821 -0.6542
 1949SOL    HW1 6746   4.004   2.948   6.434 -1.1089 -0.1127 -1.0454
 1949SOL    HW2 6747   3.887   2.897   6.536  2.2541 -1.2422  2.4664
 1950SOL     OW 6748   6.228   0.263   2.162  0.2064 -0.2265 -0.3871
 1950SOL    HW1 6749   6.256   0.300   2.074 -1.7774  0.0372 -0.9503
 1950SOL    HW2 6750   6.249   0.329   2.235  0.3563  0.2703 -0.8782
 1951SOL     OW 6751   2.912   3.314   4.393 -0.1552 -0.2331 -0.5549
 1951SOL    HW1 6752   2.852   3.235   4.387 -0.8033  0.2947 -1.1697
 1951SOL    HW2 6753   2.912   3.363   4.305 -0.2766  0.8096  0.0040
 1952SOL     OW 6754   4.651   6.902   0.570  0.2182 -0.4662  0.2124
 1952SOL    HW1 6755   4.693   6.815   0.598 -0.0822 -0.2941  1.2170
 1952SOL    HW2 6756   4.691   6.931   0.483  2.4677 -0.1582  1.2600
 1953SOL     OW 6757   1.393   1.564   6.785 -0.3866  0.0017  0.1113
 1953SOL    HW1 6758   1.475   1.517   6.817 -0.5347 -0.7131 -0.5211
 1953SOL    HW2 6759   1.315   1.501   6.790 -0.5347  0.0847 -1.0178
 1954SOL     OW 6760   1.658   3.430   1.774  0.1467  0.0668 -0.0457
 1954SOL    HW1 6761   1.710   3.366   1.717  0.3430  0.4932 -0.3472
 1954SOL    HW2 6762   1.721   3.496   1.816 -0.3494  2.4309 -2.6919
 1955SOL     OW 6763   6.678   2.387   1.819  0.2087  0.6597  0.3119
 1955SOL    HW1 6764   6.628   2.305   1.846  0.9743 -0.3485 -1.2420
 1955SOL    HW2 6765   6.639   2.424   1.734  0.7124  1.1295  0.2753
 1956SOL     OW 6766   2.992   2.185   4.180 -0.5699  0.8644  0.1852
 1956SOL    HW1 6767   2.923   2.114   4.173  0.2040  0.2359 -1.3935
 1956SOL    HW2 6768   3.083   2.144   4.176 -0.1009  1.8466  0.3984
 1957SOL     OW 6769   2.171   3.566   0.243 -0.2165  0.0906  0.5293
 1957SOL    HW1 6770   2.209   3.489   0.296 -1.7582  0.1873  1.8408
 1957SOL    HW2 6771   2.103   3.532   0.179  2.1777 -0.1319 -2.1104
 1958SOL     OW 6772   5.833   6.352   1.914  0.4630  0.1432 -0.0534
 1958SOL    HW1 6773   5.774   6.322   1.989 -0.4806  0.1636 -0.7699
 1958SOL    HW2 6774   5.844   6.451   1.917  2.1462 -0.0287  1.2704
 1959SOL     OW 6775   4.505   1.999   2.914  0.0983 -0.6862  0.2383
 1959SOL    HW1 6776   4.591   2.027   2.956  0.4324 -1.1196 -0.1482
 1959SOL    HW2 6777   4.433   2.064   2.939  0.7689  0.2807 -0.2872
 1960SOL     OW 6778   2.670   1.225   5.246  0.2842 -0.1897 -0.1534
 1960SOL    HW1 6779   2.750   1.285   5.242  0.2009  0.1391  1.8702
 1960SOL    HW2 6780   2.679   1.161   5.323 -0.9141 -0.8725 -0.5398
 1961SOL     OW 6781   4.158   4.887   4.131 -0.2051  0.4737  0.9480
 1961SOL    HW1 6782   4.099   4.825   4.080  1.8786 -1.3350  0.5928
 1961SOL    HW2 6783   4.183   4.965   4.073 -0.8196  0.3364  0.4942
 1962SOL     OW 6784   1.189   5.546   3.301  0.4449 -0.3857 -0.8578
 1962SOL    HW1 6785   1.146   5.584   3.219  0.7931  0.7122 -0.5494
 1962SOL    HW2 6786   1.277   5.506   3.277 -0.2058 -1.5942 -1.2936
 1963SOL     OW 6787   0.153   6.461   4.966 -0.7040 -0.3352 -0.3796
 1963SOL    HW1 6788   0.232   6.400   4.951 -0.9719 -1.0286  0.8474
 1963SOL    HW2 6789   0.109   6.436   5.052 -1.7643  0.6079 -0.6373
 1964SOL     OW 6790   0.355   2.086   5.902 -0.1772  0.0107  0.3683
 1964SOL    HW1 6791   0.374   2.163   5.841 -0.2821  0.4901  0.9315
 1964SOL    HW2 6792   0.256   2.077   5.913 -0.2147 -0.9781 -0.6650
 1965SOL     OW 6793   4.028   6.445   6.098 -0.3778  0.1532 -0.6390
 1965SOL    HW1 6794   4.069   6.403   6.178 -0.6185  0.3754 -0.3937
 1965SOL    HW2 6795   3.954   6.506   6.127  0.2491  1.0920 -0.9455
 1966SOL     OW 6796   2.960   2.396   5.318 -0.3713 -0.5193 -0.5834
 1966SOL    HW1 6797   3.051   2.373   5.284 -0.2112  1.0666 -1.3304
 1966SOL    HW2 6798   2.948   2.495   5.315 -0.9110 -0.3631  2.5960
 1967SOL     OW 6799   1.143   2.832   1.807  1.2767  0.5449 -0.1967
 1967SOL    HW1 6800   1.071   2.902   1.808 -0.5809 -1.2674 -0.2015
 1967SOL    HW2 6801   1.216   2.859   1.869 -0.9403  0.9866  2.4464
 1968SOL     OW 6802   4.646   3.859   1.633 -0.1739 -0.1561 -0.4488
 1968SOL    HW1 6803   4.721   3.843   1.697  1.1160  0.3377 -1.7742
 1968SOL    HW2 6804   4.644   3.786   1.566  0.6520  1.0062 -1.7999
 1969SOL     OW 6805   2.594   0.038   4.493 -0.2047  0.1250  0.5181
 1969SOL    HW1 6806   2.571  -0.060   4.496  1.5399 -0.3043  2.3925
 1969SOL    HW2 6807   2.679   0.054   4.544 -0.4345  2.6392  0.2452
 1970SOL     OW 6808   0.890   5.249   7.009 -0.1570 -0.0024  0.4976
 1970SOL    HW1 6809   0.848   5.188   6.941  0.6126 -0.2848  0.2611
 1970SOL    HW2 6810   0.833   5.252   7.091  0.0202 -1.4282  0.7048
 1971SOL     OW 6811   4.043   1.352   2.605 -0.2037  0.4424 -0.6415
 1971SOL    HW1 6812   4.082   1.317   2.520  1.6205  0.0898  0.2843
 1971SOL    HW2 6813   4.113   1.403   2.656 -1.3820  1.0577  0.4320
 1972SOL     OW 6814   2.872   6.950   1.598 -0.2216  0.4555 -0.1440
 1972SOL    HW1 6815   2.898   6.856   1.577  0.7071  0.7605 -0.3985
 1972SOL    HW2 6816   2.880   6.966   1.696  1.1254  0.6982 -0.2782
 1973SOL     OW 6817   6.805   0.501   4.328 -0.1043  0.0906  0.5481
 1973SOL    HW1 6818   6.788   0.599   4.320  0.3962  0.2038  0.7749
 1973SOL    HW2 6819   6.738   0.461   4.390 -0.8289  0.1302 -0.1966
 1974SOL     OW 6820   4.329   6.751   5.954  0.2191 -0.1230  0.4830
 1974SOL    HW1 6821   4.425   6.776   5.963  0.7617 -0.8332 -2.2073
 1974SOL    HW2 6822   4.280   6.823   5.904 -0.1399 -0.6371  0.0740
 1975SOL     OW 6823   2.514   0.374   3.114 -0.2704  0.5518 -0.0253
 1975SOL    HW1 6824   2.462   0.381   3.028 -0.9390  1.1938  0.4197
 1975SOL    HW2 6825   2.538   0.278   3.130  0.5362  0.5009 -1.3110
 1976SOL     OW 6826   4.640   2.225   6.870 -0.0245  0.1695  0.0223
 1976SOL    HW1 6827   4.616   2.272   6.784 -0.7452 -0.4742 -0.1369
 1976SOL    HW2 6828   4.657   2.128   6.851  0.8674  0.2368  0.4447
 1977SOL     OW 6829   0.843   0.075   1.692 -0.5621 -0.4770 -0.2186
 1977SOL    HW1 6830   0.816   0.163   1.653 -2.2243 -0.8680 -0.0145
 1977SOL    HW2 6831   0.933   0.084   1.735 -1.5679  1.7099  1.6655
 1978SOL     OW 6832   0.799   3.220   4.224  0.4027 -0.0502  0.2502
 1978SOL    HW1 6833   0.890   3.198   4.258  0.4553  0.1308  0.2295
 1978SOL    HW2 6834   0.733   3.153   4.259  0.6563 -0.5983 -0.3212
 1979SOL     OW 6835   4.913   1.782   0.952  0.7471  0.2170 -0.3403
 1979SOL    HW1 6836   4.958   1.839   0.884 -0.6167  1.7296 -0.0382
 1979SOL    HW2 6837   4.936   1.814   1.044  2.0746 -1.4144 -0.0628
 1980SOL     OW 6838   4.836   2.015   1.444 -0.2219 -0.3072  0.3854
 1980SOL    HW1 6839   4.793   2.060   1.366  0.6510 -0.4910 -0.2249
 1980SOL    HW2 6840   4.806   2.059   1.528 -3.0669 -1.6394  0.1620
 1981SOL     OW 6841   1.978   2.473   0.012 -0.4040  0.3712 -0.0246
 1981SOL    HW1 6842   1.966   2.489   0.110 -0.2560  2.2688 -0.2906
 1981SOL    HW2 6843   1.895   2.430  -0.024 -0.7892  0.4207  0.7632
 1982SOL     OW 6844   6.998   3.672   3.046  0.2070 -0.0800  0.4852
 1982SOL    HW1 6845   7.043   3.626   3.123  0.3265  1.7618  1.5601
 1982SOL    HW2 6846   6.911   3.710   3.076  0.2307  0.6220 -0.3018
 1983SOL     OW 6847   1.240   6.378   1.714 -0.0976 -0.4355 -0.4238
 1983SOL    HW1 6848   1.237   6.278   1.710  1.1871 -0.5027 -0.3408
 1983SOL    HW2 6849   1.196   6.416   1.633  0.5372 -1.1161 -1.1069
 1984SOL     OW 6850   6.619   4.713   2.549 -0.2593  0.3180 -0.1593
 1984SOL    HW1 6851   6.545   4.667   2.500  0.0134 -0.2595 -0.0399
 1984SOL    HW2 6852   6.641   4.662   2.632 -2.2280  2.4613  1.7997
 1985SOL     OW 6853   3.375   0.045   4.096 -0.1810  0.2804 -0.3506
 1985SOL    HW1 6854   3.323   0.113   4.044 -1.2944 -0.9117 -0.8510
 1985SOL    HW2 6855   3.349  -0.047   4.066  1.7929 -0.3749 -0.1602
 1986SOL     OW 6856   2.984   1.435   2.089  0.2309 -0.0228 -0.7761
 1986SOL    HW1 6857   3.067   1.427   2.033  0.9400  0.9882  0.0750
 1986SOL    HW2 6858   2.964   1.348   2.133  1.5119  0.0061 -0.0983
 1987SOL     OW 6859   2.919   0.587   3.851 -0.4055  0.1965  0.3959
 1987SOL    HW1 6860   2.962   0.533   3.778  3.2985  3.2253  0.0093
 1987SOL    HW2 6861   2.959   0.563   3.939  0.6498  1.6149  0.3315
 1988SOL     OW 6862   7.011   3.498   4.290 -0.2337 -0.6207 -0.0192
 1988SOL    HW1 6863   7.103   3.497   4.250 -0.6923 -1.1601 -1.1051
 1988SOL    HW2 6864   6.993   3.588   4.330 -0.0479  0.2832 -1.8218
 1989SOL     OW 6865   2.702   0.428   5.512  0.6977  0.2879  0.2503
 1989SOL    HW1 6866   2.618   0.422   5.566  0.8990 -3.0138  0.4046
 1989SOL    HW2 6867   2.777   0.461   5.569  0.4284 -1.0411  1.4408
 1990SOL     OW 6868   1.157   4.225   2.257  0.5394  0.1941  0.3921
 1990SOL    HW1 6869   1.233   4.180   2.210 -0.8811 -1.4196 -0.5025
 1990SOL    HW2 6870   1.128   4.305   2.205 -0.1447 -0.7957 -0.7977
 1991SOL     OW 6871   1.210   5.017   4.817 -0.4307  0.5415 -0.5068
 1991SOL    HW1 6872   1.246   4.981   4.731 -0.2604  0.2853 -0.3303
 1991SOL    HW2 6873   1.244   4.961   4.893 -1.8586 -0.2252 -0.3944
 1992SOL     OW 6874   5.504   3.271   1.857 -0.3232 -0.9116 -0.1875
 1992SOL    HW1 6875   5.405   3.256   1.851 -0.5531  0.4006  0.0013
 1992SOL    HW2 6876   5.523   3.368   1.848  0.7842 -0.8802  1.8235
 1993SOL     OW 6877   0.867   0.451   2.003 -0.0216  0.2998 -0.1813
 1993SOL    HW1 6878   0.963   0.430   1.984 -0.0139  0.5961 -0.4960
 1993SOL    HW2 6879   0.859   0.494   2.093  0.0269 -0.5358  0.2337
 1994SOL     OW 6880   1.817   4.885   4.071 -0.2555  0.2470  0.1661
 1994SOL    HW1 6881   1.832   4.983   4.056  0.4409 -0.0056 -0.8541
 1994SOL    HW2 6882   1.756   4.850   4.000 -0.6386 -0.0308  0.6297
 1995SOL     OW 6883   1.192   4.070   4.010  0.2834 -0.1709 -0.3026
 1995SOL    HW1 6884   1.276   4.018   3.996  1.1108  1.0714 -0.1788
 1995SOL    HW2 6885   1.158   4.104   3.922 -0.5797 -1.3675 -0.4525
 1996SOL     OW 6886   1.522   1.384   5.070  0.7155 -0.8352  0.2102
 1996SOL    HW1 6887   1.490   1.370   4.977  0.0217 -0.5305  0.3938
 1996SOL    HW2 6888   1.445   1.374   5.134  0.5104  1.8631  0.5025
 1997SOL     OW 6889   6.644   4.051   0.872 -0.5435  0.1535 -0.3561
 1997SOL    HW1 6890   6.577   3.994   0.918  0.2635 -1.6166 -1.2584
 1997SOL    HW2 6891   6.702   4.097   0.939  0.6272 -2.3733  0.4923
 1998SOL     OW 6892   0.694   0.867   0.826 -0.5537 -0.3972 -0.2706
 1998SOL    HW1 6893   0.631   0.809   0.878  1.4419 -3.8148 -1.3493
 1998SOL    HW2 6894   0.642   0.920   0.758 -2.6386  0.4599  1.8289
 1999SOL     OW 6895   5.956   5.938   0.335  0.8708 -0.1160 -0.4276
 1999SOL    HW1 6896   6.033   5.976   0.284  0.1985  0.6411 -0.9129
 1999SOL    HW2 6897   5.878   5.924   0.273  0.2531  0.1917  0.2573
 2000SOL     OW 6898   0.230   3.364   5.457 -0.2451 -0.6693  0.1039
 2000SOL    HW1 6899   0.223   3.382   5.555  2.0051 -2.6484  0.7350
 2000SOL    HW2 6900   0.166   3.291   5.432 -0.0515 -0.9288  0.3577
 2001SOL     OW 6901   1.720   0.362   2.904  0.0326  0.0770  0.3672
 2001SOL    HW1 6902   1.779   0.281   2.903 -0.9454 -0.6910  1.6969
 2001SOL    HW2 6903   1.777   0.444   2.915  1.0050 -0.4342 -0.6011
 2002SOL     OW 6904   3.280   1.361   0.474  0.3798 -0.1646 -0.3875
 2002SOL    HW1 6905   3.303   1.422   0.398  1.9129  2.0551  1.6974
 2002SOL    HW2 6906   3.208   1.403   0.529 -0.5735 -1.6425 -0.4518
 2003SOL     OW 6907   6.982   6.935   3.623 -0.3935  0.1725  0.2831
 2003SOL    HW1 6908   6.969   7.020   3.571  0.0231 -0.2105 -0.4533
 2003SOL    HW2 6909   7.062   6.945   3.683 -1.4826  0.9983  1.6805
 2004SOL     OW 6910   2.329   0.830   2.926  0.4400  0.1189  0.3268
 2004SOL    HW1 6911   2.386   0.907   2.952  1.0826  0.0549 -0.8315
 2004SOL    HW2 6912   2.331   0.819   2.826  0.4404 -1.4513  0.4715
 2005SOL     OW 6913   1.662   4.819   4.547 -0.4856  0.2438  0.4685
 2005SOL    HW1 6914   1.704   4.772   4.469 -0.1273  1.4019 -0.0699
 2005SOL    HW2 6915   1.719   4.897   4.574 -0.3123 -0.4662  2.2842
 2006SOL     OW 6916   5.259   0.044   4.668  0.7851 -0.2856 -0.1799
 2006SOL    HW1 6917   5.192   0.118   4.663 -0.2578 -1.1113  1.0531
 2006SOL    HW2 6918   5.287   0.018   4.576 -1.2451 -0.4958 -0.7784
 2007SOL     OW 6919   2.674   2.188   3.968  0.4477  0.3087 -0.1809
 2007SOL    HW1 6920   2.618   2.269   3.985 -0.7457 -0.3915 -0.6286
 2007SOL    HW2 6921   2.709   2.152   4.055  0.8403  1.1765  0.0357
 2008SOL     OW 6922   6.999   2.726   5.970  0.0903  0.2081  0.5025
 2008SOL    HW1 6923   6.921   2.786   5.953 -0.5776 -0.9819 -0.7914
 2008SOL    HW2 6924   6.966   2.634   5.993  1.0714 -0.7493 -1.6821
 2009SOL     OW 6925   2.684   3.367   5.988 -0.0694  0.2369  0.1043
 2009SOL    HW1 6926   2.758   3.365   5.921 -0.4101  2.0119 -0.3657
 2009SOL    HW2 6927   2.619   3.294   5.967 -0.3041  0.9056 -1.6803
 2010SOL     OW 6928   6.739   5.775   4.393 -0.0940  0.8180 -0.0870
 2010SOL    HW1 6929   6.646   5.787   4.359 -0.5429 -1.8115 -0.0167
 2010SOL    HW2 6930   6.778   5.692   4.353  1.7893  1.2266  0.8072
 2011SOL     OW 6931   4.496   1.046   4.553 -0.3463 -0.1666 -0.7585
 2011SOL    HW1 6932   4.465   0.987   4.479  0.1822 -0.1312 -1.0160
 2011SOL    HW2 6933   4.541   1.127   4.515  0.0779 -0.2277 -0.3978
 2012SOL     OW 6934   0.632   4.040   6.015 -0.4700 -0.7884 -0.0951
 2012SOL    HW1 6935   0.706   4.090   6.060 -1.4596  1.2986 -0.6951
 2012SOL    HW2 6936   0.578   4.102   5.959 -0.2749 -2.9606 -2.9502
 2013SOL     OW 6937   5.679   2.557   4.060  0.2966  0.6357 -0.1573
 2013SOL    HW1 6938   5.761   2.556   4.003 -1.4926  2.0087 -3.0089
 2013SOL    HW2 6939   5.638   2.466   4.062  1.4791  0.0967  0.7498
 2014SOL     OW 6940   4.787   0.539   2.745 -0.4148  0.0412  0.1044
 2014SOL    HW1 6941   4.864   0.603   2.740  0.1618 -0.6135  0.5378
 2014SOL    HW2 6942   4.810   0.454   2.699 -0.8714 -0.1767  0.2669
 2015SOL     OW 6943   1.948   1.929   0.682 -0.2387  0.4506 -0.1361
 2015SOL    HW1 6944   1.910   1.885   0.763 -0.0912 -1.5396 -1.1037
 2015SOL    HW2 6945   1.876   1.983   0.637 -0.0651  2.4492  1.8196
 2016SOL     OW 6946   6.678   6.465   0.858  0.3458  0.1139  0.1976
 2016SOL    HW1 6947   6.749   6.534   0.867 -0.1683  0.8531 -1.1018
 2016SOL    HW2 6948   6.588   6.507   0.872  0.0331 -0.2944 -0.5059
 2017SOL     OW 6949   2.154   3.125   0.494 -0.4420  0.1496 -0.3497
 2017SOL    HW1 6950   2.248   3.091   0.497 -0.8612 -1.4829 -2.8188
 2017SOL    HW2 6951   2.117   3.129   0.587  1.5424 -0.6981  0.5313
 2018SOL     OW 6952   2.419   6.031   3.643  0.2946 -0.3353  0.5008
 2018SOL    HW1 6953   2.488   6.050   3.713 -0.0364  2.7272  0.1263
 2018SOL    HW2 6954   2.441   6.082   3.560 -1.0519 -1.3936 -0.5564
 2019SOL     OW 6955   1.460   6.985   0.891  0.4936  0.2895  0.1714
 2019SOL    HW1 6956   1.438   7.082   0.890 -0.3698  0.0994 -0.4917
 2019SOL    HW2 6957   1.558   6.973   0.909  0.2077  1.1805  2.7035
 2020SOL     OW 6958   5.494   3.810   0.131 -0.0384 -0.7088  0.2209
 2020SOL    HW1 6959   5.486   3.899   0.087  0.7264 -1.1344 -0.8014
 2020SOL    HW2 6960   5.403   3.780   0.161 -0.3997  0.1019 -0.0333
 2021SOL     OW 6961   2.389   2.751   6.146 -0.3849 -0.3024 -0.1724
 2021SOL    HW1 6962   2.388   2.725   6.242  0.8541  0.2565  0.0205
 2021SOL    HW2 6963   2.361   2.674   6.089 -1.8371 -0.4192  0.6588
 2022SOL     OW 6964   4.262   2.138   0.654 -0.6249 -0.5294 -0.6254
 2022SOL    HW1 6965   4.190   2.203   0.630  0.1266  0.2513 -0.7905
 2022SOL    HW2 6966   4.252   2.111   0.750 -1.4379 -0.8303 -0.7830
 2023SOL     OW 6967   1.739   4.884   5.983  0.0707 -0.0195  0.2717
 2023SOL    HW1 6968   1.683   4.941   6.043 -1.4336 -1.8749  0.7118
 2023SOL    HW2 6969   1.812   4.841   6.036  0.9616  1.1446  0.0177
 2024SOL     OW 6970   3.018   3.184   0.544 -0.5940 -0.1982 -0.6010
 2024SOL    HW1 6971   2.932   3.143   0.513 -0.0918 -0.8488 -1.1700
 2024SOL    HW2 6972   3.004   3.227   0.633 -1.4674 -0.4413 -0.6118
 2025SOL     OW 6973   3.330   4.264   6.163 -1.2172 -0.7477  0.2832
 2025SOL    HW1 6974   3.427   4.247   6.147 -1.5283 -1.3326 -1.1088
 2025SOL    HW2 6975   3.319   4.317   6.247  0.5493  2.2435 -1.2073
 2026SOL     OW 6976   4.406   0.884   4.349 -0.5038  0.0309  0.4807
 2026SOL    HW1 6977   4.447   0.886   4.258 -1.4219  1.2033  0.0596
 2026SOL    HW2 6978   4.382   0.790   4.372  1.0769 -0.4898  0.1538
 2027SOL     OW 6979   3.602   5.318   0.945  0.6128 -0.2660  0.0703
 2027SOL    HW1 6980   3.590   5.235   1.000  1.2789  0.5518  1.4976
 2027SOL    HW2 6981   3.519   5.335   0.891 -1.4123  0.6098  3.2069
 2028SOL     OW 6982   5.306   1.001   1.777  0.1693 -0.2454  0.1523
 2028SOL    HW1 6983   5.220   0.951   1.790  0.4033 -0.2723  1.7377
 2028SOL    HW2 6984   5.321   1.016   1.679 -1.8933  0.2051 -0.1455
 2029SOL     OW 6985   5.132   3.264   3.647 -0.0305  0.2927  0.2292
 2029SOL    HW1 6986   5.191   3.307   3.716 -0.8813 -0.6481  1.5936
 2029SOL    HW2 6987   5.171   3.278   3.556  1.8314  0.4353  1.0084
 2030SOL     OW 6988   1.413   6.843   2.862  0.1169 -0.6655 -0.3950
 2030SOL    HW1 6989   1.378   6.811   2.951 -0.5449 -0.6045 -0.6342
 2030SOL    HW2 6990   1.346   6.903   2.819  1.3606  1.1346  0.0661
 2031SOL     OW 6991   2.450   0.633   3.455 -0.1417 -0.0459  0.1231
 2031SOL    HW1 6992   2.382   0.705   3.470  0.7191  0.5647  1.2974
 2031SOL    HW2 6993   2.494   0.646   3.366 -0.3927  0.5442  0.0825
 2032SOL     OW 6994   5.277   6.946   1.255  0.2837  0.6623 -0.4117
 2032SOL    HW1 6995   5.262   6.996   1.169  0.6274  1.1451 -0.1980
 2032SOL    HW2 6996   5.212   6.979   1.324 -0.5540 -0.3093 -0.7096
 2033SOL     OW 6997   6.797   0.960   6.438  0.3781  0.3877 -0.4762
 2033SOL    HW1 6998   6.754   0.879   6.478 -0.4875  2.1858  2.6170
 2033SOL    HW2 6999   6.895   0.958   6.455  0.1648  0.6076  0.9124
 2034SOL     OW 7000   5.121   5.513   1.129 -0.1299 -0.4464 -0.2879
 2034SOL    HW1 7001   5.212   5.496   1.090 -0.1457  0.6265 -0.8106
 2034SOL    HW2 7002   5.094   5.607   1.112 -0.5929 -0.2296  1.4258
 2035SOL     OW 7003   5.003   3.901   0.937  0.4343  0.7063 -0.5732
 2035SOL    HW1 7004   4.939   3.897   0.861 -2.6766 -0.0570  1.8704
 2035SOL    HW2 7005   5.022   3.808   0.970 -0.7547  1.1151  1.4192
 2036SOL     OW 7006   2.636   6.598   3.830 -0.6566 -0.3125  0.0918
 2036SOL    HW1 7007   2.564   6.550   3.880 -1.4093 -0.3648 -1.0170
 2036SOL    HW2 7008   2.722   6.589   3.880 -1.2537 -0.8770  1.0603
 2037SOL     OW 7009   4.922   4.232   3.884  0.4306  0.2402 -0.0228
 2037SOL    HW1 7010   4.864   4.227   3.966  0.3196  1.5357  0.0012
 2037SOL    HW2 7011   4.884   4.173   3.813  1.3591 -2.1179  1.3165
 2038SOL     OW 7012   4.397   1.721   1.515  0.4076 -0.3009  0.8812
 2038SOL    HW1 7013   4.404   1.726   1.415  0.3436 -0.8617  0.8478
 2038SOL    HW2 7014   4.301   1.709   1.540  0.4597 -0.4667  0.9984
 2039SOL     OW 7015   6.064   6.356   3.751 -0.4495  0.2737 -0.0334
 2039SOL    HW1 7016   6.114   6.390   3.831 -0.3657 -0.1855  0.1117
 2039SOL    HW2 7017   6.129   6.342   3.675 -0.6931  1.8362 -0.5755
 2040SOL     OW 7018   2.910   3.705   4.759 -0.7833 -0.7413  0.4435
 2040SOL    HW1 7019   3.008   3.722   4.766 -0.8122  0.0958 -0.9477
 2040SOL    HW2 7020   2.861   3.791   4.748 -1.2275 -1.3312 -3.5927
 2041SOL     OW 7021   0.273   1.741   4.034  0.6649  0.5945 -0.6337
 2041SOL    HW1 7022   0.325   1.825   4.025  0.9057  0.4363 -0.7310
 2041SOL    HW2 7023   0.193   1.745   3.974 -0.4550  1.5969  0.8750
 2042SOL     OW 7024   0.546   0.761   1.645  0.2423  0.0334  0.1414
 2042SOL    HW1 7025   0.587   0.828   1.584 -0.7934 -0.3288 -0.9866
 2042SOL    HW2 7026   0.611   0.688   1.665  0.6120  0.1947 -0.4726
 2043SOL     OW 7027   3.364   4.198   6.903 -0.0762 -0.0742  0.5026
 2043SOL    HW1 7028   3.436   4.157   6.847 -0.1291 -0.1141  0.4633
 2043SOL    HW2 7029   3.310   4.126   6.946  0.6039 -0.0439  1.4360
 2044SOL     OW 7030   5.444   1.527   4.879 -0.3324  0.1412  0.4701
 2044SOL    HW1 7031   5.537   1.563   4.889 -0.2538 -0.1796  0.8982
 2044SOL    HW2 7032   5.398   1.530   4.968 -0.7822  0.4368  0.2296
 2045SOL     OW 7033   4.743   3.639   1.216  0.3581 -0.2073  0.1876
 2045SOL    HW1 7034   4.764   3.542   1.200 -0.5524 -0.4966  0.6926
 2045SOL    HW2 7035   4.813   3.678   1.276 -0.5998 -1.2148  2.0296
 2046SOL     OW 7036   5.488   5.820   6.111  0.8150  0.5269 -0.0337
 2046SOL    HW1 7037   5.416   5.752   6.094  1.1817  0.4143 -1.3065
 2046SOL    HW2 7038   5.544   5.790   6.188  1.3032 -0.9497 -0.8978
 2047SOL     OW 7039   1.756   0.788   5.193 -0.5468 -0.1618 -0.8664
 2047SOL    HW1 7040   1.756   0.774   5.292 -1.8278  0.7224 -0.7193
 2047SOL    HW2 7041   1.804   0.712   5.148  0.2666 -0.4348  0.4386
 2048SOL     OW 7042   1.188   1.865   1.876  0.3930 -0.3285 -0.5406
 2048SOL    HW1 7043   1.100   1.893   1.837  0.4353  0.3919 -0.1362
 2048SOL    HW2 7044   1.175   1.832   1.969  0.5760  0.0585 -0.3705
 2049SOL     OW 7045   0.732   4.478   5.443 -0.3229 -0.4293  0.5699
 2049SOL    HW1 7046   0.814   4.529   5.418  0.5132 -1.8648  0.2502
 2049SOL    HW2 7047   0.659   4.496   5.377  0.0410  0.1300  0.3223
 2050SOL     OW 7048   6.054   1.938   4.121 -0.2027  0.1636 -0.0482
 2050SOL    HW1 7049   6.082   1.961   4.213 -0.7926 -2.1216  0.7713
 2050SOL    HW2 7050   6.116   1.870   4.082 -0.4934  0.4060 -0.9788
 2051SOL     OW 7051   0.171   2.736   6.181  0.8177 -0.2523 -0.1695
 2051SOL    HW1 7052   0.125   2.757   6.095  1.4208 -0.5564 -0.5656
 2051SOL    HW2 7053   0.261   2.698   6.163  1.2793  0.4383  0.6094
 2052SOL     OW 7054   1.708   0.145   4.165 -0.3139  0.1700  0.4823
 2052SOL    HW1 7055   1.684   0.134   4.262  2.7034 -0.3907  1.2897
 2052SOL    HW2 7056   1.699   0.242   4.140 -0.2329  0.4975  1.6234
 2053SOL     OW 7057   3.422   3.210   4.802 -0.4709 -0.1691 -0.1937
 2053SOL    HW1 7058   3.424   3.278   4.875 -0.6075  0.6793 -0.9600
 2053SOL    HW2 7059   3.398   3.121   4.840  2.2698 -0.3894  1.2705
 2054SOL     OW 7060   5.578   0.339   6.256  0.1416  0.1075 -0.4715
 2054SOL    HW1 7061   5.637   0.334   6.176  0.0330 -0.4517 -0.5225
 2054SOL    HW2 7062   5.579   0.251   6.303 -2.2607 -0.6159 -1.6180
 2055SOL     OW 7063   0.955   4.758   5.041  0.2916  0.5533 -0.0860
 2055SOL    HW1 7064   0.956   4.803   4.951  0.3702  2.7854  0.9705
 2055SOL    HW2 7065   0.861   4.738   5.067  0.1296  1.5109  0.0811
 2056SOL     OW 7066   4.329   0.939   5.932 -0.0434 -0.5894 -0.2168
 2056SOL    HW1 7067   4.252   0.965   5.990  0.4112 -0.5518  0.3769
 2056SOL    HW2 7068   4.339   0.840   5.933  1.4074 -0.4882  1.6977
 2057SOL     OW 7069   5.038   3.593   0.625  0.0455  0.5102  0.1265
 2057SOL    HW1 7070   5.044   3.650   0.706  3.3323  1.7428 -0.8604
 2057SOL    HW2 7071   5.113   3.527   0.624 -0.4192 -0.0531 -1.5316
 2058SOL     OW 7072   3.904   4.872   3.355  0.3424 -0.4650 -0.9343
 2058SOL    HW1 7073   3.804   4.879   3.357  0.1577 -2.4498 -1.3546
 2058SOL    HW2 7074   3.934   4.850   3.262  1.2387  0.6175 -0.9266
 2059SOL     OW 7075   0.684   4.883   5.794 -0.6441 -0.3438 -0.7831
 2059SOL    HW1 7076   0.724   4.798   5.759 -0.7131 -0.4461 -0.6151
 2059SOL    HW2 7077   0.721   4.961   5.743  1.5526 -0.2229  0.8392
 2060SOL     OW 7078   6.240   6.003   5.337  0.6174 -0.3152 -0.3622
 2060SOL    HW1 7079   6.235   6.016   5.436 -1.4808 -1.6434 -0.2246
 2060SOL    HW2 7080   6.149   6.018   5.297  1.4289  0.2017 -2.0999
 2061SOL     OW 7081   4.050   3.755   0.367  0.0130  0.3976 -0.3183
 2061SOL    HW1 7082   4.137   3.801   0.346  0.5818 -0.9118 -0.9266
 2061SOL    HW2 7083   3.974   3.817   0.347  0.7728  1.2089 -0.7527
 2062SOL     OW 7084   0.374   3.654   6.435  0.0388  0.3319  0.4373
 2062SOL    HW1 7085   0.382   3.647   6.335 -3.4084 -0.2115  0.0754
 2062SOL    HW2 7086   0.322   3.736   6.458 -0.5430 -0.3521  1.6546
 2063SOL     OW 7087   3.880   4.859   2.138 -0.1468 -0.1911  0.0847
 2063SOL    HW1 7088   3.900   4.795   2.063  0.0813 -0.2346  0.1806
 2063SOL    HW2 7089   3.782   4.860   2.156 -0.5427  1.5477 -1.7688
 2064SOL     OW 7090   6.214   4.082   2.979 -0.3373  0.1272  0.6705
 2064SOL    HW1 7091   6.170   4.017   3.041 -0.2324 -1.2240 -0.6352
 2064SOL    HW2 7092   6.156   4.096   2.899  0.4739  0.2671  0.0997
 2065SOL     OW 7093   1.672   1.602   3.445  0.1241  0.3758  0.3260
 2065SOL    HW1 7094   1.708   1.685   3.402  0.6730  0.0985  0.2453
 2065SOL    HW2 7095   1.583   1.580   3.406  0.3399  0.4765 -0.2296
 2066SOL     OW 7096   1.152   6.888   3.429  0.2450  0.1913 -0.6878
 2066SOL    HW1 7097   1.099   6.896   3.514  0.7102 -0.0845 -0.3659
 2066SOL    HW2 7098   1.244   6.923   3.445  0.4100 -0.1018 -1.0122
 2067SOL     OW 7099   5.211   5.271   4.990 -0.0038  0.0088  0.5922
 2067SOL    HW1 7100   5.197   5.315   5.079 -0.0956  0.0855  0.5397
 2067SOL    HW2 7101   5.215   5.340   4.919  1.9886  0.1289  0.7406
 2068SOL     OW 7102   2.394   5.366   0.114 -0.2963  0.0159 -0.3390
 2068SOL    HW1 7103   2.397   5.442   0.179 -2.0112  0.5846 -0.8626
 2068SOL    HW2 7104   2.348   5.396   0.030  0.9637 -0.9965 -1.4279
 2069SOL     OW 7105   0.933   1.303   4.350  0.2634  0.0950  0.1061
 2069SOL    HW1 7106   0.865   1.337   4.415  0.3589 -1.0834  0.8614
 2069SOL    HW2 7107   0.892   1.293   4.260  0.1532  1.8519 -0.0829
 2070SOL     OW 7108   2.699   4.108   0.036 -0.2301 -0.0357 -0.6028
 2070SOL    HW1 7109   2.718   4.205   0.051 -2.0893  0.1851  0.6973
 2070SOL    HW2 7110   2.769   4.069  -0.023  1.6842  1.6075  0.4759
 2071SOL     OW 7111   1.236   2.016   3.472 -0.4641 -0.0685 -0.2111
 2071SOL    HW1 7112   1.198   2.011   3.380  0.0675  0.2738 -0.4558
 2071SOL    HW2 7113   1.331   1.983   3.471 -0.0181  1.1434 -0.0475
 2072SOL     OW 7114   2.389   3.802   6.762 -0.1194  0.5836 -0.3242
 2072SOL    HW1 7115   2.394   3.766   6.855 -1.8392  1.2055  0.0554
 2072SOL    HW2 7116   2.386   3.726   6.697 -0.2850  0.1038  0.2310
 2073SOL     OW 7117   6.125   1.361   1.950  0.4689 -0.6748 -0.1827
 2073SOL    HW1 7118   6.170   1.441   1.989  1.7000 -1.2341 -0.4041
 2073SOL    HW2 7119   6.093   1.382   1.858  0.0883 -0.2105  0.0522
 2074SOL     OW 7120   6.553   5.238   0.718  0.0502 -0.4990  0.0319
 2074SOL    HW1 7121   6.500   5.316   0.751  1.9870  0.5314  0.8129
 2074SOL    HW2 7122   6.550   5.164   0.785  0.1097 -0.2184  0.3419
 2075SOL     OW 7123   4.349   0.229   1.288  0.5513 -0.1524  0.1810
 2075SOL    HW1 7124   4.268   0.286   1.305 -0.3548 -0.9127 -1.3295
 2075SOL    HW2 7125   4.405   0.272   1.217  2.5681  1.3494  2.5186
 2076SOL     OW 7126   6.758   6.514   5.063 -0.3174 -0.0272  0.1297
 2076SOL    HW1 7127   6.698   6.458   5.006 -1.6797  1.7336 -0.2728
 2076SOL    HW2 7128   6.708   6.546   5.144  0.0390  1.4362 -0.1873
 2077SOL     OW 7129   3.067   5.162   3.019  0.0454 -0.4781 -0.0468
 2077SOL    HW1 7130   3.083   5.076   3.068 -0.7933 -2.9957 -3.8374
 2077SOL    HW2 7131   3.155   5.206   2.999  0.6891 -1.9258 -0.4585
 2078SOL     OW 7132   2.727   5.899   0.411 -0.4403  0.1046  0.0314
 2078SOL    HW1 7133   2.687   5.807   0.405 -0.0195 -0.0149 -1.3255
 2078SOL    HW2 7134   2.780   5.917   0.329 -0.3202  1.4841  0.3911
 2079SOL     OW 7135   2.526   6.407   4.581 -0.2137 -0.1592  0.5212
 2079SOL    HW1 7136   2.458   6.334   4.571 -1.0778  0.4962  1.4899
 2079SOL    HW2 7137   2.525   6.442   4.674  0.6829  0.6290  0.2548
 2080SOL     OW 7138   1.491   5.798   0.350  0.3554 -0.1908 -0.1802
 2080SOL    HW1 7139   1.530   5.748   0.427 -0.5459 -0.3364  0.1927
 2080SOL    HW2 7140   1.513   5.895   0.359 -0.5975 -0.0455  0.8349
 2081SOL     OW 7141   6.445   6.142   2.442 -0.0620  0.3869  0.5664
 2081SOL    HW1 7142   6.375   6.110   2.505  0.0240 -0.0207  0.4566
 2081SOL    HW2 7143   6.430   6.101   2.352 -0.0294  0.7575  0.3881
 2082SOL     OW 7144   1.885   2.124   4.885 -1.0745  0.5273  0.4861
 2082SOL    HW1 7145   1.870   2.144   4.788 -2.5997  0.3337  0.6679
 2082SOL    HW2 7146   1.893   2.025   4.898  0.6936  0.6176  0.3770
 2083SOL     OW 7147   4.481   1.114   6.086 -0.1333  0.0297  0.1157
 2083SOL    HW1 7148   4.433   1.106   6.174  0.1577 -0.7738  0.2119
 2083SOL    HW2 7149   4.439   1.051   6.020 -0.5769  0.8805 -0.4357
 2084SOL     OW 7150   4.802   2.646   6.685 -0.3520  0.3487 -0.8330
 2084SOL    HW1 7151   4.707   2.674   6.671 -0.7299 -0.6978 -0.4847
 2084SOL    HW2 7152   4.848   2.713   6.743 -1.3040  0.1272  0.2205
 2085SOL     OW 7153   6.503   4.879   2.744 -0.3399  0.0421 -0.0457
 2085SOL    HW1 7154   6.551   4.961   2.712 -1.7253  1.3656  1.0741
 2085SOL    HW2 7155   6.480   4.822   2.665  2.5375 -0.4235 -0.6580
 2086SOL     OW 7156   3.547   5.420   2.793  0.0627 -0.4730  0.7693
 2086SOL    HW1 7157   3.599   5.487   2.846  0.4804 -0.5955  0.5213
 2086SOL    HW2 7158   3.611   5.358   2.746 -0.1034  1.8728 -2.9063
 2087SOL     OW 7159   2.682   2.424   3.727  0.5982  0.2174  0.6885
 2087SOL    HW1 7160   2.596   2.378   3.707  0.0429  0.5901  2.1480
 2087SOL    HW2 7161   2.666   2.521   3.745  1.6893  0.9560 -1.7998
 2088SOL     OW 7162   3.703   6.374   0.592  0.1607 -0.1033  0.1801
 2088SOL    HW1 7163   3.736   6.388   0.686 -1.3123  0.7791  0.6163
 2088SOL    HW2 7164   3.691   6.276   0.575  1.0686 -0.3108  0.6761
 2089SOL     OW 7165   0.795   1.564   4.110 -0.1990 -0.5341 -0.0210
 2089SOL    HW1 7166   0.757   1.552   4.202 -1.2900  0.5833 -0.3092
 2089SOL    HW2 7167   0.807   1.661   4.091 -0.4912 -0.7299 -1.2604
 2090SOL     OW 7168   3.373   5.257   2.002  0.7019  0.2327  0.3354
 2090SOL    HW1 7169   3.317   5.302   2.071 -0.2012 -0.2100 -0.0828
 2090SOL    HW2 7170   3.398   5.323   1.931  0.0283  0.2711  0.1191
 2091SOL     OW 7171   1.293   2.381   1.552 -0.3608 -0.4869 -0.1733
 2091SOL    HW1 7172   1.347   2.299   1.566  1.1487  0.0523 -2.3577
 2091SOL    HW2 7173   1.306   2.443   1.630  0.4006 -1.2881  0.3538
 2092SOL     OW 7174   0.526   2.907   5.626 -0.0047  0.2160  0.1481
 2092SOL    HW1 7175   0.448   2.952   5.584 -0.9567 -0.1991  1.4212
 2092SOL    HW2 7176   0.498   2.821   5.668  1.5903 -1.1067 -1.3244
 2093SOL     OW 7177   5.553   1.122   4.228  0.5085 -0.2404 -0.1785
 2093SOL    HW1 7178   5.643   1.094   4.262  0.1426 -0.7207  0.4240
 2093SOL    HW2 7179   5.546   1.102   4.130  0.6526 -1.2641  0.0078
 2094SOL     OW 7180   4.512   6.053   2.991 -0.1917 -0.0565  0.0642
 2094SOL    HW1 7181   4.520   6.055   2.891 -0.8676 -3.3471 -0.1750
 2094SOL    HW2 7182   4.593   6.009   3.029 -1.9703 -3.2445  0.4512
 2095SOL     OW 7183   4.583   5.366   4.510  0.3410  0.0026  0.3786
 2095SOL    HW1 7184   4.628   5.300   4.450 -1.0789 -0.8328  0.1939
 2095SOL    HW2 7185   4.585   5.333   4.604  1.8203  0.9137  0.7053
 2096SOL     OW 7186   1.386   1.255   3.815 -0.4100 -0.0321  0.2054
 2096SOL    HW1 7187   1.416   1.268   3.909 -2.2325  0.2466  0.7879
 2096SOL    HW2 7188   1.442   1.312   3.754  0.7675 -0.2023  1.1045
 2097SOL     OW 7189   3.912   3.374   3.181  0.3894  0.4352  0.9618
 2097SOL    HW1 7190   3.820   3.412   3.177 -0.8846 -2.4777 -1.4455
 2097SOL    HW2 7191   3.929   3.337   3.273 -1.6725 -0.6786  0.9457
 2098SOL     OW 7192   3.164   6.519   0.820  0.2518  0.3463  0.1762
 2098SOL    HW1 7193   3.255   6.510   0.780 -0.0649 -0.0772 -0.4683
 2098SOL    HW2 7194   3.107   6.574   0.759 -0.1045  0.0801  0.2683
 2099SOL     OW 7195   6.090   2.248   6.013 -0.6001  0.0359 -0.2002
 2099SOL    HW1 7196   6.164   2.233   6.079 -0.5143 -1.4533 -0.5933
 2099SOL    HW2 7197   6.033   2.324   6.043 -0.9427 -0.9994  1.9446
 2100SOL     OW 7198   6.796   0.873   3.257  0.0794  0.2265 -0.2905
 2100SOL    HW1 7199   6.895   0.876   3.251  0.1836  0.9470  1.2882
 2100SOL    HW2 7200   6.768   0.858   3.352 -1.3250 -2.1535 -1.0046
 2101SOL     OW 7201   2.615   5.166   0.160 -0.0702  0.0164  0.0110
 2101SOL    HW1 7202   2.534   5.210   0.119  0.3825  0.1876 -0.7152
 2101SOL    HW2 7203   2.585   5.100   0.229 -0.8169  0.3676  0.0408
 2102SOL     OW 7204   1.150   4.869   2.878  0.4457 -0.7390  0.6932
 2102SOL    HW1 7205   1.124   4.927   2.801  2.1385  0.0097  0.6447
 2102SOL    HW2 7206   1.136   4.773   2.854 -0.9655 -0.4405  0.2258
 2103SOL     OW 7207   5.670   2.723   0.366 -0.0720 -0.2261  0.0634
 2103SOL    HW1 7208   5.717   2.698   0.450  0.7777  0.1105 -0.3014
 2103SOL    HW2 7209   5.574   2.745   0.386  0.2260  0.2517  0.9973
 2104SOL     OW 7210   3.601   3.909   6.362 -0.2633 -0.0731 -0.0060
 2104SOL    HW1 7211   3.509   3.939   6.388 -0.6134  1.0697 -2.2398
 2104SOL    HW2 7212   3.599   3.811   6.342 -1.2219  0.0712 -0.7423
 2105SOL     OW 7213   6.617   5.733   3.845 -0.2366  0.0561 -0.0436
 2105SOL    HW1 7214   6.615   5.831   3.825 -1.8985 -0.3434 -2.3282
 2105SOL    HW2 7215   6.662   5.685   3.769 -1.3324 -1.1130  0.0151
 2106SOL     OW 7216   4.846   2.442   6.320 -0.4633  0.6585 -0.3836
 2106SOL    HW1 7217   4.859   2.425   6.418 -1.9511  2.0523  0.0878
 2106SOL    HW2 7218   4.927   2.487   6.283  0.2169 -0.1103  0.1258
 2107SOL     OW 7219   1.971   0.213   2.445  0.7785  0.2797  0.3894
 2107SOL    HW1 7220   2.004   0.178   2.358  2.7430  2.0769  0.3184
 2107SOL    HW2 7221   2.049   0.231   2.505 -0.2284  2.4056  1.1702
 2108SOL     OW 7222   3.212   6.864   0.679 -0.4988  0.3744  0.2120
 2108SOL    HW1 7223   3.288   6.884   0.740  1.0660 -0.8987 -1.2174
 2108SOL    HW2 7224   3.155   6.946   0.668  0.8283  1.4449  1.0931
 2109SOL     OW 7225   5.728   1.570   0.241 -0.4524 -0.0508  0.1833
 2109SOL    HW1 7226   5.700   1.511   0.317  0.1245  0.6646  0.9620
 2109SOL    HW2 7227   5.648   1.594   0.186 -1.1951  0.8967  1.6130
 2110SOL     OW 7228   2.972   6.043   4.079  0.2527 -0.2164  0.0256
 2110SOL    HW1 7229   3.034   5.964   4.080  0.1291 -0.3347 -0.9785
 2110SOL    HW2 7230   2.886   6.018   4.123  1.0579  0.0953  1.8860
 2111SOL     OW 7231   1.495   2.628   5.518  0.0878 -0.0323 -0.2028
 2111SOL    HW1 7232   1.566   2.691   5.551  0.5269  0.8240 -2.6068
 2111SOL    HW2 7233   1.522   2.534   5.537  2.5728  0.1892 -2.2238
 2112SOL     OW 7234   4.763   6.564   4.410  0.3273 -0.2408  0.0397
 2112SOL    HW1 7235   4.792   6.610   4.494 -0.3367  1.6584 -0.7094
 2112SOL    HW2 7236   4.671   6.526   4.422  1.2252 -2.2654  0.9523
 2113SOL     OW 7237   2.231   0.183   2.588  0.2077 -0.4895  0.6428
 2113SOL    HW1 7238   2.305   0.250   2.592  0.1302 -0.3983  0.5265
 2113SOL    HW2 7239   2.261   0.103   2.536  0.3502 -0.6083  0.9034
 2114SOL     OW 7240   5.117   5.449   6.202 -0.0407  0.5734  0.3696
 2114SOL    HW1 7241   5.155   5.370   6.249  1.0394  1.2240  0.6292
 2114SOL    HW2 7242   5.039   5.421   6.146  1.7489 -1.1084 -1.4387
 2115SOL     OW 7243   5.189   1.715   6.203  0.4003 -0.3562 -0.3601
 2115SOL    HW1 7244   5.105   1.675   6.239 -0.0696  0.5213 -0.4472
 2115SOL    HW2 7245   5.268   1.666   6.239 -0.1076 -0.4133  0.6998
 2116SOL     OW 7246   0.544   2.535   1.931  0.2006 -0.1219  0.3741
 2116SOL    HW1 7247   0.565   2.628   1.962  0.5824  0.3448 -1.1903
 2116SOL    HW2 7248   0.561   2.471   2.006  0.6055  0.9910  1.2697
 2117SOL     OW 7249   1.905   1.175   0.662 -0.1830 -0.4217  0.1489
 2117SOL    HW1 7250   1.887   1.205   0.756  1.5544  0.1330  0.3360
 2117SOL    HW2 7251   1.821   1.183   0.609 -1.0790 -0.2737  1.5199
 2118SOL     OW 7252   3.937   0.838   2.233  0.0276  0.2867  0.3215
 2118SOL    HW1 7253   3.927   0.806   2.327  3.2469 -0.7053  0.4434
 2118SOL    HW2 7254   3.931   0.937   2.230 -2.0616  0.2366  1.2044
 2119SOL     OW 7255   6.708   3.525   0.261  0.3548 -0.6778 -0.0970
 2119SOL    HW1 7256   6.797   3.491   0.292  0.7365 -0.1914 -0.6424
 2119SOL    HW2 7257   6.686   3.610   0.307 -0.2198 -1.2172  0.6506
 2120SOL     OW 7258   2.257   0.933   0.402  0.1073  0.4058 -0.1299
 2120SOL    HW1 7259   2.187   0.968   0.463  1.1328  2.6984 -0.1570
 2120SOL    HW2 7260   2.338   0.908   0.455 -0.5560 -2.0054 -0.1233
 2121SOL     OW 7261   5.891   1.472   5.444  0.3339 -0.2991 -0.0751
 2121SOL    HW1 7262   5.920   1.528   5.521 -0.1342  0.4021 -0.4002
 2121SOL    HW2 7263   5.891   1.527   5.360 -2.6913  0.0467  0.0188
 2122SOL     OW 7264   3.336   0.734   4.008  0.4201 -0.3586  0.6822
 2122SOL    HW1 7265   3.318   0.797   4.083  1.0853  0.3176  0.2821
 2122SOL    HW2 7266   3.264   0.744   3.939  0.2634 -0.3843  0.8406
 2123SOL     OW 7267   4.499   4.923   0.830 -0.1936  0.9454 -0.2404
 2123SOL    HW1 7268   4.463   4.839   0.789  1.3971 -0.8261  1.7638
 2123SOL    HW2 7269   4.594   4.936   0.799 -0.2349  1.6879 -0.0683
 2124SOL     OW 7270   4.024   5.094   5.599  0.0749 -0.4855  0.5201
 2124SOL    HW1 7271   4.100   5.034   5.571  0.9619  1.0468 -0.4993
 2124SOL    HW2 7272   3.981   5.131   5.517 -1.2714 -0.6861  1.1206
 2125SOL     OW 7273   1.271   1.144   5.404  0.0719  0.2074  0.0504
 2125SOL    HW1 7274   1.295   1.201   5.325 -0.0685  0.2346  0.0276
 2125SOL    HW2 7275   1.199   1.189   5.457 -0.4290 -0.2098 -0.2766
 2126SOL     OW 7276   1.193   3.574   2.680 -0.1081 -0.3338  0.1772
 2126SOL    HW1 7277   1.268   3.529   2.631  0.6432 -0.8456  1.7466
 2126SOL    HW2 7278   1.219   3.588   2.775 -2.7444 -2.3675  1.3202
 2127SOL     OW 7279   1.401   4.253   4.488 -0.5051  0.0055 -0.1711
 2127SOL    HW1 7280   1.434   4.161   4.467  0.4998  0.8620 -2.6836
 2127SOL    HW2 7281   1.441   4.284   4.574 -0.6572 -1.7764  0.5774
 2128SOL     OW 7282   1.869   3.291   5.743  0.3704  0.0494 -0.5111
 2128SOL    HW1 7283   1.833   3.199   5.759  1.3491  0.0420  2.0152
 2128SOL    HW2 7284   1.805   3.341   5.685 -2.7411 -0.6143  2.0661
 2129SOL     OW 7285   4.947   1.090   3.185 -0.0244  0.4722 -0.1479
 2129SOL    HW1 7286   4.915   1.036   3.107  0.3159  1.9412 -1.3316
 2129SOL    HW2 7287   4.945   1.033   3.267 -0.0100 -1.2371 -1.2845
 2130SOL     OW 7288   6.229   6.396   4.017  0.5063 -0.4394  0.6602
 2130SOL    HW1 7289   6.312   6.444   3.989 -0.3279 -0.1361 -1.4835
 2130SOL    HW2 7290   6.171   6.457   4.070  0.1125  0.5265 -0.8163
 2131SOL     OW 7291   3.413   5.677   3.646 -0.5140 -0.0087 -0.1063
 2131SOL    HW1 7292   3.356   5.743   3.694  0.4108  0.1402  0.8100
 2131SOL    HW2 7293   3.362   5.639   3.568 -1.6881  0.4421  0.4269
 2132SOL     OW 7294   2.256   3.461   6.839 -0.2862 -0.9445  0.1134
 2132SOL    HW1 7295   2.301   3.443   6.926 -0.7292  1.2355  0.8537
 2132SOL    HW2 7296   2.318   3.513   6.780 -0.6804 -0.7355 -0.1186
 2133SOL     OW 7297   4.167   3.891   1.103  0.0585 -0.6265 -0.4050
 2133SOL    HW1 7298   4.096   3.926   1.042 -0.6540 -0.2097  0.6331
 2133SOL    HW2 7299   4.210   3.967   1.152 -0.3575 -1.0564  0.6525
 2134SOL     OW 7300   1.422   1.824   6.679  0.1816 -0.7943 -0.5976
 2134SOL    HW1 7301   1.485   1.877   6.736 -1.7226  0.2943  0.6093
 2134SOL    HW2 7302   1.410   1.733   6.718 -1.7798  0.2222  1.3977
 2135SOL     OW 7303   5.060   5.261   2.032  0.0417 -0.4149 -0.0453
 2135SOL    HW1 7304   5.109   5.306   1.958 -0.4173  0.8786  0.4027
 2135SOL    HW2 7305   5.064   5.318   2.114 -0.4100 -1.2925  0.6054
 2136SOL     OW 7306   3.706   4.973   4.794  0.0318  0.1712  0.1797
 2136SOL    HW1 7307   3.651   4.909   4.740 -0.8542  0.9033  0.1883
 2136SOL    HW2 7308   3.802   4.963   4.770 -0.1371 -0.8734 -0.1128
 2137SOL     OW 7309   6.528   0.943   1.518  0.0815 -0.2736 -0.7262
 2137SOL    HW1 7310   6.580   1.018   1.477 -0.3412 -0.5450 -1.7860
 2137SOL    HW2 7311   6.441   0.932   1.470  0.2119 -1.5532 -0.7148
 2138SOL     OW 7312   2.482   5.803   1.948 -0.0037 -0.0637 -0.5372
 2138SOL    HW1 7313   2.523   5.756   1.870 -1.9284 -1.0632 -1.0211
 2138SOL    HW2 7314   2.436   5.886   1.918 -1.0320 -0.6204 -0.5722
 2139SOL     OW 7315   5.817   6.249   2.678 -0.2191 -0.3714  0.3695
 2139SOL    HW1 7316   5.729   6.248   2.631 -1.2245  0.1174  2.1310
 2139SOL    HW2 7317   5.878   6.315   2.634 -1.2460  0.3401 -0.0203
 2140SOL     OW 7318   1.595   4.755   5.145  0.3319 -0.0210 -0.6401
 2140SOL    HW1 7319   1.641   4.833   5.187  3.1947 -1.2703 -1.1731
 2140SOL    HW2 7320   1.604   4.675   5.205 -1.9130 -0.1680 -0.4304
 2141SOL     OW 7321   5.368   4.917   1.288 -0.4454 -0.5092 -0.0770
 2141SOL    HW1 7322   5.345   4.867   1.372 -2.0690 -0.3224 -0.3819
 2141SOL    HW2 7323   5.294   4.979   1.265 -0.3516 -1.0581 -2.0344
 2142SOL     OW 7324   6.866   1.023   5.975  0.1413  0.0568 -0.8403
 2142SOL    HW1 7325   6.785   1.052   5.925 -0.2993 -0.1267 -0.2436
 2142SOL    HW2 7326   6.913   1.104   6.012 -0.1700  0.1212 -0.5792
 2143SOL     OW 7327   6.542   3.746   5.179  0.3408  0.3383 -0.3869
 2143SOL    HW1 7328   6.505   3.799   5.255  1.2779  1.3768 -0.6158
 2143SOL    HW2 7329   6.584   3.662   5.213 -1.4408 -0.4730 -0.0484
 2144SOL     OW 7330   5.669   5.690   3.884 -0.0991 -0.1973 -0.1616
 2144SOL    HW1 7331   5.597   5.752   3.853  0.4648  0.8226  0.4813
 2144SOL    HW2 7332   5.686   5.706   3.982  1.4534  0.0969 -0.4545
 2145SOL     OW 7333   1.726   5.386   3.843 -0.6373 -0.5068 -0.0612
 2145SOL    HW1 7334   1.630   5.387   3.812 -0.4747 -0.2649 -0.5681
 2145SOL    HW2 7335   1.781   5.441   3.780 -0.8716  3.1116  2.5332
 2146SOL     OW 7336   6.580   6.405   4.605  0.1612  0.5853  0.5800
 2146SOL    HW1 7337   6.609   6.500   4.600  0.6494  0.4025 -0.2485
 2146SOL    HW2 7338   6.657   6.345   4.585 -0.6683  0.0801 -1.3641
 2147SOL     OW 7339   2.499   3.693   6.272  0.0740 -0.0246 -0.0884
 2147SOL    HW1 7340   2.479   3.597   6.250 -1.8782  0.3078  0.0517
 2147SOL    HW2 7341   2.457   3.752   6.202 -0.2288  0.7849  0.7637
 2148SOL     OW 7342   6.274   1.149   1.120 -0.0556  0.5827  0.3831
 2148SOL    HW1 7343   6.235   1.228   1.073  0.0773  1.2855  1.4314
 2148SOL    HW2 7344   6.349   1.178   1.179  0.9502 -0.5233 -0.2903
 2149SOL     OW 7345   1.332   4.881   5.036  0.4821 -0.6976  0.3632
 2149SOL    HW1 7346   1.258   4.843   5.091  0.3382 -0.1176  0.5766
 2149SOL    HW2 7347   1.420   4.849   5.073  0.3931 -0.1911  1.0293
 2150SOL     OW 7348   6.630   3.341   5.982 -0.3483  0.0524  0.2576
 2150SOL    HW1 7349   6.600   3.254   6.020 -1.3204 -0.4146 -1.4657
 2150SOL    HW2 7350   6.615   3.414   6.049 -1.9262 -0.7281  0.7967
 2151SOL     OW 7351   0.736   3.757   3.313  0.0946  0.1977  0.5706
 2151SOL    HW1 7352   0.656   3.700   3.297 -1.1522  1.8211  0.7595
 2151SOL    HW2 7353   0.782   3.776   3.227  1.0366 -1.7295  0.5930
 2152SOL     OW 7354   6.010   4.641   4.032  0.2107  0.1592  0.0189
 2152SOL    HW1 7355   6.028   4.723   4.086  1.1911 -0.1961  0.2510
 2152SOL    HW2 7356   6.061   4.564   4.070 -3.0486 -1.3571  1.7251
 2153SOL     OW 7357   6.885   1.195   0.079  0.9005  0.6401 -0.1410
 2153SOL    HW1 7358   6.855   1.179   0.173 -1.5375  0.0499 -0.9328
 2153SOL    HW2 7359   6.825   1.263   0.036  2.3688  1.3838 -1.1172
 2154SOL     OW 7360   2.219   5.735   6.417  0.4983 -0.4427 -0.1767
 2154SOL    HW1 7361   2.214   5.785   6.330  0.5158 -0.1514 -0.0096
 2154SOL    HW2 7362   2.136   5.681   6.429 -0.1509  0.6271  0.2978
 2155SOL     OW 7363   4.698   5.073   0.647 -0.4861 -0.1186 -0.0667
 2155SOL    HW1 7364   4.688   4.983   0.604 -1.1986  1.9494 -4.9196
 2155SOL    HW2 7365   4.788   5.110   0.624  0.0558  0.2722  2.4164
 2156SOL     OW 7366   1.347   5.167   0.539  0.3475  0.0047 -0.1447
 2156SOL    HW1 7367   1.293   5.180   0.455  0.0924  0.2818  0.0588
 2156SOL    HW2 7368   1.304   5.097   0.596  1.1680 -1.0475 -0.7769
 2157SOL     OW 7369   2.297   3.344   0.366  0.0416  0.4428  0.0717
 2157SOL    HW1 7370   2.269   3.309   0.455 -0.5939  0.1626 -0.2267
 2157SOL    HW2 7371   2.253   3.289   0.294 -2.8603  3.1818 -0.4613
 2158SOL     OW 7372   2.948   0.379   3.102  0.0491  0.2673  0.2412
 2158SOL    HW1 7373   2.923   0.289   3.065 -1.2859  0.3431  0.9054
 2158SOL    HW2 7374   3.038   0.405   3.067 -0.6740 -0.1353 -2.0896
 2159SOL     OW 7375   2.447   4.418   5.157  0.2267  0.4252  0.1429
 2159SOL    HW1 7376   2.527   4.457   5.201  0.1083 -1.0266  1.7664
 2159SOL    HW2 7377   2.428   4.328   5.197 -2.8754  1.1797  0.6588
 2160SOL     OW 7378   2.177   5.349   5.468  0.3244  0.0178 -0.0285
 2160SOL    HW1 7379   2.147   5.299   5.549  1.5263  0.7421  0.9005
 2160SOL    HW2 7380   2.203   5.285   5.396  0.0716 -0.6551  0.4746
 2161SOL     OW 7381   1.185   1.652   5.309 -0.8804  0.0624 -0.2033
 2161SOL    HW1 7382   1.145   1.666   5.399  0.2641 -0.3511  0.3870
 2161SOL    HW2 7383   1.280   1.621   5.319 -0.6812  0.1874 -1.5492
 2162SOL     OW 7384   2.998   5.671   2.200  0.5867 -0.1418  0.0056
 2162SOL    HW1 7385   2.982   5.610   2.277 -1.1177 -1.6017 -1.4288
 2162SOL    HW2 7386   3.097   5.680   2.185  0.8988 -1.3071  1.1933
 2163SOL     OW 7387   1.873   1.949   1.592 -0.2425 -0.2506 -0.5007
 2163SOL    HW1 7388   1.774   1.935   1.602  0.0444 -1.8433  0.3219
 2163SOL    HW2 7389   1.908   1.996   1.673  0.1619 -2.6524  0.8196
 2164SOL     OW 7390   0.700   5.121   0.751 -0.1217  0.0998 -0.0532
 2164SOL    HW1 7391   0.614   5.088   0.714  0.1388  0.7309 -1.2591
 2164SOL    HW2 7392   0.696   5.121   0.851 -1.9975  1.3737 -0.0894
 2165SOL     OW 7393   0.510   4.186   2.262  0.3380  0.0207  0.0173
 2165SOL    HW1 7394   0.478   4.235   2.343  1.3563 -1.9736  1.7212
 2165SOL    HW2 7395   0.601   4.218   2.237  0.2382  0.2707 -0.0303
 2166SOL     OW 7396   5.678   1.101   2.026 -0.5540 -0.3287 -0.0501
 2166SOL    HW1 7397   5.767   1.138   2.049 -0.7623  1.3323 -1.6899
 2166SOL    HW2 7398   5.606   1.157   2.066 -0.8581 -0.2911 -0.6287
 2167SOL     OW 7399   2.396   3.357   1.062 -0.2901 -0.0701 -0.5002
 2167SOL    HW1 7400   2.409   3.335   1.159 -3.5710 -2.0343 -0.3384
 2167SOL    HW2 7401   2.384   3.455   1.051 -3.2856 -0.0194  1.7760
 2168SOL     OW 7402   2.350   0.624   6.660 -0.3557 -0.8529  0.6374
 2168SOL    HW1 7403   2.352   0.683   6.740 -0.9715  0.3317 -0.1904
 2168SOL    HW2 7404   2.255   0.608   6.633 -0.1503  0.7526 -1.2470
 2169SOL     OW 7405   3.516   0.732   2.343 -0.1535  0.3558 -0.1671
 2169SOL    HW1 7406   3.535   0.695   2.434 -2.4354 -1.3950 -0.3007
 2169SOL    HW2 7407   3.565   0.818   2.331  2.9145 -1.0315  1.3823
 2170SOL     OW 7408   2.324   1.541   4.789 -0.6044 -0.1045 -0.3871
 2170SOL    HW1 7409   2.403   1.507   4.739  0.2311 -0.9471  1.4071
 2170SOL    HW2 7410   2.246   1.480   4.775 -0.4211 -0.2564 -0.7439
 2171SOL     OW 7411   6.511   3.496   5.773 -0.2054 -0.5449  0.2182
 2171SOL    HW1 7412   6.537   3.427   5.841  1.3074 -1.6838 -1.4275
 2171SOL    HW2 7413   6.432   3.548   5.807 -0.2756 -1.8797  2.2785
 2172SOL     OW 7414   6.023   0.976   3.588 -0.4052  0.8616  0.7791
 2172SOL    HW1 7415   6.052   1.061   3.543 -4.5286  1.0803 -2.1220
 2172SOL    HW2 7416   5.928   0.986   3.618 -0.1000 -1.8633  2.9894
 2173SOL     OW 7417   2.106   1.553   0.781 -0.2273 -0.2278  0.1417
 2173SOL    HW1 7418   2.195   1.508   0.792  1.4024  2.0999 -2.2275
 2173SOL    HW2 7419   2.120   1.650   0.764 -3.2252  0.1470 -0.7774
 2174SOL     OW 7420   0.168   4.132   4.474  0.0398  0.1720  0.7092
 2174SOL    HW1 7421   0.175   4.187   4.557 -0.3808  2.0748 -0.4548
 2174SOL    HW2 7422   0.072   4.123   4.447  0.2029 -0.0680  0.1871
 2175SOL     OW 7423   2.799   4.444   5.431  0.5549 -0.2505 -0.0057
 2175SOL    HW1 7424   2.855   4.462   5.350 -0.3238  0.1542 -0.5397
 2175SOL    HW2 7425   2.741   4.365   5.414 -1.1164  1.0475 -0.5825
 2176SOL     OW 7426   3.342   6.092   3.347 -0.1109 -0.4107  0.0943
 2176SOL    HW1 7427   3.363   6.169   3.408 -2.5649  1.0254 -0.7691
 2176SOL    HW2 7428   3.418   6.079   3.283  1.3209 -0.2111  1.6823
 2177SOL     OW 7429   5.416   3.018   6.987  0.1514  0.0623  0.0503
 2177SOL    HW1 7430   5.435   2.925   6.955 -1.1326 -0.8972  1.8761
 2177SOL    HW2 7431   5.496   3.054   7.035  2.0442  1.4532 -3.7359
 2178SOL     OW 7432   3.885   0.663   3.535  0.0325  0.9879  0.7381
 2178SOL    HW1 7433   3.951   0.701   3.600  0.9903 -0.9591  0.9995
 2178SOL    HW2 7434   3.925   0.583   3.491 -1.1486  1.4157 -1.2144
 2179SOL     OW 7435   4.026   5.331   6.207  0.0691 -0.2011 -0.4187
 2179SOL    HW1 7436   3.967   5.255   6.235  1.4728 -1.0783  0.2617
 2179SOL    HW2 7437   3.972   5.415   6.202 -1.0931 -0.8378  0.8479
 2180SOL     OW 7438   5.676   3.844   6.132  0.5525 -0.0132  0.0228
 2180SOL    HW1 7439   5.763   3.804   6.161  1.9096  1.6710 -1.3995
 2180SOL    HW2 7440   5.636   3.787   6.060 -1.8184 -3.1088  3.4496
 2181SOL     OW 7441   6.660   1.131   2.260 -0.5254  0.1074  0.5784
 2181SOL    HW1 7442   6.631   1.199   2.328 -1.4894 -1.3899  1.7048
 2181SOL    HW2 7443   6.592   1.125   2.187 -1.2687 -0.7766  1.3209
 2182SOL     OW 7444   2.078   4.864   2.473  0.3544 -0.0428 -0.3772
 2182SOL    HW1 7445   2.148   4.935   2.478 -0.3779  0.6394  0.3731
 2182SOL    HW2 7446   2.069   4.834   2.378  1.9380 -0.4463 -0.4346
 2183SOL     OW 7447   0.991   2.824   3.337 -0.3125 -0.4663  0.0671
 2183SOL    HW1 7448   0.941   2.908   3.359  0.1039 -0.3213  0.4857
 2183SOL    HW2 7449   1.015   2.824   3.240 -1.0180 -0.4847 -0.1120
 2184SOL     OW 7450   4.181   0.579   0.803  0.3924  0.1272 -0.1126
 2184SOL    HW1 7451   4.192   0.561   0.706  1.8336 -0.3111  0.1085
 2184SOL    HW2 7452   4.134   0.502   0.847  1.1006 -0.3685 -0.2113
 2185SOL     OW 7453   5.291   2.802   1.793  0.7961 -0.2852  0.1273
 2185SOL    HW1 7454   5.337   2.832   1.876  2.1381 -2.5060  0.2704
 2185SOL    HW2 7455   5.322   2.856   1.715  2.1745 -0.4206  0.5536
 2186SOL     OW 7456   0.553   4.427   0.316  0.0252 -0.0312  0.2335
 2186SOL    HW1 7457   0.631   4.484   0.343 -1.2798  1.4638  1.0222
 2186SOL    HW2 7458   0.516   4.460   0.229  0.0320 -0.5032  0.0471
 2187SOL     OW 7459   5.196   4.481   3.600 -0.2388  0.3619  0.3329
 2187SOL    HW1 7460   5.236   4.523   3.519  1.9049 -0.9093  0.6683
 2187SOL    HW2 7461   5.225   4.386   3.606 -0.7021  0.3033  2.3661
 2188SOL     OW 7462   2.850   3.009   6.402 -0.4366 -0.3261  0.5314
 2188SOL    HW1 7463   2.916   2.937   6.426 -0.6780  0.1412  2.7786
 2188SOL    HW2 7464   2.764   2.993   6.450 -0.9590  0.7495 -0.0049
 2189SOL     OW 7465   2.463   2.630   5.351  0.0253 -0.3392 -0.0247
 2189SOL    HW1 7466   2.470   2.669   5.260 -0.9680  1.1005  0.4781
 2189SOL    HW2 7467   2.438   2.701   5.417  2.2912 -0.9834  1.6775
 2190SOL     OW 7468   0.943   0.199   3.371  0.6521 -0.0635  0.2103
 2190SOL    HW1 7469   0.901   0.162   3.454  0.4267 -1.9061 -0.6817
 2190SOL    HW2 7470   0.970   0.124   3.311  2.0408  1.1963 -0.8052
 2191SOL     OW 7471   2.906   2.786   0.475 -0.3421 -0.3225  0.1540
 2191SOL    HW1 7472   2.824   2.835   0.445  0.9852  1.8794 -0.1359
 2191SOL    HW2 7473   2.888   2.742   0.563 -2.5174 -1.9436 -1.0125
 2192SOL     OW 7474   0.492   0.536   0.171 -0.0474  0.1769  0.1113
 2192SOL    HW1 7475   0.425   0.532   0.246  2.4328 -0.9451  2.4438
 2192SOL    HW2 7476   0.479   0.621   0.120 -0.2823  2.3598  3.4499
 2193SOL     OW 7477   4.159   3.457   0.295 -0.5089 -0.1757 -0.2464
 2193SOL    HW1 7478   4.233   3.469   0.361 -1.4243  1.1462  0.5820
 2193SOL    HW2 7479   4.112   3.544   0.282 -0.5998 -0.4875 -2.3805
 2194SOL     OW 7480   6.479   3.970   1.205  0.1020 -0.2685 -0.0775
 2194SOL    HW1 7481   6.415   4.040   1.176  0.1916 -0.2120 -0.1382
 2194SOL    HW2 7482   6.476   3.893   1.141  1.3220  0.4558 -1.0506
 2195SOL     OW 7483   0.066   4.434   6.699  0.1159 -0.0890  0.0575
 2195SOL    HW1 7484  -0.016   4.385   6.670  0.1122  1.0377 -2.0255
 2195SOL    HW2 7485   0.055   4.532   6.682  0.9895  0.4185  2.0403
 2196SOL     OW 7486   1.586   3.529   2.469 -0.1904  0.0569 -0.1280
 2196SOL    HW1 7487   1.679   3.496   2.480 -0.2865  0.4633  2.6590
 2196SOL    HW2 7488   1.569   3.551   2.373  2.5536 -0.0330 -0.7010
 2197SOL     OW 7489   4.023   6.650   5.554  0.5436 -0.0631 -0.5524
 2197SOL    HW1 7490   4.108   6.599   5.560  1.0557  0.8519  0.1921
 2197SOL    HW2 7491   3.954   6.607   5.612  0.6025 -0.5798 -0.8566
 2198SOL     OW 7492   3.459   4.367   0.503  0.8059  0.5656 -0.5581
 2198SOL    HW1 7493   3.381   4.307   0.523  1.3733 -0.0891 -0.3057
 2198SOL    HW2 7494   3.540   4.312   0.486  1.4795  1.2767  0.3076
 2199SOL     OW 7495   1.063   2.133   1.205  0.1650 -0.4562  0.1421
 2199SOL    HW1 7496   1.071   2.230   1.228 -0.9265 -0.3290  0.0475
 2199SOL    HW2 7497   1.151   2.098   1.174  0.3746  0.7222 -0.6348
 2200SOL     OW 7498   3.722   5.659   6.324  0.6430 -0.5960  0.0390
 2200SOL    HW1 7499   3.787   5.687   6.394 -1.7298  1.5359  1.5343
 2200SOL    HW2 7500   3.668   5.581   6.357  0.9273 -0.9346 -0.2888
 2201SOL     OW 7501   3.545   4.221   0.111  0.0228  0.2133 -0.2723
 2201SOL    HW1 7502   3.498   4.297   0.157  1.3544  1.2363 -0.5525
 2201SOL    HW2 7503   3.495   4.197   0.028 -1.1271 -0.0993  0.4881
 2202SOL     OW 7504   1.651   4.683   1.808 -0.2717 -0.0885  0.0269
 2202SOL    HW1 7505   1.592   4.753   1.769 -0.3090 -0.9675 -1.6039
 2202SOL    HW2 7506   1.596   4.615   1.856 -0.4567 -0.1768 -0.3079
 2203SOL     OW 7507   3.141   5.035   0.345  0.3794  0.2841 -0.0777
 2203SOL    HW1 7508   3.199   5.015   0.424  0.9728  0.5967 -0.4226
 2203SOL    HW2 7509   3.140   4.956   0.283 -2.1955 -1.0254  1.4470
 2204SOL     OW 7510   3.886   6.981   4.096  0.1327  0.1408 -0.0430
 2204SOL    HW1 7511   3.790   7.008   4.094 -0.2549 -1.2146 -0.9994
 2204SOL    HW2 7512   3.906   6.921   4.018  1.9862  1.1454 -0.4029
 2205SOL     OW 7513   0.717   5.375   5.820  0.2104 -0.2098  0.5401
 2205SOL    HW1 7514   0.620   5.357   5.801 -0.1249 -1.7777  3.2335
 2205SOL    HW2 7515   0.728   5.400   5.916  2.3742  1.3202 -0.0286
 2206SOL     OW 7516   6.556   6.684   3.165 -0.6208  0.4323 -0.5840
 2206SOL    HW1 7517   6.606   6.700   3.080  0.3783 -2.8653 -0.7545
 2206SOL    HW2 7518   6.620   6.668   3.239 -1.4905  1.1116  0.3422
 2207SOL     OW 7519   3.225   0.082   6.202  0.0554 -0.2406 -0.1382
 2207SOL    HW1 7520   3.164   0.117   6.132 -0.8472 -0.0967  0.6951
 2207SOL    HW2 7521   3.255   0.157   6.261  0.1938 -0.4681  0.0844
 2208SOL     OW 7522   5.963   0.205   3.031 -0.0353  0.0797  0.0725
 2208SOL    HW1 7523   6.020   0.129   3.063  0.9423  0.3259 -1.0052
 2208SOL    HW2 7524   5.973   0.215   2.932 -0.2375  1.5302  0.1702
 2209SOL     OW 7525   2.585   6.715   6.574 -0.1370  0.1423  0.3460
 2209SOL    HW1 7526   2.660   6.781   6.568 -1.4051  1.5932 -0.1286
 2209SOL    HW2 7527   2.620   6.622   6.560  1.5139  0.8117 -0.1134
 2210SOL     OW 7528   3.115   1.316   3.711  0.3732  0.2400 -0.3432
 2210SOL    HW1 7529   3.049   1.243   3.691  0.0887 -0.1254  1.7184
 2210SOL    HW2 7530   3.072   1.405   3.699 -0.5476  0.0037  0.9731
 2211SOL     OW 7531   5.290   3.383   0.866  0.2552  0.3133  0.6265
 2211SOL    HW1 7532   5.260   3.426   0.951 -0.5048  0.7685  0.1446
 2211SOL    HW2 7533   5.267   3.286   0.868 -2.2933  0.8295 -0.1398
 2212SOL     OW 7534   3.352   3.934   5.304  0.1480 -0.1838  0.0469
 2212SOL    HW1 7535   3.286   3.859   5.308 -1.6552  1.2266 -1.6827
 2212SOL    HW2 7536   3.428   3.908   5.245 -0.5606 -0.5901 -0.7084
 2213SOL     OW 7537   5.096   3.349   0.302 -0.3711 -0.0145  0.6014
 2213SOL    HW1 7538   5.189   3.375   0.279 -0.1668  1.8740  3.1431
 2213SOL    HW2 7539   5.032   3.390   0.236  0.4362  1.2016  0.5483
 2214SOL     OW 7540   2.987   6.845   3.336 -0.3604 -0.0367 -0.1780
 2214SOL    HW1 7541   2.921   6.780   3.373  0.4518 -0.8631 -0.1419
 2214SOL    HW2 7542   2.942   6.932   3.319 -2.2140 -1.3860 -2.9246
 2215SOL     OW 7543   1.451   6.566   5.391 -0.4577 -0.3947  0.4551
 2215SOL    HW1 7544   1.511   6.645   5.384 -1.0954 -0.0485 -2.4478
 2215SOL    HW2 7545   1.355   6.597   5.394 -0.6335 -1.0160  2.0670
 2216SOL     OW 7546   6.679   3.325   6.906 -0.0151  0.0146 -0.0559
 2216SOL    HW1 7547   6.750   3.281   6.961 -0.3530 -1.7791 -0.9943
 2216SOL    HW2 7548   6.644   3.261   6.838 -0.7931  1.6508 -1.2722
 2217SOL     OW 7549   3.943   3.145   1.881 -0.0517  0.3211 -0.2860
 2217SOL    HW1 7550   3.848   3.114   1.888  0.3023 -0.5574  0.8386
 2217SOL    HW2 7551   3.977   3.170   1.972  0.3374  2.0710 -0.8719
 2218SOL     OW 7552   3.915   6.008   0.572 -0.3364 -0.0844 -0.4027
 2218SOL    HW1 7553   3.849   6.079   0.548 -0.3470  0.1347  0.2491
 2218SOL    HW2 7554   3.954   6.027   0.662 -0.8990 -1.3000  0.1237
 2219SOL     OW 7555   6.027   4.476   0.507  0.9677 -0.1520  0.7767
 2219SOL    HW1 7556   5.953   4.411   0.491  0.5443  0.3761  0.5270
 2219SOL    HW2 7557   6.068   4.502   0.419  0.7590  0.3364  0.8183
 2220SOL     OW 7558   1.589   6.911   0.368 -0.3013 -0.0769 -0.0236
 2220SOL    HW1 7559   1.558   6.937   0.276  1.2681 -0.8004 -0.7869
 2220SOL    HW2 7560   1.522   6.942   0.435 -1.2664  0.8659 -1.3662
 2221SOL     OW 7561   4.695   4.567   6.266 -0.2480 -0.3623 -0.1774
 2221SOL    HW1 7562   4.627   4.593   6.197  0.6148  0.9604 -0.5630
 2221SOL    HW2 7563   4.763   4.507   6.224  0.2247  0.3671 -0.4872
 2222SOL     OW 7564   6.230   4.530   1.646  0.1068  0.0196 -0.1386
 2222SOL    HW1 7565   6.281   4.444   1.645  1.0387  0.5048  1.6857
 2222SOL    HW2 7566   6.141   4.516   1.603  0.0985 -1.9573  0.4221
 2223SOL     OW 7567   5.686   1.537   6.057 -0.4631 -0.1582 -0.2995
 2223SOL    HW1 7568   5.635   1.616   6.024  1.3610  0.6893 -1.2155
 2223SOL    HW2 7569   5.688   1.537   6.157 -1.0711  0.5512 -0.2859
 2224SOL     OW 7570   0.709   3.215   5.095 -0.0009 -0.2950  0.4433
 2224SOL    HW1 7571   0.704   3.148   5.020 -1.1436  0.4430 -0.1668
 2224SOL    HW2 7572   0.709   3.166   5.182 -2.1165 -1.1138  0.0546
 2225SOL     OW 7573   0.139   1.634   3.716  0.0386  0.2768  0.5417
 2225SOL    HW1 7574   0.084   1.671   3.791  0.4031 -0.6882  1.2960
 2225SOL    HW2 7575   0.204   1.703   3.685  2.4364 -0.4185  3.5750
 2226SOL     OW 7576   6.260   3.529   0.038 -0.7043  0.8601  0.8047
 2226SOL    HW1 7577   6.235   3.547   0.134  0.9303  0.4164  1.3336
 2226SOL    HW2 7578   6.359   3.517   0.030 -0.9831 -0.8861 -0.6609
 2227SOL     OW 7579   2.373   6.086   6.954 -0.7614  0.3653  0.1078
 2227SOL    HW1 7580   2.375   6.169   7.011  2.8059  0.2936  0.3552
 2227SOL    HW2 7581   2.398   6.110   6.860 -0.4028 -0.3241  0.0242
 2228SOL     OW 7582   6.192   0.662   2.692  0.3607 -1.0770  0.3277
 2228SOL    HW1 7583   6.284   0.630   2.666  0.6170 -0.2405  0.1457
 2228SOL    HW2 7584   6.143   0.691   2.610  0.3507 -0.4826  0.5370
 2229SOL     OW 7585   0.966   4.993   6.175 -0.0859  0.1603  0.4490
 2229SOL    HW1 7586   0.991   4.904   6.137  0.3733  0.7754 -0.7112
 2229SOL    HW2 7587   1.048   5.047   6.192 -0.4224  0.8670 -0.1107
 2230SOL     OW 7588   0.780   6.416   1.598 -0.3086 -0.1821 -0.5231
 2230SOL    HW1 7589   0.840   6.471   1.540 -0.2666  0.1684 -0.1525
 2230SOL    HW2 7590   0.821   6.407   1.689 -1.0832  0.5361 -0.0944
 2231SOL     OW 7591   3.093   3.104   4.183 -0.3460  0.1219 -0.1633
 2231SOL    HW1 7592   3.148   3.128   4.103 -0.7615 -0.2629 -0.5762
 2231SOL    HW2 7593   3.015   3.167   4.190 -1.6746 -1.2646 -1.4922
 2232SOL     OW 7594   1.136   3.012   3.788  0.6896 -0.4305 -0.0658
 2232SOL    HW1 7595   1.091   3.099   3.805  0.4856 -0.7097  0.9225
 2232SOL    HW2 7596   1.136   2.992   3.690  1.3108  0.9789 -0.3803
 2233SOL     OW 7597   5.269   5.462   1.618  0.3764 -0.0396  0.0860
 2233SOL    HW1 7598   5.270   5.390   1.550 -0.2153 -0.0027  0.0334
 2233SOL    HW2 7599   5.194   5.526   1.598 -0.4712 -0.5908  1.3416
 2234SOL     OW 7600   1.416   5.787   6.392  0.6035  0.4087  0.5774
 2234SOL    HW1 7601   1.473   5.709   6.369  0.6041  0.4202  0.5415
 2234SOL    HW2 7602   1.364   5.766   6.475  0.0277  0.0778  0.1393
 2235SOL     OW 7603   3.606   5.773   2.313  0.0782  0.3484 -0.3286
 2235SOL    HW1 7604   3.591   5.805   2.219 -0.2747 -0.1895 -0.4611
 2235SOL    HW2 7605   3.606   5.673   2.315 -1.4200  0.3310  0.4634
 2236SOL     OW 7606   2.034   5.862   2.438 -0.4602 -0.2854 -0.4460
 2236SOL    HW1 7607   1.945   5.863   2.483 -0.0245  0.7750  0.4394
 2236SOL    HW2 7608   2.034   5.926   2.361 -0.3532 -0.0074 -0.2158
 2237SOL     OW 7609   5.364   3.758   6.675  0.9788  0.1761 -0.1204
 2237SOL    HW1 7610   5.390   3.674   6.721 -0.9981  0.0795  0.9075
 2237SOL    HW2 7611   5.296   3.738   6.604 -2.2696  1.1493  2.4615
 2238SOL     OW 7612   4.073   3.588   1.831  0.6333  0.1710 -0.1789
 2238SOL    HW1 7613   4.095   3.574   1.928 -2.3523  0.3372  0.6140
 2238SOL    HW2 7614   4.065   3.499   1.786  1.4688  0.0793 -0.1673
 2239SOL     OW 7615   0.216   1.496   5.692  0.2772  0.0062  0.3513
 2239SOL    HW1 7616   0.220   1.415   5.751 -1.3014 -1.9845 -2.0292
 2239SOL    HW2 7617   0.299   1.502   5.637  0.7737  0.5406  1.1478
 2240SOL     OW 7618   4.131   2.238   2.155  0.6429 -0.1052 -0.3713
 2240SOL    HW1 7619   4.139   2.198   2.064 -1.9770  1.2946 -1.3323
 2240SOL    HW2 7620   4.201   2.308   2.167  0.5751  0.1965 -1.5975
 2241SOL     OW 7621   5.601   3.538   1.803  0.1903 -0.6412  0.2458
 2241SOL    HW1 7622   5.688   3.585   1.820  0.4283 -0.3080 -1.6549
 2241SOL    HW2 7623   5.579   3.543   1.706 -2.0281 -0.6304  0.7001
 2242SOL     OW 7624   1.876   0.956   3.385  0.4816 -0.2533  0.1118
 2242SOL    HW1 7625   1.888   0.975   3.483  0.6842 -0.6121  0.1580
 2242SOL    HW2 7626   1.963   0.927   3.346  0.0511 -1.7019  0.1791
 2243SOL     OW 7627   1.780   2.030   1.003  0.8127  0.3359 -0.1780
 2243SOL    HW1 7628   1.680   2.025   1.000  0.8864 -2.3324 -1.2732
 2243SOL    HW2 7629   1.813   2.076   0.920  0.5200 -0.8164 -0.9561
 2244SOL     OW 7630   6.779   3.684   2.481  0.2339 -0.1688  0.3690
 2244SOL    HW1 7631   6.691   3.646   2.509  0.3095 -0.0050  0.8306
 2244SOL    HW2 7632   6.830   3.714   2.561  0.1997  0.8739  0.0167
 2245SOL     OW 7633   2.029   2.416   0.561  0.2011  0.3428 -0.1936
 2245SOL    HW1 7634   1.965   2.491   0.579  0.6033  0.9159 -1.0624
 2245SOL    HW2 7635   2.019   2.387   0.466  0.7799 -0.0040 -0.1496
 2246SOL     OW 7636   3.977   2.817   1.104  0.1028  0.8234  0.8901
 2246SOL    HW1 7637   4.066   2.771   1.096 -0.9690 -1.3037  0.2515
 2246SOL    HW2 7638   3.949   2.849   1.014 -1.4417 -2.0309  0.2283
 2247SOL     OW 7639   6.676   4.720   4.355 -0.1313 -0.0664 -0.3384
 2247SOL    HW1 7640   6.712   4.683   4.270  0.3496 -0.4507  0.0261
 2247SOL    HW2 7641   6.725   4.804   4.378 -0.0191 -0.1538 -0.2580
 2248SOL     OW 7642   1.372   4.403   0.068  0.2414  0.2832 -0.4879
 2248SOL    HW1 7643   1.295   4.467   0.068  0.3969  0.4772  0.5025
 2248SOL    HW2 7644   1.458   4.453   0.068  0.4001  0.0690 -1.9521
 2249SOL     OW 7645   1.567   5.090   1.171 -0.1280  0.2138  0.3632
 2249SOL    HW1 7646   1.529   5.179   1.150  0.1652  0.3323  0.3314
 2249SOL    HW2 7647   1.648   5.101   1.229  1.0616  0.0953 -1.2150
 2250SOL     OW 7648   4.138   5.461   5.565 -0.1554 -0.0215  0.1618
 2250SOL    HW1 7649   4.103   5.389   5.506  0.0070 -0.6167  0.7728
 2250SOL    HW2 7650   4.187   5.420   5.642  2.4276  0.7627 -0.9460
 2251SOL     OW 7651   3.732   1.612   5.359 -0.1591 -0.1633 -0.1155
 2251SOL    HW1 7652   3.635   1.619   5.336 -0.5754 -1.0121  1.2358
 2251SOL    HW2 7653   3.775   1.703   5.352 -0.8904  0.1091 -1.3142
 2252SOL     OW 7654   1.895   4.224   6.633 -0.1954 -0.1578 -0.1099
 2252SOL    HW1 7655   1.824   4.155   6.646 -1.6466  1.2128 -0.3634
 2252SOL    HW2 7656   1.890   4.260   6.540  0.7823  0.0357 -0.0959
 2253SOL     OW 7657   2.017   2.268   5.384 -0.0305  0.3764  0.1140
 2253SOL    HW1 7658   2.113   2.275   5.356  0.9440 -0.5613  2.8457
 2253SOL    HW2 7659   1.989   2.353   5.428 -0.8601  1.0547 -1.6409
 2254SOL     OW 7660   4.168   1.575   2.322  0.0695  0.2384 -0.1326
 2254SOL    HW1 7661   4.078   1.617   2.333  0.2939  0.6211  0.2456
 2254SOL    HW2 7662   4.237   1.630   2.369  0.2775 -0.8774  0.9142
 2255SOL     OW 7663   6.453   6.005   6.368 -0.4599 -0.1646  0.1095
 2255SOL    HW1 7664   6.490   5.938   6.432  0.9175  0.1265 -0.3391
 2255SOL    HW2 7665   6.477   6.097   6.398  0.3570 -0.0324 -0.8861
 2256SOL     OW 7666   1.595   6.765   2.297  0.0015  0.1371  0.5021
 2256SOL    HW1 7667   1.636   6.706   2.367  0.3905 -1.1646 -0.7937
 2256SOL    HW2 7668   1.505   6.730   2.272  0.5134 -0.3170 -0.7524
 2257SOL     OW 7669   6.823   0.312   5.028 -0.0599 -0.2610  0.1644
 2257SOL    HW1 7670   6.913   0.354   5.015 -1.1576  2.3589  0.5253
 2257SOL    HW2 7671   6.808   0.293   5.125  0.6650 -2.1925 -0.0529
 2258SOL     OW 7672   1.818   6.111   4.001  0.3107 -0.2496  0.4771
 2258SOL    HW1 7673   1.859   6.198   4.028  1.2331 -0.3926 -0.4104
 2258SOL    HW2 7674   1.814   6.050   4.080  1.6199 -0.1580  0.6363
 2259SOL     OW 7675   6.532   5.015   0.853  0.4229 -0.6757 -0.4300
 2259SOL    HW1 7676   6.466   5.035   0.925  2.2762  0.6678  1.0149
 2259SOL    HW2 7677   6.534   4.917   0.834 -0.2983 -1.0226  1.1748
 2260SOL     OW 7678   2.582   6.748   5.043  0.1953  0.5822 -0.1850
 2260SOL    HW1 7679   2.570   6.754   4.943  1.0538  0.6582 -0.2952
 2260SOL    HW2 7680   2.502   6.786   5.089 -0.4982 -0.0467 -0.8411
 2261SOL     OW 7681   4.552   6.542   1.675 -0.3318  0.3827 -0.6416
 2261SOL    HW1 7682   4.472   6.496   1.638  1.0223 -0.7201 -2.3702
 2261SOL    HW2 7683   4.614   6.474   1.715  0.5490  0.9997 -0.9256
 2262SOL     OW 7684   5.475   4.064   6.963 -0.4273  0.2374 -0.4695
 2262SOL    HW1 7685   5.410   4.127   6.921  0.9986  2.5068  0.5924
 2262SOL    HW2 7686   5.528   4.018   6.892 -1.5034  0.1434 -1.2501
 2263SOL     OW 7687   2.983   4.838   4.074 -0.0874  0.3896  0.5276
 2263SOL    HW1 7688   2.959   4.777   4.150 -3.5827  0.5237 -0.3178
 2263SOL    HW2 7689   2.992   4.932   4.109 -1.4932  0.4249  0.8544
 2264SOL     OW 7690   6.130   1.632   2.996 -0.0680  0.4007 -0.6938
 2264SOL    HW1 7691   6.223   1.639   3.032  0.7313  0.8895 -2.7093
 2264SOL    HW2 7692   6.118   1.542   2.952 -1.3830 -0.6319  1.5689
 2265SOL     OW 7693   4.262   0.043   2.659 -0.2120  0.0514  0.3369
 2265SOL    HW1 7694   4.277   0.112   2.589 -1.4670  0.4567  0.4517
 2265SOL    HW2 7695   4.295   0.077   2.747  0.2012  0.0463  0.1863
 2266SOL     OW 7696   1.878   1.375   5.731  1.0468  0.2697 -0.2667
 2266SOL    HW1 7697   1.786   1.414   5.728  0.5380 -0.9176 -0.7347
 2266SOL    HW2 7698   1.887   1.305   5.660  2.7572  1.2961 -1.1398
 2267SOL     OW 7699   0.142   6.767   3.412  0.4746  0.1872 -0.4626
 2267SOL    HW1 7700   0.172   6.737   3.502  0.7726  0.2523 -0.5377
 2267SOL    HW2 7701   0.062   6.826   3.421  0.5758  0.2894 -0.2310
 2268SOL     OW 7702   0.659   2.017   2.375  0.0923  0.2719 -0.3157
 2268SOL    HW1 7703   0.751   2.012   2.415  0.1210  0.0137 -0.4116
 2268SOL    HW2 7704   0.662   1.985   2.281  0.5048  3.1804 -1.4132
 2269SOL     OW 7705   4.651   1.753   1.111  0.0979  0.7268 -0.2818
 2269SOL    HW1 7706   4.643   1.727   1.015  0.7066 -0.7759  0.0559
 2269SOL    HW2 7707   4.747   1.753   1.139 -0.1330  0.1027  0.5848
 2270SOL     OW 7708   5.684   5.026   5.235  0.2724 -0.4362 -0.1468
 2270SOL    HW1 7709   5.675   5.030   5.135 -1.7469 -2.8912 -0.1462
 2270SOL    HW2 7710   5.749   4.955   5.260  0.1248 -0.4124  0.3101
 2271SOL     OW 7711   3.716   0.731   6.109  0.2773  0.0139  0.3708
 2271SOL    HW1 7712   3.709   0.748   6.011  0.9247 -0.8087  0.1711
 2271SOL    HW2 7713   3.707   0.633   6.126 -0.1354  0.1832  1.1664
 2272SOL     OW 7714   4.734   6.097   6.602  0.5583 -0.3035 -0.3292
 2272SOL    HW1 7715   4.804   6.068   6.536  0.8483 -1.6169  0.5242
 2272SOL    HW2 7716   4.681   6.171   6.562  1.2757 -0.4834 -1.7081
 2273SOL     OW 7717   4.087   1.006   0.233  0.0555  0.6494  0.5798
 2273SOL    HW1 7718   4.122   0.976   0.145 -0.4979  1.3679  0.1063
 2273SOL    HW2 7719   4.036   0.931   0.276  0.4056  0.2700  0.3299
 2274SOL     OW 7720   5.588   4.450   1.743 -0.5875 -0.0612 -0.0652
 2274SOL    HW1 7721   5.578   4.397   1.827 -0.7301 -1.1779 -0.7792
 2274SOL    HW2 7722   5.520   4.523   1.742 -0.6756 -0.1194  0.7149
 2275SOL     OW 7723   6.743   4.190   5.104 -0.3239  0.1126  0.1611
 2275SOL    HW1 7724   6.803   4.269   5.097 -0.2524 -0.0368 -1.3443
 2275SOL    HW2 7725   6.797   4.106   5.098 -0.3313 -0.0957  2.3489
 2276SOL     OW 7726   4.512   5.758   2.589 -0.0062  0.6544 -0.4874
 2276SOL    HW1 7727   4.515   5.724   2.495 -0.0018  2.2914 -1.1169
 2276SOL    HW2 7728   4.601   5.795   2.613 -0.8616  3.3800 -1.1274
 2277SOL     OW 7729   4.351   5.009   4.406 -0.7566 -0.2906  0.3773
 2277SOL    HW1 7730   4.448   4.996   4.388 -0.7354  2.2959 -2.1898
 2277SOL    HW2 7731   4.298   4.937   4.362 -0.1359  0.4582 -1.6880
 2278SOL     OW 7732   6.408   0.866   3.608  0.0536  0.2741  0.4817
 2278SOL    HW1 7733   6.327   0.810   3.628  0.1847  0.2989  1.1347
 2278SOL    HW2 7734   6.386   0.962   3.624 -0.3201  0.4715 -1.1348
 2279SOL     OW 7735   5.909   2.334   2.472 -0.2811  0.7263 -0.2006
 2279SOL    HW1 7736   5.895   2.407   2.405 -0.1640  2.2492  1.3562
 2279SOL    HW2 7737   6.006   2.308   2.473 -0.4518 -0.0469 -1.2990
 2280SOL     OW 7738   4.997   4.697   5.006  0.2119 -0.2796 -0.6929
 2280SOL    HW1 7739   4.923   4.737   5.060  1.7839  0.2143  1.2008
 2280SOL    HW2 7740   4.958   4.642   4.932 -2.0484  2.2351 -1.5479
 2281SOL     OW 7741   6.032   6.759   5.547  1.1962 -0.4882 -0.4149
 2281SOL    HW1 7742   6.029   6.825   5.472  2.1647  1.5062  1.2082
 2281SOL    HW2 7743   6.036   6.808   5.634  1.2829 -2.7277  0.9104
 2282SOL     OW 7744   2.638   0.850   0.934 -1.0048 -0.0114 -0.0873
 2282SOL    HW1 7745   2.737   0.859   0.927 -0.6733 -0.5822  2.7210
 2282SOL    HW2 7746   2.599   0.936   0.967 -1.3413 -0.1063 -0.2258
 2283SOL     OW 7747   5.531   2.709   2.216 -0.5305 -0.4895  0.0702
 2283SOL    HW1 7748   5.497   2.640   2.152 -0.7432 -0.3346  0.0137
 2283SOL    HW2 7749   5.556   2.666   2.302 -2.1691 -0.4287  0.6033
 2284SOL     OW 7750   6.721   2.723   0.907 -0.6510 -0.2553  0.0783
 2284SOL    HW1 7751   6.716   2.661   0.829  1.2769  0.6510 -0.8472
 2284SOL    HW2 7752   6.650   2.793   0.898 -2.2673 -1.7631  0.6729
 2285SOL     OW 7753   2.032   5.186   0.643  0.4266 -0.2526  0.0894
 2285SOL    HW1 7754   1.958   5.206   0.579  0.9165 -1.5339 -0.9250
 2285SOL    HW2 7755   2.098   5.261   0.643  0.8561 -0.5729 -1.5982
 2286SOL     OW 7756   6.977   6.089   0.753 -0.0578 -0.2803 -0.0955
 2286SOL    HW1 7757   6.947   6.174   0.797  0.7085  0.5584 -1.1466
 2286SOL    HW2 7758   6.989   6.018   0.823 -0.9040  0.4085  0.7723
 2287SOL     OW 7759   4.744   2.048   5.786 -0.4375 -0.1973  0.3168
 2287SOL    HW1 7760   4.666   2.091   5.832 -0.0159  1.0355 -0.0961
 2287SOL    HW2 7761   4.816   2.029   5.853 -0.6731 -0.3768  0.5207
 2288SOL     OW 7762   6.161   1.235   6.657 -0.5721  0.4898 -0.1135
 2288SOL    HW1 7763   6.213   1.153   6.683 -2.1344 -1.3070 -2.2131
 2288SOL    HW2 7764   6.168   1.303   6.729  0.4355 -1.6560  1.9662
 2289SOL     OW 7765   2.781   2.252   3.128  0.3471  0.4262  0.1770
 2289SOL    HW1 7766   2.734   2.204   3.202  0.5837  0.6681  0.4868
 2289SOL    HW2 7767   2.719   2.320   3.088 -1.4993 -2.8078 -3.0114
 2290SOL     OW 7768   2.211   4.481   5.310 -0.1180 -0.0028 -0.1970
 2290SOL    HW1 7769   2.121   4.440   5.298  0.8853 -2.4225  0.0148
 2290SOL    HW2 7770   2.269   4.459   5.231  1.1716 -1.0456  0.9880
 2291SOL     OW 7771   1.257   4.020   2.764 -0.0312  0.0185 -0.2792
 2291SOL    HW1 7772   1.222   3.950   2.702 -1.4465  0.8765 -0.4950
 2291SOL    HW2 7773   1.226   4.000   2.858 -0.0591  0.1145 -0.2683
 2292SOL     OW 7774   1.801   1.160   5.546 -0.2842 -0.3609 -0.4978
 2292SOL    HW1 7775   1.861   1.094   5.503  1.9287  1.4812 -0.4277
 2292SOL    HW2 7776   1.739   1.113   5.609  1.4711 -2.3307 -0.1377
 2293SOL     OW 7777   0.138   5.559   0.613 -0.0717  0.0991  0.0666
 2293SOL    HW1 7778   0.230   5.588   0.643  0.6274 -1.4127 -0.5089
 2293SOL    HW2 7779   0.094   5.509   0.688 -0.0557  0.0451  0.0402
 2294SOL     OW 7780   0.991   4.918   0.921  0.1662  0.2649  0.2294
 2294SOL    HW1 7781   0.976   4.930   1.019  0.8531  0.3615  0.3219
 2294SOL    HW2 7782   1.064   4.852   0.905  0.9267  1.1898 -0.1965
 2295SOL     OW 7783   5.710   6.431   3.403  0.1206 -0.0289 -0.8264
 2295SOL    HW1 7784   5.787   6.394   3.455  0.0331 -0.1705 -0.7984
 2295SOL    HW2 7785   5.644   6.358   3.385  0.0805  0.0537 -1.0084
 2296SOL     OW 7786   0.598   3.070   3.313  0.2690 -0.0053 -0.3631
 2296SOL    HW1 7787   0.504   3.088   3.342  0.5532 -0.6712  1.0865
 2296SOL    HW2 7788   0.626   2.980   3.345  0.7916 -0.6354 -2.4435
 2297SOL     OW 7789   0.233   3.763   6.020 -0.4003  0.2473  0.8079
 2297SOL    HW1 7790   0.272   3.837   6.074  0.1525  1.1218 -0.7101
 2297SOL    HW2 7791   0.163   3.715   6.073 -0.2868  1.4238  2.0591
 2298SOL     OW 7792   4.609   3.476   5.563 -0.0023 -0.1342 -0.2591
 2298SOL    HW1 7793   4.552   3.452   5.641  0.5777 -1.5870 -0.2683
 2298SOL    HW2 7794   4.566   3.446   5.478 -0.2913  0.8084 -0.4655
 2299SOL     OW 7795   2.192   3.758   0.992 -0.3378  0.0280  0.4926
 2299SOL    HW1 7796   2.133   3.686   1.029 -0.0099 -0.8751 -0.6980
 2299SOL    HW2 7797   2.182   3.840   1.048 -1.9037 -0.4417  0.9583
 2300SOL     OW 7798   2.331   6.813   6.460  0.3699 -0.1257  0.1605
 2300SOL    HW1 7799   2.331   6.913   6.468  1.4354  0.0515 -1.5920
 2300SOL    HW2 7800   2.417   6.776   6.495  0.8506 -0.2136 -1.0565
 2301SOL     OW 7801   5.955   2.252   1.848 -0.3316 -0.2071  0.5716
 2301SOL    HW1 7802   5.987   2.347   1.844  1.1082 -0.6959 -0.2005
 2301SOL    HW2 7803   6.019   2.197   1.901 -0.8323 -0.8828  0.4960
 2302SOL     OW 7804   1.174   6.426   6.765 -0.2105 -0.0428 -0.1388
 2302SOL    HW1 7805   1.190   6.349   6.827 -0.1769 -0.4471 -0.6401
 2302SOL    HW2 7806   1.081   6.419   6.727 -1.1024  1.4667  1.6131
 2303SOL     OW 7807   0.072   3.826   6.308  0.4625 -0.0955  0.3715
 2303SOL    HW1 7808   0.022   3.800   6.390 -0.6773 -1.1692 -0.6089
 2303SOL    HW2 7809   0.062   3.754   6.239  0.3046  1.3225 -1.1670
 2304SOL     OW 7810   0.614   4.308   4.259  0.2831  0.1410 -0.2485
 2304SOL    HW1 7811   0.692   4.363   4.287  1.3981 -1.5631  0.1219
 2304SOL    HW2 7812   0.604   4.312   4.159  0.3827  0.9464 -0.2310
 2305SOL     OW 7813   1.748   0.695   4.116  0.1170  0.6375  0.2342
 2305SOL    HW1 7814   1.691   0.614   4.130 -0.8756  1.0307 -1.2825
 2305SOL    HW2 7815   1.803   0.711   4.198 -1.2632 -0.3012  1.4083
 2306SOL     OW 7816   3.792   3.893   4.326 -0.2349 -0.0002  0.4469
 2306SOL    HW1 7817   3.831   3.810   4.366 -0.4098 -0.3993 -0.2141
 2306SOL    HW2 7818   3.736   3.940   4.395  0.8472  0.2239  1.2020
 2307SOL     OW 7819   0.742   0.873   0.062  0.1632  0.3266  0.0012
 2307SOL    HW1 7820   0.787   0.815   0.129  1.5462  0.1926 -0.9892
 2307SOL    HW2 7821   0.715   0.818  -0.017 -1.2194  0.5227  0.3101
 2308SOL     OW 7822   1.055   2.039   3.659 -0.1495 -0.3788 -0.7163
 2308SOL    HW1 7823   1.128   2.014   3.596  0.2694  0.2976 -0.5138
 2308SOL    HW2 7824   0.992   2.102   3.614 -0.0082 -0.1211 -0.5597
 2309SOL     OW 7825   6.241   2.429   5.539 -0.4646 -0.5023  0.4706
 2309SOL    HW1 7826   6.318   2.393   5.486  0.8294  1.3687  0.9415
 2309SOL    HW2 7827   6.217   2.364   5.611  0.8058 -1.0889  0.4022
 2310SOL     OW 7828   1.068   5.287   3.705 -0.1543  0.0818 -0.1324
 2310SOL    HW1 7829   0.989   5.319   3.653 -0.0905 -1.1459 -1.0337
 2310SOL    HW2 7830   1.086   5.191   3.684  2.5978  0.7336 -1.2598
 2311SOL     OW 7831   6.251   5.453   0.249 -0.2957  0.6187  0.1676
 2311SOL    HW1 7832   6.210   5.543   0.262 -1.8060 -0.0202  0.0177
 2311SOL    HW2 7833   6.350   5.460   0.258 -0.3605  2.3410 -0.1264
 2312SOL     OW 7834   1.107   2.671   1.147  0.3926  0.4443 -0.4333
 2312SOL    HW1 7835   1.071   2.620   1.069 -0.3699  1.6363 -0.8787
 2312SOL    HW2 7836   1.037   2.731   1.184  1.9877  3.3636 -1.7644
 2313SOL     OW 7837   5.767   0.740   5.627  0.3563 -0.0302  0.5800
 2313SOL    HW1 7838   5.767   0.824   5.572  0.2795  0.6913  1.6437
 2313SOL    HW2 7839   5.817   0.668   5.578  3.3408  1.5774  0.9781
 2314SOL     OW 7840   6.927   4.129   1.748  0.3356  0.1667 -0.3812
 2314SOL    HW1 7841   6.864   4.087   1.813  1.2767 -1.3125 -0.3769
 2314SOL    HW2 7842   6.945   4.065   1.673  0.2214  1.3726 -1.4859
 2315SOL     OW 7843   1.760   5.061   6.789 -0.3955  0.0647 -0.5248
 2315SOL    HW1 7844   1.811   5.108   6.717 -1.9211  1.5348 -0.7167
 2315SOL    HW2 7845   1.761   4.963   6.772  1.0629  0.1996 -1.3415
 2316SOL     OW 7846   4.178   2.277   4.107 -0.1691 -0.1049  0.2942
 2316SOL    HW1 7847   4.082   2.250   4.098 -0.7627  1.4782  1.4918
 2316SOL    HW2 7848   4.210   2.253   4.199  1.3806 -2.8330 -0.8327
 2317SOL     OW 7849   1.195   6.887   2.713  0.7272 -0.3184  0.2252
 2317SOL    HW1 7850   1.130   6.896   2.788 -1.0118  2.1554 -1.4293
 2317SOL    HW2 7851   1.149   6.909   2.627  3.3470 -0.2646 -1.2438
 2318SOL     OW 7852   2.013   0.888   1.576  0.2339  0.0533 -0.0519
 2318SOL    HW1 7853   1.966   0.975   1.591 -0.3759 -0.4875  1.2741
 2318SOL    HW2 7854   2.106   0.907   1.544 -0.1035  1.1710 -0.4539
 2319SOL     OW 7855   4.571   1.191   1.236  0.1423 -0.6777  0.2004
 2319SOL    HW1 7856   4.507   1.128   1.281 -0.4394  0.5671  1.1663
 2319SOL    HW2 7857   4.537   1.284   1.244  1.7362 -0.0689  0.1230
 2320SOL     OW 7858   4.561   4.433   2.416  0.1238 -0.6572 -0.4113
 2320SOL    HW1 7859   4.545   4.341   2.380  0.0242 -1.2179  0.9905
 2320SOL    HW2 7860   4.566   4.429   2.516  0.4735  0.8160 -0.3477
 2321SOL     OW 7861   3.168   0.399   0.929 -0.1583 -0.2289 -0.0873
 2321SOL    HW1 7862   3.221   0.475   0.890 -1.9699  1.3246  0.3084
 2321SOL    HW2 7863   3.082   0.435   0.966 -0.8714 -2.4470  0.5235
 2322SOL     OW 7864   6.525   5.876   3.121 -0.0353  0.6201 -0.1780
 2322SOL    HW1 7865   6.551   5.783   3.149 -0.2304  0.1976 -1.3091
 2322SOL    HW2 7866   6.594   5.911   3.058  0.6284  1.7205  1.1125
 2323SOL     OW 7867   0.948   6.132   2.646 -0.3839  0.2438  0.7151
 2323SOL    HW1 7868   1.004   6.083   2.714  0.4754  0.4746  0.1985
 2323SOL    HW2 7869   0.852   6.113   2.662 -0.1611 -0.1606  1.6468
 2324SOL     OW 7870   6.828   0.341   3.791  0.7501  0.0076 -0.1364
 2324SOL    HW1 7871   6.834   0.404   3.868 -0.1317  0.2843 -0.2794
 2324SOL    HW2 7872   6.790   0.389   3.712 -3.8213 -1.5183  0.8272
 2325SOL     OW 7873   0.141   4.301   3.957  0.2857  0.1381  0.5044
 2325SOL    HW1 7874   0.124   4.392   3.919 -0.1807  0.1875  0.8183
 2325SOL    HW2 7875   0.070   4.280   4.024  0.7493 -0.1979  0.8948
 2326SOL     OW 7876   4.108   3.803   5.211  0.2918 -0.5770  0.4896
 2326SOL    HW1 7877   4.093   3.736   5.283 -1.8512  0.7030  1.3270
 2326SOL    HW2 7878   4.060   3.775   5.128  1.6618 -1.3835 -0.0696
 2327SOL     OW 7879   2.092   0.989   0.616  0.1743  0.1938  0.1169
 2327SOL    HW1 7880   2.059   0.895   0.618  2.1670 -0.6187 -1.7551
 2327SOL    HW2 7881   2.015   1.052   0.627 -1.8828 -1.5765 -2.7658
 2328SOL     OW 7882   6.712   0.852   3.501 -0.7467  0.2484 -0.5042
 2328SOL    HW1 7883   6.747   0.804   3.581  0.0670  1.8088  0.1336
 2328SOL    HW2 7884   6.690   0.947   3.526 -2.2372  0.2610 -1.7100
 2329SOL     OW 7885   0.842   2.183   3.083 -0.1594  0.6259  0.0769
 2329SOL    HW1 7886   0.904   2.191   3.006  0.7857  1.6325  0.9073
 2329SOL    HW2 7887   0.792   2.269   3.095  1.1720  1.2353  1.7587
 2330SOL     OW 7888   4.773   5.253   0.397  0.1512 -0.1542  0.4357
 2330SOL    HW1 7889   4.705   5.266   0.469  0.2442 -0.6268  0.6120
 2330SOL    HW2 7890   4.862   5.288   0.428 -0.2416  1.5585 -0.2324
 2331SOL     OW 7891   3.313   3.346   3.665  0.2525 -0.2756  0.6630
 2331SOL    HW1 7892   3.394   3.339   3.724  0.5623  0.5093  0.3432
 2331SOL    HW2 7893   3.291   3.255   3.629  0.4609 -0.6530  1.4432
 2332SOL     OW 7894   6.349   1.955   2.555 -0.5038  0.0083  0.4325
 2332SOL    HW1 7895   6.425   2.002   2.510 -1.1350 -0.5444 -1.3221
 2332SOL    HW2 7896   6.292   2.022   2.602  0.3585  0.5819  0.6918
 2333SOL     OW 7897   1.983   0.299   0.722  0.6992 -0.1610 -0.4049
 2333SOL    HW1 7898   2.011   0.229   0.656  2.1061 -0.4323  0.4321
 2333SOL    HW2 7899   1.896   0.272   0.763 -0.4368  0.2478 -2.4355
 2334SOL     OW 7900   0.893   1.616   5.676  0.7082  0.2745  0.5376
 2334SOL    HW1 7901   0.823   1.669   5.629  0.9847 -0.1221 -0.3467
 2334SOL    HW2 7902   0.880   1.623   5.775 -1.5722 -1.0824  0.4052
 2335SOL     OW 7903   0.313   0.932   5.258 -0.1530 -0.4245 -0.4979
 2335SOL    HW1 7904   0.408   0.907   5.275  0.1895  0.7828 -0.5228
 2335SOL    HW2 7905   0.253   0.863   5.298  0.7257 -1.2442 -0.5521
 2336SOL     OW 7906   5.000   3.946   4.130 -0.1589 -0.4902 -0.0377
 2336SOL    HW1 7907   4.945   3.989   4.201 -0.6520  0.0857 -0.7560
 2336SOL    HW2 7908   4.941   3.893   4.069  0.3726 -1.7418  0.5056
 2337SOL     OW 7909   1.763   1.384   3.631  0.1377 -0.1293 -0.8154
 2337SOL    HW1 7910   1.698   1.433   3.689  2.6385  2.0084  0.4112
 2337SOL    HW2 7911   1.771   1.431   3.543 -0.8569 -1.1460 -1.4754
 2338SOL     OW 7912   0.667   0.399   6.282 -0.5095 -0.2226 -0.4195
 2338SOL    HW1 7913   0.753   0.388   6.332  0.0588  2.2626 -0.7349
 2338SOL    HW2 7914   0.612   0.315   6.291  0.7392 -0.8650  2.0594
 2339SOL     OW 7915   5.298   6.585   5.917  0.1569 -0.4877  0.1705
 2339SOL    HW1 7916   5.327   6.659   5.856 -0.8082 -0.9884 -0.9167
 2339SOL    HW2 7917   5.345   6.501   5.891  0.5256 -0.4808  0.7946
 2340SOL     OW 7918   2.296   2.879   3.691  0.0293 -0.9756 -0.2371
 2340SOL    HW1 7919   2.233   2.854   3.618  1.6067 -1.1450 -1.5822
 2340SOL    HW2 7920   2.247   2.930   3.762 -1.4324 -0.3640 -1.6446
 2341SOL     OW 7921   1.429   0.106   4.752  0.0907 -0.0966 -0.4351
 2341SOL    HW1 7922   1.448   0.061   4.664 -1.8513 -0.9534 -0.4759
 2341SOL    HW2 7923   1.428   0.205   4.738 -0.5364 -0.2248 -1.4954
 2342SOL     OW 7924   3.478   0.390   3.628  0.5780  0.1545 -0.2088
 2342SOL    HW1 7925   3.505   0.313   3.569  1.3883  1.3439 -1.4538
 2342SOL    HW2 7926   3.519   0.474   3.593 -2.5278  1.6598 -0.5976
 2343SOL     OW 7927   2.380   6.790   2.843 -0.0698  0.2221 -0.1738
 2343SOL    HW1 7928   2.389   6.718   2.912  0.0128  0.1401 -0.2693
 2343SOL    HW2 7929   2.289   6.787   2.802  0.1056 -0.1638 -0.5462
 2344SOL     OW 7930   6.016   0.157   1.085 -0.5206  0.6856  0.4967
 2344SOL    HW1 7931   5.948   0.086   1.103 -0.5505  0.9324  1.3953
 2344SOL    HW2 7932   6.108   0.117   1.090 -0.5684  0.3867 -0.5633
 2345SOL     OW 7933   6.139   4.080   4.656 -0.5037  0.0279 -0.2410
 2345SOL    HW1 7934   6.200   4.023   4.711 -0.2794 -1.4924 -1.9697
 2345SOL    HW2 7935   6.045   4.049   4.667 -0.3234 -1.1274 -1.6010
 2346SOL     OW 7936   4.472   5.297   2.790  0.3358 -0.3649 -0.3606
 2346SOL    HW1 7937   4.444   5.203   2.771  0.1335 -0.2231 -0.7771
 2346SOL    HW2 7938   4.472   5.349   2.705  1.3790 -0.2324 -0.2949
 2347SOL     OW 7939   5.919   4.573   0.070  0.5249 -0.4965 -0.2677
 2347SOL    HW1 7940   5.849   4.506   0.093 -0.2064  0.0210 -0.9236
 2347SOL    HW2 7941   5.981   4.584   0.147 -1.6273  0.9288  1.4100
 2348SOL     OW 7942   2.345   6.188   4.543 -0.0855  0.5666 -0.7623
 2348SOL    HW1 7943   2.265   6.238   4.510  0.3771  1.9705  0.1448
 2348SOL    HW2 7944   2.318   6.130   4.621 -0.5063 -0.2038 -1.4574
 2349SOL     OW 7945   5.028   6.730   0.951 -0.1214 -0.3470 -0.0947
 2349SOL    HW1 7946   5.123   6.739   0.980 -0.5075 -1.4511  1.6832
 2349SOL    HW2 7947   5.018   6.646   0.897 -0.3734 -1.1841  1.2089
 2350SOL     OW 7948   1.510   6.779   6.207 -0.0755 -0.1023 -0.4143
 2350SOL    HW1 7949   1.480   6.781   6.302  0.5960 -1.3198 -0.1576
 2350SOL    HW2 7950   1.477   6.696   6.163  0.6408 -0.1469 -0.8895
 2351SOL     OW 7951   2.464   5.646   0.811  0.6849  0.6915  0.1260
 2351SOL    HW1 7952   2.446   5.567   0.753 -0.2414 -0.2256  1.6045
 2351SOL    HW2 7953   2.397   5.718   0.791 -0.0360  0.1318  0.4987
 2352SOL     OW 7954   4.566   4.427   5.257  0.4136 -0.0762  0.2097
 2352SOL    HW1 7955   4.474   4.449   5.224  0.3747 -0.5795 -0.0195
 2352SOL    HW2 7956   4.612   4.366   5.192  1.2597  0.9092 -0.1391
 2353SOL     OW 7957   2.301   2.770   3.977 -0.3089  0.4904  0.3156
 2353SOL    HW1 7958   2.297   2.840   3.905 -1.1118  0.4820  0.3472
 2353SOL    HW2 7959   2.215   2.720   3.979 -0.0860  0.1288  0.9314
 2354SOL     OW 7960   2.624   5.638   6.815  0.6567  0.0391  0.5918
 2354SOL    HW1 7961   2.675   5.587   6.885  1.0327  1.0436  1.0827
 2354SOL    HW2 7962   2.654   5.733   6.816  0.5968  0.0944 -0.8933
 2355SOL     OW 7963   1.000   5.358   6.642 -0.0702  0.3351 -0.3052
 2355SOL    HW1 7964   1.032   5.263   6.633 -2.0654 -0.3842 -0.3693
 2355SOL    HW2 7965   1.027   5.410   6.561  0.8185 -0.2369 -0.3927
 2356SOL     OW 7966   5.046   0.659   1.991 -0.4593  0.0162 -0.8873
 2356SOL    HW1 7967   5.127   0.621   2.034 -0.3666 -1.3197 -2.1643
 2356SOL    HW2 7968   5.028   0.751   2.028  1.4996  0.2651 -0.4496
 2357SOL     OW 7969   0.204   4.848   1.832  0.1883 -0.2470 -0.0910
 2357SOL    HW1 7970   0.206   4.890   1.923 -1.1712  1.2659 -0.7117
 2357SOL    HW2 7971   0.139   4.897   1.774  0.5164 -1.6137 -1.6874
 2358SOL     OW 7972   5.546   1.829   0.380  0.2315  0.4456  0.0636
 2358SOL    HW1 7973   5.520   1.809   0.286 -0.5974 -0.8599  0.5431
 2358SOL    HW2 7974   5.465   1.827   0.438  0.7665  1.0006  0.8547
 2359SOL     OW 7975   5.177   3.704   4.263  0.1015  0.1102 -0.1920
 2359SOL    HW1 7976   5.255   3.702   4.326  0.0713  1.0885 -0.1110
 2359SOL    HW2 7977   5.096   3.737   4.311  0.2059  1.3996 -0.8521
 2360SOL     OW 7978   0.739   5.113   4.418 -0.0051 -0.6425  0.5288
 2360SOL    HW1 7979   0.650   5.101   4.374  0.0058 -0.9129  0.5809
 2360SOL    HW2 7980   0.810   5.122   4.348 -0.3589  2.1642  0.3794
 2361SOL     OW 7981   0.084   6.321   4.555  0.0339 -0.4262  0.0560
 2361SOL    HW1 7982   0.020   6.353   4.624 -2.6065  1.0118 -2.8028
 2361SOL    HW2 7983   0.163   6.382   4.552 -0.0098 -0.2676  1.4587
 2362SOL     OW 7984   2.851   1.778   4.448  0.1913  0.2614  0.0308
 2362SOL    HW1 7985   2.814   1.691   4.414 -0.9345  0.4133  0.8057
 2362SOL    HW2 7986   2.905   1.762   4.531 -1.1093  0.4108  0.9439
 2363SOL     OW 7987   1.058   6.498   0.583  0.1845 -0.2943 -0.2341
 2363SOL    HW1 7988   1.047   6.507   0.484  1.1092 -6.0897 -1.1835
 2363SOL    HW2 7989   1.155   6.498   0.606  0.0247 -0.4714  0.4598
 2364SOL     OW 7990   0.832   2.360   6.479 -0.1381 -0.2795  0.0888
 2364SOL    HW1 7991   0.927   2.383   6.502 -0.1342 -0.9838  0.8492
 2364SOL    HW2 7992   0.828   2.326   6.385  0.5729 -1.3518  0.4248
 2365SOL     OW 7993   3.912   6.835   7.015 -0.2259 -0.3001 -0.2534
 2365SOL    HW1 7994   3.997   6.887   7.019  0.2971 -1.1505 -0.2112
 2365SOL    HW2 7995   3.903   6.779   7.097 -0.3417 -0.9529 -0.7057
 2366SOL     OW 7996   5.531   4.315   0.778  0.8669  0.2666  0.4197
 2366SOL    HW1 7997   5.491   4.281   0.863 -0.5318  1.2253  0.1752
 2366SOL    HW2 7998   5.625   4.345   0.795  0.5997  0.4654  1.6418
 2367SOL     OW 7999   5.252   2.313   1.604  0.6755  0.7164 -0.5586
 2367SOL    HW1 8000   5.242   2.396   1.659  0.4230 -0.2983  0.9726
 2367SOL    HW2 8001   5.275   2.338   1.510 -0.3712  2.5467 -0.3645
 2368SOL     OW 8002   7.001   2.680   2.386  0.0078 -0.4819  0.0956
 2368SOL    HW1 8003   7.008   2.756   2.321  0.8881 -0.8515 -0.2518
 2368SOL    HW2 8004   6.996   2.716   2.479 -0.4483  0.0256 -0.1192
 2369SOL     OW 8005   6.593   0.734   1.860 -0.1874  0.2349 -0.5273
 2369SOL    HW1 8006   6.641   0.648   1.873 -0.2081  0.0638 -1.4835
 2369SOL    HW2 8007   6.644   0.808   1.904  0.3066 -0.1297 -0.4797
 2370SOL     OW 8008   5.895   4.803   3.161 -0.1961  0.8028 -0.2880
 2370SOL    HW1 8009   5.888   4.714   3.114 -1.5707  1.8238 -2.1557
 2370SOL    HW2 8010   5.834   4.803   3.240 -1.7578  0.7117 -1.4355
 2371SOL     OW 8011   3.356   1.977   5.067 -0.1419 -0.0260 -0.4196
 2371SOL    HW1 8012   3.441   2.028   5.081 -0.6157  0.3251  1.3985
 2371SOL    HW2 8013   3.360   1.930   4.979  1.9578 -0.0737 -0.3511
 2372SOL     OW 8014   0.207   5.312   5.819  0.5362  0.0036 -0.4218
 2372SOL    HW1 8015   0.126   5.253   5.828 -0.5310  1.3216 -1.0038
 2372SOL    HW2 8016   0.199   5.388   5.884  2.1759 -0.7386  0.7315
 2373SOL     OW 8017   2.780   6.563   5.958  0.2933  0.5365 -0.3267
 2373SOL    HW1 8018   2.739   6.482   6.000  0.9634  0.1724 -0.3650
 2373SOL    HW2 8019   2.789   6.549   5.859  1.7259  0.0633 -0.1499
 2374SOL     OW 8020   3.508   3.573   0.103 -0.5348 -0.8665 -0.4376
 2374SOL    HW1 8021   3.589   3.520   0.078  0.5991  2.0738 -4.0740
 2374SOL    HW2 8022   3.441   3.567   0.029 -0.8029  1.7404 -0.4931
 2375SOL     OW 8023   4.891   4.488   3.008 -0.2533 -0.3024  0.1035
 2375SOL    HW1 8024   4.868   4.428   2.932  0.7066  0.3819 -0.7525
 2375SOL    HW2 8025   4.892   4.583   2.977 -0.5200  0.0492  1.1403
 2376SOL     OW 8026   2.413   4.399   2.483 -0.5582  0.2502 -0.4039
 2376SOL    HW1 8027   2.474   4.408   2.405  0.9823 -2.5241  0.3522
 2376SOL    HW2 8028   2.419   4.480   2.540  1.2603  0.6735 -1.1506
 2377SOL     OW 8029   3.202   5.844   2.582 -0.2818 -0.6021 -0.3393
 2377SOL    HW1 8030   3.276   5.779   2.594 -0.8426 -1.0413  0.9745
 2377SOL    HW2 8031   3.118   5.795   2.559 -0.5855 -0.3154  0.1201
 2378SOL     OW 8032   0.844   4.243   5.802 -0.3726 -0.1758 -0.1383
 2378SOL    HW1 8033   0.882   4.279   5.716 -0.1128 -0.7030 -0.2482
 2378SOL    HW2 8034   0.863   4.145   5.808 -2.4412 -0.6564 -0.5954
 2379SOL     OW 8035   6.540   6.474   3.515 -0.1642  0.5173 -0.1305
 2379SOL    HW1 8036   6.575   6.567   3.527  0.2507  1.1078 -4.3558
 2379SOL    HW2 8037   6.447   6.478   3.478 -0.2371 -0.7620 -0.1382
 2380SOL     OW 8038   3.593   6.815   4.026  0.2589  0.1984 -0.9247
 2380SOL    HW1 8039   3.494   6.827   4.019 -0.0438 -0.5578  1.1414
 2380SOL    HW2 8040   3.639   6.866   3.954 -1.6051  1.1173 -1.5119
 2381SOL     OW 8041   5.682   3.303   4.192 -0.2495 -0.1191  0.3295
 2381SOL    HW1 8042   5.744   3.237   4.150 -0.2000 -0.8014  1.4693
 2381SOL    HW2 8043   5.707   3.395   4.161  0.8803 -0.4465  0.2161
 2382SOL     OW 8044   4.378   6.731   5.215 -0.3183 -0.6652  0.7832
 2382SOL    HW1 8045   4.339   6.774   5.134  1.3428  0.0070  0.3038
 2382SOL    HW2 8046   4.381   6.632   5.202  1.0361 -0.4885 -0.5263
 2383SOL     OW 8047   0.575   3.693   5.593  0.5794 -0.4957  0.0328
 2383SOL    HW1 8048   0.529   3.642   5.521 -0.9389  0.7422  0.0647
 2383SOL    HW2 8049   0.515   3.700   5.673  0.5951  1.5268 -0.0759
 2384SOL     OW 8050   4.534   0.855   4.076  0.0373 -0.0644  0.2349
 2384SOL    HW1 8051   4.628   0.839   4.106  0.5845 -2.9829 -2.4711
 2384SOL    HW2 8052   4.525   0.948   4.039  1.0869  1.1336  2.8066
 2385SOL     OW 8053   4.046   4.832   4.492 -0.1390 -0.2434 -0.4396
 2385SOL    HW1 8054   3.963   4.868   4.449 -0.4841  0.3018  0.6353
 2385SOL    HW2 8055   4.029   4.817   4.590  1.3763  1.0536  0.0620
 2386SOL     OW 8056   0.959   0.149   5.321  0.1098  0.0879 -0.6046
 2386SOL    HW1 8057   0.979   0.101   5.236  0.7883  0.1921 -0.5081
 2386SOL    HW2 8058   0.890   0.099   5.372 -2.9239  1.7248 -2.7565
 2387SOL     OW 8059   4.116   6.352   2.367  0.8527  0.1069  0.4225
 2387SOL    HW1 8060   4.050   6.394   2.429  1.1742  1.0891  0.1156
 2387SOL    HW2 8061   4.139   6.261   2.400  0.0305  0.0999  1.0217
 2388SOL     OW 8062   4.921   3.659   3.110 -0.2088 -0.0379 -0.1806
 2388SOL    HW1 8063   4.975   3.575   3.115 -0.7374 -0.4559 -1.3393
 2388SOL    HW2 8064   4.892   3.675   3.016  0.5893  1.9009 -0.1399
 2389SOL     OW 8065   4.922   0.272   2.714  0.6213 -0.5611 -0.2414
 2389SOL    HW1 8066   5.007   0.306   2.754  0.2227  0.4831 -0.2580
 2389SOL    HW2 8067   4.942   0.223   2.629  1.1702  0.0871 -0.4934
 2390SOL     OW 8068   0.330   5.752   3.945 -0.0688  0.3074  0.1134
 2390SOL    HW1 8069   0.230   5.747   3.951 -0.1267 -1.9583 -1.5432
 2390SOL    HW2 8070   0.371   5.677   3.996  0.6573 -0.0900 -1.0128
 2391SOL     OW 8071   6.940   4.451   0.867  0.1664  0.0601 -0.1500
 2391SOL    HW1 8072   6.872   4.525   0.870 -1.9614 -1.8035 -0.2905
 2391SOL    HW2 8073   6.952   4.422   0.772  1.0014  0.1872 -0.0923
 2392SOL     OW 8074   1.478   6.500   0.950 -0.2947 -0.3499  0.0281
 2392SOL    HW1 8075   1.399   6.561   0.955  0.0355  0.2418 -1.3545
 2392SOL    HW2 8076   1.456   6.412   0.994 -1.6118 -0.0857 -0.0747
 2393SOL     OW 8077   3.763   6.150   0.945 -0.0350  0.0104 -0.1244
 2393SOL    HW1 8078   3.665   6.127   0.949 -0.1245  0.4645  0.4250
 2393SOL    HW2 8079   3.810   6.084   0.887 -1.2737  1.8241 -3.4866
 2394SOL     OW 8080   5.039   4.749   6.509  0.3410  0.0845  0.2617
 2394SOL    HW1 8081   5.076   4.778   6.421  2.0814 -0.3865  0.8005
 2394SOL    HW2 8082   5.072   4.811   6.581 -1.0375  0.4463  0.6134
 2395SOL     OW 8083   4.465   1.822   0.891  0.3050 -0.0614 -0.7304
 2395SOL    HW1 8084   4.541   1.822   0.825 -0.4977  0.5735 -1.6805
 2395SOL    HW2 8085   4.455   1.913   0.930  1.0678 -0.5369  0.6597
 2396SOL     OW 8086   2.653   6.001   2.819 -0.2352  0.5839  0.5017
 2396SOL    HW1 8087   2.647   5.912   2.864 -2.4994  0.5040  0.1369
 2396SOL    HW2 8088   2.582   6.008   2.748 -1.7705  3.5652  2.1376
 2397SOL     OW 8089   4.563   2.919   6.435  0.2375 -0.6590 -0.4189
 2397SOL    HW1 8090   4.479   2.904   6.382  0.9336 -0.1949 -1.6683
 2397SOL    HW2 8091   4.634   2.857   6.403  0.3169 -1.2761  0.8520
 2398SOL     OW 8092   4.362   5.523   3.185  1.4147  0.1257  0.1143
 2398SOL    HW1 8093   4.356   5.523   3.085  1.2615  0.9006  0.1114
 2398SOL    HW2 8094   4.277   5.559   3.223  2.0544  1.3496  0.4560
 2399SOL     OW 8095   4.943   2.012   6.010  0.0326  0.0013  0.3144
 2399SOL    HW1 8096   5.025   1.957   5.996  0.7593  1.1664 -0.1419
 2399SOL    HW2 8097   4.968   2.098   6.055 -0.7709  0.8236 -0.7524
 2400SOL     OW 8098   6.810   2.489   0.349 -0.0703  0.0800  0.2112
 2400SOL    HW1 8099   6.798   2.588   0.341  0.4245  0.0766 -0.7096
 2400SOL    HW2 8100   6.904   2.470   0.377  0.1084 -0.1498 -0.5191
 2401SOL     OW 8101   4.442   5.023   2.727 -0.3330 -0.1296  0.4398
 2401SOL    HW1 8102   4.535   5.035   2.690 -0.9576  0.2580 -1.0919
 2401SOL    HW2 8103   4.396   4.950   2.677 -1.7953  1.5644 -0.7862
 2402SOL     OW 8104   3.198   1.334   1.914 -0.5745 -0.0350 -0.0016
 2402SOL    HW1 8105   3.231   1.423   1.884  0.1569 -0.0768  0.6359
 2402SOL    HW2 8106   3.270   1.266   1.900 -0.1826 -0.0535  1.7974
 2403SOL     OW 8107   5.375   1.902   4.719 -0.3830 -0.3687  0.3814
 2403SOL    HW1 8108   5.455   1.918   4.777  0.0575 -2.4378  0.4010
 2403SOL    HW2 8109   5.305   1.971   4.740  0.1324 -0.4596  2.6961
 2404SOL     OW 8110   2.312   4.835   3.115  0.2040 -0.4424  0.1991
 2404SOL    HW1 8111   2.384   4.785   3.066 -0.4477 -2.0937  0.8465
 2404SOL    HW2 8112   2.277   4.908   3.058  1.1960 -0.7227 -0.8024
 2405SOL     OW 8113   4.175   4.877   1.052  0.0487  0.1076 -0.0607
 2405SOL    HW1 8114   4.152   4.965   1.094  0.1170  1.5034 -2.7348
 2405SOL    HW2 8115   4.262   4.885   1.003 -0.7379 -0.9242 -1.7095
 2406SOL     OW 8116   1.987   1.916   5.890 -0.3511  0.2005 -0.6520
 2406SOL    HW1 8117   1.972   1.825   5.852 -0.4490 -0.7770  1.5787
 2406SOL    HW2 8118   2.057   1.963   5.835  0.3965 -1.5632 -1.3181
 2407SOL     OW 8119   6.443   4.778   2.200  0.1477  0.1767 -0.0911
 2407SOL    HW1 8120   6.416   4.823   2.114  0.5762  1.7432  0.5572
 2407SOL    HW2 8121   6.486   4.691   2.179  1.8674  1.3021 -1.6200
 2408SOL     OW 8122   6.623   4.044   0.602 -0.1006  0.6618 -0.1161
 2408SOL    HW1 8123   6.638   4.006   0.694 -1.0834  3.4122  1.3053
 2408SOL    HW2 8124   6.539   4.006   0.564  0.6160 -0.9407 -0.1504
 2409SOL     OW 8125   2.667   2.156   2.536 -0.4600  0.7752  0.2247
 2409SOL    HW1 8126   2.601   2.093   2.576 -1.1206  1.2951 -0.0276
 2409SOL    HW2 8127   2.673   2.239   2.592  0.7987  0.2828  0.8480
 2410SOL     OW 8128   4.256   4.752   5.174 -0.2606 -0.4883  0.3638
 2410SOL    HW1 8129   4.289   4.679   5.116 -0.3211 -0.5760  0.4399
 2410SOL    HW2 8130   4.328   4.779   5.238 -0.2761 -0.5578  0.4107
 2411SOL     OW 8131   1.813   1.823   3.340 -0.0530 -0.3924 -0.2226
 2411SOL    HW1 8132   1.831   1.858   3.248  1.2678 -0.3575  0.0383
 2411SOL    HW2 8133   1.898   1.790   3.381 -0.5765 -0.1557  1.1051
 2412SOL     OW 8134   3.468   2.070   6.128 -0.4978 -0.1081 -0.0913
 2412SOL    HW1 8135   3.548   2.053   6.185 -0.6886  0.1792  0.2669
 2412SOL    HW2 8136   3.395   2.007   6.154  0.2599 -1.7622 -1.7784
 2413SOL     OW 8137   6.115   6.924   5.092  0.1678  0.0934 -0.1662
 2413SOL    HW1 8138   6.045   6.863   5.056  0.7230  0.6059 -2.2544
 2413SOL    HW2 8139   6.205   6.892   5.064  0.6481  0.5233  0.8146
 2414SOL     OW 8140   6.073   2.272   3.095 -0.1426  0.9589 -0.3056
 2414SOL    HW1 8141   6.099   2.253   3.190  2.3991 -0.2790 -1.1429
 2414SOL    HW2 8142   6.005   2.206   3.064  0.4216  0.1627  0.1267
 2415SOL     OW 8143   0.913   5.582   5.671 -0.2321 -0.1598  0.0414
 2415SOL    HW1 8144   0.951   5.547   5.757  0.3786 -1.2987 -0.6674
 2415SOL    HW2 8145   0.983   5.635   5.623 -0.2408 -0.4017 -0.2378
 2416SOL     OW 8146   5.271   3.172   5.522 -0.1066 -0.4891  0.2118
 2416SOL    HW1 8147   5.334   3.139   5.592 -0.1979 -2.4434 -0.5732
 2416SOL    HW2 8148   5.196   3.221   5.567 -0.8197 -2.7368  1.6677
 2417SOL     OW 8149   2.047   1.309   7.008 -0.1732  0.0511  0.4815
 2417SOL    HW1 8150   2.033   1.236   6.942 -0.3382  0.2834  0.2568
 2417SOL    HW2 8151   2.131   1.359   6.986  0.8845 -1.1486  1.6477
 2418SOL     OW 8152   1.320   5.342   0.753 -0.4957 -0.3002  0.1163
 2418SOL    HW1 8153   1.331   5.278   0.677  2.2338  1.4190 -1.0888
 2418SOL    HW2 8154   1.240   5.400   0.737  0.0677  0.0826 -1.5413
 2419SOL     OW 8155   2.085   2.515   5.487 -0.7358 -0.2950 -0.1045
 2419SOL    HW1 8156   2.164   2.480   5.437  0.2854  3.2673 -1.2669
 2419SOL    HW2 8157   2.116   2.570   5.565 -2.2138 -1.5868  1.4745
 2420SOL     OW 8158   3.424   2.071   1.032  0.2303 -0.5186 -0.0575
 2420SOL    HW1 8159   3.422   1.971   1.023  0.3804 -0.4455 -0.9161
 2420SOL    HW2 8160   3.506   2.098   1.083  0.4128 -0.8030 -0.1958
 2421SOL     OW 8161   5.268   5.109   2.572 -0.4862  0.1999  0.2394
 2421SOL    HW1 8162   5.253   5.160   2.488  0.2408  1.5524  0.8918
 2421SOL    HW2 8163   5.355   5.136   2.613 -0.0364 -1.6286  0.6045
 2422SOL     OW 8164   6.103   1.833   2.380  0.1653 -0.1493  0.3583
 2422SOL    HW1 8165   6.175   1.866   2.440 -0.6496 -0.4600  1.5354
 2422SOL    HW2 8166   6.014   1.844   2.424 -0.4218 -0.7890 -0.6098
 2423SOL     OW 8167   2.018   1.918   1.067  0.0456 -0.0445 -0.1313
 2423SOL    HW1 8168   2.075   1.997   1.046 -2.5044  1.9112 -0.2739
 2423SOL    HW2 8169   1.923   1.939   1.044 -1.1132 -2.2962  2.0626
 2424SOL     OW 8170   5.105   2.465   0.986 -0.0248  0.5644 -0.2316
 2424SOL    HW1 8171   5.013   2.427   0.986 -0.1884  0.9162 -1.0858
 2424SOL    HW2 8172   5.172   2.391   0.979 -0.2251  0.2963  0.5599
 2425SOL     OW 8173   4.671   2.678   1.200  0.2523 -0.5641  0.0714
 2425SOL    HW1 8174   4.635   2.587   1.180  0.8723 -0.6070 -0.9146
 2425SOL    HW2 8175   4.624   2.715   1.280 -1.0323 -1.1529 -0.3744
 2426SOL     OW 8176   6.207   0.207   0.598 -0.1234 -0.8254  0.7913
 2426SOL    HW1 8177   6.240   0.223   0.505 -1.2925  0.6297  0.5889
 2426SOL    HW2 8178   6.267   0.141   0.643  0.9629 -0.9272 -0.7027
 2427SOL     OW 8179   3.381   0.404   1.543  0.0709  0.3764 -0.1400
 2427SOL    HW1 8180   3.466   0.360   1.572 -0.7804 -1.3416 -0.1099
 2427SOL    HW2 8181   3.315   0.403   1.618 -0.8592 -0.7091 -0.9225
 2428SOL     OW 8182   2.550   4.989   0.368 -0.1680  0.1562  0.7755
 2428SOL    HW1 8183   2.517   4.900   0.336  0.7580 -0.0562  0.4060
 2428SOL    HW2 8184   2.638   4.977   0.414  0.0889  0.9156  0.4849
 2429SOL     OW 8185   6.683   0.171   3.952 -0.6793 -0.5308  0.1760
 2429SOL    HW1 8186   6.730   0.083   3.965  0.5101  0.1896  0.8965
 2429SOL    HW2 8187   6.721   0.218   3.873 -1.3216 -0.6517 -0.2144
 2430SOL     OW 8188   5.639   6.544   1.520 -0.4235  0.4088  0.1405
 2430SOL    HW1 8189   5.573   6.573   1.590 -2.2504  0.9521 -1.7218
 2430SOL    HW2 8190   5.654   6.446   1.527 -1.2274  0.3238  0.7765
 2431SOL     OW 8191   1.639   6.230   3.468  0.6478 -0.0965  0.1104
 2431SOL    HW1 8192   1.573   6.263   3.536 -2.1861 -0.3745 -2.3230
 2431SOL    HW2 8193   1.635   6.130   3.463  1.5593 -0.1464  0.1566
 2432SOL     OW 8194   4.418   2.681   5.514 -0.2129  0.1607  0.0459
 2432SOL    HW1 8195   4.442   2.752   5.581 -0.7471  2.3418 -1.9411
 2432SOL    HW2 8196   4.358   2.614   5.557 -1.9606  2.4158  1.3671
 2433SOL     OW 8197   5.624   5.201   1.981  0.2524  0.3145 -0.4464
 2433SOL    HW1 8198   5.652   5.288   1.940 -0.3792  0.3723 -0.7690
 2433SOL    HW2 8199   5.529   5.208   2.012  0.3891 -0.0700  0.0713
 2434SOL     OW 8200   6.914   0.428   2.241  0.3219 -0.1049 -0.3659
 2434SOL    HW1 8201   6.856   0.459   2.166  1.7261  0.3834 -1.2882
 2434SOL    HW2 8202   6.923   0.329   2.238  0.2437 -0.1001 -0.7351
 2435SOL     OW 8203   5.052   5.202   5.615  0.0445 -0.0025 -0.4653
 2435SOL    HW1 8204   5.069   5.295   5.649 -1.2572  0.7437 -1.7440
 2435SOL    HW2 8205   5.083   5.136   5.683  1.6015  1.3381  0.2027
 2436SOL     OW 8206   4.687   0.335   1.637  0.5428  0.6812  0.5236
 2436SOL    HW1 8207   4.639   0.408   1.589 -0.3989 -0.4255 -0.2630
 2436SOL    HW2 8208   4.715   0.265   1.572  2.2224  0.7266  1.1385
 2437SOL     OW 8209   2.329   2.269   3.958 -0.9464  0.2616 -0.1987
 2437SOL    HW1 8210   2.391   2.266   3.879 -0.7670  0.9861 -0.0931
 2437SOL    HW2 8211   2.235   2.252   3.927 -0.8781  0.5430 -0.5771
 2438SOL     OW 8212   4.041   2.809   6.989 -0.0553  0.2873 -0.3004
 2438SOL    HW1 8213   4.024   2.856   6.903  0.0303 -1.7088 -1.4636
 2438SOL    HW2 8214   3.957   2.762   7.018 -0.1927  1.2498  0.9258
 2439SOL     OW 8215   0.431   4.136   0.067 -0.1222 -0.0812 -0.1054
 2439SOL    HW1 8216   0.513   4.080   0.073  1.2567  1.7141 -1.2014
 2439SOL    HW2 8217   0.380   4.129   0.153  1.4149 -0.8858  0.7894
 2440SOL     OW 8218   1.335   1.994   1.477 -0.2372 -0.3427  0.3887
 2440SOL    HW1 8219   1.314   1.930   1.403 -0.4141  0.7615 -0.5431
 2440SOL    HW2 8220   1.251   2.020   1.523 -0.2030 -0.4989  0.5430
 2441SOL     OW 8221   5.809   6.062   5.897 -0.2445  0.1926  0.2953
 2441SOL    HW1 8222   5.885   6.076   5.834  1.2872 -0.7965  1.8264
 2441SOL    HW2 8223   5.825   6.113   5.981  0.3477 -2.3658  1.8693
 2442SOL     OW 8224   5.337   1.901   4.238 -0.1179 -0.4282  0.5310
 2442SOL    HW1 8225   5.245   1.932   4.212 -1.2381 -4.5252 -1.2813
 2442SOL    HW2 8226   5.405   1.954   4.188 -1.6844  0.6838 -0.5305
 2443SOL     OW 8227   0.107   5.113   4.185  0.0842 -0.3184  0.0897
 2443SOL    HW1 8228   0.153   5.201   4.172  1.2516 -0.7733  0.9278
 2443SOL    HW2 8229   0.156   5.042   4.134  0.2850 -0.7971  0.9269
 2444SOL     OW 8230   3.231   3.505   2.034  0.2030  0.1951  0.6508
 2444SOL    HW1 8231   3.192   3.415   2.054  0.7816 -0.6735 -1.7333
 2444SOL    HW2 8232   3.158   3.574   2.031 -0.1671 -0.0191  3.1026
 2445SOL     OW 8233   6.370   2.727   4.355  0.2352  0.5910  0.3087
 2445SOL    HW1 8234   6.280   2.725   4.313  0.3071 -1.3817  0.1485
 2445SOL    HW2 8235   6.370   2.792   4.431 -1.1436  1.0075 -0.0137
 2446SOL     OW 8236   4.142   6.104   4.809  0.1559 -0.3194 -0.2871
 2446SOL    HW1 8237   4.151   6.113   4.710  0.0633  3.8588 -0.0862
 2446SOL    HW2 8238   4.231   6.116   4.852 -0.1109 -0.0005  0.1918
 2447SOL     OW 8239   3.632   2.027   5.763 -0.4162  0.3395  0.2635
 2447SOL    HW1 8240   3.729   2.046   5.776 -0.2409 -0.4258  0.0735
 2447SOL    HW2 8241   3.582   2.114   5.754  0.6386  0.7513 -2.5858
 2448SOL     OW 8242   2.913   5.084   0.848 -0.4101  0.0938  0.2279
 2448SOL    HW1 8243   2.817   5.058   0.862 -0.4631  1.1935  2.4466
 2448SOL    HW2 8244   2.938   5.154   0.915  1.9034  0.0011 -0.4592
 2449SOL     OW 8245   6.454   4.225   6.362 -0.2913 -0.2375 -0.6327
 2449SOL    HW1 8246   6.382   4.263   6.304 -0.5780  0.0187 -0.1109
 2449SOL    HW2 8247   6.433   4.130   6.383  0.7691 -0.9474 -2.5084
 2450SOL     OW 8248   6.054   5.078   3.918  0.4858  0.3263  0.2840
 2450SOL    HW1 8249   5.961   5.063   3.950  0.9402  0.4592  1.7110
 2450SOL    HW2 8250   6.051   5.110   3.823 -0.9602  1.0761  0.5489
 2451SOL     OW 8251   6.963   6.441   5.238  0.3779  0.0568  0.0478
 2451SOL    HW1 8252   6.905   6.504   5.186  2.1864  0.6551 -1.3607
 2451SOL    HW2 8253   6.993   6.486   5.322 -0.3947  0.0922  0.3167
 2452SOL     OW 8254   4.881   0.174   2.039 -0.2409  0.6222  0.0684
 2452SOL    HW1 8255   4.844   0.150   2.129 -0.1240  1.1800  0.2752
 2452SOL    HW2 8256   4.934   0.259   2.047  0.1103  0.4581 -0.4498
 2453SOL     OW 8257   2.636   3.229   0.408  0.2411 -0.3712 -0.0812
 2453SOL    HW1 8258   2.693   3.310   0.390 -0.7326  0.3421 -0.0564
 2453SOL    HW2 8259   2.688   3.163   0.463  1.6002 -0.4730 -1.4413
 2454SOL     OW 8260   4.030   2.321   6.755 -0.6757 -0.6331 -0.0558
 2454SOL    HW1 8261   4.003   2.243   6.810 -2.2458 -1.1554 -1.4829
 2454SOL    HW2 8262   3.954   2.386   6.749  0.5619  0.9986  1.0165
 2455SOL     OW 8263   5.856   2.534   0.881  0.1637 -0.1735  0.3476
 2455SOL    HW1 8264   5.881   2.516   0.976 -0.0919 -0.1487  0.4219
 2455SOL    HW2 8265   5.934   2.515   0.822  0.2111 -0.5483  0.5255
 2456SOL     OW 8266   5.197   3.521   4.753 -0.0667 -0.4423 -0.3393
 2456SOL    HW1 8267   5.236   3.473   4.674 -0.0517 -2.4761  0.8228
 2456SOL    HW2 8268   5.101   3.493   4.765 -0.3579  0.5824 -0.1812
 2457SOL     OW 8269   6.638   1.997   1.895  0.1463  0.1257 -0.6303
 2457SOL    HW1 8270   6.579   2.074   1.916  1.5945  0.4319  3.0873
 2457SOL    HW2 8271   6.732   2.029   1.883  0.3279 -0.7989 -1.7906
 2458SOL     OW 8272   3.534   0.931   3.986 -0.0049 -0.2263  0.3769
 2458SOL    HW1 8273   3.617   0.909   3.935 -0.2311  2.3276 -1.2380
 2458SOL    HW2 8274   3.457   0.883   3.946 -0.3608  2.4953 -2.5592
 2459SOL     OW 8275   3.608   2.967   6.181 -0.0779  0.0824  0.1541
 2459SOL    HW1 8276   3.631   2.870   6.173 -1.1635 -0.2858  1.2101
 2459SOL    HW2 8277   3.542   2.992   6.111 -2.0352 -0.7003  1.6224
 2460SOL     OW 8278   6.342   5.049   3.692  0.5914 -0.3613 -0.2230
 2460SOL    HW1 8279   6.365   4.952   3.697  0.2595 -0.4852 -1.0550
 2460SOL    HW2 8280   6.290   5.075   3.773  0.6712 -0.8757 -0.0030
 2461SOL     OW 8281   4.946   5.435   5.187  0.5250 -0.0055 -0.2492
 2461SOL    HW1 8282   4.860   5.411   5.232  0.3275  2.1514  0.6662
 2461SOL    HW2 8283   4.944   5.404   5.093 -0.5853 -1.4161  0.2035
 2462SOL     OW 8284   4.083   4.864   6.059 -0.3915 -0.5840 -0.2507
 2462SOL    HW1 8285   4.021   4.871   6.137 -0.6254 -0.1131 -0.4765
 2462SOL    HW2 8286   4.048   4.796   5.994 -0.7929 -0.1579 -0.4846
 2463SOL     OW 8287   1.607   6.641   0.292 -0.1877  0.2971  0.7011
 2463SOL    HW1 8288   1.691   6.628   0.240 -0.5285 -0.9265  0.4468
 2463SOL    HW2 8289   1.608   6.733   0.333  1.6233  0.0321  1.3623
 2464SOL     OW 8290   2.363   5.821   4.537 -0.3171  0.0068  0.3734
 2464SOL    HW1 8291   2.347   5.875   4.619 -3.3158  1.2320 -0.8937
 2464SOL    HW2 8292   2.309   5.737   4.541  1.3725 -1.1336  0.6170
 2465SOL     OW 8293   3.994   6.250   2.157  0.1843  0.1047  0.3032
 2465SOL    HW1 8294   4.018   6.299   2.241  1.4872 -0.0816  0.0754
 2465SOL    HW2 8295   3.927   6.179   2.178  2.1613 -1.4641  1.6929
 2466SOL     OW 8296   0.841   4.075   5.126 -0.1746  0.1000  0.2105
 2466SOL    HW1 8297   0.856   4.117   5.216  0.1879 -0.4620  0.4161
 2466SOL    HW2 8298   0.765   4.121   5.080 -1.1895 -0.4324  1.3187
 2467SOL     OW 8299   6.754   4.446   4.378  0.7627  0.1717  0.2658
 2467SOL    HW1 8300   6.743   4.544   4.396 -1.8686 -0.1005  0.6348
 2467SOL    HW2 8301   6.770   4.398   4.464 -3.2994 -0.1906  1.0343
 2468SOL     OW 8302   6.374   5.206   6.444 -0.4499 -0.1433  0.3464
 2468SOL    HW1 8303   6.426   5.124   6.469  2.0955  1.1339 -0.3997
 2468SOL    HW2 8304   6.324   5.189   6.359  0.7347 -0.6844 -0.2580
 2469SOL     OW 8305   1.927   5.815   4.627  0.7880  0.1692 -0.3577
 2469SOL    HW1 8306   1.922   5.720   4.659  2.3911  0.2777  0.3167
 2469SOL    HW2 8307   1.941   5.816   4.528  0.4477 -0.2895 -0.4135
 2470SOL     OW 8308   5.868   0.944   6.802 -0.2786  0.1398  0.4377
 2470SOL    HW1 8309   5.775   0.927   6.769 -0.3267 -2.2860  1.5728
 2470SOL    HW2 8310   5.918   0.857   6.807  2.3147  1.4423 -0.7616
 2471SOL     OW 8311   2.940   0.510   5.274  0.1173  0.0635 -0.1428
 2471SOL    HW1 8312   2.869   0.555   5.219 -0.3851 -2.0584 -1.3583
 2471SOL    HW2 8313   2.925   0.528   5.371  0.8398  3.6640 -0.5837
 2472SOL     OW 8314   1.606   3.309   5.624 -0.3952  0.5010  0.0218
 2472SOL    HW1 8315   1.673   3.297   5.551  1.8761  1.5996  1.7908
 2472SOL    HW2 8316   1.586   3.221   5.666 -0.3285  0.1161 -0.7420
 2473SOL     OW 8317   0.893   4.055   0.111  0.1806 -0.0156  0.3408
 2473SOL    HW1 8318   0.922   4.028   0.202  0.8557 -2.0323 -0.4105
 2473SOL    HW2 8319   0.972   4.087   0.058 -0.3571  2.0365  0.7145
 2474SOL     OW 8320   4.720   1.973   6.161 -0.3686 -0.1300  0.0328
 2474SOL    HW1 8321   4.787   1.954   6.089 -0.8961  0.2677 -0.5710
 2474SOL    HW2 8322   4.754   2.046   6.219 -0.2013 -0.0487 -0.1654
 2475SOL     OW 8323   2.165   0.715   2.129 -0.1391  0.2267  0.0503
 2475SOL    HW1 8324   2.124   0.625   2.117  0.8323 -0.7292  3.0313
 2475SOL    HW2 8325   2.125   0.760   2.209  1.2379  1.3079  0.1765
 2476SOL     OW 8326   2.291   4.313   0.003 -0.3167  0.2188 -0.0570
 2476SOL    HW1 8327   2.328   4.331  -0.088 -1.8841  0.2765 -0.7162
 2476SOL    HW2 8328   2.245   4.225   0.004  0.7608 -0.3552  1.0513
 2477SOL     OW 8329   5.604   3.557   4.719  0.0090  0.2434  0.6370
 2477SOL    HW1 8330   5.669   3.609   4.663 -0.1154  1.0124  1.1896
 2477SOL    HW2 8331   5.515   3.557   4.675  0.3265 -0.6722 -0.0394
 2478SOL     OW 8332   6.357   6.759   1.649 -0.4926  0.0353  0.6793
 2478SOL    HW1 8333   6.414   6.747   1.731 -1.8016  2.1341  1.9969
 2478SOL    HW2 8334   6.416   6.756   1.568  0.9497 -1.4102  1.7074
 2479SOL     OW 8335   4.021   0.768   0.338 -0.1333 -0.3360  0.5244
 2479SOL    HW1 8336   3.954   0.723   0.278  0.6295 -0.3484 -0.3513
 2479SOL    HW2 8337   4.004   0.742   0.433 -0.4458 -1.5313  0.1591
 2480SOL     OW 8338   6.505   2.486   0.834  0.0419  0.1542 -0.0290
 2480SOL    HW1 8339   6.455   2.547   0.895 -1.7535  0.2784 -1.5497
 2480SOL    HW2 8340   6.526   2.401   0.882  2.4394  1.7602  2.0857
 2481SOL     OW 8341   3.186   1.167   1.639 -1.1181  0.1555 -0.2438
 2481SOL    HW1 8342   3.172   1.125   1.549  2.0752  0.4155 -0.9822
 2481SOL    HW2 8343   3.241   1.107   1.696  0.7105  1.8383 -0.1275
 2482SOL     OW 8344   5.657   0.171   4.082 -0.8201  0.2565 -0.0651
 2482SOL    HW1 8345   5.642   0.073   4.074 -0.0709  0.0433  0.9487
 2482SOL    HW2 8346   5.580   0.220   4.041 -1.0267 -0.7376 -0.9115
 2483SOL     OW 8347   2.405   6.238   0.212 -0.2388 -0.2935 -0.0777
 2483SOL    HW1 8348   2.427   6.276   0.302  0.7430 -1.2651  0.1124
 2483SOL    HW2 8349   2.420   6.308   0.142  0.3745  0.0419  0.3787
 2484SOL     OW 8350   3.783   2.764   1.275 -0.5465  0.0201  0.4849
 2484SOL    HW1 8351   3.860   2.788   1.216 -0.3939  0.3325  0.8097
 2484SOL    HW2 8352   3.700   2.758   1.220 -0.5881  1.2943  0.3922
 2485SOL     OW 8353   0.249   1.756   5.806 -0.3886  0.5510  0.9760
 2485SOL    HW1 8354   0.175   1.812   5.769  0.6196 -0.3272 -2.8617
 2485SOL    HW2 8355   0.220   1.660   5.806  0.4844  0.2741  0.0606
 2486SOL     OW 8356   1.178   1.014   0.064 -0.5225 -0.1638 -0.5733
 2486SOL    HW1 8357   1.253   1.061   0.111  0.3594 -0.7412 -1.3621
 2486SOL    HW2 8358   1.091   1.043   0.103  0.0404  1.3922 -0.4025
 2487SOL     OW 8359   3.336   0.738   5.497 -0.3305  0.1796 -0.0926
 2487SOL    HW1 8360   3.315   0.665   5.431  0.0649 -0.0192 -0.0011
 2487SOL    HW2 8361   3.420   0.716   5.545  0.6300  1.4220 -1.1304
 2488SOL     OW 8362   7.009   5.753   0.508  0.2702  0.4783  0.3440
 2488SOL    HW1 8363   7.061   5.679   0.551 -0.2358  0.4273  0.8833
 2488SOL    HW2 8364   7.067   5.834   0.499  0.6356  0.2194  0.3335
 2489SOL     OW 8365   3.420   2.258   5.583  0.1714  0.1062  0.4743
 2489SOL    HW1 8366   3.506   2.308   5.586  1.1692 -1.5364  0.5906
 2489SOL    HW2 8367   3.390   2.237   5.676 -1.0973  1.8004  0.5037
 2490SOL     OW 8368   1.857   3.386   6.646 -0.2238  0.0524  0.4197
 2490SOL    HW1 8369   1.914   3.304   6.632 -0.4989 -0.0692 -0.0019
 2490SOL    HW2 8370   1.900   3.445   6.714  1.3762  0.8544 -1.1820
 2491SOL     OW 8371   5.827   2.295   3.387 -0.2582 -0.1064 -0.0139
 2491SOL    HW1 8372   5.800   2.305   3.482  0.5881  1.3106  0.1005
 2491SOL    HW2 8373   5.749   2.315   3.327 -0.4675  0.1815  0.3537
 2492SOL     OW 8374   6.674   0.744   6.930 -0.2295 -0.2991 -0.1686
 2492SOL    HW1 8375   6.659   0.688   6.849 -0.6531 -0.7846  0.2306
 2492SOL    HW2 8376   6.752   0.805   6.915 -0.5080 -0.1469 -1.0509
 2493SOL     OW 8377   1.726   6.356   2.207  0.0389  0.7546 -0.7233
 2493SOL    HW1 8378   1.761   6.446   2.234 -1.5711  1.7894 -1.8698
 2493SOL    HW2 8379   1.799   6.288   2.214  1.3589  2.1874 -0.0223
 2494SOL     OW 8380   5.559   2.099   2.928 -0.4454 -0.0329  0.2209
 2494SOL    HW1 8381   5.525   2.006   2.946 -0.4310 -0.2545 -0.8036
 2494SOL    HW2 8382   5.628   2.095   2.856 -1.8496  0.9928 -1.2498
 2495SOL     OW 8383   2.231   3.097   5.823  0.4093 -0.0711 -0.1486
 2495SOL    HW1 8384   2.207   3.115   5.728  0.2972 -1.5541 -0.4286
 2495SOL    HW2 8385   2.176   3.022   5.858  1.0185 -0.0852  0.8409
 2496SOL     OW 8386   3.515   1.479   5.694  0.2471  0.0985 -0.4356
 2496SOL    HW1 8387   3.435   1.518   5.740 -0.3153 -0.0958 -1.2164
 2496SOL    HW2 8388   3.585   1.550   5.683  0.3087  0.1895  0.5317
 2497SOL     OW 8389   6.894   5.496   1.176  0.1670  0.5185  0.2323
 2497SOL    HW1 8390   6.819   5.505   1.111  1.3472  1.4421 -1.0572
 2497SOL    HW2 8391   6.885   5.410   1.226 -0.5284 -0.4417 -1.4759
 2498SOL     OW 8392   5.742   2.401   2.697  0.5603 -0.4384  0.4303
 2498SOL    HW1 8393   5.766   2.485   2.745 -1.0005  0.9610 -1.1004
 2498SOL    HW2 8394   5.815   2.378   2.633 -1.0089  2.7868 -2.9092
 2499SOL     OW 8395   1.609   3.101   1.004 -0.2182 -0.6166 -0.1225
 2499SOL    HW1 8396   1.695   3.135   1.041 -0.5583 -0.1576  0.2628
 2499SOL    HW2 8397   1.575   3.026   1.060 -1.4933  1.0428  1.4705
 2500SOL     OW 8398   6.522   6.877   1.022 -0.2738 -0.0214  0.2913
 2500SOL    HW1 8399   6.553   6.787   0.992 -1.6708  0.0260 -1.4927
 2500SOL    HW2 8400   6.562   6.947   0.963  0.3081  0.4844  1.2718
 2501SOL     OW 8401   3.867   4.109   6.731  0.0174 -0.9255 -0.4663
 2501SOL    HW1 8402   3.891   4.069   6.819 -1.5602  0.4959  0.6753
 2501SOL    HW2 8403   3.847   4.036   6.665  0.5021 -2.0012  0.5531
 2502SOL     OW 8404   1.841   4.892   0.427  0.8273 -0.3607  0.6588
 2502SOL    HW1 8405   1.833   4.948   0.345  1.1886 -0.8956  0.2533
 2502SOL    HW2 8406   1.755   4.897   0.479  0.1620 -0.9450 -0.3547
 2503SOL     OW 8407   5.417   0.255   6.733  0.6118 -0.9101 -0.1982
 2503SOL    HW1 8408   5.461   0.259   6.823  0.2318  0.6175 -0.0409
 2503SOL    HW2 8409   5.318   0.262   6.744  0.6211  0.5742 -0.7633
 2504SOL     OW 8410   0.370   0.862   6.042 -0.1238  0.1273  0.2580
 2504SOL    HW1 8411   0.454   0.808   6.036 -0.1904  0.1386 -1.1122
 2504SOL    HW2 8412   0.314   0.845   5.961 -1.6841 -0.2525  1.3776
 2505SOL     OW 8413   0.540   5.761   2.159  0.2438 -0.2364  0.1271
 2505SOL    HW1 8414   0.530   5.793   2.253  0.5445 -0.1821  0.1420
 2505SOL    HW2 8415   0.481   5.815   2.099 -0.3947 -0.6599  0.3659
 2506SOL     OW 8416   0.357   4.784   0.813 -0.5657 -1.1749  0.0527
 2506SOL    HW1 8417   0.304   4.767   0.897 -2.8071  0.8912 -0.8161
 2506SOL    HW2 8418   0.338   4.711   0.747  0.0310 -2.0183  0.7940
 2507SOL     OW 8419   5.527   3.282   2.998 -0.4958 -0.4018  0.2649
 2507SOL    HW1 8420   5.572   3.248   2.916 -0.2512  0.8625 -0.1389
 2507SOL    HW2 8421   5.525   3.210   3.067 -1.0307 -1.6148 -0.9592
 2508SOL     OW 8422   6.479   0.895   2.368 -0.3538 -0.3167 -0.1057
 2508SOL    HW1 8423   6.431   0.912   2.282  1.4760 -1.1312 -1.3582
 2508SOL    HW2 8424   6.500   0.982   2.412 -1.2033  0.1165 -0.5290
 2509SOL     OW 8425   2.195   4.062   3.945  0.0112  0.1974 -0.0742
 2509SOL    HW1 8426   2.238   4.015   4.022 -0.9900  2.3605  1.9229
 2509SOL    HW2 8427   2.102   4.026   3.932 -0.7678  1.5165  1.4740
 2510SOL     OW 8428   6.887   2.057   1.509  0.2725 -0.8971 -0.2468
 2510SOL    HW1 8429   6.977   2.013   1.511  0.1507 -1.2594 -1.7337
 2510SOL    HW2 8430   6.898   2.153   1.483  0.3407 -0.5797  0.9128
 2511SOL     OW 8431   2.627   2.501   4.059 -0.1708  0.5224 -0.6549
 2511SOL    HW1 8432   2.612   2.494   4.158 -0.0717 -0.9575 -0.7258
 2511SOL    HW2 8433   2.725   2.497   4.040 -0.2036  0.5308 -0.8241
 2512SOL     OW 8434   3.195   4.590   5.517  0.4974  0.3488 -0.2533
 2512SOL    HW1 8435   3.157   4.641   5.439 -2.5772 -0.0585  0.8278
 2512SOL    HW2 8436   3.194   4.648   5.598 -0.0613 -0.4377  0.3143
 2513SOL     OW 8437   6.490   1.635   4.346 -0.3973 -0.5518 -0.1167
 2513SOL    HW1 8438   6.399   1.595   4.359 -0.3411 -0.5178  0.4232
 2513SOL    HW2 8439   6.531   1.598   4.263 -0.6432 -1.0611 -0.0188
 2514SOL     OW 8440   1.389   5.436   5.410 -0.4364 -0.0798  0.2965
 2514SOL    HW1 8441   1.473   5.461   5.362 -0.7496 -0.8393 -0.6730
 2514SOL    HW2 8442   1.401   5.451   5.508  1.9996 -3.2006  0.6170
 2515SOL     OW 8443   3.217   2.120   4.788  0.0054  0.4193  0.2875
 2515SOL    HW1 8444   3.203   2.176   4.870 -3.2002 -0.0893  0.2355
 2515SOL    HW2 8445   3.143   2.138   4.723  0.7543 -1.4435 -1.1782
 2516SOL     OW 8446   4.798   3.052   3.467 -0.2044  0.4339  0.0574
 2516SOL    HW1 8447   4.700   3.059   3.487 -0.5975 -0.9001 -1.2068
 2516SOL    HW2 8448   4.839   2.983   3.527 -0.4833 -0.4556 -0.7472
 2517SOL     OW 8449   6.085   4.543   1.086  0.0672  0.8949 -0.1220
 2517SOL    HW1 8450   6.115   4.490   1.007 -0.3279  0.1011  0.2551
 2517SOL    HW2 8451   6.017   4.610   1.056 -2.0847 -1.1396 -0.0951
 2518SOL     OW 8452   2.883   2.250   3.775  0.2833 -0.0640 -0.1880
 2518SOL    HW1 8453   2.850   2.325   3.718  0.6753  0.5513  0.3769
 2518SOL    HW2 8454   2.818   2.234   3.849  1.4291  1.5216  1.2557
 2519SOL     OW 8455   3.344   5.450   3.924  0.4676  0.1750  0.4827
 2519SOL    HW1 8456   3.346   5.428   4.022 -0.4843  0.9524  0.6963
 2519SOL    HW2 8457   3.249   5.452   3.893  0.7197  0.7221 -0.2735
 2520SOL     OW 8458   6.968   2.730   4.870  0.7049  0.0877 -0.1266
 2520SOL    HW1 8459   6.981   2.816   4.821 -0.9022  0.1867 -0.4391
 2520SOL    HW2 8460   6.992   2.743   4.967  0.1124  1.0015 -0.0895
 2521SOL     OW 8461   3.405   6.421   0.738 -0.2495 -0.4745  0.3497
 2521SOL    HW1 8462   3.481   6.397   0.799  0.2238 -0.9198 -0.3960
 2521SOL    HW2 8463   3.410   6.365   0.655 -0.1798  0.9424 -0.6285
 2522SOL     OW 8464   3.101   3.018   6.864  0.0807  0.1002 -0.2288
 2522SOL    HW1 8465   3.034   3.008   6.938  0.5647  0.7264  0.3060
 2522SOL    HW2 8466   3.064   2.979   6.780 -0.7518 -0.0116  0.1800
 2523SOL     OW 8467   0.515   5.506   5.540  0.1008 -0.3853 -0.1541
 2523SOL    HW1 8468   0.478   5.431   5.595  0.5766 -0.2892  0.3046
 2523SOL    HW2 8469   0.600   5.476   5.496  0.3961 -0.0566  0.1880
 2524SOL     OW 8470   6.958   4.650   1.661  0.3727 -0.0234 -0.0188
 2524SOL    HW1 8471   7.026   4.577   1.667  0.2765 -0.1135 -0.0240
 2524SOL    HW2 8472   6.869   4.611   1.634 -0.5621 -0.4450  3.2909
 2525SOL     OW 8473   1.319   0.167   1.159 -0.0064  0.2886 -0.0957
 2525SOL    HW1 8474   1.363   0.112   1.230 -1.0391 -1.1872 -0.5594
 2525SOL    HW2 8475   1.293   0.256   1.197 -0.8987 -0.6057  1.5023
 2526SOL     OW 8476   0.467   4.802   3.553 -0.0925 -0.0550  0.3745
 2526SOL    HW1 8477   0.542   4.760   3.502  0.7477 -0.2565  1.7244
 2526SOL    HW2 8478   0.495   4.892   3.586 -1.1824  0.7547 -0.8087
 2527SOL     OW 8479   0.398   6.011   6.217  0.1877  0.4675  0.2856
 2527SOL    HW1 8480   0.356   5.935   6.167  0.7705  0.5002 -0.2776
 2527SOL    HW2 8481   0.401   6.091   6.158  0.7467  0.5538  0.4286
 2528SOL     OW 8482   1.223   6.818   4.702  0.1002  0.1790 -0.7727
 2528SOL    HW1 8483   1.290   6.760   4.656  1.6846  0.3671  1.1357
 2528SOL    HW2 8484   1.165   6.761   4.760  1.5742  0.3945  1.0040
 2529SOL     OW 8485   2.330   0.777   2.655  0.3573  0.4407  0.7910
 2529SOL    HW1 8486   2.334   0.856   2.593  0.6519  0.6606  1.0824
 2529SOL    HW2 8487   2.292   0.698   2.606 -0.6376  0.9544  0.7076
 2530SOL     OW 8488   2.899   1.010   6.937 -0.0920  0.0448 -0.1363
 2530SOL    HW1 8489   2.848   0.947   6.879  0.0395 -1.5266  1.3848
 2530SOL    HW2 8490   2.857   1.015   7.027 -0.0601  2.1355 -0.1773
 2531SOL     OW 8491   6.370   5.704   3.995  0.2801 -0.1613 -0.1302
 2531SOL    HW1 8492   6.285   5.700   3.943  1.3062 -0.3158 -1.8982
 2531SOL    HW2 8493   6.447   5.688   3.933  1.6353  0.5202  1.3098
 2532SOL     OW 8494   4.124   3.620   1.119  0.1645 -0.3086 -0.1819
 2532SOL    HW1 8495   4.088   3.616   1.026 -0.0550 -0.6208 -0.0847
 2532SOL    HW2 8496   4.172   3.707   1.132  1.2287 -0.7584 -0.9590
 2533SOL     OW 8497   6.145   0.092   6.208  1.1272 -0.4730 -0.1297
 2533SOL    HW1 8498   6.177   0.017   6.150 -1.4788 -0.6029 -1.5033
 2533SOL    HW2 8499   6.100   0.161   6.153  2.1389  1.4461  1.3074
 2534SOL     OW 8500   6.853   2.917   2.494 -0.1019 -0.2617  0.6144
 2534SOL    HW1 8501   6.807   3.006   2.487  0.2413 -0.1992 -1.4331
 2534SOL    HW2 8502   6.891   2.892   2.405 -0.3451 -2.5587  1.1009
 2535SOL     OW 8503   1.142   4.269   6.010 -0.3004  0.1379 -0.4716
 2535SOL    HW1 8504   1.081   4.196   5.980  0.3115 -0.0592 -1.2675
 2535SOL    HW2 8505   1.227   4.228   6.046  0.8344  0.4539 -2.6271
 2536SOL     OW 8506   5.859   6.149   3.016  0.8078 -0.1565  0.0484
 2536SOL    HW1 8507   5.881   6.088   2.940  0.2083  1.8397 -1.7927
 2536SOL    HW2 8508   5.831   6.094   3.095  0.5438 -2.2627 -1.4319
 2537SOL     OW 8509   4.244   6.092   4.225 -0.0401  0.1139  0.2529
 2537SOL    HW1 8510   4.330   6.132   4.257 -0.7173  0.9871  1.0206
 2537SOL    HW2 8511   4.167   6.140   4.266 -0.9103 -2.0870  1.3939
 2538SOL     OW 8512   1.255   2.400   1.093  0.0664  0.5534 -0.2029
 2538SOL    HW1 8513   1.318   2.352   1.155  0.8658 -0.0637 -1.4600
 2538SOL    HW2 8514   1.190   2.453   1.147 -0.6324 -1.6222  1.2534
 2539SOL     OW 8515   5.149   0.086   6.643 -0.4077  0.0389  0.7509
 2539SOL    HW1 8516   5.122   0.094   6.739 -2.4110 -0.9735  0.3122
 2539SOL    HW2 8517   5.127   0.171   6.595 -0.6159  0.0675  0.8988
 2540SOL     OW 8518   5.954   2.877   5.399  0.1041 -0.2771  0.7322
 2540SOL    HW1 8519   5.904   2.950   5.352  0.3830 -0.0478  0.7869
 2540SOL    HW2 8520   5.907   2.855   5.485 -1.3465 -1.8377 -0.3794
 2541SOL     OW 8521   6.233   2.681   6.661 -0.0583  0.3559 -0.1759
 2541SOL    HW1 8522   6.144   2.690   6.615 -0.2201  2.2247  0.4312
 2541SOL    HW2 8523   6.241   2.588   6.699 -2.1708  0.4244  0.5827
 2542SOL     OW 8524   6.720   6.152   5.412 -0.0532  0.0838  0.4705
 2542SOL    HW1 8525   6.768   6.144   5.325 -0.1960  1.4793  0.2501
 2542SOL    HW2 8526   6.637   6.096   5.410 -0.4983  0.7560 -0.6040
 2543SOL     OW 8527   3.358   6.690   6.386  0.6793  0.0295 -0.2074
 2543SOL    HW1 8528   3.396   6.688   6.293  0.8425 -1.6483 -0.1414
 2543SOL    HW2 8529   3.344   6.785   6.415 -0.4036  0.5871 -2.3600
 2544SOL     OW 8530   2.317   4.847   6.542  0.4685  0.0370  0.7191
 2544SOL    HW1 8531   2.378   4.923   6.517  1.1738 -0.4257  1.0153
 2544SOL    HW2 8532   2.345   4.809   6.630  0.8419 -1.2923  0.0567
 2545SOL     OW 8533   3.036   1.181   0.355  0.2050 -0.0541  0.1010
 2545SOL    HW1 8534   3.100   1.160   0.430  0.6377 -0.6256 -0.4159
 2545SOL    HW2 8535   2.976   1.256   0.383  1.6496  1.0737  0.2939
 2546SOL     OW 8536   5.154   5.824   6.952 -0.0532  0.1295  0.2823
 2546SOL    HW1 8537   5.075   5.881   6.931 -1.3426 -1.3338  0.9827
 2546SOL    HW2 8538   5.153   5.800   7.049  2.3323  1.6207  0.7549
 2547SOL     OW 8539   5.588   4.711   6.231  0.5168 -0.0454  0.2018
 2547SOL    HW1 8540   5.598   4.612   6.220 -1.9986 -0.3048 -0.3367
 2547SOL    HW2 8541   5.498   4.739   6.197  0.1693  2.0613  2.5731
 2548SOL     OW 8542   3.197   0.506   3.017 -0.0170 -0.0508  0.0404
 2548SOL    HW1 8543   3.236   0.560   3.091  1.9431  0.1694 -1.0845
 2548SOL    HW2 8544   3.270   0.474   2.956 -1.3978 -1.6071 -0.9019
 2549SOL     OW 8545   0.178   2.774   0.850  0.8019 -0.2822  0.1635
 2549SOL    HW1 8546   0.172   2.724   0.937  0.4910 -0.7698 -0.1381
 2549SOL    HW2 8547   0.268   2.760   0.810  1.0323  0.1401  0.5227
 2550SOL     OW 8548   1.481   3.683   1.741 -0.2618  0.4687  0.0668
 2550SOL    HW1 8549   1.533   3.764   1.769  2.2020 -1.2633  0.8535
 2550SOL    HW2 8550   1.536   3.601   1.758 -2.3720 -1.3495 -1.3586
 2551SOL     OW 8551   0.284   2.125   1.678 -0.1876 -0.0438 -0.5261
 2551SOL    HW1 8552   0.213   2.173   1.729  0.5316 -1.7091  2.2533
 2551SOL    HW2 8553   0.340   2.191   1.628 -0.6788  1.7754  1.1912
 2552SOL     OW 8554   0.689   6.767   0.382  0.5413  0.0017  0.5754
 2552SOL    HW1 8555   0.782   6.740   0.356 -0.1765 -0.2972 -1.9196
 2552SOL    HW2 8556   0.624   6.733   0.315 -1.1541  2.1610  0.9920
 2553SOL     OW 8557   6.377   3.295   1.140  0.0102 -0.3270  0.5351
 2553SOL    HW1 8558   6.287   3.305   1.183 -0.5316  0.1668 -0.6635
 2553SOL    HW2 8559   6.423   3.384   1.138 -0.4999 -0.0557 -0.9655
 2554SOL     OW 8560   1.793   5.044   1.622  0.1894 -0.1217 -0.1083
 2554SOL    HW1 8561   1.703   5.019   1.588  0.2336  0.0287 -0.3397
 2554SOL    HW2 8562   1.799   5.023   1.719 -0.4758  0.8700  0.1687
 2555SOL     OW 8563   3.396   1.157   6.914 -0.1331  0.0665 -0.3513
 2555SOL    HW1 8564   3.360   1.225   6.978  1.3590  0.3874  0.1869
 2555SOL    HW2 8565   3.469   1.197   6.860  0.1637 -0.8551 -0.6606
 2556SOL     OW 8566   0.992   2.594   3.530  0.1216  0.0614  0.0531
 2556SOL    HW1 8567   1.090   2.586   3.511  0.3826 -0.0916  1.3999
 2556SOL    HW2 8568   0.949   2.645   3.456  0.9916 -0.9073 -1.1770
 2557SOL     OW 8569   4.488   1.384   3.710 -0.4888 -0.5750 -0.7778
 2557SOL    HW1 8570   4.567   1.383   3.649 -1.5543 -0.2743 -2.2104
 2557SOL    HW2 8571   4.452   1.477   3.715 -0.4566 -0.6079  0.2828
 2558SOL     OW 8572   1.091   4.717   5.785 -0.0757  0.3943  0.5006
 2558SOL    HW1 8573   0.992   4.713   5.775  0.1373 -1.5713 -1.8157
 2558SOL    HW2 8574   1.129   4.624   5.780  1.8311  0.9593  2.6131
 2559SOL     OW 8575   1.500   2.771   3.301  0.2257 -0.0853 -0.3443
 2559SOL    HW1 8576   1.445   2.694   3.269 -1.6338 -0.1426  2.6741
 2559SOL    HW2 8577   1.447   2.855   3.293 -0.1160 -0.0333  1.9237
 2560SOL     OW 8578   4.443   1.109   4.891 -0.4804  0.2427 -0.3725
 2560SOL    HW1 8579   4.489   1.192   4.859 -0.1827  0.2394  0.0406
 2560SOL    HW2 8580   4.387   1.130   4.971 -0.7716  0.1369 -0.5461
 2561SOL     OW 8581   0.749   3.111   5.374 -0.0290 -0.0989 -0.5660
 2561SOL    HW1 8582   0.756   3.165   5.458  1.9965  0.5695 -1.1179
 2561SOL    HW2 8583   0.679   3.040   5.386  0.2477 -0.0576  1.6980
 2562SOL     OW 8584   2.323   3.718   6.041  0.1561  0.0087 -0.1865
 2562SOL    HW1 8585   2.363   3.627   6.056  1.0829  0.4922  0.3864
 2562SOL    HW2 8586   2.270   3.718   5.956  0.4468 -0.9650 -0.3798
 2563SOL     OW 8587   0.926   2.198   6.180 -0.4714 -0.1190 -1.2115
 2563SOL    HW1 8588   1.023   2.220   6.181 -0.4084 -0.4385 -0.4139
 2563SOL    HW2 8589   0.884   2.238   6.098  0.0881  1.0436 -0.9395
 2564SOL     OW 8590   2.647   1.942   3.102  0.0751  0.0632  0.2996
 2564SOL    HW1 8591   2.666   1.991   3.017  0.1876  0.3961  0.5161
 2564SOL    HW2 8592   2.615   2.007   3.171  0.2148 -0.1718  0.5844
 2565SOL     OW 8593   6.892   2.198   2.124 -0.1526  0.1462  0.1791
 2565SOL    HW1 8594   6.856   2.163   2.037 -0.6716  0.8750  0.0937
 2565SOL    HW2 8595   6.859   2.291   2.138  0.4721  0.2727  0.8419
 2566SOL     OW 8596   1.301   4.329   2.968  0.5201  0.2212  0.2573
 2566SOL    HW1 8597   1.349   4.254   2.923  0.5879  0.1398  0.4654
 2566SOL    HW2 8598   1.215   4.348   2.920  1.1620  0.9298 -0.6267
 2567SOL     OW 8599   3.017   5.105   6.718  0.3524  0.1925 -0.0091
 2567SOL    HW1 8600   2.960   5.148   6.788  0.6759  2.3572 -0.9976
 2567SOL    HW2 8601   3.027   5.007   6.738  1.1102  0.8534  3.4209
 2568SOL     OW 8602   6.872   4.425   6.895 -0.0655  0.2620  0.2406
 2568SOL    HW1 8603   6.925   4.413   6.811  0.1576 -0.9598  0.5474
 2568SOL    HW2 8604   6.795   4.362   6.895 -0.4881  0.7772  0.6199
 2569SOL     OW 8605   5.293   2.144   4.484 -0.4727 -0.1550  0.1379
 2569SOL    HW1 8606   5.303   2.179   4.390 -0.9304 -1.6750 -0.5013
 2569SOL    HW2 8607   5.233   2.205   4.535 -2.3825 -0.6939 -1.3534
 2570SOL     OW 8608   6.382   6.104   2.761 -1.0803  0.0894  0.3541
 2570SOL    HW1 8609   6.347   6.192   2.728 -0.7993  1.0110  2.3880
 2570SOL    HW2 8610   6.420   6.116   2.852 -2.3725 -2.4451  1.3155
 2571SOL     OW 8611   3.043   0.785   1.423  0.2196 -0.0618  0.2134
 2571SOL    HW1 8612   3.108   0.744   1.487  0.2062  0.6569  0.7005
 2571SOL    HW2 8613   2.950   0.766   1.454  0.2127  1.1026  0.9622
 2572SOL     OW 8614   0.455   3.964   6.572  0.3312 -0.0227  0.1452
 2572SOL    HW1 8615   0.369   4.005   6.542  1.4309  2.0996 -0.2438
 2572SOL    HW2 8616   0.526   3.981   6.504  1.2453 -1.1558  0.7768
 2573SOL     OW 8617   0.562   5.849   5.015 -0.0206  0.1874  0.0467
 2573SOL    HW1 8618   0.625   5.926   5.025  0.4484 -0.3924  2.0203
 2573SOL    HW2 8619   0.528   5.822   5.105 -1.2919 -1.0094 -0.7556
 2574SOL     OW 8620   4.780   1.829   6.733 -0.2585  0.2179 -0.0599
 2574SOL    HW1 8621   4.846   1.866   6.798 -0.8366  2.6177 -0.7013
 2574SOL    HW2 8622   4.802   1.864   6.641 -1.5345 -0.1402 -0.5227
 2575SOL     OW 8623   0.953   3.545   6.060  0.8694  0.0604 -0.2500
 2575SOL    HW1 8624   0.866   3.532   6.012 -0.0397 -3.5366  1.9751
 2575SOL    HW2 8625   1.011   3.464   6.046  0.7417 -1.0192  3.9924
 2576SOL     OW 8626   5.405   1.419   0.128 -0.1131 -0.1426 -0.3355
 2576SOL    HW1 8627   5.472   1.483   0.089 -0.4013 -0.9850 -2.3263
 2576SOL    HW2 8628   5.319   1.468   0.144  0.2338  0.3891 -0.0311
 2577SOL     OW 8629   4.908   0.650   6.358 -0.5096 -0.2763  0.0161
 2577SOL    HW1 8630   4.848   0.683   6.430 -0.5399 -0.5238  0.1058
 2577SOL    HW2 8631   4.863   0.662   6.269  1.0882  3.7988 -0.4345
 2578SOL     OW 8632   3.780   2.580   0.728 -0.3631  0.3414  0.1378
 2578SOL    HW1 8633   3.800   2.516   0.654 -0.2406  2.1233 -1.4517
 2578SOL    HW2 8634   3.823   2.668   0.708  0.0228  0.7679  2.5697
 2579SOL     OW 8635   5.645   0.772   4.913  0.5393 -0.4070 -0.3544
 2579SOL    HW1 8636   5.591   0.810   4.988  0.2463  0.8872 -1.1721
 2579SOL    HW2 8637   5.671   0.678   4.934 -2.1761 -1.1746  0.0147
 2580SOL     OW 8638   3.699   4.143   3.825 -0.2565  0.7447  0.2850
 2580SOL    HW1 8639   3.600   4.145   3.840 -0.1813  0.2808  0.8863
 2580SOL    HW2 8640   3.746   4.165   3.910  0.1697 -0.7985  0.4735
 2581SOL     OW 8641   0.342   1.877   1.805  0.0662 -0.3624  0.4533
 2581SOL    HW1 8642   0.317   1.872   1.902  1.8629  1.1823  1.0550
 2581SOL    HW2 8643   0.314   1.966   1.768  0.7957 -0.3107  0.0016
 2582SOL     OW 8644   6.136   4.733   2.546  0.1974 -0.1708  0.3873
 2582SOL    HW1 8645   6.173   4.817   2.507  2.6278 -0.8830  0.9810
 2582SOL    HW2 8646   6.071   4.755   2.618  0.5853  1.2023  0.3410
 2583SOL     OW 8647   0.148   6.014   6.384  0.2157  0.1481  0.0945
 2583SOL    HW1 8648   0.092   6.016   6.467  0.1138  1.6852  0.0175
 2583SOL    HW2 8649   0.244   6.027   6.409  0.1748  0.6982 -0.0308
 2584SOL     OW 8650   2.775   3.524   5.263 -0.1201  0.2798  0.2553
 2584SOL    HW1 8651   2.682   3.491   5.278  0.3279 -0.4148  1.6133
 2584SOL    HW2 8652   2.777   3.581   5.181 -2.1436  1.9521  1.2806
 2585SOL     OW 8653   2.346   4.528   6.100 -0.6427  0.0313 -0.5087
 2585SOL    HW1 8654   2.365   4.459   6.030 -1.9994 -2.0043  1.0213
 2585SOL    HW2 8655   2.335   4.483   6.189  2.0716  2.6230  1.2983
 2586SOL     OW 8656   0.363   6.163   3.255  0.1554 -0.1304 -0.2353
 2586SOL    HW1 8657   0.400   6.132   3.167  0.2128  0.7684 -0.5320
 2586SOL    HW2 8658   0.435   6.205   3.309 -0.1970  0.6591 -0.3739
 2587SOL     OW 8659   3.776   0.367   1.375 -0.3816 -0.0030  0.1866
 2587SOL    HW1 8660   3.818   0.429   1.309 -1.3779  0.4927 -0.0131
 2587SOL    HW2 8661   3.754   0.418   1.458 -1.4646 -0.0066 -0.0832
 2588SOL     OW 8662   1.184   5.139   1.079  0.5082  0.5615 -0.2560
 2588SOL    HW1 8663   1.135   5.081   1.144  1.7942 -0.3095 -0.0194
 2588SOL    HW2 8664   1.133   5.224   1.064 -1.1214 -0.3503 -0.1321
 2589SOL     OW 8665   2.896   1.137   6.005  0.5976  0.0079 -0.0908
 2589SOL    HW1 8666   2.843   1.116   6.088  1.2929 -1.3761  0.0234
 2589SOL    HW2 8667   2.866   1.225   5.969 -1.5950 -0.6005  0.1103
 2590SOL     OW 8668   4.878   6.102   1.779 -0.4782  0.2954  0.4830
 2590SOL    HW1 8669   4.897   6.178   1.717  0.3518 -0.0753  0.2649
 2590SOL    HW2 8670   4.907   6.017   1.737 -0.4473 -0.0249  1.1397
 2591SOL     OW 8671   1.088   5.892   6.533 -0.1764 -0.1982  0.1243
 2591SOL    HW1 8672   1.162   5.850   6.586 -0.3649  0.1529  0.6790
 2591SOL    HW2 8673   1.004   5.839   6.545 -0.4792  0.4564  1.0333
 2592SOL     OW 8674   4.610   2.755   1.774  0.2081 -0.3914 -0.1606
 2592SOL    HW1 8675   4.520   2.719   1.751  0.1387  0.3725 -1.1954
 2592SOL    HW2 8676   4.600   2.836   1.832  0.2087 -0.0624 -0.6191
 2593SOL     OW 8677   0.505   5.325   1.477 -0.4816 -0.2108 -0.5627
 2593SOL    HW1 8678   0.468   5.418   1.473 -1.7971 -0.7212 -0.9202
 2593SOL    HW2 8679   0.431   5.261   1.500  0.9132 -0.8740  2.6971
 2594SOL     OW 8680   1.584   3.139   6.067 -0.1065 -0.5764 -0.1808
 2594SOL    HW1 8681   1.488   3.112   6.067 -0.0660 -1.1612  3.3116
 2594SOL    HW2 8682   1.642   3.058   6.075  0.5708 -0.1078 -0.2274
 2595SOL     OW 8683   1.699   2.817   0.312  0.6085  0.0552 -0.5375
 2595SOL    HW1 8684   1.663   2.860   0.394 -0.3747 -0.1816 -0.8369
 2595SOL    HW2 8685   1.796   2.795   0.325  0.2464 -0.7906  0.8745
 2596SOL     OW 8686   3.165   6.724   3.132  0.3667 -0.4972 -0.3424
 2596SOL    HW1 8687   3.097   6.778   3.182 -0.3061 -2.3805  0.8764
 2596SOL    HW2 8688   3.120   6.664   3.067  1.0714  0.0524 -1.3679
 2597SOL     OW 8689   6.355   4.578   4.340  0.6145  0.8448  0.0139
 2597SOL    HW1 8690   6.397   4.513   4.404 -3.6489 -1.5797  0.7779
 2597SOL    HW2 8691   6.311   4.651   4.392 -0.2851  0.5489 -0.3126
 2598SOL     OW 8692   2.604   5.005   4.816  0.2238 -0.8501 -0.2700
 2598SOL    HW1 8693   2.590   5.083   4.877  1.5050 -1.5407  0.9808
 2598SOL    HW2 8694   2.682   5.022   4.756  0.0528 -0.8752 -0.5015
 2599SOL     OW 8695   5.233   4.834   2.772  0.4868 -0.4929 -0.2060
 2599SOL    HW1 8696   5.302   4.770   2.736  0.1328 -0.6188 -0.6641
 2599SOL    HW2 8697   5.238   4.920   2.722 -0.5450 -0.9456 -1.1093
 2600SOL     OW 8698   6.077   3.700   4.504 -0.1755  0.2010 -0.2735
 2600SOL    HW1 8699   6.086   3.799   4.494 -0.0121  0.1568 -0.5730
 2600SOL    HW2 8700   6.131   3.654   4.433  0.0430 -0.1058  0.0834
 2601SOL     OW 8701   3.724   4.815   0.912  0.4839 -0.5746  0.6559
 2601SOL    HW1 8702   3.729   4.715   0.908  1.3445 -0.5210 -0.3391
 2601SOL    HW2 8703   3.680   4.849   0.828 -0.5647 -0.1439  1.3641
 2602SOL     OW 8704   4.357   2.155   6.615  0.2076  0.4883 -0.3746
 2602SOL    HW1 8705   4.350   2.154   6.715  1.5843  2.1231 -0.2112
 2602SOL    HW2 8706   4.289   2.219   6.579  0.0333  0.2615 -0.4482
 2603SOL     OW 8707   5.475   2.033   0.766  0.2627  0.1023 -0.3501
 2603SOL    HW1 8708   5.546   1.995   0.825  0.4164 -1.7774 -1.6620
 2603SOL    HW2 8709   5.400   1.967   0.757  0.1658  0.3987 -2.0937
 2604SOL     OW 8710   4.349   0.089   5.580  0.4144  0.0830  0.1546
 2604SOL    HW1 8711   4.344   0.002   5.531 -1.6878  0.4832 -0.4187
 2604SOL    HW2 8712   4.442   0.125   5.574  1.7173 -2.6784  1.4628
 2605SOL     OW 8713   5.974   2.183   5.648  0.5330  0.1372  0.0394
 2605SOL    HW1 8714   5.948   2.249   5.577 -0.1939 -0.3912 -0.1884
 2605SOL    HW2 8715   6.066   2.204   5.680 -0.7903  3.3303  2.2886
 2606SOL     OW 8716   2.322   6.443   6.034 -0.6925 -0.3742  0.4726
 2606SOL    HW1 8717   2.320   6.518   6.100 -1.8947  0.3602 -0.3738
 2606SOL    HW2 8718   2.320   6.480   5.941 -0.1757 -1.4341  0.0198
 2607SOL     OW 8719   2.641   0.250   2.052 -0.5164 -1.0514  0.1916
 2607SOL    HW1 8720   2.646   0.276   2.149 -1.9556  0.7010 -0.1411
 2607SOL    HW2 8721   2.687   0.163   2.038  2.0023 -0.1355  2.0028
 2608SOL     OW 8722   6.002   4.011   4.417 -0.4460 -0.5003  0.3482
 2608SOL    HW1 8723   6.041   4.099   4.389  0.8994 -0.9316  0.7993
 2608SOL    HW2 8724   6.018   3.943   4.347 -0.5606 -0.6400  0.4569
 2609SOL     OW 8725   0.865   3.574   3.845 -0.0689  0.1319  0.0597
 2609SOL    HW1 8726   0.843   3.653   3.902 -0.3904  0.5891 -0.6739
 2609SOL    HW2 8727   0.811   3.495   3.873 -0.1568  0.3297  0.4439
 2610SOL     OW 8728   5.912   6.895   0.996  0.0824  0.1908  0.4014
 2610SOL    HW1 8729   5.821   6.923   0.964 -0.7761  0.1426  2.5785
 2610SOL    HW2 8730   5.981   6.920   0.929 -1.4159  1.2542 -0.8066
 2611SOL     OW 8731   1.958   2.288   3.159  0.2247 -0.8210  0.6299
 2611SOL    HW1 8732   1.970   2.387   3.151 -0.1930 -0.8880 -1.0842
 2611SOL    HW2 8733   1.866   2.268   3.194 -0.2002 -0.6089 -0.3267
 2612SOL     OW 8734   5.428   3.729   3.656  0.3383  0.0159 -0.4255
 2612SOL    HW1 8735   5.412   3.723   3.754  2.7341 -1.4555 -0.0328
 2612SOL    HW2 8736   5.512   3.782   3.639 -0.5980  1.1535 -1.7802
 2613SOL     OW 8737   4.654   2.032   4.879 -0.4495 -0.0845  0.0308
 2613SOL    HW1 8738   4.594   2.111   4.891  0.4173  0.6108 -0.1237
 2613SOL    HW2 8739   4.621   1.976   4.804 -0.2307  0.9350 -0.8436
 2614SOL     OW 8740   5.852   4.247   0.043 -0.2377 -0.4108  1.0572
 2614SOL    HW1 8741   5.834   4.263  -0.054  0.7715  0.5699  1.0136
 2614SOL    HW2 8742   5.774   4.200   0.084 -1.4533  0.7460  0.1639
 2615SOL     OW 8743   1.368   6.204   6.095  0.1091  0.1554 -0.0370
 2615SOL    HW1 8744   1.399   6.275   6.159  0.1349 -0.0624  0.1946
 2615SOL    HW2 8745   1.407   6.116   6.122  2.6165  0.5308 -2.1314
 2616SOL     OW 8746   5.216   3.316   5.091  0.0756  0.1926 -0.3698
 2616SOL    HW1 8747   5.124   3.325   5.054 -0.1198  0.0875  0.0816
 2616SOL    HW2 8748   5.218   3.240   5.156  0.4393  0.2954 -0.2596
 2617SOL     OW 8749   1.263   3.024   4.533  0.0622 -0.4714 -0.0179
 2617SOL    HW1 8750   1.349   2.997   4.576  0.5911  0.0597 -0.7183
 2617SOL    HW2 8751   1.255   3.124   4.534 -0.9602 -0.5420  0.8043
 2618SOL     OW 8752   3.132   3.168   2.448 -0.4456  0.5531  0.2667
 2618SOL    HW1 8753   3.066   3.204   2.513  1.8108  0.2781  2.8753
 2618SOL    HW2 8754   3.195   3.240   2.419 -0.8443  0.4560 -0.8995
 2619SOL     OW 8755   1.863   4.410   3.608 -0.4221  0.6877  0.4113
 2619SOL    HW1 8756   1.903   4.432   3.519 -0.4578  1.0772  0.4893
 2619SOL    HW2 8757   1.936   4.398   3.675 -0.4244  1.2476  0.5193
 2620SOL     OW 8758   2.107   0.645   3.652 -0.8634  0.4606 -0.3279
 2620SOL    HW1 8759   2.029   0.585   3.670  0.4929 -0.7539  2.0524
 2620SOL    HW2 8760   2.123   0.704   3.732 -0.2877  1.8274 -1.4093
 2621SOL     OW 8761   6.286   0.337   0.105 -0.2940 -0.3569  0.6729
 2621SOL    HW1 8762   6.261   0.281   0.026 -1.5687  0.9702  0.0794
 2621SOL    HW2 8763   6.227   0.418   0.108  0.9128  0.5189  1.9898
 2622SOL     OW 8764   3.006   5.320   2.186  0.1920 -0.0594 -0.4458
 2622SOL    HW1 8765   3.005   5.335   2.087  0.1880  0.5977 -0.3523
 2622SOL    HW2 8766   2.982   5.225   2.206  0.2103 -0.1984 -1.0762
 2623SOL     OW 8767   0.922   1.765   4.562  0.3873  0.3754 -0.2170
 2623SOL    HW1 8768   0.931   1.859   4.529 -0.6929  0.4980 -0.2059
 2623SOL    HW2 8769   0.850   1.761   4.631  0.4514 -0.4514 -0.1926
 2624SOL     OW 8770   4.945   5.377   4.283 -0.8532  0.3826 -0.3439
 2624SOL    HW1 8771   4.953   5.475   4.269  3.2416  0.2041 -0.3031
 2624SOL    HW2 8772   4.946   5.330   4.195  0.1065  0.2875 -0.2908
 2625SOL     OW 8773   3.239   0.487   0.525 -0.2422 -0.2332  0.0540
 2625SOL    HW1 8774   3.207   0.406   0.574 -0.3857  0.9215  1.9546
 2625SOL    HW2 8775   3.205   0.484   0.431 -2.1878 -1.2600  0.7233
 2626SOL     OW 8776   6.451   4.124   3.123 -0.2290 -0.6395  0.4106
 2626SOL    HW1 8777   6.522   4.160   3.063 -0.4991  0.3449  0.6724
 2626SOL    HW2 8778   6.363   4.128   3.075 -0.0035 -2.7180 -0.2684
 2627SOL     OW 8779   6.464   3.139   4.786 -0.0380 -0.1786  0.0367
 2627SOL    HW1 8780   6.394   3.174   4.848  2.0241  1.3902  1.6027
 2627SOL    HW2 8781   6.470   3.039   4.796 -0.8912 -0.1409  1.1033
 2628SOL     OW 8782   3.920   6.907   5.024 -0.1358  0.1265 -0.1105
 2628SOL    HW1 8783   3.851   6.904   4.951 -1.1788  0.4933  0.8333
 2628SOL    HW2 8784   3.897   6.840   5.094  0.8886 -0.2520 -0.1246
 2629SOL     OW 8785   0.602   0.537   3.366 -0.6339  0.9732  0.0381
 2629SOL    HW1 8786   0.634   0.458   3.418 -1.0261  1.3215  0.8268
 2629SOL    HW2 8787   0.598   0.514   3.269 -0.5707  0.0856  0.2402
 2630SOL     OW 8788   0.724   3.995   5.511 -0.0901  0.0203 -0.1226
 2630SOL    HW1 8789   0.625   4.004   5.509 -0.6420 -3.9531  1.0277
 2630SOL    HW2 8790   0.756   3.994   5.606  0.6612 -1.2755 -0.3632
 2631SOL     OW 8791   5.760   3.624   1.112  0.0631  0.1329  0.1125
 2631SOL    HW1 8792   5.711   3.621   1.199 -0.3415  1.6261 -0.0281
 2631SOL    HW2 8793   5.849   3.670   1.126 -0.0123  0.3952 -0.2559
 2632SOL     OW 8794   4.492   3.068   5.386  0.1639  0.0418  0.2848
 2632SOL    HW1 8795   4.497   3.025   5.476 -0.8570 -0.3130  0.1776
 2632SOL    HW2 8796   4.410   3.125   5.381 -0.5113 -0.9990 -0.8745
 2633SOL     OW 8797   1.997   3.630   4.164  0.6430  0.2781 -0.3253
 2633SOL    HW1 8798   2.061   3.621   4.240  0.7994 -0.1524 -0.5038
 2633SOL    HW2 8799   2.043   3.607   4.078  1.0778  2.8454 -0.8511
 2634SOL     OW 8800   2.923   6.893   2.863  0.0643  0.4049 -0.1669
 2634SOL    HW1 8801   2.880   6.922   2.778  1.4040  1.6387 -0.4550
 2634SOL    HW2 8802   2.855   6.848   2.921 -0.6600 -1.3085 -2.2479
 2635SOL     OW 8803   1.963   4.332   5.170 -0.0567  0.2976 -0.1847
 2635SOL    HW1 8804   2.016   4.286   5.099 -0.3720  0.7119 -0.6905
 2635SOL    HW2 8805   1.866   4.317   5.154 -0.1081 -0.4688  0.7501
 2636SOL     OW 8806   5.123   2.872   5.569 -0.6200 -0.4656 -0.2413
 2636SOL    HW1 8807   5.060   2.909   5.502 -0.3887 -0.5055 -0.4832
 2636SOL    HW2 8808   5.073   2.844   5.651 -0.8710 -0.1855 -0.2979
 2637SOL     OW 8809   6.880   4.869   5.837  0.0196  0.2743 -0.1241
 2637SOL    HW1 8810   6.950   4.812   5.881 -0.3957  0.4481  0.7820
 2637SOL    HW2 8811   6.892   4.866   5.738 -0.2460 -1.7514 -0.1454
 2638SOL     OW 8812   4.783   5.096   4.168 -0.2100  0.2265 -0.3952
 2638SOL    HW1 8813   4.706   5.151   4.201 -1.3521 -1.2415 -0.4896
 2638SOL    HW2 8814   4.837   5.150   4.104 -1.9507  0.9018 -1.3808
 2639SOL     OW 8815   0.441   5.106   4.136  0.2361  0.4340  0.4574
 2639SOL    HW1 8816   0.392   5.112   4.049 -0.2524  0.9213  0.7658
 2639SOL    HW2 8817   0.538   5.125   4.121  0.3362 -0.4911 -0.1452
 2640SOL     OW 8818   3.526   6.446   6.515 -0.0274  0.6523  0.3795
 2640SOL    HW1 8819   3.462   6.387   6.466 -0.8440  0.2931  1.8175
 2640SOL    HW2 8820   3.555   6.520   6.455 -1.0039  0.2572 -0.6270
 2641SOL     OW 8821   5.800   0.886   5.946  0.4258 -0.0028 -0.4883
 2641SOL    HW1 8822   5.814   0.800   5.896  0.4976 -0.9937  1.1646
 2641SOL    HW2 8823   5.832   0.875   6.040  1.3826  2.1807 -0.5077
 2642SOL     OW 8824   5.326   0.948   6.695 -0.3083  0.9588 -0.3967
 2642SOL    HW1 8825   5.229   0.966   6.683 -1.1323 -1.4661  1.7293
 2642SOL    HW2 8826   5.348   0.949   6.793  1.5754  0.3756 -0.7717
 2643SOL     OW 8827   4.889   3.446   3.987  0.0191  0.5833  0.6161
 2643SOL    HW1 8828   4.864   3.406   3.899 -1.5204  0.4415  1.0998
 2643SOL    HW2 8829   4.972   3.501   3.976  0.3851 -0.1951 -0.7127
 2644SOL     OW 8830   0.622   2.347   2.162  0.1260  0.1396 -0.4995
 2644SOL    HW1 8831   0.583   2.313   2.247  1.7815 -0.8160 -0.0997
 2644SOL    HW2 8832   0.614   2.277   2.091 -2.0576  1.2423 -1.4514
 2645SOL     OW 8833   1.492   4.534   5.020  0.4937  0.1326 -0.4583
 2645SOL    HW1 8834   1.543   4.611   5.058  0.1642  0.3294 -0.4121
 2645SOL    HW2 8835   1.446   4.564   4.936 -1.5386  0.6487  0.7902
 2646SOL     OW 8836   5.686   5.278   5.360 -0.3354  0.1516 -0.1038
 2646SOL    HW1 8837   5.621   5.345   5.325 -1.9968 -1.1775  0.2952
 2646SOL    HW2 8838   5.678   5.193   5.307  0.5471 -0.2948  0.4526
 2647SOL     OW 8839   1.605   2.418   6.116 -0.2598 -0.2589  0.4981
 2647SOL    HW1 8840   1.563   2.373   6.195 -0.0976 -1.1096  0.1152
 2647SOL    HW2 8841   1.583   2.366   6.033 -0.4607  0.6427 -0.0260
 2648SOL     OW 8842   4.102   2.219   5.144 -0.4944  0.4550  0.8153
 2648SOL    HW1 8843   4.162   2.147   5.178 -0.3594  0.3963  0.4546
 2648SOL    HW2 8844   4.156   2.297   5.112 -0.5228 -0.1412 -0.7847
 2649SOL     OW 8845   2.425   5.428   5.583 -0.6305  0.6290  0.2821
 2649SOL    HW1 8846   2.334   5.403   5.550 -0.0047  0.3508 -1.3339
 2649SOL    HW2 8847   2.463   5.500   5.525  0.5210  0.1387  0.4034
 2650SOL     OW 8848   6.809   6.786   1.653 -0.0914 -0.1155  0.1780
 2650SOL    HW1 8849   6.725   6.812   1.702 -1.4176 -2.2812 -0.7664
 2650SOL    HW2 8850   6.806   6.824   1.560  0.3061  0.3458  0.3508
 2651SOL     OW 8851   5.470   0.679   5.428  0.0215  0.0768  0.1963
 2651SOL    HW1 8852   5.528   0.707   5.351  0.3270  1.9066  1.0366
 2651SOL    HW2 8853   5.516   0.608   5.480  0.9190  0.5333  0.0604
 2652SOL     OW 8854   3.623   4.456   6.675  0.0053 -0.2952 -0.1399
 2652SOL    HW1 8855   3.528   4.480   6.657  0.3727  1.5137  0.1161
 2652SOL    HW2 8856   3.640   4.458   6.773  0.5601  0.5142 -0.2419
 2653SOL     OW 8857   4.257   6.604   0.280 -0.3606  0.9450 -0.2260
 2653SOL    HW1 8858   4.244   6.528   0.344  1.1487  0.8735  0.0308
 2653SOL    HW2 8859   4.216   6.687   0.319  0.8377  0.9868  1.0305
 2654SOL     OW 8860   5.460   6.585   6.562  0.1461 -0.1294  0.1890
 2654SOL    HW1 8861   5.547   6.629   6.586 -0.5384  0.5154  1.5926
 2654SOL    HW2 8862   5.473   6.486   6.560  0.8143 -0.0675  0.8487
 2655SOL     OW 8863   2.998   6.321   3.256  0.0700 -0.3676 -0.2980
 2655SOL    HW1 8864   2.952   6.334   3.168 -0.0456 -0.0325 -0.1907
 2655SOL    HW2 8865   2.936   6.273   3.318 -1.0040  1.9867  0.5544
 2656SOL     OW 8866   0.060   3.148   1.440  0.4551  0.1271  0.2689
 2656SOL    HW1 8867   0.059   3.125   1.537 -3.2697 -2.4366 -0.1616
 2656SOL    HW2 8868   0.013   3.236   1.426  1.2065  0.6194  0.7657
 2657SOL     OW 8869   6.428   2.984   0.029 -0.0664 -0.0797 -0.0036
 2657SOL    HW1 8870   6.378   3.067   0.003 -0.0238 -0.0643 -0.0364
 2657SOL    HW2 8871   6.396   2.907  -0.026  0.5120  0.0947 -0.6031
 2658SOL     OW 8872   0.978   3.075   4.889 -0.5884  0.0674  0.3444
 2658SOL    HW1 8873   1.046   3.004   4.908 -0.5517 -0.0532 -0.2177
 2658SOL    HW2 8874   0.898   3.033   4.847 -0.4677  0.3935 -0.2169
 2659SOL     OW 8875   6.192   0.457   0.716 -0.4945  0.2460 -0.1652
 2659SOL    HW1 8876   6.169   0.378   0.659 -2.3303  1.5103 -1.2992
 2659SOL    HW2 8877   6.229   0.530   0.658  0.3679  0.5443  0.7314
 2660SOL     OW 8878   0.745   3.796   3.965 -0.3794  0.2100 -0.7193
 2660SOL    HW1 8879   0.725   3.871   4.028 -0.3222  0.4664 -1.0054
 2660SOL    HW2 8880   0.712   3.820   3.873 -0.5227 -0.1876 -0.7736
 2661SOL     OW 8881   2.086   1.041   5.721  0.2639 -0.1826  0.2725
 2661SOL    HW1 8882   2.180   1.071   5.710 -0.5298  1.7123 -2.3000
 2661SOL    HW2 8883   2.036   1.106   5.778 -0.1646  0.4756 -0.8278
 2662SOL     OW 8884   1.994   1.370   1.917  0.0342 -0.3235 -1.0521
 2662SOL    HW1 8885   1.937   1.291   1.938 -0.2217  0.0904 -0.1470
 2662SOL    HW2 8886   1.939   1.439   1.868 -0.0612 -0.2041 -0.7757
 2663SOL     OW 8887   3.632   4.126   2.429  0.1542  0.1854 -0.7956
 2663SOL    HW1 8888   3.545   4.125   2.379 -0.6843 -1.1485  0.5933
 2663SOL    HW2 8889   3.708   4.123   2.364 -0.8447  0.2456 -2.0188
 2664SOL     OW 8890   5.759   5.831   6.516  0.2085  0.0601  0.0745
 2664SOL    HW1 8891   5.857   5.846   6.499 -0.0382 -0.4529 -2.0433
 2664SOL    HW2 8892   5.746   5.802   6.611  2.0240  0.7964  0.5994
 2665SOL     OW 8893   5.577   3.529   1.514  0.0526  0.3356  0.2589
 2665SOL    HW1 8894   5.595   3.431   1.503  1.7692  0.7536 -1.3036
 2665SOL    HW2 8895   5.572   3.572   1.424 -0.8866  1.6666  0.9197
 2666SOL     OW 8896   6.466   3.465   4.579 -0.4009  0.0772  0.4197
 2666SOL    HW1 8897   6.550   3.473   4.524  0.4105  2.0770  1.8070
 2666SOL    HW2 8898   6.398   3.412   4.529  0.4091  1.4364 -2.3625
 2667SOL     OW 8899   5.240   2.821   6.725  0.4089 -0.0293 -0.1989
 2667SOL    HW1 8900   5.169   2.867   6.672 -0.0477  2.4055  2.2939
 2667SOL    HW2 8901   5.199   2.748   6.779 -0.0776  0.6896  0.4381
 2668SOL     OW 8902   2.892   3.514   3.626  0.4128 -0.2010  0.2371
 2668SOL    HW1 8903   2.934   3.469   3.548 -0.7547 -1.5419  0.3579
 2668SOL    HW2 8904   2.793   3.516   3.615  0.3859  2.7591  0.0391
 2669SOL     OW 8905   6.780   6.097   0.133 -0.1740 -0.0977 -0.0845
 2669SOL    HW1 8906   6.839   6.157   0.186 -0.0746  1.7055 -2.1411
 2669SOL    HW2 8907   6.829   6.063   0.053 -0.9673 -1.0770 -0.1782
 2670SOL     OW 8908   2.205   1.889   3.514  0.6370 -0.0789 -0.4504
 2670SOL    HW1 8909   2.151   1.959   3.467  1.2857 -0.8563 -2.4900
 2670SOL    HW2 8910   2.155   1.802   3.512  1.3179 -0.4649 -1.0490
 2671SOL     OW 8911   6.382   6.695   1.933  0.4626 -0.0571  0.3869
 2671SOL    HW1 8912   6.304   6.638   1.908  0.6741 -1.1022  1.9268
 2671SOL    HW2 8913   6.352   6.771   1.990  0.6156 -0.9141  1.6586
 2672SOL     OW 8914   2.819   0.288   3.650  0.2105  0.0095  0.3651
 2672SOL    HW1 8915   2.748   0.334   3.598  1.0771 -0.1185 -0.9877
 2672SOL    HW2 8916   2.902   0.344   3.651  1.3330 -1.4892 -1.4465
 2673SOL     OW 8917   6.135   6.800   3.758 -0.6709  0.1507 -0.4405
 2673SOL    HW1 8918   6.124   6.892   3.723 -2.4070 -0.1489 -0.7718
 2673SOL    HW2 8919   6.062   6.779   3.823  0.8860 -0.2845  1.2703
 2674SOL     OW 8920   6.827   2.881   1.352 -0.2131  0.6714  0.3665
 2674SOL    HW1 8921   6.794   2.905   1.443 -0.8510 -0.7429  0.5441
 2674SOL    HW2 8922   6.864   2.962   1.306 -0.0659  1.4332  1.7992
 2675SOL     OW 8923   6.493   5.711   3.511  0.1573  0.3943  0.2465
 2675SOL    HW1 8924   6.440   5.693   3.428 -0.4040 -0.5855  0.8020
 2675SOL    HW2 8925   6.463   5.650   3.584  1.1289  0.7584  0.9754
 2676SOL     OW 8926   3.246   4.952   4.272  0.3674  0.2137 -0.5945
 2676SOL    HW1 8927   3.168   4.895   4.299 -0.5512  1.1296 -1.2340
 2676SOL    HW2 8928   3.265   4.938   4.175  1.9707 -1.0972 -0.1425
 2677SOL     OW 8929   1.889   6.904   0.438 -0.4462  0.4624  0.0381
 2677SOL    HW1 8930   1.941   6.834   0.389 -2.6197 -0.7252 -0.7170
 2677SOL    HW2 8931   1.804   6.923   0.389 -0.6224  2.5666  1.0378
 2678SOL     OW 8932   1.726   0.804   5.487 -0.0021 -0.2062  0.2826
 2678SOL    HW1 8933   1.677   0.879   5.531 -0.6026 -0.5824  0.2780
 2678SOL    HW2 8934   1.823   0.826   5.479 -0.2590  0.8008 -0.2067
 2679SOL     OW 8935   4.676   4.753   1.653  0.3292 -0.2539  0.2396
 2679SOL    HW1 8936   4.740   4.744   1.728  0.1300  1.4613  0.6567
 2679SOL    HW2 8937   4.593   4.799   1.685 -0.8170 -1.7534 -0.4572
 2680SOL     OW 8938   6.490   2.046   5.361  0.3778 -0.1370 -0.2197
 2680SOL    HW1 8939   6.490   1.946   5.363 -0.6582 -0.1464 -0.3699
 2680SOL    HW2 8940   6.577   2.078   5.323  0.3436 -1.0011 -1.0744
 2681SOL     OW 8941   3.592   4.826   0.683  0.3890 -0.4261  0.2753
 2681SOL    HW1 8942   3.643   4.848   0.600 -0.2256  0.8133  0.2027
 2681SOL    HW2 8943   3.522   4.758   0.662 -0.0990  0.2544 -0.3578
 2682SOL     OW 8944   2.070   4.538   2.201 -0.0035  0.5505 -0.4408
 2682SOL    HW1 8945   2.162   4.558   2.237  0.4027 -0.3243 -0.9673
 2682SOL    HW2 8946   2.034   4.620   2.155  0.4429  0.9532 -0.0809
 2683SOL     OW 8947   0.744   5.041   3.274  0.0978 -0.4182 -0.5825
 2683SOL    HW1 8948   0.803   4.985   3.216 -0.0277 -0.9421 -0.2123
 2683SOL    HW2 8949   0.674   4.983   3.316 -0.0338  0.0174 -0.1960
 2684SOL     OW 8950   1.831   5.413   5.545 -0.2586 -0.2426  0.0818
 2684SOL    HW1 8951   1.820   5.450   5.452  3.1994 -0.4909 -0.5641
 2684SOL    HW2 8952   1.843   5.489   5.609  1.8974 -0.0454 -0.4715
 2685SOL     OW 8953   5.291   0.858   0.841  0.1623 -0.6747 -0.5151
 2685SOL    HW1 8954   5.369   0.808   0.803  0.0888  0.5427 -2.3986
 2685SOL    HW2 8955   5.247   0.911   0.769  1.5793  3.9299  1.6195
 2686SOL     OW 8956   0.637   0.239   0.740  0.2915  0.2844  1.0613
 2686SOL    HW1 8957   0.714   0.273   0.686 -1.0681 -0.2737 -1.3625
 2686SOL    HW2 8958   0.567   0.310   0.746  0.4690  0.3832  2.2665
 2687SOL     OW 8959   3.496   5.232   5.107 -0.2518 -0.7494 -0.6454
 2687SOL    HW1 8960   3.454   5.155   5.156  1.4486 -1.5350 -0.3336
 2687SOL    HW2 8961   3.562   5.277   5.166  1.1820 -1.1459 -1.8683
 2688SOL     OW 8962   2.928   0.051   0.873  0.4651  0.1921  0.2368
 2688SOL    HW1 8963   2.926   0.105   0.957 -0.6686  2.3672 -1.0737
 2688SOL    HW2 8964   2.865  -0.026   0.881  0.2242  0.4931  1.3118
 2689SOL     OW 8965   4.073   4.610   5.678  0.4668 -0.0624 -0.1303
 2689SOL    HW1 8966   4.013   4.651   5.609 -0.4294 -0.0701  0.6308
 2689SOL    HW2 8967   4.093   4.515   5.653 -0.1083 -0.1620 -0.2222
 2690SOL     OW 8968   1.389   4.107   2.179 -0.1116 -0.6507  0.2391
 2690SOL    HW1 8969   1.422   4.038   2.244  0.7178  0.1967  0.7358
 2690SOL    HW2 8970   1.451   4.185   2.178 -0.8682 -0.0361 -0.5509
 2691SOL     OW 8971   5.579   2.572   2.485  0.4135  0.7215 -0.5664
 2691SOL    HW1 8972   5.508   2.551   2.553 -1.0554 -2.5061 -2.8171
 2691SOL    HW2 8973   5.662   2.522   2.508  0.5017  1.0095 -0.2492
 2692SOL     OW 8974   0.606   4.585   2.028  0.4740 -0.0084 -0.6090
 2692SOL    HW1 8975   0.512   4.561   2.001  0.2698  1.4361 -1.2770
 2692SOL    HW2 8976   0.651   4.631   1.952  1.2804  0.4996  0.1627
 2693SOL     OW 8977   2.649   0.768   1.865 -0.4059 -0.0630 -0.3951
 2693SOL    HW1 8978   2.727   0.746   1.806 -0.4929  0.2422 -0.6279
 2693SOL    HW2 8979   2.566   0.772   1.811 -1.0545 -2.9057  0.2357
 2694SOL     OW 8980   3.852   3.134   1.504  1.4565 -0.1011 -0.1651
 2694SOL    HW1 8981   3.879   3.191   1.582  1.5280 -0.3775  0.0131
 2694SOL    HW2 8982   3.755   3.110   1.512  1.5248 -0.3375 -0.0271
 2695SOL     OW 8983   3.904   1.620   3.061  0.0799  0.3770 -0.0835
 2695SOL    HW1 8984   3.918   1.529   3.101 -1.0452 -0.3069 -1.1806
 2695SOL    HW2 8985   3.902   1.613   2.961  1.0962  1.7930 -0.2324
 2696SOL     OW 8986   6.832   4.606   0.090 -0.3748  0.6069 -0.2065
 2696SOL    HW1 8987   6.801   4.549   0.166 -0.7087 -0.1168 -0.8613
 2696SOL    HW2 8988   6.872   4.548   0.019 -0.7453  1.1787 -0.9039
 2697SOL     OW 8989   3.235   0.737   1.625  0.2970  0.0415  0.4705
 2697SOL    HW1 8990   3.239   0.643   1.658  1.8264 -0.0989 -0.0305
 2697SOL    HW2 8991   3.297   0.748   1.548 -0.1082  1.3908  0.3040
 2698SOL     OW 8992   5.509   0.807   3.504  0.4025  0.3393 -0.1905
 2698SOL    HW1 8993   5.467   0.728   3.458  0.2403  1.7957 -2.7112
 2698SOL    HW2 8994   5.498   0.888   3.447  0.0711  2.3667  2.5791
 2699SOL     OW 8995   4.950   0.175   6.337 -0.2264  0.0632 -0.0376
 2699SOL    HW1 8996   5.002   0.260   6.346 -0.9390  0.5020 -0.0130
 2699SOL    HW2 8997   5.011   0.097   6.351  0.7137  0.5222 -1.3815
 2700SOL     OW 8998   2.474   4.407   5.542 -0.0103  0.4115 -0.1147
 2700SOL    HW1 8999   2.470   4.328   5.481 -0.5301  0.2594  0.1021
 2700SOL    HW2 9000   2.558   4.404   5.596  0.1428  0.2018 -0.3649
 2701SOL     OW 9001   5.923   4.332   4.398 -0.0807 -0.1490  0.1454
 2701SOL    HW1 9002   5.989   4.276   4.348  0.1426  1.2805 -1.2302
 2701SOL    HW2 9003   5.943   4.326   4.496  2.0202  0.0995 -0.2092
 2702SOL     OW 9004   2.096   2.944   7.000 -0.7050  0.0160  0.0250
 2702SOL    HW1 9005   2.007   2.990   7.004 -0.5574  0.2175  1.1202
 2702SOL    HW2 9006   2.086   2.857   6.953 -1.7173 -0.4893  1.1412
 2703SOL     OW 9007   3.556   1.334   6.206 -0.1352  0.4626  1.0844
 2703SOL    HW1 9008   3.654   1.349   6.190 -0.5810  2.0953 -0.3740
 2703SOL    HW2 9009   3.543   1.246   6.252  1.8146 -1.6185 -1.9770
 2704SOL     OW 9010   5.940   6.099   3.781  0.0951 -0.5510  0.3774
 2704SOL    HW1 9011   5.989   6.183   3.803 -2.2998  1.5411 -1.6377
 2704SOL    HW2 9012   5.990   6.048   3.711  0.4054  0.4764 -0.1643
 2705SOL     OW 9013   4.781   6.383   5.382  0.1268  0.8889  0.0891
 2705SOL    HW1 9014   4.854   6.374   5.450  1.3808  0.2208 -1.2857
 2705SOL    HW2 9015   4.755   6.293   5.348 -0.9019  1.1718  0.0984
 2706SOL     OW 9016   4.005   2.140   3.890  0.0585  0.2932  0.0526
 2706SOL    HW1 9017   3.921   2.153   3.838  0.0642 -1.8257 -0.6094
 2706SOL    HW2 9018   3.982   2.123   3.986 -0.5104 -2.2529 -0.4567
 2707SOL     OW 9019   4.916   3.424   0.118 -0.3414  0.6052  0.1578
 2707SOL    HW1 9020   4.849   3.499   0.117 -1.4470 -0.3479  0.8670
 2707SOL    HW2 9021   4.885   3.351   0.058 -0.5227 -0.3278  1.3578
 2708SOL     OW 9022   0.707   3.632   2.017 -0.4646  0.1455  0.7125
 2708SOL    HW1 9023   0.629   3.691   2.035  0.3329  0.5036  3.3144
 2708SOL    HW2 9024   0.792   3.682   2.032  0.2301 -1.3252  2.0096
 2709SOL     OW 9025   5.773   1.196   5.295  0.4459  0.1504 -0.2089
 2709SOL    HW1 9026   5.707   1.216   5.223  0.6257  1.2450 -0.0807
 2709SOL    HW2 9027   5.786   1.277   5.352  2.0032 -0.0055 -0.3056
 2710SOL     OW 9028   1.608   1.429   6.881  0.9307  0.3367 -0.1885
 2710SOL    HW1 9029   1.592   1.333   6.859  0.9828 -0.2320  2.0086
 2710SOL    HW2 9030   1.704   1.452   6.867  1.5456 -0.7458  1.8241
 2711SOL     OW 9031   0.521   4.273   3.416  0.3472  0.0211  0.4812
 2711SOL    HW1 9032   0.518   4.366   3.452 -1.4222 -0.3752  1.4586
 2711SOL    HW2 9033   0.497   4.208   3.488  0.9333 -1.1597 -0.3471
 2712SOL     OW 9034   0.818   0.085   6.794  0.1733  0.3961 -0.7344
 2712SOL    HW1 9035   0.847  -0.003   6.832  0.0955  0.5737 -0.2497
 2712SOL    HW2 9036   0.852   0.159   6.852 -1.0315  0.6187 -0.2720
 2713SOL     OW 9037   1.919   4.000   5.073 -0.0513 -0.7259 -0.2733
 2713SOL    HW1 9038   1.922   3.989   5.173 -0.1040  0.3544 -0.1401
 2713SOL    HW2 9039   1.996   4.057   5.044 -0.7177 -0.0454 -0.7110
 2714SOL     OW 9040   0.799   2.785   0.780  0.4844 -0.2142 -0.5242
 2714SOL    HW1 9041   0.872   2.807   0.715  0.4818  0.1505 -0.4085
 2714SOL    HW2 9042   0.719   2.842   0.761  1.3233  1.7170  1.3080
 2715SOL     OW 9043   2.502   5.584   5.961 -0.4319  0.5794  0.5167
 2715SOL    HW1 9044   2.424   5.590   5.898 -0.0715  0.4334  0.0481
 2715SOL    HW2 9045   2.550   5.672   5.963  0.3889  0.1813 -0.5169
 2716SOL     OW 9046   4.537   3.681   1.048  0.1218  0.2203 -0.1050
 2716SOL    HW1 9047   4.505   3.587   1.049 -2.0121  0.8935  0.4091
 2716SOL    HW2 9048   4.625   3.687   1.095  0.3807 -1.5326 -0.3194
 2717SOL     OW 9049   4.262   6.856   5.433 -0.0640 -0.0947  0.3819
 2717SOL    HW1 9050   4.167   6.881   5.420  0.4134  1.9760  0.5228
 2717SOL    HW2 9051   4.294   6.802   5.355 -1.5123 -1.4337  0.6768
 2718SOL     OW 9052   5.435   5.747   4.570 -0.0345  0.0595 -0.0086
 2718SOL    HW1 9053   5.471   5.819   4.510 -1.0250  1.1096  0.6134
 2718SOL    HW2 9054   5.345   5.775   4.605  0.4452 -0.5883  1.8332
 2719SOL     OW 9055   4.855   5.129   3.601  0.3167 -0.7121 -0.2009
 2719SOL    HW1 9056   4.837   5.132   3.502 -0.0009  0.5674 -0.1314
 2719SOL    HW2 9057   4.806   5.205   3.645  0.0271 -1.5806  1.0161
 2720SOL     OW 9058   2.106   3.795   3.159 -0.8562 -0.2771 -0.2877
 2720SOL    HW1 9059   2.155   3.859   3.101 -1.0061 -0.6535 -0.8494
 2720SOL    HW2 9060   2.134   3.701   3.136 -2.1431 -0.5251 -0.9365
 2721SOL     OW 9061   6.445   1.157   6.157  0.0098 -0.1791  0.1536
 2721SOL    HW1 9062   6.466   1.191   6.249 -0.6941 -0.6566  0.4973
 2721SOL    HW2 9063   6.524   1.108   6.121  0.1493 -0.3466  0.6754
 2722SOL     OW 9064   6.872   0.223   2.580  0.2331 -0.5247 -0.3839
 2722SOL    HW1 9065   6.848   0.158   2.652 -2.0090 -0.7901 -1.2826
 2722SOL    HW2 9066   6.795   0.285   2.565  2.0460  1.9446 -0.0416
 2723SOL     OW 9067   0.467   3.382   3.926  0.0231 -0.1885 -0.2108
 2723SOL    HW1 9068   0.487   3.449   3.997  0.3926 -0.7664  0.2433
 2723SOL    HW2 9069   0.487   3.290   3.960  0.3338 -0.4698 -1.1070
 2724SOL     OW 9070   5.700   6.717   1.314 -0.6690 -0.1280 -0.0481
 2724SOL    HW1 9071   5.800   6.726   1.320 -0.7139  1.1560 -0.9896
 2724SOL    HW2 9072   5.668   6.657   1.388  0.6457  0.5171  1.0883
 2725SOL     OW 9073   6.260   3.650   2.958  0.0138  0.2214 -0.6024
 2725SOL    HW1 9074   6.167   3.684   2.967  0.0852 -0.0593  1.6922
 2725SOL    HW2 9075   6.322   3.704   3.015  0.7961 -1.2091 -0.0326
 2726SOL     OW 9076   6.071   3.589   5.208  0.6583  0.6541 -0.1743
 2726SOL    HW1 9077   6.018   3.674   5.197  0.0087  0.5111  1.5660
 2726SOL    HW2 9078   6.161   3.601   5.167 -0.4000  1.1872 -2.4993
 2727SOL     OW 9079   0.270   3.098   4.061 -0.2596 -0.1206  0.2517
 2727SOL    HW1 9080   0.367   3.123   4.056  0.2110 -1.4348  2.1472
 2727SOL    HW2 9081   0.252   3.025   3.996  1.1636 -3.0902  2.9400
 2728SOL     OW 9082   6.417   5.716   0.751  0.1781  0.0765 -0.6270
 2728SOL    HW1 9083   6.368   5.743   0.668  2.7275  1.0560 -1.9494
 2728SOL    HW2 9084   6.480   5.641   0.729  0.9930  0.4472  0.3849
 2729SOL     OW 9085   0.225   6.915   0.718  0.1921  0.1341 -0.1633
 2729SOL    HW1 9086   0.315   6.884   0.749  0.1791 -0.2319 -0.4881
 2729SOL    HW2 9087   0.162   6.837   0.713 -1.7012  0.9404  5.0252
 2730SOL     OW 9088   0.550   4.500   6.063 -0.3494 -0.0405 -0.2907
 2730SOL    HW1 9089   0.534   4.433   5.991 -1.9118  0.5816 -0.5671
 2730SOL    HW2 9090   0.575   4.588   6.022 -1.0452  0.2611 -0.0883
 2731SOL     OW 9091   3.943   6.632   2.769  0.1262  0.0248 -0.7073
 2731SOL    HW1 9092   3.954   6.731   2.758  0.7484  0.1577  0.9409
 2731SOL    HW2 9093   3.853   6.612   2.807 -0.2474 -0.1079 -1.6325
 2732SOL     OW 9094   6.533   3.369   2.738  0.6108  0.4600  0.1431
 2732SOL    HW1 9095   6.434   3.379   2.747  0.3006 -0.2163 -1.9553
 2732SOL    HW2 9096   6.558   3.273   2.748  0.8398  0.4045 -0.8837
 2733SOL     OW 9097   6.828   2.375   6.938 -0.6339  0.3546 -0.2355
 2733SOL    HW1 9098   6.835   2.440   7.013 -2.2316  0.4530 -0.1494
 2733SOL    HW2 9099   6.748   2.316   6.951 -1.3975  0.8598 -2.2229
 2734SOL     OW 9100   4.901   3.399   1.165  0.5579  0.2387  0.2918
 2734SOL    HW1 9101   4.976   3.455   1.198 -0.5498  1.6132  0.5973
 2734SOL    HW2 9102   4.909   3.388   1.066  0.2369  1.8869  0.0515
 2735SOL     OW 9103   0.720   1.602   4.407  0.1847 -0.6994  0.0982
 2735SOL    HW1 9104   0.784   1.667   4.449  2.5033 -2.3143 -0.7173
 2735SOL    HW2 9105   0.714   1.520   4.464  2.1580 -2.2601 -1.7529
 2736SOL     OW 9106   3.449   4.037   0.682 -0.0887  0.2292  0.1476
 2736SOL    HW1 9107   3.534   4.079   0.650 -0.4532  0.8291 -0.0693
 2736SOL    HW2 9108   3.371   4.089   0.646 -0.5341  0.2122  1.0500
 2737SOL     OW 9109   6.750   3.969   2.416 -0.0968  0.1843  0.1101
 2737SOL    HW1 9110   6.724   3.874   2.433 -0.0593  0.2763  0.7153
 2737SOL    HW2 9111   6.829   3.971   2.356 -0.7577 -0.1313 -0.8083
 2738SOL     OW 9112   3.555   0.715   2.071 -0.4361 -0.2337 -0.5569
 2738SOL    HW1 9113   3.599   0.791   2.022 -1.8508 -0.7743 -2.8531
 2738SOL    HW2 9114   3.537   0.742   2.165 -1.6277  2.6451 -1.4889
 2739SOL     OW 9115   0.091   2.037   5.888  0.0536 -0.2165  0.1851
 2739SOL    HW1 9116   0.057   1.977   5.815  0.1947 -0.0359 -0.0282
 2739SOL    HW2 9117   0.015   2.062   5.948 -0.3457  0.7702 -0.7023
 2740SOL     OW 9118   6.450   1.604   5.111 -0.3607  0.5523 -0.2864
 2740SOL    HW1 9119   6.422   1.508   5.107 -0.3551  0.4119  1.7702
 2740SOL    HW2 9120   6.528   1.619   5.050  0.5235 -1.1107  0.3759
 2741SOL     OW 9121   2.268   5.819   0.749 -0.7394 -0.2350 -0.2690
 2741SOL    HW1 9122   2.191   5.788   0.805 -0.9119 -0.9292 -0.8749
 2741SOL    HW2 9123   2.250   5.911   0.716 -1.4587 -0.5095 -0.6611
 2742SOL     OW 9124   4.732   1.056   4.235 -0.4017  0.5014 -0.2872
 2742SOL    HW1 9125   4.687   1.120   4.297  0.7317  0.3415  0.7226
 2742SOL    HW2 9126   4.784   1.108   4.166  1.3036  0.7223  1.1042
 2743SOL     OW 9127   5.530   4.293   0.155 -0.0248  0.3760  0.3638
 2743SOL    HW1 9128   5.527   4.287   0.055 -0.5100  0.4736  0.3715
 2743SOL    HW2 9129   5.550   4.388   0.182 -0.1863  0.4109  0.3627
 2744SOL     OW 9130   3.238   6.621   5.925  0.1731  0.4288  0.1310
 2744SOL    HW1 9131   3.179   6.540   5.930 -0.2477  0.6468 -0.9113
 2744SOL    HW2 9132   3.323   6.604   5.974 -0.8005  0.1581  1.8280
 2745SOL     OW 9133   0.305   0.240   3.839 -0.0180  0.7034 -0.0382
 2745SOL    HW1 9134   0.389   0.206   3.795 -1.3316  0.5166 -2.5529
 2745SOL    HW2 9135   0.317   0.336   3.863  0.6662  0.9122 -1.1224
 2746SOL     OW 9136   3.911   0.676   2.775  0.2202  0.1896 -0.7733
 2746SOL    HW1 9137   3.982   0.743   2.754  0.1126  0.4811 -0.2317
 2746SOL    HW2 9138   3.850   0.713   2.845  0.9087 -0.9588  0.5033
 2747SOL     OW 9139   0.947   2.746   0.208 -0.1924  0.1737 -0.1635
 2747SOL    HW1 9140   0.980   2.785   0.294  1.2910  0.2046 -0.7156
 2747SOL    HW2 9141   0.966   2.809   0.133 -3.1238  0.9881 -0.3566
 2748SOL     OW 9142   0.176   4.469   0.212 -0.7120 -0.1802 -0.4977
 2748SOL    HW1 9143   0.111   4.412   0.161  1.0766 -4.1648  1.2153
 2748SOL    HW2 9144   0.260   4.480   0.159 -0.2999 -0.9802 -0.0349
 2749SOL     OW 9145   1.867   0.496   4.738  0.4284 -0.0238 -0.0777
 2749SOL    HW1 9146   1.950   0.450   4.769  1.0765  0.4769 -1.0315
 2749SOL    HW2 9147   1.869   0.592   4.767  1.1767  0.5241 -1.8454
 2750SOL     OW 9148   1.081   6.445   6.407 -0.4919 -0.4748  0.2523
 2750SOL    HW1 9149   1.065   6.368   6.345 -1.6789  0.9199 -1.2829
 2750SOL    HW2 9150   1.000   6.461   6.463 -0.4265 -0.0631  0.2331
 2751SOL     OW 9151   1.125   4.816   3.919  0.8672  0.4871 -0.2916
 2751SOL    HW1 9152   1.151   4.889   3.982  2.4396  0.0376 -0.3732
 2751SOL    HW2 9153   1.150   4.727   3.959 -1.9228 -0.1497  0.2644
 2752SOL     OW 9154   3.447   3.604   6.181  0.5247  0.4926 -0.5934
 2752SOL    HW1 9155   3.489   3.595   6.271 -0.3302  1.1205 -0.1225
 2752SOL    HW2 9156   3.399   3.691   6.175  2.6531  1.6234 -2.5419
 2753SOL     OW 9157   4.319   1.774   2.974 -0.3125 -0.4229  0.3442
 2753SOL    HW1 9158   4.321   1.759   3.073  1.4772 -2.4439  0.0883
 2753SOL    HW2 9159   4.402   1.823   2.946  0.2015 -1.6504 -0.3516
 2754SOL     OW 9160   4.843   3.914   0.150  0.2488  0.2975  0.7040
 2754SOL    HW1 9161   4.896   3.923   0.234  0.3790  3.6964  0.4019
 2754SOL    HW2 9162   4.753   3.956   0.163 -0.4548 -0.8206 -0.3230
 2755SOL     OW 9163   1.435   4.974   2.828  0.0172  0.1954  0.0394
 2755SOL    HW1 9164   1.457   4.986   2.732  1.2616  1.1840  0.4224
 2755SOL    HW2 9165   1.366   4.902   2.838  0.3458 -0.3640 -1.5185
 2756SOL     OW 9166   5.153   5.817   0.209  0.6046  0.3398  0.4318
 2756SOL    HW1 9167   5.110   5.900   0.243  0.0299  0.4763 -0.5807
 2756SOL    HW2 9168   5.157   5.748   0.282  0.1137  0.8814  0.9747
 2757SOL     OW 9169   6.610   2.745   6.794  0.0572 -0.3093 -0.0195
 2757SOL    HW1 9170   6.607   2.798   6.709 -0.3218 -2.8255 -1.6872
 2757SOL    HW2 9171   6.532   2.769   6.851  0.8945  2.1960  0.1829
 2758SOL     OW 9172   3.877   0.148   5.162 -0.8251  0.2616  0.0308
 2758SOL    HW1 9173   3.936   0.225   5.137 -0.5903  0.3393  0.8067
 2758SOL    HW2 9174   3.919   0.063   5.130 -1.4513  0.4972 -1.4936
 2759SOL     OW 9175   0.688   5.588   3.980 -0.4809 -0.0371  0.3256
 2759SOL    HW1 9176   0.725   5.546   3.897 -0.9987 -0.3505  0.2464
 2759SOL    HW2 9177   0.662   5.683   3.961 -0.3623 -0.0301  0.1986
 2760SOL     OW 9178   6.942   1.033   3.668  0.0604 -0.1638  0.3025
 2760SOL    HW1 9179   6.966   0.944   3.629  3.9216  0.1947  1.4429
 2760SOL    HW2 9180   7.017   1.097   3.652 -1.5201  2.1710  1.7245
 2761SOL     OW 9181   5.893   3.368   1.289 -0.0716  0.1173  0.5042
 2761SOL    HW1 9182   5.846   3.280   1.296 -0.9498  0.5868  0.6626
 2761SOL    HW2 9183   5.841   3.429   1.229  0.0581  0.8178  1.0848
 2762SOL     OW 9184   6.650   5.294   5.183 -0.1045 -0.4467  0.3383
 2762SOL    HW1 9185   6.569   5.329   5.136 -0.5329  0.9891  2.0138
 2762SOL    HW2 9186   6.628   5.277   5.279  1.6384  0.2708  0.9066
 2763SOL     OW 9187   3.547   0.896   3.625  0.0263 -0.2337 -0.3745
 2763SOL    HW1 9188   3.528   0.980   3.574  0.6754 -0.3432 -0.8032
 2763SOL    HW2 9189   3.640   0.898   3.659 -0.0323 -0.6772 -0.1852
 2764SOL     OW 9190   1.104   5.682   0.431 -0.9917  0.7255  0.7788
 2764SOL    HW1 9191   1.196   5.660   0.400 -0.7954  0.2961  1.6468
 2764SOL    HW2 9192   1.041   5.678   0.353 -0.2411  1.3031  0.1272
 2765SOL     OW 9193   6.810   1.888   6.424  0.3014  0.0951 -0.5799
 2765SOL    HW1 9194   6.880   1.941   6.377  3.2551 -0.3224  2.9006
 2765SOL    HW2 9195   6.774   1.817   6.363  2.8827  0.3899 -2.5799
 2766SOL     OW 9196   1.886   3.941   4.751 -0.5228 -0.1034  0.0865
 2766SOL    HW1 9197   1.953   4.015   4.755  1.1424 -1.5299 -0.1854
 2766SOL    HW2 9198   1.837   3.936   4.839  0.6619  0.1465  0.7807
 2767SOL     OW 9199   0.098   6.957   5.303  0.1477 -0.0848  0.0696
 2767SOL    HW1 9200   0.079   7.042   5.352 -1.2674 -0.8002  0.8131
 2767SOL    HW2 9201   0.137   6.979   5.213 -0.3017  1.3395  0.1952
 2768SOL     OW 9202   6.188   1.147   5.152  0.1776 -0.4527 -0.3641
 2768SOL    HW1 9203   6.134   1.103   5.080 -1.1164 -0.5200  0.6007
 2768SOL    HW2 9204   6.203   1.081   5.226 -0.5885  0.3011  0.4838
 2769SOL     OW 9205   1.443   0.213   1.571 -0.2789 -0.5522  0.2466
 2769SOL    HW1 9206   1.538   0.188   1.586 -0.0289  1.2399  2.1214
 2769SOL    HW2 9207   1.406   0.256   1.654 -2.0468  0.8060 -1.1511
 2770SOL     OW 9208   3.698   7.000   4.482  0.0721  0.2381  0.4132
 2770SOL    HW1 9209   3.667   7.095   4.490  1.2934  0.5851  1.2561
 2770SOL    HW2 9210   3.655   6.944   4.553 -0.4590  0.2013  0.0691
 2771SOL     OW 9211   0.225   5.916   2.534 -0.1740 -0.1041  0.0552
 2771SOL    HW1 9212   0.204   6.005   2.495 -2.0816 -0.9711 -1.0628
 2771SOL    HW2 9213   0.199   5.844   2.469  0.6377 -1.5067  1.2093
 2772SOL     OW 9214   0.616   4.824   6.280  0.0053  0.1037  0.3395
 2772SOL    HW1 9215   0.653   4.798   6.191 -0.0550  1.1040  0.0072
 2772SOL    HW2 9216   0.611   4.744   6.339  0.4089 -0.4978 -0.4285
 2773SOL     OW 9217   4.305   5.891   2.996 -0.0278  0.1546 -0.7249
 2773SOL    HW1 9218   4.332   5.984   3.018  0.4941 -0.3111  0.7253
 2773SOL    HW2 9219   4.386   5.834   2.981 -0.3522  0.1105 -2.5038
 2774SOL     OW 9220   5.760   4.627   2.584 -0.2280 -0.2849  0.3158
 2774SOL    HW1 9221   5.759   4.685   2.502 -0.6596 -2.0644 -1.0148
 2774SOL    HW2 9222   5.764   4.684   2.665 -2.4044  1.6822 -0.8332
 2775SOL     OW 9223   2.986   7.011   3.605  0.0365  0.0956  0.3012
 2775SOL    HW1 9224   2.886   7.017   3.608 -0.1482  2.0180 -3.4036
 2775SOL    HW2 9225   3.015   6.926   3.647 -3.0630 -0.2805  2.0330
 2776SOL     OW 9226   0.440   0.356   0.540  0.2072  0.0568  0.0728
 2776SOL    HW1 9227   0.402   0.301   0.614 -0.0806 -0.8863 -0.7620
 2776SOL    HW2 9228   0.497   0.299   0.481  1.2479  1.0096  0.1162
 2777SOL     OW 9229   3.102   4.166   0.309 -0.0494  0.3511  0.0406
 2777SOL    HW1 9230   3.101   4.179   0.210 -1.7893  0.6476  0.0702
 2777SOL    HW2 9231   3.120   4.070   0.330 -1.0723  0.0120 -0.6042
 2778SOL     OW 9232   5.090   2.153   1.779  0.0163  0.3466  0.4030
 2778SOL    HW1 9233   5.118   2.235   1.730  0.6950  1.5823  2.7133
 2778SOL    HW2 9234   5.041   2.179   1.863 -1.5037 -1.6646  0.2201
 2779SOL     OW 9235   5.872   6.282   0.625 -0.2085 -0.2713  0.4980
 2779SOL    HW1 9236   5.786   6.243   0.593 -1.5934  1.8888  1.3290
 2779SOL    HW2 9237   5.869   6.293   0.724  1.1922 -0.4956  0.5867
 2780SOL     OW 9238   2.264   5.145   2.491 -0.0464  0.1335 -0.7298
 2780SOL    HW1 9239   2.339   5.203   2.525 -0.6253  0.0589  0.7400
 2780SOL    HW2 9240   2.276   5.130   2.393  1.2765  1.0004 -0.7316
 2781SOL     OW 9241   6.733   0.604   3.303  0.1612  0.1303 -0.0307
 2781SOL    HW1 9242   6.785   0.681   3.267 -0.5215  2.0643  2.8284
 2781SOL    HW2 9243   6.646   0.596   3.255  0.5579  0.6389 -0.8437
 2782SOL     OW 9244   0.158   4.934   6.429 -0.1554  1.0525 -0.1833
 2782SOL    HW1 9245   0.196   4.917   6.520 -0.2982 -2.7969 -0.6857
 2782SOL    HW2 9246   0.063   4.964   6.437 -0.4491 -0.1007  0.9643
 2783SOL     OW 9247   1.292   2.022   5.239  0.9763 -0.2475  0.1538
 2783SOL    HW1 9248   1.313   2.018   5.337  4.7731 -0.4674 -0.4908
 2783SOL    HW2 9249   1.370   2.061   5.190 -1.6770  2.0804 -2.6428
 2784SOL     OW 9250   3.670   1.486   1.334 -0.2773 -0.1549  0.2530
 2784SOL    HW1 9251   3.724   1.405   1.308  1.7346  0.2686  2.7619
 2784SOL    HW2 9252   3.634   1.474   1.426  1.6305  2.4677  1.4651
 2785SOL     OW 9253   0.600   5.761   0.222  0.1335  0.1860 -0.4082
 2785SOL    HW1 9254   0.603   5.792   0.127  2.1385 -0.0810 -0.4599
 2785SOL    HW2 9255   0.631   5.835   0.282  3.2750 -1.0242 -0.3846
 2786SOL     OW 9256   3.136   2.747   1.681 -0.2800 -0.0309  0.9274
 2786SOL    HW1 9257   3.040   2.777   1.684  0.1844  2.0883 -1.4871
 2786SOL    HW2 9258   3.193   2.815   1.726  0.1758 -1.2001  2.1918
 2787SOL     OW 9259   4.902   5.400   4.928  0.2794 -0.1691 -0.0726
 2787SOL    HW1 9260   4.810   5.438   4.932  0.9465  1.4191  1.2959
 2787SOL    HW2 9261   4.936   5.405   4.833 -0.3279  1.0367 -0.2402
 2788SOL     OW 9262   0.488   6.370   0.397 -0.5352  0.3446 -0.0076
 2788SOL    HW1 9263   0.436   6.344   0.315 -1.3123  0.4773  0.4348
 2788SOL    HW2 9264   0.432   6.428   0.455  0.1423  0.5516  0.4547
 2789SOL     OW 9265   1.835   5.203   1.865 -0.8116  0.7835  0.4187
 2789SOL    HW1 9266   1.852   5.230   1.770  0.1995  1.5519  0.8059
 2789SOL    HW2 9267   1.916   5.158   1.902 -1.7556 -0.9950  0.4416
 2790SOL     OW 9268   1.714   6.992   6.725  0.2085  0.4718  0.1867
 2790SOL    HW1 9269   1.787   6.957   6.667  0.1261  0.1026  0.3072
 2790SOL    HW2 9270   1.741   6.984   6.821 -0.6048 -1.0573  0.3044
 2791SOL     OW 9271   0.824   2.061   4.180 -0.0818 -0.5676 -0.2142
 2791SOL    HW1 9272   0.832   2.159   4.161  0.9621  0.0360  2.8324
 2791SOL    HW2 9273   0.790   2.048   4.273 -1.7712 -3.1792 -1.0794
 2792SOL     OW 9274   0.457   6.827   0.833 -0.0327 -0.2842 -0.1034
 2792SOL    HW1 9275   0.480   6.730   0.828 -1.4863 -0.7190  1.1696
 2792SOL    HW2 9276   0.539   6.882   0.815  0.8400 -1.7269 -0.6546
 2793SOL     OW 9277   5.225   0.557   2.154  0.3348  0.2437  0.4299
 2793SOL    HW1 9278   5.218   0.458   2.162  0.6783  0.0432 -1.3938
 2793SOL    HW2 9279   5.278   0.593   2.231 -0.3527 -0.8860  1.4705
 2794SOL     OW 9280   5.204   2.357   3.096 -0.6826 -0.1414 -0.5972
 2794SOL    HW1 9281   5.303   2.354   3.108 -0.7745  0.0557  0.3035
 2794SOL    HW2 9282   5.172   2.271   3.057 -0.0062  0.3067 -2.1785
 2795SOL     OW 9283   4.914   1.879   3.586  0.4074 -0.3468  0.2680
 2795SOL    HW1 9284   5.001   1.837   3.614  0.6964  0.6973  1.0132
 2795SOL    HW2 9285   4.893   1.955   3.648  0.4442  1.3100 -1.6405
 2796SOL     OW 9286   0.536   3.746   3.750  0.1232 -0.5851  0.2446
 2796SOL    HW1 9287   0.481   3.772   3.670  0.6351  1.0526  0.3845
 2796SOL    HW2 9288   0.539   3.647   3.757 -1.1285 -0.7456 -0.9336
 2797SOL     OW 9289   1.509   4.359   5.742  0.2279  0.4511  0.0437
 2797SOL    HW1 9290   1.410   4.367   5.758 -0.1447 -1.9030 -0.6774
 2797SOL    HW2 9291   1.557   4.353   5.830 -0.1583  2.2237  0.4162
 2798SOL     OW 9292   2.308   4.022   1.617 -0.6493 -0.3658  0.1584
 2798SOL    HW1 9293   2.300   4.044   1.520 -1.2124 -5.5934 -1.2711
 2798SOL    HW2 9294   2.403   3.996   1.637 -0.6093  0.3671  0.9537
 2799SOL     OW 9295   1.590   6.399   5.229  0.4483 -1.0025 -0.1269
 2799SOL    HW1 9296   1.520   6.392   5.158  1.5260  1.9124 -1.6633
 2799SOL    HW2 9297   1.565   6.472   5.293  1.7267 -0.3462 -0.3408
 2800SOL     OW 9298   6.015   4.957   6.164 -0.4793 -0.3324  0.2143
 2800SOL    HW1 9299   6.058   5.047   6.173 -1.0672  0.0341 -0.4477
 2800SOL    HW2 9300   6.003   4.916   6.254  0.8592 -0.2661  0.4390
 2801SOL     OW 9301   1.005   0.760   6.020  0.1647  0.3059  0.5408
 2801SOL    HW1 9302   0.935   0.700   6.058 -0.7446  0.4593 -0.8392
 2801SOL    HW2 9303   1.081   0.705   5.987 -1.8456 -0.4787 -3.2675
 2802SOL     OW 9304   6.511   5.706   4.963 -0.2388 -0.1258  0.2493
 2802SOL    HW1 9305   6.602   5.740   4.985 -0.8454  1.3639  0.5477
 2802SOL    HW2 9306   6.514   5.658   4.875  0.8976 -0.4430  0.4452
 2803SOL     OW 9307   5.393   3.303   6.825 -0.5790 -0.1501 -0.1127
 2803SOL    HW1 9308   5.341   3.354   6.892  0.0401  0.5169 -0.1246
 2803SOL    HW2 9309   5.355   3.211   6.815  0.1459 -0.7483  2.1542
 2804SOL     OW 9310   6.907   4.926   4.684 -0.0092 -0.4839  0.1175
 2804SOL    HW1 9311   6.958   4.887   4.607  0.3362 -0.7066  0.4549
 2804SOL    HW2 9312   6.969   4.938   4.762 -0.1696  0.4937  0.1077
 2805SOL     OW 9313   6.106   5.567   2.716  0.6056 -0.3647  0.1285
 2805SOL    HW1 9314   6.110   5.471   2.688  0.5890 -0.7123  1.3002
 2805SOL    HW2 9315   6.190   5.613   2.686  0.2971 -0.5471 -1.0832
 2806SOL     OW 9316   3.169   3.723   5.300 -0.0743 -0.4082  0.0160
 2806SOL    HW1 9317   3.141   3.720   5.204  1.0577 -0.2315 -0.3427
 2806SOL    HW2 9318   3.186   3.631   5.333 -0.9005 -0.5019  0.1865
 2807SOL     OW 9319   5.018   0.152   2.474  0.2392  0.7710 -0.3610
 2807SOL    HW1 9320   5.105   0.136   2.520 -0.0631  1.8199  0.6213
 2807SOL    HW2 9321   5.006   0.085   2.400  1.7420  0.4619 -0.3418
 2808SOL     OW 9322   0.636   4.267   3.988 -0.1903  0.2059  0.4250
 2808SOL    HW1 9323   0.673   4.339   3.930 -2.4588 -0.0405 -1.4609
 2808SOL    HW2 9324   0.630   4.182   3.936 -1.8692 -0.1440  1.1353
 2809SOL     OW 9325   2.355   4.906   4.340  0.2550  0.2617  0.1473
 2809SOL    HW1 9326   2.298   4.950   4.271  1.4699 -0.9859 -1.7231
 2809SOL    HW2 9327   2.301   4.891   4.423 -2.1305 -0.7643 -1.4902
 2810SOL     OW 9328   2.119   4.406   6.696  1.1183 -0.1904 -1.2128
 2810SOL    HW1 9329   2.044   4.340   6.684 -0.3444  0.8703  1.3552
 2810SOL    HW2 9330   2.108   4.481   6.632 -0.7014  0.4792 -0.1799
 2811SOL     OW 9331   0.653   5.599   0.889 -0.3387 -0.5464  0.3172
 2811SOL    HW1 9332   0.584   5.553   0.833 -0.7805  2.1934 -1.5809
 2811SOL    HW2 9333   0.738   5.547   0.887 -0.5537 -0.9175 -2.4012
 2812SOL     OW 9334   3.055   6.479   5.715 -0.0610  0.6716 -0.1322
 2812SOL    HW1 9335   3.045   6.473   5.616  0.8419 -1.9648 -0.1597
 2812SOL    HW2 9336   3.082   6.571   5.741  1.1086  1.0707 -2.4954
 2813SOL     OW 9337   6.634   2.695   5.501  0.4957  0.4845 -0.3370
 2813SOL    HW1 9338   6.539   2.670   5.483  0.3692  0.2990  0.5468
 2813SOL    HW2 9339   6.642   2.733   5.593  1.4113 -0.1950 -0.1203
 2814SOL     OW 9340   4.429   2.111   1.329  0.0526 -0.3861  0.0591
 2814SOL    HW1 9341   4.400   2.203   1.355  1.1838  0.2551 -0.8098
 2814SOL    HW2 9342   4.426   2.050   1.408  0.3012  0.6764  0.9028
 2815SOL     OW 9343   0.161   2.858   5.823  0.2846 -0.2134 -0.0170
 2815SOL    HW1 9344   0.121   2.942   5.860  2.5272 -0.0743  2.3620
 2815SOL    HW2 9345   0.117   2.779   5.867 -1.3535 -0.3430 -1.7620
 2816SOL     OW 9346   0.182   6.621   3.647 -0.1753  0.0995  0.8148
 2816SOL    HW1 9347   0.128   6.568   3.713 -1.4423 -0.9128 -0.9421
 2816SOL    HW2 9348   0.258   6.665   3.694  0.4021 -2.5153  2.5872
 2817SOL     OW 9349   3.288   6.240   1.955  0.0090  0.2715 -0.7205
 2817SOL    HW1 9350   3.353   6.278   1.890  0.7402  0.8864  0.3431
 2817SOL    HW2 9351   3.214   6.306   1.971 -0.7901 -0.3337 -1.7523
 2818SOL     OW 9352   1.165   0.338   1.969 -0.2212  0.4889  1.5650
 2818SOL    HW1 9353   1.216   0.310   2.050 -0.1347 -1.1259  0.9845
 2818SOL    HW2 9354   1.169   0.438   1.961  1.1403  0.5625  2.6408
 2819SOL     OW 9355   2.591   6.373   6.039 -0.0642 -0.3576 -0.4410
 2819SOL    HW1 9356   2.625   6.279   6.043  1.8524  0.2918 -0.1912
 2819SOL    HW2 9357   2.493   6.374   6.058  0.4704 -1.9630  3.2942
 2820SOL     OW 9358   3.596   0.933   1.375 -0.0989  0.0153  0.2546
 2820SOL    HW1 9359   3.557   1.022   1.352  0.6065  0.6533  1.4415
 2820SOL    HW2 9360   3.652   0.901   1.299 -0.5317  0.4692 -0.2701
 2821SOL     OW 9361   6.903   3.338   4.073  0.2859  0.5810  0.1641
 2821SOL    HW1 9362   6.926   3.362   4.167  1.1105  2.2528 -0.4208
 2821SOL    HW2 9363   6.936   3.410   4.011  0.4627 -0.8529 -1.4876
 2822SOL     OW 9364   5.680   4.389   5.888  0.7572  0.3936  0.2870
 2822SOL    HW1 9365   5.761   4.376   5.831  1.6417  1.4620  1.2576
 2822SOL    HW2 9366   5.655   4.301   5.930 -0.9980 -0.8825 -2.9979
 2823SOL     OW 9367   5.060   4.092   1.381 -0.0884  0.1662 -0.1708
 2823SOL    HW1 9368   5.144   4.039   1.379  0.2938  0.7695 -0.4823
 2823SOL    HW2 9369   5.020   4.095   1.289 -0.3280  0.0628 -0.0692
 2824SOL     OW 9370   5.375   0.833   6.453  0.1433  0.7513  0.2689
 2824SOL    HW1 9371   5.424   0.747   6.444 -2.0336 -0.5230 -0.2504
 2824SOL    HW2 9372   5.359   0.852   6.550 -1.2077 -0.6257  0.3654
 2825SOL     OW 9373   5.497   6.132   2.778 -0.4737 -0.5824 -0.1512
 2825SOL    HW1 9374   5.551   6.208   2.743 -0.1191 -1.0346 -0.5983
 2825SOL    HW2 9375   5.549   6.085   2.850 -0.8255 -0.2112  0.3547
 2826SOL     OW 9376   4.156   0.953   5.522 -0.3770 -0.6024 -0.0579
 2826SOL    HW1 9377   4.236   0.954   5.462 -0.5100 -0.9838 -0.2444
 2826SOL    HW2 9378   4.164   1.026   5.589  0.2299 -0.7704  0.0558
 2827SOL     OW 9379   0.624   2.149   2.835  0.9978 -0.1795  0.1982
 2827SOL    HW1 9380   0.566   2.210   2.781  0.7287 -0.6361 -0.0329
 2827SOL    HW2 9381   0.582   2.134   2.925  0.6839 -0.6205 -0.0193
 2828SOL     OW 9382   6.126   5.457   2.213 -0.8800 -0.0716 -0.5593
 2828SOL    HW1 9383   6.172   5.544   2.227  0.6424 -0.8577 -0.5298
 2828SOL    HW2 9384   6.140   5.426   2.119 -1.9289 -0.0171 -0.7487
 2829SOL     OW 9385   3.935   3.991   4.628  0.5905  0.2195  0.3825
 2829SOL    HW1 9386   3.845   4.021   4.596  2.1333  2.8082 -2.0216
 2829SOL    HW2 9387   3.977   4.064   4.682  3.1691  1.4157 -2.8656
 2830SOL     OW 9388   5.712   2.604   0.616 -0.5773  0.4239 -0.6845
 2830SOL    HW1 9389   5.742   2.515   0.582 -0.6239  0.2292 -0.2121
 2830SOL    HW2 9390   5.630   2.594   0.671  0.5453  0.4699  1.0918
 2831SOL     OW 9391   4.348   0.726   5.242 -0.4241  0.2826 -0.5404
 2831SOL    HW1 9392   4.429   0.693   5.193 -0.4290  0.9564 -1.0063
 2831SOL    HW2 9393   4.370   0.812   5.287 -0.7386  0.2072 -0.2393
 2832SOL     OW 9394   5.503   3.195   6.178 -0.3133 -0.0557 -0.5773
 2832SOL    HW1 9395   5.554   3.238   6.103  0.3968 -1.4108 -0.9046
 2832SOL    HW2 9396   5.410   3.175   6.147 -0.2032 -0.0716 -0.9073
 2833SOL     OW 9397   2.970   1.522   3.653  1.2433  0.4717 -0.1199
 2833SOL    HW1 9398   2.919   1.472   3.583  0.3674  0.6225  0.3950
 2833SOL    HW2 9399   2.942   1.618   3.652 -1.4775 -0.1400  2.7578
 2834SOL     OW 9400   6.043   3.278   0.126  0.6623  0.1062  0.0198
 2834SOL    HW1 9401   5.959   3.252   0.078  1.6024 -1.0725 -1.0530
 2834SOL    HW2 9402   6.060   3.376   0.112 -1.1371  0.6445  1.2626
 2835SOL     OW 9403   3.895   6.919   5.927 -0.0666 -0.3122  0.0808
 2835SOL    HW1 9404   3.990   6.921   5.958 -0.2073 -1.2122  0.5903
 2835SOL    HW2 9405   3.894   6.904   5.828  0.3436  1.2408 -0.1950
 2836SOL     OW 9406   1.444   1.319   0.819  0.4296  0.0405 -0.4881
 2836SOL    HW1 9407   1.528   1.264   0.812 -0.4852 -1.3494 -0.7915
 2836SOL    HW2 9408   1.408   1.312   0.912 -0.2441 -0.7347 -0.7955
 2837SOL     OW 9409   2.258   2.088   4.499  0.0988  0.2319  0.0626
 2837SOL    HW1 9410   2.204   2.104   4.416  0.6205 -1.5950 -0.6595
 2837SOL    HW2 9411   2.267   1.990   4.515  0.2337  0.5462  2.1540
 2838SOL     OW 9412   0.951   3.786   1.010  0.2807 -0.2796  0.5059
 2838SOL    HW1 9413   0.939   3.883   1.029 -0.0540 -0.0086 -1.0073
 2838SOL    HW2 9414   0.933   3.734   1.094 -3.9106  0.6589  0.4053
 2839SOL     OW 9415   6.777   1.372   0.976  0.2781 -0.2269 -0.0185
 2839SOL    HW1 9416   6.753   1.468   0.991  2.0099  0.1381  0.6657
 2839SOL    HW2 9417   6.873   1.365   0.949  0.0309 -1.7387 -0.6191
 2840SOL     OW 9418   0.525   6.667   6.605  0.8736 -0.3158  0.1157
 2840SOL    HW1 9419   0.502   6.581   6.560  1.0335  0.3570 -1.3199
 2840SOL    HW2 9420   0.532   6.740   6.537  0.6247  0.8737  1.3069
 2841SOL     OW 9421   3.002   2.194   2.658 -0.0926 -0.3533  0.1287
 2841SOL    HW1 9422   3.083   2.221   2.606 -0.0436 -1.6057 -0.4768
 2841SOL    HW2 9423   2.959   2.115   2.615 -1.7282  0.3668  0.3700
 2842SOL     OW 9424   4.143   3.561   2.680 -0.5552 -0.3897 -0.3620
 2842SOL    HW1 9425   4.123   3.547   2.583 -2.1185  0.2655 -0.1660
 2842SOL    HW2 9426   4.217   3.499   2.708  0.3959 -0.1164 -2.1030
 2843SOL     OW 9427   2.794   2.711   6.328 -0.0029 -0.0058 -0.5879
 2843SOL    HW1 9428   2.783   2.691   6.426  0.1367  1.5441 -0.2222
 2843SOL    HW2 9429   2.891   2.725   6.307 -0.1480  1.0868 -0.6152
 2844SOL     OW 9430   3.902   6.803   3.642 -0.0769 -0.2051  0.3425
 2844SOL    HW1 9431   3.827   6.741   3.616  1.5200 -1.4122 -1.6269
 2844SOL    HW2 9432   3.877   6.897   3.619 -1.2236 -0.5149  0.2612
 2845SOL     OW 9433   2.188   6.301   2.707  0.1124 -0.3292  0.7166
 2845SOL    HW1 9434   2.277   6.346   2.717 -0.3927  0.7232  0.6771
 2845SOL    HW2 9435   2.201   6.205   2.682  1.2309 -0.2067  0.7855
 2846SOL     OW 9436   4.963   4.619   4.716  0.3470  0.1232  0.0593
 2846SOL    HW1 9437   4.871   4.586   4.695  1.0232 -2.9589  1.4541
 2846SOL    HW2 9438   4.967   4.718   4.701 -3.2186  0.3996  0.1471
 2847SOL     OW 9439   1.577   4.512   3.546  0.0271  0.1707  0.1169
 2847SOL    HW1 9440   1.584   4.523   3.447  0.6899  2.4718  0.3669
 2847SOL    HW2 9441   1.669   4.502   3.585  0.0521  2.2987  0.7353
 2848SOL     OW 9442   2.290   6.963   0.804 -0.1388 -0.0049 -0.1402
 2848SOL    HW1 9443   2.275   7.046   0.857  0.2830 -0.6160  0.9539
 2848SOL    HW2 9444   2.246   6.886   0.849  0.6271 -0.6185 -0.4200
 2849SOL     OW 9445   4.348   6.922   1.186  0.0253  0.2381 -0.3143
 2849SOL    HW1 9446   4.366   6.937   1.088 -1.3028 -1.5050 -0.8791
 2849SOL    HW2 9447   4.416   6.857   1.222 -0.1442  0.0311 -0.3649
 2850SOL     OW 9448   5.318   4.541   5.941  0.4758 -0.0175 -0.0118
 2850SOL    HW1 9449   5.313   4.641   5.947  0.3308  0.0667 -1.2626
 2850SOL    HW2 9450   5.396   4.516   5.883 -1.4319 -0.4884 -2.5429
 2851SOL     OW 9451   2.857   2.163   1.754 -0.6841  0.0409  0.5494
 2851SOL    HW1 9452   2.898   2.202   1.672 -0.0874 -0.2115  0.7203
 2851SOL    HW2 9453   2.857   2.231   1.827 -0.6655  0.0764  0.5159
 2852SOL     OW 9454   3.935   2.835   5.616 -0.1240  0.3362 -0.0164
 2852SOL    HW1 9455   3.868   2.768   5.650 -0.3327  0.2188 -0.6481
 2852SOL    HW2 9456   4.026   2.811   5.651 -0.0816 -0.6753 -0.7498
 2853SOL     OW 9457   1.085   4.486   6.777 -0.1052  0.2642  0.5379
 2853SOL    HW1 9458   1.127   4.552   6.839 -1.0384  1.2723  0.1272
 2853SOL    HW2 9459   0.986   4.503   6.771 -0.7738 -2.4611  2.0195
 2854SOL     OW 9460   3.971   4.093   5.088  0.4239 -0.6294 -0.0720
 2854SOL    HW1 9461   3.987   4.150   5.007 -2.1146  0.5059  0.1356
 2854SOL    HW2 9462   3.967   3.997   5.062  1.5762 -0.4583 -0.9515
 2855SOL     OW 9463   0.788   6.205   3.228  0.1541  0.2934  0.0654
 2855SOL    HW1 9464   0.834   6.149   3.297 -0.9812 -0.1337  0.5054
 2855SOL    HW2 9465   0.703   6.242   3.266 -1.2056 -1.0665 -1.4868
 2856SOL     OW 9466   3.855   4.054   5.775 -0.3687 -0.3222 -0.1578
 2856SOL    HW1 9467   3.862   4.049   5.675 -0.5568  1.4287 -0.2962
 2856SOL    HW2 9468   3.769   4.012   5.805  1.0015 -3.5503 -0.3965
 2857SOL     OW 9469   1.419   6.631   0.029  0.1432 -0.5333  0.0211
 2857SOL    HW1 9470   1.473   6.652   0.111  0.2863 -0.6369 -0.0469
 2857SOL    HW2 9471   1.334   6.683   0.032  0.3294 -0.2262  0.0364
 2858SOL     OW 9472   5.862   0.811   2.249 -0.2831  0.5583 -0.0850
 2858SOL    HW1 9473   5.927   0.736   2.235 -2.0766 -0.8457 -1.2384
 2858SOL    HW2 9474   5.777   0.792   2.200 -0.6420  3.6140 -0.8721
 2859SOL     OW 9475   1.061   5.310   3.404  0.1591 -0.0381 -0.0235
 2859SOL    HW1 9476   1.124   5.386   3.384 -0.0689 -0.0805 -0.9674
 2859SOL    HW2 9477   0.977   5.322   3.350 -0.2011 -0.5472  0.4205
 2860SOL     OW 9478   6.943   5.010   2.482  0.1139 -0.4704  0.1035
 2860SOL    HW1 9479   6.948   5.068   2.564  2.4581  0.5959 -0.6951
 2860SOL    HW2 9480   6.920   5.066   2.403 -0.8139 -1.2621 -0.2026
 2861SOL     OW 9481   1.191   3.209   1.596  0.0267 -0.2393  0.6269
 2861SOL    HW1 9482   1.212   3.138   1.529 -0.9076  1.0514 -1.1457
 2861SOL    HW2 9483   1.276   3.243   1.637  1.0504  1.2012 -2.4003
 2862SOL     OW 9484   3.642   0.311   5.896 -0.2786 -0.2931  0.5976
 2862SOL    HW1 9485   3.575   0.342   5.963  1.6815  1.8197  1.7218
 2862SOL    HW2 9486   3.689   0.391   5.856  0.2838 -1.6040 -1.5395
 2863SOL     OW 9487   1.632   6.159   5.336  0.1139 -0.3550 -0.3196
 2863SOL    HW1 9488   1.620   6.256   5.316  0.4249 -0.3413 -0.4500
 2863SOL    HW2 9489   1.543   6.116   5.351  0.0104  0.8870  4.2409
 2864SOL     OW 9490   1.856   3.737   5.011  0.0337  0.4367 -0.2585
 2864SOL    HW1 9491   1.801   3.727   4.927 -2.0524 -1.7036  1.2205
 2864SOL    HW2 9492   1.869   3.834   5.031 -1.0747  1.0040 -2.0247
 2865SOL     OW 9493   4.958   3.135   5.803  0.5007 -0.3771  0.5733
 2865SOL    HW1 9494   4.872   3.144   5.853  0.1361  0.4824 -0.1806
 2865SOL    HW2 9495   4.939   3.134   5.705  1.3874  0.3442  0.3817
 2866SOL     OW 9496   1.621   6.209   1.572 -0.3263  0.5554  0.8468
 2866SOL    HW1 9497   1.665   6.222   1.661  1.7617 -1.0405  0.1231
 2866SOL    HW2 9498   1.689   6.182   1.504 -2.3597 -1.7239 -0.4478
 2867SOL     OW 9499   4.357   5.809   0.691 -0.2614  0.3752 -0.0236
 2867SOL    HW1 9500   4.362   5.893   0.637 -1.7282  1.2706  1.1887
 2867SOL    HW2 9501   4.333   5.830   0.785 -0.7495 -1.4216  0.2914
 2868SOL     OW 9502   4.845   2.849   1.284  0.0822  0.0542  0.6291
 2868SOL    HW1 9503   4.789   2.769   1.260  0.4178 -0.0205  0.0911
 2868SOL    HW2 9504   4.798   2.902   1.354 -0.2359 -0.5109  0.8486
 2869SOL     OW 9505   0.282   6.983   3.282  0.1780 -0.0687 -0.0823
 2869SOL    HW1 9506   0.258   6.901   3.333 -0.5272  0.1917  0.0177
 2869SOL    HW2 9507   0.203   7.014   3.229  0.0662  1.1626  0.7474
 2870SOL     OW 9508   5.574   2.902   4.980  0.8192 -0.2351  0.0455
 2870SOL    HW1 9509   5.643   2.952   4.928  0.2301 -0.1539 -0.6675
 2870SOL    HW2 9510   5.618   2.826   5.029  1.2950 -0.6819 -1.0585
 2871SOL     OW 9511   3.685   0.491   1.894 -0.2891 -0.5051  0.2819
 2871SOL    HW1 9512   3.763   0.461   1.949 -1.1987 -1.6111  1.0349
 2871SOL    HW2 9513   3.633   0.561   1.945  0.3277  0.4105 -0.3220
 2872SOL     OW 9514   0.997   5.135   5.472  0.5560 -0.3330 -0.6543
 2872SOL    HW1 9515   1.045   5.222   5.480  1.4523 -0.9189  0.5473
 2872SOL    HW2 9516   0.918   5.134   5.534  1.9711 -1.2608  1.2356
 2873SOL     OW 9517   3.457   5.972   0.088  0.0588 -0.4251  0.7344
 2873SOL    HW1 9518   3.433   5.882   0.124 -1.5980 -0.6750 -0.8484
 2873SOL    HW2 9519   3.474   5.965  -0.011  2.1138  0.6509  0.9440
 2874SOL     OW 9520   0.919   2.829   1.256 -0.2833  0.1473 -0.2011
 2874SOL    HW1 9521   0.891   2.758   1.320 -0.3030  0.0249 -0.3452
 2874SOL    HW2 9522   0.892   2.919   1.291  0.6373  0.1771  0.4718
 2875SOL     OW 9523   3.190   6.125   3.123  0.0889 -0.0499  0.1419
 2875SOL    HW1 9524   3.155   6.215   3.147  0.1265  0.1163 -0.3935
 2875SOL    HW2 9525   3.231   6.082   3.203 -1.4537 -0.3197  0.8212
 2876SOL     OW 9526   6.839   2.468   3.729 -0.0129 -0.8400  0.5416
 2876SOL    HW1 9527   6.871   2.458   3.823 -0.0425 -2.2461  0.4342
 2876SOL    HW2 9528   6.895   2.409   3.669  1.3383  1.5252 -0.6581
 2877SOL     OW 9529   4.297   5.070   5.538 -0.2636 -0.3754  0.0450
 2877SOL    HW1 9530   4.345   4.984   5.554 -0.8243 -0.6993  0.0263
 2877SOL    HW2 9531   4.312   5.100   5.444  0.0609 -0.3733  0.0992
 2878SOL     OW 9532   6.838   3.911   4.155 -0.1374 -0.1858  0.8858
 2878SOL    HW1 9533   6.933   3.936   4.168 -0.3972 -0.0237  2.6221
 2878SOL    HW2 9534   6.830   3.855   4.072  1.3873  0.1015  0.5091
 2879SOL     OW 9535   6.057   3.151   2.536 -0.1077  0.0729 -0.5348
 2879SOL    HW1 9536   5.974   3.130   2.485 -0.5291  1.9449 -0.7079
 2879SOL    HW2 9537   6.075   3.079   2.602 -2.0820 -0.2086 -0.2483
 2880SOL     OW 9538   3.131   2.085   1.057 -0.0166  0.3643  0.1205
 2880SOL    HW1 9539   3.080   2.033   1.126 -1.1696 -0.7554 -1.5250
 2880SOL    HW2 9540   3.226   2.053   1.055 -0.1106  0.0173  0.7912
 2881SOL     OW 9541   2.736   0.355   4.986  0.2429  0.5428  0.3249
 2881SOL    HW1 9542   2.747   0.327   5.081  0.1351 -0.5506  0.0270
 2881SOL    HW2 9543   2.683   0.286   4.937 -0.9804  1.8074 -0.1838
 2882SOL     OW 9544   4.120   3.634   5.756  0.4268  0.7724  0.1210
 2882SOL    HW1 9545   4.032   3.614   5.797  0.6581  0.5589  0.5170
 2882SOL    HW2 9546   4.130   3.733   5.745 -0.1301  0.7644 -0.5406
 2883SOL     OW 9547   0.192   3.231   4.276 -0.1453 -0.5141 -0.0003
 2883SOL    HW1 9548   0.180   3.326   4.246  3.3524  0.3824  0.9566
 2883SOL    HW2 9549   0.214   3.174   4.197  0.4250  0.0590 -0.2670
 2884SOL     OW 9550   2.122   2.188   6.854  0.3936  0.6193  0.0974
 2884SOL    HW1 9551   2.186   2.123   6.812 -0.6165 -0.2124 -0.2053
 2884SOL    HW2 9552   2.118   2.171   6.952  0.0093  0.0867 -0.0027
 2885SOL     OW 9553   1.521   3.748   4.347  0.4214  0.5714 -0.0194
 2885SOL    HW1 9554   1.518   3.686   4.269 -1.4099  0.9557 -0.2873
 2885SOL    HW2 9555   1.606   3.801   4.343  0.7402  0.0099 -1.2893
 2886SOL     OW 9556   1.532   5.469   6.944  0.1670  0.0648 -0.1148
 2886SOL    HW1 9557   1.618   5.429   6.974  0.4837  0.8487  0.0442
 2886SOL    HW2 9558   1.535   5.568   6.956 -1.2679 -0.0095  1.2143
 2887SOL     OW 9559   3.517   2.662   6.386  0.3348 -0.3855 -0.1850
 2887SOL    HW1 9560   3.609   2.648   6.424  0.6683  1.6487 -0.1352
 2887SOL    HW2 9561   3.481   2.749   6.418 -1.0614 -0.5180 -1.3136
 2888SOL     OW 9562   4.495   6.743   0.882  0.2889 -0.3004  0.8858
 2888SOL    HW1 9563   4.487   6.840   0.906 -0.4491 -0.1104 -0.0784
 2888SOL    HW2 9564   4.583   6.708   0.916  0.9990  0.9455  0.4027
 2889SOL     OW 9565   2.949   3.629   4.033 -0.5481 -0.0722 -0.2079
 2889SOL    HW1 9566   2.949   3.707   4.096  0.6981 -0.9598  0.9348
 2889SOL    HW2 9567   2.998   3.654   3.949 -0.5493  0.5084 -0.0390
 2890SOL     OW 9568   3.658   0.991   2.354 -0.1715 -0.4182 -0.3511
 2890SOL    HW1 9569   3.646   1.087   2.379  0.2758 -0.0818 -1.3897
 2890SOL    HW2 9570   3.722   0.948   2.418  0.5020  0.2763 -0.5403
 2891SOL     OW 9571   3.137   1.993   0.190 -0.3016  0.2489  0.4827
 2891SOL    HW1 9572   3.174   1.971   0.280  1.4095  1.9733  0.2529
 2891SOL    HW2 9573   3.053   2.046   0.201 -0.6892 -0.4702  1.0486
 2892SOL     OW 9574   5.203   1.316   0.444  0.4329 -0.1802  0.6265
 2892SOL    HW1 9575   5.239   1.386   0.383  0.0151  0.7804  1.4481
 2892SOL    HW2 9576   5.236   1.226   0.415  1.4415  0.4071 -0.1167
 2893SOL     OW 9577   3.564   0.017   2.045  0.0397 -0.2759 -0.4995
 2893SOL    HW1 9578   3.662   0.004   2.036 -0.0556 -1.4411 -0.0795
 2893SOL    HW2 9579   3.541   0.114   2.035  1.3975  0.2170  0.8374
 2894SOL     OW 9580   0.070   1.046   1.192  0.1101 -0.4265  0.2875
 2894SOL    HW1 9581   0.102   1.111   1.260  0.4338  0.6215 -0.8298
 2894SOL    HW2 9582   0.132   0.967   1.189  0.9074  0.1964  0.2080
 2895SOL     OW 9583   3.208   1.806   2.513 -0.1032  0.3925  0.1199
 2895SOL    HW1 9584   3.182   1.718   2.552 -1.2403  0.6246 -0.0831
 2895SOL    HW2 9585   3.241   1.791   2.419 -0.0685  0.1649  0.1657
 2896SOL     OW 9586   0.025   2.642   4.358 -0.1305  0.0995 -0.8762
 2896SOL    HW1 9587   0.098   2.574   4.348 -1.7752 -1.6957 -1.3482
 2896SOL    HW2 9588   0.050   2.725   4.308  1.2396 -0.7581 -1.6834
 2897SOL     OW 9589   3.491   2.582   6.125  0.3373  0.4951  0.2067
 2897SOL    HW1 9590   3.506   2.624   6.214 -2.4224  0.8264  0.6001
 2897SOL    HW2 9591   3.514   2.647   6.052 -0.0678  1.2344  0.7326
 2898SOL     OW 9592   5.524   6.185   4.669  0.2503 -0.4946 -0.4342
 2898SOL    HW1 9593   5.494   6.092   4.691  1.7046 -0.9042 -0.1297
 2898SOL    HW2 9594   5.578   6.184   4.585 -2.9217  0.6627 -2.6920
 2899SOL     OW 9595   4.680   0.591   4.325 -0.4180 -0.3778  0.1392
 2899SOL    HW1 9596   4.703   0.673   4.273 -0.7696  0.6246  1.5104
 2899SOL    HW2 9597   4.761   0.533   4.334  0.9486  1.7119  2.4476
 2900SOL     OW 9598   4.500   6.938   4.313  0.0042  0.0437  0.2981
 2900SOL    HW1 9599   4.559   6.949   4.393  0.1581 -2.7535  0.6398
 2900SOL    HW2 9600   4.405   6.926   4.342 -0.2528  0.9666 -0.0888
 2901SOL     OW 9601   0.137   3.307   5.729 -0.3321 -0.4953 -0.1463
 2901SOL    HW1 9602   0.094   3.383   5.779 -0.7181  0.7842 -2.2928
 2901SOL    HW2 9603   0.118   3.221   5.776 -1.1533  0.5555  1.5581
 2902SOL     OW 9604   2.436   4.507   4.904 -0.3495  0.1210 -0.0430
 2902SOL    HW1 9605   2.462   4.604   4.909  1.2697 -0.0795 -2.8387
 2902SOL    HW2 9606   2.463   4.461   4.989 -0.8626  2.0005  1.2088
 2903SOL     OW 9607   5.168   5.073   3.150  0.5557  0.5395  0.1989
 2903SOL    HW1 9608   5.139   5.151   3.094  0.3210  0.5463  0.3273
 2903SOL    HW2 9609   5.204   5.106   3.237 -2.0688  0.4371  1.4316
 2904SOL     OW 9610   6.152   2.162   2.242 -0.1969 -0.1022 -0.0193
 2904SOL    HW1 9611   6.142   2.078   2.294  1.4574  0.9291  2.1005
 2904SOL    HW2 9612   6.065   2.183   2.196 -1.7451 -1.1029  2.2804
 2905SOL     OW 9613   2.005   1.566   2.389 -0.0275  0.1182 -0.0910
 2905SOL    HW1 9614   2.058   1.581   2.473 -1.2053 -2.3769  1.2125
 2905SOL    HW2 9615   2.041   1.485   2.341 -1.1664 -0.1976 -0.4365
 2906SOL     OW 9616   6.105   1.389   2.872  0.1367  0.3092  0.1002
 2906SOL    HW1 9617   6.032   1.336   2.914 -0.6900  1.1667 -0.2183
 2906SOL    HW2 9618   6.186   1.331   2.860 -0.8809 -1.0076 -0.6565
 2907SOL     OW 9619   5.961   4.848   6.421  0.0519  0.3061 -0.2719
 2907SOL    HW1 9620   5.863   4.855   6.439  0.1871  0.5560  0.4062
 2907SOL    HW2 9621   6.011   4.905   6.486  0.5992  1.0286 -1.2884
 2908SOL     OW 9622   4.575   6.108   1.705 -0.0944  0.1717  0.0847
 2908SOL    HW1 9623   4.506   6.136   1.771 -0.1351 -1.9813  1.0674
 2908SOL    HW2 9624   4.664   6.145   1.731 -0.3409  0.3789  0.6320
 2909SOL     OW 9625   0.456   0.190   4.087 -0.2891 -0.2050  0.0302
 2909SOL    HW1 9626   0.404   0.209   4.005  0.7744  1.7480 -0.2416
 2909SOL    HW2 9627   0.484   0.094   4.087  0.8601  0.0492 -2.5979
 2910SOL     OW 9628   2.662   1.781   4.011  0.3122 -0.1290  0.1878
 2910SOL    HW1 9629   2.749   1.765   4.057  0.3010 -2.5851 -0.5106
 2910SOL    HW2 9630   2.591   1.726   4.056 -0.2865 -0.3010 -0.9375
 2911SOL     OW 9631   2.847   4.980   1.185 -0.7693 -0.0941  0.2684
 2911SOL    HW1 9632   2.923   5.040   1.158 -0.4069 -0.8849 -0.5021
 2911SOL    HW2 9633   2.883   4.892   1.216 -1.3175 -0.0552  1.0510
 2912SOL     OW 9634   0.488   2.937   1.839  0.4673 -0.3790 -0.3283
 2912SOL    HW1 9635   0.503   3.025   1.884  0.7744 -1.7227  2.4223
 2912SOL    HW2 9636   0.561   2.919   1.773  0.2991  1.4539 -1.0589
 2913SOL     OW 9637   2.318   0.992   5.036 -0.5269 -0.1479  0.4366
 2913SOL    HW1 9638   2.276   1.074   5.076 -1.4288 -0.6773  0.6144
 2913SOL    HW2 9639   2.312   0.917   5.102  2.1901  0.1488  1.1227
 2914SOL     OW 9640   6.386   2.216   4.587 -0.9398  0.4508 -0.6349
 2914SOL    HW1 9641   6.439   2.295   4.555 -1.0357  0.8801  0.2302
 2914SOL    HW2 9642   6.303   2.207   4.532 -0.9227  0.9517 -0.7520
 2915SOL     OW 9643   0.766   0.577   2.645  1.0451  0.4561  0.3609
 2915SOL    HW1 9644   0.820   0.654   2.680  0.8519  0.3690  0.8490
 2915SOL    HW2 9645   0.814   0.491   2.665  2.3471  0.5301 -2.0676
 2916SOL     OW 9646   2.582   0.672   5.436 -0.2334  0.0764 -0.5430
 2916SOL    HW1 9647   2.620   0.668   5.528 -0.5706  1.3399 -0.3197
 2916SOL    HW2 9648   2.648   0.637   5.370  1.0260  1.4816 -0.0777
 2917SOL     OW 9649   0.366   6.611   3.052 -0.2435  0.3834 -0.6277
 2917SOL    HW1 9650   0.401   6.690   3.103  0.9851 -0.6655  0.2218
 2917SOL    HW2 9651   0.291   6.569   3.103  0.2031  0.0300 -0.2578
 2918SOL     OW 9652   0.237   3.769   0.526  0.3881 -0.0925  0.0834
 2918SOL    HW1 9653   0.236   3.834   0.602  1.4060 -0.9310  0.8425
 2918SOL    HW2 9654   0.149   3.723   0.520  0.0425  0.5364  0.2544
 2919SOL     OW 9655   6.180   3.372   1.651  0.1188 -0.6855 -0.3362
 2919SOL    HW1 9656   6.235   3.419   1.583  0.5448 -1.3425 -0.4530
 2919SOL    HW2 9657   6.229   3.290   1.683 -0.6017 -1.0398 -0.1268
 2920SOL     OW 9658   5.280   1.263   5.018  0.1245  0.0202  0.6642
 2920SOL    HW1 9659   5.209   1.212   4.969 -0.0904 -0.6317  1.6203
 2920SOL    HW2 9660   5.249   1.357   5.032  0.0058  0.0949 -0.0591
 2921SOL     OW 9661   4.905   4.525   4.282  0.3944  0.4925 -0.2063
 2921SOL    HW1 9662   4.809   4.497   4.293  0.2295  0.4777 -1.5759
 2921SOL    HW2 9663   4.962   4.444   4.266  0.7081  0.4633  0.9732
 2922SOL     OW 9664   5.839   0.812   4.308 -0.3412  0.0726 -0.0150
 2922SOL    HW1 9665   5.836   0.739   4.240 -0.3311  0.8936 -0.9131
 2922SOL    HW2 9666   5.748   0.821   4.350 -0.5001 -0.0587 -0.3234
 2923SOL     OW 9667   3.346   0.264   6.360  0.1261 -0.5283  0.3005
 2923SOL    HW1 9668   3.296   0.348   6.381 -0.0569  0.1384 -2.4271
 2923SOL    HW2 9669   3.439   0.272   6.397 -0.3810  0.1415  1.5059
 2924SOL     OW 9670   1.297   4.301   1.790  0.4101 -0.4990 -0.3071
 2924SOL    HW1 9671   1.204   4.271   1.766  0.3242 -0.1911 -0.3635
 2924SOL    HW2 9672   1.360   4.273   1.718  0.5677 -1.7927  0.3174
 2925SOL     OW 9673   2.244   0.961   4.047 -0.5616  0.3928 -0.0625
 2925SOL    HW1 9674   2.276   0.985   4.139 -0.5100 -0.8873  0.2856
 2925SOL    HW2 9675   2.233   1.043   3.992  3.5869  0.9693 -0.3241
 2926SOL     OW 9676   3.180   3.166   6.567 -0.2626 -0.2098 -0.2667
 2926SOL    HW1 9677   3.102   3.219   6.533 -0.6004 -0.4108  0.1750
 2926SOL    HW2 9678   3.165   3.069   6.545  0.3429 -0.1367 -1.0581
 2927SOL     OW 9679   4.283   6.651   0.741  0.1953 -0.0229  0.3360
 2927SOL    HW1 9680   4.194   6.647   0.786 -0.7187  0.1278 -1.3683
 2927SOL    HW2 9681   4.353   6.678   0.807 -1.3861  2.1518  1.2460
 2928SOL     OW 9682   6.452   6.167   5.010  0.4694  0.2990  0.1223
 2928SOL    HW1 9683   6.508   6.101   4.960 -0.3392 -0.2947 -0.0198
 2928SOL    HW2 9684   6.419   6.124   5.095 -0.1341  0.4868 -0.0161
 2929SOL     OW 9685   2.529   5.237   5.765 -0.6666 -0.0159 -0.3150
 2929SOL    HW1 9686   2.463   5.172   5.801 -2.1416  0.1497 -2.5206
 2929SOL    HW2 9687   2.481   5.307   5.712  1.1339  1.2006 -0.4100
 2930SOL     OW 9688   1.060   6.349   1.042 -0.3887  0.7356  0.4302
 2930SOL    HW1 9689   1.136   6.394   1.088 -1.0389 -0.1994  2.5801
 2930SOL    HW2 9690   1.091   6.263   1.002 -0.2289  0.5805  0.8902
 2931SOL     OW 9691   3.799   5.995   4.238 -0.2515  0.0322 -0.1504
 2931SOL    HW1 9692   3.856   5.923   4.278 -0.0377 -0.1623 -0.7848
 2931SOL    HW2 9693   3.721   5.952   4.190 -0.2471  0.2306 -0.3372
 2932SOL     OW 9694   4.781   2.214   2.964  0.0234 -0.0117  0.2125
 2932SOL    HW1 9695   4.725   2.267   3.029  1.3529  0.1798  1.2456
 2932SOL    HW2 9696   4.801   2.124   3.003 -0.7733 -0.6429 -0.7909
 2933SOL     OW 9697   2.520   2.516   6.490  0.0493  0.0779 -0.2511
 2933SOL    HW1 9698   2.495   2.483   6.582 -0.1673  0.3144 -0.2242
 2933SOL    HW2 9699   2.602   2.469   6.460 -1.7546 -2.6080 -1.3704
 2934SOL     OW 9700   4.128   3.504   2.424  0.4051  0.2055 -0.1255
 2934SOL    HW1 9701   4.207   3.514   2.364  0.1212  0.2357 -0.4951
 2934SOL    HW2 9702   4.053   3.462   2.374 -0.3141  1.5402 -0.2097
 2935SOL     OW 9703   6.923   2.386   2.659 -0.2291  0.0128  0.4224
 2935SOL    HW1 9704   6.963   2.294   2.663 -1.1565 -0.5286 -1.5466
 2935SOL    HW2 9705   6.992   2.453   2.685  1.5913 -0.9793 -1.5449
 2936SOL     OW 9706   1.231   0.101   4.383  0.4070 -0.4325 -0.2123
 2936SOL    HW1 9707   1.323   0.077   4.415  0.6711  2.5261  1.6797
 2936SOL    HW2 9708   1.238   0.148   4.295  0.6190 -0.7925 -0.3925
 2937SOL     OW 9709   2.448   5.263   0.992 -0.0416 -0.3693  1.0126
 2937SOL    HW1 9710   2.360   5.223   0.965 -1.3712  0.9946  3.0898
 2937SOL    HW2 9711   2.485   5.214   1.070  1.0779 -0.9207  0.1646
 2938SOL     OW 9712   0.705   3.385   0.907  0.3136 -0.3263 -0.4631
 2938SOL    HW1 9713   0.699   3.320   0.831  0.7718 -0.2366 -0.5783
 2938SOL    HW2 9714   0.759   3.465   0.879 -1.7359  0.9618 -0.9252
 2939SOL     OW 9715   2.332   6.015   4.752  0.1243 -0.9052 -0.1010
 2939SOL    HW1 9716   2.422   5.983   4.784  0.3238  0.0226  0.2887
 2939SOL    HW2 9717   2.278   6.047   4.830 -1.2709 -3.1302 -0.0743
 2940SOL     OW 9718   2.108   3.129   0.798  0.4624 -0.3266 -0.5103
 2940SOL    HW1 9719   2.186   3.135   0.861  0.1375  0.5116 -0.1736
 2940SOL    HW2 9720   2.043   3.061   0.831 -0.2828  0.9338  0.7363
 2941SOL     OW 9721   1.473   4.165   2.813 -0.3329  0.5299  0.1997
 2941SOL    HW1 9722   1.551   4.102   2.814  1.0368  1.9791 -2.3909
 2941SOL    HW2 9723   1.391   4.116   2.783 -0.3681 -0.8818  2.3754
 2942SOL     OW 9724   1.737   2.264   5.366 -0.1443  0.0079  0.5455
 2942SOL    HW1 9725   1.734   2.284   5.268  0.2740 -3.6398 -0.3753
 2942SOL    HW2 9726   1.829   2.233   5.391  0.1442  2.1885  2.4838
 2943SOL     OW 9727   3.631   6.077   6.418  0.6489 -0.2808 -0.1244
 2943SOL    HW1 9728   3.691   6.157   6.421  0.0567  0.1643 -0.2612
 2943SOL    HW2 9729   3.571   6.078   6.498 -0.4382  0.2461 -0.9397
 2944SOL     OW 9730   1.253   6.460   1.177 -0.0150  0.0932  0.2783
 2944SOL    HW1 9731   1.247   6.538   1.114  1.1893  0.7799  0.9734
 2944SOL    HW2 9732   1.349   6.443   1.200 -0.4185 -0.1992  1.8469
 2945SOL     OW 9733   6.544   2.582   4.040 -0.1625 -0.0829 -0.3690
 2945SOL    HW1 9734   6.632   2.615   4.075  0.1477 -2.2987  1.1929
 2945SOL    HW2 9735   6.474   2.652   4.054  0.3274 -0.1362  3.2608
 2946SOL     OW 9736   4.390   0.652   6.619 -0.2163 -0.1284 -0.5668
 2946SOL    HW1 9737   4.371   0.579   6.686  0.3470 -0.1794 -0.4618
 2946SOL    HW2 9738   4.303   0.683   6.579 -0.3465 -2.2153 -2.0720
 2947SOL     OW 9739   4.034   6.454   3.560  0.0640 -0.2521 -0.0310
 2947SOL    HW1 9740   4.067   6.370   3.518 -0.8832 -0.8210  0.3471
 2947SOL    HW2 9741   4.111   6.502   3.603  0.4871 -1.3426  0.4693
 2948SOL     OW 9742   2.594   0.693   0.564 -0.2440  0.3069 -0.2161
 2948SOL    HW1 9743   2.556   0.761   0.501  1.2524  0.4687 -0.9744
 2948SOL    HW2 9744   2.558   0.602   0.541  0.6614  0.2855 -1.6598
 2949SOL     OW 9745   6.793   3.465   6.545  0.0179  0.0694  0.9327
 2949SOL    HW1 9746   6.802   3.512   6.633  2.1720 -1.0183  1.3853
 2949SOL    HW2 9747   6.798   3.366   6.560  0.8295 -0.1259 -0.4287
 2950SOL     OW 9748   1.690   6.881   0.987  0.8726 -0.2478  0.1028
 2950SOL    HW1 9749   1.781   6.906   0.952  0.4964 -0.0184 -0.7390
 2950SOL    HW2 9750   1.683   6.781   0.990 -0.2104 -0.4777 -3.7904
 2951SOL     OW 9751   4.420   0.774   2.516 -0.5458 -0.5312  0.2682
 2951SOL    HW1 9752   4.482   0.825   2.455 -1.4364 -0.4585 -0.6043
 2951SOL    HW2 9753   4.472   0.738   2.593  0.1261  1.7329  0.9464
 2952SOL     OW 9754   0.278   2.777   4.778 -0.4677 -0.6372 -0.0205
 2952SOL    HW1 9755   0.335   2.859   4.771 -2.2953  0.8215  1.1095
 2952SOL    HW2 9756   0.255   2.761   4.873 -0.2306 -2.4625 -0.2373
 2953SOL     OW 9757   5.214   6.716   2.074 -0.0055 -0.3830 -0.2753
 2953SOL    HW1 9758   5.223   6.622   2.041 -0.3173 -0.3867 -0.3626
 2953SOL    HW2 9759   5.117   6.743   2.070 -0.1159 -0.5173  1.0086
 2954SOL     OW 9760   6.930   4.997   3.093  0.2327 -0.6119  0.2233
 2954SOL    HW1 9761   7.022   5.030   3.073 -0.3864  0.8618 -0.3258
 2954SOL    HW2 9762   6.932   4.942   3.177  2.0449 -2.8928 -1.1895
 2955SOL     OW 9763   5.195   6.439   6.918  0.5721  0.7086  0.2026
 2955SOL    HW1 9764   5.151   6.498   6.985  0.2245  1.6376 -0.8061
 2955SOL    HW2 9765   5.152   6.349   6.919 -0.7854  1.3226 -0.1292
 2956SOL     OW 9766   1.652   2.571   4.618 -0.1754  0.5967 -0.1535
 2956SOL    HW1 9767   1.689   2.611   4.702 -0.9604  2.4213 -0.6211
 2956SOL    HW2 9768   1.634   2.474   4.633  1.7291  0.3578  1.0799
 2957SOL     OW 9769   6.984   3.370   2.478  0.8152  0.3701 -0.0470
 2957SOL    HW1 9770   6.927   3.375   2.560  1.1051  2.5079  0.0827
 2957SOL    HW2 9771   7.081   3.371   2.505  0.9394  2.5558 -0.3923
 2958SOL     OW 9772   2.901   0.523   5.674 -0.0161 -0.4070 -0.4137
 2958SOL    HW1 9773   2.999   0.539   5.665 -0.1761  0.3200 -0.9183
 2958SOL    HW2 9774   2.867   0.572   5.755  0.1866 -1.3973  0.2963
 2959SOL     OW 9775   1.234   3.812   5.442  0.5479 -0.0607  0.3229
 2959SOL    HW1 9776   1.292   3.732   5.429  1.0743  0.3493  0.1177
 2959SOL    HW2 9777   1.211   3.852   5.353  3.6597  2.3928  0.4485
 2960SOL     OW 9778   3.086   2.051   2.048  0.1004  0.5546  0.1428
 2960SOL    HW1 9779   3.149   2.050   1.970 -0.1805  1.6714 -0.1164
 2960SOL    HW2 9780   3.036   2.137   2.049 -2.3866 -0.7833 -0.3784
 2961SOL     OW 9781   4.655   0.190   3.582  0.3538 -0.9543  0.1466
 2961SOL    HW1 9782   4.646   0.239   3.668  1.1536 -2.1563  0.9431
 2961SOL    HW2 9783   4.746   0.147   3.577  0.6761 -0.1424 -1.7049
 2962SOL     OW 9784   5.834   6.516   3.732 -0.1533  0.2500  0.0111
 2962SOL    HW1 9785   5.755   6.481   3.682 -0.5001  0.9790  0.0290
 2962SOL    HW2 9786   5.903   6.444   3.741 -1.7197 -1.1422  1.9629
 2963SOL     OW 9787   3.375   4.656   1.435  0.4593 -0.7124  0.5425
 2963SOL    HW1 9788   3.330   4.567   1.436 -0.5778 -0.2163  1.8177
 2963SOL    HW2 9789   3.473   4.644   1.418  0.2783 -2.0565  0.3555
 2964SOL     OW 9790   0.596   6.873   5.567  0.2059  0.2075  0.2095
 2964SOL    HW1 9791   0.595   6.794   5.507 -0.3981 -0.3486  0.9284
 2964SOL    HW2 9792   0.584   6.843   5.662  1.6727  1.0136  0.6807
 2965SOL     OW 9793   5.348   4.823   2.040 -0.2213  0.4366 -0.2590
 2965SOL    HW1 9794   5.380   4.875   1.961  0.4613  0.6722  0.1645
 2965SOL    HW2 9795   5.248   4.830   2.045 -0.3338 -0.0520 -1.4155
 2966SOL     OW 9796   7.001   6.919   6.524  0.3287 -0.1794 -0.1503
 2966SOL    HW1 9797   6.948   7.004   6.521  0.1985 -0.2786 -1.5712
 2966SOL    HW2 9798   6.944   6.845   6.561  0.1532  0.1590  0.2612
 2967SOL     OW 9799   2.609   0.379   1.399  0.1060  0.3429 -0.4136
 2967SOL    HW1 9800   2.598   0.379   1.498  0.7579  0.9896 -0.3352
 2967SOL    HW2 9801   2.616   0.285   1.366  0.9033  0.1425  0.2836
 2968SOL     OW 9802   2.383   2.616   2.940 -0.7871 -0.2893 -0.3282
 2968SOL    HW1 9803   2.395   2.688   2.872 -1.8834  2.3899  2.1163
 2968SOL    HW2 9804   2.302   2.562   2.918 -1.8533  1.3282 -0.5805
 2969SOL     OW 9805   5.577   3.170   3.832 -0.5601  0.2189  0.4389
 2969SOL    HW1 9806   5.513   3.109   3.784 -0.1393  1.1146 -1.3406
 2969SOL    HW2 9807   5.525   3.239   3.882 -1.0888  1.8242 -2.1524
 2970SOL     OW 9808   5.760   5.434   4.759  0.2047 -0.5935  0.1290
 2970SOL    HW1 9809   5.757   5.515   4.701  1.7919 -0.2665  0.4596
 2970SOL    HW2 9810   5.666   5.402   4.777 -0.4237  0.8868 -0.3694
 2971SOL     OW 9811   4.130   0.909   2.746 -0.4459  0.2851 -0.3948
 2971SOL    HW1 9812   4.078   0.978   2.796 -0.7617  0.9294 -1.5695
 2971SOL    HW2 9813   4.147   0.942   2.653 -1.6116 -1.6960 -1.3737
 2972SOL     OW 9814   2.069   4.841   6.796  0.1077  0.4409 -0.5188
 2972SOL    HW1 9815   2.022   4.844   6.707 -1.5217 -0.4190  0.2797
 2972SOL    HW2 9816   2.109   4.750   6.809 -0.0079  0.4373 -0.1938
 2973SOL     OW 9817   5.195   2.066   4.817  0.5454 -0.0300  0.4731
 2973SOL    HW1 9818   5.105   2.109   4.816  0.3481 -0.4390  0.2664
 2973SOL    HW2 9819   5.255   2.115   4.879  0.9083  1.7142 -1.1457
 2974SOL     OW 9820   1.380   5.129   2.147 -0.3295 -0.5000  0.3093
 2974SOL    HW1 9821   1.436   5.210   2.127 -0.0197 -1.3669 -2.8300
 2974SOL    HW2 9822   1.298   5.157   2.197  0.6410  1.4474  0.9321
 2975SOL     OW 9823   6.102   6.528   2.777 -0.3937 -0.2584 -0.2897
 2975SOL    HW1 9824   6.174   6.576   2.826  0.3434 -0.9142 -0.7147
 2975SOL    HW2 9825   6.023   6.515   2.838 -0.8554  1.9614 -0.3235
 2976SOL     OW 9826   1.673   2.967   4.061 -0.6274  0.3326 -0.6844
 2976SOL    HW1 9827   1.740   3.016   4.004  2.1830 -2.4832 -0.1142
 2976SOL    HW2 9828   1.675   3.003   4.154 -0.3457  0.6269 -0.8014
 2977SOL     OW 9829   3.928   3.426   0.612  0.7734 -0.4237 -0.3878
 2977SOL    HW1 9830   3.976   3.513   0.618  0.8813 -0.3759 -1.6105
 2977SOL    HW2 9831   3.994   3.351   0.615  1.1177 -0.3401 -2.9428
 2978SOL     OW 9832   6.836   2.858   0.523 -0.9808 -0.1890 -0.1807
 2978SOL    HW1 9833   6.782   2.938   0.549  0.1082  0.8002 -0.8344
 2978SOL    HW2 9834   6.872   2.814   0.605  0.3653  1.4141  0.1491
 2979SOL     OW 9835   2.289   4.650   2.360 -0.0629  0.1987  0.2708
 2979SOL    HW1 9836   2.280   4.675   2.456  0.1041  1.4536 -0.0336
 2979SOL    HW2 9837   2.385   4.629   2.339 -0.1019 -0.0902  0.3688
 2980SOL     OW 9838   2.443   6.154   5.461  0.4323  0.7842 -0.1470
 2980SOL    HW1 9839   2.440   6.054   5.463 -1.2856  0.7528 -1.6121
 2980SOL    HW2 9840   2.532   6.185   5.428  0.3131 -0.3510 -1.6371
 2981SOL     OW 9841   0.638   4.066   6.382 -0.3996  0.0976 -0.6157
 2981SOL    HW1 9842   0.612   4.158   6.355  0.6349  1.4054  2.4080
 2981SOL    HW2 9843   0.714   4.034   6.325  1.1400  2.3530  0.0243
 2982SOL     OW 9844   5.913   2.639   5.781  0.3161 -0.6847 -0.4055
 2982SOL    HW1 9845   5.861   2.655   5.697 -0.1236 -1.2378 -0.2390
 2982SOL    HW2 9846   6.008   2.666   5.766 -0.1429  0.9505 -0.4951
 2983SOL     OW 9847   3.458   6.691   5.663 -0.0483 -0.0604 -0.1763
 2983SOL    HW1 9848   3.459   6.604   5.713  0.6048 -0.6599 -1.2059
 2983SOL    HW2 9849   3.366   6.729   5.666 -0.8277 -1.7375 -1.2931
 2984SOL     OW 9850   1.564   3.311   6.959 -0.3547  0.1701 -0.0993
 2984SOL    HW1 9851   1.563   3.243   6.886 -0.9690  0.1585 -0.0853
 2984SOL    HW2 9852   1.542   3.401   6.920 -0.1862  0.2492 -0.0109
 2985SOL     OW 9853   1.503   5.160   1.802  0.4074 -0.5183 -0.3454
 2985SOL    HW1 9854   1.583   5.220   1.800 -0.4510  0.8068  1.4878
 2985SOL    HW2 9855   1.441   5.185   1.728  1.0276 -0.5818 -0.8896
 2986SOL     OW 9856   3.259   3.439   5.370 -0.5358  0.6513 -0.0994
 2986SOL    HW1 9857   3.351   3.415   5.338 -0.3108 -0.9098  1.5444
 2986SOL    HW2 9858   3.193   3.416   5.299  0.1527 -0.4168 -0.4340
 2987SOL     OW 9859   4.317   6.493   2.250 -0.5169  0.5732  0.2209
 2987SOL    HW1 9860   4.254   6.429   2.294  0.8286 -0.1507  1.1715
 2987SOL    HW2 9861   4.279   6.586   2.254 -1.6148  0.1242  0.5425
 2988SOL     OW 9862   3.578   3.559   5.208  0.0424  0.1989  0.2744
 2988SOL    HW1 9863   3.654   3.567   5.144  0.7933 -1.0615  0.9650
 2988SOL    HW2 9864   3.612   3.563   5.302 -0.8283  0.3070  0.5939
 2989SOL     OW 9865   2.136   1.759   1.273 -0.5638  0.3641  0.2377
 2989SOL    HW1 9866   2.100   1.820   1.203 -1.8837  0.3689  0.8937
 2989SOL    HW2 9867   2.161   1.671   1.231  0.3321  0.9597 -0.5203
 2990SOL     OW 9868   0.321   0.143   6.765  0.3244  0.2914 -0.5579
 2990SOL    HW1 9869   0.353   0.105   6.678 -0.2742 -0.5027 -0.4461
 2990SOL    HW2 9870   0.397   0.190   6.811  0.7877  0.2279 -1.2372
 2991SOL     OW 9871   0.288   6.635   4.759 -0.9449  0.0764 -0.0612
 2991SOL    HW1 9872   0.363   6.687   4.798  1.2065 -1.4766 -1.9011
 2991SOL    HW2 9873   0.273   6.552   4.813 -0.9277  0.0867 -0.0403
 2992SOL     OW 9874   0.395   5.930   1.250 -0.6074 -0.1423  0.2289
 2992SOL    HW1 9875   0.359   6.014   1.290  1.2852  0.2930  1.1211
 2992SOL    HW2 9876   0.495   5.930   1.257 -0.5440 -2.3325 -0.0143
 2993SOL     OW 9877   6.625   3.036   4.576  0.2663  0.6237 -0.1839
 2993SOL    HW1 9878   6.617   2.938   4.589  0.6814  0.8520  2.4955
 2993SOL    HW2 9879   6.564   3.084   4.640  1.3966  2.0781 -0.1156
 2994SOL     OW 9880   6.030   6.393   4.224 -0.6788  0.3736 -0.6228
 2994SOL    HW1 9881   5.978   6.382   4.140  0.5184 -0.1625 -1.3032
 2994SOL    HW2 9882   6.001   6.324   4.291 -0.0415 -0.7042 -1.4222
 2995SOL     OW 9883   6.341   0.823   1.092  0.5060  0.4798 -0.2130
 2995SOL    HW1 9884   6.302   0.896   1.148 -1.1771  0.8212 -1.7305
 2995SOL    HW2 9885   6.292   0.738   1.110  1.4073  0.0782  0.3914
 2996SOL     OW 9886   4.338   1.215   0.682  0.3490  0.0223 -0.5731
 2996SOL    HW1 9887   4.370   1.217   0.777  3.8892  1.6424 -1.6318
 2996SOL    HW2 9888   4.265   1.282   0.670  0.7745  0.7526  0.7212
 2997SOL     OW 9889   0.325   3.198   2.111 -0.0790 -0.7423  0.7009
 2997SOL    HW1 9890   0.392   3.217   2.040 -1.5749  2.3368 -0.0634
 2997SOL    HW2 9891   0.362   3.223   2.200 -0.1023  0.8354  0.2942
 2998SOL     OW 9892   4.214   1.413   1.434  0.6244  0.2805 -0.2840
 2998SOL    HW1 9893   4.148   1.355   1.482  1.0425  0.6544  0.7703
 2998SOL    HW2 9894   4.242   1.368   1.349  1.3165 -1.3408  0.7436
 2999SOL     OW 9895   3.039   6.900   5.917 -0.0186 -0.0140  0.3743
 2999SOL    HW1 9896   3.014   6.846   5.997 -2.7829 -1.0595 -1.0562
 2999SOL    HW2 9897   3.136   6.922   5.921 -0.0207 -0.0592  3.9316
 3000SOL     OW 9898   3.653   6.652   4.738 -0.0918  0.1245  0.2646
 3000SOL    HW1 9899   3.741   6.699   4.741 -0.9428  1.8370 -0.2267
 3000SOL    HW2 9900   3.636   6.606   4.826  0.5487  1.2066  0.9769
 3001SOL     OW 9901   5.570   5.804   2.938 -0.4008 -0.4303 -0.1859
 3001SOL    HW1 9902   5.661   5.764   2.943  0.4420  1.4539 -0.0710
 3001SOL    HW2 9903   5.502   5.730   2.941  1.0687 -1.8163  0.5319
 3002SOL     OW 9904   1.769   2.535   5.882 -0.4581 -0.0112  0.0760
 3002SOL    HW1 9905   1.809   2.482   5.808  1.3239 -0.3915  1.2643
 3002SOL    HW2 9906   1.697   2.481   5.927  0.7432 -1.1338  0.7194
 3003SOL     OW 9907   6.945   1.446   1.361  0.3098  0.1994  0.1519
 3003SOL    HW1 9908   6.864   1.428   1.417  0.9940  0.4521  1.2475
 3003SOL    HW2 9909   6.917   1.495   1.278 -1.0478 -2.2651 -0.9480
 3004SOL     OW 9910   5.762   4.968   3.835  0.4995 -0.0666 -0.0526
 3004SOL    HW1 9911   5.776   5.025   3.916  1.2439  0.9213 -0.8502
 3004SOL    HW2 9912   5.704   5.017   3.770 -1.0856 -1.3368  0.3361
 3005SOL     OW 9913   3.184   0.127   1.601 -0.5778  0.0289 -0.4437
 3005SOL    HW1 9914   3.113   0.112   1.532 -1.5080  0.8950  0.2771
 3005SOL    HW2 9915   3.237   0.208   1.577 -2.4905  1.8459  1.0044
 3006SOL     OW 9916   1.850   6.578   1.572  0.0005  0.3581 -0.1008
 3006SOL    HW1 9917   1.827   6.604   1.479 -0.9439 -0.4242 -0.1066
 3006SOL    HW2 9918   1.772   6.598   1.632 -0.0689 -0.7451  0.1973
 3007SOL     OW 9919   2.886   1.380   6.294  0.4056 -0.4035 -0.2926
 3007SOL    HW1 9920   2.851   1.289   6.316  1.3779 -0.8729 -0.6395
 3007SOL    HW2 9921   2.966   1.400   6.351 -0.1403  0.4942  0.2046
 3008SOL     OW 9922   6.860   1.737   6.207 -0.5227 -0.1047 -0.0339
 3008SOL    HW1 9923   6.799   1.770   6.135  0.2137  2.0186  0.2190
 3008SOL    HW2 9924   6.955   1.755   6.180 -0.1258 -1.2704  0.5426
 3009SOL     OW 9925   5.119   0.918   2.497 -0.4917 -0.2847  0.5614
 3009SOL    HW1 9926   5.073   0.925   2.408  0.5090  2.2302  0.1426
 3009SOL    HW2 9927   5.059   0.953   2.568 -0.2717  0.3707  0.4314
 3010SOL     OW 9928   0.992   6.463   0.327  0.5413  0.2132  0.0550
 3010SOL    HW1 9929   0.928   6.394   0.362  2.4636 -0.8594  1.6516
 3010SOL    HW2 9930   1.056   6.419   0.264 -0.1917  1.2609 -1.4758
 3011SOL     OW 9931   3.154   1.166   3.378  0.0867 -0.2447 -0.5639
 3011SOL    HW1 9932   3.076   1.155   3.441  0.1073 -2.5337 -0.8624
 3011SOL    HW2 9933   3.238   1.178   3.431 -0.3438  1.6056 -0.2348
 3012SOL     OW 9934   0.591   6.551   4.568  0.0364  0.0273  0.2393
 3012SOL    HW1 9935   0.589   6.503   4.656 -0.9988  0.9033  0.7208
 3012SOL    HW2 9936   0.534   6.502   4.502 -2.0624  1.1490  1.0867
 3013SOL     OW 9937   2.451   0.405   5.986  0.2881 -0.5319  0.2010
 3013SOL    HW1 9938   2.368   0.434   6.033  0.7373  4.1312 -1.3916
 3013SOL    HW2 9939   2.528   0.407   6.049 -0.0889 -0.4235  0.6639
 3014SOL     OW 9940   6.502   6.344   5.480 -0.5709  0.5631 -0.3673
 3014SOL    HW1 9941   6.434   6.288   5.529 -0.0616 -0.7713 -1.1520
 3014SOL    HW2 9942   6.575   6.286   5.445  0.5475  1.8695 -0.3023
 3015SOL     OW 9943   5.184   6.422   3.359  0.3583  0.1944  0.3213
 3015SOL    HW1 9944   5.235   6.508   3.360 -0.3015  0.5913  1.3407
 3015SOL    HW2 9945   5.086   6.440   3.354  0.1293 -0.4180  1.8742
 3016SOL     OW 9946   6.166   6.540   5.643  0.6164 -0.1893  0.3721
 3016SOL    HW1 9947   6.100   6.608   5.612  1.7213  0.5039 -0.5418
 3016SOL    HW2 9948   6.247   6.543   5.585  1.3266 -1.2439  1.2591
 3017SOL     OW 9949   0.513   1.930   4.617 -0.7911 -0.1624 -0.2478
 3017SOL    HW1 9950   0.542   1.981   4.698  0.3648 -1.5016  0.2238
 3017SOL    HW2 9951   0.435   1.872   4.640 -0.7974 -0.1469 -0.2299
 3018SOL     OW 9952   4.897   5.438   1.360 -0.1092 -0.1097 -0.6033
 3018SOL    HW1 9953   4.980   5.420   1.309 -0.1379  0.9670 -1.0639
 3018SOL    HW2 9954   4.836   5.496   1.306 -1.3998 -1.2992 -0.4894
 3019SOL     OW 9955   0.913   6.055   3.462  0.1968  0.2904 -0.2164
 3019SOL    HW1 9956   0.916   6.152   3.486 -0.4963 -0.0650  1.4102
 3019SOL    HW2 9957   0.984   6.006   3.512 -0.6307 -0.3199  0.3738
 3020SOL     OW 9958   0.941   3.982   0.369  0.1108  0.4977  0.1452
 3020SOL    HW1 9959   0.985   3.936   0.445  0.3290  0.2373 -0.1380
 3020SOL    HW2 9960   0.905   4.070   0.400 -0.5338  0.0360  0.7542
 3021SOL     OW 9961   1.008   3.592   3.137 -0.0403 -0.2807  0.5267
 3021SOL    HW1 9962   0.909   3.577   3.142  0.1720 -1.9646  0.2216
 3021SOL    HW2 9963   1.034   3.666   3.199 -1.3624 -0.5357  1.4183
 3022SOL     OW 9964   5.421   2.910   2.016  0.3205 -0.2476 -0.3814
 3022SOL    HW1 9965   5.465   2.848   2.081 -0.2001 -1.4991 -1.1821
 3022SOL    HW2 9966   5.364   2.975   2.066 -0.9855 -1.9128  0.3943
 3023SOL     OW 9967   6.879   2.908   5.489 -0.0692 -0.4488 -0.0978
 3023SOL    HW1 9968   6.809   2.900   5.418 -0.3529  0.1420  0.1074
 3023SOL    HW2 9969   6.843   2.963   5.565  0.9878  0.8250 -0.4775
 3024SOL     OW 9970   4.647   2.506   1.476 -0.3820  0.2633  0.0944
 3024SOL    HW1 9971   4.745   2.517   1.493  0.1519 -0.7599 -1.9868
 3024SOL    HW2 9972   4.606   2.595   1.456  0.5201  0.4724 -0.8613
 3025SOL     OW 9973   2.832   6.325   1.155  0.6931  0.0078  0.6703
 3025SOL    HW1 9974   2.733   6.339   1.159  0.7530  0.6636  0.1016
 3025SOL    HW2 9975   2.869   6.375   1.077  1.2327 -1.7390 -0.2360
 3026SOL     OW 9976   2.269   5.526   3.408 -0.0168  0.2654  0.0228
 3026SOL    HW1 9977   2.351   5.560   3.361  0.3146 -1.4114 -0.6637
 3026SOL    HW2 9978   2.277   5.544   3.506  0.7568  0.9204 -0.1538
 3027SOL     OW 9979   4.491   6.534   3.897  0.4107 -0.5915  0.6704
 3027SOL    HW1 9980   4.535   6.468   3.836 -2.2744 -1.0321 -0.9332
 3027SOL    HW2 9981   4.552   6.612   3.911  2.2899 -1.8507 -0.1422
 3028SOL     OW 9982   2.625   2.420   3.408 -0.2749 -0.3101  0.2229
 3028SOL    HW1 9983   2.701   2.421   3.473 -0.6613 -2.6986  0.8093
 3028SOL    HW2 9984   2.560   2.491   3.431  1.6338  1.6876 -0.1852
 3029SOL     OW 9985   1.997   4.895   4.365 -0.2071  0.2532  0.3488
 3029SOL    HW1 9986   2.086   4.913   4.407 -0.0405 -0.5608  0.3592
 3029SOL    HW2 9987   2.006   4.824   4.296 -0.2528  2.2953 -1.9183
 3030SOL     OW 9988   4.692   5.568   3.230 -0.7006 -0.3925 -0.1745
 3030SOL    HW1 9989   4.676   5.482   3.183 -0.7522  0.1170 -1.1215
 3030SOL    HW2 9990   4.666   5.560   3.326  0.3888 -1.7646  0.0287
 3031SOL     OW 9991   3.439   0.060   6.966  0.2361  0.2692  0.3878
 3031SOL    HW1 9992   3.518  -0.001   6.975 -0.3383 -0.5467  0.0231
 3031SOL    HW2 9993   3.467   0.144   6.919  0.7159 -0.3705 -0.5046
 3032SOL     OW 9994   0.045   1.029   6.444  0.1939 -0.7074  0.4165
 3032SOL    HW1 9995   0.128   1.025   6.388  0.3068 -2.8158  0.6349
 3032SOL    HW2 9996   0.070   1.048   6.539  0.2744  0.1314  0.2306
 3033SOL     OW 9997   1.435   6.544   6.080  0.3020  0.2160 -0.3865
 3033SOL    HW1 9998   1.472   6.511   5.993  0.9609 -0.2286  0.0501
 3033SOL    HW2 9999   1.466   6.484   6.154 -0.0620  0.7217  0.1815
 3034SOL     OW10000   4.924   3.275   4.508 -0.2982 -0.0528 -0.2930
 3034SOL    HW110001   4.913   3.300   4.412  0.2180  0.2793 -0.2677
 3034SOL    HW210002   4.865   3.333   4.565 -1.6920 -1.1890 -0.5108
 3035SOL     OW10003   4.040   6.306   1.341  0.0356 -0.4549 -0.3438
 3035SOL    HW110004   4.130   6.350   1.336 -0.1814 -0.1168 -1.5144
 3035SOL    HW210005   4.052   6.207   1.343  0.4884 -0.4045  1.4139
 3036SOL     OW10006   0.675   3.350   1.612 -0.4666 -0.0541 -0.2186
 3036SOL    HW110007   0.775   3.360   1.607 -0.5293 -0.0171 -2.0790
 3036SOL    HW210008   0.642   3.392   1.696  1.0769 -0.0171  0.4081
 3037SOL     OW10009   0.615   4.036   0.880  0.0490 -0.3634 -0.1035
 3037SOL    HW110010   0.568   3.948   0.892  0.7768 -0.5926  1.2101
 3037SOL    HW210011   0.562   4.108   0.925 -1.6507  0.3052 -2.9269
 3038SOL     OW10012   4.766   6.123   4.282  0.1206 -0.4168 -0.6944
 3038SOL    HW110013   4.774   6.033   4.325 -1.8393 -1.7435 -2.8977
 3038SOL    HW210014   4.855   6.150   4.244  0.7785 -1.2991  0.1580
 3039SOL     OW10015   0.255   4.358   6.028 -0.6115 -0.1072  0.1261
 3039SOL    HW110016   0.211   4.278   5.986 -0.7573  0.1904 -0.3054
 3039SOL    HW210017   0.262   4.345   6.126 -0.5342 -0.6990  0.0458
 3040SOL     OW10018   4.926   5.722   3.299 -0.0823 -0.2678 -0.3559
 3040SOL    HW110019   4.857   5.668   3.251  1.0910 -1.5908 -0.5963
 3040SOL    HW210020   4.893   5.816   3.309 -1.8839 -0.8504 -0.5014
 3041SOL     OW10021   4.312   0.778   0.248 -0.0790  0.5592 -0.3290
 3041SOL    HW110022   4.312   0.750   0.152 -0.1525 -1.5565  0.2582
 3041SOL    HW210023   4.218   0.788   0.281 -0.0963 -0.7794  0.0720
 3042SOL     OW10024   2.923   1.719   6.688  0.3149 -0.0231 -0.0738
 3042SOL    HW110025   2.887   1.629   6.666 -0.5864  0.1457  0.6445
 3042SOL    HW210026   2.999   1.710   6.752 -0.1525 -0.2588  0.4634
 3043SOL     OW10027   3.040   3.165   2.161 -0.5038 -0.1637  0.4001
 3043SOL    HW110028   2.959   3.221   2.177  0.2056  1.3506 -1.0713
 3043SOL    HW210029   3.090   3.154   2.247 -0.4979  1.7631  0.6799
 3044SOL     OW10030   4.883   0.447   1.971 -0.0510 -0.1601  0.0945
 3044SOL    HW110031   4.927   0.536   1.964 -0.9637  0.5080  2.0611
 3044SOL    HW210032   4.784   0.458   1.963 -0.3667 -0.6269  2.5417
 3045SOL     OW10033   2.270   1.850   3.059  0.2179 -0.5236  0.2956
 3045SOL    HW110034   2.369   1.852   3.046  0.3236  0.8388  1.1341
 3045SOL    HW210035   2.238   1.940   3.090 -1.3738 -0.7578 -0.5588
 3046SOL     OW10036   1.078   4.383   2.819 -0.1146  0.1580 -0.5887
 3046SOL    HW110037   1.092   4.338   2.730  0.4487 -1.4107  0.2590
 3046SOL    HW210038   1.089   4.481   2.808  2.0436 -0.1659 -1.8980
 3047SOL     OW10039   4.545   4.465   6.511 -0.2219  1.1896  0.7897
 3047SOL    HW110040   4.538   4.365   6.520 -1.2781  1.2889  1.1504
 3047SOL    HW210041   4.592   4.487   6.426  1.5596  0.3639  1.4797
 3048SOL     OW10042   2.203   2.610   2.101  0.3749  0.3387 -0.1867
 3048SOL    HW110043   2.203   2.709   2.087  0.9669  0.4847  0.7709
 3048SOL    HW210044   2.149   2.567   2.030  0.6739  1.2952 -1.0207
 3049SOL     OW10045   4.546   5.165   1.521 -0.1230 -0.7070  0.2875
 3049SOL    HW110046   4.623   5.102   1.505  0.8109  0.6202 -0.6688
 3049SOL    HW210047   4.527   5.170   1.619  0.8484 -1.2382  0.5216
 3050SOL     OW10048   0.061   3.171   0.424 -0.2338 -0.3115 -0.1305
 3050SOL    HW110049  -0.026   3.216   0.443 -0.2252 -0.0818 -0.6002
 3050SOL    HW210050   0.098   3.207   0.338  1.2514  0.9591  0.9994
 3051SOL     OW10051   5.771   2.920   3.837 -0.6777  0.1256 -0.0510
 3051SOL    HW110052   5.730   2.940   3.926 -0.8897 -1.3046  0.2065
 3051SOL    HW210053   5.704   2.872   3.780 -0.8360  1.7997 -1.3235
 3052SOL     OW10054   1.311   2.229   4.956  0.3692  0.1414  0.7735
 3052SOL    HW110055   1.379   2.300   4.938 -0.5193  0.7530 -0.2751
 3052SOL    HW210056   1.356   2.150   4.997  1.9906 -0.0620 -1.2344
 3053SOL     OW10057   0.155   1.117   3.338 -0.0085 -0.2436  0.1793
 3053SOL    HW110058   0.144   1.151   3.431  2.1267 -0.0566  0.4247
 3053SOL    HW210059   0.224   1.045   3.337 -0.1051 -0.3478 -1.2437
 3054SOL     OW10060   5.070   4.830   2.112 -0.3094 -0.2042  0.1838
 3054SOL    HW110061   5.110   4.858   2.199 -0.8445 -0.4463  0.5156
 3054SOL    HW210062   5.079   4.731   2.101 -1.7105 -0.4249  0.7505
 3055SOL     OW10063   6.705   2.865   6.519 -0.3179 -0.4261  0.6886
 3055SOL    HW110064   6.635   2.935   6.502 -0.7963 -1.2830 -1.1340
 3055SOL    HW210065   6.707   2.801   6.442  1.6177 -1.1648  1.3043
 3056SOL     OW10066   5.006   3.032   3.785  0.2308 -0.4094 -0.1097
 3056SOL    HW110067   5.037   2.950   3.737  0.9298 -0.0677 -0.2589
 3056SOL    HW210068   5.063   3.110   3.759  0.0898 -0.0446  0.6371
 3057SOL     OW10069   6.267   3.320   2.669  0.2713 -0.1396  0.0621
 3057SOL    HW110070   6.240   3.414   2.647 -0.2792 -0.0437  1.0714
 3057SOL    HW210071   6.220   3.257   2.607 -1.0120  0.1410  0.6993
 3058SOL     OW10072   0.974   0.323   4.346  0.1770 -0.3521 -0.0635
 3058SOL    HW110073   0.902   0.391   4.329 -0.6171 -1.4908 -1.5303
 3058SOL    HW210074   1.037   0.322   4.268  1.2995  0.0248  0.8275
 3059SOL     OW10075   1.578   2.331   2.534  0.5634 -0.2806  0.1031
 3059SOL    HW110076   1.488   2.343   2.576  0.3827 -0.6801 -0.1547
 3059SOL    HW210077   1.636   2.409   2.556 -0.9780  1.8448 -2.6694
 3060SOL     OW10078   3.760   1.716   1.149  0.2238 -0.4629  0.4384
 3060SOL    HW110079   3.771   1.625   1.188  0.2239 -0.6970 -0.1030
 3060SOL    HW210080   3.744   1.782   1.222  2.7317 -0.4777  1.0684
 3061SOL     OW10081   0.380   0.664   6.298 -0.1499 -0.6076 -0.1644
 3061SOL    HW110082   0.427   0.663   6.210 -2.3513 -0.3441 -1.3909
 3061SOL    HW210083   0.405   0.582   6.350  3.6969  0.7337  0.4554
 3062SOL     OW10084   5.290   2.032   1.908 -0.0332  0.1186 -0.0949
 3062SOL    HW110085   5.259   1.938   1.914  1.7422 -0.5414 -0.5844
 3062SOL    HW210086   5.235   2.081   1.840 -1.0727 -0.5028  0.2784
 3063SOL     OW10087   0.250   6.038   1.759 -0.4317 -0.0855  0.7916
 3063SOL    HW110088   0.195   6.013   1.678  1.5057 -0.0739 -0.5874
 3063SOL    HW210089   0.298   6.124   1.741  1.8377 -1.2419  0.9993
 3064SOL     OW10090   5.883   5.079   3.097 -0.2791  0.1471 -0.6581
 3064SOL    HW110091   5.792   5.038   3.091 -0.5642  0.4854  0.8707
 3064SOL    HW210092   5.953   5.008   3.090 -0.7578 -0.5879  1.4274
 3065SOL     OW10093   4.380   1.651   3.223  0.1754 -0.1668 -0.5634
 3065SOL    HW110094   4.403   1.586   3.151 -0.5231  0.9679 -1.8903
 3065SOL    HW210095   4.324   1.606   3.292 -1.0373 -0.8040 -1.8953
 3066SOL     OW10096   1.173   6.735   4.121 -0.4923  0.1856  0.7020
 3066SOL    HW110097   1.136   6.734   4.214 -1.3876  0.3121  0.3536
 3066SOL    HW210098   1.255   6.792   4.118  0.0212 -0.4784  1.5879
 3067SOL     OW10099   6.607   0.155   6.695 -0.0297  0.4450 -0.3713
 3067SOL    HW110100   6.536   0.204   6.645  1.9300  0.5312 -3.3728
 3067SOL    HW210101   6.646   0.215   6.765 -1.5221  1.0718 -0.0331
 3068SOL     OW10102   6.312   4.315   6.937 -0.3407 -0.5333 -0.1113
 3068SOL    HW110103   6.361   4.386   6.886 -0.3820 -0.3761  0.0652
 3068SOL    HW210104   6.216   4.315   6.910 -1.1438  1.7405  2.2181
 3069SOL     OW10105   1.583   4.704   5.866 -0.2645  0.6115  0.4926
 3069SOL    HW110106   1.623   4.773   5.926  0.1401  0.8672 -0.0616
 3069SOL    HW210107   1.649   4.678   5.796 -1.6570  2.5319 -1.7006
 3070SOL     OW10108   5.337   2.891   4.846  0.4928 -0.0510 -0.3888
 3070SOL    HW110109   5.246   2.921   4.876  0.6654  0.2290 -0.1414
 3070SOL    HW210110   5.403   2.908   4.919  1.5808  3.7893 -1.9782
 3071SOL     OW10111   5.509   6.697   2.687  0.2850 -0.3755 -0.7663
 3071SOL    HW110112   5.510   6.786   2.642  1.1825 -0.0011 -0.0346
 3071SOL    HW210113   5.603   6.670   2.709 -0.1341 -0.3930  1.1758
 3072SOL     OW10114   6.274   1.785   5.947 -0.2942 -0.1773  0.1561
 3072SOL    HW110115   6.267   1.686   5.938  1.8061 -0.3555  0.0755
 3072SOL    HW210116   6.183   1.826   5.938 -1.0562 -2.0008 -0.8477
 3073SOL     OW10117   1.595   1.252   3.102 -0.0761  0.0711 -0.2542
 3073SOL    HW110118   1.690   1.282   3.094 -0.1391  0.2970 -0.1579
 3073SOL    HW210119   1.592   1.155   3.126  0.1622  0.6244  2.2891
 3074SOL     OW10120   1.953   4.692   5.211 -0.2901 -0.0298 -0.2598
 3074SOL    HW110121   1.900   4.656   5.134 -0.7057 -1.1910  0.5469
 3074SOL    HW210122   1.958   4.623   5.283  0.8754  0.6952  0.3881
 3075SOL     OW10123   6.352   0.363   5.981  0.0440 -0.1620 -0.2824
 3075SOL    HW110124   6.321   0.437   6.041  1.4911 -1.0125  1.6237
 3075SOL    HW210125   6.281   0.293   5.974 -0.0642 -0.1426  0.6068
 3076SOL     OW10126   0.177   0.457   1.223  0.3236 -0.1386  0.2258
 3076SOL    HW110127   0.107   0.516   1.183  1.0065  1.2282  0.9705
 3076SOL    HW210128   0.149   0.430   1.315  0.8474  0.6081  0.6193
 3077SOL     OW10129   5.561   5.892   2.490  0.5021 -0.3616  0.2360
 3077SOL    HW110130   5.532   5.827   2.560  2.0129 -1.5471 -0.1799
 3077SOL    HW210131   5.491   5.897   2.419  0.0626 -1.0194  0.6140
 3078SOL     OW10132   1.978   2.612   3.498 -0.0588  0.7119  0.1086
 3078SOL    HW110133   1.985   2.655   3.588  2.5459  0.0635  0.2842
 3078SOL    HW210134   1.882   2.592   3.479 -0.5896 -0.6378  3.4468
 3079SOL     OW10135   1.606   2.384   5.574 -0.4704 -0.6366  0.5251
 3079SOL    HW110136   1.614   2.320   5.497 -1.4483 -0.4997  0.2942
 3079SOL    HW210137   1.697   2.402   5.612 -0.1400 -1.8935  0.3803
 3080SOL     OW10138   5.388   2.693   2.979 -0.6767  0.2064 -0.0590
 3080SOL    HW110139   5.333   2.765   2.936  1.4819  1.2420 -1.2506
 3080SOL    HW210140   5.397   2.713   3.077  0.7985  2.2610 -0.5530
 3081SOL     OW10141   3.369   5.125   1.444  0.6477 -0.2200  0.1966
 3081SOL    HW110142   3.313   5.042   1.451 -1.0245  0.7511 -0.7985
 3081SOL    HW210143   3.320   5.202   1.486  1.3178  0.6248 -0.5208
 3082SOL     OW10144   1.983   2.925   0.908  0.2217  0.3419 -0.5488
 3082SOL    HW110145   1.969   2.931   1.007 -0.5997  1.5253 -0.7186
 3082SOL    HW210146   2.039   2.844   0.887 -0.3588 -0.4361  0.7864
 3083SOL     OW10147   2.931   6.549   6.360  0.7928  0.1751  0.0018
 3083SOL    HW110148   2.878   6.634   6.350  0.8170  0.2699  0.6182
 3083SOL    HW210149   2.881   6.473   6.318  0.7887  0.4981 -0.5947
 3084SOL     OW10150   4.477   2.714   1.412 -0.1796  0.0108 -0.4742
 3084SOL    HW110151   4.457   2.806   1.377 -1.3078 -0.7517 -1.9050
 3084SOL    HW210152   4.428   2.700   1.498  0.8780  1.1107  0.3570
 3085SOL     OW10153   6.783   2.334   5.857  0.6526 -0.6410  0.2885
 3085SOL    HW110154   6.684   2.335   5.843  0.7646 -2.3240 -0.8959
 3085SOL    HW210155   6.830   2.350   5.770  1.4274 -0.4564  0.7240
 3086SOL     OW10156   1.573   5.169   6.191  0.0626 -0.1584 -0.4642
 3086SOL    HW110157   1.563   5.247   6.129  3.2230  0.2297 -0.6384
 3086SOL    HW210158   1.575   5.201   6.286 -1.5654 -0.4196 -0.3035
 3087SOL     OW10159   1.742   3.495   4.106  0.0688 -0.0318  0.3810
 3087SOL    HW110160   1.818   3.543   4.148 -0.9123  1.3192  0.6871
 3087SOL    HW210161   1.720   3.413   4.160  0.2056  0.5085  1.2778
 3088SOL     OW10162   3.020   1.955   1.526  0.3296  0.0027  0.1177
 3088SOL    HW110163   2.940   1.969   1.585  1.6897  0.1347  2.0164
 3088SOL    HW210164   3.076   2.038   1.526  0.7219 -0.2463 -0.8414
 3089SOL     OW10165   5.889   1.678   5.890  0.5347 -0.4782 -0.3572
 3089SOL    HW110166   5.844   1.759   5.926 -0.9855 -0.4201 -2.1926
 3089SOL    HW210167   5.826   1.600   5.895  0.9750 -0.8923 -1.0587
 3090SOL     OW10168   6.506   2.431   4.498  0.6021  0.1285 -0.3207
 3090SOL    HW110169   6.590   2.476   4.465 -0.0419  1.0444 -0.7674
 3090SOL    HW210170   6.441   2.424   4.423 -1.3852  3.3873  0.8942
 3091SOL     OW10171   6.838   4.266   3.719 -0.0579 -1.0411 -0.3501
 3091SOL    HW110172   6.831   4.366   3.721 -0.0735 -1.0532  0.6042
 3091SOL    HW210173   6.842   4.231   3.813 -0.8789 -1.9917 -0.6510
 3092SOL     OW10174   5.395   1.518   6.306  0.6394 -0.6975 -0.3913
 3092SOL    HW110175   5.299   1.490   6.304  0.2268  0.5888  0.4043
 3092SOL    HW210176   5.425   1.531   6.401  1.5363 -0.8526 -0.6401
 3093SOL     OW10177   4.297   1.962   5.511  0.2622 -0.0437  0.0800
 3093SOL    HW110178   4.388   1.979   5.473  0.5256 -0.6897  0.4048
 3093SOL    HW210179   4.235   1.937   5.437  0.3859  0.2505 -0.1240
 3094SOL     OW10180   2.947   5.711   5.493  0.4896  0.1381 -0.2951
 3094SOL    HW110181   3.033   5.669   5.465 -0.6529 -1.3092 -1.8220
 3094SOL    HW210182   2.873   5.645   5.482 -1.2734  2.2638 -1.9974
 3095SOL     OW10183   3.937   2.141   3.289 -0.0964  0.2058 -0.7445
 3095SOL    HW110184   3.926   2.054   3.240  0.1890  0.8685 -2.0164
 3095SOL    HW210185   3.865   2.205   3.261 -0.2559  0.4280  0.1255
 3096SOL     OW10186   5.455   4.302   6.434 -0.4122  0.6319 -0.5671
 3096SOL    HW110187   5.373   4.307   6.490 -0.1951 -2.1380  0.1546
 3096SOL    HW210188   5.516   4.378   6.457 -1.6853  1.3315  0.6624
 3097SOL     OW10189   3.192   0.482   2.501 -0.0511  0.6186 -0.3105
 3097SOL    HW110190   3.232   0.536   2.427 -1.0586  0.6907 -0.8173
 3097SOL    HW210191   3.249   0.401   2.517  0.2317  0.6485 -1.1097
 3098SOL     OW10192   1.492   5.641   1.331 -0.4187 -0.3695  0.1149
 3098SOL    HW110193   1.569   5.578   1.325  0.8148  1.1556 -0.7857
 3098SOL    HW210194   1.488   5.680   1.423  0.7404  0.5408 -0.1981
 3099SOL     OW10195   4.941   4.209   2.255 -0.2076 -0.0134 -0.3396
 3099SOL    HW110196   4.890   4.217   2.169 -0.0598  1.0181 -0.3432
 3099SOL    HW210197   4.932   4.294   2.307  1.2814  0.0837 -0.2135
 3100SOL     OW10198   4.363   2.267   2.984  0.6210 -0.2031  0.5734
 3100SOL    HW110199   4.412   2.343   2.941  0.2292  0.9567  2.0912
 3100SOL    HW210200   4.268   2.267   2.953  1.5416 -2.8356 -2.8678
 3101SOL     OW10201   4.803   5.679   4.754  0.7197 -0.4550  0.1599
 3101SOL    HW110202   4.735   5.662   4.682 -0.1191  1.3081  0.4906
 3101SOL    HW210203   4.801   5.775   4.780  3.3990 -0.3304  0.1679
 3102SOL     OW10204   5.410   5.001   0.445 -0.2868  0.5017 -0.0977
 3102SOL    HW110205   5.381   5.002   0.350 -0.7045 -0.2053  0.0134
 3102SOL    HW210206   5.464   4.919   0.463 -1.4180 -0.1161  0.6079
 3103SOL     OW10207   3.606   4.558   1.292  0.1411  0.1939 -0.0588
 3103SOL    HW110208   3.641   4.522   1.378  1.3394  1.2071 -0.0965
 3103SOL    HW210209   3.609   4.485   1.223 -0.8839 -0.6370  0.7499
 3104SOL     OW10210   5.124   6.647   5.358 -0.1846  0.0990 -0.2240
 3104SOL    HW110211   5.036   6.621   5.397  0.2233 -0.3886  0.3959
 3104SOL    HW210212   5.119   6.741   5.324 -0.5475  0.5667  1.0638
 3105SOL     OW10213   2.500   2.030   4.775  0.1186 -0.3775  0.3810
 3105SOL    HW110214   2.547   1.991   4.854  2.4916  1.7082  0.1392
 3105SOL    HW210215   2.514   1.971   4.695 -0.8870 -1.6436  1.1057
 3106SOL     OW10216   6.246   6.904   2.049  0.5125 -0.2257 -0.1398
 3106SOL    HW110217   6.162   6.857   2.020  0.7453 -1.1097  0.5699
 3106SOL    HW210218   6.248   6.910   2.149  1.3114 -0.2385 -0.1486
 3107SOL     OW10219   3.729   2.086   3.049  0.0123 -0.1255 -0.0063
 3107SOL    HW110220   3.649   2.041   3.007  1.1775 -2.4646  0.0936
 3107SOL    HW210221   3.812   2.038   3.021  1.2093  0.9404  1.5630
 3108SOL     OW10222   5.058   6.185   1.013 -0.2569 -0.1702  0.4699
 3108SOL    HW110223   5.101   6.163   1.100  2.4915 -0.6963 -0.9223
 3108SOL    HW210224   5.002   6.268   1.023 -0.6432 -0.6730  2.8599
 3109SOL     OW10225   0.340   3.713   4.888 -0.2191  0.4859 -0.2898
 3109SOL    HW110226   0.418   3.774   4.902  0.5231 -0.2354 -1.1955
 3109SOL    HW210227   0.371   3.618   4.890 -1.2761  0.1461  0.5353
 3110SOL     OW10228   2.676   4.454   1.672  0.1048  0.3416  0.2105
 3110SOL    HW110229   2.745   4.461   1.743 -0.7868  0.7317  1.0685
 3110SOL    HW210230   2.595   4.408   1.709  0.2420 -0.9498 -1.0401
 3111SOL     OW10231   1.276   2.073   2.595  0.5398  0.2161 -0.2701
 3111SOL    HW110232   1.307   2.042   2.685 -1.6707 -0.1824  0.4254
 3111SOL    HW210233   1.271   1.994   2.533  0.7916  0.2521 -0.3346
 3112SOL     OW10234   0.137   0.554   5.815  0.5865 -0.3661 -0.2330
 3112SOL    HW110235   0.194   0.630   5.784 -0.9645  1.6270  1.4428
 3112SOL    HW210236   0.139   0.549   5.915 -0.5665 -1.5226 -0.2344
 3113SOL     OW10237   5.467   5.544   5.539 -0.0136  0.1403 -0.2295
 3113SOL    HW110238   5.454   5.447   5.561 -0.9214  0.1166 -0.8326
 3113SOL    HW210239   5.517   5.588   5.614  0.7180 -0.8648 -0.1089
 3114SOL     OW10240   3.841   2.537   0.200 -0.2187 -0.1697 -0.0031
 3114SOL    HW110241   3.858   2.597   0.122  1.4948 -0.6790 -0.0621
 3114SOL    HW210242   3.780   2.583   0.265 -0.0370  1.0705 -0.6799
 3115SOL     OW10243   1.606   2.504   0.082 -0.3738 -0.2806  0.3256
 3115SOL    HW110244   1.661   2.494   0.165  0.8280  0.5849 -0.3360
 3115SOL    HW210245   1.538   2.575   0.096 -1.0445 -1.0330  0.9939
 3116SOL     OW10246   6.732   1.189   6.544  0.2317  0.0361 -0.0157
 3116SOL    HW110247   6.806   1.255   6.560 -0.4314  1.5906 -2.9049
 3116SOL    HW210248   6.772   1.101   6.520  1.1628  0.6394 -0.7400
 3117SOL     OW10249   0.230   6.302   0.256 -0.0145  0.5883 -0.3016
 3117SOL    HW110250   0.213   6.270   0.163  0.2009  0.4521 -0.2929
 3117SOL    HW210251   0.172   6.251   0.320  0.8963 -0.3561 -0.1946
 3118SOL     OW10252   6.775   2.153   3.359  0.2815 -0.7908 -0.0433
 3118SOL    HW110253   6.740   2.166   3.266 -0.0301  0.5482  0.2396
 3118SOL    HW210254   6.875   2.161   3.358  0.2343 -0.1116 -0.1786
 3119SOL     OW10255   2.550   6.809   4.770 -0.3571  0.1218  0.1128
 3119SOL    HW110256   2.494   6.798   4.688 -1.1406  0.7011  0.5515
 3119SOL    HW210257   2.642   6.836   4.745 -0.6454  0.4863 -0.5690
 3120SOL     OW10258   6.276   6.983   4.714  0.0871  0.0612  0.5903
 3120SOL    HW110259   6.327   6.964   4.630  2.9257 -0.2029  2.2420
 3120SOL    HW210260   6.261   7.081   4.722 -0.3918  0.0686 -0.3194
 3121SOL     OW10261   0.793   0.324   1.577 -0.0874 -0.4725 -0.5550
 3121SOL    HW110262   0.778   0.359   1.485  0.4594 -0.3689 -0.6064
 3121SOL    HW210263   0.711   0.339   1.633 -0.7561 -1.3400 -1.2714
 3122SOL     OW10264   3.840   4.035   5.495  0.1929  0.2945  0.0638
 3122SOL    HW110265   3.901   4.030   5.415  1.0646  2.1931  0.5676
 3122SOL    HW210266   3.772   4.106   5.480 -1.9818 -1.7669 -0.4670
 3123SOL     OW10267   1.300   4.098   1.458  0.5201 -0.6456  0.2846
 3123SOL    HW110268   1.325   4.101   1.361  2.7152  1.4513  0.8097
 3123SOL    HW210269   1.201   4.100   1.467  0.2517 -1.2975 -1.8996
 3124SOL     OW10270   4.759   2.942   4.733 -0.5767  0.1048  0.4321
 3124SOL    HW110271   4.717   2.890   4.809  0.6477 -0.2619  0.8790
 3124SOL    HW210272   4.728   2.904   4.646  2.3811 -3.3673  0.6630
 3125SOL     OW10273   2.182   1.231   0.944 -0.3915 -0.3629  0.0487
 3125SOL    HW110274   2.224   1.321   0.927  0.7011 -1.0988 -1.3177
 3125SOL    HW210275   2.254   1.163   0.953 -1.2358 -1.6304 -2.0899
 3126SOL     OW10276   4.225   1.474   5.205  0.5103  0.2951  0.1369
 3126SOL    HW110277   4.142   1.421   5.186  1.3018 -0.8690 -0.2470
 3126SOL    HW210278   4.234   1.486   5.304 -0.4885  1.0913  0.1498
 3127SOL     OW10279   6.830   4.105   5.796  0.6508 -0.0915  0.5948
 3127SOL    HW110280   6.750   4.062   5.838  0.5125  0.6681  1.1234
 3127SOL    HW210281   6.853   4.188   5.846 -0.1873  1.4515 -1.4415
 3128SOL     OW10282   6.616   4.041   4.434  0.2790  0.4338 -0.0689
 3128SOL    HW110283   6.585   3.959   4.387 -1.9137 -0.3102  2.3921
 3128SOL    HW210284   6.545   4.112   4.426  1.1662  1.3135 -0.2976
 3129SOL     OW10285   1.393   1.367   1.878 -0.0469  0.1891  0.2687
 3129SOL    HW110286   1.313   1.346   1.822  0.9017 -0.3968 -0.9025
 3129SOL    HW210287   1.463   1.297   1.864  1.1344  1.3241  0.3689
 3130SOL     OW10288   3.418   1.125   4.923 -0.6939 -0.3585  0.1019
 3130SOL    HW110289   3.346   1.075   4.875  0.0317 -1.5766  0.2429
 3130SOL    HW210290   3.489   1.152   4.858 -0.6759 -0.2414  0.1691
 3131SOL     OW10291   0.493   6.704   1.305  0.0060  0.4614 -0.2996
 3131SOL    HW110292   0.537   6.790   1.280  0.9835  0.1518  0.2707
 3131SOL    HW210293   0.406   6.723   1.351  0.3551  1.1582  0.0916
 3132SOL     OW10294   4.103   6.668   1.039 -0.3127 -0.1193 -0.2294
 3132SOL    HW110295   4.049   6.685   1.122 -0.9558 -1.5452 -0.3182
 3132SOL    HW210296   4.041   6.656   0.962  0.2589  0.5918 -0.8064
 3133SOL     OW10297   4.171   0.289   3.483  0.0644 -0.0668 -0.4180
 3133SOL    HW110298   4.121   0.257   3.402  1.8881 -0.5416 -1.4092
 3133SOL    HW210299   4.206   0.210   3.533 -1.6806  0.1907  1.3066
 3134SOL     OW10300   1.768   2.742   0.975  0.0137  0.0780  0.2272
 3134SOL    HW110301   1.846   2.801   0.953 -1.7553  3.0441  1.4393
 3134SOL    HW210302   1.750   2.745   1.073 -0.5204 -2.1176  0.2587
 3135SOL     OW10303   5.626   2.368   3.228 -0.4522  0.2258  0.6499
 3135SOL    HW110304   5.534   2.330   3.225 -0.6965  0.8367 -0.1708
 3135SOL    HW210305   5.653   2.396   3.136  0.2564  0.7422  1.0056
 3136SOL     OW10306   4.521   3.220   6.523 -0.6947 -0.2017  0.0093
 3136SOL    HW110307   4.558   3.163   6.450 -0.6185 -0.5020  0.2776
 3136SOL    HW210308   4.536   3.175   6.611 -0.4866  0.3156  0.2400
 3137SOL     OW10309   6.420   3.860   6.562 -0.0891 -0.0641 -0.2187
 3137SOL    HW110310   6.426   3.866   6.662  0.4953 -1.5257 -0.1420
 3137SOL    HW210311   6.351   3.925   6.529  0.3744  1.1053  1.0343
 3138SOL     OW10312   4.854   3.372   5.517 -0.4068 -0.4413  0.3204
 3138SOL    HW110313   4.869   3.395   5.421 -0.6707 -1.2808  0.0716
 3138SOL    HW210314   4.774   3.422   5.551 -1.0284 -1.0397 -0.2366
 3139SOL     OW10315   2.762   5.565   4.508 -0.7440 -0.5016  0.0059
 3139SOL    HW110316   2.766   5.556   4.608 -2.5661 -0.8139  0.0845
 3139SOL    HW210317   2.741   5.477   4.468  1.6879 -0.7661 -0.8383
 3140SOL     OW10318   6.540   6.781   5.240 -0.0661 -0.0026  0.2535
 3140SOL    HW110319   6.460   6.720   5.241 -0.7034  0.8188  0.5232
 3140SOL    HW210320   6.612   6.742   5.297 -0.4353 -0.5438  0.3578
 3141SOL     OW10321   2.045   5.959   5.829 -0.0473  0.2086  0.7736
 3141SOL    HW110322   2.065   6.041   5.882 -0.3829  0.8440 -0.0520
 3141SOL    HW210323   2.101   5.959   5.745  0.4786 -0.7762  1.1054
 3142SOL     OW10324   2.192   0.350   3.937  0.7038  0.1852 -0.7645
 3142SOL    HW110325   2.128   0.273   3.942 -0.0718  0.6539 -2.4450
 3142SOL    HW210326   2.281   0.323   3.972  0.5767 -1.6436 -1.7384
 3143SOL     OW10327   1.681   4.157   1.394 -0.3704  0.0307  0.2125
 3143SOL    HW110328   1.614   4.204   1.337 -0.3795 -0.2764 -0.0321
 3143SOL    HW210329   1.747   4.223   1.430  0.1396  0.1018 -0.8376
 3144SOL     OW10330   1.872   0.499   2.476 -0.0165 -0.5622  0.1334
 3144SOL    HW110331   1.921   0.417   2.445  0.2990  0.0246 -0.9866
 3144SOL    HW210332   1.896   0.518   2.571 -0.2232 -1.8510  0.4636
 3145SOL     OW10333   5.849   3.299   6.638  0.5637  0.0756  0.2779
 3145SOL    HW110334   5.858   3.392   6.675 -2.7907  0.4397  0.4500
 3145SOL    HW210335   5.790   3.245   6.699  0.4144 -1.3974 -1.1146
 3146SOL     OW10336   1.019   2.903   0.005 -0.0499  0.0581  0.1369
 3146SOL    HW110337   1.098   2.937   0.056 -0.6817  1.0090  0.5196
 3146SOL    HW210338   1.011   2.954  -0.081 -0.6678  0.4905  0.4441
 3147SOL     OW10339   0.061   5.568   6.629 -0.6838 -0.6140  0.0678
 3147SOL    HW110340   0.086   5.553   6.533  1.0894 -0.6295  0.5015
 3147SOL    HW210341   0.072   5.665   6.651 -0.5035 -0.7109  0.4054
 3148SOL     OW10342   1.475   1.976   4.758  0.1452 -0.5446 -0.8663
 3148SOL    HW110343   1.422   1.904   4.803 -0.4931  0.0315 -0.6796
 3148SOL    HW210344   1.522   2.031   4.827  1.1380 -1.1491 -1.0364
 3149SOL     OW10345   1.676   5.191   2.891  0.7357 -0.1988 -0.2472
 3149SOL    HW110346   1.617   5.116   2.860  1.7557 -0.6357 -1.2029
 3149SOL    HW210347   1.621   5.274   2.903 -0.1718 -0.7401 -0.5566
 3150SOL     OW10348   1.786   2.557   2.296 -0.1413  0.1889  0.1508
 3150SOL    HW110349   1.880   2.579   2.319 -0.3864  0.7087  0.6861
 3150SOL    HW210350   1.784   2.497   2.216  0.6276  0.4394 -0.0637
 3151SOL     OW10351   2.599   6.984   0.520 -0.0987 -0.4827 -0.5124
 3151SOL    HW110352   2.615   7.045   0.598 -0.9024  0.5047 -1.0916
 3151SOL    HW210353   2.566   7.038   0.442  0.2612 -1.5119 -1.4020
 3152SOL     OW10354   3.442   0.354   6.061 -0.1917  0.4779  0.4000
 3152SOL    HW110355   3.346   0.343   6.084 -0.9753 -1.0428 -2.9667
 3152SOL    HW210356   3.498   0.301   6.124 -1.8543 -1.1365  0.5831
 3153SOL     OW10357   1.502   1.005   6.364 -0.0280  0.0295 -0.1428
 3153SOL    HW110358   1.514   0.916   6.409 -1.1514  0.6895  1.5605
 3153SOL    HW210359   1.575   1.067   6.393 -0.7052  0.4292  0.7656
 3154SOL     OW10360   3.577   6.246   4.298  0.3789 -0.4227 -0.8711
 3154SOL    HW110361   3.578   6.159   4.345 -3.2004 -0.0846  0.1244
 3154SOL    HW210362   3.654   6.302   4.329  0.4480 -1.7203  1.5218
 3155SOL     OW10363   2.660   0.105   6.986  0.1168 -0.1169 -0.1330
 3155SOL    HW110364   2.607   0.032   7.031 -0.8313  0.2498 -0.6191
 3155SOL    HW210365   2.600   0.155   6.924  1.0940  0.2156 -0.8270
 3156SOL     OW10366   1.598   3.160   0.347  0.0048 -0.2817  0.2534
 3156SOL    HW110367   1.675   3.207   0.390 -0.5940  1.1181 -0.1324
 3156SOL    HW210368   1.557   3.095   0.412  0.2595  0.4309  1.1440
 3157SOL     OW10369   4.792   5.736   1.545 -0.3136  0.3748  0.0060
 3157SOL    HW110370   4.804   5.680   1.626 -0.7685 -1.4748 -1.1363
 3157SOL    HW210371   4.694   5.750   1.527 -0.2142  2.1361  0.6259
 3158SOL     OW10372   0.988   4.045   4.189 -0.1667 -0.1065  0.5545
 3158SOL    HW110373   0.892   4.035   4.163 -0.1899  1.1314  0.0988
 3158SOL    HW210374   1.040   4.083   4.112  0.4527  0.3384  1.1716
 3159SOL     OW10375   3.576   1.822   0.772  0.0554 -0.2395 -0.2560
 3159SOL    HW110376   3.627   1.754   0.826  0.4243  0.9798  0.9780
 3159SOL    HW210377   3.490   1.844   0.819 -0.5381 -0.5631 -1.1553
 3160SOL     OW10378   0.969   4.460   5.038  0.1611  0.4549  0.5165
 3160SOL    HW110379   0.975   4.559   5.027 -1.3351  0.5272  0.0002
 3160SOL    HW210380   0.996   4.434   5.131  1.4343  1.2281  0.3807
 3161SOL     OW10381   5.831   1.056   2.714 -0.4874  0.1865  0.0248
 3161SOL    HW110382   5.816   1.142   2.663  0.3737  0.6579  0.5348
 3161SOL    HW210383   5.929   1.034   2.712 -0.8821 -1.7259 -1.5645
 3162SOL     OW10384   0.839   3.431   6.607  0.3532  0.1779  0.1448
 3162SOL    HW110385   0.807   3.369   6.536 -0.5276  1.4852 -0.6220
 3162SOL    HW210386   0.920   3.480   6.575  0.8347 -0.2915  0.6164
 3163SOL     OW10387   4.739   2.532   3.675 -0.2452  0.3757 -0.3831
 3163SOL    HW110388   4.675   2.496   3.742  0.3893  1.5953  0.9500
 3163SOL    HW210389   4.832   2.529   3.712  0.1025  1.2182 -1.1310
 3164SOL     OW10390   3.979   4.703   6.303  0.1162  0.6065  0.3903
 3164SOL    HW110391   3.908   4.745   6.359  0.8244  0.7695  1.1874
 3164SOL    HW210392   3.937   4.660   6.223 -0.8048  1.2453  0.5117
 3165SOL     OW10393   6.985   0.269   0.766 -0.4114  0.1466  0.1398
 3165SOL    HW110394   6.963   0.259   0.863 -1.8526 -0.0298 -0.1817
 3165SOL    HW210395   7.012   0.363   0.747 -1.1878  0.4554  0.5307
 3166SOL     OW10396   1.549   5.904   3.483  0.2253 -0.6568  0.4919
 3166SOL    HW110397   1.609   5.924   3.406  1.9168 -1.0826  1.6455
 3166SOL    HW210398   1.518   5.809   3.478  1.1420 -0.9802  0.8498
 3167SOL     OW10399   5.219   5.356   5.259 -0.0422  0.3538  0.0599
 3167SOL    HW110400   5.226   5.273   5.314 -0.1687  0.4443  0.2121
 3167SOL    HW210401   5.123   5.377   5.241 -0.0212 -1.5859 -3.1046
 3168SOL     OW10402   5.932   3.390   3.873  0.1326 -0.2538 -0.0567
 3168SOL    HW110403   5.839   3.416   3.847 -0.2391 -1.9247 -0.5026
 3168SOL    HW210404   5.929   3.318   3.942  1.0952 -0.3141 -0.0582
 3169SOL     OW10405   4.966   5.710   5.112  0.2007  0.0814  0.3826
 3169SOL    HW110406   4.874   5.746   5.095  0.4116  1.4570  1.8442
 3169SOL    HW210407   4.960   5.613   5.134 -0.6875 -0.2721 -1.2565
 3170SOL     OW10408   0.316   3.178   6.886 -0.2171  0.0632  0.6650
 3170SOL    HW110409   0.402   3.143   6.849  0.3696  0.0868  1.9402
 3170SOL    HW210410   0.334   3.262   6.938 -1.1238  0.4540  0.3621
 3171SOL     OW10411   5.278   4.674   0.349 -0.2888  0.3659  0.1043
 3171SOL    HW110412   5.354   4.732   0.320  0.1777 -0.1376  0.3057
 3171SOL    HW210413   5.297   4.635   0.439  0.2915 -1.6176 -0.8157
 3172SOL     OW10414   3.495   2.891   4.350 -0.4127  0.6152  0.0947
 3172SOL    HW110415   3.405   2.933   4.354 -1.0844 -0.7242 -0.2366
 3172SOL    HW210416   3.548   2.931   4.275 -1.8823 -0.6956 -1.7071
 3173SOL     OW10417   2.328   1.474   0.899  0.3036  0.7530 -0.0600
 3173SOL    HW110418   2.403   1.449   0.838  0.1500  0.4586 -0.1279
 3173SOL    HW210419   2.364   1.530   0.974  0.8694 -0.6160  0.7327
 3174SOL     OW10420   4.190   1.786   1.058 -0.0591  0.9888 -0.0614
 3174SOL    HW110421   4.265   1.810   0.996  0.1347 -0.0272 -0.2250
 3174SOL    HW210422   4.123   1.861   1.059 -1.3202  0.0837 -3.4053
 3175SOL     OW10423   0.257   5.065   3.227 -0.5400  0.8052  0.6061
 3175SOL    HW110424   0.336   5.124   3.240 -0.9549  1.9397 -1.5333
 3175SOL    HW210425   0.263   4.986   3.289  1.4749  1.6176  1.5188
 3176SOL     OW10426   1.909   3.468   3.679  0.4120  0.8576 -0.1304
 3176SOL    HW110427   1.896   3.547   3.619 -1.2732  0.5182 -0.2593
 3176SOL    HW210428   1.904   3.384   3.625  2.7546  0.6315 -0.0818
 3177SOL     OW10429   6.083   4.334   0.886  0.5445 -0.4981  0.1793
 3177SOL    HW110430   6.152   4.294   0.826  2.4142  0.7835  1.3752
 3177SOL    HW210431   5.995   4.290   0.869  1.5846 -2.0673 -1.5331
 3178SOL     OW10432   3.152   2.142   5.452  0.5571  0.2230 -0.1759
 3178SOL    HW110433   3.248   2.159   5.473  0.9206  0.5331 -1.9397
 3178SOL    HW210434   3.097   2.157   5.534  1.5449  4.0295  0.0022
 3179SOL     OW10435   4.426   0.065   1.740 -0.0585 -0.1743 -0.8190
 3179SOL    HW110436   4.356  -0.001   1.770  0.1750 -0.0179  0.0605
 3179SOL    HW210437   4.501   0.067   1.806  0.6888 -0.1761 -1.6487
 3180SOL     OW10438   0.293   4.203   5.409 -0.3108  0.2282 -0.0449
 3180SOL    HW110439   0.273   4.247   5.322  1.0667 -0.1234 -0.5627
 3180SOL    HW210440   0.355   4.126   5.395  0.8310  0.8255  1.3386
 3181SOL     OW10441   1.923   1.499   4.956  0.0529  0.2302  0.0149
 3181SOL    HW110442   1.936   1.500   5.055 -0.0214  0.5503  0.0214
 3181SOL    HW210443   1.834   1.540   4.934 -1.3535 -2.5668  0.0298
 3182SOL     OW10444   0.723   6.007   0.358 -0.1087  0.4294  0.1862
 3182SOL    HW110445   0.652   6.035   0.294 -1.2150 -0.9907  0.7297
 3182SOL    HW210446   0.774   6.088   0.389 -2.1606  1.6381  0.5765
 3183SOL     OW10447   5.352   5.256   0.981  0.2094  0.5885  0.1743
 3183SOL    HW110448   5.302   5.288   0.901  0.1615 -0.2424 -0.1320
 3183SOL    HW210449   5.448   5.283   0.974  0.1178  0.8752  0.0374
 3184SOL     OW10450   5.043   2.748   1.012 -0.2299 -0.0372  0.1268
 3184SOL    HW110451   5.056   2.649   1.010  0.1927  0.0290 -0.8999
 3184SOL    HW210452   5.067   2.782   1.103  0.0307 -0.8201  0.3669
 3185SOL     OW10453   0.964   7.014   2.120  0.0078 -0.3275  0.0300
 3185SOL    HW110454   0.985   7.043   2.026  0.6863 -1.0558 -0.0529
 3185SOL    HW210455   0.982   7.090   2.182 -1.1464  0.3986 -0.4934
 3186SOL     OW10456   2.646   3.014   1.434  0.1394 -0.5559  0.5194
 3186SOL    HW110457   2.697   3.078   1.492  1.2302 -2.2943  1.5837
 3186SOL    HW210458   2.706   2.938   1.409 -1.3069 -1.5179 -0.1044
 3187SOL     OW10459   5.819   5.732   4.528  0.5492 -0.1186  0.3381
 3187SOL    HW110460   5.847   5.718   4.433  1.5992  2.6633  0.1344
 3187SOL    HW210461   5.900   5.740   4.586  0.0304  1.0800  0.9402
 3188SOL     OW10462   5.528   6.924   2.002  0.1261  0.3914 -0.7862
 3188SOL    HW110463   5.440   6.934   1.955 -0.1074  1.9951 -0.0548
 3188SOL    HW210464   5.554   6.827   2.002 -0.2068  0.2135 -3.5357
 3189SOL     OW10465   0.704   4.311   1.854  0.6238  0.1773 -0.8207
 3189SOL    HW110466   0.776   4.251   1.887 -0.4879 -0.2371  0.9716
 3189SOL    HW210467   0.689   4.385   1.920 -1.8392 -0.8192 -0.1384
 3190SOL     OW10468   6.931   5.757   4.828  0.0688 -0.8629  0.2570
 3190SOL    HW110469   6.973   5.816   4.896 -0.1043 -0.2198 -0.1813
 3190SOL    HW210470   6.834   5.781   4.819 -0.1070 -1.5096  0.3849
 3191SOL     OW10471   5.136   0.196   6.075 -0.0927 -0.3771  0.1565
 3191SOL    HW110472   5.040   0.222   6.079 -0.3729 -1.5106  1.5142
 3191SOL    HW210473   5.192   0.279   6.065 -1.2617  0.1509 -4.5126
 3192SOL     OW10474   1.892   5.546   3.674 -0.3447  0.1535 -0.5017
 3192SOL    HW110475   1.855   5.539   3.582  0.5381  2.6155 -1.1239
 3192SOL    HW210476   1.889   5.641   3.704  0.9874 -0.3228  1.3296
 3193SOL     OW10477   0.308   5.167   2.715 -0.6953  0.5791  0.4351
 3193SOL    HW110478   0.285   5.073   2.692 -0.5054  0.5157  0.5063
 3193SOL    HW210479   0.308   5.223   2.631  0.3346  0.2798  0.2209
 3194SOL     OW10480   2.023   2.942   1.897  0.1718  0.5737  0.1890
 3194SOL    HW110481   2.040   2.937   1.798  1.7613  2.0005  0.3361
 3194SOL    HW210482   1.931   2.977   1.913 -0.5978 -0.9487 -0.7594
 3195SOL     OW10483   6.988   1.836   3.510  0.3626  0.1822  0.6924
 3195SOL    HW110484   6.933   1.802   3.586  1.0873  0.2861  1.2735
 3195SOL    HW210485   7.072   1.781   3.502 -0.2754 -0.6343 -0.8266
 3196SOL     OW10486   6.184   1.751   3.939  0.7470 -0.0643 -0.7805
 3196SOL    HW110487   6.123   1.798   3.875 -0.1035  1.0717  0.7912
 3196SOL    HW210488   6.278   1.776   3.920  0.4181  1.1097 -0.9148
 3197SOL     OW10489   1.168   1.758   3.552  0.7047 -0.1936 -0.2036
 3197SOL    HW110490   1.218   1.839   3.522 -0.1477  0.5085  0.2061
 3197SOL    HW210491   1.100   1.785   3.621 -0.0201 -1.1651 -0.5227
 3198SOL     OW10492   3.897   4.349   6.863 -0.3907 -0.0577  0.7358
 3198SOL    HW110493   3.948   4.402   6.795  1.2226 -0.7485  1.3490
 3198SOL    HW210494   3.851   4.273   6.818  1.2420 -0.9287  0.4374
 3199SOL     OW10495   5.388   2.961   5.722 -0.5308 -0.2661 -0.3115
 3199SOL    HW110496   5.360   2.957   5.627 -1.0592  1.3227 -0.2480
 3199SOL    HW210497   5.312   2.932   5.781 -1.6694  2.6166 -0.2152
 3200SOL     OW10498   0.212   0.538   5.191 -0.8103  0.1998  0.1641
 3200SOL    HW110499   0.295   0.534   5.136 -1.2786  0.6031 -0.5817
 3200SOL    HW210500   0.132   0.526   5.132 -1.3456  1.1389  0.6679
 3201SOL     OW10501   4.853   0.884   2.995 -0.7675  0.0167  0.8758
 3201SOL    HW110502   4.884   0.875   2.900  0.5423  0.2237  1.2673
 3201SOL    HW210503   4.771   0.828   3.008 -0.4905 -0.6714 -0.1659
 3202SOL     OW10504   2.955   0.247   2.652 -0.0956 -0.0097  0.1302
 3202SOL    HW110505   2.875   0.198   2.685 -0.0945  1.2156  2.0980
 3202SOL    HW210506   2.944   0.345   2.669  0.8401  0.4675 -1.7110
 3203SOL     OW10507   0.712   3.045   2.592  0.1348 -0.4803  0.0042
 3203SOL    HW110508   0.636   3.072   2.532 -0.8972 -0.0784  1.4356
 3203SOL    HW210509   0.769   3.125   2.612  0.8330 -0.7376 -0.8928
 3204SOL     OW10510   0.407   2.579   6.176  0.6126  0.8595 -0.0074
 3204SOL    HW110511   0.484   2.552   6.118  1.3365  0.1696  1.2251
 3204SOL    HW210512   0.380   2.502   6.234  0.3224  1.7054  1.0100
 3205SOL     OW10513   2.237   2.008   2.782  0.5767  0.4265  0.4103
 3205SOL    HW110514   2.216   1.973   2.873  2.0251  1.5412  1.2197
 3205SOL    HW210515   2.175   2.084   2.760  0.5967  0.5366  0.7292
 3206SOL     OW10516   0.833   6.340   6.663 -0.0103  0.2933  0.0743
 3206SOL    HW110517   0.816   6.370   6.757 -1.0075  0.1765 -0.0576
 3206SOL    HW210518   0.899   6.266   6.663  0.1839  0.4580  0.6649
 3207SOL     OW10519   4.838   6.794   2.218 -0.1804 -0.2063  0.0999
 3207SOL    HW110520   4.808   6.818   2.310  0.9967 -0.3694  0.5543
 3207SOL    HW210521   4.901   6.716   2.224 -0.1008 -0.2164 -0.8469
 3208SOL     OW10522   2.912   1.326   5.301  0.0560  0.3102 -0.4348
 3208SOL    HW110523   2.986   1.258   5.299 -0.4757 -0.2704 -1.6920
 3208SOL    HW210524   2.951   1.418   5.303  0.7965 -0.0088  0.1387
 3209SOL     OW10525   3.457   1.498   6.009  0.1756  0.0809  0.7387
 3209SOL    HW110526   3.364   1.532   6.023  0.3818  0.3865  1.4561
 3209SOL    HW210527   3.473   1.420   6.070  0.4149  0.0844  0.6804
 3210SOL     OW10528   1.375   1.897   0.746 -0.5805 -0.0704  0.5866
 3210SOL    HW110529   1.397   1.803   0.771 -0.8166 -0.8111 -1.7430
 3210SOL    HW210530   1.293   1.899   0.689 -1.0942  1.6597  1.3082
 3211SOL     OW10531   4.941   0.888   3.388  0.3708 -0.2730 -0.3934
 3211SOL    HW110532   5.039   0.906   3.383  0.4896 -1.0271 -0.9900
 3211SOL    HW210533   4.921   0.840   3.473  0.3014  1.0784  0.3819
 3212SOL     OW10534   0.501   5.303   2.862  0.9273 -0.3692  0.5643
 3212SOL    HW110535   0.434   5.239   2.822  1.2170 -0.0267 -0.5192
 3212SOL    HW210536   0.458   5.393   2.873  1.1812 -0.1590 -0.0954
 3213SOL     OW10537   1.742   6.555   3.040  0.1156 -0.0130  0.5432
 3213SOL    HW110538   1.827   6.531   2.994  0.1758  0.7096  0.2687
 3213SOL    HW210539   1.761   6.616   3.117 -0.1206 -0.1305  0.6963
 3214SOL     OW10540   0.588   5.509   4.611 -0.1165  0.3112 -0.1313
 3214SOL    HW110541   0.569   5.449   4.689 -1.5301 -1.2807 -1.6046
 3214SOL    HW210542   0.687   5.513   4.596  0.0517 -1.1758  0.3908
 3215SOL     OW10543   3.255   4.740   5.748 -0.2191 -0.1031  0.2410
 3215SOL    HW110544   3.284   4.835   5.751  0.5806 -0.3258 -0.3042
 3215SOL    HW210545   3.327   4.681   5.785 -0.5426 -0.5347  0.2006
 3216SOL     OW10546   6.150   5.038   3.337 -0.0343 -0.3432 -0.3463
 3216SOL    HW110547   6.093   5.021   3.417 -0.5667 -1.2310 -0.9019
 3216SOL    HW210548   6.164   4.952   3.287  2.4251 -0.3298  0.1862
 3217SOL     OW10549   3.455   3.218   0.156  0.0442 -0.0733 -0.6294
 3217SOL    HW110550   3.438   3.128   0.196 -1.9657 -0.1756 -1.5864
 3217SOL    HW210551   3.424   3.289   0.218  0.8739 -0.0581 -0.2226
 3218SOL     OW10552   2.785   3.967   0.287 -0.3863 -0.3324 -0.3537
 3218SOL    HW110553   2.859   3.916   0.243  1.7017  2.5720 -0.4910
 3218SOL    HW210554   2.722   3.999   0.217  0.7361  0.9146 -0.8356
 3219SOL     OW10555   0.777   1.216   0.416  0.0293  0.0809 -0.3619
 3219SOL    HW110556   0.707   1.155   0.378 -2.1053 -0.0451  3.3277
 3219SOL    HW210557   0.771   1.305   0.370 -0.8138 -0.6829 -1.8254
 3220SOL     OW10558   0.438   5.029   0.652 -0.4930  0.9270  0.1495
 3220SOL    HW110559   0.356   4.987   0.690  0.8167 -0.5203  1.5096
 3220SOL    HW210560   0.455   4.992   0.561 -0.6697  0.2916  0.3692
 3221SOL     OW10561   5.110   6.087   0.281  0.1658  0.1309 -0.5955
 3221SOL    HW110562   5.057   6.089   0.366  0.5571  0.2972 -0.3565
 3221SOL    HW210563   5.134   6.180   0.254 -1.4108  0.2495 -1.8098
 3222SOL     OW10564   3.560   0.813   4.286 -0.1234 -0.4457  0.1916
 3222SOL    HW110565   3.646   0.840   4.329 -0.4310 -0.4067  0.7963
 3222SOL    HW210566   3.559   0.844   4.192  0.1629  0.3321  0.4359
 3223SOL     OW10567   1.164   1.513   1.661  0.2266  0.2417 -0.2606
 3223SOL    HW110568   1.133   1.424   1.627 -0.6741  0.0095  1.0789
 3223SOL    HW210569   1.247   1.540   1.614 -0.4874 -0.4584 -1.9812
 3224SOL     OW10570   1.079   5.177   5.806  0.0339  0.3742 -0.5136
 3224SOL    HW110571   0.989   5.156   5.769  0.3887 -1.1734 -0.5533
 3224SOL    HW210572   1.143   5.104   5.782  1.0697  0.9697  0.3432
 3225SOL     OW10573   6.577   6.123   1.762  0.5048 -0.2494  0.1512
 3225SOL    HW110574   6.599   6.220   1.775  0.3676 -0.4188  1.9685
 3225SOL    HW210575   6.661   6.070   1.751  0.5835  0.0468 -0.7780
 3226SOL     OW10576   0.969   5.593   4.199  0.2643  0.7148 -0.1146
 3226SOL    HW110577   0.995   5.532   4.124  2.7792  0.3706  0.9304
 3226SOL    HW210578   1.050   5.614   4.254 -0.7865  3.8381  0.4451
 3227SOL     OW10579   6.363   4.520   6.429  0.4370  0.1360  0.1878
 3227SOL    HW110580   6.273   4.551   6.398  0.4162 -1.0323 -1.0159
 3227SOL    HW210581   6.378   4.550   6.523 -1.4375 -0.1037  0.6111
 3228SOL     OW10582   6.128   1.649   6.895  0.8801  0.1220 -0.1912
 3228SOL    HW110583   6.068   1.649   6.975  2.3590 -1.5848  0.9963
 3228SOL    HW210584   6.074   1.667   6.813 -0.8973  0.6057  1.0241
 3229SOL     OW10585   6.491   4.739   0.827  0.3868  0.3984 -0.2778
 3229SOL    HW110586   6.437   4.657   0.844  0.0932  1.1442  3.1896
 3229SOL    HW210587   6.581   4.729   0.871  0.9459  1.3503 -1.1650
 3230SOL     OW10588   1.802   6.998   0.675  0.5808  0.4782 -0.1148
 3230SOL    HW110589   1.866   6.984   0.600  0.4280  0.4931 -0.2466
 3230SOL    HW210590   1.852   6.993   0.762  0.6780 -0.0166 -0.1940
 3231SOL     OW10591   0.195   5.568   0.292  0.4416 -0.4113 -0.1824
 3231SOL    HW110592   0.140   5.530   0.217  0.3451 -0.8541  0.1018
 3231SOL    HW210593   0.160   5.658   0.317  1.2718  0.3150 -1.5134
 3232SOL     OW10594   6.015   3.701   1.003 -0.1701 -0.2648  0.1313
 3232SOL    HW110595   5.959   3.717   0.922  0.0188  1.8364  0.3734
 3232SOL    HW210596   6.104   3.664   0.976 -0.2105  0.1536 -0.5972
 3233SOL     OW10597   3.657   6.523   4.971 -0.0944  0.7102  0.7314
 3233SOL    HW110598   3.662   6.425   4.990 -0.0662  1.1197  3.1814
 3233SOL    HW210599   3.721   6.571   5.031  1.0735  2.1531 -1.5391
 3234SOL     OW10600   1.360   2.291   6.633 -0.0115  0.3781  0.3915
 3234SOL    HW110601   1.446   2.241   6.645 -0.9009 -1.5126 -0.5814
 3234SOL    HW210602   1.349   2.316   6.537 -1.2067 -0.7480  0.2082
 3235SOL     OW10603   5.845   5.112   3.376 -0.3685 -0.2273  0.2079
 3235SOL    HW110604   5.886   5.109   3.285  0.6442 -0.0269  0.6474
 3235SOL    HW210605   5.835   5.019   3.412 -0.4135 -0.2847  0.0444
 3236SOL     OW10606   3.424   2.893   2.805  0.0100  0.2772  0.0913
 3236SOL    HW110607   3.510   2.844   2.790 -0.5416 -0.5153 -0.6142
 3236SOL    HW210608   3.392   2.876   2.898  1.2772  1.6813  0.8297
 3237SOL     OW10609   2.778   5.327   6.543  0.2034 -0.2829 -0.1534
 3237SOL    HW110610   2.780   5.391   6.466  0.4725 -0.3034 -0.1638
 3237SOL    HW210611   2.853   5.262   6.534  0.4381 -0.0793  0.2995
 3238SOL     OW10612   1.405   1.034   4.994  0.0995 -0.0606 -0.1123
 3238SOL    HW110613   1.481   1.063   5.052 -0.0417  0.4967 -0.2011
 3238SOL    HW210614   1.437   1.025   4.900  0.3173 -0.9205  0.0342
 3239SOL     OW10615   4.832   4.190   6.956 -0.2882  0.0215  0.4282
 3239SOL    HW110616   4.850   4.158   6.862 -0.0818 -0.5909  0.6707
 3239SOL    HW210617   4.899   4.149   7.018 -1.0944 -0.4384  1.0119
 3240SOL     OW10618   1.767   1.938   5.222  0.2383 -0.4128 -0.2169
 3240SOL    HW110619   1.759   1.957   5.320 -1.4337  1.3688 -0.6364
 3240SOL    HW210620   1.863   1.946   5.194  0.3397  2.7779  0.6514
 3241SOL     OW10621   0.216   5.164   4.922 -1.0075 -0.1916 -0.1549
 3241SOL    HW110622   0.201   5.143   4.826  1.5000  1.6467 -1.0541
 3241SOL    HW210623   0.237   5.261   4.933 -2.7609  0.0142  2.5075
 3242SOL     OW10624   1.933   5.994   0.278  0.3928 -0.5115 -0.7389
 3242SOL    HW110625   2.021   5.964   0.239  0.8964 -0.6911  0.4941
 3242SOL    HW210626   1.859   5.945   0.233  1.0810 -2.2380 -0.1002
 3243SOL     OW10627   1.085   2.493   6.582 -0.1762  0.3140  0.0237
 3243SOL    HW110628   1.056   2.564   6.647 -1.3348  1.5074 -1.7124
 3243SOL    HW210629   1.175   2.516   6.547  0.1074  0.0885  0.5819
 3244SOL     OW10630   6.626   5.645   0.498  0.0354  0.6062  0.0986
 3244SOL    HW110631   6.634   5.742   0.479 -0.9340  0.9373  1.2543
 3244SOL    HW210632   6.594   5.597   0.416  0.9402  1.1759 -0.6014
 3245SOL     OW10633   3.384   0.542   3.256  0.6059 -0.4404 -0.5586
 3245SOL    HW110634   3.481   0.528   3.235  0.1558 -3.0779 -1.2258
 3245SOL    HW210635   3.340   0.453   3.270 -2.0505  0.5793 -1.7721
 3246SOL     OW10636   4.485   4.269   1.349 -0.1292 -0.2075 -0.1257
 3246SOL    HW110637   4.481   4.192   1.411 -1.8581 -0.6692 -0.7528
 3246SOL    HW210638   4.489   4.354   1.401 -0.5211 -0.6304  0.6017
 3247SOL     OW10639   5.722   1.122   6.021 -0.3413 -0.0285  0.2913
 3247SOL    HW110640   5.623   1.110   6.029 -0.4751 -0.4002 -1.4627
 3247SOL    HW210641   5.763   1.038   5.984  0.5032  0.4184  0.1782
 3248SOL     OW10642   6.604   3.770   0.441  0.0979 -0.7245  0.0198
 3248SOL    HW110643   6.624   3.820   0.525  2.8470 -0.0162 -0.9602
 3248SOL    HW210644   6.535   3.819   0.388 -0.5167 -0.3702  1.1241
 3249SOL     OW10645   2.889   4.598   6.565 -0.1568 -0.3467  0.3662
 3249SOL    HW110646   2.796   4.636   6.572 -0.6306 -1.5770  0.9542
 3249SOL    HW210647   2.948   4.664   6.518 -0.9148  1.1794  1.4895
 3250SOL     OW10648   3.318   1.699   4.088 -0.2611  0.1098 -0.0189
 3250SOL    HW110649   3.284   1.606   4.091  1.0079 -0.3536  0.4663
 3250SOL    HW210650   3.418   1.699   4.095 -0.1181  1.4180 -1.3737
 3251SOL     OW10651   4.954   4.384   2.741  0.0623  0.1582 -0.0311
 3251SOL    HW110652   4.999   4.458   2.692 -2.1594  1.2730 -0.5081
 3251SOL    HW210653   4.911   4.322   2.676 -0.5994  0.1186  0.4334
 3252SOL     OW10654   6.578   4.872   1.430 -0.0281 -0.0577 -0.4958
 3252SOL    HW110655   6.555   4.796   1.369 -1.7895 -0.7807  0.9972
 3252SOL    HW210656   6.582   4.839   1.524  0.4824  1.4683  0.0467
 3253SOL     OW10657   5.040   0.430   2.406  0.3877  0.9364  0.1335
 3253SOL    HW110658   5.032   0.331   2.409  1.4119  0.8615  1.0103
 3253SOL    HW210659   4.955   0.469   2.370 -0.6640 -0.1578  1.3026
 3254SOL     OW10660   4.967   1.251   5.771 -0.4866  0.0636 -0.0677
 3254SOL    HW110661   4.883   1.198   5.786  0.6061 -1.2042  1.9838
 3254SOL    HW210662   5.033   1.230   5.843  2.0492  0.1813 -2.2222
 3255SOL     OW10663   5.145   4.632   0.913  0.1695  0.2053  0.4258
 3255SOL    HW110664   5.118   4.536   0.908 -1.3953  0.6454 -0.0310
 3255SOL    HW210665   5.183   4.661   0.825  1.9618 -0.3300  0.9761
 3256SOL     OW10666   2.811   6.932   2.620 -0.2072 -0.3832 -0.5745
 3256SOL    HW110667   2.716   6.962   2.611  0.7097  2.2314 -2.8625
 3256SOL    HW210668   2.830   6.861   2.553 -0.3704 -0.4688 -0.5318
 3257SOL     OW10669   1.343   1.499   2.934 -0.4607  0.2994  0.0313
 3257SOL    HW110670   1.434   1.527   2.905 -0.6312  0.7908 -0.0312
 3257SOL    HW210671   1.299   1.447   2.860  0.0308 -0.5481  0.3201
 3258SOL     OW10672   4.952   1.301   6.452  0.1625  0.0833 -0.0465
 3258SOL    HW110673   4.859   1.301   6.488  0.2830 -0.4112  0.2797
 3258SOL    HW210674   4.967   1.218   6.398  0.5995 -0.1380  0.4060
 3259SOL     OW10675   2.602   2.424   2.671 -0.0640 -0.1788  0.6102
 3259SOL    HW110676   2.519   2.391   2.717  0.8018 -0.9490  1.6554
 3259SOL    HW210677   2.683   2.395   2.722  0.8651  0.5984 -0.3718
 3260SOL     OW10678   4.941   4.948   2.861 -0.4637 -0.5615  0.5748
 3260SOL    HW110679   5.019   4.908   2.909 -1.7783 -2.8805  0.9028
 3260SOL    HW210680   4.972   5.029   2.809  2.1976 -1.5873  0.3999
 3261SOL     OW10681   4.503   4.512   4.507 -0.1343  0.5856 -0.0213
 3261SOL    HW110682   4.558   4.538   4.586 -2.6119 -0.2330  2.1250
 3261SOL    HW210683   4.422   4.570   4.503 -2.1707 -2.0274  0.6379
 3262SOL     OW10684   0.388   2.347   2.823 -0.0248  0.2683 -0.0834
 3262SOL    HW110685   0.398   2.392   2.734 -2.4247 -1.0251 -1.0770
 3262SOL    HW210686   0.301   2.373   2.864  0.2588 -0.5397  1.0813
 3263SOL     OW10687   2.293   2.173   0.370 -0.0104 -0.1578  0.4677
 3263SOL    HW110688   2.327   2.177   0.464  1.4308 -0.0624 -0.0307
 3263SOL    HW210689   2.349   2.110   0.317  1.0072  1.8443 -1.0003
 3264SOL     OW10690   4.703   0.845   6.894  0.3780  0.1409 -0.7306
 3264SOL    HW110691   4.675   0.753   6.923  1.0662 -0.2819 -1.3704
 3264SOL    HW210692   4.636   0.912   6.926 -0.5654 -0.6768 -0.9598
 3265SOL     OW10693   5.504   1.274   6.622  0.1217  0.1559 -0.0177
 3265SOL    HW110694   5.585   1.309   6.574  1.0658 -0.1511  1.3098
 3265SOL    HW210695   5.513   1.175   6.636 -0.8009 -0.0025 -0.4221
 3266SOL     OW10696   0.455   3.533   5.371 -0.0829  0.1402 -0.5964
 3266SOL    HW110697   0.377   3.472   5.388 -1.0817  1.2582 -1.0318
 3266SOL    HW210698   0.424   3.614   5.321  0.7665  2.0718  1.8104
 3267SOL     OW10699   0.671   1.160   1.569 -0.7796  0.1831 -0.1505
 3267SOL    HW110700   0.758   1.200   1.542 -0.0767 -0.0236  1.7212
 3267SOL    HW210701   0.668   1.064   1.538  1.3478 -1.0400  2.9922
 3268SOL     OW10702   4.422   0.245   3.256  0.6034  0.1709 -0.3705
 3268SOL    HW110703   4.397   0.152   3.282  1.6425  0.4182  1.6503
 3268SOL    HW210704   4.521   0.251   3.245  0.6540  1.2583  0.5321
 3269SOL     OW10705   1.957   3.137   2.244  0.1152 -0.4579  0.3108
 3269SOL    HW110706   2.042   3.115   2.293  0.1701 -1.0562 -0.0545
 3269SOL    HW210707   1.980   3.176   2.154  0.0430  1.6958  1.1511
 3270SOL     OW10708   1.296   0.143   6.770  0.2423  0.2601 -0.7856
 3270SOL    HW110709   1.377   0.137   6.711 -0.4829 -1.8191 -1.6568
 3270SOL    HW210710   1.215   0.116   6.718 -0.2196 -3.3841  1.5041
 3271SOL     OW10711   0.521   0.493   6.772  0.0303  0.0740  0.0278
 3271SOL    HW110712   0.578   0.422   6.731 -0.7682  0.2227 -1.4277
 3271SOL    HW210713   0.503   0.471   6.868  1.1205 -0.8348  0.0356
 3272SOL     OW10714   5.711   1.760   5.259 -0.1362  0.9845  0.1741
 3272SOL    HW110715   5.779   1.750   5.332  0.7502  1.4252 -0.5757
 3272SOL    HW210716   5.727   1.845   5.209 -2.2891  1.9554  1.0257
 3273SOL     OW10717   1.174   6.701   6.328 -0.3085  0.0990  0.0040
 3273SOL    HW110718   1.171   6.706   6.229 -1.0665  0.2803  0.0308
 3273SOL    HW210719   1.131   6.616   6.359  0.9070 -0.4796  0.1322
 3274SOL     OW10720   6.308   5.909   3.784  0.0010  0.8731  0.1544
 3274SOL    HW110721   6.265   5.989   3.826  0.5594  2.2735 -1.8003
 3274SOL    HW210722   6.401   5.931   3.756 -0.6678  0.4671 -2.7921
 3275SOL     OW10723   2.370   0.523   5.297 -0.0999  0.2027  0.2834
 3275SOL    HW110724   2.428   0.578   5.358  1.0213  0.6311 -1.1168
 3275SOL    HW210725   2.278   0.519   5.335 -0.2362  3.0391  0.5102
 3276SOL     OW10726   0.876   6.912   1.010 -0.0161 -0.4909  0.5764
 3276SOL    HW110727   0.968   6.950   1.001 -0.0223 -0.2380  1.4523
 3276SOL    HW210728   0.828   6.919   0.923  0.0977  1.2433  0.6226
 3277SOL     OW10729   4.911   3.811   5.117 -0.0246  0.3423 -0.3329
 3277SOL    HW110730   4.878   3.720   5.092 -0.6330  0.6150 -0.5452
 3277SOL    HW210731   4.919   3.867   5.035  1.1718  0.2273 -0.3130
 3278SOL     OW10732   5.931   0.329   0.499  0.1886  0.2210 -0.3107
 3278SOL    HW110733   5.849   0.301   0.450 -0.8017  1.8626  0.3114
 3278SOL    HW210734   6.011   0.285   0.459 -0.8817 -0.6455 -1.5725
 3279SOL     OW10735   6.146   5.685   0.916 -0.0418 -0.6119 -0.1658
 3279SOL    HW110736   6.240   5.692   0.948  0.1093 -3.0668  0.1501
 3279SOL    HW210737   6.136   5.736   0.830  0.7379  2.1706  1.2708
 3280SOL     OW10738   5.668   2.322   3.610  0.5364 -0.0331 -0.6606
 3280SOL    HW110739   5.706   2.284   3.694 -0.0987  0.6344 -0.0667
 3280SOL    HW210740   5.577   2.283   3.594  0.9209 -0.6675 -1.4099
 3281SOL     OW10741   5.836   2.830   1.581  0.2279  0.4971 -0.5573
 3281SOL    HW110742   5.875   2.913   1.622  2.2796 -0.8139  0.2816
 3281SOL    HW210743   5.799   2.853   1.490  0.6436  2.3299 -0.3157
 3282SOL     OW10744   4.769   5.825   6.445 -0.2051  0.0820  0.1680
 3282SOL    HW110745   4.755   5.746   6.504 -1.1324 -0.3937 -0.6611
 3282SOL    HW210746   4.847   5.809   6.384 -0.2639 -0.1125  0.1441
 3283SOL     OW10747   3.740   4.534   0.845 -0.4871 -0.0559 -0.2892
 3283SOL    HW110748   3.702   4.443   0.863 -0.3103  0.2121  1.6577
 3283SOL    HW210749   3.836   4.536   0.875 -0.9741  1.2272  1.3643
 3284SOL     OW10750   3.761   3.425   0.022  0.0798  0.6373 -0.0928
 3284SOL    HW110751   3.832   3.472   0.076  0.2488  1.5130 -1.0475
 3284SOL    HW210752   3.799   3.401  -0.067  1.1894 -4.5111  1.4359
 3285SOL     OW10753   6.918   0.025   6.232 -0.3548  0.4185 -0.0059
 3285SOL    HW110754   6.951   0.118   6.215 -1.8328  0.6661 -1.7697
 3285SOL    HW210755   6.877   0.020   6.323  0.9970  1.1025  0.6619
 3286SOL     OW10756   1.104   5.400   0.291  0.0929 -0.0465  0.1314
 3286SOL    HW110757   1.085   5.377   0.387  0.3349  0.5944  0.3357
 3286SOL    HW210758   1.185   5.457   0.286 -0.5594  0.8619 -0.3520
 3287SOL     OW10759   0.673   5.201   5.401 -0.2692 -0.0873  0.3165
 3287SOL    HW110760   0.707   5.192   5.307  1.2731  2.6273  0.5269
 3287SOL    HW210761   0.573   5.211   5.399 -0.5529 -2.4028 -0.7739
 3288SOL     OW10762   6.391   0.249   4.488 -0.4031  0.4115  0.2115
 3288SOL    HW110763   6.311   0.247   4.548 -0.1303 -1.5227  0.5474
 3288SOL    HW210764   6.361   0.237   4.393 -0.6331  1.3508  0.1490
 3289SOL     OW10765   5.498   6.315   6.465 -0.5990  0.4849  0.6367
 3289SOL    HW110766   5.535   6.223   6.477  1.5966  1.2945  0.4293
 3289SOL    HW210767   5.445   6.319   6.380  0.1308 -0.3393  0.1276
 3290SOL     OW10768   3.988   4.840   3.634  0.1557 -0.1030  0.0833
 3290SOL    HW110769   3.992   4.932   3.673  0.9742 -0.4016  0.7316
 3290SOL    HW210770   3.936   4.843   3.548 -0.6193  0.7824  0.5604
 3291SOL     OW10771   2.986   0.928   5.854 -0.3734  0.3865 -0.4402
 3291SOL    HW110772   3.028   0.982   5.781 -0.7541 -0.5448 -1.3643
 3291SOL    HW210773   2.932   0.988   5.913 -2.9477  0.7332 -2.9478
 3292SOL     OW10774   6.568   5.499   3.181 -0.8831 -0.5642  0.4843
 3292SOL    HW110775   6.487   5.551   3.209 -0.5969  0.6900 -0.8783
 3292SOL    HW210776   6.546   5.402   3.178 -2.3365 -0.2491  0.1998
 3293SOL     OW10777   5.885   0.604   0.421  0.0625 -0.1878  0.6083
 3293SOL    HW110778   5.896   0.509   0.452  1.3551  0.4587  2.2709
 3293SOL    HW210779   5.956   0.626   0.354 -1.8407 -1.1268 -1.9126
 3294SOL     OW10780   4.148   4.542   0.646 -0.4447  0.3509  0.0122
 3294SOL    HW110781   4.219   4.604   0.678  1.2399 -1.0448 -0.8824
 3294SOL    HW210782   4.113   4.573   0.558 -0.0373  0.3509 -0.1477
 3295SOL     OW10783   0.536   2.306   3.289 -0.4221 -0.1780  0.0274
 3295SOL    HW110784   0.598   2.347   3.222  0.6435 -2.0276 -0.1961
 3295SOL    HW210785   0.463   2.257   3.241 -0.2639 -0.6175  0.2302
 3296SOL     OW10786   1.111   5.940   3.635  0.5527  0.1374  0.1361
 3296SOL    HW110787   1.188   6.003   3.648  1.6781 -1.0265 -0.5047
 3296SOL    HW210788   1.096   5.889   3.719 -1.7999  2.6745  1.4010
 3297SOL     OW10789   2.836   1.638   3.360  0.1541 -0.3225  0.3112
 3297SOL    HW110790   2.762   1.628   3.426 -0.2580 -1.4752 -0.3069
 3297SOL    HW210791   2.832   1.730   3.320 -1.6098 -0.7157 -0.4919
 3298SOL     OW10792   6.624   5.315   1.456  0.1555  0.3913  0.0672
 3298SOL    HW110793   6.542   5.344   1.406 -0.2297 -0.9692 -0.1124
 3298SOL    HW210794   6.598   5.254   1.530  0.9388  0.6447  0.5618
 3299SOL     OW10795   0.759   4.287   0.024  0.2986  0.6116 -0.4992
 3299SOL    HW110796   0.693   4.309   0.096  1.1814  0.5080  0.3693
 3299SOL    HW210797   0.810   4.205   0.049  1.0453  0.9222 -0.9432
 3300SOL     OW10798   2.567   5.936   0.060  0.2982 -0.1039 -0.3865
 3300SOL    HW110799   2.532   5.847   0.091  1.8930 -0.4710  0.4728
 3300SOL    HW210800   2.491   5.991   0.025 -1.2838 -0.5679  2.0193
 3301SOL     OW10801   1.659   0.204   6.473 -0.6337 -0.5049 -0.4523
 3301SOL    HW110802   1.653   0.208   6.573 -1.6751  3.2639 -0.5060
 3301SOL    HW210803   1.616   0.120   6.440  0.9084 -2.5153  2.2362
 3302SOL     OW10804   1.304   5.556   1.174 -0.1350  1.0294  0.0964
 3302SOL    HW110805   1.368   5.598   1.237  1.0112  0.1353 -0.4257
 3302SOL    HW210806   1.251   5.627   1.127 -0.8752  1.7047  1.8874
 3303SOL     OW10807   5.092   6.392   1.419 -0.4788 -0.6256  0.1393
 3303SOL    HW110808   5.158   6.347   1.360  1.6991 -1.5056  2.9991
 3303SOL    HW210809   5.127   6.481   1.448 -0.4349 -1.1203  1.7354
 3304SOL     OW10810   4.976   3.678   4.580 -0.6413 -0.6814  0.0621
 3304SOL    HW110811   4.952   3.590   4.621  0.0408  0.0492  2.1523
 3304SOL    HW210812   4.933   3.686   4.490 -2.8399 -2.0476  0.9272
 3305SOL     OW10813   6.607   4.426   1.036  0.5971 -0.0905  0.1850
 3305SOL    HW110814   6.663   4.384   1.108 -0.4555 -2.8401 -0.4594
 3305SOL    HW210815   6.511   4.417   1.060  0.2828  0.3815 -0.8466
 3306SOL     OW10816   3.348   3.261   6.159 -0.4285  0.0243 -0.2616
 3306SOL    HW110817   3.348   3.264   6.059 -0.0474 -0.5108 -0.2858
 3306SOL    HW210818   3.313   3.347   6.195 -1.1467 -0.0027 -0.8606
 3307SOL     OW10819   6.965   4.202   2.676  0.4866  0.0181 -0.6670
 3307SOL    HW110820   7.045   4.208   2.737 -1.0298  0.8875  1.3709
 3307SOL    HW210821   6.979   4.261   2.597  0.9676  1.9690  0.8065
 3308SOL     OW10822   2.436   0.708   3.818 -0.0613  0.0183 -0.3031
 3308SOL    HW110823   2.359   0.677   3.874  1.4311  0.1996  1.9488
 3308SOL    HW210824   2.504   0.635   3.811  0.2544  0.3653 -1.0031
 3309SOL     OW10825   3.507   5.625   5.470 -0.4917 -0.2414  0.1488
 3309SOL    HW110826   3.589   5.582   5.505  0.7818  1.7751 -0.2049
 3309SOL    HW210827   3.500   5.609   5.371 -0.4893 -0.3471  0.1658
 3310SOL     OW10828   5.137   0.925   4.404 -0.5199  0.2815  0.1008
 3310SOL    HW110829   5.086   0.871   4.471 -0.2164 -1.0345 -0.6909
 3310SOL    HW210830   5.077   0.996   4.366 -1.8131 -1.2024 -0.7713
 3311SOL     OW10831   5.688   4.895   6.394 -0.1478 -0.0792 -0.2090
 3311SOL    HW110832   5.662   4.814   6.342  0.3848  0.0177 -0.6351
 3311SOL    HW210833   5.654   4.887   6.488  0.2665 -0.9786 -0.1295
 3312SOL     OW10834   1.195   1.122   6.115  0.1991 -0.7677  0.0575
 3312SOL    HW110835   1.274   1.166   6.073  0.5863 -0.6235  0.9015
 3312SOL    HW210836   1.188   1.027   6.084 -0.3880 -0.2611 -1.4410
 3313SOL     OW10837   6.668   1.077   0.993  0.0434 -0.6320 -0.6135
 3313SOL    HW110838   6.722   1.014   1.049 -0.9058  0.4260  1.5573
 3313SOL    HW210839   6.711   1.168   0.994  0.1751 -0.6597 -1.8814
 3314SOL     OW10840   2.571   2.420   3.051  0.8668  0.2785 -0.0362
 3314SOL    HW110841   2.582   2.466   3.139 -0.7497 -0.0297  0.3531
 3314SOL    HW210842   2.508   2.473   2.994  2.5717  0.9581 -1.3960
 3315SOL     OW10843   3.213   1.461   4.229 -0.1442  0.2619  0.4644
 3315SOL    HW110844   3.164   1.381   4.196  0.8453  0.7062 -2.3775
 3315SOL    HW210845   3.255   1.441   4.317 -1.2169 -1.7940  0.5587
 3316SOL     OW10846   4.085   5.843   3.146  0.2154  0.2981 -0.2490
 3316SOL    HW110847   3.995   5.853   3.104 -0.1881  2.0320  0.9324
 3316SOL    HW210848   4.155   5.846   3.074 -0.4950  2.3561 -0.9138
 3317SOL     OW10849   4.723   0.949   2.070  0.3199  0.4794 -0.4201
 3317SOL    HW110850   4.768   0.995   1.994 -0.1221  2.0044  0.1871
 3317SOL    HW210851   4.635   0.913   2.040  0.8951 -0.4504 -1.0318
 3318SOL     OW10852   0.496   1.496   5.009 -0.5415 -0.1416  0.0231
 3318SOL    HW110853   0.500   1.548   4.923 -2.6200 -0.4448 -0.3140
 3318SOL    HW210854   0.570   1.429   5.010  0.0068  0.4078 -1.1657
 3319SOL     OW10855   6.639   6.367   6.397  0.3422  0.1510 -0.3085
 3319SOL    HW110856   6.705   6.292   6.388  0.8147  0.6040 -0.7306
 3319SOL    HW210857   6.678   6.450   6.357 -1.2942 -0.0389 -2.4960
 3320SOL     OW10858   1.410   1.118   2.838  0.0751 -0.1810 -0.8669
 3320SOL    HW110859   1.402   1.108   2.937 -1.5853 -0.3839 -0.9922
 3320SOL    HW210860   1.401   1.029   2.794 -2.8337  0.2729 -1.3557
 3321SOL     OW10861   0.620   3.792   6.175 -0.0031 -0.5931 -0.7087
 3321SOL    HW110862   0.622   3.881   6.129  0.2348 -0.5502 -0.6166
 3321SOL    HW210863   0.708   3.776   6.222 -0.0573 -0.8590 -0.6939
 3322SOL     OW10864   3.103   0.434   5.510 -0.0613  0.2256 -0.1963
 3322SOL    HW110865   3.080   0.338   5.495 -0.7659  0.3001  0.3411
 3322SOL    HW210866   3.154   0.468   5.432 -2.0550  0.1187 -1.6291
 3323SOL     OW10867   4.231   2.688   1.113 -0.0675 -0.1897  0.3029
 3323SOL    HW110868   4.290   2.764   1.086 -2.2621  1.2594 -0.7011
 3323SOL    HW210869   4.250   2.663   1.208  1.3682  0.9321  0.3453
 3324SOL     OW10870   4.894   3.985   5.511  0.0012 -0.1503  0.1317
 3324SOL    HW110871   4.818   4.045   5.488  0.5107  0.0613 -1.0898
 3324SOL    HW210872   4.860   3.893   5.530 -0.6131  0.0867  0.1844
 3325SOL     OW10873   5.109   5.546   6.459  0.1911 -0.4048 -0.7145
 3325SOL    HW110874   5.132   5.642   6.477  0.7386 -0.6989  0.2109
 3325SOL    HW210875   5.131   5.525   6.363  0.8445  0.1786 -0.7096
 3326SOL     OW10876   3.379   0.787   3.120 -0.2915  0.5330 -0.2864
 3326SOL    HW110877   3.381   0.693   3.154 -1.1143  0.3330 -0.7543
 3326SOL    HW210878   3.453   0.840   3.162 -0.2212 -0.1540  0.4724
 3327SOL     OW10879   7.010   0.695   4.805 -0.0018  0.7761 -0.6362
 3327SOL    HW110880   6.929   0.742   4.771 -0.7501 -0.2601 -0.3358
 3327SOL    HW210881   7.049   0.639   4.732  0.6405  1.5194 -0.8721
 3328SOL     OW10882   3.810   4.192   6.303 -0.0068  0.1668  0.3168
 3328SOL    HW110883   3.804   4.108   6.249 -2.2269  0.3475  0.1872
 3328SOL    HW210884   3.738   4.192   6.372  2.6097  0.0342  3.2509
 3329SOL     OW10885   1.325   4.915   6.770 -0.1821 -0.1926 -0.2868
 3329SOL    HW110886   1.279   4.888   6.854 -1.4998 -0.8449 -1.1792
 3329SOL    HW210887   1.317   5.014   6.757  0.3807 -0.0351  0.5504
 3330SOL     OW10888   0.992   4.997   1.266  0.2410  0.3405 -0.2143
 3330SOL    HW110889   0.894   4.987   1.248  0.5714  1.7648 -3.5797
 3330SOL    HW210890   1.009   5.081   1.317 -0.2389  0.4022 -0.1532
 3331SOL     OW10891   0.311   6.860   2.452 -0.6096  0.3151 -0.4955
 3331SOL    HW110892   0.315   6.899   2.360  0.5143  0.9095 -0.2016
 3331SOL    HW210893   0.288   6.931   2.518  0.3290  0.2589 -0.0999
 3332SOL     OW10894   3.594   1.201   5.403  0.1494 -0.2869  0.2368
 3332SOL    HW110895   3.514   1.255   5.427 -1.2490 -1.6579 -1.1182
 3332SOL    HW210896   3.623   1.223   5.310  0.2252 -1.0521  0.0680
 3333SOL     OW10897   5.832   3.479   5.264  0.1751 -0.0468 -0.2072
 3333SOL    HW110898   5.930   3.501   5.260  0.2597 -0.3984 -0.1388
 3333SOL    HW210899   5.784   3.551   5.313  0.3692  0.2321 -0.4242
 3334SOL     OW10900   5.897   1.989   1.305  0.2223 -0.0236  0.4634
 3334SOL    HW110901   5.899   1.971   1.207 -0.6354 -1.0210  0.6124
 3334SOL    HW210902   5.898   1.902   1.355 -0.4219  0.4422  1.3120
 3335SOL     OW10903   0.777   3.238   5.606  0.0157  0.1540  0.0395
 3335SOL    HW110904   0.850   3.199   5.663  2.6804  1.2722 -2.3866
 3335SOL    HW210905   0.751   3.327   5.643 -0.2887 -0.3188  1.0114
 3336SOL     OW10906   6.786   5.730   5.092  0.3096 -0.3772  0.2358
 3336SOL    HW110907   6.830   5.820   5.090 -2.1392  0.9794  2.1698
 3336SOL    HW210908   6.849   5.664   5.134  0.9998  1.2284  1.9026
 3337SOL     OW10909   6.969   1.359   4.838 -0.9563 -0.3716  0.2516
 3337SOL    HW110910   6.950   1.295   4.764 -1.9257 -1.0260  1.0393
 3337SOL    HW210911   7.068   1.371   4.848 -0.8069 -0.3659 -1.0439
 3338SOL     OW10912   6.166   5.355   6.620 -0.2454  0.1709 -0.2336
 3338SOL    HW110913   6.182   5.373   6.717  1.4391  2.0176 -0.7827
 3338SOL    HW210914   6.234   5.290   6.586  0.0463  0.6113 -0.4892
 3339SOL     OW10915   2.514   2.307   4.657  0.3194  0.1119 -1.0460
 3339SOL    HW110916   2.483   2.218   4.691  1.8353  0.2960  1.0053
 3339SOL    HW210917   2.440   2.349   4.603 -1.7500 -0.8612  0.8552
 3340SOL     OW10918   0.509   6.708   3.672  0.6820  0.3330 -0.0074
 3340SOL    HW110919   0.525   6.780   3.740  0.9840  0.8291 -0.5929
 3340SOL    HW210920   0.563   6.728   3.590 -1.9395  1.3697 -1.5877
 3341SOL     OW10921   2.173   6.321   3.423 -0.1497  0.2468  0.2882
 3341SOL    HW110922   2.073   6.325   3.426 -0.1335  0.1119  1.2629
 3341SOL    HW210923   2.203   6.227   3.408 -0.1734  0.3247 -0.2443
 3342SOL     OW10924   1.521   3.685   5.100  0.3821 -0.0123  0.0862
 3342SOL    HW110925   1.569   3.766   5.135 -0.3273  0.4305  0.0621
 3342SOL    HW210926   1.484   3.705   5.009 -0.5057 -0.0685  0.4167
 3343SOL     OW10927   2.002   1.160   5.263 -0.5924 -0.1424 -0.3887
 3343SOL    HW110928   1.932   1.209   5.212  0.9193  0.9873 -1.4629
 3343SOL    HW210929   1.985   1.062   5.259 -1.7770  0.0847 -1.1053
 3344SOL     OW10930   2.501   3.433   7.014  0.7519  0.2991 -1.1088
 3344SOL    HW110931   2.531   3.514   6.963 -0.4342  1.3676 -0.1602
 3344SOL    HW210932   2.510   3.449   7.112 -1.4701  0.1232 -0.8241
 3345SOL     OW10933   2.117   5.973   1.752 -0.2825  0.0667 -0.1703
 3345SOL    HW110934   2.128   6.007   1.658 -0.5875  0.5025 -0.0505
 3345SOL    HW210935   2.195   6.003   1.807  0.9415 -1.8902 -0.7588
 3346SOL     OW10936   5.338   2.287   4.268 -0.0311 -0.1319 -0.2965
 3346SOL    HW110937   5.281   2.335   4.201  0.1752 -0.6065 -0.8222
 3346SOL    HW210938   5.424   2.259   4.225 -0.1854 -1.0392 -0.0258
 3347SOL     OW10939   6.035   1.005   4.987  0.1702  0.9123 -0.9016
 3347SOL    HW110940   6.072   0.931   4.929  1.0354  0.6235 -0.0094
 3347SOL    HW210941   5.985   1.070   4.930  0.8520  0.5398 -1.9533
 3348SOL     OW10942   2.935   4.801   4.879  0.6353 -0.2212  0.8661
 3348SOL    HW110943   2.863   4.748   4.924  0.1547  1.4062  2.1179
 3348SOL    HW210944   2.917   4.804   4.781 -1.6919  1.0522  1.2501
 3349SOL     OW10945   1.118   4.197   2.562 -0.4082  0.2870 -0.1568
 3349SOL    HW110946   1.144   4.176   2.468  0.2236 -0.1796  0.1171
 3349SOL    HW210947   1.185   4.158   2.625 -0.6938  0.8004  0.4808
 3350SOL     OW10948   4.835   6.455   2.046 -0.5569  0.1861 -0.2759
 3350SOL    HW110949   4.753   6.486   2.094 -2.8461 -3.8788 -1.0810
 3350SOL    HW210950   4.887   6.393   2.104  0.1091  0.0885 -0.9589
 3351SOL     OW10951   2.373   1.977   5.399 -0.0770 -0.6034 -0.4148
 3351SOL    HW110952   2.466   1.973   5.363  0.1882 -1.6997  0.3567
 3351SOL    HW210953   2.375   1.966   5.499 -0.9056  1.0454 -0.1736
 3352SOL     OW10954   6.161   2.962   1.980 -0.2213  0.3289  0.3689
 3352SOL    HW110955   6.237   2.906   1.947 -1.7405 -0.5890 -1.8455
 3352SOL    HW210956   6.112   2.913   2.052 -0.4750 -0.4794 -0.3246
 3353SOL     OW10957   2.269   5.065   3.733 -0.2636  0.1776  0.2701
 3353SOL    HW110958   2.351   5.065   3.676 -1.8042  0.5678 -2.0397
 3353SOL    HW210959   2.243   5.159   3.756 -0.7546  0.1262 -0.0592
 3354SOL     OW10960   1.173   0.691   2.033 -0.1957  0.0866 -1.1035
 3354SOL    HW110961   1.223   0.747   2.099 -0.5120  0.1133 -0.8830
 3354SOL    HW210962   1.231   0.671   1.955  0.6487 -1.0967 -0.2009
 3355SOL     OW10963   5.637   5.704   6.325  0.6041  0.4213  0.0693
 3355SOL    HW110964   5.559   5.649   6.355  0.3517  0.5399 -0.3604
 3355SOL    HW210965   5.664   5.766   6.399 -1.5441  2.4481 -0.7005
 3356SOL     OW10966   4.035   3.640   0.867  0.1568  0.3366 -0.3562
 3356SOL    HW110967   4.074   3.669   0.779 -1.0270  1.3404 -0.5633
 3356SOL    HW210968   3.937   3.656   0.867  0.4372  2.5386  2.0077
 3357SOL     OW10969   6.405   0.852   4.149  0.1027 -0.0466  0.2508
 3357SOL    HW110970   6.467   0.774   4.152 -1.0124 -0.9396  1.7079
 3357SOL    HW210971   6.319   0.827   4.194 -0.3482  1.9674  0.5871
 3358SOL     OW10972   3.409   3.217   0.990 -0.3465 -0.4970 -0.0976
 3358SOL    HW110973   3.327   3.162   1.007 -0.1578 -0.3504  1.3801
 3358SOL    HW210974   3.417   3.288   1.060  1.3998 -0.9444  0.1968
 3359SOL     OW10975   3.929   5.809   2.341 -0.4770 -0.2834  0.5737
 3359SOL    HW110976   3.939   5.841   2.247  3.0177  0.4576  1.0768
 3359SOL    HW210977   3.868   5.871   2.391  0.0895  1.1171 -0.4265
 3360SOL     OW10978   4.376   4.704   4.771  0.4386  0.6621 -0.1533
 3360SOL    HW110979   4.389   4.636   4.844 -1.4357  1.6698  1.2137
 3360SOL    HW210980   4.448   4.693   4.702  1.9805 -0.6907  1.5551
 3361SOL     OW10981   1.251   6.082   2.753 -0.3226  0.4220 -0.0903
 3361SOL    HW110982   1.266   6.180   2.752 -3.1537  0.9373 -0.1801
 3361SOL    HW210983   1.279   6.044   2.841 -0.1429  1.4687  0.3086
 3362SOL     OW10984   5.779   3.122   1.233 -0.2905 -0.7592 -0.0077
 3362SOL    HW110985   5.748   3.112   1.138 -0.8906 -0.7219  0.1803
 3362SOL    HW210986   5.816   3.035   1.265  1.5343 -0.3410 -0.8263
 3363SOL     OW10987   2.453   4.639   5.799  0.6733 -0.2603 -0.0879
 3363SOL    HW110988   2.430   4.546   5.829 -0.8997 -0.2180 -1.0845
 3363SOL    HW210989   2.382   4.702   5.829  0.5891  0.2481 -1.3024
 3364SOL     OW10990   5.961   3.259   3.462 -0.0454  0.7213  0.5902
 3364SOL    HW110991   5.936   3.174   3.509  1.5202  1.2982  2.6207
 3364SOL    HW210992   5.905   3.270   3.380  0.6139 -2.9274 -0.5116
 3365SOL     OW10993   6.690   1.502   0.209  0.4082 -0.1980 -0.3110
 3365SOL    HW110994   6.671   1.414   0.252  1.9415 -0.3068  0.2279
 3365SOL    HW210995   6.658   1.576   0.268 -0.4672 -0.3804 -0.5490
 3366SOL     OW10996   1.919   0.959   3.659  0.6569 -0.0303  0.0852
 3366SOL    HW110997   1.949   1.047   3.697  2.0143 -0.5791  0.3395
 3366SOL    HW210998   1.875   0.905   3.730 -0.1654  0.4150 -0.0674
 3367SOL     OW10999   2.201   4.934   4.574 -0.2196 -0.1629 -0.3119
 3367SOL    HW111000   2.131   4.880   4.620  0.8632 -0.4834  1.0533
 3367SOL    HW211001   2.291   4.904   4.604  0.4454  1.9530  0.0124
 3368SOL     OW11002   4.061   1.050   3.488  0.7370 -0.1392  0.2781
 3368SOL    HW111003   4.000   1.077   3.562  4.0964  0.9748  2.9065
 3368SOL    HW211004   4.056   1.118   3.415 -1.1125 -0.1041  0.3882
 3369SOL     OW11005   3.919   1.599   3.569  0.7149 -0.2367 -0.8504
 3369SOL    HW111006   3.864   1.535   3.622  0.4952  0.4204 -0.2721
 3369SOL    HW211007   3.979   1.650   3.630  1.2873 -0.2728 -1.3706
 3370SOL     OW11008   0.317   2.661   5.376 -0.1742 -0.6288  0.0748
 3370SOL    HW111009   0.407   2.676   5.416 -0.2702 -0.8775  0.3948
 3370SOL    HW211010   0.253   2.728   5.412  0.0700  0.0977 -0.8122
 3371SOL     OW11011   1.762   4.699   4.285  0.1017 -0.2944 -0.1682
 3371SOL    HW111012   1.741   4.779   4.228  0.3262 -0.0538  0.0880
 3371SOL    HW211013   1.694   4.628   4.268 -1.1641  0.6142  0.9295
 3372SOL     OW11014   2.033   1.073   4.904  0.6101 -0.1404 -0.3012
 3372SOL    HW111015   2.120   1.055   4.950  1.2873  0.3194 -1.3755
 3372SOL    HW211016   2.034   1.034   4.812 -0.7039 -0.9854  0.0218
 3373SOL     OW11017   2.403   0.064   4.173 -0.1381  0.2748 -0.2005
 3373SOL    HW111018   2.490   0.090   4.132 -0.4469  1.1533 -0.3364
 3373SOL    HW211019   2.383   0.127   4.249 -2.1882  2.2388 -2.2147
 3374SOL     OW11020   1.833   3.677   0.902  0.0746  0.0121 -0.3307
 3374SOL    HW111021   1.802   3.584   0.881  1.7309 -1.3215  2.5493
 3374SOL    HW211022   1.905   3.703   0.838  0.7621 -1.3955 -0.1711
 3375SOL     OW11023   4.770   2.810   5.365  0.3947 -0.2179  0.1181
 3375SOL    HW111024   4.851   2.842   5.316  1.0872 -1.9333  0.1038
 3375SOL    HW211025   4.693   2.803   5.302  0.6878 -0.2581 -0.2361
 3376SOL     OW11026   3.139   2.910   0.587 -0.3443  0.1688  0.1237
 3376SOL    HW111027   3.087   2.988   0.553  0.1789  0.4848  0.0234
 3376SOL    HW211028   3.133   2.835   0.522 -2.0777 -0.4236  0.9211
 3377SOL     OW11029   1.209   3.584   0.646  0.8047 -0.5052 -0.4862
 3377SOL    HW111030   1.144   3.535   0.703 -0.1480  0.8757 -0.3555
 3377SOL    HW211031   1.291   3.606   0.699  0.4495 -0.3270 -0.0085
 3378SOL     OW11032   1.328   3.959   5.127  0.2230 -0.1265 -0.5456
 3378SOL    HW111033   1.288   4.026   5.063  1.0386 -0.7023 -1.7042
 3378SOL    HW211034   1.260   3.888   5.147 -0.0179  0.0135 -0.8486
 3379SOL     OW11035   4.665   3.170   1.277 -0.1538 -0.0255  0.2456
 3379SOL    HW111036   4.605   3.094   1.252  1.5908 -1.5198  0.3282
 3379SOL    HW211037   4.639   3.252   1.226 -2.5356 -0.4568  0.6718
 3380SOL     OW11038   6.078   0.928   2.779 -0.2332  0.0122 -0.1930
 3380SOL    HW111039   6.096   0.831   2.762 -2.4516 -0.2918 -1.1491
 3380SOL    HW211040   6.151   0.983   2.739 -0.3704 -1.1674 -2.2109
 3381SOL     OW11041   0.089   2.859   5.123  0.2258  0.1910 -0.1136
 3381SOL    HW111042   0.021   2.808   5.175  0.6123 -0.4043 -0.1864
 3381SOL    HW211043   0.056   2.953   5.109 -0.4765 -0.0245  0.0415
 3382SOL     OW11044   2.681   6.242   6.676 -0.1129  0.4256 -0.5869
 3382SOL    HW111045   2.734   6.178   6.732  1.1046 -1.4902 -3.6502
 3382SOL    HW211046   2.584   6.234   6.699  0.1755 -1.4416  0.2051
 3383SOL     OW11047   6.911   0.631   2.889  0.6513 -0.1134  0.1531
 3383SOL    HW111048   6.939   0.727   2.877  1.6216 -0.3991  0.0460
 3383SOL    HW211049   6.991   0.577   2.915 -0.2092 -0.6048  1.8973
 3384SOL     OW11050   5.634   5.580   5.759  0.0734 -0.0726  0.6493
 3384SOL    HW111051   5.634   5.675   5.792 -0.8116  0.3037 -0.3711
 3384SOL    HW211052   5.722   5.559   5.718  0.1372  0.4464  0.5107
 3385SOL     OW11053   0.371   1.279   6.336 -0.3780  0.0870  0.6406
 3385SOL    HW111054   0.433   1.330   6.276 -0.4020  0.3625  0.8486
 3385SOL    HW211055   0.372   1.183   6.310 -0.5947  0.2438  0.0115
 3386SOL     OW11056   5.046   1.774   0.477  0.1102 -0.5033  0.8125
 3386SOL    HW111057   5.007   1.865   0.466  0.3772 -0.3554  1.0598
 3386SOL    HW211058   4.985   1.718   0.534 -0.5090 -0.7815 -0.0976
 3387SOL     OW11059   0.638   5.505   6.430 -0.4808  0.8241  0.3361
 3387SOL    HW111060   0.672   5.465   6.516  0.7919  0.0317 -0.5093
 3387SOL    HW211061   0.618   5.432   6.365 -2.8551  1.3392  0.4237
 3388SOL     OW11062   3.953   6.512   5.785  0.6492  0.5350 -0.3657
 3388SOL    HW111063   4.052   6.501   5.770  0.3445  0.7475 -3.1240
 3388SOL    HW211064   3.917   6.431   5.830  1.8544 -0.2122 -0.6874
 3389SOL     OW11065   4.468   2.273   1.824 -0.2172  0.3056  0.7027
 3389SOL    HW111066   4.397   2.341   1.807  1.5341  1.5205 -2.6672
 3389SOL    HW211067   4.426   2.183   1.832 -2.2104  1.1091  0.0306
 3390SOL     OW11068   4.882   4.184   6.462 -0.2700 -0.0591 -0.1380
 3390SOL    HW111069   4.892   4.093   6.422  1.3659  0.5513 -1.2106
 3390SOL    HW211070   4.839   4.245   6.395 -1.5373 -0.0654  0.6450
 3391SOL     OW11071   4.953   0.206   3.622  0.3673  0.9160 -0.0339
 3391SOL    HW111072   5.026   0.140   3.601 -0.4041  0.0820 -0.1888
 3391SOL    HW211073   4.934   0.204   3.720 -0.7221 -0.2788 -0.2402
 3392SOL     OW11074   0.032   2.308   0.644  0.9009 -0.4833 -0.1943
 3392SOL    HW111075  -0.066   2.290   0.644  0.8204 -0.1717  1.3947
 3392SOL    HW211076   0.057   2.356   0.728  2.1667  0.8504 -1.2848
 3393SOL     OW11077   1.978   6.074   4.551 -0.1809 -0.0902 -0.0416
 3393SOL    HW111078   2.032   6.028   4.480 -2.4661  0.5241 -2.3562
 3393SOL    HW211079   1.927   6.007   4.604  0.3636 -0.4842 -0.0125
 3394SOL     OW11080   5.720   2.543   4.575 -0.4597  0.4799  0.0069
 3394SOL    HW111081   5.625   2.517   4.558  0.0872 -1.2976 -0.5692
 3394SOL    HW211082   5.764   2.568   4.489 -0.2493  0.7358  0.1865
 3395SOL     OW11083   2.139   3.619   4.380 -0.2739 -0.6472 -0.5608
 3395SOL    HW111084   2.154   3.547   4.448 -0.3136 -2.6119 -2.5262
 3395SOL    HW211085   2.162   3.707   4.420  1.8406 -1.9312  1.2999
 3396SOL     OW11086   0.681   0.415   1.326  0.3620  0.1629 -0.9069
 3396SOL    HW111087   0.682   0.329   1.274 -1.4677 -0.0467 -0.6462
 3396SOL    HW211088   0.587   0.446   1.337  0.9167  1.5944  0.0399
 3397SOL     OW11089   0.669   3.281   4.772  0.4284 -0.2591  0.3327
 3397SOL    HW111090   0.727   3.359   4.795 -1.1811  1.1652 -0.1893
 3397SOL    HW211091   0.644   3.285   4.675 -1.7318  0.0610  0.8438
 3398SOL     OW11092   4.298   6.311   0.960  0.2557  0.2083  0.7719
 3398SOL    HW111093   4.354   6.265   0.891  1.4012  0.3639  1.5653
 3398SOL    HW211094   4.356   6.370   1.016 -0.8430  0.9923  1.1237
 3399SOL     OW11095   5.704   4.159   3.264 -0.0625  0.3756 -0.3724
 3399SOL    HW111096   5.606   4.174   3.275 -0.5549 -2.8808  0.8860
 3399SOL    HW211097   5.720   4.092   3.192  1.2485  0.8810 -0.5808
 3400SOL     OW11098   3.601   6.931   5.675  0.5185  0.1997  0.3113
 3400SOL    HW111099   3.565   6.838   5.681  1.3835 -0.3010 -1.5753
 3400SOL    HW211100   3.559   6.979   5.598  0.3258  1.2886  1.0600
 3401SOL     OW11101   5.884   0.561   4.529  0.2324  0.2202 -0.6471
 3401SOL    HW111102   5.807   0.620   4.553  0.7507  0.3219  0.8890
 3401SOL    HW211103   5.850   0.477   4.487 -0.7676  0.1032  0.3440
 3402SOL     OW11104   4.672   0.577   6.924  0.6758 -0.0080 -0.1732
 3402SOL    HW111105   4.576   0.558   6.945  0.2305 -0.3237 -2.3456
 3402SOL    HW211106   4.711   0.499   6.875  1.2336  1.2378 -1.7743
 3403SOL     OW11107   5.545   6.494   3.979 -0.1317 -0.6397  0.0070
 3403SOL    HW111108   5.536   6.394   3.970 -0.7008 -0.5862 -0.0409
 3403SOL    HW211109   5.480   6.527   4.047  1.4149 -0.5362  1.5097
 3404SOL     OW11110   1.038   6.076   1.539  0.0824 -0.2568  0.3093
 3404SOL    HW111111   0.999   5.991   1.502  0.0181 -0.6353  1.2282
 3404SOL    HW211112   1.030   6.148   1.470  1.9162 -1.4534 -1.2477
 3405SOL     OW11113   4.118   5.873   0.271  0.2190  0.2431  0.1634
 3405SOL    HW111114   4.215   5.896   0.278  0.5045 -1.2305  1.6574
 3405SOL    HW211115   4.100   5.789   0.322 -1.4511 -0.7304 -1.8847
 3406SOL     OW11116   6.723   0.047   6.467 -0.1386 -0.1933  0.7698
 3406SOL    HW111117   6.699   0.110   6.393  0.1286 -1.0802 -0.0946
 3406SOL    HW211118   6.689   0.083   6.554  1.2852  1.8797  0.5261
 3407SOL     OW11119   6.165   5.583   1.599 -0.1819 -0.1614  0.1972
 3407SOL    HW111120   6.101   5.549   1.530  1.5042  0.3821 -1.7415
 3407SOL    HW211121   6.218   5.659   1.560  1.5653 -0.5226  1.7621
 3408SOL     OW11122   4.694   2.220   5.212 -0.4087 -0.1293 -0.2675
 3408SOL    HW111123   4.655   2.258   5.296 -0.4695 -0.7581 -0.0084
 3408SOL    HW211124   4.636   2.246   5.134 -0.8523 -0.2982  0.0006
 3409SOL     OW11125   2.959   2.436   6.696  0.1651 -0.2946  0.2572
 3409SOL    HW111126   2.955   2.369   6.622 -1.0860 -2.0015  1.7715
 3409SOL    HW211127   2.986   2.391   6.781  0.0227  1.2778  1.1885
 3410SOL     OW11128   3.357   5.827   5.532  0.0314 -0.6321 -0.4672
 3410SOL    HW111129   3.426   5.755   5.524 -0.2111 -1.2480  2.0068
 3410SOL    HW211130   3.317   5.824   5.624 -1.2928  1.5202 -0.9064
 3411SOL     OW11131   5.109   4.692   2.985 -0.2478 -0.3154  0.0591
 3411SOL    HW111132   5.140   4.747   2.908 -1.2966  0.6952  0.3328
 3411SOL    HW211133   5.125   4.595   2.966  1.7574  0.0583 -0.3710
 3412SOL     OW11134   3.797   2.383   0.925 -0.7591  0.3569 -0.1222
 3412SOL    HW111135   3.781   2.467   0.873 -1.4982 -0.3229 -1.0204
 3412SOL    HW211136   3.777   2.304   0.868  1.3298 -0.4834  0.2218
 3413SOL     OW11137   3.622   2.918   1.493  0.7531 -0.7791 -0.5872
 3413SOL    HW111138   3.685   2.849   1.458 -1.7908 -2.3156 -2.5231
 3413SOL    HW211139   3.571   2.959   1.417 -0.1414  0.8627  0.8196
 3414SOL     OW11140   5.603   1.068   3.956  0.0333  0.4286  0.1344
 3414SOL    HW111141   5.561   1.128   3.888 -0.9265 -0.1648  0.1816
 3414SOL    HW211142   5.586   0.973   3.931 -0.8888  0.1994  1.5170
 3415SOL     OW11143   0.532   0.729   3.954 -0.6632  0.6024  0.0537
 3415SOL    HW111144   0.490   0.642   3.978 -0.0476  0.7235  1.7116
 3415SOL    HW211145   0.586   0.762   4.031  3.1461  0.0701 -2.0765
 3416SOL     OW11146   6.362   5.578   5.674  0.0687 -0.3178 -0.3749
 3416SOL    HW111147   6.437   5.545   5.732  1.1200  0.9235 -0.9532
 3416SOL    HW211148   6.385   5.564   5.578  0.0019  0.9219 -0.5913
 3417SOL     OW11149   5.250   1.099   5.686  1.1334  0.1471 -0.6555
 3417SOL    HW111150   5.275   1.188   5.649  2.3087 -0.3360 -1.0651
 3417SOL    HW211151   5.325   1.034   5.672  1.3872 -0.2491  1.9966
 3418SOL     OW11152   0.595   6.112   0.910  0.1310  0.0002  0.1671
 3418SOL    HW111153   0.609   6.023   0.954  0.8937  0.7198  1.4589
 3418SOL    HW211154   0.683   6.159   0.901 -0.2482  0.5914 -0.6002
 3419SOL     OW11155   0.537   2.950   5.300  0.2738  0.0384  0.3414
 3419SOL    HW111156   0.476   2.965   5.223  0.7535  0.7970  0.0942
 3419SOL    HW211157   0.494   2.983   5.384  0.7554  1.5729  0.0065
 3420SOL     OW11158   6.369   1.468   1.634 -0.1251  0.0421  0.3361
 3420SOL    HW111159   6.400   1.563   1.629 -1.2876  0.5810  2.3378
 3420SOL    HW211160   6.434   1.414   1.688 -0.9025  0.3977  1.6649
 3421SOL     OW11161   6.174   6.876   2.825  0.1713  0.1926  0.5712
 3421SOL    HW111162   6.229   6.951   2.862  0.4237  0.3000 -0.0163
 3421SOL    HW211163   6.086   6.874   2.872 -0.1966  1.4390 -0.0333
 3422SOL     OW11164   5.877   2.783   6.623  0.1491  0.1738  0.1063
 3422SOL    HW111165   5.870   2.815   6.717 -1.0821 -0.6310  0.3077
 3422SOL    HW211166   5.790   2.742   6.594 -0.1096  2.0189 -2.0032
 3423SOL     OW11167   4.461   0.615   6.183  0.2718 -0.5324  0.5828
 3423SOL    HW111168   4.406   0.577   6.109  0.9346  0.3693 -0.4069
 3423SOL    HW211169   4.523   0.684   6.146 -1.4073  2.1290  2.3544
 3424SOL     OW11170   1.978   0.554   2.745  0.7668  0.1231 -0.3288
 3424SOL    HW111171   1.982   0.539   2.844 -1.7218  1.2291  0.0097
 3424SOL    HW211172   1.966   0.651   2.727  0.1416 -0.1858 -1.6603
 3425SOL     OW11173   5.960   0.483   2.249 -0.0978 -0.1766  0.9594
 3425SOL    HW111174   6.050   0.469   2.208 -0.2367  1.9409 -0.1637
 3425SOL    HW211175   5.971   0.500   2.347  0.9402  1.8300  0.5419
 3426SOL     OW11176   4.497   6.701   1.226 -0.2744  0.3039  0.0622
 3426SOL    HW111177   4.592   6.685   1.201  0.0097  1.5216  0.3148
 3426SOL    HW211178   4.487   6.701   1.325 -0.0279  2.6951  0.1447
 3427SOL     OW11179   2.421   2.387   6.241  0.0149 -0.1293  0.1929
 3427SOL    HW111180   2.321   2.397   6.235 -0.1837 -2.1349 -0.4659
 3427SOL    HW211181   2.452   2.418   6.330 -1.2576  0.0943  0.5802
 3428SOL     OW11182   4.163   0.777   6.522 -0.3294  0.2551  0.0569
 3428SOL    HW111183   4.144   0.831   6.440 -2.2699 -0.1235  0.1941
 3428SOL    HW211184   4.107   0.811   6.598  3.2990  2.2921  2.0514
 3429SOL     OW11185   2.639   6.266   5.741  0.0115 -0.0430  0.5174
 3429SOL    HW111186   2.588   6.267   5.826 -0.8665 -0.0708  0.0035
 3429SOL    HW211187   2.594   6.325   5.674  0.3558 -0.4897 -0.1204
 3430SOL     OW11188   5.120   3.588   3.993  0.2270 -0.0023 -0.0247
 3430SOL    HW111189   5.195   3.525   4.012  0.0638 -0.6218 -1.3373
 3430SOL    HW211190   5.134   3.672   4.045  1.4392 -0.3965  0.3291
 3431SOL     OW11191   2.941   1.934   2.545 -1.1126  0.0814  0.2072
 3431SOL    HW111192   3.029   1.894   2.519 -1.1164  0.8857 -1.1585
 3431SOL    HW211193   2.906   1.888   2.626 -0.7960 -2.2246 -0.8744
 3432SOL     OW11194   4.319   0.118   4.075 -0.1172 -0.2748  0.2017
 3432SOL    HW111195   4.414   0.114   4.045 -0.1531  0.5895 -0.0584
 3432SOL    HW211196   4.264   0.164   4.005 -0.7141 -0.6975  0.3834
 3433SOL     OW11197   3.891   6.163   5.479 -0.1094 -0.3154 -0.4687
 3433SOL    HW111198   3.823   6.235   5.489 -0.1433 -0.3500 -0.4517
 3433SOL    HW211199   3.874   6.112   5.394 -2.8206 -3.2024  1.5786
 3434SOL     OW11200   3.384   6.158   1.573 -0.2729  0.0282 -0.9122
 3434SOL    HW111201   3.454   6.147   1.502  1.3221 -0.9650  0.7206
 3434SOL    HW211202   3.391   6.083   1.638  0.3520  2.4097  1.9672
 3435SOL     OW11203   3.832   5.936   1.264  0.1730 -0.5732  0.0063
 3435SOL    HW111204   3.744   5.892   1.245 -0.1099 -0.4735  1.0105
 3435SOL    HW211205   3.826   6.033   1.241 -0.0886 -0.4981  0.3869
 3436SOL     OW11206   6.166   2.792   5.220  0.3285 -0.4148 -0.3892
 3436SOL    HW111207   6.169   2.692   5.219  0.6043 -0.4051 -0.8073
 3436SOL    HW211208   6.103   2.823   5.292 -1.0616 -0.9176 -1.3604
 3437SOL     OW11209   6.893   3.430   3.354  0.6940  0.2319 -0.7494
 3437SOL    HW111210   6.933   3.508   3.403 -0.4564 -1.3034  3.0126
 3437SOL    HW211211   6.808   3.459   3.310 -0.0968  1.0287  1.1954
 3438SOL     OW11212   1.103   0.676   0.943  0.5403  0.0527 -0.4446
 3438SOL    HW111213   1.178   0.638   0.888 -0.5894 -1.6628 -0.9037
 3438SOL    HW211214   1.034   0.605   0.957 -0.4512  1.2496  0.9622
 3439SOL     OW11215   3.358   0.276   4.339  0.1711 -0.2426  0.1062
 3439SOL    HW111216   3.360   0.353   4.275  0.7153  1.6532  2.2945
 3439SOL    HW211217   3.264   0.245   4.351 -0.4427  1.8325  1.1137
 3440SOL     OW11218   2.134   4.194   4.998 -0.1590  0.4757  0.0337
 3440SOL    HW111219   2.200   4.121   5.017  0.4664  1.0103 -0.0659
 3440SOL    HW211220   2.180   4.270   4.954 -1.0754  0.3928 -1.1023
 3441SOL     OW11221   1.259   5.549   4.608 -0.4312 -0.2099  0.5422
 3441SOL    HW111222   1.259   5.451   4.591 -0.2320 -0.1435  0.1419
 3441SOL    HW211223   1.276   5.567   4.705 -1.2063 -0.5912  0.7510
 3442SOL     OW11224   0.256   6.512   4.520  0.6971 -0.4686  0.2059
 3442SOL    HW111225   0.277   6.558   4.606  1.5587 -1.1534  0.3735
 3442SOL    HW211226   0.313   6.550   4.447 -0.6575  0.7303 -0.2689
 3443SOL     OW11227   3.250   1.152   0.916  0.4962  0.1742  0.0214
 3443SOL    HW111228   3.292   1.140   1.006  0.4418  0.0927  0.0363
 3443SOL    HW211229   3.311   1.117   0.845 -0.6695 -2.5336  0.2347
 3444SOL     OW11230   3.346   6.948   1.680  0.3312 -0.0278 -0.3537
 3444SOL    HW111231   3.388   6.898   1.604  0.1714  0.4855 -0.7867
 3444SOL    HW211232   3.274   7.008   1.644 -1.1601 -1.2889  0.4125
 3445SOL     OW11233   4.017   5.518   2.970  0.0062 -0.5485 -0.2950
 3445SOL    HW111234   4.030   5.582   2.894 -2.3663  0.8652  0.3561
 3445SOL    HW211235   3.924   5.529   3.006 -0.1116 -3.6395  0.5875
 3446SOL     OW11236   3.638   0.497   6.567  0.0328  0.0443  0.0196
 3446SOL    HW111237   3.607   0.564   6.501 -1.4925 -0.9249 -0.2870
 3446SOL    HW211238   3.566   0.430   6.584  1.0502 -0.7901  1.2785
 3447SOL     OW11239   0.226   4.892   6.713  0.3592  0.0983  0.3594
 3447SOL    HW111240   0.314   4.853   6.741  0.7639  0.4450 -0.3937
 3447SOL    HW211241   0.211   4.978   6.762  1.6899  1.3899 -1.3846
 3448SOL     OW11242   6.585   1.580   6.058 -0.1491 -0.0916 -0.1000
 3448SOL    HW111243   6.524   1.549   6.131  0.3267 -0.7599  0.0263
 3448SOL    HW211244   6.604   1.678   6.069 -2.0101  0.3728 -0.7361
 3449SOL     OW11245   0.174   5.141   6.841  0.7467 -0.2431  0.0015
 3449SOL    HW111246   0.211   5.190   6.920 -0.6007 -0.0002  0.5049
 3449SOL    HW211247   0.136   5.206   6.775 -0.0193 -0.5367  0.1413
 3450SOL     OW11248   2.330   2.159   1.469  0.6864 -0.5789 -0.0835
 3450SOL    HW111249   2.419   2.133   1.506  0.5442  1.2862  1.7810
 3450SOL    HW211250   2.261   2.092   1.499  0.7477  0.3567  2.3547
 3451SOL     OW11251   0.559   4.853   5.379 -0.4608  0.2948  0.2801
 3451SOL    HW111252   0.647   4.806   5.374 -0.2108  0.6401  1.2721
 3451SOL    HW211253   0.496   4.812   5.312 -0.1376 -1.2135  0.8500
 3452SOL     OW11254   4.451   2.490   4.299  0.4316 -0.1109  0.0012
 3452SOL    HW111255   4.531   2.450   4.256  1.9624  0.5624  2.0741
 3452SOL    HW211256   4.458   2.590   4.297 -0.8010 -0.0156 -0.5445
 3453SOL     OW11257   3.151   6.122   5.953  0.7115  0.2558 -0.3468
 3453SOL    HW111258   3.138   6.023   5.956  1.1277  0.1852 -0.7697
 3453SOL    HW211259   3.088   6.166   6.018 -1.0750 -0.1105 -1.7502
 3454SOL     OW11260   0.520   5.873   5.312 -0.3378 -0.3399 -0.1288
 3454SOL    HW111261   0.421   5.883   5.323 -0.2343  0.4324  0.1770
 3454SOL    HW211262   0.566   5.900   5.397  0.2466  1.5550 -0.9775
 3455SOL     OW11263   1.747   1.560   2.275  0.0178 -0.3380 -0.5755
 3455SOL    HW111264   1.805   1.605   2.207 -0.4686 -1.0320 -1.4596
 3455SOL    HW211265   1.790   1.568   2.365  0.6785  0.5711 -0.9497
 3456SOL     OW11266   1.392   1.580   1.469 -0.1351 -0.1011 -0.3359
 3456SOL    HW111267   1.490   1.564   1.473  0.0721  0.8426 -1.2835
 3456SOL    HW211268   1.351   1.518   1.402 -0.0568  0.0520 -0.5274
 3457SOL     OW11269   5.935   2.124   4.705 -0.3660 -1.0719  0.0033
 3457SOL    HW111270   5.946   2.189   4.630  0.8728 -0.5805  0.5739
 3457SOL    HW211271   5.878   2.047   4.675 -0.3924 -0.5890 -1.2355
 3458SOL     OW11272   2.602   4.941   6.091 -0.0810 -0.1494 -0.1563
 3458SOL    HW111273   2.648   4.974   6.173  0.9341  0.6152 -0.9925
 3458SOL    HW211274   2.667   4.940   6.015 -0.8844 -1.2403 -0.8691
 3459SOL     OW11275   0.487   3.800   0.766  0.1734 -0.3936  0.0853
 3459SOL    HW111276   0.455   3.737   0.696  0.7882  0.0052 -0.5686
 3459SOL    HW211277   0.429   3.882   0.765  0.0320 -0.4907  0.2145
 3460SOL     OW11278   1.526   4.914   5.538  0.8368  0.4187 -0.3319
 3460SOL    HW111279   1.587   4.959   5.603  0.9251 -0.6163  0.3127
 3460SOL    HW211280   1.510   4.975   5.460  0.3460  1.8670  0.8656
 3461SOL     OW11281   1.365   5.841   5.462 -0.3062 -0.2562  0.1469
 3461SOL    HW111282   1.290   5.790   5.420 -1.2071  0.0567  1.3440
 3461SOL    HW211283   1.374   5.815   5.558  0.3436  0.5734  0.3211
 3462SOL     OW11284   5.451   4.900   5.301 -0.3387  0.0373 -0.3380
 3462SOL    HW111285   5.415   4.912   5.393 -1.1975  2.2873 -0.9001
 3462SOL    HW211286   5.539   4.947   5.293 -0.9339  1.0641 -1.0211
 3463SOL     OW11287   2.638   4.936   1.015  0.0746  0.3083 -0.7616
 3463SOL    HW111288   2.552   4.917   1.063 -0.0008  1.2344 -0.5113
 3463SOL    HW211289   2.714   4.929   1.080  0.0816  0.4860 -0.7492
 3464SOL     OW11290   1.213   6.099   6.370  0.3149 -0.0164 -0.6033
 3464SOL    HW111291   1.178   6.025   6.428 -0.6462  0.6507 -0.3172
 3464SOL    HW211292   1.294   6.067   6.321  0.8052 -0.7912  0.6576
 3465SOL     OW11293   5.177   0.329   4.159 -0.0438 -0.0237  0.0496
 3465SOL    HW111294   5.178   0.273   4.076 -1.6800 -0.0310  0.0064
 3465SOL    HW211295   5.216   0.277   4.234  0.9187 -0.2317 -0.5809
 3466SOL     OW11296   2.396   0.385   0.991 -0.5444 -0.3931 -0.7601
 3466SOL    HW111297   2.398   0.485   0.985 -0.3535 -0.4109 -1.0588
 3466SOL    HW211298   2.487   0.349   0.969 -0.4103 -0.5972  0.0991
 3467SOL     OW11299   5.592   0.810   4.410 -0.0827  0.4416  0.0633
 3467SOL    HW111300   5.505   0.770   4.380 -0.5606  1.1890  0.4130
 3467SOL    HW211301   5.613   0.778   4.503  0.9323 -1.1424 -0.6630
 3468SOL     OW11302   3.276   2.109   3.170  0.2103 -0.5438 -0.6398
 3468SOL    HW111303   3.314   2.179   3.109 -0.3403 -1.0597 -1.6052
 3468SOL    HW211304   3.188   2.139   3.206  0.1832 -0.5469 -0.7027
 3469SOL     OW11305   6.860   3.027   5.782 -0.0557 -0.2216 -0.0312
 3469SOL    HW111306   6.834   2.992   5.872  2.3417 -1.5271  0.2653
 3469SOL    HW211307   6.928   3.100   5.793  0.6922 -0.7841 -0.7451
 3470SOL     OW11308   4.884   1.279   2.314 -0.3595  0.0422 -0.4818
 3470SOL    HW111309   4.874   1.373   2.348 -2.1057 -0.1916 -0.2411
 3470SOL    HW211310   4.877   1.279   2.214  0.0146  0.2070 -0.5092
 3471SOL     OW11311   6.239   5.882   2.705  0.2946 -0.5422  0.2998
 3471SOL    HW111312   6.292   5.964   2.728 -0.4070 -0.1433  0.5048
 3471SOL    HW211313   6.168   5.868   2.774  0.1483 -1.0921  0.0401
 3472SOL     OW11314   2.961   3.318   6.752  0.3678  0.1474  0.4459
 3472SOL    HW111315   2.949   3.330   6.654  0.9351 -0.7216  0.2674
 3472SOL    HW211316   3.030   3.248   6.770  0.8443  0.8514  1.4662
 3473SOL     OW11317   2.562   2.355   0.956  0.3474  0.5260 -0.5451
 3473SOL    HW111318   2.549   2.416   0.877  0.8260  0.5767 -0.5877
 3473SOL    HW211319   2.660   2.346   0.975  0.2411  0.3860 -0.0537
 3474SOL     OW11320   1.038   6.394   5.318  0.1736 -0.0097 -0.2918
 3474SOL    HW111321   1.118   6.374   5.374  0.5647  1.0463 -0.4613
 3474SOL    HW211322   0.956   6.363   5.365  0.6690 -1.1772 -0.1493
 3475SOL     OW11323   5.521   5.294   4.854 -0.0658 -0.5468 -0.2386
 3475SOL    HW111324   5.428   5.332   4.854 -0.5615 -1.6854 -1.3669
 3475SOL    HW211325   5.523   5.212   4.797  1.1488 -1.7727  1.4907
 3476SOL     OW11326   2.076   1.369   0.531 -0.0071  0.1608  1.1898
 3476SOL    HW111327   2.015   1.295   0.560  0.4483  0.9206  4.5422
 3476SOL    HW211328   2.065   1.447   0.593  0.7537  2.2936 -1.1995
 3477SOL     OW11329   6.187   0.418   4.270  0.9496  0.4768 -0.5257
 3477SOL    HW111330   6.101   0.391   4.313  1.0692  1.0503  0.0932
 3477SOL    HW211331   6.236   0.336   4.240  0.3333  0.1293 -0.6028
 3478SOL     OW11332   4.889   0.095   3.884 -0.2733 -0.2203 -0.0262
 3478SOL    HW111333   4.970   0.064   3.934 -0.7606 -1.0292  0.2920
 3478SOL    HW211334   4.824   0.019   3.877 -1.2980  0.5976  0.3310
 3479SOL     OW11335   1.455   0.219   1.871 -0.1834 -0.0231  0.4724
 3479SOL    HW111336   1.406   0.306   1.880 -1.1159 -0.5706  0.8763
 3479SOL    HW211337   1.433   0.160   1.948  0.3061 -0.6841  0.1197
 3480SOL     OW11338   4.306   5.091   1.776  0.3373 -0.1987 -0.2982
 3480SOL    HW111339   4.220   5.046   1.802  0.1739  0.9066  1.2443
 3480SOL    HW211340   4.286   5.180   1.735  0.7262  0.1904  0.3337
 3481SOL     OW11341   5.953   3.958   1.084  0.2066 -0.3552  0.4831
 3481SOL    HW111342   5.983   3.864   1.065 -2.0761 -1.1317  0.4049
 3481SOL    HW211343   5.915   3.963   1.176 -4.1300 -0.8718 -1.0301
 3482SOL     OW11344   1.639   0.936   1.479 -0.4777 -0.0509 -1.1225
 3482SOL    HW111345   1.720   0.900   1.525 -0.7560 -0.1304 -0.6886
 3482SOL    HW211346   1.600   0.865   1.420 -0.1795  0.0186 -1.4065
 3483SOL     OW11347   5.859   0.649   4.086  0.6881 -0.4556 -0.3030
 3483SOL    HW111348   5.899   0.565   4.121 -1.6230 -1.3981  0.2857
 3483SOL    HW211349   5.793   0.628   4.013 -0.7767  0.6942  0.6206
 3484SOL     OW11350   4.411   5.603   2.124  0.1585  0.1113  0.2349
 3484SOL    HW111351   4.328   5.549   2.113  0.4845 -0.1699 -1.0464
 3484SOL    HW211352   4.454   5.616   2.034  1.0835  0.9042  0.7777
 3485SOL     OW11353   0.298   6.538   0.573  0.4085 -0.6408 -0.0569
 3485SOL    HW111354   0.238   6.606   0.615  1.7000  1.1097 -0.9167
 3485SOL    HW211355   0.320   6.566   0.480  0.4758 -2.6078 -0.6755
 3486SOL     OW11356   1.855   4.465   2.380  0.0748 -0.2241 -0.0756
 3486SOL    HW111357   1.919   4.393   2.408 -0.0501 -0.5858 -0.6918
 3486SOL    HW211358   1.905   4.539   2.337  0.3878  0.8011  1.9354
 3487SOL     OW11359   1.498   1.252   2.257 -0.3411  0.4084  0.2071
 3487SOL    HW111360   1.595   1.243   2.236 -0.5677 -1.9282 -0.1435
 3487SOL    HW211361   1.460   1.331   2.208  1.1543  0.7553 -0.4509
 3488SOL     OW11362   2.597   1.678   6.943 -0.4174  0.1640  0.4976
 3488SOL    HW111363   2.508   1.709   6.977  0.1813  1.7754  0.6711
 3488SOL    HW211364   2.669   1.709   7.004  0.3309 -0.7086  0.0931
 3489SOL     OW11365   4.786   6.846   3.872  0.2999 -0.0091 -0.2334
 3489SOL    HW111366   4.695   6.856   3.912  0.8015  0.4516  0.8232
 3489SOL    HW211367   4.850   6.813   3.941  1.2630  1.1274 -0.5485
 3490SOL     OW11368   6.487   4.611   3.603  0.5237 -0.2670 -0.4391
 3490SOL    HW111369   6.465   4.525   3.559  2.0836 -2.1896  2.2259
 3490SOL    HW211370   6.475   4.602   3.702  1.8093  2.2203  0.0257
 3491SOL     OW11371   4.993   1.268   0.925 -0.1196  0.4396 -0.3354
 3491SOL    HW111372   4.996   1.364   0.951  0.1601  0.2327  0.4281
 3491SOL    HW211373   4.898   1.235   0.929 -0.4141  1.0130 -1.9045
 3492SOL     OW11374   3.083   4.020   3.564 -0.5690  1.0417 -0.4261
 3492SOL    HW111375   3.168   3.978   3.533  0.0049  2.1290 -0.3818
 3492SOL    HW211376   3.062   4.099   3.506  0.1410  2.6940  1.4375
 3493SOL     OW11377   1.380   6.008   3.658 -0.4903  0.6685  0.8068
 3493SOL    HW111378   1.419   6.095   3.687  0.9045  0.5892 -0.7225
 3493SOL    HW211379   1.435   5.969   3.585 -0.9392 -1.6450  1.6161
 3494SOL     OW11380   2.552   0.775   4.327  0.3006  0.2682 -0.4121
 3494SOL    HW111381   2.552   0.844   4.400  0.1648  0.0342 -0.1929
 3494SOL    HW211382   2.609   0.808   4.251 -0.7515  1.1903 -0.8379
 3495SOL     OW11383   0.417   0.588   4.997 -0.2197 -0.5872 -0.0246
 3495SOL    HW111384   0.504   0.561   5.039 -0.0303 -0.6949 -0.4773
 3495SOL    HW211385   0.411   0.549   4.905 -1.5458 -2.1143  0.6553
 3496SOL     OW11386   2.766   4.793   1.786  0.7541 -0.2435 -0.0739
 3496SOL    HW111387   2.755   4.704   1.831  0.3675 -0.3731 -0.4199
 3496SOL    HW211388   2.756   4.781   1.687 -0.5304  0.3861 -0.0358
 3497SOL     OW11389   2.762   3.072   6.162  0.1882 -0.0120 -0.0576
 3497SOL    HW111390   2.784   3.067   6.259  3.3100 -1.4179 -0.7122
 3497SOL    HW211391   2.738   2.981   6.128 -0.2102  0.3373 -0.7363
 3498SOL     OW11392   3.071   3.772   1.801 -0.1986  0.7011  0.3579
 3498SOL    HW111393   3.047   3.813   1.713  2.7425 -0.8877 -1.3323
 3498SOL    HW211394   2.999   3.707   1.828 -1.5410  1.8116 -0.3889
 3499SOL     OW11395   0.583   4.636   0.829  0.1416  0.1093  0.2590
 3499SOL    HW111396   0.494   4.679   0.846 -0.0303 -0.1393  0.0063
 3499SOL    HW211397   0.568   4.542   0.797  0.4309  0.7067 -1.7561
 3500SOL     OW11398   5.600   3.556   5.112  0.6331 -0.2596 -0.2055
 3500SOL    HW111399   5.517   3.545   5.058  0.1961  2.6035 -0.2927
 3500SOL    HW211400   5.680   3.531   5.056  0.0671  0.7949 -1.5451
 3501SOL     OW11401   1.224   0.398   5.213  0.1404  0.3494 -0.2005
 3501SOL    HW111402   1.284   0.478   5.225  1.1328 -0.3008 -0.7122
 3501SOL    HW211403   1.130   0.424   5.235  0.8960  0.8206  2.9743
 3502SOL     OW11404   0.132   6.670   6.910 -0.7173 -0.3499  0.1718
 3502SOL    HW111405   0.189   6.745   6.944  0.4739 -1.5370  0.9201
 3502SOL    HW211406   0.084   6.627   6.987  0.5375 -1.8736  0.1702
 3503SOL     OW11407   2.387   0.985   3.738 -0.2943  0.0677  0.0155
 3503SOL    HW111408   2.318   1.030   3.795 -1.8282 -0.1272 -1.5865
 3503SOL    HW211409   2.401   0.891   3.771 -1.1297 -0.0295  0.1239
 3504SOL     OW11410   5.069   4.539   5.217  0.0500  0.1229  0.8110
 3504SOL    HW111411   5.162   4.503   5.211  0.3492  0.8470  1.0593
 3504SOL    HW211412   5.047   4.589   5.134  0.1170  0.5042  1.0224
 3505SOL     OW11413   2.497   4.503   0.120  0.0588 -0.1663 -0.3280
 3505SOL    HW111414   2.422   4.445   0.152 -0.4997  0.7539  0.0554
 3505SOL    HW211415   2.521   4.477   0.026 -0.2281 -0.9584 -0.1918
 3506SOL     OW11416   5.704   5.487   1.930  0.0146  0.0332 -0.3235
 3506SOL    HW111417   5.756   5.532   2.003  0.4246 -0.7665 -0.1046
 3506SOL    HW211418   5.763   5.477   1.850 -0.6344  1.4990 -1.0156
 3507SOL     OW11419   6.405   2.381   3.011  0.4223 -0.6397  0.3555
 3507SOL    HW111420   6.397   2.419   3.103  1.9899  0.4481  0.1000
 3507SOL    HW211421   6.475   2.310   3.011  0.5725 -0.4969 -0.0168
 3508SOL     OW11422   5.292   1.002   4.857 -0.3230  0.4995  0.4601
 3508SOL    HW111423   5.307   0.964   4.766  0.0283  1.3404  0.1631
 3508SOL    HW211424   5.353   1.079   4.872  0.4109 -0.2936  1.8307
 3509SOL     OW11425   4.916   5.326   4.021 -0.4490  0.0079 -0.3800
 3509SOL    HW111426   4.847   5.373   3.966  0.0951  1.6172  0.2731
 3509SOL    HW211427   4.988   5.291   3.961  0.9338  3.0626 -0.6673
 3510SOL     OW11428   4.660   1.678   5.021 -0.3065 -0.2125  0.2495
 3510SOL    HW111429   4.717   1.705   5.099 -0.7428 -0.8823  0.8110
 3510SOL    HW211430   4.570   1.721   5.030 -0.5792 -0.8180  0.4761
 3511SOL     OW11431   6.427   0.772   7.011 -0.1397  0.4031 -0.5380
 3511SOL    HW111432   6.382   0.789   6.924 -0.0623  0.9663 -0.4728
 3511SOL    HW211433   6.519   0.738   6.995 -0.4528 -0.3851 -0.6729
 3512SOL     OW11434   6.689   2.678   4.856  0.2374 -0.2629 -0.0883
 3512SOL    HW111435   6.675   2.579   4.850 -0.2087 -0.2549  0.6513
 3512SOL    HW211436   6.787   2.698   4.858  0.3247 -0.7209  0.2403
 3513SOL     OW11437   0.812   1.744   2.444 -0.5367 -0.0598  0.5441
 3513SOL    HW111438   0.796   1.723   2.540  0.3317  0.1094  0.7267
 3513SOL    HW211439   0.864   1.828   2.436  2.6120 -1.8977  0.0865
 3514SOL     OW11440   1.323   1.703   0.325  0.0645 -0.2364 -0.0166
 3514SOL    HW111441   1.411   1.682   0.368 -0.0755  0.3753  0.5736
 3514SOL    HW211442   1.288   1.790   0.360  0.0500  0.3958 -1.5387
 3515SOL     OW11443   0.024   5.475   4.919  0.3520  0.1950  0.4452
 3515SOL    HW111444  -0.055   5.424   4.953  0.2088 -0.2056 -0.4691
 3515SOL    HW211445   0.003   5.573   4.919 -0.0995  0.1011  0.3305
 3516SOL     OW11446   0.370   2.016   3.489 -0.3412 -0.1750 -0.0829
 3516SOL    HW111447   0.415   1.970   3.412 -1.9008  0.3178 -1.3375
 3516SOL    HW211448   0.353   2.111   3.465 -0.0128  0.2383  1.2603
 3517SOL     OW11449   5.881   3.767   6.533 -0.5058  0.0798 -0.2068
 3517SOL    HW111450   5.827   3.700   6.584 -0.0992 -0.2927 -0.2625
 3517SOL    HW211451   5.823   3.845   6.509 -0.4917  0.7669  1.7236
 3518SOL     OW11452   6.055   0.029   3.642 -0.0655 -0.2981  0.2331
 3518SOL    HW111453   6.021   0.106   3.587 -1.5371 -0.9019  0.2306
 3518SOL    HW211454   6.071   0.060   3.735 -0.5203  0.0592  0.2020
 3519SOL     OW11455   6.666   1.174   3.809  0.9669  0.1190  0.2218
 3519SOL    HW111456   6.748   1.136   3.853  0.2942 -1.1116  0.4734
 3519SOL    HW211457   6.670   1.273   3.811  1.1870  0.1283  2.7067
 3520SOL     OW11458   0.140   2.274   2.153  0.4840 -0.4316  0.6088
 3520SOL    HW111459   0.188   2.298   2.238  0.9144  0.3186  0.1600
 3520SOL    HW211460   0.042   2.264   2.172  0.4249  0.7563  1.0027
 3521SOL     OW11461   0.358   2.039   4.010 -0.1894  0.2504 -0.5381
 3521SOL    HW111462   0.344   2.068   4.105  2.0933  2.7823 -0.8566
 3521SOL    HW211463   0.451   2.063   3.981  0.0227 -2.7202 -2.6924
 3522SOL     OW11464   0.492   3.151   2.485 -0.4180 -0.4231 -0.2816
 3522SOL    HW111465   0.416   3.170   2.548  0.7115 -0.5560  1.1764
 3522SOL    HW211466   0.496   3.223   2.415 -1.2706  0.1315  0.2199
 3523SOL     OW11467   6.608   2.821   4.240 -0.3539  0.4218  0.3383
 3523SOL    HW111468   6.531   2.786   4.295 -0.9283  0.4326 -0.4466
 3523SOL    HW211469   6.670   2.746   4.219  0.9091  0.7498  2.6107
 3524SOL     OW11470   2.976   5.715   1.384  0.2523 -0.0722  0.0680
 3524SOL    HW111471   2.910   5.746   1.453  1.9061 -0.9152  2.1429
 3524SOL    HW211472   3.036   5.790   1.358  2.9854 -0.7335  3.6128
 3525SOL     OW11473   1.793   3.626   2.739  0.0923 -0.3021  0.4138
 3525SOL    HW111474   1.722   3.572   2.783 -0.3956  0.6174  0.7687
 3525SOL    HW211475   1.850   3.671   2.808 -0.2687  0.6184  0.1320
 3526SOL     OW11476   6.173   1.476   6.504 -0.1858 -0.1738  0.1601
 3526SOL    HW111477   6.113   1.469   6.424  1.3375 -1.1797 -0.9787
 3526SOL    HW211478   6.178   1.387   6.550  0.8794 -0.2922 -0.1449
 3527SOL     OW11479   6.041   4.974   2.291  0.1625  0.5479 -0.4568
 3527SOL    HW111480   6.117   4.995   2.353  0.4227  3.0205 -1.5126
 3527SOL    HW211481   5.954   4.996   2.337  0.0640 -1.2415  0.3385
 3528SOL     OW11482   1.182   4.154   4.618 -0.3758 -0.5340 -0.0565
 3528SOL    HW111483   1.164   4.076   4.678 -0.2819 -0.1826  0.4368
 3528SOL    HW211484   1.271   4.143   4.575 -0.1363 -0.4591  0.4091
 3529SOL     OW11485   4.542   6.316   3.075 -0.0720  0.0782  0.1928
 3529SOL    HW111486   4.463   6.351   3.126 -0.6918 -2.6333  1.2517
 3529SOL    HW211487   4.514   6.236   3.022  1.5050  0.4177 -1.2270
 3530SOL     OW11488   0.366   3.683   5.792  0.1236  0.2197 -0.0110
 3530SOL    HW111489   0.312   3.722   5.865 -0.1304 -0.0691 -0.0456
 3530SOL    HW211490   0.363   3.583   5.796  0.8986  0.1934  0.1738
 3531SOL     OW11491   2.689   2.300   6.966 -0.0446  0.0794  0.6256
 3531SOL    HW111492   2.746   2.250   7.030 -0.2635 -0.1288  0.6612
 3531SOL    HW211493   2.597   2.260   6.965  0.4672 -1.2111 -1.2744
 3532SOL     OW11494   1.686   3.603   5.508  0.0495  1.3039  0.0976
 3532SOL    HW111495   1.665   3.506   5.518  1.1535  1.1993  1.6075
 3532SOL    HW211496   1.747   3.616   5.429 -0.1210  0.7825 -0.1214
 3533SOL     OW11497   1.864   1.010   6.466  0.4195  0.0397  0.1156
 3533SOL    HW111498   1.816   0.977   6.548 -1.1604 -0.7750 -1.0827
 3533SOL    HW211499   1.956   1.039   6.491  0.4653 -1.4795  1.9526
 3534SOL     OW11500   5.275   5.639   1.321 -0.0835  0.3170 -0.3128
 3534SOL    HW111501   5.226   5.666   1.403  0.8083  0.9743  0.0197
 3534SOL    HW211502   5.210   5.606   1.252 -0.6883 -2.3643  1.4150
 3535SOL     OW11503   0.682   1.774   5.603  0.0043  0.0377  0.5161
 3535SOL    HW111504   0.643   1.803   5.691  0.4795 -0.1227  0.7869
 3535SOL    HW211505   0.610   1.767   5.535 -0.3058  0.6268  0.7717
 3536SOL     OW11506   0.036   1.375   0.913 -0.2721  0.3556  0.0679
 3536SOL    HW111507   0.128   1.384   0.951  0.7232  2.2928 -2.5172
 3536SOL    HW211508   0.015   1.278   0.898  0.8253 -0.1824  1.7621
 3537SOL     OW11509   3.928   2.174   1.189  0.9181  0.0144  0.1347
 3537SOL    HW111510   3.892   2.190   1.281 -4.8953  1.0275 -1.8713
 3537SOL    HW211511   3.964   2.260   1.153  0.3191  0.4157  0.4640
 3538SOL     OW11512   3.330   5.478   4.666 -0.0102  0.2602  0.7504
 3538SOL    HW111513   3.256   5.502   4.603  0.5211  1.1060  0.4316
 3538SOL    HW211514   3.391   5.412   4.622  0.7158  1.3246  0.1026
 3539SOL     OW11515   5.676   0.140   1.126  0.2229 -0.3826  0.1115
 3539SOL    HW111516   5.730   0.206   1.178  0.3156 -1.2922  1.2083
 3539SOL    HW211517   5.648   0.065   1.186 -3.3450  0.6350 -0.0736
 3540SOL     OW11518   6.523   5.585   4.718  0.0347 -0.1338 -0.0975
 3540SOL    HW111519   6.512   5.567   4.620 -2.8172  0.3184  0.0498
 3540SOL    HW211520   6.552   5.501   4.764 -1.5790 -1.2498 -0.9786
 3541SOL     OW11521   1.676   0.226   1.248 -0.0195 -0.1993 -0.4550
 3541SOL    HW111522   1.701   0.319   1.276 -3.2993  0.7637 -0.2583
 3541SOL    HW211523   1.640   0.176   1.327 -1.5804 -0.3517 -1.2229
 3542SOL     OW11524   6.422   3.900   0.918 -0.0845  0.1297  0.5454
 3542SOL    HW111525   6.364   3.966   0.870 -0.5106 -0.5923  0.0579
 3542SOL    HW211526   6.384   3.808   0.909  0.3596 -0.1615  1.4400
 3543SOL     OW11527   3.600   3.857   1.889  0.4967 -0.2119 -0.2599
 3543SOL    HW111528   3.582   3.940   1.942  0.2090 -0.8913  0.7391
 3543SOL    HW211529   3.549   3.781   1.928 -1.3117 -0.3777 -2.6978
 3544SOL     OW11530   2.108   1.444   3.067 -0.2566 -0.4192 -0.5009
 3544SOL    HW111531   2.109   1.536   3.029  0.2234 -0.8600 -1.5746
 3544SOL    HW211532   2.108   1.377   2.993  0.3667 -1.2931  0.2702
 3545SOL     OW11533   0.461   4.597   3.214 -0.0201  0.4950 -0.2036
 3545SOL    HW111534   0.506   4.547   3.139  1.1693  0.2071  0.6682
 3545SOL    HW211535   0.486   4.555   3.301 -3.6079 -0.9265  0.2840
 3546SOL     OW11536   1.733   0.869   0.909 -0.2925  0.1220  0.2763
 3546SOL    HW111537   1.659   0.826   0.858 -0.9050  0.2736  1.0298
 3546SOL    HW211538   1.746   0.963   0.875 -0.7094  0.2280  0.4058
 3547SOL     OW11539   4.175   6.641   1.539 -0.0158  0.0613  0.5482
 3547SOL    HW111540   4.192   6.726   1.489  0.0523  0.9423  2.0256
 3547SOL    HW211541   4.079   6.615   1.530 -0.4560  1.2726  1.5315
 3548SOL     OW11542   1.381   4.043   6.703 -0.6271 -0.3734 -0.6371
 3548SOL    HW111543   1.337   4.132   6.716 -0.7901 -0.8519  2.9274
 3548SOL    HW211544   1.479   4.055   6.692 -0.6434  0.2321 -0.1180
 3549SOL     OW11545   2.615   5.119   4.219  0.0460  0.4946 -0.5991
 3549SOL    HW111546   2.605   5.093   4.123 -0.1960 -0.6823 -0.2768
 3549SOL    HW211547   2.535   5.088   4.271  0.5249  0.4144  0.1140
 3550SOL     OW11548   4.930   3.764   1.659 -1.0708  0.3843 -0.4896
 3550SOL    HW111549   5.025   3.740   1.641 -0.6308  1.7121 -0.1008
 3550SOL    HW211550   4.870   3.690   1.629  0.0007 -0.0004 -1.7775
 3551SOL     OW11551   4.043   5.639   5.937  0.0318  0.4584  0.4505
 3551SOL    HW111552   3.997   5.646   6.025 -0.1521  1.5324  0.2708
 3551SOL    HW211553   4.126   5.584   5.948 -0.2064  0.2391  1.2001
 3552SOL     OW11554   0.321   4.904   0.163 -0.7562 -0.4885  0.2433
 3552SOL    HW111555   0.237   4.896   0.109 -0.2614  0.2207 -0.6472
 3552SOL    HW211556   0.300   4.949   0.250 -1.7290 -2.4555  1.0891
 3553SOL     OW11557   2.866   6.653   1.144  0.4505 -0.4011 -0.1504
 3553SOL    HW111558   2.882   6.602   1.059  0.9343  0.0264 -0.3153
 3553SOL    HW211559   2.769   6.676   1.150  0.4586 -0.1886 -0.7294
 3554SOL     OW11560   5.255   3.071   2.147 -0.4218  0.6184  0.3769
 3554SOL    HW111561   5.248   3.159   2.194 -0.4998  0.3026  0.9567
 3554SOL    HW211562   5.166   3.025   2.150  0.4389 -1.0570  3.1646
 3555SOL     OW11563   2.584   6.763   6.078 -0.2204 -0.2474  0.4815
 3555SOL    HW111564   2.612   6.685   6.022  0.7862  1.1971 -1.1215
 3555SOL    HW211565   2.652   6.778   6.149  0.5099  0.2161 -0.3023
 3556SOL     OW11566   6.897   4.768   2.573  0.7711 -0.6275  0.1766
 3556SOL    HW111567   6.916   4.860   2.538 -0.0217 -0.4126  0.2781
 3556SOL    HW211568   6.802   4.744   2.552  0.0371 -0.2254  2.6938
 3557SOL     OW11569   0.127   2.239   4.288  0.3071  0.1715  0.3913
 3557SOL    HW111570   0.050   2.208   4.345 -0.7376 -0.0398 -1.0831
 3557SOL    HW211571   0.200   2.171   4.293 -1.2336 -1.7539 -1.3536
 3558SOL     OW11572   3.106   5.301   5.747  0.3709 -0.2608 -0.6093
 3558SOL    HW111573   3.192   5.259   5.775  0.2055  0.2964  0.8256
 3558SOL    HW211574   3.107   5.318   5.648  1.3022 -1.5950 -0.8439
 3559SOL     OW11575   5.749   0.574   1.193  0.3635 -0.1238 -1.4203
 3559SOL    HW111576   5.801   0.490   1.203  1.1987  0.5026 -0.3527
 3559SOL    HW211577   5.770   0.616   1.105 -0.1695 -1.0737 -2.0279
 3560SOL     OW11578   0.683   1.482   0.567 -0.3634  0.7932  0.1041
 3560SOL    HW111579   0.595   1.442   0.544  0.1405 -0.4970  0.3181
 3560SOL    HW211580   0.740   1.488   0.484  0.1643 -0.5421  0.3413
 3561SOL     OW11581   5.731   4.952   4.967  0.1284 -0.1305  0.8734
 3561SOL    HW111582   5.779   5.039   4.961 -1.1686  0.5665  0.2569
 3561SOL    HW211583   5.771   4.887   4.902 -0.3156  0.7231 -0.2759
 3562SOL     OW11584   2.809   6.407   4.967  0.1385  0.3218 -0.1036
 3562SOL    HW111585   2.798   6.375   4.872 -0.4495  0.5516 -0.1176
 3562SOL    HW211586   2.884   6.473   4.971 -0.8012  1.4544 -0.7006
 3563SOL     OW11587   6.243   3.192   3.177  0.8941  0.0096 -0.5030
 3563SOL    HW111588   6.246   3.234   3.086 -0.0539 -1.3287 -1.1939
 3563SOL    HW211589   6.187   3.110   3.173  1.3821 -0.4353  1.1651
 3564SOL     OW11590   2.101   2.093   5.679 -0.3619 -0.4034 -0.4917
 3564SOL    HW111591   2.150   2.174   5.712  0.4301 -0.8363 -0.5889
 3564SOL    HW211592   2.016   2.122   5.636  0.6923  0.5575 -2.0632
 3565SOL     OW11593   4.875   4.012   5.918  0.1094 -0.0513 -0.2754
 3565SOL    HW111594   4.873   3.921   5.957 -1.9828 -0.4927 -1.2919
 3565SOL    HW211595   4.797   4.065   5.951 -0.0617  0.5368 -1.5435
 3566SOL     OW11596   5.612   1.428   6.878  0.0030  0.3374 -0.3061
 3566SOL    HW111597   5.591   1.356   6.812 -2.7365  1.7720 -1.1348
 3566SOL    HW211598   5.677   1.393   6.946 -0.7982 -2.7105 -0.9776
 3567SOL     OW11599   0.473   0.950   1.821 -0.9456 -0.4832  0.3167
 3567SOL    HW111600   0.527   0.976   1.900  1.3884  2.1183 -1.9195
 3567SOL    HW211601   0.526   0.886   1.764 -0.0219  2.0172 -1.8496
 3568SOL     OW11602   2.870   5.191   6.949  0.3083  0.2836  0.2406
 3568SOL    HW111603   2.800   5.255   6.979 -0.0640 -0.4744  1.0216
 3568SOL    HW211604   2.828   5.103   6.927  0.8539  0.2073 -0.5064
 3569SOL     OW11605   1.884   1.150   4.081  0.5206  0.0434 -0.5769
 3569SOL    HW111606   1.921   1.059   4.061  0.4485  0.2870 -1.9098
 3569SOL    HW211607   1.786   1.144   4.095  0.2033  0.1552 -2.5564
 3570SOL     OW11608   4.982   5.514   0.531  0.2512 -0.2782 -0.5006
 3570SOL    HW111609   5.058   5.577   0.550  1.1336 -1.3087 -0.5093
 3570SOL    HW211610   4.924   5.506   0.612  0.4385  0.1311 -0.3221
 3571SOL     OW11611   0.139   0.859   0.169  0.3821 -0.3983 -0.1131
 3571SOL    HW111612   0.182   0.788   0.113  1.4773 -0.5548  0.8778
 3571SOL    HW211613   0.117   0.938   0.112 -0.3636 -1.3127 -1.1228
 3572SOL     OW11614   6.844   3.576   2.234 -0.1671  0.1878  0.2792
 3572SOL    HW111615   6.840   3.617   2.325 -1.3027  0.0988  0.2937
 3572SOL    HW211616   6.880   3.483   2.241 -1.3503 -0.2589  0.8354
 3573SOL     OW11617   3.887   1.595   4.199  0.3594  0.4029 -0.3621
 3573SOL    HW111618   3.910   1.498   4.206  0.5175  0.4900  0.4549
 3573SOL    HW211619   3.911   1.629   4.108  2.3130  0.1986  0.0397
 3574SOL     OW11620   1.258   4.732   4.407  0.5049 -0.0008  0.2196
 3574SOL    HW111621   1.337   4.670   4.406 -0.5276 -1.3640 -0.8764
 3574SOL    HW211622   1.245   4.766   4.500  0.3846 -2.4830  1.2156
 3575SOL     OW11623   2.296   5.536   2.673  0.2484  0.5620 -0.1183
 3575SOL    HW111624   2.269   5.508   2.765 -0.9695 -0.1865 -0.6708
 3575SOL    HW211625   2.357   5.467   2.633 -0.0635  0.3622 -0.2517
 3576SOL     OW11626   6.894   1.764   3.251 -0.3263  0.1187 -0.6352
 3576SOL    HW111627   6.855   1.676   3.279 -1.6134  0.9649  0.3365
 3576SOL    HW211628   6.941   1.806   3.329 -2.2382  1.5988 -0.2215
 3577SOL     OW11629   1.405   3.084   1.938 -0.0950  0.0164  0.2755
 3577SOL    HW111630   1.385   2.986   1.943  0.9976 -0.2087  0.5402
 3577SOL    HW211631   1.478   3.107   2.003  0.1912  0.8638 -0.3201
 3578SOL     OW11632   5.718   2.947   2.190  0.4339  0.4300  0.0997
 3578SOL    HW111633   5.634   2.926   2.240  0.5199  0.1170  0.1105
 3578SOL    HW211634   5.712   3.040   2.154  0.2092  0.5181  0.3593
 3579SOL     OW11635   6.614   4.748   6.325 -0.0466 -0.7431 -0.4181
 3579SOL    HW111636   6.567   4.773   6.240 -0.1350 -0.1133 -0.1921
 3579SOL    HW211637   6.580   4.659   6.357 -0.6458 -0.5807 -0.5838
 3580SOL     OW11638   3.205   4.039   5.015  0.2822  0.2471  0.9658
 3580SOL    HW111639   3.163   4.119   5.058  0.5736  1.2729 -0.5847
 3580SOL    HW211640   3.304   4.054   5.007 -0.0038  1.1374 -2.0766
 3581SOL     OW11641   4.923   0.316   4.972  0.2158  0.4273  0.1591
 3581SOL    HW111642   4.837   0.310   4.921  0.7760 -0.1636 -0.7525
 3581SOL    HW211643   4.962   0.224   4.984  0.3535  0.6086  1.2328
 3582SOL     OW11644   2.641   1.758   0.194 -0.1658 -0.7396 -0.4451
 3582SOL    HW111645   2.632   1.737   0.291 -0.8552  1.3246 -0.0126
 3582SOL    HW211646   2.738   1.761   0.170 -0.0032 -1.9464 -0.0139
 3583SOL     OW11647   1.417   6.663   4.559  0.7322 -0.0574  0.3470
 3583SOL    HW111648   1.505   6.666   4.513  1.9020 -0.4843  2.4486
 3583SOL    HW211649   1.364   6.586   4.525  1.8022 -0.7062  0.1165
 3584SOL     OW11650   6.684   6.995   1.197 -0.3975 -0.4362 -0.0251
 3584SOL    HW111651   6.640   7.081   1.221  1.4277  0.4335  0.3729
 3584SOL    HW211652   6.632   6.950   1.124 -1.0483  1.2980 -0.6790
 3585SOL     OW11653   1.417   6.718   2.536 -0.5855 -0.0909  0.5537
 3585SOL    HW111654   1.367   6.642   2.493 -0.3008  1.5362 -3.0168
 3585SOL    HW211655   1.356   6.765   2.600 -1.3487 -2.1482  1.4383
 3586SOL     OW11656   2.433   6.125   3.076 -0.8316  0.0194 -0.7446
 3586SOL    HW111657   2.507   6.064   3.045 -0.0575 -0.6448  2.1588
 3586SOL    HW211658   2.354   6.071   3.104  0.0110  0.1619  2.2602
 3587SOL     OW11659   1.808   1.771   6.986 -0.2335  0.0946 -0.1410
 3587SOL    HW111660   1.731   1.806   6.933  1.2079  0.4971 -2.0484
 3587SOL    HW211661   1.807   1.671   6.985 -1.2991  0.0756  0.7581
 3588SOL     OW11662   6.007   2.569   3.710 -0.3044  0.9718  0.1849
 3588SOL    HW111663   6.063   2.649   3.727  1.6846 -0.3069  0.0144
 3588SOL    HW211664   6.066   2.490   3.692 -2.1480 -0.7224  1.1126
 3589SOL     OW11665   4.972   0.845   6.896 -0.3057 -0.2533  0.3663
 3589SOL    HW111666   4.952   0.941   6.877 -0.4651 -0.3228  0.1778
 3589SOL    HW211667   4.888   0.790   6.885 -0.3013 -0.3630  0.8275
 3590SOL     OW11668   6.431   2.675   6.218 -0.1865 -0.3473 -0.0458
 3590SOL    HW111669   6.413   2.588   6.173  2.6917 -0.2239 -1.6876
 3590SOL    HW211670   6.423   2.664   6.317 -2.3508 -1.7796 -0.3237
 3591SOL     OW11671   4.571   1.258   2.112 -0.4018 -0.0765  0.4930
 3591SOL    HW111672   4.583   1.279   2.015  1.2541  2.0242  1.0716
 3591SOL    HW211673   4.551   1.342   2.162  2.5551 -0.3571  2.4267
 3592SOL     OW11674   5.342   4.238   3.572  0.4539  0.2449  0.5301
 3592SOL    HW111675   5.323   4.150   3.528  1.0498  0.3732  0.0013
 3592SOL    HW211676   5.372   4.222   3.666  0.2348 -0.0980  0.5439
 3593SOL     OW11677   4.544   1.579   1.716 -0.8082 -0.1103  0.5190
 3593SOL    HW111678   4.481   1.641   1.670 -1.2808 -0.7053  0.3539
 3593SOL    HW211679   4.509   1.558   1.807 -0.4135  0.2222  0.7527
 3594SOL     OW11680   6.641   6.823   0.257  0.5751 -0.0436 -0.2926
 3594SOL    HW111681   6.662   6.920   0.249 -1.4368  0.3808 -0.9870
 3594SOL    HW211682   6.668   6.790   0.347  1.0520  1.2075  0.0399
 3595SOL     OW11683   5.482   1.551   2.418  0.0664  0.1411  0.0953
 3595SOL    HW111684   5.432   1.636   2.403 -1.7629 -1.2377 -2.1143
 3595SOL    HW211685   5.559   1.546   2.354 -1.2137 -0.8255 -1.4489
 3596SOL     OW11686   1.927   3.236   3.515  0.5197 -0.1445 -0.4529
 3596SOL    HW111687   1.859   3.164   3.501  0.6161 -0.4650  0.6604
 3596SOL    HW211688   2.018   3.196   3.514  0.6777  0.1985 -1.3255
 3597SOL     OW11689   2.751   5.398   0.868  0.0806  0.1795 -0.5622
 3597SOL    HW111690   2.804   5.409   0.953  0.7431 -1.4036 -0.7439
 3597SOL    HW211691   2.701   5.311   0.871 -0.4942  0.4701 -1.4856
 3598SOL     OW11692   1.672   6.459   6.933  0.1592  0.0583  0.1535
 3598SOL    HW111693   1.710   6.549   6.953  0.5019  0.2647 -1.3271
 3598SOL    HW211694   1.582   6.470   6.890  0.9306 -0.1962 -1.6247
 3599SOL     OW11695   6.242   1.611   2.016  0.3384 -0.2749  0.0488
 3599SOL    HW111696   6.161   1.657   2.052  0.7208 -0.1164  0.7468
 3599SOL    HW211697   6.277   1.660   1.936  1.1459  1.0927  1.1947
 3600SOL     OW11698   0.650   1.560   6.896 -0.2206 -0.2247 -0.0669
 3600SOL    HW111699   0.745   1.551   6.925 -0.4788 -1.0143  0.6167
 3600SOL    HW211700   0.610   1.468   6.886 -0.1827  0.0023 -2.9221
 3601SOL     OW11701   0.525   0.862   6.532 -0.4979  1.0190 -0.0050
 3601SOL    HW111702   0.575   0.813   6.460  0.2696  1.3677  0.2773
 3601SOL    HW211703   0.430   0.832   6.533 -0.4022  0.6571 -0.8460
 3602SOL     OW11704   3.690   2.013   6.726  0.0031  0.6236  0.1361
 3602SOL    HW111705   3.620   1.945   6.747 -1.6885  2.0283 -0.6410
 3602SOL    HW211706   3.683   2.089   6.791  1.0014  0.6439  0.2247
 3603SOL     OW11707   5.862   0.319   1.240  0.3245  0.0816 -0.2299
 3603SOL    HW111708   5.909   0.321   1.328 -1.7591 -1.4657  1.0159
 3603SOL    HW211709   5.922   0.277   1.171  1.5388  0.2004  0.7168
 3604SOL     OW11710   6.705   1.470   3.612  0.0272  0.0946 -0.3789
 3604SOL    HW111711   6.666   1.541   3.670 -0.8716 -0.0360 -0.7965
 3604SOL    HW211712   6.769   1.415   3.664 -0.1527  0.4826  0.2617
 3605SOL     OW11713   3.311   3.198   6.903 -0.2005 -0.2342 -0.3478
 3605SOL    HW111714   3.359   3.181   6.989 -1.0257  0.5556  0.2910
 3605SOL    HW211715   3.233   3.136   6.896 -1.8130  1.5088  0.8673
 3606SOL     OW11716   2.232   0.226   5.536 -0.1267 -0.0278 -0.4951
 3606SOL    HW111717   2.253   0.317   5.573  0.5599 -0.2168 -0.3931
 3606SOL    HW211718   2.142   0.197   5.567  0.3642 -0.1126  0.9304
 3607SOL     OW11719   1.483   4.208   3.877  0.6663  0.1955  0.2750
 3607SOL    HW111720   1.469   4.277   3.948 -2.1691 -0.3036  0.3056
 3607SOL    HW211721   1.510   4.122   3.918  0.3472  0.2605  0.6253
 3608SOL     OW11722   5.531   1.555   1.305 -0.1647 -0.0177 -0.0944
 3608SOL    HW111723   5.540   1.609   1.221 -2.6091 -0.4849 -0.7449
 3608SOL    HW211724   5.496   1.612   1.379  1.3102  0.2307  0.4260
 3609SOL     OW11725   4.845   4.674   0.920 -0.2883  0.4357  0.3197
 3609SOL    HW111726   4.941   4.698   0.906  0.9773 -3.3698  1.1817
 3609SOL    HW211727   4.833   4.641   1.014 -1.7174 -1.8384 -0.5816
 3610SOL     OW11728   4.953   0.380   3.223 -0.2726 -0.3205 -0.2460
 3610SOL    HW111729   4.980   0.291   3.185  0.6286  0.4999 -1.6335
 3610SOL    HW211730   4.999   0.395   3.310  0.4781 -0.7263 -0.5658
 3611SOL     OW11731   5.986   0.412   5.807 -0.1177  0.3719 -0.0570
 3611SOL    HW111732   6.063   0.452   5.758 -0.2798 -0.0076 -0.6372
 3611SOL    HW211733   5.971   0.319   5.775  1.2560 -0.7841  2.4015
 3612SOL     OW11734   6.528   4.302   5.596 -0.6896 -0.1066 -0.6703
 3612SOL    HW111735   6.501   4.209   5.569 -2.5668 -0.3480  1.6960
 3612SOL    HW211736   6.455   4.366   5.574 -0.4331  0.3863 -0.1250
 3613SOL     OW11737   5.167   4.152   3.893 -0.3200  0.3757  0.5144
 3613SOL    HW111738   5.142   4.055   3.886 -1.1902  0.4742  2.0141
 3613SOL    HW211739   5.088   4.209   3.873  0.4949  0.8637 -1.6807
 3614SOL     OW11740   2.902   3.920   1.643 -0.1073 -0.0749  0.0552
 3614SOL    HW111741   2.853   3.842   1.682  3.3145 -1.1822  2.6258
 3614SOL    HW211742   2.851   4.004   1.661 -2.3049 -1.3489  0.1058
 3615SOL     OW11743   6.606   2.149   3.102 -0.7498 -0.0797 -0.4296
 3615SOL    HW111744   6.672   2.075   3.092 -0.7048  0.0667 -1.3187
 3615SOL    HW211745   6.529   2.118   3.157  0.4599  0.0293  1.3876
 3616SOL     OW11746   0.721   5.746   6.261  0.2748 -0.0775 -0.0603
 3616SOL    HW111747   0.704   5.671   6.325 -0.3113  1.8979  2.2542
 3616SOL    HW211748   0.653   5.742   6.187  0.6055 -2.0842 -0.3271
 3617SOL     OW11749   2.224   1.804   6.171 -0.4448  0.4810  0.1358
 3617SOL    HW111750   2.242   1.732   6.238  0.5059 -1.0050 -1.5862
 3617SOL    HW211751   2.127   1.826   6.171 -0.5354  0.1344  1.6139
 3618SOL     OW11752   1.142   5.943   0.535 -0.1020 -0.2641  0.0877
 3618SOL    HW111753   1.113   5.867   0.478  0.3739  1.0434 -2.0193
 3618SOL    HW211754   1.068   5.969   0.597 -2.1128  0.4984 -2.4183
 3619SOL     OW11755   1.701   1.666   5.965  0.0306 -0.1439  0.2844
 3619SOL    HW111756   1.797   1.655   5.991  0.0660 -1.8422 -0.4407
 3619SOL    HW211757   1.682   1.611   5.884 -1.1044  1.7286 -0.7841
 3620SOL     OW11758   0.285   0.521   0.365  0.5223  0.0766  0.6771
 3620SOL    HW111759   0.208   0.510   0.303  1.2757 -0.0191 -0.2634
 3620SOL    HW211760   0.324   0.431   0.387  1.5713  0.2415 -0.4281
 3621SOL     OW11761   2.439   3.969   0.084  0.0984 -0.0115 -0.1964
 3621SOL    HW111762   2.394   4.016   0.160  2.1276  0.1168  1.0025
 3621SOL    HW211763   2.532   4.004   0.074  0.5295 -1.4214 -1.4736
 3622SOL     OW11764   0.850   5.403   0.857 -0.4399 -0.4027  0.3686
 3622SOL    HW111765   0.770   5.363   0.902 -1.0459  2.5962  2.1963
 3622SOL    HW211766   0.881   5.342   0.783 -4.5764 -1.5474 -0.6589
 3623SOL     OW11767   1.093   2.550   0.647 -0.0624  0.0465 -0.0810
 3623SOL    HW111768   1.080   2.500   0.733  1.7836  1.4857  1.1336
 3623SOL    HW211769   1.191   2.569   0.634 -0.4178  0.8837 -1.9221
 3624SOL     OW11770   4.689   0.606   5.509 -0.0140 -0.2418 -0.3446
 3624SOL    HW111771   4.725   0.694   5.478  2.0038 -0.8148  0.2211
 3624SOL    HW211772   4.602   0.620   5.557  0.2374  1.4222 -0.3342
 3625SOL     OW11773   5.725   0.745   6.990  0.2653  0.3377  0.4365
 3625SOL    HW111774   5.805   0.744   7.050  1.2315  1.6916 -0.7622
 3625SOL    HW211775   5.712   0.837   6.953 -0.4063 -0.3917 -1.2579
 3626SOL     OW11776   2.128   5.083   6.912 -0.5190 -0.3242  0.6412
 3626SOL    HW111777   2.198   5.122   6.853 -1.6618 -0.5506 -0.9224
 3626SOL    HW211778   2.092   4.999   6.870 -2.4028  0.3101  0.9169
 3627SOL     OW11779   6.994   6.540   2.190 -0.3421  1.0867  0.0521
 3627SOL    HW111780   6.970   6.486   2.272  2.3769 -0.1515  0.1331
 3627SOL    HW211781   6.989   6.481   2.110 -0.2517  1.5421 -0.2889
 3628SOL     OW11782   6.616   5.112   1.261  0.0936  0.1771  0.3867
 3628SOL    HW111783   6.581   5.023   1.293  3.2535 -0.3974  2.8190
 3628SOL    HW211784   6.597   5.182   1.330 -2.6590  1.6314 -1.6532
 3629SOL     OW11785   0.901   5.970   2.008 -0.2538 -0.0016 -0.0483
 3629SOL    HW111786   0.884   5.994   2.103  2.0043 -1.7301  0.8917
 3629SOL    HW211787   0.887   5.872   1.995 -1.5905  0.3693 -1.8080
 3630SOL     OW11788   2.348   0.190   2.108 -0.3094 -0.0823 -0.4530
 3630SOL    HW111789   2.297   0.233   2.183 -1.8511  0.0064 -1.5167
 3630SOL    HW211790   2.440   0.230   2.104 -1.1618  2.0102 -0.4212
 3631SOL     OW11791   5.787   0.620   5.862  0.1618 -0.1284  0.6840
 3631SOL    HW111792   5.794   0.676   5.780  1.3307  0.3027  1.0482
 3631SOL    HW211793   5.837   0.535   5.849 -1.3138 -0.9643  0.2602
 3632SOL     OW11794   0.791   0.156   5.987  0.1484  0.0465 -0.2453
 3632SOL    HW111795   0.790   0.076   5.926 -1.0218 -0.4729  0.4283
 3632SOL    HW211796   0.773   0.238   5.933  0.8135 -0.2054 -0.8617
 3633SOL     OW11797   3.424   6.671   2.826  0.2713  0.4859 -0.1001
 3633SOL    HW111798   3.434   6.655   2.924 -0.8313 -0.1697 -0.0754
 3633SOL    HW211799   3.343   6.728   2.809  0.1677  0.1820 -0.6553
 3634SOL     OW11800   1.190   5.137   3.236 -0.0302 -0.3832  0.0260
 3634SOL    HW111801   1.175   5.213   3.299 -1.1286 -0.6609  0.1198
 3634SOL    HW211802   1.247   5.168   3.160  0.3140  0.2778  0.5394
 3635SOL     OW11803   6.567   1.534   3.400 -0.0129  0.4776 -0.2269
 3635SOL    HW111804   6.629   1.514   3.476  0.5963  1.6118 -0.3921
 3635SOL    HW211805   6.621   1.547   3.317 -0.6442 -0.3616 -0.7802
 3636SOL     OW11806   4.302   4.126   1.210 -0.4014 -0.4847  0.2052
 3636SOL    HW111807   4.305   4.150   1.113 -0.8811 -1.4960 -0.0810
 3636SOL    HW211808   4.378   4.170   1.258  1.1082 -1.6003 -1.0327
 3637SOL     OW11809   2.853   6.853   0.473  0.2833 -0.2006 -0.2111
 3637SOL    HW111810   2.756   6.873   0.467  0.1707 -0.4619  0.6083
 3637SOL    HW211811   2.905   6.939   0.475  0.0921 -0.0645 -0.8600
 3638SOL     OW11812   1.290   5.885   4.775  0.3114 -0.2366 -0.0452
 3638SOL    HW111813   1.374   5.851   4.816  0.5253  2.3388  1.9609
 3638SOL    HW211814   1.211   5.849   4.825  0.2588 -1.5087 -1.0081
 3639SOL     OW11815   5.700   2.258   4.505 -0.2698  0.4705  0.0158
 3639SOL    HW111816   5.625   2.323   4.517 -1.9706 -1.0943 -1.4458
 3639SOL    HW211817   5.662   2.169   4.479  1.9735 -1.0398  1.5679
 3640SOL     OW11818   2.211   4.011   3.290 -0.0113 -0.3999 -0.0327
 3640SOL    HW111819   2.295   4.027   3.237  1.1624 -0.2783  1.7580
 3640SOL    HW211820   2.162   3.933   3.252  0.7953 -0.3418 -1.2558
 3641SOL     OW11821   2.951   1.875   2.245  0.1430 -0.3187 -0.1446
 3641SOL    HW111822   2.925   1.818   2.167 -2.1156  1.1495 -0.5678
 3641SOL    HW211823   3.016   1.944   2.215  1.0556 -1.1688 -0.1670
 3642SOL     OW11824   4.486   0.333   1.082  0.0712 -0.3893 -0.2676
 3642SOL    HW111825   4.551   0.332   1.006 -0.9460 -1.2712 -1.1691
 3642SOL    HW211826   4.444   0.424   1.088  0.7121 -0.0903 -0.2677
 3643SOL     OW11827   0.374   5.264   1.038  0.1032 -0.1885 -0.1195
 3643SOL    HW111828   0.291   5.302   1.077 -0.8921  0.7520 -2.9225
 3643SOL    HW211829   0.353   5.181   0.986  1.1974 -0.8191  0.3900
 3644SOL     OW11830   5.307   5.028   5.068  0.5118 -0.3994 -0.4036
 3644SOL    HW111831   5.325   5.027   5.166  2.1480  0.0339 -0.6692
 3644SOL    HW211832   5.267   5.115   5.042 -0.9864 -0.9315  0.0242
 3645SOL     OW11833   6.437   1.754   5.365  0.1239 -0.6190  0.3950
 3645SOL    HW111834   6.363   1.757   5.433  0.1142 -0.0213  0.3691
 3645SOL    HW211835   6.421   1.679   5.301 -0.8829 -0.0152 -0.0769
 3646SOL     OW11836   6.912   6.253   5.934 -0.3323 -1.2066  0.2012
 3646SOL    HW111837   6.990   6.256   5.870  0.6252 -0.3864  1.3735
 3646SOL    HW211838   6.946   6.254   6.028 -1.7893  0.8760  0.7753
 3647SOL     OW11839   1.906   0.482   3.399 -0.2286  0.4993  0.1250
 3647SOL    HW111840   1.852   0.563   3.425  0.7034  0.4465  2.4005
 3647SOL    HW211841   2.002   0.508   3.388 -0.2245  0.0396 -1.0387
 3648SOL     OW11842   5.581   1.737   3.184  0.3185 -1.1365 -0.1885
 3648SOL    HW111843   5.676   1.764   3.203  0.0236  0.6629 -1.0519
 3648SOL    HW211844   5.577   1.638   3.170  2.1304 -1.2119 -0.4395
 3649SOL     OW11845   1.623   0.903   2.148 -0.7266  0.2136  0.8009
 3649SOL    HW111846   1.679   0.986   2.153 -1.2485  0.8038 -1.8577
 3649SOL    HW211847   1.580   0.897   2.058 -4.0698 -0.7830  2.3027
 3650SOL     OW11848   2.563   5.162   5.339  0.3926  0.3676  0.5622
 3650SOL    HW111849   2.619   5.080   5.348  0.7428  0.7029  1.5405
 3650SOL    HW211850   2.621   5.243   5.345 -0.1166  0.7090  0.9890
 3651SOL     OW11851   3.308   4.622   0.816 -0.2525 -0.1027 -0.4467
 3651SOL    HW111852   3.349   4.621   0.907 -1.1311 -0.6779 -0.0408
 3651SOL    HW211853   3.228   4.683   0.816  0.6164  1.0750 -1.2480
 3652SOL     OW11854   0.661   3.622   1.196  0.1847 -0.1534 -0.1247
 3652SOL    HW111855   0.629   3.609   1.102 -0.8416  0.7384  0.0790
 3652SOL    HW211856   0.660   3.534   1.244 -0.8971 -0.3448 -0.4668
 3653SOL     OW11857   0.696   4.654   6.623  0.4123  0.1012  0.1679
 3653SOL    HW111858   0.727   4.578   6.681 -0.7384  0.0977  0.8198
 3653SOL    HW211859   0.638   4.618   6.550 -1.1536  0.4364  1.2057
 3654SOL     OW11860   5.790   3.947   3.104 -0.1437  0.1182 -0.5200
 3654SOL    HW111861   5.779   3.881   3.178  1.4015  0.9791  0.5568
 3654SOL    HW211862   5.872   4.002   3.121 -1.1729  2.0885 -1.5363
 3655SOL     OW11863   1.032   3.443   0.781 -0.6007 -0.2990  0.3683
 3655SOL    HW111864   0.958   3.507   0.803  0.0026  0.5004  0.1222
 3655SOL    HW211865   1.012   3.354   0.822 -0.4555  0.6004  2.5317
 3656SOL     OW11866   1.101   0.708   4.008 -0.4082 -0.0402  0.0080
 3656SOL    HW111867   1.075   0.762   3.928 -0.9770 -0.5758 -0.1756
 3656SOL    HW211868   1.029   0.641   4.028  0.6340 -1.3005 -0.2727
 3657SOL     OW11869   1.228   1.489   0.113  0.6271 -1.0995 -0.3057
 3657SOL    HW111870   1.238   1.564   0.178  2.2094 -1.4263 -0.1218
 3657SOL    HW211871   1.253   1.402   0.157  0.2744 -1.5265 -0.9287
 3658SOL     OW11872   6.929   4.845   0.225  0.5486 -0.2902  0.7167
 3658SOL    HW111873   6.869   4.767   0.210  0.2600  0.2657 -1.2258
 3658SOL    HW211874   6.992   4.855   0.148 -0.3223  2.1809  0.2289
 3659SOL     OW11875   1.075   4.955   6.971  0.5019  0.1740  0.0277
 3659SOL    HW111876   1.082   5.039   7.024 -2.2626  0.1462  0.5551
 3659SOL    HW211877   0.989   4.909   6.991  0.4485 -1.1262 -2.6717
 3660SOL     OW11878   6.868   6.186   4.743  1.1356 -0.2144  0.1274
 3660SOL    HW111879   6.901   6.278   4.763 -0.9356  1.1184 -1.9903
 3660SOL    HW211880   6.938   6.136   4.692  1.9860  0.4727  0.5908
 3661SOL     OW11881   6.245   3.669   1.207 -0.3056  0.8156 -0.0423
 3661SOL    HW111882   6.339   3.641   1.227 -0.4571  0.8380  0.7627
 3661SOL    HW211883   6.206   3.609   1.137 -0.2057 -0.2189  0.7484
 3662SOL     OW11884   2.468   2.596   4.507  0.0993  0.0951 -0.2137
 3662SOL    HW111885   2.369   2.583   4.506  0.1041  0.0739 -0.5979
 3662SOL    HW211886   2.498   2.615   4.600 -0.4288  1.2741 -0.2566
 3663SOL     OW11887   1.824   2.833   2.588  0.0037  0.4276  0.0249
 3663SOL    HW111888   1.914   2.839   2.544 -0.1596  0.0681 -0.3640
 3663SOL    HW211889   1.832   2.865   2.683  0.3482  1.2765 -0.2713
 3664SOL     OW11890   6.420   2.008   4.304  0.3856  0.1296  0.0442
 3664SOL    HW111891   6.322   1.992   4.297  0.1883  1.2430  0.0985
 3664SOL    HW211892   6.455   1.963   4.386  0.0620 -0.8524 -0.3369
 3665SOL     OW11893   0.469   2.040   0.540 -0.0446 -0.2715 -0.4227
 3665SOL    HW111894   0.403   2.089   0.597 -1.6158 -2.9864  0.2753
 3665SOL    HW211895   0.561   2.057   0.574 -0.4192  2.3560 -0.4497
 3666SOL     OW11896   3.463   6.657   0.014 -0.3426  0.3605 -0.3409
 3666SOL    HW111897   3.448   6.569  -0.031  0.3090  0.5166 -0.8777
 3666SOL    HW211898   3.378   6.710   0.011 -0.7293 -0.2169 -0.0519
 3667SOL     OW11899   0.267   3.624   7.012  0.3635 -0.3352  0.2272
 3667SOL    HW111900   0.297   3.688   6.942 -0.3484 -1.9755 -1.6828
 3667SOL    HW211901   0.323   3.541   7.007  0.4647 -0.4018  1.8161
 3668SOL     OW11902   0.158   1.543   5.006 -0.5026 -0.3707  0.1527
 3668SOL    HW111903   0.254   1.523   4.986  0.2575 -0.9194  3.6186
 3668SOL    HW211904   0.151   1.588   5.095 -3.3576  1.8344 -1.0219
 3669SOL     OW11905   2.961   6.728   4.235  0.2880  0.5664  0.2505
 3669SOL    HW111906   3.037   6.746   4.299 -0.0057  0.6525  0.5788
 3669SOL    HW211907   2.909   6.812   4.221  0.3105  0.5303 -0.0534
 3670SOL     OW11908   0.135   0.067   5.677  0.5803 -0.4101  0.3268
 3670SOL    HW111909   0.182   0.002   5.618  1.1089 -1.8149  2.1804
 3670SOL    HW211910   0.177   0.157   5.667  1.4326 -0.8842 -0.5660
 3671SOL     OW11911   4.824   6.873   3.602  0.5132  0.5911  0.0541
 3671SOL    HW111912   4.918   6.886   3.571  0.5200 -1.8166 -1.1526
 3671SOL    HW211913   4.822   6.868   3.702  1.4108  2.0686  0.1806
 3672SOL     OW11914   5.430   3.864   5.503 -0.3350 -0.0095  0.5451
 3672SOL    HW111915   5.475   3.813   5.430 -0.2524 -3.1405  2.5955
 3672SOL    HW211916   5.474   3.954   5.514  1.1826 -0.4285 -1.6298
 3673SOL     OW11917   1.824   6.978   2.030 -0.9523  0.2105 -0.2336
 3673SOL    HW111918   1.798   6.921   1.952 -2.1111 -0.4479  0.5943
 3673SOL    HW211919   1.744   6.995   2.087  0.0960 -0.3882  1.4970
 3674SOL     OW11920   6.376   1.915   6.172 -0.3399 -0.3680  0.0441
 3674SOL    HW111921   6.336   1.869   6.093 -1.7663  1.5966 -0.4518
 3674SOL    HW211922   6.324   1.893   6.254  0.8781 -2.0573  0.4167
 3675SOL     OW11923   4.851   4.237   2.537 -0.4636  0.2381 -0.2289
 3675SOL    HW111924   4.876   4.157   2.483  2.0964  0.8249 -0.0179
 3675SOL    HW211925   4.863   4.319   2.482 -2.1115  0.5821 -0.1223
 3676SOL     OW11926   5.512   1.081   4.518 -0.0794  0.0347  0.3946
 3676SOL    HW111927   5.608   1.078   4.547  0.8590  2.8335 -1.9829
 3676SOL    HW211928   5.505   1.058   4.421 -1.7205  0.6796  0.3252
 3677SOL     OW11929   1.780   4.516   6.817  0.1440 -0.4114  0.1974
 3677SOL    HW111930   1.878   4.510   6.838  0.2746  1.6799  0.3883
 3677SOL    HW211931   1.728   4.465   6.886  1.0245 -0.5288  0.7943
 3678SOL     OW11932   6.312   6.173   1.807 -0.1577  0.8941  0.1207
 3678SOL    HW111933   6.403   6.134   1.796  0.4515  1.6446  2.0488
 3678SOL    HW211934   6.308   6.224   1.893 -1.9065  2.2782 -0.7150
 3679SOL     OW11935   5.480   3.510   0.676  0.3660  0.1128 -0.0007
 3679SOL    HW111936   5.455   3.596   0.631 -0.8734 -1.3568 -2.2975
 3679SOL    HW211937   5.401   3.475   0.727 -0.0820 -0.9931 -1.3852
 3680SOL     OW11938   1.653   3.375   4.411  0.0726  0.1154 -0.3664
 3680SOL    HW111939   1.601   3.333   4.336  3.8651 -0.3679 -2.9758
 3680SOL    HW211940   1.633   3.326   4.496 -2.3971 -1.0549 -1.5031
 3681SOL     OW11941   6.986   3.983   2.184  0.3290  0.5130 -0.1571
 3681SOL    HW111942   7.050   3.950   2.254 -0.6262 -0.7988  0.1251
 3681SOL    HW211943   7.027   3.972   2.094  0.5701 -0.1864  0.0321
 3682SOL     OW11944   2.598   5.847   6.424  0.6217  0.5505 -0.2555
 3682SOL    HW111945   2.502   5.873   6.428 -0.0542 -1.6875 -0.4379
 3682SOL    HW211946   2.609   5.756   6.465  2.5192  0.3983 -1.0151
 3683SOL     OW11947   3.523   0.533   3.972 -0.2946 -0.3036  0.3976
 3683SOL    HW111948   3.572   0.542   4.058 -1.7971 -1.6166  1.4446
 3683SOL    HW211949   3.473   0.617   3.952 -0.4223 -0.2055  1.1183
 3684SOL     OW11950   5.165   1.424   4.337  0.0612 -0.1825  0.0385
 3684SOL    HW111951   5.162   1.351   4.405 -0.7541  0.5113  0.7788
 3684SOL    HW211952   5.207   1.390   4.253  0.6010 -1.2092  0.7006
 3685SOL     OW11953   4.780   4.646   2.207  0.4692 -0.3213 -0.4539
 3685SOL    HW111954   4.695   4.610   2.169  0.7547  0.5391 -1.9854
 3685SOL    HW211955   4.813   4.722   2.151  2.9283 -1.4368 -0.6487
 3686SOL     OW11956   4.651   2.033   4.133  0.0435  0.1315 -0.0215
 3686SOL    HW111957   4.588   1.967   4.176  0.7013  0.1111  0.9334
 3686SOL    HW211958   4.702   2.081   4.204  0.5771  0.6796 -0.7678
 3687SOL     OW11959   0.233   4.624   0.627 -0.0056  0.0750 -0.0242
 3687SOL    HW111960   0.160   4.689   0.606  0.3715  0.9834  1.3240
 3687SOL    HW211961   0.294   4.617   0.548 -0.1021  1.3173 -0.2313
 3688SOL     OW11962   5.342   6.267   6.238 -0.3367  0.6800 -0.3313
 3688SOL    HW111963   5.408   6.203   6.200  0.3057  2.0500 -1.5980
 3688SOL    HW211964   5.298   6.318   6.164 -1.4912  1.0804  0.6002
 3689SOL     OW11965   6.902   0.731   5.806 -0.3890  0.8739 -0.8122
 3689SOL    HW111966   6.979   0.670   5.786  0.5010  2.0264 -0.9923
 3689SOL    HW211967   6.905   0.758   5.902 -1.6487 -0.5136 -0.3431
 3690SOL     OW11968   5.265   0.212   0.051  0.1740  0.1512 -0.6239
 3690SOL    HW111969   5.209   0.249  -0.023 -2.2252 -0.7518  0.6224
 3690SOL    HW211970   5.362   0.224   0.029 -0.2892 -2.1290 -5.0135
 3691SOL     OW11971   1.954   4.063   2.584  0.1802 -0.3323 -0.0427
 3691SOL    HW111972   2.019   4.120   2.634 -0.7266  0.5467  0.1627
 3691SOL    HW211973   1.951   4.092   2.488 -1.2246  0.8527  0.3359
 3692SOL     OW11974   2.971   3.883   5.249  0.2684  0.9316  0.0787
 3692SOL    HW111975   2.940   3.834   5.168 -0.6946  0.7492  0.5388
 3692SOL    HW211976   3.037   3.827   5.298  0.0791  0.6006 -0.0404
 3693SOL     OW11977   6.685   3.668   3.127  0.2924 -0.2678 -0.4477
 3693SOL    HW111978   6.675   3.618   3.041 -0.8793 -1.2546  0.2252
 3693SOL    HW211979   6.660   3.608   3.203  1.1819  0.6291  0.5719
 3694SOL     OW11980   4.612   2.960   6.040  0.1080  0.4105  0.1071
 3694SOL    HW111981   4.515   2.981   6.055 -0.1922 -0.5817 -0.3691
 3694SOL    HW211982   4.656   3.037   5.994 -0.7034  0.4451 -0.6319
 3695SOL     OW11983   6.575   4.589   1.832 -0.0442  0.2346  0.5121
 3695SOL    HW111984   6.513   4.655   1.790  1.0546 -0.3889 -2.2984
 3695SOL    HW211985   6.525   4.504   1.851 -0.5366  0.4673  0.2796
 3696SOL     OW11986   4.874   0.491   5.676 -0.4705  0.2663  0.0208
 3696SOL    HW111987   4.810   0.544   5.621  0.1116  0.4233 -0.5203
 3696SOL    HW211988   4.883   0.534   5.766 -1.2538  0.1378  0.1675
 3697SOL     OW11989   2.248   4.774   5.980 -1.0531 -0.0795 -0.0116
 3697SOL    HW111990   2.268   4.698   6.041  0.3706  1.5121  1.6326
 3697SOL    HW211991   2.156   4.809   5.998 -0.2945  1.0105  2.0370
 3698SOL     OW11992   4.399   1.310   2.631 -0.3474  0.6157  0.2989
 3698SOL    HW111993   4.399   1.211   2.617  0.1331  0.6385  0.1298
 3698SOL    HW211994   4.335   1.333   2.704 -0.7438  0.2166  0.0829
 3699SOL     OW11995   4.603   6.399   3.656  0.1107 -0.0846  0.1941
 3699SOL    HW111996   4.594   6.353   3.568 -0.6025 -1.0654  0.7585
 3699SOL    HW211997   4.640   6.490   3.642  1.4742 -0.7814 -0.9627
 3700SOL     OW11998   0.678   4.622   1.492  0.1554 -0.2740  0.1915
 3700SOL    HW111999   0.688   4.721   1.504  0.5965 -0.3418  0.4177
 3700SOL    HW212000   0.604   4.604   1.427 -1.2408  0.1448  1.6050
 3701SOL     OW12001   5.477   5.218   2.705  0.0879 -0.1218  0.9616
 3701SOL    HW112002   5.532   5.230   2.788 -1.7020  1.8916  1.9619
 3701SOL    HW212003   5.466   5.306   2.659 -1.1840 -0.7130  0.0670
 3702SOL     OW12004   1.098   2.147   0.595  0.6507 -0.2845  0.8681
 3702SOL    HW112005   1.000   2.142   0.579  0.5773  0.3588  1.0630
 3702SOL    HW212006   1.118   2.125   0.691  0.6266  0.2168  0.9906
 3703SOL     OW12007   2.517   1.829   4.578 -0.1304 -0.3598  0.0776
 3703SOL    HW112008   2.572   1.754   4.614  1.1606  1.4942  2.2745
 3703SOL    HW212009   2.577   1.899   4.539 -1.1656  0.3374 -0.3119
 3704SOL     OW12010   1.996   1.151   2.949 -0.8924  0.1774  0.1955
 3704SOL    HW112011   2.090   1.177   2.927 -1.6747  2.1446 -1.1384
 3704SOL    HW212012   1.994   1.057   2.982  1.6134  0.3178  0.9553
 3705SOL     OW12013   4.309   0.222   5.826  0.5177  0.2846 -0.4965
 3705SOL    HW112014   4.360   0.174   5.897 -1.7776 -0.1541  0.9644
 3705SOL    HW212015   4.312   0.169   5.741  0.2953 -1.0912  0.3223
 3706SOL     OW12016   1.127   4.795   1.365 -0.3362  0.1219  0.1747
 3706SOL    HW112017   1.085   4.707   1.341  0.4809  0.0473 -1.0900
 3706SOL    HW212018   1.077   4.869   1.321  0.5358  0.0675 -0.9541
 3707SOL     OW12019   3.089   6.377   3.856 -0.2743 -0.3520 -0.1329
 3707SOL    HW112020   3.158   6.449   3.864  0.3698 -1.0332  0.6790
 3707SOL    HW212021   3.124   6.293   3.898 -1.2412 -0.9750 -0.5416
 3708SOL     OW12022   4.842   3.099   5.546  0.5177 -0.0715 -0.1371
 3708SOL    HW112023   4.895   3.056   5.473  0.9054 -0.9467  0.6288
 3708SOL    HW212024   4.828   3.196   5.525 -1.1335 -0.7133 -2.3304
 3709SOL     OW12025   1.191   0.215   4.924  0.1857  0.0018 -0.3710
 3709SOL    HW112026   1.198   0.154   4.845  1.0994  0.5408 -0.7189
 3709SOL    HW212027   1.196   0.310   4.894 -0.0925  0.2277  0.2796
 3710SOL     OW12028   5.440   3.834   6.249  0.5237 -0.3507  0.5730
 3710SOL    HW112029   5.452   3.885   6.334  0.3823  1.3731 -0.3721
 3710SOL    HW212030   5.529   3.824   6.204  0.8324 -2.5478  1.5712
 3711SOL     OW12031   2.432   6.280   2.845  0.0558  0.0946  0.6550
 3711SOL    HW112032   2.429   6.222   2.926  0.0330 -0.6799  0.1123
 3711SOL    HW212033   2.464   6.226   2.766  1.5779  1.2054  0.4631
 3712SOL     OW12034   5.253   4.619   6.759 -0.3242  0.8394  0.3751
 3712SOL    HW112035   5.173   4.678   6.770 -1.0175  0.4928 -2.1111
 3712SOL    HW212036   5.223   4.525   6.746  0.6897  0.1737  2.4053
 3713SOL     OW12037   3.930   5.763   3.389 -0.1722  0.2882 -0.2794
 3713SOL    HW112038   3.928   5.664   3.404  1.5072  0.3463  0.6239
 3713SOL    HW212039   3.981   5.782   3.305 -0.4503  0.3890 -0.4250
 3714SOL     OW12040   1.558   0.649   3.246  0.1267 -0.5074 -0.4709
 3714SOL    HW112041   1.595   0.680   3.333 -1.0781  1.4175 -0.5789
 3714SOL    HW212042   1.485   0.582   3.263 -1.6082  1.4355  0.2077
 3715SOL     OW12043   2.246   4.747   5.114  0.4855 -0.3950 -0.7326
 3715SOL    HW112044   2.168   4.697   5.152  0.4884 -0.3790 -0.7054
 3715SOL    HW212045   2.328   4.690   5.121  0.6680 -0.0414  0.1177
 3716SOL     OW12046   3.121   2.615   6.571  0.1653  0.2193 -0.2599
 3716SOL    HW112047   3.059   2.555   6.622  0.0912 -0.6735 -1.3484
 3716SOL    HW212048   3.206   2.626   6.622 -0.6312  0.9658  0.9663
 3717SOL     OW12049   6.743   5.645   1.748  0.0375  0.1229  0.2529
 3717SOL    HW112050   6.649   5.615   1.735 -0.0358  0.3116  0.3452
 3717SOL    HW212051   6.750   5.744   1.733 -0.0199  0.3238  1.4507
 3718SOL     OW12052   5.485   6.275   2.087  0.3561 -0.1887 -0.6161
 3718SOL    HW112053   5.574   6.263   2.131 -0.5270 -0.1777  1.2751
 3718SOL    HW212054   5.488   6.238   1.994  1.3400 -3.5433  0.6045
 3719SOL     OW12055   4.750   5.099   4.933 -0.2936  0.2698  0.3234
 3719SOL    HW112056   4.696   5.134   5.009 -1.0618 -0.5035  0.1513
 3719SOL    HW212057   4.832   5.155   4.922 -0.0165  0.2407  1.9004
 3720SOL     OW12058   2.930   4.202   1.771 -0.2709 -0.2538 -0.0707
 3720SOL    HW112059   3.016   4.195   1.720 -0.1430  0.3836  0.0480
 3720SOL    HW212060   2.925   4.292   1.815  0.1193 -1.1484  1.9182
 3721SOL     OW12061   6.066   6.832   4.582 -0.9710  0.0478  0.2091
 3721SOL    HW112062   6.125   6.873   4.652 -1.4861 -0.0424  0.7007
 3721SOL    HW212063   6.118   6.763   4.532 -0.6214  0.0490  0.5647
 3722SOL     OW12064   5.411   6.038   1.592  0.0481  0.6692  0.2095
 3722SOL    HW112065   5.337   6.079   1.645 -0.2999  1.4519 -0.8430
 3722SOL    HW212066   5.376   6.006   1.504  0.7473  0.0326  0.1506
 3723SOL     OW12067   6.564   0.947   0.638  0.7373 -1.0068 -0.2548
 3723SOL    HW112068   6.564   0.873   0.571  2.4859 -0.5724 -0.7959
 3723SOL    HW212069   6.649   0.943   0.691  1.4286  1.2708 -1.0711
 3724SOL     OW12070   3.674   1.356   0.892  0.1066  0.4390  0.0386
 3724SOL    HW112071   3.591   1.412   0.895  0.6445  1.2545  0.3032
 3724SOL    HW212072   3.699   1.338   0.797 -0.7539 -0.4127 -0.0383
 3725SOL     OW12073   6.461   5.540   5.428  0.8816 -0.1780 -0.3693
 3725SOL    HW112074   6.456   5.462   5.365 -1.2411 -1.3060  1.0723
 3725SOL    HW212075   6.518   5.612   5.387  0.5911 -1.3173 -3.0081
 3726SOL     OW12076   3.502   5.512   2.078  0.1140  0.0000 -0.9333
 3726SOL    HW112077   3.441   5.567   2.134  1.7592  1.2060 -0.2500
 3726SOL    HW212078   3.532   5.431   2.129  0.3662  0.2723 -0.6459
 3727SOL     OW12079   1.473   5.071   0.136  0.6026  0.1044  0.0473
 3727SOL    HW112080   1.440   5.110   0.051  1.1645  1.2810  0.3474
 3727SOL    HW212081   1.563   5.029   0.122  0.5642  0.0376  0.0008
 3728SOL     OW12082   4.749   0.641   0.390 -0.1926 -0.0789 -0.5275
 3728SOL    HW112083   4.773   0.570   0.456 -0.2693  1.5834  1.3678
 3728SOL    HW212084   4.828   0.661   0.332  0.6952  0.1435  0.7149
 3729SOL     OW12085   4.732   6.049   1.436  0.3366 -0.3057  0.2867
 3729SOL    HW112086   4.713   6.142   1.403  1.4336  0.1994  1.0252
 3729SOL    HW212087   4.684   6.035   1.523  0.8450 -0.1345  0.5940
 3730SOL     OW12088   1.136   5.723   6.251  0.3098  0.2407  0.1371
 3730SOL    HW112089   1.142   5.791   6.324  0.6538  0.3596 -0.0003
 3730SOL    HW212090   1.082   5.760   6.175  2.4257  1.2849 -0.9366
 3731SOL     OW12091   2.224   2.888   1.154  0.4589 -0.8086 -0.4109
 3731SOL    HW112092   2.124   2.885   1.156  0.4215 -0.0435 -1.0103
 3731SOL    HW212093   2.257   2.940   1.232  0.2211  2.0570 -2.0986
 3732SOL     OW12094   0.514   4.515   3.742  0.0443  0.1922 -0.5994
 3732SOL    HW112095   0.440   4.511   3.675  0.1122 -0.8039 -0.6445
 3732SOL    HW212096   0.483   4.474   3.828  0.8898 -1.4040 -1.0031
 3733SOL     OW12097   2.479   6.136   6.291  0.2246  0.0954  0.2605
 3733SOL    HW112098   2.571   6.152   6.256  0.0700 -1.7539 -1.1103
 3733SOL    HW212099   2.481   6.063   6.359 -0.3891 -0.8479 -0.7199
 3734SOL     OW12100   1.636   4.879   6.253  0.0132 -0.7335  0.1922
 3734SOL    HW112101   1.641   4.978   6.264  0.3397 -0.5745 -1.1740
 3734SOL    HW212102   1.552   4.845   6.295 -0.4885  0.2383  0.0049
 3735SOL     OW12103   1.843   4.782   2.571  0.2803 -0.0921  0.8515
 3735SOL    HW112104   1.926   4.807   2.520 -0.0710  3.5315  1.7645
 3735SOL    HW212105   1.850   4.687   2.602  2.4667 -1.0244 -2.0409
 3736SOL     OW12106   0.631   2.943   3.846  0.0250  0.1197  0.3540
 3736SOL    HW112107   0.728   2.946   3.824 -0.0457 -0.8791 -0.1708
 3736SOL    HW212108   0.613   2.866   3.908 -0.1827  1.3339  1.8797
 3737SOL     OW12109   5.754   0.060   5.279 -0.1353  0.4225  0.3002
 3737SOL    HW112110   5.667   0.067   5.327  0.9500 -0.0826  2.5085
 3737SOL    HW212111   5.789  -0.033   5.286  1.1299  0.8834  0.5432
 3738SOL     OW12112   1.129   0.376   0.118  0.2130 -0.4574 -0.1857
 3738SOL    HW112113   1.131   0.450   0.051  0.9536 -0.1964  0.1172
 3738SOL    HW212114   1.165   0.409   0.205  0.2281 -1.0783  0.0464
 3739SOL     OW12115   2.847   3.411   2.089  0.0468 -0.1487 -0.5654
 3739SOL    HW112116   2.748   3.421   2.089  0.1591  1.1296 -1.5067
 3739SOL    HW212117   2.886   3.467   2.162  0.1917  0.9642 -1.4655
 3740SOL     OW12118   2.800   2.524   1.255 -0.0087  0.0702  0.0977
 3740SOL    HW112119   2.705   2.531   1.284 -0.0779  1.1159 -0.3472
 3740SOL    HW212120   2.810   2.448   1.190 -0.3079 -0.7507  0.9747
 3741SOL     OW12121   6.000   4.975   5.834  0.5918  0.1788  0.2472
 3741SOL    HW112122   5.925   4.914   5.809  2.7884 -2.0028 -1.5609
 3741SOL    HW212123   6.024   4.961   5.930  2.2848 -3.4907 -0.5356
 3742SOL     OW12124   5.230   1.493   5.759 -0.6576 -0.0379  0.4828
 3742SOL    HW112125   5.249   1.464   5.853  1.2602 -1.3121 -0.2408
 3742SOL    HW212126   5.264   1.586   5.746  1.6933 -0.8534  0.3392
 3743SOL     OW12127   5.541   1.733   3.824  0.4345 -0.6592  0.2233
 3743SOL    HW112128   5.574   1.682   3.903  0.7600  0.5069  0.8694
 3743SOL    HW212129   5.620   1.768   3.772  0.2697  0.9230  0.9667
 3744SOL     OW12130   2.605   5.339   0.494 -0.2409  0.3436  0.3471
 3744SOL    HW112131   2.527   5.290   0.457 -0.7801  0.5665  1.1760
 3744SOL    HW212132   2.689   5.290   0.470 -0.2049  2.0518 -3.9087
 3745SOL     OW12133   2.616   4.116   1.385  0.5182 -0.1685  0.0405
 3745SOL    HW112134   2.694   4.084   1.330  1.0969 -0.0746  0.7777
 3745SOL    HW212135   2.641   4.112   1.482 -0.1028  0.6753  0.2397
 3746SOL     OW12136   6.710   0.861   5.402  0.6019 -0.1088  0.6115
 3746SOL    HW112137   6.673   0.945   5.362  2.3554  0.9789  1.1642
 3746SOL    HW212138   6.635   0.803   5.433 -0.6649  1.0008 -0.2621
 3747SOL     OW12139   6.249   1.661   1.360 -1.0070  0.5063 -0.2582
 3747SOL    HW112140   6.279   1.573   1.321  0.1854  0.0604  1.5614
 3747SOL    HW212141   6.277   1.735   1.298  2.8109  0.0060  0.6088
 3748SOL     OW12142   1.508   5.367   4.823  0.2472  0.3554 -0.5600
 3748SOL    HW112143   1.542   5.287   4.873  1.6796  0.1918 -1.7143
 3748SOL    HW212144   1.414   5.387   4.852  0.7018 -0.2508  1.5073
 3749SOL     OW12145   3.480   2.519   0.562  0.3244 -0.0944  0.4207
 3749SOL    HW112146   3.464   2.589   0.633 -0.5697  0.1323  0.0088
 3749SOL    HW212147   3.484   2.429   0.605  1.0424  0.1546  0.9030
 3750SOL     OW12148   5.678   3.184   5.618 -0.3548  0.1916  0.0324
 3750SOL    HW112149   5.639   3.115   5.557  2.1355  0.8698 -2.5517
 3750SOL    HW212150   5.638   3.273   5.597  1.0373  0.5589 -1.3020
 3751SOL     OW12151   3.858   3.188   4.877  0.5309 -0.0927 -0.1143
 3751SOL    HW112152   3.809   3.223   4.958  0.2094  2.5327 -1.3476
 3751SOL    HW212153   3.816   3.101   4.849 -0.1117 -0.4745  1.7999
 3752SOL     OW12154   0.292   5.137   1.543 -0.0649  0.6179  0.3454
 3752SOL    HW112155   0.202   5.109   1.578 -0.2937  1.0184  0.0787
 3752SOL    HW212156   0.363   5.103   1.605 -0.3772  0.0205  0.3875
 3753SOL     OW12157   4.399   0.536   6.939 -0.7359 -0.8450 -0.6689
 3753SOL    HW112158   4.409   0.457   6.999  1.9940 -0.2045 -0.1436
 3753SOL    HW212159   4.328   0.596   6.975 -2.4243 -2.7001 -0.7407
 3754SOL     OW12160   4.159   0.119   1.493 -0.0197 -0.0118 -0.5681
 3754SOL    HW112161   4.249   0.161   1.486  0.6037 -1.5150 -2.4993
 3754SOL    HW212162   4.123   0.131   1.586  1.6263  1.6319 -0.0999
 3755SOL     OW12163   1.404   4.113   1.179  0.2325 -0.1488 -0.2344
 3755SOL    HW112164   1.358   4.192   1.140 -0.2318 -0.1444  0.3050
 3755SOL    HW212165   1.497   4.106   1.143  0.3157  0.7079 -0.1972
 3756SOL     OW12166   4.486   5.306   3.827  0.5486 -0.0008  0.1466
 3756SOL    HW112167   4.474   5.226   3.886  0.6400 -0.0019  0.1626
 3756SOL    HW212168   4.544   5.283   3.750 -0.8836 -0.4678 -0.8348
 3757SOL     OW12169   1.427   5.168   5.891 -0.1634 -0.4825  0.9387
 3757SOL    HW112170   1.476   5.233   5.949  0.3855 -0.0292 -0.0165
 3757SOL    HW212171   1.428   5.078   5.935  0.2477 -0.1560  1.6274
 3758SOL     OW12172   3.445   1.204   2.561 -0.0214 -0.1010 -0.6575
 3758SOL    HW112173   3.414   1.278   2.502  0.3863 -0.0550 -0.8115
 3758SOL    HW212174   3.372   1.181   2.626  0.1703  1.0239 -0.0270
 3759SOL     OW12175   1.446   1.179   4.475  0.0672 -0.1825  0.9821
 3759SOL    HW112176   1.348   1.164   4.462  0.4663 -1.6614 -0.6937
 3759SOL    HW212177   1.470   1.161   4.571 -1.1740 -0.4013  1.2724
 3760SOL     OW12178   5.265   0.034   1.012 -0.2521 -0.3322  0.0488
 3760SOL    HW112179   5.242  -0.013   0.927  1.6881 -0.4614 -0.4415
 3760SOL    HW212180   5.351   0.083   1.001 -1.7127  2.6541  0.8334
 3761SOL     OW12181   0.280   5.959   2.812 -0.0140 -0.3191 -0.5251
 3761SOL    HW112182   0.192   5.960   2.860  1.0393 -1.7247  1.5458
 3761SOL    HW212183   0.264   5.980   2.715 -2.6779 -0.8478 -0.2950
 3762SOL     OW12184   3.507   6.219   3.620 -0.2903 -0.1066  0.2169
 3762SOL    HW112185   3.578   6.269   3.571 -1.2022  0.3900 -0.6123
 3762SOL    HW212186   3.517   6.121   3.602 -0.9883  0.1088 -1.5108
 3763SOL     OW12187   0.964   3.333   4.517 -0.5814 -0.1911 -0.0846
 3763SOL    HW112188   0.908   3.258   4.552 -1.6150 -0.9941 -3.1222
 3763SOL    HW212189   1.061   3.306   4.518 -0.7068 -0.6287  0.9835
 3764SOL     OW12190   5.496   5.478   2.615 -0.1824 -0.2861 -0.2771
 3764SOL    HW112191   5.549   5.441   2.539  0.7429 -1.2067  0.7968
 3764SOL    HW212192   5.471   5.573   2.594  0.3288 -0.4104 -1.5691
 3765SOL     OW12193   2.560   5.892   2.201 -0.3269  0.1616 -0.4941
 3765SOL    HW112194   2.526   5.860   2.112  0.6624  0.5435 -1.0187
 3765SOL    HW212195   2.660   5.895   2.200 -0.2696  4.2245 -0.8833
 3766SOL     OW12196   5.770   6.481   5.853  0.5593  0.7766 -0.2185
 3766SOL    HW112197   5.859   6.435   5.852  0.0865 -0.2790  1.7676
 3766SOL    HW212198   5.716   6.451   5.775  0.6283 -1.3777  0.5094
 3767SOL     OW12199   2.752   3.475   0.395 -0.5429 -0.1926  0.0792
 3767SOL    HW112200   2.758   3.533   0.477  1.3243 -0.3106  0.0480
 3767SOL    HW212201   2.674   3.505   0.340 -0.4551  1.3968  0.7562
 3768SOL     OW12202   5.560   3.865   0.465  0.0540  0.0382 -0.1888
 3768SOL    HW112203   5.559   3.939   0.533 -0.2351  2.4757 -2.6839
 3768SOL    HW212204   5.638   3.805   0.484  0.4101  1.0327  1.8444
 3769SOL     OW12205   2.800   4.823   0.251  0.3236 -0.0540 -0.3673
 3769SOL    HW112206   2.703   4.801   0.244  0.1943  0.4244 -0.1094
 3769SOL    HW212207   2.814   4.891   0.322  1.1544 -1.9348  1.3780
 3770SOL     OW12208   0.411   1.126   6.007  0.4196  0.4278  0.8138
 3770SOL    HW112209   0.398   1.031   6.034  2.9960  0.3816  2.2174
 3770SOL    HW212210   0.503   1.156   6.033  0.4513  2.6920 -1.4678
 3771SOL     OW12211   6.778   5.984   2.998  0.1407  0.5551  0.0352
 3771SOL    HW112212   6.841   5.979   3.076  1.2492 -1.9422 -0.9075
 3771SOL    HW212213   6.736   6.075   2.994  0.7315  1.0482  2.9724
 3772SOL     OW12214   3.652   0.972   2.061  0.2028 -0.4950 -0.0868
 3772SOL    HW112215   3.730   1.014   2.014 -1.1152  1.2907 -0.8095
 3772SOL    HW212216   3.664   0.982   2.160  1.1280 -0.7047 -0.1705
 3773SOL     OW12217   3.338   1.450   2.472 -0.3620  0.1890 -0.3267
 3773SOL    HW112218   3.327   1.472   2.375 -2.7534  1.3881  0.1461
 3773SOL    HW212219   3.253   1.468   2.520  0.8699 -0.0524  2.0873
 3774SOL     OW12220   4.865   4.449   6.083  0.0614 -0.0088 -0.7273
 3774SOL    HW112221   4.821   4.362   6.059  1.2244 -0.7752 -0.1905
 3774SOL    HW212222   4.953   4.457   6.037  1.6060 -0.7895  1.8493
 3775SOL     OW12223   4.859   3.971   2.410  0.6017  0.7455 -0.1571
 3775SOL    HW112224   4.909   4.008   2.332  2.9387 -0.9164  0.4527
 3775SOL    HW212225   4.819   3.883   2.385 -1.1666  1.5359 -0.2882
 3776SOL     OW12226   1.945   1.896   4.487 -0.3832  0.1441  0.2128
 3776SOL    HW112227   1.878   1.846   4.541  0.2161  0.6758  1.4847
 3776SOL    HW212228   2.035   1.888   4.529  0.5557 -1.2369 -1.8978
 3777SOL     OW12229   4.452   5.755   5.117 -0.1215 -0.0192  0.3131
 3777SOL    HW112230   4.418   5.740   5.024  0.6167  2.1720 -0.3926
 3777SOL    HW212231   4.549   5.779   5.112 -0.3559  1.2861  1.5141
 3778SOL     OW12232   4.747   2.345   3.423  0.3494  0.0576 -0.4194
 3778SOL    HW112233   4.661   2.296   3.406  0.6228 -0.6390  0.1381
 3778SOL    HW212234   4.729   2.424   3.480  0.1345 -0.3492  0.0865
 3779SOL     OW12235   4.179   2.771   0.200 -0.7813 -0.1293  0.3766
 3779SOL    HW112236   4.166   2.811   0.109  0.3969  0.2817  0.3704
 3779SOL    HW212237   4.139   2.680   0.203 -0.4031 -0.3404 -0.7080
 3780SOL     OW12238   1.653   6.407   0.750 -0.4560  0.2413  0.3392
 3780SOL    HW112239   1.607   6.379   0.666 -1.6942  0.3129  0.9726
 3780SOL    HW212240   1.585   6.432   0.819  0.4814 -0.8658  1.7455
 3781SOL     OW12241   4.164   5.803   6.605 -0.2773  0.1955 -0.0367
 3781SOL    HW112242   4.171   5.718   6.657 -0.2912 -0.7279 -1.4890
 3781SOL    HW212243   4.118   5.785   6.518 -1.4425  1.9439  0.1496
 3782SOL     OW12244   4.024   0.961   3.017 -0.0302 -0.1490  0.5038
 3782SOL    HW112245   3.950   0.894   3.011 -0.0612 -0.0048 -1.1143
 3782SOL    HW212246   3.992   1.040   3.068 -1.1279  0.0530 -0.4461
 3783SOL     OW12247   0.802   2.435   6.850 -0.5313 -0.0912  0.4653
 3783SOL    HW112248   0.763   2.492   6.777 -1.5882 -0.0437  1.0549
 3783SOL    HW212249   0.900   2.424   6.834 -0.7294 -0.0271 -0.9316
 3784SOL     OW12250   4.868   3.185   4.804 -0.0988  0.4529 -0.2243
 3784SOL    HW112251   4.966   3.185   4.782  0.4709 -0.6611  2.0786
 3784SOL    HW212252   4.825   3.105   4.762  0.5571 -0.5446  0.9548
 3785SOL     OW12253   3.330   0.733   3.450  0.5747  0.5433 -0.3912
 3785SOL    HW112254   3.414   0.788   3.442 -0.2068  1.8735  0.1209
 3785SOL    HW212255   3.340   0.650   3.396  1.4816  1.6240 -2.0051
 3786SOL     OW12256   0.129   6.925   0.190 -0.0933 -0.1692 -0.0252
 3786SOL    HW112257   0.222   6.932   0.153 -0.3557  1.3433 -0.4772
 3786SOL    HW212258   0.063   6.932   0.115 -0.5950  0.3768  0.4650
 3787SOL     OW12259   5.321   5.107   5.798  0.2402 -0.1674  0.6426
 3787SOL    HW112260   5.368   5.154   5.723 -0.3603  0.9707  0.9588
 3787SOL    HW212261   5.344   5.010   5.796  1.8333  0.1870  0.1974
 3788SOL     OW12262   4.526   0.495   3.976  0.3937 -0.8114  0.6702
 3788SOL    HW112263   4.504   0.592   3.972  0.5100 -0.8183 -0.9689
 3788SOL    HW212264   4.474   0.451   4.049 -0.7005  0.2328  0.5370
 3789SOL     OW12265   4.082   6.392   2.864  0.5182  0.6138  0.5728
 3789SOL    HW112266   4.019   6.447   2.810  1.3284  0.1884 -0.8813
 3789SOL    HW212267   4.046   6.299   2.874  1.4111  0.0308 -1.2849
 3790SOL     OW12268   1.134   6.240   4.612 -0.4554  0.0169 -0.0386
 3790SOL    HW112269   1.126   6.144   4.585  0.0304 -0.0468  0.0352
 3790SOL    HW212270   1.056   6.291   4.576  0.5329  0.0813 -2.2652
 3791SOL     OW12271   4.113   1.201   4.904  0.1191 -0.1814 -0.2933
 3791SOL    HW112272   4.094   1.141   4.827 -0.9848  1.0935 -1.0495
 3791SOL    HW212273   4.205   1.240   4.894  0.2414 -0.5467 -0.6051
 3792SOL     OW12274   2.632   1.956   3.807  0.3400  0.0403 -0.4237
 3792SOL    HW112275   2.638   2.051   3.838 -1.5722  0.3409 -0.8423
 3792SOL    HW212276   2.643   1.894   3.884  1.0286  0.6169 -0.0534
 3793SOL     OW12277   5.916   5.874   5.212 -0.1371 -0.1512  0.5322
 3793SOL    HW112278   5.843   5.861   5.279  0.5706 -1.2962  1.1201
 3793SOL    HW212279   5.988   5.806   5.228  0.9234  0.7552 -0.2117
 3794SOL     OW12280   6.897   1.752   2.254 -0.4222  0.2098  0.1564
 3794SOL    HW112281   6.895   1.852   2.259 -0.8546  0.3932 -2.3169
 3794SOL    HW212282   6.814   1.715   2.296 -0.7329  0.9532  0.2151
 3795SOL     OW12283   5.967   1.506   3.810  0.0648  0.0687  0.0115
 3795SOL    HW112284   5.986   1.557   3.894  0.4662 -4.0447  2.6930
 3795SOL    HW212285   5.930   1.416   3.833  0.5370 -1.4500 -4.2655
 3796SOL     OW12286   6.827   5.072   0.053  0.5646  0.0887 -0.1222
 3796SOL    HW112287   6.795   5.035   0.140  0.1160 -0.5192 -0.5363
 3796SOL    HW212288   6.858   4.997  -0.006  0.2876  0.4299 -0.7139
 3797SOL     OW12289   2.822   0.816   0.422 -0.5903 -0.3704  0.0281
 3797SOL    HW112290   2.757   0.761   0.475 -0.4636 -1.5024 -0.9628
 3797SOL    HW212291   2.860   0.887   0.481  0.3845 -2.2528  1.7977
 3798SOL     OW12292   0.302   0.656   2.992  0.2219 -0.7503  0.3180
 3798SOL    HW112293   0.321   0.673   2.895 -0.6078 -0.4983  0.1954
 3798SOL    HW212294   0.216   0.607   3.002  0.2308 -0.6492  0.9406
 3799SOL     OW12295   4.306   6.781   3.672  0.5736  0.0813  0.7578
 3799SOL    HW112296   4.292   6.685   3.698 -0.4433  0.3657  1.3220
 3799SOL    HW212297   4.247   6.804   3.595  0.4806  0.3616  0.9100
 3800SOL     OW12298   0.408   3.074   0.405 -0.2382  0.6366 -0.1239
 3800SOL    HW112299   0.387   3.053   0.309  0.7071  0.5979 -0.3304
 3800SOL    HW212300   0.367   3.005   0.464  0.4053 -0.1804 -0.6088
 3801SOL     OW12301   1.724   2.793   5.855 -0.0749 -0.3696  0.1559
 3801SOL    HW112302   1.688   2.837   5.938  0.3474 -0.9804  0.6792
 3801SOL    HW212303   1.735   2.695   5.872 -1.3823 -0.7701 -1.1117
 3802SOL     OW12304   3.185   5.938   4.549  0.2673  0.0761  0.4591
 3802SOL    HW112305   3.248   6.005   4.589  1.3367  0.7839 -2.1653
 3802SOL    HW212306   3.238   5.868   4.500 -0.9197  0.0916 -0.9063
 3803SOL     OW12307   6.840   3.260   2.267 -0.2213 -0.1505 -0.3132
 3803SOL    HW112308   6.899   3.288   2.342 -0.2877 -0.6533 -0.0738
 3803SOL    HW212309   6.748   3.243   2.301 -0.2213 -0.5045 -0.4873
 3804SOL     OW12310   0.924   5.465   1.295  0.0352  0.0470  0.2521
 3804SOL    HW112311   0.936   5.425   1.204 -0.7459  0.9348 -0.2599
 3804SOL    HW212312   1.002   5.440   1.352 -0.9735 -3.2630  0.3941
 3805SOL     OW12313   0.369   7.007   6.540  0.1593  0.1532  0.3169
 3805SOL    HW112314   0.439   6.944   6.506 -0.4699  0.2990 -1.3558
 3805SOL    HW212315   0.285   6.955   6.560  0.2154  0.2165  0.7366
 3806SOL     OW12316   4.400   6.423   4.702  0.1102  0.1325 -0.2574
 3806SOL    HW112317   4.346   6.421   4.786 -2.0300 -0.9170 -1.5740
 3806SOL    HW212318   4.489   6.381   4.718 -0.2727 -0.0789  1.4656
 3807SOL     OW12319   5.558   2.473   4.926 -0.2264 -0.3403  0.2704
 3807SOL    HW112320   5.597   2.401   4.869  1.5317  0.2986  0.6110
 3807SOL    HW212321   5.534   2.434   5.016  2.2289 -0.2510  1.0407
 3808SOL     OW12322   2.517   6.528   3.265 -0.1850 -0.0368 -0.4762
 3808SOL    HW112323   2.545   6.436   3.239  0.0833 -0.2265  0.4781
 3808SOL    HW212324   2.533   6.543   3.362  1.5630  1.6755 -0.9638
 3809SOL     OW12325   0.364   1.648   1.219 -0.0048 -0.2537  0.2978
 3809SOL    HW112326   0.357   1.652   1.318  0.4246 -0.2405  0.3274
 3809SOL    HW212327   0.287   1.696   1.178 -0.3857 -0.5813  0.6237
 3810SOL     OW12328   6.344   0.753   6.739 -0.0273 -0.1243 -0.1370
 3810SOL    HW112329   6.424   0.693   6.746  0.6491  0.8259  0.5052
 3810SOL    HW212330   6.263   0.698   6.719  0.8026 -1.0834 -0.9389
 3811SOL     OW12331   6.988   2.376   0.908 -0.0713 -0.0846  0.0583
 3811SOL    HW112332   6.950   2.320   0.982 -1.3117  0.2200 -0.3171
 3811SOL    HW212333   6.914   2.427   0.864  0.7457  0.2526 -0.9586
 3812SOL     OW12334   6.960   0.506   0.415 -0.4716  0.2516  0.2465
 3812SOL    HW112335   6.896   0.479   0.487  0.3824 -1.3546  0.4446
 3812SOL    HW212336   6.934   0.460   0.330  0.1550 -0.0777  0.2307
 3813SOL     OW12337   3.943   3.283   2.383 -0.5919 -0.9388  0.3445
 3813SOL    HW112338   3.854   3.247   2.356 -0.2845 -1.6109  0.2169
 3813SOL    HW212339   3.949   3.286   2.483 -1.0616 -0.1049  0.3646
 3814SOL     OW12340   4.435   6.123   5.841 -0.0389 -0.0995 -0.2906
 3814SOL    HW112341   4.453   6.028   5.868  0.8987 -0.1123 -0.8969
 3814SOL    HW212342   4.393   6.125   5.750 -0.5796  0.0516 -0.0421
 3815SOL     OW12343   4.591   0.112   4.013  0.2981  0.1255  0.7288
 3815SOL    HW112344   4.661   0.172   4.050  0.5772 -0.0167  0.4335
 3815SOL    HW212345   4.597   0.022   4.058  2.2170 -0.8495 -1.3058
 3816SOL     OW12346   1.483   1.134   1.525 -0.0710 -0.1533  0.9609
 3816SOL    HW112347   1.408   1.095   1.578 -0.7316 -1.3223 -0.7215
 3816SOL    HW212348   1.543   1.060   1.493  1.7390  0.7451  2.1192
 3817SOL     OW12349   6.704   4.649   2.122  0.3587 -0.1633 -0.5352
 3817SOL    HW112350   6.685   4.621   2.028  0.4004  0.9345 -0.8913
 3817SOL    HW212351   6.730   4.746   2.123  2.2519 -0.6233  0.3789
 3818SOL     OW12352   6.472   1.732   1.731  0.3300  1.0227 -0.5734
 3818SOL    HW112353   6.514   1.772   1.650  0.8762  0.6278 -0.4914
 3818SOL    HW212354   6.543   1.690   1.788 -0.1883  0.2682 -0.4751
 3819SOL     OW12355   5.414   3.415   4.114 -0.3130  0.5862 -0.2989
 3819SOL    HW112356   5.376   3.418   4.207  0.6832 -1.7679  0.2668
 3819SOL    HW212357   5.513   3.402   4.119  0.1035  2.7716 -1.7526
 3820SOL     OW12358   6.057   4.110   5.725 -0.7330 -0.3506 -0.4822
 3820SOL    HW112359   6.119   4.158   5.788 -1.1743 -0.8110  0.3111
 3820SOL    HW212360   6.034   4.021   5.762 -2.1715 -0.0508 -0.5909
 3821SOL     OW12361   4.093   1.624   2.029  0.5793  0.4320  0.0688
 3821SOL    HW112362   4.048   1.712   2.041  1.9218  1.1075  0.3498
 3821SOL    HW212363   4.140   1.599   2.114  0.6156 -0.3147 -0.1669
 3822SOL     OW12364   0.770   6.478   6.200  0.7529 -0.1024 -0.5860
 3822SOL    HW112365   0.766   6.488   6.299 -1.0283 -2.3579 -0.3427
 3822SOL    HW212366   0.839   6.410   6.176 -0.8803 -1.8711 -0.5644
 3823SOL     OW12367   6.036   1.384   5.817 -0.1297  0.3621 -0.0439
 3823SOL    HW112368   5.938   1.401   5.820 -0.3396 -0.7657 -0.0095
 3823SOL    HW212369   6.057   1.320   5.743  0.3085 -0.9532  1.1663
 3824SOL     OW12370   3.804   6.008   2.490  0.5596  0.2291  0.7464
 3824SOL    HW112371   3.843   6.088   2.535 -1.0368 -0.1081  2.9195
 3824SOL    HW212372   3.706   6.004   2.509  0.4815 -1.8835  0.1494
 3825SOL     OW12373   4.140   3.367   0.913 -0.0588 -0.1401 -0.4945
 3825SOL    HW112374   4.091   3.324   0.989  0.0461  0.3584 -0.1434
 3825SOL    HW212375   4.094   3.452   0.888  0.7334  0.4332 -0.0370
 3826SOL     OW12376   5.712   3.582   6.594  0.4127 -0.4553 -0.7331
 3826SOL    HW112377   5.618   3.587   6.562  0.5344  0.8883 -0.9178
 3826SOL    HW212378   5.763   3.517   6.537 -0.6730 -2.1488  0.1496
 3827SOL     OW12379   3.936   4.069   1.805 -0.1242 -0.1383  0.4179
 3827SOL    HW112380   3.885   4.060   1.719  0.7845 -0.2835 -0.1211
 3827SOL    HW212381   3.996   3.990   1.816  1.6233  1.0713 -0.0697
 3828SOL     OW12382   5.481   4.810   5.009  0.2778  0.0727 -0.4963
 3828SOL    HW112383   5.421   4.877   5.052  0.3841 -1.7976  2.9558
 3828SOL    HW212384   5.563   4.855   4.974  0.3945  1.7703  1.8011
 3829SOL     OW12385   0.286   3.158   4.914  0.4301 -0.0394  0.4978
 3829SOL    HW112386   0.249   3.233   4.970 -0.2173  0.7059 -0.8738
 3829SOL    HW212387   0.264   3.174   4.818  1.8794 -1.0625 -0.0492
 3830SOL     OW12388   1.367   5.675   2.954 -0.2443 -0.7346 -0.1589
 3830SOL    HW112389   1.346   5.693   2.857 -1.4580  3.5022  0.6991
 3830SOL    HW212390   1.283   5.680   3.007  0.8863  1.9739  1.6093
 3831SOL     OW12391   3.973   0.665   1.991  0.2417  0.1048 -0.4071
 3831SOL    HW112392   3.985   0.730   2.067 -0.7734 -0.3447  0.1579
 3831SOL    HW212393   3.953   0.716   1.907  4.2558  0.8282 -1.1260
 3832SOL     OW12394   6.821   2.675   4.103 -0.0455  0.9664  0.2617
 3832SOL    HW112395   6.854   2.597   4.050 -2.1555  2.6658 -3.9922
 3832SOL    HW212396   6.893   2.704   4.167  3.8238  0.1110 -3.2552
 3833SOL     OW12397   3.055   6.349   6.558 -0.4360  0.2865  0.0669
 3833SOL    HW112398   3.104   6.394   6.633 -0.3810 -0.3612  0.4312
 3833SOL    HW212399   3.000   6.416   6.508  0.7977  1.0296 -0.3341
 3834SOL     OW12400   6.466   0.681   1.626 -0.2684 -0.0972  0.1863
 3834SOL    HW112401   6.507   0.684   1.717  0.2935 -0.4624 -0.0494
 3834SOL    HW212402   6.447   0.775   1.595 -2.0851 -0.0272  1.3800
 3835SOL     OW12403   2.986   3.349   4.059 -0.1883  0.1851  0.0400
 3835SOL    HW112404   2.975   3.448   4.063  1.1979  0.3522  0.1156
 3835SOL    HW212405   2.941   3.314   3.977 -0.0769  0.9759 -0.3748
 3836SOL     OW12406   1.750   6.094   0.806  0.1177  0.0500 -0.5719
 3836SOL    HW112407   1.824   6.047   0.854 -0.0930 -0.7211 -0.9835
 3836SOL    HW212408   1.782   6.182   0.772 -0.1052  1.3219  2.2029
 3837SOL     OW12409   5.973   0.422   1.833  0.1102 -0.8243  0.2526
 3837SOL    HW112410   5.962   0.519   1.856  0.9156 -0.7295  0.2990
 3837SOL    HW212411   5.907   0.368   1.884  0.5607 -0.4258  1.2957
 3838SOL     OW12412   3.629   0.070   5.083 -0.1052 -0.5032 -0.2703
 3838SOL    HW112413   3.590   0.027   5.164  0.8437  0.0131  0.4815
 3838SOL    HW212414   3.714   0.117   5.107  0.9072 -1.4418 -1.8254
 3839SOL     OW12415   0.334   7.016   1.170 -0.2282  0.0866  0.3016
 3839SOL    HW112416   0.293   7.034   1.259 -1.2231  1.0085 -0.3251
 3839SOL    HW212417   0.419   6.964   1.183 -1.5834 -1.9401  1.6238
 3840SOL     OW12418   3.479   5.596   6.015  0.4675 -0.0711  0.1220
 3840SOL    HW112419   3.499   5.641   6.102  2.4803 -0.8695  0.1368
 3840SOL    HW212420   3.548   5.623   5.947 -1.9814  1.8324 -1.7918
 3841SOL     OW12421   4.587   3.530   6.179 -0.3139 -0.2618 -0.0058
 3841SOL    HW112422   4.515   3.468   6.148 -0.9984  0.5957 -0.1899
 3841SOL    HW212423   4.671   3.513   6.127 -0.7853 -0.3641 -0.7392
 3842SOL     OW12424   3.752   2.728   6.193 -0.0830  0.3940  0.1930
 3842SOL    HW112425   3.799   2.685   6.116 -2.1291 -1.0566 -0.3233
 3842SOL    HW212426   3.780   2.682   6.278  0.0383  0.0838 -0.0096
 3843SOL     OW12427   3.038   6.343   5.223 -0.3013 -0.3113  0.0316
 3843SOL    HW112428   3.138   6.339   5.216 -0.3570 -0.1664 -1.1274
 3843SOL    HW212429   3.000   6.253   5.202 -0.4842  0.1115 -1.5998
 3844SOL     OW12430   2.621   2.160   6.252  0.0458  0.3814 -0.4127
 3844SOL    HW112431   2.541   2.207   6.217  1.2138  0.2941 -3.5136
 3844SOL    HW212432   2.626   2.068   6.213  2.0326  0.6788 -1.0101
 3845SOL     OW12433   3.722   3.630   2.183 -0.2810  0.8242 -0.1249
 3845SOL    HW112434   3.706   3.709   2.243  0.2640  2.5393 -2.1368
 3845SOL    HW212435   3.740   3.661   2.090  2.1777 -1.5552 -0.5799
 3846SOL     OW12436   3.092   6.801   4.770 -0.2870  0.3478 -0.7355
 3846SOL    HW112437   3.182   6.806   4.812 -0.3965 -0.8935 -0.3126
 3846SOL    HW212438   3.027   6.855   4.824 -0.2896 -0.7011  0.3441
 3847SOL     OW12439   4.174   6.893   1.379 -0.7648  0.3126  0.5121
 3847SOL    HW112440   4.149   6.979   1.422  0.7505  0.7066  0.6917
 3847SOL    HW212441   4.234   6.912   1.300 -1.5449 -0.5134 -0.3009
 3848SOL     OW12442   1.702   1.178   0.920 -0.2897  0.1292  0.3530
 3848SOL    HW112443   1.644   1.124   0.981  0.0495  0.0157  0.5810
 3848SOL    HW212444   1.738   1.257   0.970 -1.7700  1.2623 -0.3284
 3849SOL     OW12445   2.859   5.182   2.737 -0.5422 -0.8947  1.1562
 3849SOL    HW112446   2.814   5.197   2.649  0.2049  1.3794  1.0835
 3849SOL    HW212447   2.948   5.228   2.737 -1.0762  0.2895  3.5207
 3850SOL     OW12448   1.600   1.275   6.577  0.6460 -0.6361 -0.0993
 3850SOL    HW112449   1.587   1.216   6.657  2.1371  0.1187  0.7354
 3850SOL    HW212450   1.510   1.306   6.544  0.0272  0.7482  2.6049
 3851SOL     OW12451   3.513   1.152   3.521  0.1245  0.2940 -0.2100
 3851SOL    HW112452   3.489   1.246   3.496 -2.4172  0.1985  1.5021
 3851SOL    HW212453   3.565   1.153   3.607  0.4039  0.1434 -0.3761
 3852SOL     OW12454   1.241   1.048   6.368 -0.1385 -0.1345  0.1327
 3852SOL    HW112455   1.223   1.099   6.284 -0.3466 -2.4021 -1.2625
 3852SOL    HW212456   1.339   1.032   6.376  0.1055  1.6568  1.3491
 3853SOL     OW12457   1.707   7.010   3.094 -0.0043  0.4431  0.1762
 3853SOL    HW112458   1.678   6.996   2.999  0.2074  2.8563 -0.3058
 3853SOL    HW212459   1.657   7.087   3.133  2.7110  2.0869  0.6704
 3854SOL     OW12460   0.502   5.573   3.536  0.4313  0.2394  0.8648
 3854SOL    HW112461   0.570   5.535   3.474  1.2361  1.1972  1.1551
 3854SOL    HW212462   0.517   5.671   3.548 -1.7327  0.7324 -0.0193
 3855SOL     OW12463   5.727   1.695   0.538  0.4918 -0.0547  0.0104
 3855SOL    HW112464   5.682   1.749   0.466 -1.0838 -1.2111  0.0600
 3855SOL    HW212465   5.702   1.599   0.527  0.7761 -0.3438  1.7030
 3856SOL     OW12466   5.584   6.162   3.229  0.4848  0.1250 -0.1460
 3856SOL    HW112467   5.540   6.200   3.147  1.3319  0.9608 -0.2319
 3856SOL    HW212468   5.645   6.088   3.202 -0.9361 -1.1404 -0.0109
 3857SOL     OW12469   3.891   0.006   2.212  0.4140 -0.3932  0.0576
 3857SOL    HW112470   3.928   0.089   2.253  0.2002 -0.7273  0.9587
 3857SOL    HW212471   3.861  -0.056   2.285 -0.2117 -0.8981 -0.6220
 3858SOL     OW12472   2.574   5.725   4.380 -0.1427  0.1294 -0.3809
 3858SOL    HW112473   2.624   5.659   4.436 -0.8614 -0.5162 -0.4795
 3858SOL    HW212474   2.508   5.773   4.436  1.6448  2.1586  0.1142
 3859SOL     OW12475   0.088   4.132   0.580  0.4474 -0.9636  0.1610
 3859SOL    HW112476   0.018   4.203   0.576  0.4078 -1.0242 -0.2656
 3859SOL    HW212477   0.090   4.083   0.493 -1.7472 -3.6266  1.4459
 3860SOL     OW12478   4.083   1.644   1.372 -0.0281  0.8481  0.3585
 3860SOL    HW112479   4.118   1.558   1.410 -0.4580  0.2960 -0.4423
 3860SOL    HW212480   4.114   1.653   1.277 -1.9129  0.3627 -0.3698
 3861SOL     OW12481   4.811   5.137   5.828  0.5335 -0.3066 -0.2411
 3861SOL    HW112482   4.904   5.167   5.808  1.0095 -0.7696  1.1622
 3861SOL    HW212483   4.814   5.046   5.871 -0.2974  0.8659  2.5274
 3862SOL     OW12484   4.647   1.364   6.524 -0.0229  0.3617 -0.4958
 3862SOL    HW112485   4.599   1.283   6.558  0.5825  0.2108  0.0210
 3862SOL    HW212486   4.587   1.416   6.463 -0.6422 -0.1169 -0.2967
 3863SOL     OW12487   0.652   0.200   1.159 -0.9906 -0.2160 -0.3455
 3863SOL    HW112488   0.733   0.183   1.103 -1.0004 -1.1681 -0.0823
 3863SOL    HW212489   0.589   0.260   1.109 -1.0971 -1.2217 -1.4677
 3864SOL     OW12490   1.341   0.914   5.278  0.2983  0.2892 -0.2975
 3864SOL    HW112491   1.431   0.942   5.245 -0.1878  1.8221 -0.4183
 3864SOL    HW212492   1.295   0.992   5.321 -0.4821 -0.7786  0.9058
 3865SOL     OW12493   5.834   5.560   5.025 -0.1232 -0.8063 -0.2623
 3865SOL    HW112494   5.871   5.564   5.118 -0.6688 -1.1721 -0.0186
 3865SOL    HW212495   5.773   5.481   5.018 -1.4887  0.2273 -0.4042
 3866SOL     OW12496   3.562   6.466   1.476  0.0036  0.2833 -0.2256
 3866SOL    HW112497   3.509   6.441   1.557  3.2545 -1.0263  1.7202
 3866SOL    HW212498   3.616   6.387   1.446  1.0671  1.5622 -1.8954
 3867SOL     OW12499   1.231   2.216   3.800 -0.6393 -0.5055 -0.0474
 3867SOL    HW112500   1.161   2.155   3.763 -1.6018  0.3933  0.2234
 3867SOL    HW212501   1.186   2.292   3.848  0.5350  0.0729  0.1651
 3868SOL     OW12502   3.256   3.927   6.905 -0.2686  0.2690  0.4058
 3868SOL    HW112503   3.351   3.920   6.875 -0.0054 -0.5390  1.3898
 3868SOL    HW212504   3.195   3.902   6.829  0.3721 -1.4128  0.4061
 3869SOL     OW12505   0.261   0.301   6.299  0.1083  0.0127 -0.1967
 3869SOL    HW112506   0.307   0.214   6.318  1.8524  0.6229 -1.4537
 3869SOL    HW212507   0.296   0.372   6.360  0.3286  0.3332 -0.6910
 3870SOL     OW12508   4.687   5.436   1.167 -0.1728  0.2270 -0.5292
 3870SOL    HW112509   4.602   5.398   1.132 -0.8896  0.8606  0.4685
 3870SOL    HW212510   4.765   5.391   1.123 -1.0100 -0.8210 -0.9634
 3871SOL     OW12511   1.362   0.821   1.061 -0.4130 -0.4121  0.7043
 3871SOL    HW112512   1.278   0.860   1.098 -1.1725  0.4460 -1.7628
 3871SOL    HW212513   1.342   0.775   0.974  1.4627 -1.3470  0.7160
 3872SOL     OW12514   1.667   2.551   2.804 -0.0750 -0.2687 -0.5911
 3872SOL    HW112515   1.651   2.578   2.710 -0.5477  2.5899  0.2170
 3872SOL    HW212516   1.639   2.455   2.817  2.6312 -1.7080 -3.9100
 3873SOL     OW12517   1.017   0.658   5.053  0.1196 -0.0127  0.0983
 3873SOL    HW112518   1.003   0.570   5.098  0.7946  0.3925  1.1411
 3873SOL    HW212519   1.114   0.672   5.036  0.1561  1.0494  1.0663
 3874SOL     OW12520   6.637   4.628   4.645  1.0195  0.0237 -0.4308
 3874SOL    HW112521   6.628   4.676   4.557 -0.5627  0.5238 -0.0335
 3874SOL    HW212522   6.594   4.538   4.639 -0.5681  0.7024  0.2658
 3875SOL     OW12523   3.432   4.356   1.457 -0.2563 -0.3721  0.4496
 3875SOL    HW112524   3.428   4.404   1.544  1.4848  0.7867 -0.0421
 3875SOL    HW212525   3.525   4.321   1.443  0.4292  2.0910 -2.1957
 3876SOL     OW12526   6.522   0.546   6.786  0.4000 -0.0052 -0.7033
 3876SOL    HW112527   6.537   0.521   6.881 -0.3171  1.0492 -0.3056
 3876SOL    HW212528   6.494   0.465   6.735 -0.3166 -0.3570  0.2242
 3877SOL     OW12529   2.170   5.338   6.462 -0.5036  0.4624  0.2905
 3877SOL    HW112530   2.262   5.368   6.487 -0.5133  0.2223  0.6154
 3877SOL    HW212531   2.172   5.242   6.435 -0.4690  0.7422 -0.7718
 3878SOL     OW12532   1.806   2.724   5.572  0.7586 -0.1619  0.4360
 3878SOL    HW112533   1.756   2.802   5.533  3.0516  0.7987 -0.8431
 3878SOL    HW212534   1.837   2.747   5.664  0.5454  0.0218  0.4639
 3879SOL     OW12535   5.187   5.131   4.188 -0.0576 -0.2706  0.1043
 3879SOL    HW112536   5.202   5.079   4.104  1.9746  1.0913 -0.4347
 3879SOL    HW212537   5.128   5.078   4.250 -0.4088 -1.9221 -1.5557
 3880SOL     OW12538   1.706   6.225   4.384 -0.1080 -0.4003 -0.3986
 3880SOL    HW112539   1.705   6.184   4.475  1.5106 -0.9320 -0.5809
 3880SOL    HW212540   1.649   6.307   4.384  0.5681  0.1186  1.3367
 3881SOL     OW12541   6.144   2.537   0.886  0.5080  0.4178  0.1999
 3881SOL    HW112542   6.163   2.445   0.852 -0.1493  0.0714  0.7517
 3881SOL    HW212543   6.229   2.590   0.889  0.4509  0.9120 -3.2260
 3882SOL     OW12544   6.795   4.169   2.145 -0.0838  0.6702 -0.6348
 3882SOL    HW112545   6.878   4.116   2.160 -0.4127  0.0642 -0.9233
 3882SOL    HW212546   6.777   4.226   2.225 -1.0807 -1.4850  0.7574
 3883SOL     OW12547   5.270   0.357   4.587 -0.2430  0.0234 -0.2160
 3883SOL    HW112548   5.320   0.332   4.504  0.3065 -1.0306  0.4111
 3883SOL    HW212549   5.311   0.438   4.628 -0.1545  0.2022 -0.6592
 3884SOL     OW12550   0.714   1.031   5.024  0.0663 -0.1316 -0.8893
 3884SOL    HW112551   0.632   0.993   5.066  1.0515  1.9521  3.5424
 3884SOL    HW212552   0.768   0.957   4.984 -1.1227 -2.5172  1.5861
 3885SOL     OW12553   2.084   3.498   2.476 -0.7902  0.6455  0.0421
 3885SOL    HW112554   2.125   3.499   2.386  0.5199  0.6175  0.6196
 3885SOL    HW212555   2.076   3.592   2.510  0.2182  0.5645  0.5401
 3886SOL     OW12556   5.056   3.385   2.337  0.0596  0.0723 -0.2551
 3886SOL    HW112557   5.092   3.429   2.255  0.8426  0.5650  0.3417
 3886SOL    HW212558   5.127   3.327   2.378 -0.4861 -0.5695 -0.1930
 3887SOL     OW12559   0.718   1.194   0.042 -0.2741 -0.6308 -0.1385
 3887SOL    HW112560   0.706   1.224  -0.052  0.4621  1.8131  0.4871
 3887SOL    HW212561   0.815   1.172   0.057 -0.4579 -1.3984 -0.0348
 3888SOL     OW12562   3.067   0.408   3.337  0.5269  0.1440 -0.2092
 3888SOL    HW112563   3.151   0.357   3.318  1.9538  2.3734 -0.2852
 3888SOL    HW212564   3.009   0.407   3.256  2.5120  2.1515 -1.7729
 3889SOL     OW12565   6.242   3.166   0.290  0.0446  0.1987 -0.7289
 3889SOL    HW112566   6.166   3.177   0.354  0.2114  1.9425 -0.7891
 3889SOL    HW212567   6.214   3.196   0.199  0.1693 -1.1801 -1.2582
 3890SOL     OW12568   0.907   2.093   1.445 -0.3615  0.3670  0.9080
 3890SOL    HW112569   0.838   2.021   1.451  2.7228 -2.8159  2.0134
 3890SOL    HW212570   0.951   2.090   1.355 -0.4069  1.0918  0.8579
 3891SOL     OW12571   2.368   3.685   1.720  0.4048  0.3366  0.1248
 3891SOL    HW112572   2.349   3.591   1.746 -0.0542 -0.0235 -1.4484
 3891SOL    HW212573   2.282   3.733   1.704  0.6486  0.9044  0.4703
 3892SOL     OW12574   3.168   3.907   0.313  0.4929  0.2171  0.6200
 3892SOL    HW112575   3.145   3.888   0.408 -0.6481  1.0163  0.5238
 3892SOL    HW212576   3.248   3.853   0.287 -0.1436 -1.2407  1.5462
 3893SOL     OW12577   4.513   1.733   3.733 -0.1532  0.4538 -0.0320
 3893SOL    HW112578   4.550   1.799   3.799  0.6625 -0.0949  0.0649
 3893SOL    HW212579   4.576   1.724   3.656  0.4832 -1.2980  0.6491
 3894SOL     OW12580   5.612   3.190   3.492 -0.2569  0.1175  0.5658
 3894SOL    HW112581   5.671   3.134   3.550 -1.6942 -1.1290  0.9016
 3894SOL    HW212582   5.577   3.268   3.544  1.0800  0.8693  0.3571
 3895SOL     OW12583   2.807   1.410   4.659  0.2674 -0.1194  0.3841
 3895SOL    HW112584   2.782   1.407   4.756  1.5393 -0.4815  0.7182
 3895SOL    HW212585   2.811   1.316   4.623 -2.3778  0.0674 -0.6436
 3896SOL     OW12586   1.308   2.861   0.402 -0.3868  0.2479 -0.4937
 3896SOL    HW112587   1.389   2.900   0.446 -1.3513  1.1671  0.5447
 3896SOL    HW212588   1.319   2.762   0.393  0.1018  0.1116  1.2662
 3897SOL     OW12589   0.927   0.620   0.663  0.3563 -0.3627 -0.3719
 3897SOL    HW112590   0.876   0.680   0.602  1.6734  0.5944 -0.5861
 3897SOL    HW212591   0.934   0.662   0.754 -2.0128 -1.9950  0.6884
 3898SOL     OW12592   3.759   0.972   6.571  0.0195 -0.3308  0.3666
 3898SOL    HW112593   3.668   0.955   6.609  0.2607 -3.1581 -0.0648
 3898SOL    HW212594   3.769   0.923   6.484  0.6821  3.1227 -1.6733
 3899SOL     OW12595   5.468   6.448   6.844  0.0988 -0.0383  0.4648
 3899SOL    HW112596   5.370   6.453   6.858  0.2725 -1.5919  2.7310
 3899SOL    HW212597   5.515   6.478   6.927  1.5285  0.0197 -0.3321
 3900SOL     OW12598   1.692   2.812   2.352 -0.4279  0.2371 -0.0086
 3900SOL    HW112599   1.758   2.743   2.323 -2.2115 -1.2094 -0.8514
 3900SOL    HW212600   1.706   2.833   2.449  0.0245 -1.5198  0.3510
 3901SOL     OW12601   6.392   5.526   3.683 -0.4997  0.7791  0.1541
 3901SOL    HW112602   6.323   5.544   3.753  0.8924 -0.9963  2.1040
 3901SOL    HW212603   6.379   5.434   3.647  2.1394 -0.5853  2.3158
 3902SOL     OW12604   3.782   0.748   4.097  0.0740  0.2416 -0.0566
 3902SOL    HW112605   3.806   0.685   4.023  0.4415 -1.1982  1.2317
 3902SOL    HW212606   3.746   0.833   4.059  0.6696 -0.2914 -1.8799
 3903SOL     OW12607   6.351   5.600   3.312 -0.0854 -0.0543  0.1669
 3903SOL    HW112608   6.327   5.504   3.296  0.5772 -0.4629  1.5310
 3903SOL    HW212609   6.268   5.653   3.326 -0.4474 -0.4505 -0.4322
 3904SOL     OW12610   1.078   3.579   6.816 -0.2696  0.0870  0.3467
 3904SOL    HW112611   0.983   3.608   6.827 -0.3551 -0.6501  1.7316
 3904SOL    HW212612   1.098   3.506   6.880  1.2577  0.2607  0.0970
 3905SOL     OW12613   6.269   1.908   1.511 -0.0496  0.3955 -0.4403
 3905SOL    HW112614   6.215   1.924   1.593 -0.2357 -1.5528 -0.1204
 3905SOL    HW212615   6.232   1.828   1.462  0.9617  0.6125 -1.6103
 3906SOL     OW12616   0.559   3.923   3.056 -0.1753 -0.4692  0.2286
 3906SOL    HW112617   0.651   3.898   3.027 -0.1659  0.4346 -0.5785
 3906SOL    HW212618   0.557   4.020   3.082 -1.0716 -0.2462 -0.5836
 3907SOL     OW12619   4.307   5.428   3.638 -0.1534 -0.6653 -0.4098
 3907SOL    HW112620   4.378   5.388   3.697 -1.4939 -2.2926  0.1825
 3907SOL    HW212621   4.219   5.423   3.685 -0.6806  1.4701 -1.0661
 3908SOL     OW12622   3.797   4.020   1.553 -0.2108 -0.5645 -0.2027
 3908SOL    HW112623   3.701   3.994   1.539 -0.3147  0.3364 -1.2853
 3908SOL    HW212624   3.849   4.002   1.469  0.3151  0.0324 -0.0145
 3909SOL     OW12625   0.222   3.446   6.601 -0.3501  0.4141 -0.2707
 3909SOL    HW112626   0.311   3.401   6.606  0.2921  1.7618  1.8649
 3909SOL    HW212627   0.229   3.526   6.541 -0.2272  0.2877 -0.4239
 3910SOL     OW12628   1.967   2.872   1.181 -0.7232 -0.0153  0.2587
 3910SOL    HW112629   1.945   2.809   1.255  0.9181 -0.1702  0.6381
 3910SOL    HW212630   1.948   2.966   1.210  1.7774  0.1180  1.6714
 3911SOL     OW12631   6.518   0.469   5.175  0.4232  0.0800  0.6031
 3911SOL    HW112632   6.539   0.375   5.148 -1.9535 -0.4264  0.3531
 3911SOL    HW212633   6.529   0.478   5.274  1.7525 -0.1194  0.4992
 3912SOL     OW12634   5.822   6.010   0.553 -0.0097  0.0030 -0.1199
 3912SOL    HW112635   5.878   5.981   0.475  1.3076 -0.1581  0.8583
 3912SOL    HW212636   5.830   5.942   0.626  0.3512  1.1214  0.9031
 3913SOL     OW12637   1.422   1.572   2.542  0.0380 -0.4356 -0.3566
 3913SOL    HW112638   1.511   1.562   2.588  0.3403 -0.5524 -0.9555
 3913SOL    HW212639   1.389   1.482   2.514 -0.7390 -0.5039  0.7105
 3914SOL     OW12640   6.860   0.131   3.462 -0.1911 -0.4839 -0.3333
 3914SOL    HW112641   6.861   0.215   3.408  0.6070  0.4105  1.0078
 3914SOL    HW212642   6.852   0.052   3.401 -0.4567  0.5242 -1.6547
 3915SOL     OW12643   5.531   1.667   6.806  0.1982  0.1782 -0.2885
 3915SOL    HW112644   5.602   1.702   6.745  0.6409  2.1274  1.2066
 3915SOL    HW212645   5.558   1.578   6.842  0.8055 -0.1204 -1.4430
 3916SOL     OW12646   1.256   0.985   4.383  0.1814  0.0288 -0.0961
 3916SOL    HW112647   1.230   0.955   4.292 -1.1181 -1.0865  0.6106
 3916SOL    HW212648   1.203   1.066   4.408  0.9067  0.6435 -0.5087
 3917SOL     OW12649   5.607   1.655   0.783  0.3354 -0.0333  0.3986
 3917SOL    HW112650   5.642   1.697   0.699  0.1246 -0.6506 -0.0038
 3917SOL    HW212651   5.673   1.669   0.857 -1.0719  3.8252  1.1645
 3918SOL     OW12652   5.280   5.332   0.234  0.0519  0.0208 -0.0237
 3918SOL    HW112653   5.374   5.362   0.251  0.1100  0.3476 -0.8577
 3918SOL    HW212654   5.278   5.233   0.229  0.2857 -0.0083  0.3566
 3919SOL     OW12655   0.915   4.416   2.067  0.2628 -0.4788 -0.4922
 3919SOL    HW112656   0.875   4.502   2.098 -0.2906 -0.8560 -0.1567
 3919SOL    HW212657   1.011   4.432   2.041  0.3483  0.1108  0.1534
 3920SOL     OW12658   6.549   0.719   5.897  0.0823 -0.4222  0.1228
 3920SOL    HW112659   6.511   0.789   5.836 -0.4855 -0.1330  0.7948
 3920SOL    HW212660   6.573   0.638   5.843 -0.2121 -0.0924 -0.5194
 3921SOL     OW12661   4.692   4.226   5.983  0.2127  0.3486  0.3729
 3921SOL    HW112662   4.649   4.201   6.070  1.2468  1.5997  1.2735
 3921SOL    HW212663   4.629   4.204   5.908 -0.4904 -1.2281  1.3689
 3922SOL     OW12664   2.354   4.983   0.676 -0.2544  0.3469 -0.5209
 3922SOL    HW112665   2.326   4.914   0.609  1.3058  0.6557 -1.5469
 3922SOL    HW212666   2.318   5.072   0.648  0.7280  0.5471 -1.2222
 3923SOL     OW12667   2.818   0.481   4.212 -0.4687 -0.1930  0.0024
 3923SOL    HW112668   2.847   0.501   4.306  0.5393 -0.6620 -0.1944
 3923SOL    HW212669   2.755   0.403   4.213  0.0704 -0.6415  0.2476
 3924SOL     OW12670   1.402   0.216   7.010  0.5426  0.0100  0.2151
 3924SOL    HW112671   1.349   0.295   7.041 -1.4733 -1.3880  0.5713
 3924SOL    HW212672   1.361   0.179   6.926  1.6776 -0.4470 -0.1610
 3925SOL     OW12673   3.165   0.693   0.174 -0.1242 -0.1990  0.1128
 3925SOL    HW112674   3.138   0.721   0.266 -0.9544 -0.8231  0.0662
 3925SOL    HW212675   3.130   0.759   0.108 -0.3142 -0.2401  0.1717
 3926SOL     OW12676   3.338   5.423   4.196 -0.1789 -0.5476  0.8979
 3926SOL    HW112677   3.270   5.496   4.206 -0.5195 -0.2362 -2.5009
 3926SOL    HW212678   3.314   5.346   4.255 -2.2114  0.4450  1.4477
 3927SOL     OW12679   5.364   3.033   3.652  0.3636  0.5465 -0.5276
 3927SOL    HW112680   5.307   3.114   3.640 -0.6508 -0.1026 -0.2592
 3927SOL    HW212681   5.414   3.014   3.567 -0.1559  0.8859 -0.9146
 3928SOL     OW12682   0.335   1.142   5.624 -0.0546  0.2915  0.1587
 3928SOL    HW112683   0.357   1.045   5.635  0.3880  0.5056  1.4041
 3928SOL    HW212684   0.300   1.158   5.532 -1.2939 -1.2616  0.3088
 3929SOL     OW12685   2.152   6.546   5.146 -0.2853  0.1767  0.1232
 3929SOL    HW112686   2.214   6.507   5.214 -0.1824 -0.1159 -0.1386
 3929SOL    HW212687   2.146   6.485   5.067  0.2615  0.9292 -0.5124
 3930SOL     OW12688   5.350   0.924   2.676 -0.0176  0.6132  0.4117
 3930SOL    HW112689   5.291   0.931   2.596  0.1808  2.7144  0.3820
 3930SOL    HW212690   5.301   0.878   2.750  0.0908 -2.1232 -1.1034
 3931SOL     OW12691   1.403   4.929   6.010  0.0478  0.4350  0.1907
 3931SOL    HW112692   1.470   4.855   6.010 -1.9568 -1.5167 -2.0264
 3931SOL    HW212693   1.324   4.903   6.064  0.0464  1.7599  0.8733
 3932SOL     OW12694   4.223   0.563   2.780  0.2229  0.0718  0.1748
 3932SOL    HW112695   4.299   0.607   2.733  2.3202 -0.8972  2.4461
 3932SOL    HW212696   4.139   0.574   2.726  1.4517  3.1256 -1.3572
 3933SOL     OW12697   6.721   4.304   1.278  0.0348 -0.0339 -0.2593
 3933SOL    HW112698   6.656   4.250   1.331  1.4048  1.2115  2.9066
 3933SOL    HW212699   6.810   4.304   1.323  1.4620  0.8185 -2.8383
 3934SOL     OW12700   1.880   1.559   5.223 -0.1583  0.4697 -0.0541
 3934SOL    HW112701   1.851   1.532   5.315  3.1518 -0.3893  0.9013
 3934SOL    HW212702   1.916   1.653   5.226 -3.2677  1.8300 -1.3716
 3935SOL     OW12703   2.650   5.946   5.276  0.2388  0.4393 -0.8943
 3935SOL    HW112704   2.552   5.934   5.269  0.3834 -0.6566 -1.1690
 3935SOL    HW212705   2.675   6.037   5.241 -0.5901  0.4665 -1.4417
 3936SOL     OW12706   4.144   5.865   5.069  0.1054  0.6175 -0.4308
 3936SOL    HW112707   4.110   5.787   5.122  1.0010 -0.0668 -0.8476
 3936SOL    HW212708   4.134   5.847   4.972  1.7385  0.3282 -0.5781
 3937SOL     OW12709   2.374   0.788   5.930  0.1234 -0.0197 -0.0931
 3937SOL    HW112710   2.288   0.786   5.879 -0.1987  0.7044  0.3906
 3937SOL    HW212711   2.378   0.872   5.984  1.3158  0.1429 -0.4013
 3938SOL     OW12712   6.245   2.595   2.406  0.2673  0.0137 -0.6174
 3938SOL    HW112713   6.154   2.635   2.396  0.4772  0.6502 -0.0913
 3938SOL    HW212714   6.268   2.541   2.325 -1.1328 -1.2859 -0.1785
 3939SOL     OW12715   6.551   2.422   3.652 -0.2991  0.1238 -0.3718
 3939SOL    HW112716   6.490   2.501   3.640  1.9173  1.8735 -0.8407
 3939SOL    HW212717   6.645   2.454   3.663  0.4038 -2.3930  1.8978
 3940SOL     OW12718   2.964   5.729   5.062 -0.2683  0.3239 -0.2990
 3940SOL    HW112719   3.010   5.756   4.977  1.8714 -0.8446  0.4127
 3940SOL    HW212720   2.868   5.708   5.042  0.6899 -2.2558 -2.9762
 3941SOL     OW12721   0.030   3.623   6.160 -0.1614 -0.1199  0.1820
 3941SOL    HW112722  -0.061   3.642   6.123  0.2887  2.3065  0.1355
 3941SOL    HW212723   0.028   3.539   6.213 -1.9164 -1.2240 -1.4998
 3942SOL     OW12724   4.289   2.258   4.359  0.0375  0.2789  0.2468
 3942SOL    HW112725   4.313   2.352   4.335 -0.4596 -0.0423 -1.7150
 3942SOL    HW212726   4.373   2.204   4.369  0.2988  0.7230  0.5098
 3943SOL     OW12727   5.532   6.906   2.513 -0.4704  0.4500 -0.3704
 3943SOL    HW112728   5.616   6.925   2.564  0.1484 -0.0668 -1.1837
 3943SOL    HW212729   5.526   6.969   2.435 -1.5220  1.3840  0.4248
 3944SOL     OW12730   1.023   5.895   2.858  0.2780 -0.5985  0.4210
 3944SOL    HW112731   1.123   5.899   2.861  0.3095 -1.0333  0.0565
 3944SOL    HW212732   0.987   5.906   2.951  0.5612  1.7447  0.3249
 3945SOL     OW12733   0.178   1.891   2.371 -0.0929 -0.2800 -0.0109
 3945SOL    HW112734   0.188   1.976   2.423 -1.8557  0.1051 -0.2307
 3945SOL    HW212735   0.099   1.840   2.405  0.8474 -1.7695  0.0106
 3946SOL     OW12736   1.343   5.552   6.132 -0.2280  0.3909 -0.3728
 3946SOL    HW112737   1.298   5.505   6.056 -0.0417 -0.1378 -0.1641
 3946SOL    HW212738   1.288   5.631   6.159 -0.1974  0.7004 -1.1784
 3947SOL     OW12739   0.879   4.049   1.038  0.1744 -0.8355  0.0603
 3947SOL    HW112740   0.951   4.103   0.994  0.8113 -1.4058  0.3916
 3947SOL    HW212741   0.796   4.055   0.983  0.4951 -0.2469 -0.3778
 3948SOL     OW12742   6.536   0.525   4.761  0.0086  0.2673  0.5297
 3948SOL    HW112743   6.455   0.476   4.730  0.2143 -0.3091  0.8975
 3948SOL    HW212744   6.511   0.588   4.835 -0.3950  1.2899 -0.4482
 3949SOL     OW12745   1.938   3.989   0.477 -0.0761 -0.0859  0.0291
 3949SOL    HW112746   1.937   3.974   0.575 -0.3197  1.4163  0.2937
 3949SOL    HW212747   1.995   3.921   0.432 -0.0731 -0.8668  1.1903
 3950SOL     OW12748   6.570   0.811   0.352 -0.4329  0.1696 -0.0496
 3950SOL    HW112749   6.623   0.760   0.284  1.4304  0.2806  1.2704
 3950SOL    HW212750   6.480   0.833   0.313  0.0976 -0.8474 -2.0033
 3951SOL     OW12751   0.744   0.423   5.884 -0.2997 -0.0130 -0.0289
 3951SOL    HW112752   0.652   0.409   5.845 -0.1135  0.5293 -0.6652
 3951SOL    HW212753   0.781   0.509   5.852  0.9774 -0.8316 -0.8359
 3952SOL     OW12754   2.653   5.905   3.164 -0.1723  0.3724  0.7845
 3952SOL    HW112755   2.680   5.835   3.098 -0.3022 -0.1442  1.2662
 3952SOL    HW212756   2.643   5.863   3.255 -0.7344  0.9194  0.9855
 3953SOL     OW12757   0.779   5.498   5.453  0.4590 -0.1482  0.6823
 3953SOL    HW112758   0.844   5.514   5.528  2.1232  0.3446 -0.7963
 3953SOL    HW212759   0.787   5.404   5.421  1.3972  0.2640 -0.3370
 3954SOL     OW12760   5.134   4.912   2.375  0.6473 -0.2886  0.2557
 3954SOL    HW112761   5.179   4.992   2.415 -2.2415  1.6593 -0.0868
 3954SOL    HW212762   5.074   4.870   2.444  1.7570 -1.9242  0.2757
 3955SOL     OW12763   0.324   4.026   2.932 -0.3140  0.5215 -0.7643
 3955SOL    HW112764   0.413   3.987   2.955 -0.1979  1.2139  0.0008
 3955SOL    HW212765   0.260   3.952   2.910 -0.9106 -0.4398  3.4195
 3956SOL     OW12766   3.888   1.155   3.206  0.0055 -0.1112  0.0619
 3956SOL    HW112767   3.926   1.229   3.262 -0.0795  0.4443 -0.6004
 3956SOL    HW212768   3.837   1.194   3.129  2.7225 -0.7822 -2.2261
 3957SOL     OW12769   0.007   2.655   6.852 -0.2522 -0.3227 -0.0230
 3957SOL    HW112770  -0.082   2.650   6.898 -0.5553 -0.0647 -0.5765
 3957SOL    HW212771  -0.001   2.712   6.770 -0.0280 -1.8390 -1.1258
 3958SOL     OW12772   4.386   5.010   4.689 -0.1821 -0.0137 -0.3254
 3958SOL    HW112773   4.354   4.974   4.601 -1.1310 -0.5770  0.2223
 3958SOL    HW212774   4.313   5.000   4.757  1.2112 -1.4774  1.0355
 3959SOL     OW12775   3.569   4.936   6.588  0.4666 -0.5633 -0.4905
 3959SOL    HW112776   3.540   4.881   6.667 -0.8670 -0.4401 -0.8713
 3959SOL    HW212777   3.596   5.027   6.619 -1.7620  0.0920 -0.3154
 3960SOL     OW12778   6.292   0.431   5.445 -0.0041  0.5049  0.0124
 3960SOL    HW112779   6.352   0.493   5.395  1.0541  0.2906  0.9764
 3960SOL    HW212780   6.268   0.471   5.533  1.0618 -0.6096  0.8463
 3961SOL     OW12781   2.751   0.627   5.102 -0.0958  0.5793 -0.0528
 3961SOL    HW112782   2.752   0.543   5.048  2.6519  0.9562 -0.7372
 3961SOL    HW212783   2.739   0.706   5.042  2.6905  0.9789 -0.2125
 3962SOL     OW12784   5.761   0.414   6.483  0.3722  0.2856  0.0988
 3962SOL    HW112785   5.715   0.369   6.560 -1.1373  0.8234 -0.4539
 3962SOL    HW212786   5.713   0.393   6.398 -0.4173  2.8865 -0.1807
 3963SOL     OW12787   1.094   3.925   2.995  0.2381  0.3828  0.2584
 3963SOL    HW112788   1.178   3.923   3.049  0.0804  0.1808  0.4937
 3963SOL    HW212789   1.044   4.009   3.015  0.1076  0.2388  0.5321
 3964SOL     OW12790   4.532   6.530   6.842  0.5288 -0.3798 -0.1723
 3964SOL    HW112791   4.546   6.619   6.799 -0.3746  0.2545  0.8162
 3964SOL    HW212792   4.608   6.509   6.903  1.3029 -0.8186 -1.2538
 3965SOL     OW12793   6.566   3.320   1.612  0.2472 -0.9631  0.2408
 3965SOL    HW112794   6.535   3.227   1.590 -0.1482 -1.1241  1.3645
 3965SOL    HW212795   6.585   3.325   1.710 -2.4408  0.8651  0.7703
 3966SOL     OW12796   4.272   1.587   4.789 -0.3084  0.4861 -0.5317
 3966SOL    HW112797   4.329   1.663   4.819 -0.2971  0.8139 -1.3590
 3966SOL    HW212798   4.262   1.522   4.864  0.1628  1.0115  0.0016
 3967SOL     OW12799   4.346   3.497   0.503 -0.0680  0.2280 -0.8470
 3967SOL    HW112800   4.422   3.537   0.452  2.0992  1.7495  3.1003
 3967SOL    HW212801   4.369   3.402   0.527  1.2118  0.9645  1.1322
 3968SOL     OW12802   2.672   6.183   5.149 -0.1215  0.0954  0.0556
 3968SOL    HW112803   2.772   6.172   5.148  0.0556  1.4780 -1.7858
 3968SOL    HW212804   2.640   6.201   5.057 -1.7932  2.0527  0.9422
 3969SOL     OW12805   6.185   4.984   1.315  0.2402 -0.2656 -0.3413
 3969SOL    HW112806   6.142   4.901   1.350  1.6088 -0.2282  1.5928
 3969SOL    HW212807   6.114   5.044   1.278 -0.8537 -1.9392 -1.0619
 3970SOL     OW12808   5.132   2.928   0.122  0.7431 -0.1538 -0.5033
 3970SOL    HW112809   5.116   2.992   0.047 -0.1132 -0.8314 -0.9147
 3970SOL    HW212810   5.132   2.977   0.209 -2.0256  0.1761 -0.6058
 3971SOL     OW12811   4.516   2.786   0.453 -0.1575 -0.1503  0.2905
 3971SOL    HW112812   4.454   2.864   0.440 -2.2255 -1.3255  2.3362
 3971SOL    HW212813   4.547   2.784   0.548  1.1577 -0.9400 -0.1301
 3972SOL     OW12814   5.467   2.141   5.577 -0.2895  0.4043  0.0797
 3972SOL    HW112815   5.490   2.064   5.637  0.3438  0.2277 -0.3760
 3972SOL    HW212816   5.483   2.227   5.625 -0.3262  0.2609  0.3521
 3973SOL     OW12817   3.539   3.313   3.831  0.4845  0.2514 -0.4348
 3973SOL    HW112818   3.505   3.394   3.880 -2.0528  0.1569 -1.8372
 3973SOL    HW212819   3.611   3.341   3.767  0.6755  1.1435  0.1510
 3974SOL     OW12820   0.091   3.967   3.204  0.0716 -0.1157  0.0695
 3974SOL    HW112821  -0.006   3.956   3.186  0.1031 -0.8241  0.2817
 3974SOL    HW212822   0.140   3.984   3.119 -0.4182  1.8188  0.1289
 3975SOL     OW12823   5.968   1.394   1.384  0.0209 -0.3563  0.0625
 3975SOL    HW112824   5.872   1.397   1.410 -0.4710 -0.2536 -1.6361
 3975SOL    HW212825   5.976   1.394   1.284  1.7593 -1.2038  0.1535
 3976SOL     OW12826   5.554   1.894   6.169 -0.5684 -0.1006  0.2655
 3976SOL    HW112827   5.639   1.855   6.204 -0.2039 -1.2563 -1.7790
 3976SOL    HW212828   5.521   1.839   6.092 -2.2369  1.3234 -0.0919
 3977SOL     OW12829   4.167   6.290   6.315  0.2290 -0.1033  0.7631
 3977SOL    HW112830   4.249   6.337   6.347  0.3996 -0.4177  0.7919
 3977SOL    HW212831   4.178   6.191   6.328  0.4069 -0.2640 -0.4969
 3978SOL     OW12832   4.508   0.041   1.456  0.3464  0.2871 -0.1330
 3978SOL    HW112833   4.502   0.082   1.547  1.2613  1.0873 -0.4151
 3978SOL    HW212834   4.449   0.092   1.393  0.9978  0.7927 -0.3446
 3979SOL     OW12835   6.519   3.472   0.054 -0.3513  0.4243  0.0901
 3979SOL    HW112836   6.586   3.497   0.124 -1.3669 -0.1157  1.2837
 3979SOL    HW212837   6.562   3.410  -0.012  0.3894  0.2602  0.7155
 3980SOL     OW12838   5.607   4.584   5.520  0.4573 -0.3392 -0.2964
 3980SOL    HW112839   5.694   4.608   5.564  0.4510 -0.7752 -0.0383
 3980SOL    HW212840   5.543   4.553   5.590 -0.3290  1.1578 -0.3099
 3981SOL     OW12841   4.227   5.533   2.506 -0.3560 -0.2337  0.1327
 3981SOL    HW112842   4.311   5.483   2.483 -0.1551  0.6800 -1.1907
 3981SOL    HW212843   4.229   5.556   2.604  1.1157  0.0786  0.0646
 3982SOL     OW12844   0.911   4.070   1.559 -0.1222 -0.6069  0.1121
 3982SOL    HW112845   0.968   3.988   1.558  1.0722  0.1797  1.4098
 3982SOL    HW212846   0.863   4.077   1.471  0.7135 -2.0193 -0.5002
 3983SOL     OW12847   6.792   2.946   1.626  0.1868  0.2870 -0.1567
 3983SOL    HW112848   6.738   2.862   1.625 -1.3394  1.1961  0.5284
 3983SOL    HW212849   6.865   2.938   1.693 -1.4618  0.3207  1.7614
 3984SOL     OW12850   1.331   2.580   1.735  0.3776  0.3146 -0.2920
 3984SOL    HW112851   1.308   2.677   1.749  0.7441  0.4915 -0.8864
 3984SOL    HW212852   1.430   2.569   1.737  0.3555  0.0397 -0.7864
 3985SOL     OW12853   3.239   4.569   6.951 -0.5169 -0.2449  0.1396
 3985SOL    HW112854   3.187   4.494   6.911 -1.1366  0.4272 -0.3324
 3985SOL    HW212855   3.213   4.580   7.047  0.1076 -1.0945  0.4144
 3986SOL     OW12856   3.735   4.765   5.305  0.2807 -0.2147 -0.0071
 3986SOL    HW112857   3.723   4.824   5.225  0.2577  1.8777  1.4563
 3986SOL    HW212858   3.651   4.712   5.320  0.5924 -1.3097 -1.8224
 3987SOL     OW12859   0.511   2.820   6.321  0.1269 -0.3745 -0.0819
 3987SOL    HW112860   0.471   2.731   6.300 -1.5755  0.4482 -0.4907
 3987SOL    HW212861   0.543   2.863   6.236  0.4546 -0.3711  0.0432
 3988SOL     OW12862   3.839   3.500   4.041  0.4035  0.0723 -0.3099
 3988SOL    HW112863   3.786   3.584   4.051  0.2587  0.0443 -0.7796
 3988SOL    HW212864   3.781   3.421   4.064 -0.0585 -0.0216 -1.6696
 3989SOL     OW12865   3.058   3.514   6.926 -0.2129 -0.3956 -0.0272
 3989SOL    HW112866   2.997   3.549   6.997 -0.8708  0.0468 -0.7936
 3989SOL    HW212867   3.007   3.456   6.863  0.2677 -0.4427 -0.3827
 3990SOL     OW12868   6.698   1.699   4.764 -0.1944  0.2012  0.2979
 3990SOL    HW112869   6.719   1.638   4.687 -0.0050  1.2122 -0.4876
 3990SOL    HW212870   6.603   1.729   4.758 -0.7157 -1.1007  1.4923
 3991SOL     OW12871   0.050   4.355   3.587  0.0620  0.2343 -0.1391
 3991SOL    HW112872  -0.032   4.321   3.633  0.0918 -1.3881 -1.1999
 3991SOL    HW212873   0.060   4.310   3.499  1.3065  1.5038 -0.6894
 3992SOL     OW12874   1.739   0.556   2.093  0.6731 -0.4162 -0.6245
 3992SOL    HW112875   1.750   0.461   2.122 -0.1493 -0.3295  0.0002
 3992SOL    HW212876   1.762   0.617   2.169 -2.8221 -0.2062  0.4136
 3993SOL     OW12877   0.396   4.439   3.988 -0.5228  0.8230  0.6297
 3993SOL    HW112878   0.468   4.371   4.003 -0.8199  0.3245 -0.1345
 3993SOL    HW212879   0.310   4.392   3.969 -1.1594  1.4041  1.9126
 3994SOL     OW12880   2.393   4.181   5.282 -0.3041  0.4807 -0.0139
 3994SOL    HW112881   2.303   4.208   5.314 -0.7042 -1.4801  0.6308
 3994SOL    HW212882   2.395   4.082   5.267  1.2976  0.6790 -1.4821
 3995SOL     OW12883   0.689   6.645   2.711  0.6352  0.7620  0.1702
 3995SOL    HW112884   0.596   6.634   2.676  1.0694  0.2193 -0.8514
 3995SOL    HW212885   0.740   6.706   2.650  1.8940 -1.5020 -1.1672
 3996SOL     OW12886   6.475   5.949   2.003 -0.0139  0.3996  0.1511
 3996SOL    HW112887   6.472   5.888   1.923  0.4540  0.1759  0.2989
 3996SOL    HW212888   6.509   6.038   1.975  1.6850 -0.1513  0.3793
 3997SOL     OW12889   4.172   2.255   2.411 -0.0820  0.9332 -0.0666
 3997SOL    HW112890   4.083   2.259   2.456 -0.5554  0.6445 -0.9539
 3997SOL    HW212891   4.159   2.243   2.313  0.9425  0.4490 -0.1552
 3998SOL     OW12892   0.982   4.540   3.911 -0.1052  0.2902  0.4516
 3998SOL    HW112893   0.953   4.634   3.929  0.9067  1.2193 -2.2277
 3998SOL    HW212894   0.907   4.491   3.866  1.0308  1.7298 -3.5223
 3999SOL     OW12895   5.286   0.386   5.924  0.3559  0.0733  0.2203
 3999SOL    HW112896   5.273   0.364   5.827  1.7362 -0.6871  0.1811
 3999SOL    HW212897   5.331   0.475   5.932 -0.2495  0.3840  0.1842
 4000SOL     OW12898   0.028   1.204   2.380 -0.2772 -0.1358  0.1214
 4000SOL    HW112899  -0.007   1.293   2.413 -1.5814  0.1480 -1.8911
 4000SOL    HW212900   0.055   1.212   2.285  0.8001 -1.6294  0.2674
 4001SOL     OW12901   2.335   2.082   5.887  0.3577  0.2343 -0.2220
 4001SOL    HW112902   2.338   2.020   5.809 -3.1518  0.0131 -0.3201
 4001SOL    HW212903   2.301   2.172   5.858  1.3400  0.9223  0.6674
 4002SOL     OW12904   0.805   4.963   6.402  0.0238 -1.1222 -0.3862
 4002SOL    HW112905   0.864   4.985   6.324 -0.0256  0.0382 -0.1103
 4002SOL    HW212906   0.725   4.912   6.370 -0.7276  0.5771 -1.3393
 4003SOL     OW12907   5.443   2.259   6.753  0.6353 -0.1214  0.2675
 4003SOL    HW112908   5.453   2.327   6.827 -1.6948  0.4438  0.1475
 4003SOL    HW212909   5.509   2.186   6.766  0.3190 -0.0338  2.9424
 4004SOL     OW12910   0.037   1.982   4.070  0.2030  0.1817  0.5768
 4004SOL    HW112911  -0.010   2.062   4.033  0.1374 -0.7790 -1.5146
 4004SOL    HW212912   0.135   1.990   4.051  0.2152 -0.1681  0.4948
 4005SOL     OW12913   3.909   4.672   1.650  0.1824 -0.1146  0.0664
 4005SOL    HW112914   3.986   4.625   1.606  0.5281 -0.3087  0.8595
 4005SOL    HW212915   3.823   4.630   1.620  0.2334  1.1737 -2.1390
 4006SOL     OW12916   2.199   2.063   4.824 -0.5588 -0.6433 -0.0516
 4006SOL    HW112917   2.141   1.985   4.846 -0.6927 -0.8327 -1.0442
 4006SOL    HW212918   2.294   2.034   4.817 -0.5847 -0.6837 -0.2381
 4007SOL     OW12919   0.526   3.073   6.717  0.3529  0.5353 -0.2691
 4007SOL    HW112920   0.616   3.115   6.732  0.7012 -0.3530  0.1720
 4007SOL    HW212921   0.537   2.978   6.691 -0.4285  0.8131 -1.7123
 4008SOL     OW12922   2.748   3.684   6.397 -0.2680  0.2891  0.9009
 4008SOL    HW112923   2.807   3.624   6.342 -1.0293 -1.0786  1.5244
 4008SOL    HW212924   2.657   3.687   6.356  0.0519  2.0104  0.2167
 4009SOL     OW12925   1.093   5.690   1.025 -0.5493 -0.0355  1.0039
 4009SOL    HW112926   1.103   5.773   1.080  2.1711 -1.4783  2.9705
 4009SOL    HW212927   1.093   5.713   0.928 -0.2273  2.2693  1.4977
 4010SOL     OW12928   2.865   2.428   0.796  0.3652 -0.0596  0.0231
 4010SOL    HW112929   2.891   2.334   0.816 -1.8879 -0.7220  0.1330
 4010SOL    HW212930   2.815   2.466   0.874  0.9408  1.1276 -0.1551
 4011SOL     OW12931   4.865   4.326   4.635  0.4109  0.4503 -0.0599
 4011SOL    HW112932   4.832   4.235   4.662 -0.9378  1.2367  1.0409
 4011SOL    HW212933   4.939   4.354   4.696 -0.5943  0.9551  0.9507
 4012SOL     OW12934   0.457   5.031   6.971  0.2424  0.0919 -0.1261
 4012SOL    HW112935   0.460   4.958   6.903 -0.2812  0.3076 -0.3877
 4012SOL    HW212936   0.413   4.997   7.054  0.1085  0.0726 -0.2045
 4013SOL     OW12937   3.428   5.730   1.000 -0.2906  0.2029 -0.1989
 4013SOL    HW112938   3.498   5.660   1.011 -0.8138 -0.6067 -1.7095
 4013SOL    HW212939   3.428   5.763   0.906  0.1374  2.4868  0.5467
 4014SOL     OW12940   3.981   1.184   1.467  0.7581 -0.1674  0.7886
 4014SOL    HW112941   3.959   1.228   1.554  0.9571  0.4035  0.5560
 4014SOL    HW212942   3.903   1.190   1.405  0.3469 -1.2392  1.1806
 4015SOL     OW12943   2.902   2.883   0.942  0.2043 -0.1372 -0.3201
 4015SOL    HW112944   2.921   2.807   1.004 -1.4058 -1.4611 -1.3563
 4015SOL    HW212945   2.866   2.960   0.993  1.2960 -0.2716  0.6823
 4016SOL     OW12946   5.584   4.357   4.964  0.5941  0.9088 -0.0020
 4016SOL    HW112947   5.613   4.285   5.026 -0.1116  0.5502 -0.0828
 4016SOL    HW212948   5.641   4.438   4.979  2.1701 -0.0143 -0.7060
 4017SOL     OW12949   4.548   5.228   4.213 -0.0049  0.2784 -0.1301
 4017SOL    HW112950   4.536   5.182   4.301 -0.1103  0.8755  0.1748
 4017SOL    HW212951   4.511   5.171   4.140 -1.8196  0.6463  0.4319
 4018SOL     OW12952   5.165   5.596   2.939 -0.4737  0.1745 -0.4031
 4018SOL    HW112953   5.176   5.675   2.878  0.7800 -0.2101 -0.7229
 4018SOL    HW212954   5.252   5.548   2.945 -0.7920 -0.2591  1.0843
 4019SOL     OW12955   5.520   3.830   1.933  0.6205 -0.1071  0.3393
 4019SOL    HW112956   5.543   3.746   1.884 -0.3949 -1.0981  1.4539
 4019SOL    HW212957   5.458   3.807   2.009  1.0876  1.5273  1.2561
 4020SOL     OW12958   3.903   2.029   2.727  0.2043 -0.8024 -0.1936
 4020SOL    HW112959   3.875   1.933   2.732 -0.4642 -0.5619  1.2397
 4020SOL    HW212960   3.970   2.048   2.798 -0.1252 -0.0812 -0.0626
 4021SOL     OW12961   6.540   2.614   1.250 -0.0555  0.9648  0.0169
 4021SOL    HW112962   6.631   2.587   1.221 -0.8722  0.1367 -1.9212
 4021SOL    HW212963   6.499   2.541   1.305 -0.7759 -0.1560 -1.9278
 4022SOL     OW12964   3.650   1.715   4.228  0.1875 -0.0423 -0.5733
 4022SOL    HW112965   3.743   1.688   4.253 -0.1370  0.2252  1.0543
 4022SOL    HW212966   3.629   1.683   4.135  2.2815  0.8850 -1.4130
 4023SOL     OW12967   6.665   0.184   6.249 -1.0265  0.1515 -0.0912
 4023SOL    HW112968   6.700   0.171   6.157  0.0243 -2.1512  0.5496
 4023SOL    HW212969   6.587   0.123   6.264 -2.2110  1.6489  0.0838
 4024SOL     OW12970   0.659   6.025   1.859 -0.1789 -0.7406 -0.7805
 4024SOL    HW112971   0.673   6.088   1.782 -1.6205 -0.7488 -1.0741
 4024SOL    HW212972   0.747   6.007   1.903  0.3226  1.1683 -0.9177
 4025SOL     OW12973   2.662   6.797   3.212  0.3452  0.2662 -1.3012
 4025SOL    HW112974   2.624   6.882   3.250  1.7420  0.0405  0.7678
 4025SOL    HW212975   2.622   6.719   3.259  0.3419 -0.1506 -1.9905
 4026SOL     OW12976   5.256   2.245   0.966 -0.0524  0.0987  0.6327
 4026SOL    HW112977   5.349   2.208   0.955  0.4769  1.3469  0.7728
 4026SOL    HW212978   5.215   2.206   1.049  0.5085 -0.1491  0.8028
 4027SOL     OW12979   6.803   1.164   3.285 -0.1714 -0.1425 -0.0876
 4027SOL    HW112980   6.769   1.157   3.379 -1.3880 -0.2857 -0.5121
 4027SOL    HW212981   6.840   1.075   3.257 -0.0919 -0.1878  0.1506
 4028SOL     OW12982   4.815   6.642   6.687 -0.5302  0.4048  0.3105
 4028SOL    HW112983   4.899   6.688   6.657 -0.7003  1.1534  0.9407
 4028SOL    HW212984   4.743   6.710   6.698 -0.8009 -0.0215  1.2467
 4029SOL     OW12985   3.762   6.910   1.776 -0.1781 -0.5985 -0.2146
 4029SOL    HW112986   3.732   6.819   1.749 -0.0337 -0.7219  0.0411
 4029SOL    HW212987   3.682   6.968   1.792 -0.2669 -0.3643 -1.4278
 4030SOL     OW12988   5.601   0.148   0.728 -0.0417 -0.4258 -0.5594
 4030SOL    HW112989   5.538   0.186   0.661  1.7299  1.9206 -1.0060
 4030SOL    HW212990   5.686   0.199   0.727  1.4733 -2.7278  0.8643
 4031SOL     OW12991   3.894   0.417   2.809  0.2498 -0.4771  0.0765
 4031SOL    HW112992   3.892   0.510   2.772  1.4371 -0.2301  0.5798
 4031SOL    HW212993   3.951   0.359   2.750  1.2272 -0.3539  0.8720
 4032SOL     OW12994   1.134   3.578   0.144 -0.2731  0.4538  0.2709
 4032SOL    HW112995   1.048   3.624   0.124 -0.3945  0.4854  0.8569
 4032SOL    HW212996   1.121   3.514   0.220  0.2131  0.4412  0.3496
 4033SOL     OW12997   3.748   3.289   5.106  0.0936  0.0064  0.3674
 4033SOL    HW112998   3.661   3.316   5.066  0.2923 -1.2943 -1.0361
 4033SOL    HW212999   3.806   3.370   5.117 -1.3593  0.9449  1.6219
 4034SOL     OW13000   3.723   6.294   2.602 -0.2907  1.0796  0.3972
 4034SOL    HW113001   3.707   6.252   2.691 -0.6201 -0.8710 -0.5150
 4034SOL    HW213002   3.652   6.362   2.583 -1.2031  0.3103  0.9526
 4035SOL     OW13003   0.039   5.827   5.292  0.6704  0.5597 -0.2398
 4035SOL    HW113004   0.010   5.731   5.285 -3.5224  1.3201  2.4856
 4035SOL    HW213005  -0.004   5.880   5.219 -0.9933  0.9294  0.9294
 4036SOL     OW13006   6.731   6.310   0.633 -0.2141  0.5057 -0.2616
 4036SOL    HW113007   6.720   6.362   0.718 -0.7857  0.4526 -0.3036
 4036SOL    HW213008   6.826   6.317   0.602  0.3080 -0.4255  1.0111
 4037SOL     OW13009   4.023   5.390   1.638  0.2120 -0.0867  0.0619
 4037SOL    HW113010   4.122   5.382   1.636  0.2637  0.0603  1.3833
 4037SOL    HW213011   3.983   5.340   1.561  1.3580  0.8696 -1.2082
 4038SOL     OW13012   6.862   1.467   0.527 -0.0176 -0.2114 -0.0438
 4038SOL    HW113013   6.904   1.376   0.529  0.5024 -0.1213  4.5328
 4038SOL    HW213014   6.933   1.537   0.534 -0.5703  0.1997  2.1235
 4039SOL     OW13015   0.069   6.346   1.339  0.5154  0.0782 -0.1407
 4039SOL    HW113016   0.145   6.316   1.282 -0.0299 -0.9176 -0.3627
 4039SOL    HW213017   0.105   6.381   1.426  1.1690 -1.6116  0.3072
 4040SOL     OW13018   1.219   3.004   0.168 -0.0493  0.0122  0.1646
 4040SOL    HW113019   1.280   3.083   0.166 -1.4632  1.1483 -0.0672
 4040SOL    HW213020   1.259   2.931   0.223  1.2985  0.8750  0.3586
 4041SOL     OW13021   6.535   3.740   2.114 -0.5338 -0.5684 -0.1128
 4041SOL    HW113022   6.603   3.806   2.079 -0.6526  0.1107  0.8933
 4041SOL    HW213023   6.577   3.650   2.122  0.8391  0.1941  2.1834
 4042SOL     OW13024   4.746   0.463   3.043 -0.0463 -0.4179  0.3926
 4042SOL    HW113025   4.817   0.441   3.109  1.4105 -0.3754 -1.0874
 4042SOL    HW213026   4.777   0.537   2.983 -1.2925 -0.4615 -0.3573
 4043SOL     OW13027   0.523   5.378   6.044  0.1914 -0.2814  0.0103
 4043SOL    HW113028   0.578   5.347   6.122  0.3309 -1.2464 -0.4606
 4043SOL    HW213029   0.463   5.304   6.014  1.8864 -0.8067 -2.3512
 4044SOL     OW13030   4.868   5.336   1.849 -0.1173  0.5307 -0.4451
 4044SOL    HW113031   4.913   5.254   1.812 -2.6610 -1.3127  0.2900
 4044SOL    HW213032   4.873   5.335   1.949 -1.6271  0.3457 -0.3511
 4045SOL     OW13033   6.144   2.156   1.014  0.5650 -0.3672 -0.1200
 4045SOL    HW113034   6.156   2.199   0.925 -0.6561  0.8059  0.2576
 4045SOL    HW213035   6.179   2.216   1.086 -0.3176 -0.3901  0.3406
 4046SOL     OW13036   5.407   5.008   3.488 -0.5543  0.6065  0.5375
 4046SOL    HW113037   5.350   5.076   3.442  0.9864  2.3396  1.0962
 4046SOL    HW213038   5.468   4.966   3.422  0.3133  1.7003  0.6165
 4047SOL     OW13039   0.226   3.368   5.045  0.2770 -0.1581  0.0920
 4047SOL    HW113040   0.251   3.329   5.134  0.1745 -1.4239 -0.4061
 4047SOL    HW213041   0.143   3.422   5.054  1.2419  1.2249  1.0990
 4048SOL     OW13042   1.025   4.284   5.595  0.2088  0.1388 -0.6186
 4048SOL    HW113043   1.012   4.330   5.507 -0.8952  1.0539 -0.0082
 4048SOL    HW213044   1.120   4.252   5.602  0.1457 -0.5611 -2.4074
 4049SOL     OW13045   2.652   5.348   1.212  0.2885  0.2907 -0.2898
 4049SOL    HW113046   2.579   5.396   1.259  0.3601  0.1673 -0.0524
 4049SOL    HW213047   2.741   5.385   1.240  0.3616 -0.2410  0.1961
 4050SOL     OW13048   0.579   0.570   6.123 -0.0026  0.0255 -0.7597
 4050SOL    HW113049   0.593   0.510   6.202 -1.8976  0.3130 -0.1553
 4050SOL    HW213050   0.606   0.522   6.040 -1.2386 -1.6090 -0.2688
 4051SOL     OW13051   1.062   0.129   1.841  0.2177  0.1119 -0.6541
 4051SOL    HW113052   1.096   0.202   1.900  1.3168 -0.7375 -0.2029
 4051SOL    HW213053   1.139   0.077   1.804 -0.4004  0.8431 -3.1780
 4052SOL     OW13054   5.887   3.616   3.637 -0.0606 -0.1276  0.1924
 4052SOL    HW113055   5.952   3.546   3.610 -0.3834 -0.6336  0.6991
 4052SOL    HW213056   5.894   3.694   3.575  0.0171 -0.7755 -0.6327
 4053SOL     OW13057   0.855   0.880   2.181 -0.2543 -0.6935  0.0880
 4053SOL    HW113058   0.921   0.807   2.164  3.1853  1.9192  1.0807
 4053SOL    HW213059   0.840   0.889   2.280 -0.2715  0.1788  0.0162
 4054SOL     OW13060   0.572   2.269   4.326  0.9365 -0.2860  0.6141
 4054SOL    HW113061   0.622   2.190   4.363 -0.4222 -0.3574  2.4500
 4054SOL    HW213062   0.519   2.311   4.399  0.3121  1.3383 -0.7193
 4055SOL     OW13063   6.574   2.791   2.307 -0.1751  0.3688  0.1779
 4055SOL    HW113064   6.571   2.891   2.302  1.7669  0.4354 -0.1444
 4055SOL    HW213065   6.569   2.753   2.215 -3.4391 -0.0045  0.3854
 4056SOL     OW13066   4.229   1.667   1.771  0.2242 -0.2301  0.6237
 4056SOL    HW113067   4.188   1.745   1.724  1.6030 -0.5924 -1.3457
 4056SOL    HW213068   4.182   1.651   1.858 -0.4852  2.3932  0.8138
 4057SOL     OW13069   1.638   3.699   5.826 -0.9357  0.0883  0.0037
 4057SOL    HW113070   1.641   3.611   5.778 -2.5254  0.6244 -1.1611
 4057SOL    HW213071   1.719   3.753   5.802 -0.6525 -0.4983 -0.3887
 4058SOL     OW13072   1.043   3.974   4.981  0.2504  0.0680 -0.2285
 4058SOL    HW113073   0.971   4.023   5.031 -0.2111 -1.0950  0.2988
 4058SOL    HW213074   1.057   3.884   5.023  1.4820 -0.0317 -0.8033
 4059SOL     OW13075   0.333   2.455   3.603  0.3769 -0.5474 -0.0001
 4059SOL    HW113076   0.347   2.534   3.544  1.0238 -0.0867  0.7499
 4059SOL    HW213077   0.251   2.406   3.574  0.3360  0.0169 -0.8823
 4060SOL     OW13078   0.745   4.751   6.049 -0.2055  0.0871 -0.1868
 4060SOL    HW113079   0.711   4.791   5.964  0.2580 -0.5309 -0.6683
 4060SOL    HW213080   0.844   4.737   6.042 -0.1950 -0.1418  0.3813
 4061SOL     OW13081   6.598   3.418   3.002 -0.0336 -0.1766 -0.6296
 4061SOL    HW113082   6.525   3.409   3.070  0.0837  0.8318 -0.3653
 4061SOL    HW213083   6.563   3.391   2.913 -0.1772 -1.5673 -0.1888
 4062SOL     OW13084   1.794   4.372   5.680 -0.1025 -0.3621  0.1023
 4062SOL    HW113085   1.828   4.429   5.755 -0.7111 -1.7664  1.5191
 4062SOL    HW213086   1.694   4.373   5.682 -0.1156 -0.8004 -0.4022
 4063SOL     OW13087   1.798   1.276   4.643 -0.2499 -0.3450  0.5722
 4063SOL    HW113088   1.754   1.254   4.555 -2.0221  2.2903  0.6975
 4063SOL    HW213089   1.835   1.368   4.640  1.8685 -1.0847  1.8566
 4064SOL     OW13090   3.359   1.807   0.913 -0.0197  1.0949  0.4704
 4064SOL    HW113091   3.308   1.826   0.829  1.6648 -0.3436 -0.9706
 4064SOL    HW213092   3.295   1.790   0.988 -1.8221 -1.8129 -1.5009
 4065SOL     OW13093   0.794   6.660   3.519 -0.4348  0.6407  0.5950
 4065SOL    HW113094   0.866   6.593   3.499 -0.0209  0.9446  1.0433
 4065SOL    HW213095   0.826   6.723   3.590 -1.8232 -0.4008  2.2245
 4066SOL     OW13096   0.918   5.139   4.100 -0.1452 -0.5184  0.0762
 4066SOL    HW113097   0.861   5.059   4.118  0.2744 -0.7467  0.4215
 4066SOL    HW213098   1.013   5.118   4.124  0.3256 -0.5788 -1.6853
 4067SOL     OW13099   4.118   2.380   0.631  0.4978 -0.2849 -0.0243
 4067SOL    HW113100   4.034   2.414   0.587  0.3924 -1.0689 -0.4493
 4067SOL    HW213101   4.143   2.441   0.705 -0.4952 -0.0664  0.1519
 4068SOL     OW13102   4.099   4.202   0.385 -0.6377  0.0278 -0.8187
 4068SOL    HW113103   4.068   4.152   0.466  1.0818 -0.5949 -0.5133
 4068SOL    HW213104   4.035   4.277   0.366 -0.2353  1.2550  2.1258
 4069SOL     OW13105   6.552   0.212   1.254  0.6364 -0.5445  0.0819
 4069SOL    HW113106   6.469   0.164   1.282 -0.3158  1.8001  1.5733
 4069SOL    HW213107   6.528   0.294   1.201  1.9188  0.4857  1.0052
 4070SOL     OW13108   5.607   2.805   3.659  0.5699 -0.4151 -0.4944
 4070SOL    HW113109   5.527   2.835   3.608 -0.9934  0.2908  2.2201
 4070SOL    HW213110   5.626   2.708   3.638 -1.7741 -0.9715 -0.2370
 4071SOL     OW13111   4.343   6.469   4.112  0.0163  0.2068  0.4418
 4071SOL    HW113112   4.263   6.436   4.063  1.5174 -3.1549 -0.0583
 4071SOL    HW213113   4.416   6.490   4.047  0.7454 -0.4358  1.0367
 4072SOL     OW13114   5.006   4.739   5.408 -0.1919 -0.2408  0.1368
 4072SOL    HW113115   5.047   4.711   5.495  1.3494  1.8095  0.1249
 4072SOL    HW213116   5.033   4.675   5.336  1.2209 -0.1453  0.5647
 4073SOL     OW13117   4.960   4.275   0.329  0.8719  0.3300 -0.4415
 4073SOL    HW113118   4.872   4.238   0.300  0.9327 -0.2177  0.0323
 4073SOL    HW213119   4.946   4.355   0.388  0.6277 -0.5079  0.6789
 4074SOL     OW13120   0.496   4.810   6.799 -0.1384 -0.4304  0.0660
 4074SOL    HW113121   0.575   4.791   6.740 -0.3779  0.5423 -0.6005
 4074SOL    HW213122   0.498   4.750   6.879  0.7788 -1.0384 -0.3980
 4075SOL     OW13123   0.989   1.793   3.782 -0.1860  0.3715 -0.1967
 4075SOL    HW113124   0.903   1.776   3.733  0.7626 -1.0331 -1.4688
 4075SOL    HW213125   1.011   1.890   3.777 -0.4259  0.3686 -2.1124
 4076SOL     OW13126   3.259   3.387   4.096 -0.1826 -0.4117 -0.4325
 4076SOL    HW113127   3.278   3.431   4.184 -0.3882 -0.8606 -0.1634
 4076SOL    HW213128   3.163   3.401   4.073  0.1995  1.0261 -1.3309
 4077SOL     OW13129   6.373   1.205   1.484  0.3209  0.5639  0.1610
 4077SOL    HW113130   6.432   1.227   1.406  0.3177  1.3203  0.3616
 4077SOL    HW213131   6.331   1.289   1.518  0.2116  0.2172  0.8895
 4078SOL     OW13132   6.256   1.466   5.338 -0.3790 -0.3410 -0.1376
 4078SOL    HW113133   6.326   1.403   5.304  1.4783  0.2033  2.3696
 4078SOL    HW213134   6.172   1.453   5.286  0.3547 -3.7899 -0.7159
 4079SOL     OW13135   5.320   0.730   2.374 -0.2657 -0.1885 -0.3613
 4079SOL    HW113136   5.274   0.819   2.384  0.0396 -0.1199  0.4305
 4079SOL    HW213137   5.419   0.743   2.376 -0.2036 -0.4291 -1.3254
 4080SOL     OW13138   3.030   6.753   6.529  0.1652  0.1137  0.5823
 4080SOL    HW113139   2.987   6.812   6.461 -0.1902  0.3286  0.9915
 4080SOL    HW213140   3.129   6.766   6.526  0.2194 -0.4220 -0.3940
 4081SOL     OW13141   2.174   1.199   1.289 -0.1207  0.3686  0.4039
 4081SOL    HW113142   2.146   1.134   1.218 -2.1851  0.7588  0.7973
 4081SOL    HW213143   2.273   1.215   1.282  0.1352 -1.4443 -0.8076
 4082SOL     OW13144   5.404   1.066   6.310  0.1927  0.1645  0.1566
 4082SOL    HW113145   5.402   0.975   6.352 -1.2809 -0.3444 -0.9602
 4082SOL    HW213146   5.381   1.135   6.379 -3.6081 -0.7704  0.0153
 4083SOL     OW13147   6.616   0.917   6.090  0.0091  0.1323  0.0908
 4083SOL    HW113148   6.616   0.852   6.015 -0.2165 -1.0224  1.0711
 4083SOL    HW213149   6.710   0.937   6.117  0.0588 -0.8458  0.6740
 4084SOL     OW13150   4.756   0.421   0.556  0.0925 -0.4684  0.2155
 4084SOL    HW113151   4.797   0.429   0.647  0.1800 -2.2537  0.3780
 4084SOL    HW213152   4.659   0.444   0.561  0.3149  0.4276  0.5448
 4085SOL     OW13153   5.643   6.824   3.449  0.1161  0.0462  0.0059
 4085SOL    HW113154   5.645   6.923   3.456  1.3958  0.0805 -0.4733
 4085SOL    HW213155   5.552   6.793   3.422 -0.0448  1.1612 -0.7835
 4086SOL     OW13156   4.357   5.231   2.054  0.0734  0.4429 -0.1366
 4086SOL    HW113157   4.312   5.177   1.984  2.9711  0.7912 -2.4720
 4086SOL    HW213158   4.305   5.315   2.070 -1.6940 -0.5754 -0.3143
 4087SOL     OW13159   0.962   0.924   1.890  0.3325 -0.0344  0.3483
 4087SOL    HW113160   0.915   1.006   1.856 -0.2996 -0.8936 -0.9205
 4087SOL    HW213161   0.919   0.894   1.975 -0.4235  0.0775  0.0118
 4088SOL     OW13162   3.089   6.626   2.163 -0.3384 -0.3673  0.0432
 4088SOL    HW113163   3.021   6.556   2.183  1.2512 -2.1056 -0.3781
 4088SOL    HW213164   3.161   6.587   2.105  0.3454  1.7710 -0.6400
 4089SOL     OW13165   0.116   0.620   6.083  0.1733 -0.0557 -0.1929
 4089SOL    HW113166   0.180   0.659   6.149 -0.7793 -2.7103  2.5256
 4089SOL    HW213167   0.035   0.679   6.077 -0.2917 -0.3388  2.1101
 4090SOL     OW13168   4.571   4.075   5.744 -0.0639 -1.1882 -0.2521
 4090SOL    HW113169   4.617   4.104   5.660  0.7043 -0.1684  0.5002
 4090SOL    HW213170   4.608   3.988   5.775 -0.3379 -1.5594 -0.9506
 4091SOL     OW13171   4.669   4.803   0.545 -0.8447  0.1965 -0.3130
 4091SOL    HW113172   4.713   4.763   0.464 -1.0201 -1.6209  0.4318
 4091SOL    HW213173   4.574   4.825   0.523 -0.4798  1.1157 -1.0151
 4092SOL     OW13174   1.311   1.074   2.327 -0.3777 -0.6295 -0.2588
 4092SOL    HW113175   1.372   1.150   2.305 -0.4104  0.2677  2.3676
 4092SOL    HW213176   1.217   1.109   2.334 -0.6897 -1.3219 -0.8485
 4093SOL     OW13177   1.275   4.357   1.061 -0.0192  0.1689  0.2259
 4093SOL    HW113178   1.185   4.326   1.030  0.0193 -1.9343  1.9904
 4093SOL    HW213179   1.264   4.429   1.129 -0.3806 -0.2397  0.6043
 4094SOL     OW13180   5.872   3.424   1.961 -0.7044  0.1672  0.4770
 4094SOL    HW113181   5.853   3.506   1.906 -0.1242  0.7106  1.0813
 4094SOL    HW213182   5.970   3.404   1.959 -0.6713  0.2225  1.3569
 4095SOL     OW13183   3.054   2.215   6.526  0.3523 -0.4383  0.3697
 4095SOL    HW113184   2.974   2.219   6.465 -1.0883 -0.4812  2.1842
 4095SOL    HW213185   3.067   2.121   6.557 -0.7329  0.0030  2.3493
 4096SOL     OW13186   4.734   5.916   3.578  0.0308 -0.0187 -0.2787
 4096SOL    HW113187   4.777   5.844   3.632  2.2745  0.5087 -1.2466
 4096SOL    HW213188   4.687   5.980   3.639 -1.2258 -1.7531  0.6552
 4097SOL     OW13189   5.911   1.887   5.090 -0.6796 -0.4287 -1.0148
 4097SOL    HW113190   5.838   1.955   5.087 -2.4747 -2.0827 -6.2687
 4097SOL    HW213191   5.990   1.919   5.037  0.7319 -0.3716  1.0323
 4098SOL     OW13192   5.232   1.061   5.286  0.1366 -0.5381  1.0127
 4098SOL    HW113193   5.145   1.072   5.334  0.2303 -1.4895  1.4225
 4098SOL    HW213194   5.216   1.022   5.196 -0.0724  1.5617  0.0827
 4099SOL     OW13195   0.360   6.589   6.093 -0.0095 -0.1941 -0.7936
 4099SOL    HW113196   0.273   6.593   6.043  0.1494 -1.1364 -1.1624
 4099SOL    HW213197   0.342   6.592   6.191 -0.4468 -0.2493 -0.8688
 4100SOL     OW13198   0.225   2.145   2.450  0.2140  0.1298  0.6531
 4100SOL    HW113199   0.312   2.152   2.402 -0.1734  0.4484 -0.0227
 4100SOL    HW213200   0.174   2.231   2.439 -0.3779 -0.2161  0.6543
 4101SOL     OW13201   6.668   1.949   5.775 -0.4699 -0.3184 -0.2807
 4101SOL    HW113202   6.760   1.967   5.810  0.0838 -1.3990 -1.1291
 4101SOL    HW213203   6.674   1.925   5.678 -1.4621 -1.9983  0.0400
 4102SOL     OW13204   0.710   5.648   5.241  0.1324 -0.1914  0.1396
 4102SOL    HW113205   0.651   5.713   5.288  0.7438  0.9462 -0.6008
 4102SOL    HW213206   0.755   5.589   5.308 -0.1610  0.3908  0.8570
 4103SOL     OW13207   3.262   3.834   0.739 -0.0724 -0.2686 -0.3478
 4103SOL    HW113208   3.332   3.906   0.745 -1.9758  1.6598 -0.1488
 4103SOL    HW213209   3.286   3.771   0.665  1.4057  0.8624 -0.8935
 4104SOL     OW13210   0.579   1.819   6.898  0.0770  0.3720 -0.2449
 4104SOL    HW113211   0.629   1.895   6.857 -0.2113  0.4896 -0.3810
 4104SOL    HW213212   0.618   1.732   6.868  0.3056  0.4651 -0.2155
 4105SOL     OW13213   1.000   6.437   3.139 -0.4526 -0.7629  0.5409
 4105SOL    HW113214   0.901   6.430   3.153 -0.7953 -0.2250 -1.2877
 4105SOL    HW213215   1.022   6.404   3.047  0.8240  0.8144  0.2407
 4106SOL     OW13216   5.716   5.943   1.187  0.5380  0.5151 -0.5018
 4106SOL    HW113217   5.642   5.882   1.215  1.0041  0.3423  0.3690
 4106SOL    HW213218   5.791   5.889   1.148  0.4992  0.6290 -0.7378
 4107SOL     OW13219   2.402   3.958   0.851 -0.4211 -0.3894  0.3892
 4107SOL    HW113220   2.402   3.880   0.913 -0.9613  0.5456  1.5983
 4107SOL    HW213221   2.487   4.011   0.862 -0.7621  0.0936  0.7632
 4108SOL     OW13222   5.948   0.701   1.866 -0.1239  0.1165 -0.4577
 4108SOL    HW113223   5.855   0.703   1.901 -0.2778 -3.0251 -0.3607
 4108SOL    HW213224   6.005   0.766   1.916 -2.2159  2.0862 -0.5120
 4109SOL     OW13225   6.782   3.188   6.602  0.5277 -0.4212 -0.2650
 4109SOL    HW113226   6.777   3.145   6.512 -0.0598  0.1058 -0.4962
 4109SOL    HW213227   6.702   3.160   6.657  0.3090  0.1112 -0.3042
 4110SOL     OW13228   2.768   0.597   4.672  0.1926 -0.0182  0.0678
 4110SOL    HW113229   2.750   0.500   4.655 -0.8410  0.0410  0.7156
 4110SOL    HW213230   2.843   0.605   4.738  0.7091 -0.3513 -0.4652
 4111SOL     OW13231   5.427   5.823   1.022 -0.0859 -0.3691 -0.4868
 4111SOL    HW113232   5.498   5.824   0.951  0.0189 -2.8425 -0.5034
 4111SOL    HW213233   5.425   5.733   1.065 -0.2223  1.0092  2.6399
 4112SOL     OW13234   6.025   5.960   6.498  0.2188  0.3120  0.0502
 4112SOL    HW113235   6.002   6.057   6.492 -1.8964 -0.0851  0.9590
 4112SOL    HW213236   6.065   5.929   6.412  0.4529  1.8537 -0.4179
 4113SOL     OW13237   4.700   1.867   0.703 -0.0228 -0.2092 -0.0176
 4113SOL    HW113238   4.648   1.925   0.641 -0.1505  0.5724  0.7931
 4113SOL    HW213239   4.790   1.907   0.719 -0.1761 -0.1288  0.6861
 4114SOL     OW13240   2.752   3.662   0.597 -0.0912  0.3153  0.7656
 4114SOL    HW113241   2.716   3.634   0.686  0.8744  1.0762  1.4280
 4114SOL    HW213242   2.718   3.754   0.576  0.0230  0.3081  0.5545
 4115SOL     OW13243   1.492   3.353   1.300  0.3237  0.4086  0.6394
 4115SOL    HW113244   1.521   3.275   1.356 -1.0580 -0.5080  0.1544
 4115SOL    HW213245   1.464   3.428   1.359 -1.8020 -0.7945  1.3054
 4116SOL     OW13246   3.600   2.074   5.085 -0.6198 -0.0563 -0.2275
 4116SOL    HW113247   3.623   2.150   5.023  0.7036  0.9309  1.3778
 4116SOL    HW213248   3.680   2.014   5.094 -0.4309  0.3778  1.2539
 4117SOL     OW13249   0.957   0.173   6.223  0.1738 -0.3867 -0.5788
 4117SOL    HW113250   0.881   0.179   6.157 -0.0711 -0.8738 -0.3445
 4117SOL    HW213251   0.967   0.078   6.253  1.6314 -0.5595 -1.4917
 4118SOL     OW13252   2.028   2.609   4.618  0.1231  0.1079 -0.3255
 4118SOL    HW113253   1.997   2.539   4.681 -0.0768  1.7723  1.5260
 4118SOL    HW213254   2.020   2.576   4.524 -1.7733 -1.6078  0.3822
 4119SOL     OW13255   5.850   4.160   6.564 -0.3886 -0.4459 -0.1157
 4119SOL    HW113256   5.829   4.151   6.661  0.3424 -0.8898  0.0102
 4119SOL    HW213257   5.931   4.218   6.552  0.5866 -1.7882 -0.3177
 4120SOL     OW13258   0.811   3.966   5.800  0.5891  0.2712 -0.1065
 4120SOL    HW113259   0.841   3.871   5.792  0.4885  0.1327  0.9867
 4120SOL    HW213260   0.773   3.981   5.892 -0.8403  0.9523 -0.7734
 4121SOL     OW13261   5.842   3.915   6.947 -0.3369 -0.4611  0.3229
 4121SOL    HW113262   5.772   3.910   6.876  0.0932  0.0185 -0.1363
 4121SOL    HW213263   5.800   3.950   7.032 -0.4549  0.7517 -0.2204
 4122SOL     OW13264   1.124   1.283   1.532 -0.2303  0.1895 -0.1543
 4122SOL    HW113265   1.177   1.300   1.448  1.1031 -0.3086  0.5525
 4122SOL    HW213266   1.084   1.192   1.528 -0.7795  0.4443 -0.5545
 4123SOL     OW13267   4.863   6.139   2.086  0.9781 -0.2182 -0.2243
 4123SOL    HW113268   4.773   6.166   2.119  1.4548  0.2542  0.7348
 4123SOL    HW213269   4.874   6.166   1.991  1.4708  3.1919  0.6769
 4124SOL     OW13270   4.425   6.111   2.485  0.9068 -0.0576 -0.3372
 4124SOL    HW113271   4.467   6.197   2.457  0.7442  0.4856  0.9924
 4124SOL    HW213272   4.327   6.123   2.496  0.8847 -0.4077 -0.1234
 4125SOL     OW13273   6.202   4.828   4.386  0.7120 -0.1285  0.2102
 4125SOL    HW113274   6.171   4.814   4.292 -0.3871 -0.7466  0.6420
 4125SOL    HW213275   6.123   4.825   4.448  1.3517  0.7879  1.1041
 4126SOL     OW13276   2.770   5.437   5.013 -0.2593  0.1993 -0.2656
 4126SOL    HW113277   2.829   5.362   5.041 -0.0918  0.9303  1.5006
 4126SOL    HW213278   2.736   5.485   5.094 -1.9104  0.8528 -1.2871
 4127SOL     OW13279   2.890   5.251   0.432 -0.4012 -0.7819 -0.0689
 4127SOL    HW113280   2.941   5.264   0.347  0.1259  0.5814  0.4165
 4127SOL    HW213281   2.949   5.204   0.499  0.2812  0.8162  0.5005
 4128SOL     OW13282   6.042   4.408   5.613  0.2456 -0.1218 -0.2825
 4128SOL    HW113283   6.024   4.318   5.573  0.3021 -0.1121 -0.3307
 4128SOL    HW213284   5.978   4.426   5.687 -1.3405  0.7791 -1.7997
 4129SOL     OW13285   4.065   5.230   0.057  0.4470  0.4774 -0.3221
 4129SOL    HW113286   4.141   5.261   0.114  0.1713 -0.2031  0.4376
 4129SOL    HW213287   3.978   5.248   0.104  0.2034  0.1219 -0.6233
 4130SOL     OW13288   4.956   1.637   4.977 -0.0649  0.2404  0.2118
 4130SOL    HW113289   4.882   1.701   4.956 -0.8251  0.0522  2.1501
 4130SOL    HW213290   5.043   1.687   4.980 -0.2570  0.6791 -0.8557
 4131SOL     OW13291   6.371   1.652   3.615  0.3098  0.4040 -0.4112
 4131SOL    HW113292   6.410   1.618   3.530  1.2555  0.8903 -0.1865
 4131SOL    HW213293   6.275   1.626   3.621  0.1980  0.4787 -1.6905
 4132SOL     OW13294   3.593   0.168   3.508 -0.2006  0.4483  0.3951
 4132SOL    HW113295   3.604   0.144   3.412  2.5034  2.5823  0.0462
 4132SOL    HW213296   3.669   0.129   3.561 -0.9466  0.3872  1.4541
 4133SOL     OW13297   6.054   4.595   6.353 -0.1966 -0.9871 -0.3240
 4133SOL    HW113298   6.018   4.687   6.371  0.8670 -0.4947 -0.6234
 4133SOL    HW213299   6.043   4.573   6.256  0.7549 -0.6164 -0.5281
 4134SOL     OW13300   6.922   0.809   6.125 -0.0432 -0.6095  0.6472
 4134SOL    HW113301   6.917   0.900   6.084 -1.2305 -1.3078 -0.8637
 4134SOL    HW213302   6.920   0.817   6.224  0.8719  1.0505  0.5599
 4135SOL     OW13303   0.113   2.987   1.210 -0.1393 -0.0234 -0.4443
 4135SOL    HW113304   0.114   2.894   1.246  0.2092  0.1548  0.0076
 4135SOL    HW213305   0.065   3.047   1.274 -0.7099  0.0375 -0.9206
 4136SOL     OW13306   4.682   4.000   1.369  0.2064  0.4911 -0.3918
 4136SOL    HW113307   4.719   4.085   1.331  3.2773 -0.1412  0.8875
 4136SOL    HW213308   4.640   4.018   1.458  0.9032  0.6674 -0.0982
 4137SOL     OW13309   6.855   3.507   0.588  0.3653  0.2816 -0.3634
 4137SOL    HW113310   6.774   3.517   0.646 -0.0390  0.4115 -0.9368
 4137SOL    HW213311   6.916   3.585   0.603  0.3918  0.1780  0.0808
 4138SOL     OW13312   3.583   5.794   1.220  0.2250  0.5622 -0.6963
 4138SOL    HW113313   3.531   5.793   1.135 -1.2969  1.2282  0.1854
 4138SOL    HW213314   3.574   5.706   1.266 -0.6103  0.8574 -0.2786
 4139SOL     OW13315   3.773   5.088   5.381  0.0145  0.0932 -0.2697
 4139SOL    HW113316   3.676   5.065   5.372 -0.0641 -0.0828  0.8779
 4139SOL    HW213317   3.788   5.182   5.349 -1.1528  1.3191  2.4820
 4140SOL     OW13318   5.259   2.106   2.796 -0.2379 -0.7290  0.3429
 4140SOL    HW113319   5.175   2.131   2.845 -1.1000 -0.0842 -1.3920
 4140SOL    HW213320   5.333   2.093   2.862 -1.4884 -0.4844  1.8530
 4141SOL     OW13321   5.781   4.376   2.705  0.0403 -0.7479  0.7296
 4141SOL    HW113322   5.880   4.391   2.701  0.1875 -1.8745 -0.9125
 4141SOL    HW213323   5.734   4.452   2.659  0.3545 -1.6755 -1.2004
 4142SOL     OW13324   2.071   0.811   2.980 -0.3812 -0.7325  0.0180
 4142SOL    HW113325   2.166   0.816   2.946 -0.7524 -1.5215 -1.1908
 4142SOL    HW213326   2.033   0.721   2.961 -1.2521 -0.5645  0.8841
 4143SOL     OW13327   3.869   2.335   1.679  0.5720  0.4793  0.1456
 4143SOL    HW113328   3.789   2.303   1.730 -0.6964  1.0500 -1.4176
 4143SOL    HW213329   3.859   2.309   1.582  1.3470  2.2278 -0.4330
 4144SOL     OW13330   4.745   2.742   6.334 -0.0400  0.3237  0.1544
 4144SOL    HW113331   4.747   2.658   6.388 -0.2232  0.2699  0.0766
 4144SOL    HW213332   4.803   2.731   6.253 -0.2915  0.1716 -0.0049
 4145SOL     OW13333   4.038   1.700   4.725 -0.1942  0.5936  0.0425
 4145SOL    HW113334   4.130   1.665   4.742  0.1969  0.8033 -1.4351
 4145SOL    HW213335   3.973   1.625   4.727 -0.8104  0.9049  5.4812
 4146SOL     OW13336   4.681   4.260   1.172 -0.2262  0.5162  0.1043
 4146SOL    HW113337   4.692   4.193   1.098 -0.3139  0.3963  0.2002
 4146SOL    HW213338   4.586   4.260   1.203 -0.5807  1.7479 -0.9113
 4147SOL     OW13339   0.037   2.984   2.862  0.3079 -0.2191  0.4913
 4147SOL    HW113340   0.061   3.079   2.883  1.9918 -0.1167 -1.5237
 4147SOL    HW213341   0.119   2.927   2.868 -0.4708 -1.3515  0.6693
 4148SOL     OW13342   5.211   4.244   6.876  0.1367 -0.0864 -0.1270
 4148SOL    HW113343   5.134   4.195   6.836 -0.3444 -0.4344  1.1826
 4148SOL    HW213344   5.189   4.269   6.970  1.8011 -0.5872  0.4258
 4149SOL     OW13345   5.480   1.729   5.954  0.1931  0.1660 -0.0618
 4149SOL    HW113346   5.408   1.665   5.984 -0.8323  1.5237  0.4810
 4149SOL    HW213347   5.487   1.727   5.854 -0.0305 -0.5607 -0.0707
 4150SOL     OW13348   3.773   5.506   3.085 -0.1695  0.2639  0.1432
 4150SOL    HW113349   3.709   5.577   3.054 -3.0610 -2.4890 -0.7118
 4150SOL    HW213350   3.749   5.478   3.178  0.3437 -0.2086  0.1369
 4151SOL     OW13351   6.673   1.575   3.094  0.2752  0.1391  0.7139
 4151SOL    HW113352   6.762   1.563   3.137  0.4987  1.9904  0.8472
 4151SOL    HW213353   6.679   1.648   3.026 -1.2568  0.6670  1.1071
 4152SOL     OW13354   0.246   2.862   6.719  0.3272 -0.1808  0.1892
 4152SOL    HW113355   0.224   2.960   6.715  0.9793  0.0471  1.6039
 4152SOL    HW213356   0.184   2.816   6.782 -0.5925 -0.8916 -1.1844
 4153SOL     OW13357   3.458   1.615   0.599  0.1801 -0.0360 -0.0290
 4153SOL    HW113358   3.383   1.670   0.562  0.6905  0.3231 -0.5393
 4153SOL    HW213359   3.531   1.675   0.630  0.4835 -0.4052 -0.0263
 4154SOL     OW13360   3.154   4.068   6.026  0.4268  0.4185 -0.0363
 4154SOL    HW113361   3.201   3.993   5.979  1.8576  0.9903  0.4182
 4154SOL    HW213362   3.210   4.101   6.102  0.5744  2.9042 -1.1096
 4155SOL     OW13363   6.797   3.012   4.265  0.2536  0.2881  0.9008
 4155SOL    HW113364   6.788   3.087   4.331  2.1561 -0.9581  2.7231
 4155SOL    HW213365   6.725   2.945   4.281  0.2902  0.3336  1.2628
 4156SOL     OW13366   3.279   5.954   5.322  1.1119 -0.0377 -0.0731
 4156SOL    HW113367   3.186   5.920   5.311  0.9356  0.9143 -1.8436
 4156SOL    HW213368   3.321   5.910   5.402  0.3050 -3.0203 -1.1518
 4157SOL     OW13369   3.840   2.061   1.820  0.0570 -0.3223  0.0291
 4157SOL    HW113370   3.790   2.133   1.869  1.2457  0.1633  0.5677
 4157SOL    HW213371   3.812   2.061   1.724 -0.2482  0.6052  0.1055
 4158SOL     OW13372   6.181   0.750   3.700  0.2814  0.1634  0.3354
 4158SOL    HW113373   6.170   0.793   3.790  0.0175 -0.2713  0.5168
 4158SOL    HW213374   6.117   0.793   3.636  1.4035  1.3906  0.0082
 4159SOL     OW13375   1.018   0.606   5.539  0.0978  0.4726  0.9351
 4159SOL    HW113376   1.054   0.517   5.568  0.8652 -0.8522 -3.4401
 4159SOL    HW213377   1.088   0.675   5.551  1.6236 -0.6880 -0.7199
 4160SOL     OW13378   1.982   1.176   5.976  0.1767  0.2707 -0.1359
 4160SOL    HW113379   1.900   1.222   6.008  0.8738  1.3712  0.1223
 4160SOL    HW213380   2.058   1.197   6.037  0.6440 -0.7835 -0.3308
 4161SOL     OW13381   2.025   6.583   0.622 -0.0584 -0.0820  0.0749
 4161SOL    HW113382   1.991   6.495   0.591 -1.3840  0.8969 -1.3736
 4161SOL    HW213383   1.951   6.635   0.664  0.5438  0.6043  0.3108
 4162SOL     OW13384   0.454   5.886   0.555  0.5339  0.0673 -0.4058
 4162SOL    HW113385   0.406   5.853   0.636  0.6007  0.2757 -0.2806
 4162SOL    HW213386   0.551   5.899   0.576  0.3539  1.1809 -0.1991
 4163SOL     OW13387   1.267   3.496   1.841 -0.2058 -0.4277  0.0060
 4163SOL    HW113388   1.325   3.565   1.798 -0.0740  0.9888  2.2576
 4163SOL    HW213389   1.176   3.535   1.857 -0.5871 -1.2934 -0.0088
 4164SOL     OW13390   4.347   0.775   3.511 -0.1582  0.4655 -0.3638
 4164SOL    HW113391   4.291   0.822   3.578  0.0846  0.0134  0.1717
 4164SOL    HW213392   4.294   0.701   3.469 -0.2366  0.5936 -0.4878
 4165SOL     OW13393   1.617   2.018   5.428 -0.1475  0.4968  0.1354
 4165SOL    HW113394   1.645   2.111   5.405  0.4536  0.4175  0.5199
 4165SOL    HW213395   1.522   2.019   5.458 -0.3165  0.9007 -0.3980
 4166SOL     OW13396   6.263   6.994   1.061 -0.1621  0.9461 -0.4559
 4166SOL    HW113397   6.341   6.936   1.038 -0.7889 -0.8962  1.7021
 4166SOL    HW213398   6.281   7.043   1.146 -1.1818  0.8211 -0.1518
 4167SOL     OW13399   6.314   4.094   2.210  0.0183  0.0717  0.7727
 4167SOL    HW113400   6.257   4.172   2.235 -0.9709  0.2556 -1.8577
 4167SOL    HW213401   6.405   4.126   2.183 -0.1745  0.2605  0.3423
 4168SOL     OW13402   1.748   2.464   1.337 -0.1694  0.1505  0.1970
 4168SOL    HW113403   1.703   2.390   1.388  0.0418 -1.1363 -1.4178
 4168SOL    HW213404   1.827   2.427   1.288  0.1998  1.5585 -0.3103
 4169SOL     OW13405   1.498   4.787   3.661 -0.2867 -0.3568 -0.0479
 4169SOL    HW113406   1.526   4.866   3.606  1.2038 -1.7943 -1.4718
 4169SOL    HW213407   1.535   4.704   3.621 -2.5456 -1.9285  0.8857
 4170SOL     OW13408   3.163   6.126   2.633  0.3091 -0.2130  0.0273
 4170SOL    HW113409   3.166   6.026   2.621  1.7491 -0.2389  0.3927
 4170SOL    HW213410   3.256   6.163   2.625 -0.0946  1.0000  0.7173
 4171SOL     OW13411   1.060   1.612   1.898  1.0831  0.1389 -0.9960
 4171SOL    HW113412   1.000   1.536   1.923 -1.3528  1.9270 -1.0235
 4171SOL    HW213413   1.096   1.597   1.806 -0.5849 -0.3158 -1.6148
 4172SOL     OW13414   6.660   3.520   5.283 -0.0141 -0.2980 -0.0405
 4172SOL    HW113415   6.665   3.454   5.208 -2.7684 -1.9017  1.0538
 4172SOL    HW213416   6.744   3.515   5.337  1.2589 -0.3803 -1.9452
 4173SOL     OW13417   1.028   4.601   1.048  0.3279 -0.0246 -0.7167
 4173SOL    HW113418   1.091   4.635   0.979  0.3448  0.2047 -0.5869
 4173SOL    HW213419   0.934   4.622   1.021  0.3015 -0.4179 -0.9395
 4174SOL     OW13420   1.614   0.520   6.739  0.2509 -0.7353 -0.2154
 4174SOL    HW113421   1.540   0.535   6.805 -1.4903  1.0172 -2.3826
 4174SOL    HW213422   1.598   0.434   6.691 -1.4124  0.3738 -1.7805
 4175SOL     OW13423   6.999   5.234   2.671 -0.0443 -0.2996  0.2725
 4175SOL    HW113424   7.051   5.211   2.753 -1.0054  0.9458  1.2830
 4175SOL    HW213425   6.909   5.268   2.697 -0.4422 -0.0293 -1.3200
 4176SOL     OW13426   5.177   0.022   2.258  0.1741  0.3244 -0.3169
 4176SOL    HW113427   5.126  -0.016   2.181 -0.1340  0.5046 -0.2005
 4176SOL    HW213428   5.206  -0.052   2.319 -2.0287  0.4110  0.9064
 4177SOL     OW13429   0.093   6.245   2.944 -0.4083  0.6591  0.0262
 4177SOL    HW113430   0.098   6.166   3.006  0.7998 -0.0512 -0.9448
 4177SOL    HW213431   0.095   6.329   2.998  1.5438  0.0753  0.9657
 4178SOL     OW13432   6.376   5.429   0.817  0.5598 -0.4379 -0.8704
 4178SOL    HW113433   6.291   5.395   0.858  2.0361 -0.9386  2.0725
 4178SOL    HW213434   6.400   5.517   0.858  2.6561 -1.4581  0.2743
 4179SOL     OW13435   4.356   3.223   0.574 -0.3013 -0.0988  0.3865
 4179SOL    HW113436   4.263   3.200   0.547 -0.1270  0.8797 -1.1566
 4179SOL    HW213437   4.386   3.161   0.647 -2.4927  0.2343  1.6292
 4180SOL     OW13438   5.402   4.077   4.304 -0.3873  0.1475  0.4442
 4180SOL    HW113439   5.366   4.009   4.240 -0.6535  0.9011 -0.2176
 4180SOL    HW213440   5.353   4.070   4.391  0.4345 -1.3357  0.8148
 4181SOL     OW13441   3.828   0.778   4.378 -0.1132  0.1511  0.0239
 4181SOL    HW113442   3.809   0.719   4.299 -0.1853 -0.9754  0.8714
 4181SOL    HW213443   3.923   0.810   4.373  0.4134 -1.3009  0.3648
 4182SOL     OW13444   1.340   2.644   0.621 -0.9407  0.0517  0.2041
 4182SOL    HW113445   1.327   2.742   0.608  2.4313  0.4074 -1.5984
 4182SOL    HW213446   1.357   2.626   0.718 -1.5066  1.2448  0.5446
 4183SOL     OW13447   4.531   4.875   5.295  0.3772 -0.1587  0.1426
 4183SOL    HW113448   4.496   4.843   5.384 -2.1851  0.4379 -0.5518
 4183SOL    HW213449   4.539   4.798   5.233  2.3268 -0.6041  0.8678
 4184SOL     OW13450   2.638   1.097   2.040  0.5752  0.2541 -0.1985
 4184SOL    HW113451   2.643   1.040   2.122 -2.2519 -1.8262 -1.3011
 4184SOL    HW213452   2.626   1.192   2.066  1.6532 -0.0785  1.7374
 4185SOL     OW13453   4.172   5.338   4.088 -0.4491  1.1248 -0.1961
 4185SOL    HW113454   4.131   5.295   4.169  2.2083 -1.8494 -0.2405
 4185SOL    HW213455   4.239   5.406   4.118  0.5962 -0.0321  0.1699
 4186SOL     OW13456   2.849   1.488   2.749  0.2063  0.0800 -0.6816
 4186SOL    HW113457   2.881   1.463   2.840  1.8101  2.0399 -0.6358
 4186SOL    HW213458   2.793   1.414   2.712 -0.4356 -0.8076  1.8368
 4187SOL     OW13459   3.181   3.718   1.209 -0.1392 -0.2881 -0.3877
 4187SOL    HW113460   3.269   3.706   1.164  0.2548 -1.1897  0.5773
 4187SOL    HW213461   3.181   3.668   1.296 -1.9992 -1.2767 -0.9014
 4188SOL     OW13462   2.806   6.571   0.389 -0.0768 -0.0497  0.3917
 4188SOL    HW113463   2.869   6.648   0.398 -0.8421  0.7497 -0.8487
 4188SOL    HW213464   2.775   6.565   0.295 -0.0323 -1.8993  0.4662
 4189SOL     OW13465   6.085   6.092   1.674  0.4693  0.3103 -0.2241
 4189SOL    HW113466   6.159   6.130   1.730  0.4567 -1.3786  1.0325
 4189SOL    HW213467   6.002   6.084   1.730 -0.0366  0.1637 -0.9833
 4190SOL     OW13468   3.434   4.813   1.676  0.2813  0.1878  0.0049
 4190SOL    HW113469   3.358   4.784   1.617  0.6837 -0.0451 -0.4034
 4190SOL    HW213470   3.460   4.737   1.736  0.1779  0.2728  0.1552
 4191SOL     OW13471   4.206   1.943   5.767 -0.0424  0.8016 -0.8427
 4191SOL    HW113472   4.231   1.954   5.671 -0.0739  0.4471 -0.8934
 4191SOL    HW213473   4.286   1.916   5.820 -0.3883 -0.8674 -1.0968
 4192SOL     OW13474   2.857   6.696   1.507 -0.1041 -0.8365  0.1216
 4192SOL    HW113475   2.924   6.663   1.439 -2.7819 -1.0073 -2.6304
 4192SOL    HW213476   2.820   6.617   1.557 -0.1271 -1.0267 -0.1912
 4193SOL     OW13477   1.790   6.266   6.598 -0.2932 -0.3165 -0.3962
 4193SOL    HW113478   1.842   6.271   6.683 -1.2382 -1.6506  0.3040
 4193SOL    HW213479   1.730   6.346   6.591  1.9470  1.3810 -1.3494
 4194SOL     OW13480   5.734   1.048   5.562  0.7178  0.5323 -0.0718
 4194SOL    HW113481   5.802   1.107   5.519  0.4963  0.8579  0.0182
 4194SOL    HW213482   5.668   1.104   5.612  1.2184  0.1520  1.0643
 4195SOL     OW13483   4.478   6.260   6.154 -0.6606  0.0345  0.0635
 4195SOL    HW113484   4.530   6.299   6.078 -0.9993 -0.1458 -0.2631
 4195SOL    HW213485   4.394   6.218   6.119 -0.5168 -0.5938  0.4675
 4196SOL     OW13486   4.632   6.276   1.320  0.0123 -0.2657  0.3863
 4196SOL    HW113487   4.711   6.336   1.330  0.8212 -1.4332  1.3281
 4196SOL    HW213488   4.577   6.278   1.403 -1.3353  1.0156 -0.4906
 4197SOL     OW13489   0.670   3.453   5.202 -0.0880 -0.6440  0.5969
 4197SOL    HW113490   0.678   3.372   5.144  0.4987 -0.1882  0.0025
 4197SOL    HW213491   0.579   3.458   5.242 -1.3267  0.1269 -2.0294
 4198SOL     OW13492   2.494   2.527   4.877 -0.5093 -0.1555 -0.3840
 4198SOL    HW113493   2.517   2.475   4.795 -1.7084 -0.0928 -0.7812
 4198SOL    HW213494   2.400   2.561   4.870 -1.2733 -1.6181  1.7413
 4199SOL     OW13495   4.257   5.880   2.521 -0.0809 -0.5290 -0.1671
 4199SOL    HW113496   4.353   5.858   2.538  0.2875 -2.2821 -3.4859
 4199SOL    HW213497   4.221   5.818   2.450 -2.5724  2.4098 -1.7287
 4200SOL     OW13498   1.745   3.887   3.654 -0.8542 -0.5651  0.6358
 4200SOL    HW113499   1.652   3.850   3.653 -0.9727 -0.3137 -1.0677
 4200SOL    HW213500   1.742   3.985   3.632 -0.1488 -0.6878 -0.0413
 4201SOL     OW13501   0.800   6.505   0.769 -0.4807  0.0006 -0.0596
 4201SOL    HW113502   0.826   6.590   0.815 -3.6610  1.9149 -1.4937
 4201SOL    HW213503   0.863   6.487   0.693 -1.0408  2.3780 -1.1505
 4202SOL     OW13504   5.508   4.447   2.489 -0.1173 -0.2189 -0.2062
 4202SOL    HW113505   5.464   4.358   2.479  1.6874 -1.1327 -0.5626
 4202SOL    HW213506   5.607   4.434   2.496  0.1514  1.7432  0.1995
 4203SOL     OW13507   2.436   4.980   5.858 -0.4363  0.2436 -0.5096
 4203SOL    HW113508   2.348   4.934   5.865 -0.3329  0.0126 -0.7310
 4203SOL    HW213509   2.483   4.976   5.946 -0.3462 -0.2305 -0.5816
 4204SOL     OW13510   2.894   0.234   6.388 -0.2328  0.2884 -0.0242
 4204SOL    HW113511   2.905   0.298   6.464 -0.3501 -0.0954  0.3211
 4204SOL    HW213512   2.798   0.204   6.383  0.3202 -2.0534  1.6433
 4205SOL     OW13513   1.640   3.935   4.908 -0.7956 -0.1575  0.4474
 4205SOL    HW113514   1.640   3.937   5.008 -2.1839 -0.5660  0.4857
 4205SOL    HW213515   1.566   3.875   4.877 -2.2728  2.1845 -0.8340
 4206SOL     OW13516   3.826   3.911   6.538 -0.2741  0.2727  0.0773
 4206SOL    HW113517   3.749   3.918   6.475 -0.6696 -1.8437  0.2710
 4206SOL    HW213518   3.911   3.911   6.485 -0.4464  1.3193 -0.2266
 4207SOL     OW13519   2.080   3.256   2.005 -0.4711 -0.0722 -0.5278
 4207SOL    HW113520   2.128   3.344   2.005  1.8941 -1.2364  0.9209
 4207SOL    HW213521   2.101   3.207   1.920  2.1628 -1.0699  0.5656
 4208SOL     OW13522   5.755   4.000   5.574 -0.2218  0.0413 -0.4275
 4208SOL    HW113523   5.671   4.055   5.575 -0.7549 -0.7548 -0.0973
 4208SOL    HW213524   5.761   3.947   5.659  0.5810  0.0341 -0.4831
 4209SOL     OW13525   4.693   5.602   3.491  0.2571 -0.2018 -0.1594
 4209SOL    HW113526   4.766   5.668   3.511  0.1488 -0.4979  1.3387
 4209SOL    HW213527   4.605   5.639   3.524  0.1725 -1.0175  0.5497
 4210SOL     OW13528   3.459   3.044   5.452 -0.1214  0.1167  0.6243
 4210SOL    HW113529   3.557   3.058   5.466 -0.4172  0.7479  2.3965
 4210SOL    HW213530   3.409   3.083   5.530 -1.6769 -1.8605  0.6970
 4211SOL     OW13531   2.142   2.378   6.517 -0.9854  0.0751 -0.2227
 4211SOL    HW113532   2.155   2.307   6.448 -2.2183 -0.6668  0.2825
 4211SOL    HW213533   2.213   2.369   6.587  0.2176  0.7710 -1.2900
 4212SOL     OW13534   1.095   4.997   3.701  0.4169  0.0450 -0.6009
 4212SOL    HW113535   1.153   4.980   3.622  1.2562 -1.3319  0.2630
 4212SOL    HW213536   1.135   4.953   3.782  1.0543  3.5888  1.2187
 4213SOL     OW13537   4.876   6.016   3.359 -0.0068  1.0938 -0.2487
 4213SOL    HW113538   4.947   6.082   3.387 -0.3268  1.6172 -0.6447
 4213SOL    HW213539   4.803   6.016   3.427  0.3139  0.6421  0.0992
 4214SOL     OW13540   5.451   3.130   1.601 -0.3501  0.3784 -0.2989
 4214SOL    HW113541   5.355   3.157   1.610 -0.3910  0.2192 -0.2548
 4214SOL    HW213542   5.496   3.190   1.535 -0.5009  0.4035 -0.3799
 4215SOL     OW13543   5.462   2.134   1.691  0.8480  0.4974 -0.1141
 4215SOL    HW113544   5.411   2.076   1.756  1.7831 -1.5436 -1.1130
 4215SOL    HW213545   5.400   2.203   1.653  0.0109  1.0675  2.0965
 4216SOL     OW13546   0.004   2.327   3.607  0.0550  0.3608 -0.5932
 4216SOL    HW113547   0.013   2.320   3.507 -1.1405 -1.1131 -0.6355
 4216SOL    HW213548   0.021   2.238   3.648 -1.6368  0.4246  0.3142
 4217SOL     OW13549   3.277   4.750   6.548  0.8673 -0.3365  0.5249
 4217SOL    HW113550   3.188   4.743   6.502  0.6832 -0.3229  0.8732
 4217SOL    HW213551   3.312   4.843   6.539  1.2815 -0.5786 -0.4048
 4218SOL     OW13552   0.528   6.863   4.363  0.3636 -0.0568 -0.1080
 4218SOL    HW113553   0.496   6.872   4.269 -2.2599  0.1999  0.7272
 4218SOL    HW213554   0.598   6.791   4.368  2.5238  1.6504 -2.6115
 4219SOL     OW13555   3.618   6.664   1.745 -0.0063  0.3958  0.4937
 4219SOL    HW113556   3.520   6.682   1.756  0.0450  1.5644 -0.7344
 4219SOL    HW213557   3.636   6.567   1.762 -1.4579  0.0520  0.2214
 4220SOL     OW13558   0.337   2.902   2.900 -0.4755  0.2259  0.8249
 4220SOL    HW113559   0.338   2.991   2.946  0.9104 -0.2415  1.7819
 4220SOL    HW213560   0.422   2.891   2.848 -0.3321 -0.7795  1.2417
 4221SOL     OW13561   3.370   3.549   3.112 -0.4106  0.4272 -0.0805
 4221SOL    HW113562   3.312   3.517   3.186  0.3315  2.7832  1.6555
 4221SOL    HW213563   3.321   3.617   3.058  0.5041  2.2613  1.2600
 4222SOL     OW13564   6.975   2.059   3.717  0.1231  0.3146  0.0042
 4222SOL    HW113565   6.951   1.964   3.695 -0.8066  0.4509  0.3861
 4222SOL    HW213566   7.064   2.061   3.763 -1.3956 -0.7955  3.2828
 4223SOL     OW13567   4.541   5.119   5.175 -0.3231  0.3681  0.4251
 4223SOL    HW113568   4.583   5.189   5.233  0.9315  0.1784 -0.2302
 4223SOL    HW213569   4.545   5.030   5.222 -0.0040  0.3501  0.3602
 4224SOL     OW13570   3.177   3.282   1.344 -0.1511  0.2948 -0.3262
 4224SOL    HW113571   3.163   3.196   1.295 -0.1306  1.1994 -1.9877
 4224SOL    HW213572   3.264   3.322   1.316 -0.5178  1.2351 -0.1533
 4225SOL     OW13573   5.317   3.799   4.770  0.1699 -0.3739 -0.5565
 4225SOL    HW113574   5.290   3.704   4.752 -1.1656  0.0873 -1.1799
 4225SOL    HW213575   5.268   3.832   4.851 -0.4359  0.1921 -1.1448
 4226SOL     OW13576   4.596   5.387   0.689  0.0776  0.2404  0.1834
 4226SOL    HW113577   4.522   5.363   0.625  1.4364 -1.2129 -0.9322
 4226SOL    HW213578   4.558   5.432   0.769 -2.2276 -1.9246  0.4131
 4227SOL     OW13579   5.217   1.326   3.714 -0.3455 -0.0414 -0.8209
 4227SOL    HW113580   5.211   1.401   3.649  0.5610 -1.2117 -2.3281
 4227SOL    HW213581   5.147   1.337   3.785 -1.0818  1.4920 -1.7414
 4228SOL     OW13582   1.691   1.869   2.866 -0.0394 -0.1667  0.3895
 4228SOL    HW113583   1.767   1.882   2.929  1.2342 -0.9422 -0.9397
 4228SOL    HW213584   1.725   1.859   2.773 -1.5752 -2.6032 -0.0131
 4229SOL     OW13585   3.102   0.772   6.179  0.2667  0.1262 -0.2040
 4229SOL    HW113586   3.110   0.738   6.085  1.4604 -1.0536  0.2750
 4229SOL    HW213587   3.118   0.696   6.242 -0.6830  0.8687  0.9552
 4230SOL     OW13588   6.827   4.171   3.998  0.2666  0.1165  0.3817
 4230SOL    HW113589   6.826   4.072   3.985 -1.2424  0.4142 -2.5247
 4230SOL    HW213590   6.749   4.198   4.054 -0.7508 -0.1777 -0.8463
 4231SOL     OW13591   2.806   3.424   6.276 -0.1694 -0.6105 -0.8603
 4231SOL    HW113592   2.753   3.381   6.202  0.2366 -0.9186 -0.9753
 4231SOL    HW213593   2.865   3.495   6.237  0.9963 -1.6335 -1.0339
 4232SOL     OW13594   0.341   4.278   1.926  0.1419  0.2000  0.5582
 4232SOL    HW113595   0.425   4.332   1.927  1.8036 -2.2202  0.4611
 4232SOL    HW213596   0.271   4.324   1.982  1.1308  2.7760 -0.1754
 4233SOL     OW13597   2.449   4.849   4.620 -0.1415  0.9811 -0.6261
 4233SOL    HW113598   2.482   4.907   4.695 -1.1416  0.3634  0.3290
 4233SOL    HW213599   2.503   4.764   4.618 -3.2901 -1.4742  2.9554
 4234SOL     OW13600   3.066   2.340   6.935 -0.2104 -0.6322 -0.0971
 4234SOL    HW113601   3.023   2.258   6.972 -0.5122 -0.8117 -0.8271
 4234SOL    HW213602   3.049   2.418   6.995  0.7521 -1.2558  1.0287
 4235SOL     OW13603   3.697   0.354   5.282  0.2397  0.3637 -0.8795
 4235SOL    HW113604   3.737   0.419   5.348 -1.7635 -0.7744  1.6293
 4235SOL    HW213605   3.750   0.270   5.283 -0.3816 -0.0314  0.1234
 4236SOL     OW13606   2.390   2.196   3.042 -0.6700  0.1928  0.1267
 4236SOL    HW113607   2.416   2.181   3.137 -0.4400  2.3091  0.4598
 4236SOL    HW213608   2.443   2.273   3.005  0.1325 -1.3408 -2.1165
 4237SOL     OW13609   1.220   1.348   2.734 -0.7620 -0.3907 -1.2264
 4237SOL    HW113610   1.298   1.318   2.680 -1.2589 -0.8464 -1.6992
 4237SOL    HW213611   1.143   1.286   2.720  0.1035 -2.6670  2.6435
 4238SOL     OW13612   4.418   1.206   0.944 -0.1553  0.2298  0.1597
 4238SOL    HW113613   4.462   1.118   0.931  0.7570  0.7904 -0.6268
 4238SOL    HW213614   4.483   1.279   0.925 -1.0683  1.0734  0.2206
 4239SOL     OW13615   5.724   5.141   6.310  0.2657  0.3396 -0.4539
 4239SOL    HW113616   5.707   5.054   6.356 -1.3225  0.3033 -1.0612
 4239SOL    HW213617   5.822   5.161   6.312  0.3335  0.0239  2.3287
 4240SOL     OW13618   2.185   3.027   2.347 -0.4654 -0.3186  0.3319
 4240SOL    HW113619   2.199   2.997   2.253 -0.5447 -0.2830  0.3087
 4240SOL    HW213620   2.273   3.054   2.387 -0.1435 -1.9579  0.8255
 4241SOL     OW13621   0.713   2.509   0.677 -0.9065 -0.8603 -0.0214
 4241SOL    HW113622   0.751   2.600   0.690 -0.7574 -0.9404  0.1030
 4241SOL    HW213623   0.770   2.458   0.612 -0.9270 -0.9031 -0.0060
 4242SOL     OW13624   1.774   6.640   4.966  0.4179  0.1634 -0.2637
 4242SOL    HW113625   1.701   6.575   4.941 -0.0468  0.6184 -0.1051
 4242SOL    HW213626   1.822   6.606   5.046 -0.4430  0.4729  0.3972
 4243SOL     OW13627   5.877   5.486   6.347 -0.4944 -0.2288 -0.0890
 4243SOL    HW113628   5.970   5.516   6.366 -0.6374 -0.7148  1.5269
 4243SOL    HW213629   5.816   5.565   6.341 -0.3301  0.0018  1.0054
 4244SOL     OW13630   0.708   2.582   2.703  0.2788 -0.0852 -0.1549
 4244SOL    HW113631   0.674   2.520   2.632 -1.2034  0.4297  0.0760
 4244SOL    HW213632   0.741   2.666   2.660 -0.0517 -0.0189 -0.2784
 4245SOL     OW13633   2.676   6.101   0.602  0.2886 -0.0533  0.5467
 4245SOL    HW113634   2.680   6.022   0.540  2.1895  1.0242 -0.7986
 4245SOL    HW213635   2.740   6.087   0.677  0.3657  0.0671  0.5026
 4246SOL     OW13636   5.196   1.777   1.941 -0.6914  0.3084 -0.1363
 4246SOL    HW113637   5.226   1.746   1.851  0.7232 -0.9178  0.7326
 4246SOL    HW213638   5.133   1.711   1.980 -2.3987  1.4936 -0.7386
 4247SOL     OW13639   3.843   6.683   0.206 -0.3883  0.1115 -0.0248
 4247SOL    HW113640   3.841   6.584   0.224 -1.8230  0.1998  0.4134
 4247SOL    HW213641   3.751   6.721   0.217  0.1898  1.5528  0.0530
 4248SOL     OW13642   6.406   0.072   3.864 -0.3338  0.3160 -0.2867
 4248SOL    HW113643   6.489   0.118   3.895 -1.0554  1.1968  0.3918
 4248SOL    HW213644   6.420  -0.027   3.865  1.6782  0.4596 -2.9264
 4249SOL     OW13645   4.661   2.211   0.408 -0.4152 -0.0903  0.6676
 4249SOL    HW113646   4.699   2.295   0.447  2.6056 -1.4161  0.8864
 4249SOL    HW213647   4.651   2.222   0.309 -2.1152  1.1839  0.9390
 4250SOL     OW13648   5.600   4.313   4.067 -0.0837  0.0894 -0.3279
 4250SOL    HW113649   5.670   4.378   4.037  0.2500 -0.2150 -0.2110
 4250SOL    HW213650   5.641   4.222   4.077 -0.7430 -0.3302 -1.3487
 4251SOL     OW13651   0.625   2.868   6.074 -0.5947  0.3623  0.1217
 4251SOL    HW113652   0.577   2.921   6.005 -0.1933  2.0517  1.0760
 4251SOL    HW213653   0.697   2.814   6.030 -2.0558 -0.7195 -1.0701
 4252SOL     OW13654   0.154   5.136   2.986  0.1761 -0.1025  0.0061
 4252SOL    HW113655   0.228   5.149   2.919 -0.2588  1.9584 -0.1438
 4252SOL    HW213656   0.193   5.102   3.072  1.0600 -0.5433 -0.5499
 4253SOL     OW13657   5.719   3.493   3.371 -0.0087 -0.0358 -0.3289
 4253SOL    HW113658   5.715   3.404   3.326 -0.2986 -0.2741  0.1598
 4253SOL    HW213659   5.732   3.480   3.469 -0.2564  0.4542 -0.2275
 4254SOL     OW13660   0.769   5.313   0.579  0.0417  0.0208 -0.2361
 4254SOL    HW113661   0.716   5.394   0.604 -1.6835 -0.6609 -1.4430
 4254SOL    HW213662   0.749   5.238   0.642  1.8501  0.5599  1.0501
 4255SOL     OW13663   5.540   3.117   3.215  0.5515 -0.1003  0.0076
 4255SOL    HW113664   5.575   3.145   3.304  3.0442 -2.0960 -0.2450
 4255SOL    HW213665   5.545   3.018   3.207  1.1386  0.0774 -2.6451
 4256SOL     OW13666   5.325   2.313   2.156  0.4209 -0.2473 -0.8626
 4256SOL    HW113667   5.293   2.325   2.249  1.9510  0.1200 -0.3512
 4256SOL    HW213668   5.361   2.221   2.144  2.6156  0.4644 -0.2672
 4257SOL     OW13669   3.024   3.557   6.432  0.3730  0.3140  0.3422
 4257SOL    HW113670   2.973   3.642   6.420  1.7896  0.9583 -1.5305
 4257SOL    HW213671   2.965   3.488   6.474 -1.1078  1.8853  0.9513
 4258SOL     OW13672   5.521   3.750   4.116  0.7190 -0.1540 -0.7428
 4258SOL    HW113673   5.560   3.776   4.204  1.2323  0.5149 -1.1621
 4258SOL    HW213674   5.421   3.750   4.123  0.7483 -2.4988  0.5130
 4259SOL     OW13675   1.429   7.011   0.146 -0.2934  0.3633  0.5291
 4259SOL    HW113676   1.358   6.947   0.117 -0.7623  0.3755  1.5950
 4259SOL    HW213677   1.407   7.102   0.113 -0.6504  0.3237  0.6497
 4260SOL     OW13678   3.535   5.958   6.836  0.7010  0.0667  0.4875
 4260SOL    HW113679   3.510   6.008   6.753  0.4541  0.6918  0.9310
 4260SOL    HW213680   3.616   5.901   6.818 -1.2049 -2.3471 -1.1183
 4261SOL     OW13681   1.489   1.641   0.546 -0.4232  0.1693 -0.1882
 4261SOL    HW113682   1.409   1.587   0.570 -2.9651  4.1486  1.1925
 4261SOL    HW213683   1.502   1.714   0.614  2.9482  1.1728 -1.7029
 4262SOL     OW13684   0.443   0.780   3.194 -0.0181 -0.4216  0.8772
 4262SOL    HW113685   0.540   0.771   3.169 -0.1909  0.5696 -0.2165
 4262SOL    HW213686   0.386   0.734   3.127 -0.4101  0.9739  0.2177
 4263SOL     OW13687   0.835   0.954   6.552 -0.2445  0.0471 -0.1609
 4263SOL    HW113688   0.819   1.050   6.575  0.1564 -0.1287  0.9281
 4263SOL    HW213689   0.750   0.912   6.522 -0.0678  1.1898 -2.4572
 4264SOL     OW13690   0.766   6.005   6.520  0.0962 -0.2634 -0.1467
 4264SOL    HW113691   0.838   6.051   6.467  1.1037 -0.0253  1.3652
 4264SOL    HW213692   0.800   5.917   6.553 -0.3707 -0.2347  0.4275
 4265SOL     OW13693   4.342   0.499   5.950 -0.1990 -0.1443  0.7498
 4265SOL    HW113694   4.271   0.456   5.894  0.6526 -0.0831 -0.4325
 4265SOL    HW213695   4.429   0.452   5.935  0.2800  0.5823  1.1759
 4266SOL     OW13696   6.763   2.534   6.690  0.2589 -0.3473 -0.7190
 4266SOL    HW113697   6.720   2.618   6.723  2.5382  1.2107 -1.5100
 4266SOL    HW213698   6.784   2.474   6.767  0.5320  0.7669  0.0794
 4267SOL     OW13699   2.290   3.305   5.223  0.0205  0.0375  0.1661
 4267SOL    HW113700   2.304   3.208   5.204  1.4804  0.1050  0.7968
 4267SOL    HW213701   2.258   3.351   5.140  1.7626 -0.5285 -0.8645
 4268SOL     OW13702   1.770   1.247   2.258 -0.1930 -0.4176 -0.1301
 4268SOL    HW113703   1.789   1.234   2.356 -1.5911  0.8767  0.3549
 4268SOL    HW213704   1.782   1.343   2.235  0.9865 -0.8492 -1.4761
 4269SOL     OW13705   2.736   6.312   0.406  0.7038  0.3823 -0.2450
 4269SOL    HW113706   2.749   6.256   0.489 -1.1660  1.5216  0.8995
 4269SOL    HW213707   2.789   6.396   0.414  2.3668 -0.5153 -1.3128
 4270SOL     OW13708   3.359   6.434   3.756  0.1822 -0.3092  0.3363
 4270SOL    HW113709   3.391   6.436   3.851  3.6538  0.4238 -0.7394
 4270SOL    HW213710   3.425   6.386   3.699 -0.2888  1.8121 -2.1862
 4271SOL     OW13711   1.754   3.893   0.295  0.0011 -0.1967  0.2374
 4271SOL    HW113712   1.679   3.850   0.347 -0.8653 -0.3157 -1.0666
 4271SOL    HW213713   1.822   3.929   0.359  0.3965 -2.8212  1.4063
 4272SOL     OW13714   4.509   5.804   3.265 -0.4889  0.8303 -0.3224
 4272SOL    HW113715   4.492   5.708   3.240  2.2404  0.1721  0.0638
 4272SOL    HW213716   4.515   5.812   3.364  1.2472  0.9888 -0.4163
 4273SOL     OW13717   3.842   4.497   5.357  0.2515 -0.6091  0.6161
 4273SOL    HW113718   3.939   4.508   5.377 -0.0767  2.4240  1.0654
 4273SOL    HW213719   3.806   4.582   5.320 -2.0227 -2.0459 -0.7252
 4274SOL     OW13720   4.614   3.357   1.714  0.3646 -0.0897 -0.2880
 4274SOL    HW113721   4.533   3.412   1.693  0.5489 -0.1775 -1.2636
 4274SOL    HW213722   4.697   3.408   1.690  0.5511 -0.6172 -0.7929
 4275SOL     OW13723   0.677   1.466   1.008  0.5790 -0.0376  0.3261
 4275SOL    HW113724   0.670   1.375   1.050 -0.2935 -0.2340 -0.2113
 4275SOL    HW213725   0.664   1.536   1.077  1.8015 -0.3016  0.8486
 4276SOL     OW13726   2.630   5.667   1.747 -0.1720  0.1229 -0.3382
 4276SOL    HW113727   2.616   5.580   1.701 -1.4953 -0.4168  1.0320
 4276SOL    HW213728   2.591   5.741   1.692 -0.4129 -0.3305 -0.7768
 4277SOL     OW13729   1.518   6.973   3.697 -0.2822  0.2155 -0.3517
 4277SOL    HW113730   1.480   6.881   3.691  0.5890 -0.2304  0.6940
 4277SOL    HW213731   1.460   7.029   3.758 -0.8862  0.4169 -1.0931
 4278SOL     OW13732   1.160   0.912   1.215  0.3778  0.5397 -0.0233
 4278SOL    HW113733   1.080   0.941   1.163 -1.0580 -2.6252  0.2240
 4278SOL    HW213734   1.157   0.954   1.306 -0.2704  1.4589 -0.4501
 4279SOL     OW13735   5.724   5.287   1.494 -0.1645 -0.4452 -0.3959
 4279SOL    HW113736   5.800   5.351   1.501 -0.8843  0.4592 -0.5894
 4279SOL    HW213737   5.729   5.221   1.569  1.3128 -0.9793 -0.9314
 4280SOL     OW13738   2.340   0.032   1.590 -0.1943  0.0930 -0.1354
 4280SOL    HW113739   2.299   0.114   1.551  0.2571  0.4357  0.1104
 4280SOL    HW213740   2.438   0.030   1.569  0.2517  0.7644  1.7713
 4281SOL     OW13741   0.933   2.568   4.183  0.0826 -0.0358  0.0891
 4281SOL    HW113742   0.990   2.569   4.102  0.5929  0.2953  0.4490
 4281SOL    HW213743   0.943   2.655   4.233 -0.7056  0.0155  0.1723
 4282SOL     OW13744   3.767   6.005   4.907  0.1121 -0.3850  0.1049
 4282SOL    HW113745   3.862   6.022   4.934  0.1566  0.7992 -0.7410
 4282SOL    HW213746   3.744   6.060   4.827 -1.4331 -0.2862  0.5778
 4283SOL     OW13747   5.348   3.401   0.198  0.2992  0.4347  0.2518
 4283SOL    HW113748   5.348   3.490   0.153  0.3101 -0.2863 -1.2007
 4283SOL    HW213749   5.441   3.376   0.224  0.3993  0.4818 -0.0664
 4284SOL     OW13750   4.104   6.099   2.482 -0.2331  0.0755  0.3834
 4284SOL    HW113751   4.033   6.041   2.443 -0.3225 -0.3787  1.1891
 4284SOL    HW213752   4.090   6.106   2.581  0.4855  0.4773  0.4613
 4285SOL     OW13753   5.798   3.764   5.365  0.0112 -0.2303 -0.4156
 4285SOL    HW113754   5.702   3.783   5.341  0.2296  0.7106 -0.5717
 4285SOL    HW213755   5.821   3.809   5.451  0.1282 -1.0235 -0.0205
 4286SOL     OW13756   2.778   6.072   5.633  0.0672 -0.0390  0.0969
 4286SOL    HW113757   2.726   6.150   5.669  1.0746 -0.1633  1.9655
 4286SOL    HW213758   2.856   6.106   5.581 -1.3817  0.1439 -2.0915
 4287SOL     OW13759   0.693   5.920   5.528  0.1612 -0.5271  0.1013
 4287SOL    HW113760   0.681   5.823   5.549 -0.5082 -0.7033 -1.0378
 4287SOL    HW213761   0.787   5.947   5.549  0.1883 -1.2629  0.9997
 4288SOL     OW13762   0.344   2.063   4.295 -0.3976 -0.0456 -0.3725
 4288SOL    HW113763   0.317   1.982   4.347 -1.0336 -1.0398 -2.1857
 4288SOL    HW213764   0.432   2.096   4.330 -1.3149  0.0636  2.0879
 4289SOL     OW13765   6.689   3.434   4.775 -0.4877 -0.1238  0.1764
 4289SOL    HW113766   6.591   3.430   4.757 -0.5039  0.2436  0.1651
 4289SOL    HW213767   6.738   3.380   4.708 -0.7298 -0.8749  0.5900
 4290SOL     OW13768   6.750   1.568   4.254  0.1133 -0.6729 -0.2417
 4290SOL    HW113769   6.728   1.537   4.346  1.1187 -1.5089 -0.2498
 4290SOL    HW213770   6.789   1.660   4.257 -0.8017 -0.2863  0.0439
 4291SOL     OW13771   3.082   6.208   0.402  0.4842 -0.1023  0.4050
 4291SOL    HW113772   3.092   6.265   0.320 -1.8837  1.0239  0.8351
 4291SOL    HW213773   3.024   6.255   0.469  0.7206 -1.8667  1.9241
 4292SOL     OW13774   1.146   2.392   6.281  0.2819 -0.9010  0.3933
 4292SOL    HW113775   1.119   2.327   6.352  1.1004  0.0212  1.6240
 4292SOL    HW213776   1.242   2.377   6.257  0.7142  0.2961  1.2606
 4293SOL     OW13777   2.996   2.280   5.988 -0.5210 -0.0563  0.4651
 4293SOL    HW113778   2.987   2.314   6.081 -3.3266  0.2014  0.1799
 4293SOL    HW213779   2.954   2.345   5.924  1.2554 -0.2626 -1.0194
 4294SOL     OW13780   0.766   2.863   1.051  0.2494  0.4075 -0.3383
 4294SOL    HW113781   0.774   2.842   0.954  0.7237  0.0748 -0.2326
 4294SOL    HW213782   0.850   2.836   1.098 -1.1643 -2.6112  0.7240
 4295SOL     OW13783   3.277   6.253   6.430 -0.1944 -0.0855  1.2733
 4295SOL    HW113784   3.185   6.282   6.457 -0.3444 -1.2156  2.0820
 4295SOL    HW213785   3.270   6.181   6.361  0.1634  1.5978 -0.6138
 4296SOL     OW13786   4.693   6.483   0.079 -0.0903 -0.0453 -0.1703
 4296SOL    HW113787   4.685   6.462   0.177 -0.2506  0.2604 -0.1166
 4296SOL    HW213788   4.716   6.580   0.068 -2.0534  0.4286 -0.4920
 4297SOL     OW13789   1.140   6.285   3.779  0.2170  0.4348 -0.0472
 4297SOL    HW113790   1.145   6.294   3.680  0.9466 -0.4121 -0.0982
 4297SOL    HW213791   1.122   6.375   3.820 -2.2470  0.4545 -1.0475
 4298SOL     OW13792   0.741   3.494   5.706 -0.1140  0.4841  0.2114
 4298SOL    HW113793   0.673   3.520   5.638 -0.8882  1.0285  1.1553
 4298SOL    HW213794   0.697   3.490   5.796  1.3729  2.3271  1.0994
 4299SOL     OW13795   6.230   4.456   4.725 -0.0124  0.0279 -0.0820
 4299SOL    HW113796   6.163   4.497   4.664  0.1128 -0.5965 -0.6594
 4299SOL    HW213797   6.260   4.523   4.793 -1.5212  0.2049  0.4571
 4300SOL     OW13798   4.888   2.832   3.961 -0.0789  0.4993 -0.6751
 4300SOL    HW113799   4.921   2.805   4.051 -0.4807  0.2266 -0.6083
 4300SOL    HW213800   4.949   2.901   3.923  0.0537  0.6669 -0.1664
 4301SOL     OW13801   4.218   1.853   0.057  0.4142  0.2617  0.2534
 4301SOL    HW113802   4.139   1.850  -0.005  1.4597 -0.4446 -1.1092
 4301SOL    HW213803   4.191   1.896   0.143 -1.1862  0.9958 -0.5613
 4302SOL     OW13804   6.613   1.988   3.578  0.1071 -0.2164 -0.0581
 4302SOL    HW113805   6.644   2.039   3.498 -1.7100 -0.0178 -0.6822
 4302SOL    HW213806   6.692   1.949   3.625  1.2145 -0.5296 -2.0576
 4303SOL     OW13807   1.973   0.550   5.775 -0.3291 -0.2660 -0.3220
 4303SOL    HW113808   1.888   0.498   5.767 -1.2960  1.2438 -0.2078
 4303SOL    HW213809   2.020   0.523   5.860 -2.4983  1.3529  1.5104
 4304SOL     OW13810   5.272   0.074   2.571 -0.1054 -0.1274  0.3128
 4304SOL    HW113811   5.350   0.013   2.560  0.3777  0.1830  1.7726
 4304SOL    HW213812   5.287   0.158   2.518 -0.4121 -0.9015 -1.0556
 4305SOL     OW13813   6.772   1.944   3.056  0.2495 -0.1569 -0.2209
 4305SOL    HW113814   6.857   1.981   3.017  0.5676 -0.2454  0.3763
 4305SOL    HW213815   6.794   1.886   3.134 -0.3741 -0.0858  0.0115
 4306SOL     OW13816   1.251   6.304   2.936  0.5210 -0.3237 -0.4493
 4306SOL    HW113817   1.347   6.307   2.909  1.0785 -0.0074  1.3932
 4306SOL    HW213818   1.242   6.252   3.022 -0.6050  1.4764  0.6013
 4307SOL     OW13819   2.209   3.443   5.580 -0.8537 -0.2001 -0.8350
 4307SOL    HW113820   2.251   3.524   5.539  0.1189 -0.7536 -0.9668
 4307SOL    HW213821   2.180   3.465   5.673  1.9884 -0.4023  0.2135
 4308SOL     OW13822   3.257   0.669   2.308  0.4439 -0.0788 -0.2387
 4308SOL    HW113823   3.351   0.705   2.312  0.6964 -0.6840 -0.6093
 4308SOL    HW213824   3.202   0.727   2.247  0.7583 -0.1096 -0.5576
 4309SOL     OW13825   5.440   4.825   3.266  0.3956 -0.7308  0.2481
 4309SOL    HW113826   5.376   4.764   3.312  1.5324 -1.7884  0.4801
 4309SOL    HW213827   5.404   4.849   3.176 -0.7693 -0.5047  0.7530
 4310SOL     OW13828   3.955   2.092   6.968 -0.4230 -0.0750 -0.1805
 4310SOL    HW113829   3.952   2.003   6.924  3.0837 -0.5703  0.2705
 4310SOL    HW213830   3.914   2.086   7.059 -2.8473 -0.3916 -1.2180
 4311SOL     OW13831   2.085   0.794   5.856 -0.3548 -0.5076  0.7423
 4311SOL    HW113832   2.063   0.709   5.808  1.4322 -0.4017 -0.3687
 4311SOL    HW213833   2.053   0.872   5.803 -0.2042 -0.4393  0.7505
 4312SOL     OW13834   1.945   4.374   2.010 -0.3804  0.3368 -0.0524
 4312SOL    HW113835   1.850   4.343   2.014 -0.0110 -0.9246 -0.5536
 4312SOL    HW213836   1.972   4.408   2.100 -0.3364 -2.3829  1.0447
 4313SOL     OW13837   4.561   1.461   0.524  0.6599  0.2645 -0.2168
 4313SOL    HW113838   4.609   1.519   0.590 -0.3395 -0.3565  1.1010
 4313SOL    HW213839   4.581   1.365   0.544  0.3791  0.0728 -0.8435
 4314SOL     OW13840   2.268   0.684   4.310  0.3460 -0.2965 -0.3668
 4314SOL    HW113841   2.274   0.584   4.314 -0.1886 -0.3772 -1.3336
 4314SOL    HW213842   2.355   0.723   4.341  0.3973 -1.0419  0.4695
 4315SOL     OW13843   0.586   3.940   4.448 -0.2358  0.4153 -0.1767
 4315SOL    HW113844   0.639   3.942   4.533  0.2111  0.5044 -0.4584
 4315SOL    HW213845   0.529   4.022   4.443  0.5754  0.9697 -0.4958
 4316SOL     OW13846   2.202   3.669   1.396  0.0780  0.3786 -1.2365
 4316SOL    HW113847   2.118   3.651   1.344 -0.1690 -1.5775 -0.2286
 4316SOL    HW213848   2.183   3.736   1.467 -0.5092  0.3454 -1.3547
 4317SOL     OW13849   4.374   4.203   0.952 -0.0268  0.2552  0.0548
 4317SOL    HW113850   4.387   4.300   0.933 -0.0117 -0.2132 -2.7927
 4317SOL    HW213851   4.320   4.162   0.878  0.3657 -2.0007  0.9407
 4318SOL     OW13852   3.999   4.895   4.756 -0.8016 -0.0732 -0.1898
 4318SOL    HW113853   4.017   4.850   4.843  0.6833 -1.7800 -1.3022
 4318SOL    HW213854   4.050   4.981   4.751 -0.0343 -0.5033  0.2011
 4319SOL     OW13855   6.770   0.520   0.620  0.0776 -0.4048 -0.9898
 4319SOL    HW113856   6.827   0.579   0.678 -1.2150  0.1520 -0.2435
 4319SOL    HW213857   6.702   0.576   0.573 -1.8670 -1.3633  0.5367
 4320SOL     OW13858   1.521   3.598   4.594  0.0812  0.2700  0.3899
 4320SOL    HW113859   1.518   3.593   4.494 -0.8970  1.6025  0.3119
 4320SOL    HW213860   1.612   3.573   4.627  0.6024  0.4313 -0.8866
 4321SOL     OW13861   6.407   2.848   1.295  0.3406 -0.3255  0.0299
 4321SOL    HW113862   6.461   2.932   1.297  0.7752 -0.6124  0.5388
 4321SOL    HW213863   6.468   2.769   1.299 -0.0767 -0.6684 -0.2478
 4322SOL     OW13864   5.399   6.349   5.799  0.0667 -0.0340 -0.2125
 4322SOL    HW113865   5.488   6.374   5.759 -0.3024 -0.8549 -1.6343
 4322SOL    HW213866   5.390   6.249   5.797 -2.2827  0.1016 -3.3722
 4323SOL     OW13867   1.663   4.770   0.785 -0.4113 -0.2439  0.5234
 4323SOL    HW113868   1.615   4.831   0.722  1.6895  0.6800 -0.2738
 4323SOL    HW213869   1.620   4.680   0.784 -0.0755 -0.4590 -2.7602
 4324SOL     OW13870   1.799   5.879   5.745  0.2413 -0.4279 -0.3908
 4324SOL    HW113871   1.870   5.929   5.795 -1.2358  0.6257  0.7353
 4324SOL    HW213872   1.781   5.925   5.658  0.5134 -0.3729 -0.4214
 4325SOL     OW13873   6.559   3.462   0.993 -0.2821  0.6572  0.3407
 4325SOL    HW113874   6.552   3.415   0.905 -2.4480 -0.6024  1.1017
 4325SOL    HW213875   6.632   3.530   0.988  0.6213 -0.3468 -1.9466
 4326SOL     OW13876   2.945   6.212   0.068  0.5747 -0.2094  0.4270
 4326SOL    HW113877   2.872   6.153   0.104  0.9247 -0.8599  0.0911
 4326SOL    HW213878   2.967   6.282   0.135 -0.2002 -0.1475  0.6306
 4327SOL     OW13879   5.229   4.966   3.689 -0.1765  0.4048  0.2928
 4327SOL    HW113880   5.201   4.871   3.684 -0.4340  0.5048 -0.2330
 4327SOL    HW213881   5.298   4.985   3.619  1.9328 -0.0632  2.1388
 4328SOL     OW13882   4.767   5.894   2.690  0.6717 -0.1609 -0.2374
 4328SOL    HW113883   4.831   5.894   2.613  0.3937 -1.6028 -0.4971
 4328SOL    HW213884   4.813   5.858   2.771  0.5373 -0.0542 -0.1137
 4329SOL     OW13885   3.446   1.480   3.755 -0.1413 -0.3637  0.6752
 4329SOL    HW113886   3.498   1.552   3.709 -0.1340 -1.5722 -1.3035
 4329SOL    HW213887   3.349   1.503   3.755 -0.0343  0.0984  0.9457
 4330SOL     OW13888   0.008   0.093   4.478  0.7948  0.6208 -0.1277
 4330SOL    HW113889   0.020   0.176   4.423 -0.3765  0.7111 -0.2692
 4330SOL    HW213890   0.055   0.017   4.434 -0.2534  0.6555 -1.3651
 4331SOL     OW13891   5.707   6.975   2.743 -0.4219 -0.2792  0.2548
 4331SOL    HW113892   5.621   7.021   2.768 -2.3549 -2.5911 -1.5498
 4331SOL    HW213893   5.740   6.922   2.821 -0.0706  1.3169  1.2485
 4332SOL     OW13894   0.323   0.729   2.454  0.0557 -0.2559  0.5615
 4332SOL    HW113895   0.282   0.760   2.540 -0.1756  0.1312  0.3136
 4332SOL    HW213896   0.302   0.632   2.440 -0.0280 -0.2827  0.8684
 4333SOL     OW13897   0.951   5.497   1.948  0.0398  0.1671 -0.3299
 4333SOL    HW113898   0.887   5.559   1.992  0.1870  0.6091 -0.7352
 4333SOL    HW213899   0.901   5.437   1.886  0.1738  1.5566 -1.8508
 4334SOL     OW13900   0.684   4.770   3.364 -0.4015  0.5199 -0.5568
 4334SOL    HW113901   0.721   4.767   3.271 -0.2522  0.6648 -0.5031
 4334SOL    HW213902   0.753   4.807   3.425  0.0086 -0.8770 -0.1360
 4335SOL     OW13903   3.359   3.834   4.107 -0.2756  0.6122  0.2139
 4335SOL    HW113904   3.288   3.899   4.133  0.1679  1.4491 -0.6269
 4335SOL    HW213905   3.420   3.875   4.040  0.3635 -0.4749  0.0944
 4336SOL     OW13906   4.934   2.758   2.356  0.3026 -0.4001 -0.4919
 4336SOL    HW113907   5.021   2.708   2.351  0.7908  0.5515 -2.1768
 4336SOL    HW213908   4.882   2.743   2.272 -1.0912 -0.7621  0.4013
 4337SOL     OW13909   4.490   6.882   4.755 -0.2423  0.8463  0.1646
 4337SOL    HW113910   4.420   6.816   4.782 -0.8094  1.4155  0.1170
 4337SOL    HW213911   4.446   6.967   4.724  0.4808  1.5121  0.9095
 4338SOL     OW13912   4.505   0.491   3.165  0.1011 -0.0473 -0.1872
 4338SOL    HW113913   4.476   0.431   3.240 -0.1733  0.6215  0.2526
 4338SOL    HW213914   4.595   0.462   3.132  0.0477 -0.5930  0.1391
 4339SOL     OW13915   4.243   6.441   0.567 -0.1833  0.4614  0.0458
 4339SOL    HW113916   4.154   6.397   0.561 -0.1500  0.2719  0.8476
 4339SOL    HW213917   4.241   6.511   0.639  0.0161  1.1718 -0.6261
 4340SOL     OW13918   4.672   0.844   2.341  0.7597 -0.2307 -0.3894
 4340SOL    HW113919   4.700   0.750   2.324 -2.4717 -1.4108  0.0618
 4340SOL    HW213920   4.667   0.894   2.255  1.4929 -0.7633 -0.7533
 4341SOL     OW13921   4.368   0.438   4.213  0.2181  0.4569  0.3849
 4341SOL    HW113922   4.421   0.470   4.292 -0.8674  1.4197  0.7486
 4341SOL    HW213923   4.319   0.354   4.238  1.3901 -0.3421  0.1006
 4342SOL     OW13924   0.537   1.258   0.232  0.2986 -0.2897 -0.4394
 4342SOL    HW113925   0.516   1.353   0.254  1.7838 -0.2140  0.8334
 4342SOL    HW213926   0.595   1.255   0.150  0.2659 -0.1119 -0.4704
 4343SOL     OW13927   5.120   5.691   2.293  0.4583 -0.2102 -0.1786
 4343SOL    HW113928   5.211   5.732   2.297  0.0103  0.7885 -0.0193
 4343SOL    HW213929   5.055   5.759   2.260 -0.1502 -1.0596 -0.7460
 4344SOL     OW13930   5.755   1.931   4.649  0.3286 -0.3867  0.2713
 4344SOL    HW113931   5.728   1.838   4.674  0.9648 -0.4005  0.9533
 4344SOL    HW213932   5.687   1.970   4.587  0.3470 -1.5135 -0.4917
 4345SOL     OW13933   6.331   5.836   5.764  0.2179 -0.2380  0.1145
 4345SOL    HW113934   6.329   5.747   5.719  2.1385 -0.4131  0.3194
 4345SOL    HW213935   6.275   5.832   5.847  0.6228 -1.3793  0.3500
 4346SOL     OW13936   4.313   6.407   3.194 -0.2650  0.3462 -0.0698
 4346SOL    HW113937   4.257   6.465   3.135 -1.5390  1.3283  1.9686
 4346SOL    HW213938   4.351   6.462   3.268  0.4690 -0.9980  0.5860
 4347SOL     OW13939   0.101   6.548   5.977 -0.2150  0.0396  0.9190
 4347SOL    HW113940   0.078   6.493   5.896  0.7558  1.4894 -0.4081
 4347SOL    HW213941   0.111   6.644   5.950  2.3382  0.2502  2.2803
 4348SOL     OW13942   6.288   6.340   1.564  0.6094  0.4930 -0.0405
 4348SOL    HW113943   6.285   6.279   1.643 -0.8973 -1.0003 -1.1904
 4348SOL    HW213944   6.247   6.428   1.588 -1.4590 -0.5378  0.3915
 4349SOL     OW13945   0.529   3.123   3.622 -0.0527  0.0674 -0.0324
 4349SOL    HW113946   0.570   3.083   3.704  1.9488 -1.3662 -1.6166
 4349SOL    HW213947   0.601   3.166   3.567 -0.8857 -1.1120 -2.1717
 4350SOL     OW13948   2.712   1.876   1.311 -0.7545  0.3934  0.1533
 4350SOL    HW113949   2.748   1.785   1.330  1.3035  0.5944 -2.2663
 4350SOL    HW213950   2.618   1.868   1.279 -0.8911 -0.7766  0.7740
 4351SOL     OW13951   6.368   4.471   2.754  0.8206 -0.1640 -0.3833
 4351SOL    HW113952   6.394   4.507   2.843 -0.1961 -2.4552  0.9227
 4351SOL    HW213953   6.388   4.373   2.749  0.7091 -0.1427 -2.6328
 4352SOL     OW13954   1.107   0.679   4.413 -0.3823 -0.5401  0.1209
 4352SOL    HW113955   1.191   0.671   4.359 -0.3183 -0.0315  0.1390
 4352SOL    HW213956   1.092   0.775   4.438 -0.4696 -0.7562  0.9236
 4353SOL     OW13957   2.952   0.405   0.496 -0.1059 -0.0481  0.1284
 4353SOL    HW113958   2.930   0.449   0.583  0.5636  0.2281  0.1655
 4353SOL    HW213959   3.026   0.338   0.511  1.3689  1.3562 -0.5406
 4354SOL     OW13960   2.061   5.538   1.897  0.1038  0.0450  0.5635
 4354SOL    HW113961   2.038   5.484   1.978 -0.7919 -1.0910 -0.4098
 4354SOL    HW213962   2.128   5.608   1.921 -1.6157  1.0632  2.7464
 4355SOL     OW13963   4.075   5.132   3.080  0.2008 -0.2666 -0.4970
 4355SOL    HW113964   3.988   5.156   3.037 -0.3624 -1.6690 -0.1895
 4355SOL    HW213965   4.125   5.070   3.020 -0.1463 -1.4530  0.4060
 4356SOL     OW13966   0.599   0.211   5.563 -0.5740  0.1933  0.1036
 4356SOL    HW113967   0.690   0.250   5.572 -0.4597  0.4744 -1.8131
 4356SOL    HW213968   0.604   0.111   5.564 -0.5614  0.1835  2.4146
 4357SOL     OW13969   5.573   5.932   0.000 -0.2852  0.0359 -0.0666
 4357SOL    HW113970   5.570   6.018  -0.050 -1.0742  1.1372  1.7494
 4357SOL    HW213971   5.516   5.864  -0.046 -0.4876  0.8039 -0.9783
 4358SOL     OW13972   4.808   3.759   5.612 -0.0086  0.2262  0.2982
 4358SOL    HW113973   4.746   3.697   5.564 -1.4004  1.7490  0.0034
 4358SOL    HW213974   4.793   3.752   5.710 -0.8734  0.7604  0.2195
 4359SOL     OW13975   4.251   6.388   6.597 -0.1883 -0.6574 -0.1911
 4359SOL    HW113976   4.287   6.425   6.683  0.4905  0.3009 -0.8679
 4359SOL    HW213977   4.190   6.456   6.554  4.2250  1.7167 -3.5029
 4360SOL     OW13978   3.255   1.465   6.795 -0.2329 -0.1535 -0.3160
 4360SOL    HW113979   3.321   1.435   6.727  0.8583  2.0323 -0.3101
 4360SOL    HW213980   3.185   1.394   6.807  1.0583 -1.7473 -1.6654
 4361SOL     OW13981   1.782   0.288   2.176  0.1045  0.0529 -0.4992
 4361SOL    HW113982   1.862   0.231   2.196 -0.4223 -0.2757  0.7562
 4361SOL    HW213983   1.716   0.234   2.124 -0.0399 -0.2240 -0.0315
 4362SOL     OW13984   4.110   5.631   4.385  0.0545 -0.0931 -0.7646
 4362SOL    HW113985   4.174   5.559   4.411 -1.8273 -0.7644  2.3801
 4362SOL    HW213986   4.162   5.707   4.345  2.6209 -1.2444  0.1353
 4363SOL     OW13987   3.153   3.497   3.309  0.3939  0.3156 -0.3555
 4363SOL    HW113988   3.118   3.583   3.273 -0.4967  1.4988  2.9928
 4363SOL    HW213989   3.078   3.433   3.324  0.4611  0.5433  1.0614
 4364SOL     OW13990   4.112   3.517   3.427  0.2421 -0.2218  0.2750
 4364SOL    HW113991   4.101   3.418   3.414 -0.1896 -0.3184  1.3220
 4364SOL    HW213992   4.102   3.563   3.339  1.0099 -1.1504 -0.3206
 4365SOL     OW13993   5.398   0.266   1.980  0.5243 -0.4911  0.5468
 4365SOL    HW113994   5.460   0.327   1.931 -0.0378  1.6213  2.3523
 4365SOL    HW213995   5.387   0.181   1.927  2.0732  0.5316 -1.5690
 4366SOL     OW13996   3.858   0.407   5.534 -0.4438  0.2104 -0.1234
 4366SOL    HW113997   3.926   0.458   5.481 -0.5268 -0.1655 -0.5941
 4366SOL    HW213998   3.855   0.443   5.628  0.4074  0.2154 -0.0966
 4367SOL     OW13999   0.501   0.072   3.664  0.0562  0.6413 -0.7991
 4367SOL    HW114000   0.541   0.018   3.738 -2.2926 -0.7721 -0.4445
 4367SOL    HW214001   0.551   0.054   3.579  0.8892 -0.1077 -0.1755
 4368SOL     OW14002   2.300   6.411   6.341 -0.3494  0.1701  0.3874
 4368SOL    HW114003   2.392   6.449   6.352 -0.0984 -0.0231 -0.9101
 4368SOL    HW214004   2.305   6.323   6.295 -1.2877  1.0659 -1.5501
 4369SOL     OW14005   3.441   0.223   4.988 -0.2085 -0.0515  0.7215
 4369SOL    HW114006   3.360   0.202   5.043 -0.1282  1.6598  1.5625
 4369SOL    HW214007   3.519   0.169   5.020 -0.4489  0.0512  1.5033
 4370SOL     OW14008   6.116   2.762   4.252 -0.2860  0.1198 -0.1492
 4370SOL    HW114009   6.132   2.805   4.163 -0.0104  1.2339  0.4307
 4370SOL    HW214010   6.060   2.822   4.308 -0.0673 -0.3736  0.6055
 4371SOL     OW14011   0.069   1.075   0.907 -0.4679  0.3987  0.0549
 4371SOL    HW114012   0.065   1.060   1.006 -0.2275 -0.4913 -0.0619
 4371SOL    HW214013   0.162   1.059   0.874 -0.7791 -0.4294 -0.4717
 4372SOL     OW14014   1.894   1.416   0.194  0.3867 -0.2269 -0.0109
 4372SOL    HW114015   1.973   1.431   0.255  0.7589 -0.7782 -0.3490
 4372SOL    HW214016   1.923   1.360   0.116 -0.1224  0.3461 -0.6193
 4373SOL     OW14017   1.870   3.358   1.421 -0.1052  0.1891  0.5567
 4373SOL    HW114018   1.867   3.258   1.427  1.1413  0.1516  0.8190
 4373SOL    HW214019   1.828   3.388   1.336  2.3530 -0.7835 -1.0998
 4374SOL     OW14020   4.176   4.958   2.070 -0.0077  0.1946  0.1269
 4374SOL    HW114021   4.101   4.916   2.019 -1.5934 -0.3478  2.7371
 4374SOL    HW214022   4.142   5.040   2.118  0.8180 -0.4909  1.9744
 4375SOL     OW14023   1.908   2.683   1.410 -0.3980 -0.1352 -0.6485
 4375SOL    HW114024   1.863   2.595   1.394 -0.3132 -0.3606  0.3259
 4375SOL    HW214025   1.855   2.736   1.476  1.2964 -0.8449  1.3747
 4376SOL     OW14026   3.712   4.228   5.370  0.4053  0.4750  0.0523
 4376SOL    HW114027   3.634   4.244   5.430  0.2290 -0.1389 -0.0032
 4376SOL    HW214028   3.773   4.308   5.371  0.1270  0.6811  0.6221
 4377SOL     OW14029   4.181   5.608   0.651  0.0639  0.1301 -0.1758
 4377SOL    HW114030   4.260   5.669   0.654 -0.6400  1.0270  1.0470
 4377SOL    HW214031   4.104   5.654   0.607  0.2532 -0.8171 -1.5547
 4378SOL     OW14032   5.971   0.421   6.878  0.2012  0.1762  0.0499
 4378SOL    HW114033   5.889   0.468   6.847 -0.4151 -1.3836 -0.8287
 4378SOL    HW214034   5.969   0.410   6.977  0.0036  1.3051  0.1766
 4379SOL     OW14035   1.215   1.719   5.825 -0.1734  0.1869  0.2452
 4379SOL    HW114036   1.193   1.726   5.727  1.5072  1.2230 -0.1050
 4379SOL    HW214037   1.262   1.633   5.842  0.4343  0.4350 -0.0941
 4380SOL     OW14038   4.780   5.410   2.134 -0.4092 -0.3289 -0.2497
 4380SOL    HW114039   4.791   5.507   2.113 -0.6439 -0.2266  0.0781
 4380SOL    HW214040   4.710   5.370   2.075  1.9563 -1.1182 -2.7457
 4381SOL     OW14041   3.162   5.868   3.414  0.2560 -0.0114  0.1357
 4381SOL    HW114042   3.088   5.929   3.444 -0.7050 -0.0408 -1.9796
 4381SOL    HW214043   3.240   5.922   3.384 -1.2177  0.4571 -3.3812
 4382SOL     OW14044   1.915   1.543   4.644 -0.1927  0.1726 -0.1663
 4382SOL    HW114045   1.862   1.628   4.654  0.7273  0.6444  0.9679
 4382SOL    HW214046   1.980   1.554   4.569  0.7075  0.9197  0.6999
 4383SOL     OW14047   7.002   4.020   3.586 -0.6390 -0.2882  0.5614
 4383SOL    HW114048   6.975   4.106   3.544  1.1358  0.0630  0.0474
 4383SOL    HW214049   6.940   3.947   3.556 -0.5725  0.3228 -1.1438
 4384SOL     OW14050   1.826   0.911   2.966  0.1055  0.1805 -0.3216
 4384SOL    HW114051   1.922   0.884   2.971 -0.2580 -1.1644 -0.2538
 4384SOL    HW214052   1.768   0.830   2.974 -1.0647  1.0785  0.6181
 4385SOL     OW14053   0.860   5.860   1.450 -0.4921 -0.2429  0.4934
 4385SOL    HW114054   0.788   5.878   1.383 -0.9164 -2.4018  0.2878
 4385SOL    HW214055   0.825   5.798   1.520  1.3093 -1.8297  0.0589
 4386SOL     OW14056   4.601   1.259   0.177 -0.3451 -0.0767 -0.6660
 4386SOL    HW114057   4.696   1.248   0.204 -0.4298 -2.5163 -1.0717
 4386SOL    HW214058   4.543   1.201   0.235 -1.3005 -0.2419 -1.7394
 4387SOL     OW14059   2.883   6.743   5.446 -0.7455 -0.4467 -0.5554
 4387SOL    HW114060   2.876   6.750   5.545  0.3654  1.5008 -0.5739
 4387SOL    HW214061   2.797   6.772   5.404 -0.3370  1.4288 -0.1929
 4388SOL     OW14062   2.953   3.758   3.138 -0.1891 -0.4434 -0.3841
 4388SOL    HW114063   3.020   3.832   3.141 -0.6115 -0.0733  1.4763
 4388SOL    HW214064   2.913   3.746   3.229 -0.4241 -2.6926 -0.7172
 4389SOL     OW14065   3.441   4.750   5.219  0.0222 -0.9110 -0.0460
 4389SOL    HW114066   3.358   4.740   5.164 -1.6883  3.6666  1.2006
 4389SOL    HW214067   3.421   4.726   5.314  0.6949 -1.4647 -0.0342
 4390SOL     OW14068   3.311   2.949   2.563  0.8071 -0.2601  0.2098
 4390SOL    HW114069   3.230   3.007   2.576  1.5111  0.4740  1.4389
 4390SOL    HW214070   3.333   2.901   2.648  1.7565 -0.3263 -0.0581
 4391SOL     OW14071   2.059   1.449   2.738 -0.1044  0.2205 -0.3108
 4391SOL    HW114072   2.092   1.542   2.755 -2.5106  0.8695  1.3375
 4391SOL    HW214073   1.974   1.434   2.788 -0.2763 -2.6038 -1.2591
 4392SOL     OW14074   4.677   5.372   5.238  0.5344 -0.1891  0.0987
 4392SOL    HW114075   4.649   5.407   5.148 -1.8964 -1.4837  0.2525
 4392SOL    HW214076   4.663   5.441   5.308  1.2158  0.3976 -0.3370
 4393SOL     OW14077   4.808   1.543   3.232 -0.3363  0.1360  0.0119
 4393SOL    HW114078   4.887   1.515   3.288  0.8409  3.1375  0.0574
 4393SOL    HW214079   4.785   1.638   3.254 -2.8799 -0.1134 -1.3037
 4394SOL     OW14080   3.796   3.261   0.794  0.7712 -0.4154 -0.2695
 4394SOL    HW114081   3.705   3.248   0.755  1.0763 -1.4698 -0.6602
 4394SOL    HW214082   3.852   3.313   0.729  0.9128 -1.1323 -0.7387
 4395SOL     OW14083   5.879   6.091   1.849 -0.2391  0.4944 -0.1396
 4395SOL    HW114084   5.933   6.026   1.903  0.6621  0.5327 -0.9694
 4395SOL    HW214085   5.876   6.178   1.897  0.8073  0.6167 -0.2624
 4396SOL     OW14086   4.510   4.192   6.919  0.4774  0.5397  0.0304
 4396SOL    HW114087   4.425   4.154   6.956 -0.1538  1.9188  0.0623
 4396SOL    HW214088   4.587   4.164   6.977 -0.2364  0.9979  1.2496
 4397SOL     OW14089   2.524   4.488   3.965  0.4043 -0.6136 -0.5798
 4397SOL    HW114090   2.453   4.442   4.019 -1.1172  0.5234 -1.5272
 4397SOL    HW214091   2.509   4.471   3.868  0.0389  1.4314 -0.9427
 4398SOL     OW14092   1.713   0.356   1.878  0.1895  0.1596 -0.0674
 4398SOL    HW114093   1.733   0.434   1.937  1.0292 -0.6388  0.7550
 4398SOL    HW214094   1.615   0.338   1.877  0.0154  1.0704 -0.0854
 4399SOL     OW14095   3.825   6.359   3.707 -0.1223  0.4228 -0.2820
 4399SOL    HW114096   3.898   6.408   3.659  1.3650  1.4642  2.7580
 4399SOL    HW214097   3.864   6.277   3.751 -1.2245 -0.0661 -0.1928
 4400SOL     OW14098   2.410   4.381   5.864 -0.6371  0.3933  0.1768
 4400SOL    HW114099   2.474   4.306   5.881  0.5283  1.6586  1.6686
 4400SOL    HW214100   2.333   4.347   5.810 -0.5900 -2.0909  1.5137
 4401SOL     OW14101   6.969   2.231   1.178 -0.0747  0.6469  0.0423
 4401SOL    HW114102   7.035   2.158   1.158  0.2746  1.0766 -0.3828
 4401SOL    HW214103   6.973   2.252   1.276 -0.9610 -0.6516  0.3837
 4402SOL     OW14104   1.530   5.727   1.585  0.2860  0.0962  0.2441
 4402SOL    HW114105   1.560   5.810   1.633  0.4707 -0.1078  0.4871
 4402SOL    HW214106   1.563   5.647   1.635  0.9777 -0.1174 -0.5418
 4403SOL     OW14107   1.935   5.116   0.926  0.4951 -0.2916  0.1753
 4403SOL    HW114108   1.870   5.041   0.934 -1.2130  1.0090 -0.8775
 4403SOL    HW214109   1.991   5.104   0.845  0.0141 -0.2842 -0.1615
 4404SOL     OW14110   3.908   3.022   6.196 -0.8080 -0.2146  0.4566
 4404SOL    HW114111   3.904   3.088   6.121 -0.7676  1.5439  1.9427
 4404SOL    HW214112   3.816   2.995   6.221 -0.8018 -2.7159 -1.7349
 4405SOL     OW14113   5.999   3.664   3.996 -0.2735  0.2587  0.3922
 4405SOL    HW114114   5.911   3.620   4.016  0.2303  0.4627  3.4544
 4405SOL    HW214115   6.063   3.596   3.960 -1.7361  0.2191 -2.4827
 4406SOL     OW14116   6.008   3.190   2.945  0.3268  0.1490  0.0452
 4406SOL    HW114117   5.988   3.129   3.021 -1.6844  0.6814 -0.0138
 4406SOL    HW214118   6.057   3.139   2.874  0.0772 -0.9732  0.6516
 4407SOL     OW14119   2.944   3.524   1.848  0.1553  0.1294 -0.1443
 4407SOL    HW114120   2.913   3.477   1.930  1.9138 -0.0364  0.4542
 4407SOL    HW214121   2.968   3.457   1.778 -1.5017  0.2709 -0.9043
 4408SOL     OW14122   1.985   1.203   6.690  0.4483  0.3419 -0.1826
 4408SOL    HW114123   2.004   1.137   6.762  2.8519  0.3221 -0.7297
 4408SOL    HW214124   2.033   1.176   6.606 -1.5041  0.8568 -1.5389
 4409SOL     OW14125   0.476   2.474   4.552 -0.8899 -0.7500 -0.0720
 4409SOL    HW114126   0.494   2.570   4.530  1.7833 -0.8048  1.4507
 4409SOL    HW214127   0.420   2.469   4.635  0.7823 -0.3945  1.1469
 4410SOL     OW14128   5.323   0.848   1.305 -0.1126  0.0925  0.1999
 4410SOL    HW114129   5.292   0.762   1.347  0.1849 -0.3308 -0.4425
 4410SOL    HW214130   5.419   0.840   1.280  0.0297  0.7655  0.5148
 4411SOL     OW14131   2.466   4.656   1.096 -0.4477  0.2555 -0.1903
 4411SOL    HW114132   2.444   4.748   1.129 -0.1902  0.2977 -0.1290
 4411SOL    HW214133   2.540   4.618   1.151  0.3671  0.5451 -1.0377
 4412SOL     OW14134   2.741   0.861   6.124  0.0213 -0.8347  0.3933
 4412SOL    HW114135   2.812   0.803   6.082  0.9680 -0.8825  1.9844
 4412SOL    HW214136   2.686   0.806   6.186 -0.9362 -0.6161 -0.2393
 4413SOL     OW14137   5.413   6.603   4.305 -0.7349 -0.0866  0.0645
 4413SOL    HW114138   5.378   6.527   4.360  0.8521 -2.6875 -2.2891
 4413SOL    HW214139   5.508   6.621   4.330 -1.5429  2.4134  1.7638
 4414SOL     OW14140   1.668   3.528   3.836 -0.1988  0.5819 -0.3935
 4414SOL    HW114141   1.683   3.504   3.932 -0.8361 -0.4537 -0.5410
 4414SOL    HW214142   1.752   3.513   3.784 -0.5748 -1.4397 -0.4834
 4415SOL     OW14143   3.541   6.270   6.032 -0.1357 -0.6380  0.0881
 4415SOL    HW114144   3.556   6.331   5.955 -4.1794 -1.4965 -1.5877
 4415SOL    HW214145   3.615   6.202   6.035  0.9579  0.3641 -1.9951
 4416SOL     OW14146   1.186   6.827   2.206  0.3223 -0.3569 -0.5170
 4416SOL    HW114147   1.126   6.751   2.234 -1.9726  1.7307  0.6336
 4416SOL    HW214148   1.132   6.911   2.200  2.9843  1.4701 -0.4719
 4417SOL     OW14149   6.684   1.498   1.998  0.7905  0.0789 -0.4579
 4417SOL    HW114150   6.691   1.597   1.999  0.7252  0.0805  0.0614
 4417SOL    HW214151   6.710   1.461   2.087  2.3070 -0.4845 -1.0978
 4418SOL     OW14152   4.993   1.926   6.907  0.5855  0.0158 -0.4377
 4418SOL    HW114153   5.085   1.964   6.908  0.6598 -0.0963 -1.5900
 4418SOL    HW214154   4.941   1.962   6.984  1.4610  0.4055 -0.0179
 4419SOL     OW14155   3.143   5.077   1.776  0.3924 -0.0582 -0.4942
 4419SOL    HW114156   3.139   5.007   1.704 -0.6178  1.3387 -1.8416
 4419SOL    HW214157   3.201   5.044   1.850 -0.3969 -2.5214 -0.8736
 4420SOL     OW14158   0.385   1.568   0.529 -0.1541 -0.4265  0.7404
 4420SOL    HW114159   0.331   1.486   0.548  0.8313 -0.9692  1.2988
 4420SOL    HW214160   0.445   1.551   0.451 -0.0467 -0.1995  0.7717
 4421SOL     OW14161   1.211   2.708   2.133  0.1027 -0.1842  0.3452
 4421SOL    HW114162   1.233   2.773   2.205 -0.5768  1.1269 -0.5842
 4421SOL    HW214163   1.219   2.615   2.168  0.6056  0.3998  1.8521
 4422SOL     OW14164   2.916   6.165   2.179 -0.0199 -0.1306 -0.2991
 4422SOL    HW114165   2.986   6.129   2.118 -0.7679 -0.7193 -0.8323
 4422SOL    HW214166   2.842   6.099   2.187 -0.9110  0.8227 -0.4191
 4423SOL     OW14167   0.188   2.466   6.724  0.0517  0.2631 -0.2451
 4423SOL    HW114168   0.145   2.540   6.775  1.6291  0.3989  0.9800
 4423SOL    HW214169   0.260   2.504   6.666 -0.7155 -0.0728 -1.4487
 4424SOL     OW14170   6.567   5.478   5.833 -0.4978  0.3445  0.2345
 4424SOL    HW114171   6.645   5.539   5.818 -1.0009  1.2768  1.3197
 4424SOL    HW214172   6.538   5.482   5.928 -1.1373 -0.9067  0.1255
 4425SOL     OW14173   1.166   6.148   0.336  0.2142  0.2341 -0.1681
 4425SOL    HW114174   1.244   6.118   0.282  0.6349 -0.1024  0.6027
 4425SOL    HW214175   1.143   6.078   0.403  0.3813  1.0586  0.7844
 4426SOL     OW14176   4.986   1.417   3.381  0.4551 -0.2238  0.0395
 4426SOL    HW114177   5.047   1.479   3.430  1.3903  0.3246 -1.6983
 4426SOL    HW214178   4.957   1.343   3.442  0.6850  0.9820  1.6698
 4427SOL     OW14179   4.620   2.128   0.141 -0.8871  0.3583  0.6281
 4427SOL    HW114180   4.522   2.114   0.129 -0.7759 -0.1465  0.2364
 4427SOL    HW214181   4.655   2.183   0.065 -0.9666  1.0538  1.0865
 4428SOL     OW14182   6.246   1.830   0.569  0.2824  0.3210 -0.0105
 4428SOL    HW114183   6.176   1.760   0.583  0.1174  0.2654 -1.0725
 4428SOL    HW214184   6.333   1.786   0.546  0.3865  0.4336  0.1678
 4429SOL     OW14185   6.643   2.894   5.327  0.2746 -0.0830  0.5264
 4429SOL    HW114186   6.628   2.809   5.377 -1.4547 -0.6015 -0.7887
 4429SOL    HW214187   6.584   2.966   5.366  0.1404 -0.0549  0.2691
 4430SOL     OW14188   4.627   6.577   6.230 -0.0380  0.3385 -0.1111
 4430SOL    HW114189   4.676   6.532   6.305 -1.2434  0.5271  0.8282
 4430SOL    HW214190   4.529   6.575   6.249 -0.4517 -0.3339 -2.1014
 4431SOL     OW14191   5.356   3.477   4.499 -0.0210 -0.8271 -0.5974
 4431SOL    HW114192   5.421   3.404   4.482  0.7542  0.2801 -2.7342
 4431SOL    HW214193   5.271   3.459   4.449  0.1752 -0.2893 -1.1406
 4432SOL     OW14194   3.776   1.165   1.257  0.0857 -0.1016 -0.4692
 4432SOL    HW114195   3.820   1.239   1.207  2.1739 -0.3757  0.8473
 4432SOL    HW214196   3.805   1.077   1.220 -0.1046 -0.2741 -0.2147
 4433SOL     OW14197   0.491   1.254   0.587 -0.5382  0.5851 -0.2857
 4433SOL    HW114198   0.393   1.269   0.579 -0.8153 -1.3792 -0.9868
 4433SOL    HW214199   0.520   1.266   0.682 -1.3428  1.5980 -0.1488
 4434SOL     OW14200   5.005   6.476   4.303 -0.1310 -0.5089 -0.1004
 4434SOL    HW114201   4.917   6.501   4.343 -0.3173 -0.2900 -0.6300
 4434SOL    HW214202   4.992   6.453   4.206  0.3166 -0.9723 -0.0543
 4435SOL     OW14203   3.747   0.487   1.624  0.1647 -0.8843 -0.3431
 4435SOL    HW114204   3.770   0.582   1.602  2.6480 -0.7566  2.2266
 4435SOL    HW214205   3.701   0.482   1.712 -0.4961 -2.0332 -0.7303
 4436SOL     OW14206   3.348   6.250   5.746 -0.1664 -0.1719  0.7687
 4436SOL    HW114207   3.270   6.242   5.808  0.1155 -1.2951  1.0026
 4436SOL    HW214208   3.316   6.258   5.652 -0.5984 -2.9302  0.6034
 4437SOL     OW14209   4.948   1.993   0.400  0.3248 -0.4703  0.3020
 4437SOL    HW114210   4.973   2.057   0.328  1.8824 -3.1335 -1.7274
 4437SOL    HW214211   4.860   1.951   0.378 -0.0171 -0.0741  0.8816
 4438SOL     OW14212   0.781   6.984   5.005 -0.0428  0.0286  0.3583
 4438SOL    HW114213   0.789   6.912   4.936 -0.1251 -0.7482  1.1232
 4438SOL    HW214214   0.871   7.020   5.027 -0.0770  0.7224 -0.5889
 4439SOL     OW14215   0.527   2.780   2.064 -0.0422  0.1702  0.2750
 4439SOL    HW114216   0.493   2.827   1.982 -0.0505 -0.6183 -0.1842
 4439SOL    HW214217   0.525   2.842   2.142  2.0392  1.6754 -0.7554
 4440SOL     OW14218   4.173   0.145   6.234  0.2783 -0.2098 -0.5753
 4440SOL    HW114219   4.104   0.215   6.215  0.7830 -0.0373 -1.8866
 4440SOL    HW214220   4.130   0.055   6.238 -0.2767  0.0836  0.4529
 4441SOL     OW14221   0.195   4.776   1.019  0.1967 -0.3405  0.2069
 4441SOL    HW114222   0.135   4.696   1.014 -0.0455 -0.2162  1.0553
 4441SOL    HW214223   0.188   4.817   1.110  1.1390  0.0098  0.1258
 4442SOL     OW14224   4.580   2.651   2.463  0.7170 -0.2640 -0.6451
 4442SOL    HW114225   4.509   2.722   2.453  0.2835 -0.9097 -2.6250
 4442SOL    HW214226   4.641   2.654   2.384  1.7328 -1.0171  0.0880
 4443SOL     OW14227   0.141   2.172   0.240  0.1336  0.0056 -0.3029
 4443SOL    HW114228   0.124   2.250   0.300  0.8727 -0.1173  0.0704
 4443SOL    HW214229   0.238   2.169   0.216 -0.0003 -0.4539 -0.7967
 4444SOL     OW14230   6.867   2.184   4.778 -0.4653  0.1946 -0.0571
 4444SOL    HW114231   6.957   2.154   4.749 -0.3230  0.3464  0.2232
 4444SOL    HW214232   6.818   2.108   4.821 -0.3655  0.1856  0.0406
 4445SOL     OW14233   3.029   2.477   6.271  0.3186  0.1239  0.0785
 4445SOL    HW114234   3.017   2.574   6.291  1.2388  0.4004 -0.6362
 4445SOL    HW214235   3.126   2.456   6.265  0.1428 -1.0065  0.9541
 4446SOL     OW14236   5.782   1.834   1.813  0.0743 -0.3340 -0.1929
 4446SOL    HW114237   5.799   1.755   1.754 -0.6794  0.4770 -1.5237
 4446SOL    HW214238   5.696   1.821   1.862 -1.4561  0.7494 -2.4066
 4447SOL     OW14239   5.550   0.622   0.466  0.1760  0.4243  0.2565
 4447SOL    HW114240   5.509   0.531   0.464  0.3972  0.1359  3.6677
 4447SOL    HW214241   5.647   0.614   0.488  0.4659  1.4863 -0.5182
 4448SOL     OW14242   2.673   4.458   5.717 -0.4143  0.4567  0.0094
 4448SOL    HW114243   2.772   4.454   5.735 -0.9677 -1.1219  3.6679
 4448SOL    HW214244   2.636   4.541   5.757 -0.5744  1.2174 -1.6627
 4449SOL     OW14245   0.217   0.443   2.041 -0.3860 -0.5281 -0.1331
 4449SOL    HW114246   0.215   0.454   2.141  0.8928 -0.7370 -0.0595
 4449SOL    HW214247   0.140   0.491   2.000  0.3808  1.6244  0.7902
 4450SOL     OW14248   2.504   3.117   6.731 -0.1057 -0.0421  0.3774
 4450SOL    HW114249   2.560   3.153   6.806 -0.1761  1.6162 -0.3334
 4450SOL    HW214250   2.436   3.055   6.769 -0.7281  1.4434  1.8412
 4451SOL     OW14251   0.195   0.909   4.729  0.8422  0.2884  0.2004
 4451SOL    HW114252   0.102   0.874   4.738  0.3848  1.0272 -1.3095
 4451SOL    HW214253   0.243   0.899   4.816 -0.3805 -0.8346  0.7788
 4452SOL     OW14254   2.056   4.154   0.288  0.3440  0.1586  0.2274
 4452SOL    HW114255   2.070   4.104   0.203 -2.2890  0.6429 -0.5768
 4452SOL    HW214256   2.031   4.091   0.361  1.1173 -0.0968  0.2775
 4453SOL     OW14257   1.233   4.421   3.853  0.2480  0.0956 -0.4496
 4453SOL    HW114258   1.136   4.440   3.864  0.5613  1.3375  0.3538
 4453SOL    HW214259   1.258   4.430   3.756 -0.5416 -0.8786 -0.7600
 4454SOL     OW14260   4.765   2.051   3.737 -0.0911 -0.4662 -0.5038
 4454SOL    HW114261   4.791   2.138   3.780 -3.1174 -0.4397  1.6436
 4454SOL    HW214262   4.706   2.070   3.658  0.9725 -0.6000 -1.3545
 4455SOL     OW14263   0.981   1.409   1.126  0.4587  0.0653  0.1358
 4455SOL    HW114264   0.981   1.471   1.048  1.4401 -0.7081 -0.5089
 4455SOL    HW214265   1.001   1.316   1.095  0.6306 -0.3024  1.2817
 4456SOL     OW14266   6.585   4.516   5.016  0.1229 -0.1351  0.4776
 4456SOL    HW114267   6.524   4.492   5.092  0.2141 -1.0322  0.2807
 4456SOL    HW214268   6.676   4.478   5.032 -0.5359 -2.7664 -1.3166
 4457SOL     OW14269   4.018   0.419   4.370 -0.1060 -0.1167 -0.0050
 4457SOL    HW114270   4.087   0.363   4.325 -0.8721 -0.1007 -1.2607
 4457SOL    HW214271   4.038   0.426   4.467  0.4869 -1.8525  0.0251
 4458SOL     OW14272   0.801   6.758   3.208  0.0187 -0.4172 -0.0510
 4458SOL    HW114273   0.776   6.738   3.114 -0.2340 -3.0759  0.5053
 4458SOL    HW214274   0.739   6.827   3.245 -0.9852 -0.6100 -1.3126
 4459SOL     OW14275   0.312   5.539   6.929 -0.1931 -0.9326 -0.3370
 4459SOL    HW114276   0.327   5.538   6.830  1.2904  0.2739 -0.1529
 4459SOL    HW214277   0.280   5.630   6.957  0.5044 -0.9101  0.4311
 4460SOL     OW14278   2.418   3.219   0.599  0.0810  0.0257 -0.0839
 4460SOL    HW114279   2.494   3.258   0.548 -0.2759  1.3854  0.4011
 4460SOL    HW214280   2.452   3.160   0.672  0.6339 -0.1043 -0.4457
 4461SOL     OW14281   6.105   6.969   3.114 -0.1839  0.3824  0.5083
 4461SOL    HW114282   6.196   7.008   3.107 -1.1074  2.9352  1.4696
 4461SOL    HW214283   6.096   6.921   3.202  0.5597 -0.9934 -0.1286
 4462SOL     OW14284   1.962   5.187   1.200 -0.4234 -0.0269  0.9972
 4462SOL    HW114285   1.962   5.181   1.100  1.0368  1.5946  0.8537
 4462SOL    HW214286   2.030   5.124   1.237 -0.6512 -0.3025  0.9529
 4463SOL     OW14287   1.290   4.228   5.248  0.8214 -0.0306  0.0852
 4463SOL    HW114288   1.304   4.274   5.161  0.7147 -0.1761 -0.0096
 4463SOL    HW214289   1.299   4.129   5.235  1.4568 -0.0126  0.3633
 4464SOL     OW14290   6.673   6.902   2.551  0.3286  0.2721  0.0752
 4464SOL    HW114291   6.583   6.912   2.507 -0.2381 -0.2431  1.0968
 4464SOL    HW214292   6.722   6.825   2.510  1.0589  1.6157 -1.7043
 4465SOL     OW14293   5.601   3.164   5.866 -0.8871 -0.4838  0.0640
 4465SOL    HW114294   5.629   3.253   5.902  1.5631 -0.7244 -1.0550
 4465SOL    HW214295   5.617   3.161   5.767 -1.9635 -1.8039 -0.1019
 4466SOL     OW14296   2.351   5.986   6.476  0.5401 -0.1699  0.3477
 4466SOL    HW114297   2.292   5.907   6.458  1.1531  0.0087 -3.3192
 4466SOL    HW214298   2.315   6.066   6.428  0.8391  1.4403  2.6326
 4467SOL     OW14299   3.279   1.123   6.660 -0.0278 -0.6087 -0.5339
 4467SOL    HW114300   3.190   1.084   6.637 -1.8838  2.3539  0.9362
 4467SOL    HW214301   3.294   1.116   6.759  2.2902 -2.6031 -0.9312
 4468SOL     OW14302   6.908   2.987   6.912 -0.2299  0.0574 -0.1268
 4468SOL    HW114303   6.850   2.955   6.986  2.3758 -2.1828  1.1145
 4468SOL    HW214304   6.893   2.930   6.831  0.8138 -1.2080  0.5139
 4469SOL     OW14305   3.390   4.129   2.296 -0.4370  0.0115  0.7612
 4469SOL    HW114306   3.403   4.110   2.199 -1.0597  0.3250  0.6086
 4469SOL    HW214307   3.306   4.181   2.308  0.0518  0.6732  1.3900
 4470SOL     OW14308   4.801   6.528   3.906 -0.0921 -0.0668 -0.3802
 4470SOL    HW114309   4.812   6.429   3.906  1.4052  0.0831 -1.1461
 4470SOL    HW214310   4.741   6.554   3.982  0.0415 -1.4985  0.2529
 4471SOL     OW14311   1.919   5.727   5.422  0.0913  0.4982  0.3635
 4471SOL    HW114312   1.914   5.731   5.522  1.1915  2.7337  0.4018
 4471SOL    HW214313   1.837   5.769   5.384 -0.6088 -0.8875  0.2732
 4472SOL     OW14314   1.978   6.058   3.641 -0.2615  0.4460 -0.1150
 4472SOL    HW114315   1.969   6.151   3.605 -1.3401 -0.4815 -2.4724
 4472SOL    HW214316   2.041   6.006   3.583  0.1411 -0.3678  1.0282
 4473SOL     OW14317   2.089   0.484   1.822 -0.6681 -0.4810 -0.2281
 4473SOL    HW114318   2.156   0.555   1.844  0.2941 -1.6537  0.8081
 4473SOL    HW214319   2.049   0.502   1.732 -0.3158  1.2428 -0.0736
 4474SOL     OW14320   3.135   3.967   3.148  0.1837  0.1710  0.6942
 4474SOL    HW114321   3.181   3.957   3.060  1.1059 -1.0556  1.2705
 4474SOL    HW214322   3.188   4.028   3.207 -0.6263  1.2859  0.2907
 4475SOL     OW14323   6.083   2.282   6.632 -0.0850  0.4420  0.1533
 4475SOL    HW114324   6.130   2.234   6.558 -3.2766 -0.8923 -1.1831
 4475SOL    HW214325   6.042   2.216   6.694 -1.3270  1.4561  0.4660
 4476SOL     OW14326   6.640   5.568   2.314 -0.5567 -0.4022  0.6204
 4476SOL    HW114327   6.623   5.666   2.301 -2.1216 -0.3432  2.5420
 4476SOL    HW214328   6.729   5.556   2.358  0.0416  0.0675 -0.4187
 4477SOL     OW14329   6.454   1.629   0.530 -0.6481  0.1475 -0.1122
 4477SOL    HW114330   6.500   1.657   0.446 -0.1384  0.2869  0.2045
 4477SOL    HW214331   6.519   1.635   0.606 -1.3485  0.9251  0.4438
 4478SOL     OW14332   0.499   0.412   5.745 -1.1708  0.3972  0.2925
 4478SOL    HW114333   0.499   0.330   5.687 -2.1942 -0.4550  1.4219
 4478SOL    HW214334   0.427   0.474   5.714 -0.8763  0.5321 -0.1233
 4479SOL     OW14335   4.623   5.089   4.440  0.2018 -0.6433  0.2250
 4479SOL    HW114336   4.633   4.990   4.432 -1.9613 -0.8061 -1.8327
 4479SOL    HW214337   4.566   5.111   4.519 -0.3996 -1.1702 -0.0543
 4480SOL     OW14338   4.236   4.106   6.681 -0.1712  0.7243  0.2870
 4480SOL    HW114339   4.258   4.014   6.713 -0.0656  0.6296 -0.0610
 4480SOL    HW214340   4.174   4.150   6.747  0.2093  0.6068  0.7298
 4481SOL     OW14341   5.995   0.539   2.850  0.3624  0.1349  0.3788
 4481SOL    HW114342   6.063   0.578   2.788 -0.2726  1.9383  0.7767
 4481SOL    HW214343   5.934   0.479   2.799  0.7006  0.5049 -0.4732
 4482SOL     OW14344   0.557   0.368   1.698 -0.4680 -0.2239 -0.9805
 4482SOL    HW114345   0.538   0.326   1.787  1.4583  0.0282 -0.4225
 4482SOL    HW214346   0.487   0.437   1.679 -1.6817 -1.2177 -0.3137
 4483SOL     OW14347   0.157   4.754   4.957 -0.8407  0.2421  0.2797
 4483SOL    HW114348   0.115   4.666   4.934 -2.1699  0.9671 -0.1336
 4483SOL    HW214349   0.086   4.821   4.978  0.1845  0.9830  1.5325
 4484SOL     OW14350   4.841   3.007   2.330  0.0997  0.0619 -0.5211
 4484SOL    HW114351   4.790   3.026   2.246  0.8569 -0.9321 -1.2356
 4484SOL    HW214352   4.873   2.912   2.329 -1.5191 -0.5922  1.8131
 4485SOL     OW14353   0.813   2.647   5.485 -0.5176 -0.1451 -0.2973
 4485SOL    HW114354   0.840   2.739   5.516 -0.6280  0.0687 -0.8309
 4485SOL    HW214355   0.777   2.652   5.392  0.2271 -0.8496 -0.6350
 4486SOL     OW14356   0.405   1.647   3.265 -0.4945 -0.5608  0.5702
 4486SOL    HW114357   0.429   1.743   3.248  1.0514 -0.7370  1.5621
 4486SOL    HW214358   0.324   1.623   3.212 -0.3304  1.0186 -0.4583
 4487SOL     OW14359   5.636   3.289   4.715 -0.1714 -0.1356 -0.1189
 4487SOL    HW114360   5.728   3.252   4.728 -0.0721 -0.0642 -0.5897
 4487SOL    HW214361   5.636   3.387   4.738 -0.7352 -0.6577  2.4260
 4488SOL     OW14362   5.262   3.850   0.659  0.8114 -0.2909 -0.4917
 4488SOL    HW114363   5.203   3.808   0.590  1.7256  0.7152 -1.9644
 4488SOL    HW214364   5.228   3.941   0.682 -0.1471 -1.0708  1.3170
 4489SOL     OW14365   3.103   0.819   2.166  0.1016 -0.2630 -0.2651
 4489SOL    HW114366   3.079   0.874   2.086  0.1955  0.8185  0.4327
 4489SOL    HW214367   3.049   0.849   2.244  0.4055 -0.9472  0.2148
 4490SOL     OW14368   3.133   1.098   5.662  0.3000 -0.6862  0.0540
 4490SOL    HW114369   3.118   1.196   5.665  0.4524 -0.6594 -0.0522
 4490SOL    HW214370   3.195   1.076   5.587  1.9912 -0.6448  1.3831
 4491SOL     OW14371   2.103   1.975   1.454  0.3322  0.4030  0.7443
 4491SOL    HW114372   2.127   1.903   1.389  1.4633  0.8971  0.5844
 4491SOL    HW214373   2.008   1.966   1.481  0.6969 -1.7063  1.4552
 4492SOL     OW14374   6.045   6.895   3.396  0.2174 -0.2572 -0.0692
 4492SOL    HW114375   6.048   6.957   3.474 -2.7440  2.5124 -1.8821
 4492SOL    HW214376   5.976   6.824   3.412 -1.0596  0.8573 -0.4168
 4493SOL     OW14377   5.249   1.648   3.786 -0.4186 -0.3751 -0.6923
 4493SOL    HW114378   5.232   1.746   3.770 -1.2000 -0.2831  0.5511
 4493SOL    HW214379   5.339   1.636   3.827 -0.7059 -0.0676  0.0468
 4494SOL     OW14380   0.277   1.852   6.494 -0.1279  1.2135 -0.0996
 4494SOL    HW114381   0.230   1.816   6.574  1.1909 -0.7190 -0.1308
 4494SOL    HW214382   0.361   1.899   6.523  0.6261  0.0549 -0.3403
 4495SOL     OW14383   3.089   1.369   5.622  0.0176  0.1616  0.5407
 4495SOL    HW114384   3.099   1.382   5.721 -0.2606  0.7580  0.4942
 4495SOL    HW214385   2.996   1.339   5.602 -0.0045  0.2998  0.4358
 4496SOL     OW14386   4.295   6.119   4.543 -0.3577 -0.2365 -0.6899
 4496SOL    HW114387   4.341   6.064   4.472 -1.1960 -2.5212  0.4343
 4496SOL    HW214388   4.213   6.160   4.505  0.3516  0.3976 -1.5958
 4497SOL     OW14389   2.887   5.074   2.188 -0.0371 -0.2498 -0.2701
 4497SOL    HW114390   2.920   4.982   2.205  0.4232 -0.1264 -0.4830
 4497SOL    HW214391   2.839   5.077   2.100  0.1531 -0.2366 -0.3745
 4498SOL     OW14392   5.197   1.806   5.008 -0.3713  0.6352 -0.4906
 4498SOL    HW114393   5.209   1.865   4.928  0.5853  0.9837 -0.1017
 4498SOL    HW214394   5.263   1.831   5.078  1.1512 -1.9327 -0.9085
 4499SOL     OW14395   0.424   0.509   1.301 -0.3154  0.4315  0.3620
 4499SOL    HW114396   0.399   0.553   1.388 -0.7394 -0.3633  0.6479
 4499SOL    HW214397   0.341   0.484   1.251 -0.1256 -1.4974  0.9433
 4500SOL     OW14398   2.730   1.644   6.391 -0.0587  0.5762  0.1605
 4500SOL    HW114399   2.698   1.739   6.389  1.2987  1.0789  0.8553
 4500SOL    HW214400   2.805   1.633   6.326 -0.5969 -0.1857 -0.3473
 4501SOL     OW14401   0.404   4.988   1.721 -0.3041  0.0730 -0.3530
 4501SOL    HW114402   0.332   4.962   1.786  1.3854  0.6881  1.8849
 4501SOL    HW214403   0.435   4.906   1.671 -2.2039 -0.2670 -1.0570
 4502SOL     OW14404   0.076   4.885   2.240  0.0710 -0.0088 -0.1434
 4502SOL    HW114405   0.137   4.940   2.297  0.0055 -1.1238  1.0345
 4502SOL    HW214406  -0.019   4.902   2.267 -0.1206  1.0462 -1.3716
 4503SOL     OW14407   4.535   4.767   1.083  0.0856  0.4337  0.1984
 4503SOL    HW114408   4.490   4.819   1.011  0.3993  1.3891  0.6734
 4503SOL    HW214409   4.612   4.716   1.045  0.1712  0.8331 -0.1668
 4504SOL     OW14410   0.618   4.190   6.803  0.6336  0.4083  0.2584
 4504SOL    HW114411   0.630   4.253   6.880 -1.5778  0.7046  0.4139
 4504SOL    HW214412   0.583   4.241   6.724  0.8027 -0.2838 -0.2735
 4505SOL     OW14413   3.109   0.616   1.194 -0.1195 -0.1217 -0.2952
 4505SOL    HW114414   3.208   0.611   1.195  0.0776  2.2244 -1.1711
 4505SOL    HW214415   3.079   0.685   1.260 -1.1000 -0.2039 -0.6350
 4506SOL     OW14416   3.695   6.546   2.842  0.0283  0.0455 -0.1271
 4506SOL    HW114417   3.702   6.446   2.844 -0.4755 -0.0638 -1.9647
 4506SOL    HW214418   3.600   6.572   2.824 -0.1454  0.9149  1.8364
 4507SOL     OW14419   1.266   4.277   4.244 -0.2360 -0.4442 -0.1300
 4507SOL    HW114420   1.228   4.204   4.187  0.4255 -0.9253  0.0341
 4507SOL    HW214421   1.302   4.237   4.328  0.3746  0.0357 -0.1629
 4508SOL     OW14422   1.644   3.944   2.875 -0.2874  0.1640  0.2982
 4508SOL    HW114423   1.675   3.917   2.783 -0.2053  0.9428  0.0871
 4508SOL    HW214424   1.708   3.909   2.943  0.2585  0.5016 -0.0306
 4509SOL     OW14425   5.118   3.624   1.920  1.1115  0.4281  0.1040
 4509SOL    HW114426   5.137   3.656   1.827 -3.3852 -0.8394 -1.5175
 4509SOL    HW214427   5.080   3.699   1.974  3.2645  1.0364  0.8682
 4510SOL     OW14428   0.811   4.137   2.631 -0.1772 -0.2174 -0.0128
 4510SOL    HW114429   0.895   4.121   2.578 -0.7471 -1.5320 -0.5725
 4510SOL    HW214430   0.734   4.094   2.584 -0.9872  0.0465  1.0452
 4511SOL     OW14431   3.611   0.627   3.557  0.0070  0.3736  0.1530
 4511SOL    HW114432   3.696   0.644   3.508  0.2275  0.6978  0.6411
 4511SOL    HW214433   3.566   0.714   3.577 -1.8622  0.1548 -2.5334
 4512SOL     OW14434   5.051   2.427   3.667 -0.1786  0.0950  0.5051
 4512SOL    HW114435   5.101   2.368   3.731 -0.0537  0.0075  0.3278
 4512SOL    HW214436   5.043   2.381   3.579 -2.4935 -0.8662  1.1274
 4513SOL     OW14437   6.604   1.428   6.590 -0.0986 -0.3745  0.8726
 4513SOL    HW114438   6.625   1.462   6.682  0.8725 -0.9854  0.8984
 4513SOL    HW214439   6.680   1.370   6.558 -0.2193  0.1855 -0.4948
 4514SOL     OW14440   3.390   0.195   0.209 -0.3909 -0.2438 -0.3338
 4514SOL    HW114441   3.468   0.157   0.160 -0.8284 -0.7502 -0.6539
 4514SOL    HW214442   3.307   0.179   0.155 -0.7681 -0.0864  0.1989
 4515SOL     OW14443   4.547   5.660   2.353  0.2476 -0.8870  0.5846
 4515SOL    HW114444   4.483   5.654   2.276  2.5031  1.6252 -1.6784
 4515SOL    HW214445   4.615   5.588   2.346  1.1839  0.0860 -0.5529
 4516SOL     OW14446   6.683   5.821   4.699 -0.0814  0.3035  0.0623
 4516SOL    HW114447   6.644   5.733   4.722 -0.8564 -0.0411 -2.3230
 4516SOL    HW214448   6.711   5.821   4.603 -0.6788  2.8446 -0.1790
 4517SOL     OW14449   5.948   6.130   5.169 -0.6678 -0.0662  0.1879
 4517SOL    HW114450   5.878   6.156   5.102 -2.2005 -2.7937  0.6060
 4517SOL    HW214451   5.938   6.034   5.192  3.7899 -0.8915 -0.3592
 4518SOL     OW14452   6.560   0.656   1.170 -0.1674  0.0827  0.0588
 4518SOL    HW114453   6.495   0.730   1.154 -0.0392 -0.1317 -1.6595
 4518SOL    HW214454   6.513   0.568   1.163 -0.1854 -0.0320  1.4212
 4519SOL     OW14455   5.465   0.323   3.088 -0.1611  0.3091 -0.2320
 4519SOL    HW114456   5.446   0.261   3.012  1.6194 -0.0019 -0.4622
 4519SOL    HW214457   5.563   0.324   3.106 -0.2670  2.3176  0.4226
 4520SOL     OW14458   3.677   3.196   2.309  0.2413  0.1922  0.1161
 4520SOL    HW114459   3.620   3.156   2.380  0.6408  0.8599  0.8336
 4520SOL    HW214460   3.726   3.124   2.260 -1.7535 -0.4618 -1.0245
 4521SOL     OW14461   1.457   0.492   6.308  0.2021 -0.3811 -0.0233
 4521SOL    HW114462   1.406   0.565   6.263 -0.5599 -1.1652 -0.4602
 4521SOL    HW214463   1.499   0.527   6.391 -0.6167  0.4183  0.0662
 4522SOL     OW14464   5.810   1.959   5.522  0.5523 -0.3986  0.0522
 4522SOL    HW114465   5.860   2.019   5.584  0.2246  1.7300 -1.6044
 4522SOL    HW214466   5.874   1.919   5.456  0.9676 -2.9950  1.8977
 4523SOL     OW14467   1.751   1.980   3.818  0.2204 -0.2157  0.0042
 4523SOL    HW114468   1.702   2.027   3.892 -1.4232 -0.1090 -1.0846
 4523SOL    HW214469   1.748   1.882   3.833  0.3673 -0.1666  0.3619
 4524SOL     OW14470   3.089   4.868   6.002 -0.2943  0.1653  0.0541
 4524SOL    HW114471   3.186   4.841   6.001 -0.1234  0.6983  0.9215
 4524SOL    HW214472   3.036   4.804   5.947  0.6479  0.2542 -1.0025
 4525SOL     OW14473   4.056   3.180   2.140  0.4294 -0.1544  0.1820
 4525SOL    HW114474   4.149   3.142   2.139  0.0299 -1.2750  1.7637
 4525SOL    HW214475   4.042   3.230   2.225 -0.4837 -0.1593  0.0393
 4526SOL     OW14476   2.290   0.286   6.693  0.2913  0.4594  0.3593
 4526SOL    HW114477   2.320   0.255   6.603 -0.2824 -2.1467  1.0102
 4526SOL    HW214478   2.197   0.321   6.688  0.6511  1.3585 -0.2347
 4527SOL     OW14479   1.026   6.694   0.764 -0.4161  0.4623  0.2178
 4527SOL    HW114480   1.016   6.783   0.719 -2.1940  0.3963  0.4189
 4527SOL    HW214481   1.005   6.621   0.699 -0.2532  0.2370  0.4159
 4528SOL     OW14482   3.225   3.011   6.309 -0.6135  0.2061  0.0051
 4528SOL    HW114483   3.247   3.096   6.355  2.1809  0.0481 -0.8914
 4528SOL    HW214484   3.211   3.028   6.211 -1.7718 -0.1556  0.0833
 4529SOL     OW14485   3.726   3.023   5.514  0.1329  0.2918 -0.3409
 4529SOL    HW114486   3.794   2.956   5.545  0.3207  1.0236  0.8716
 4529SOL    HW214487   3.751   3.054   5.422 -0.3839 -1.8421 -1.2751
 4530SOL     OW14488   1.253   5.897   4.305  0.1282  0.0072  0.2269
 4530SOL    HW114489   1.238   5.951   4.388 -1.2839 -0.7907  0.5262
 4530SOL    HW214490   1.271   5.958   4.228  1.1256  0.7743  1.0433
 4531SOL     OW14491   6.954   0.568   2.498  0.1607 -0.1476  0.3258
 4531SOL    HW114492   6.967   0.542   2.402  0.3713  0.3026  0.2281
 4531SOL    HW214493   6.858   0.591   2.514 -0.1943 -1.7632  0.6136
 4532SOL     OW14494   6.799   6.733   4.836  0.1442  0.3862  0.6011
 4532SOL    HW114495   6.813   6.692   4.926 -1.3551 -2.4552 -0.3585
 4532SOL    HW214496   6.740   6.813   4.845 -0.5163 -0.2378  2.0949
 4533SOL     OW14497   0.363   2.704   0.645  0.2488  0.0323  0.1843
 4533SOL    HW114498   0.305   2.739   0.572  1.0427  0.7915 -0.1161
 4533SOL    HW214499   0.385   2.608   0.629 -0.5752 -0.1412  0.0856
 4534SOL     OW14500   1.719   5.994   3.267  0.5066 -0.1796 -0.1986
 4534SOL    HW114501   1.802   5.941   3.280 -0.4187 -1.4070  0.9673
 4534SOL    HW214502   1.738   6.091   3.285  1.4579 -0.5742  1.0656
 4535SOL     OW14503   4.023   3.236   1.116  0.2332  0.5055  1.1224
 4535SOL    HW114504   3.972   3.295   1.178 -0.0556  0.3901  0.9952
 4535SOL    HW214505   3.967   3.157   1.091  0.5527  0.2676  1.1523
 4536SOL     OW14506   4.255   0.582   4.924  0.1531  0.1141 -0.1977
 4536SOL    HW114507   4.181   0.540   4.975  0.6559 -0.1469  0.3290
 4536SOL    HW214508   4.226   0.672   4.892 -0.5911 -0.2290 -0.5060
 4537SOL     OW14509   3.114   3.972   3.819 -0.1671  0.0574  0.0860
 4537SOL    HW114510   3.100   3.873   3.813  1.9012 -0.2216 -1.0282
 4537SOL    HW214511   3.099   4.014   3.730  3.1215  0.0547 -0.5904
 4538SOL     OW14512   6.160   6.687   0.633 -0.0383  0.4174  0.3185
 4538SOL    HW114513   6.244   6.721   0.674 -0.1410 -0.1801  1.0503
 4538SOL    HW214514   6.136   6.743   0.554  1.2782  0.3209 -0.1712
 4539SOL     OW14515   6.653   4.994   0.320  0.6669  0.0757  0.4291
 4539SOL    HW114516   6.580   5.053   0.353  1.6355  1.4633  0.1643
 4539SOL    HW214517   6.699   4.950   0.397 -0.1801 -0.5153  0.6129
 4540SOL     OW14518   1.138   3.785   1.234  0.1051  0.4564 -0.2572
 4540SOL    HW114519   1.058   3.724   1.230  0.6598 -0.2632 -0.6100
 4540SOL    HW214520   1.177   3.794   1.142  0.1527  1.1958 -0.1740
 4541SOL     OW14521   4.175   2.201   3.438 -0.2882 -0.2594 -0.7350
 4541SOL    HW114522   4.167   2.216   3.536  2.8167  0.2631 -0.4626
 4541SOL    HW214523   4.096   2.148   3.405 -0.3945 -2.2757  2.3975
 4542SOL     OW14524   3.869   3.453   6.275 -0.4078 -0.4835  0.0644
 4542SOL    HW114525   3.803   3.406   6.218 -0.4546 -1.0847  0.6026
 4542SOL    HW214526   3.825   3.481   6.361 -0.2344  0.0354 -0.0129
 4543SOL     OW14527   0.466   0.127   0.070  0.3141  0.0431  0.2456
 4543SOL    HW114528   0.491   0.136   0.166 -1.5543 -4.2665  1.4111
 4543SOL    HW214529   0.368   0.144   0.060  0.5322  0.6534 -0.9830
 4544SOL     OW14530   3.257   4.101   1.085 -0.3510 -0.4009 -0.6989
 4544SOL    HW114531   3.174   4.150   1.110  0.0780 -0.1648  0.2937
 4544SOL    HW214532   3.260   4.013   1.132  0.1512 -0.2344 -0.4062
 4545SOL     OW14533   2.298   5.257   5.238  0.2841  0.3317 -0.6180
 4545SOL    HW114534   2.376   5.267   5.300 -1.1824 -0.2910  1.4471
 4545SOL    HW214535   2.314   5.179   5.177  0.4188 -1.2285  1.2819
 4546SOL     OW14536   6.820   4.641   5.497 -0.2052 -0.4182  0.6391
 4546SOL    HW114537   6.796   4.580   5.572 -0.6342 -0.0975  0.7649
 4546SOL    HW214538   6.863   4.724   5.534  0.6034 -0.7408  0.4541
 4547SOL     OW14539   2.455   1.993   2.631 -0.2433 -0.3455  0.1121
 4547SOL    HW114540   2.370   1.980   2.682 -0.6832 -1.5579 -0.8738
 4547SOL    HW214541   2.461   1.924   2.559  0.3358  1.3197 -1.5073
 4548SOL     OW14542   6.873   5.974   3.784  0.0598  0.2693 -0.6502
 4548SOL    HW114543   6.921   6.007   3.865 -0.0844 -2.4088  0.6036
 4548SOL    HW214544   6.777   5.999   3.790  0.1229  0.4185 -0.1979
 4549SOL     OW14545   1.358   4.522   6.007 -0.1381 -0.3237 -0.0839
 4549SOL    HW114546   1.451   4.532   5.974  0.3708 -0.7996  1.1337
 4549SOL    HW214547   1.302   4.478   5.937  0.8650 -1.2197 -0.3576
 4550SOL     OW14548   1.492   3.802   3.593 -0.1627 -0.3240  0.4844
 4550SOL    HW114549   1.466   3.707   3.611 -0.9764 -0.2860 -0.4089
 4550SOL    HW214550   1.424   3.863   3.634  1.0550 -0.0464  2.2243
 4551SOL     OW14551   4.776   4.202   3.026  0.0239  0.1663  0.1222
 4551SOL    HW114552   4.766   4.150   2.941 -2.5781 -1.8212  1.4880
 4551SOL    HW214553   4.870   4.195   3.058  0.3655 -1.5541 -1.1032
 4552SOL     OW14554   2.115   2.949   2.906 -0.0082  0.0411  0.1788
 4552SOL    HW114555   2.049   2.998   2.849 -1.7989 -0.4065  1.7628
 4552SOL    HW214556   2.183   2.905   2.847 -1.6267 -0.2198 -1.6289
 4553SOL     OW14557   5.167   0.332   6.830 -0.7664  0.0103  1.0736
 4553SOL    HW114558   5.147   0.424   6.864 -2.1040 -0.2437  1.0543
 4553SOL    HW214559   5.082   0.277   6.831 -0.1309 -1.0191  0.4763
 4554SOL     OW14560   2.244   3.988   2.453  0.2261 -0.1543  0.2595
 4554SOL    HW114561   2.302   3.954   2.379  1.3364 -0.4810  1.2349
 4554SOL    HW214562   2.200   4.073   2.425  1.1126  0.0633 -0.5481
 4555SOL     OW14563   2.874   5.853   5.722 -0.2864 -0.1907  0.5785
 4555SOL    HW114564   2.848   5.945   5.691  1.3948  1.2871  3.1157
 4555SOL    HW214565   2.895   5.795   5.644 -3.0791  0.9830 -1.1909
 4556SOL     OW14566   0.170   3.592   1.193 -0.1658  0.6537 -0.3656
 4556SOL    HW114567   0.261   3.623   1.221  0.4379 -2.0094  0.9557
 4556SOL    HW214568   0.178   3.516   1.128 -1.3592 -0.4408  0.6939
 4557SOL     OW14569   5.617   4.974   6.760  0.5025  0.2605 -0.5205
 4557SOL    HW114570   5.602   5.073   6.757 -2.1014  0.4033  4.6794
 4557SOL    HW214571   5.546   4.928   6.706 -1.1094  1.3022  0.6210
 4558SOL     OW14572   2.849   1.391   1.278 -0.4927 -0.2415 -0.0780
 4558SOL    HW114573   2.935   1.432   1.305 -2.0530  1.8151  2.0791
 4558SOL    HW214574   2.844   1.297   1.313  0.4763 -0.0553  0.5843
 4559SOL     OW14575   1.083   3.923   4.421 -0.1930  0.1433 -0.1927
 4559SOL    HW114576   1.069   3.976   4.505  0.8242 -1.3453  0.9511
 4559SOL    HW214577   1.048   3.976   4.343 -3.9082  0.3858  1.4073
 4560SOL     OW14578   1.797   3.463   2.087 -0.3475  0.2197  0.2601
 4560SOL    HW114579   1.820   3.531   2.017  2.8282 -0.9376  0.0423
 4560SOL    HW214580   1.875   3.450   2.148 -1.0103 -2.9063  0.5783
 4561SOL     OW14581   1.283   2.677   1.346  0.6268 -0.4322 -0.5147
 4561SOL    HW114582   1.250   2.728   1.425  1.1648  0.1324 -0.6499
 4561SOL    HW214583   1.212   2.675   1.275  1.0128  1.1612 -0.9852
 4562SOL     OW14584   2.307   6.707   1.821  0.2321  0.6759 -0.2636
 4562SOL    HW114585   2.236   6.637   1.821 -0.4177  1.3188 -0.7183
 4562SOL    HW214586   2.265   6.798   1.828  1.0092  1.0672 -0.5074
 4563SOL     OW14587   6.966   0.966   1.439  0.2805 -0.0549 -0.4380
 4563SOL    HW114588   6.991   0.901   1.511 -1.2286 -1.0574 -0.7792
 4563SOL    HW214589   7.016   0.944   1.355 -0.4633 -1.0051 -0.6475
 4564SOL     OW14590   0.072   6.716   0.712 -0.0387 -0.2148 -0.2269
 4564SOL    HW114591   0.027   6.680   0.630 -0.0598 -2.1294  0.5818
 4564SOL    HW214592   0.018   6.691   0.792  1.0491 -0.1395  0.5354
 4565SOL     OW14593   2.622   5.705   1.364  0.2371 -0.0512 -0.3059
 4565SOL    HW114594   2.539   5.724   1.312 -0.6175  0.3386  1.1541
 4565SOL    HW214595   2.679   5.787   1.367 -0.1725  0.2164  0.1886
 4566SOL     OW14596   2.874   2.702   0.738 -0.9278  0.1707 -0.6013
 4566SOL    HW114597   2.836   2.615   0.770 -1.3476  1.3803  2.5411
 4566SOL    HW214598   2.884   2.764   0.815  0.2046  2.6478 -2.6023
 4567SOL     OW14599   0.490   2.404   6.426 -0.2003 -0.1829 -0.9031
 4567SOL    HW114600   0.541   2.348   6.491  0.9496 -1.8893 -3.1178
 4567SOL    HW214601   0.416   2.452   6.473 -1.7422 -4.1176  1.0936
 4568SOL     OW14602   6.603   3.360   6.304  0.7918  0.0412  0.1094
 4568SOL    HW114603   6.504   3.372   6.314  0.7877  3.4832 -2.2223
 4568SOL    HW214604   6.650   3.404   6.381  0.6173 -2.2521  1.6223
 4569SOL     OW14605   3.743   6.377   5.579 -0.1563  0.4318  0.4282
 4569SOL    HW114606   3.796   6.382   5.664  0.6842  0.9900 -0.1099
 4569SOL    HW214607   3.726   6.470   5.545  1.7905  0.2278 -1.3617
 4570SOL     OW14608   0.373   4.793   5.168  0.6066  0.5050 -0.4320
 4570SOL    HW114609   0.401   4.873   5.115 -0.5072 -0.1832 -2.1256
 4570SOL    HW214610   0.307   4.739   5.116 -0.6662 -0.1438  1.7208
 4571SOL     OW14611   3.792   2.970   4.720 -0.4379  0.1439 -0.2369
 4571SOL    HW114612   3.864   2.974   4.651 -0.9789  2.9257 -0.7662
 4571SOL    HW214613   3.708   2.936   4.678  0.3380 -2.6311  0.2663
 4572SOL     OW14614   1.101   3.462   3.932 -0.6194  0.8285  0.4586
 4572SOL    HW114615   1.049   3.539   3.970 -3.2596  0.3207 -1.8046
 4572SOL    HW214616   1.113   3.392   4.002 -3.0366  0.9805  1.0967
 4573SOL     OW14617   5.198   3.792   1.358 -0.0023  0.0914 -0.3625
 4573SOL    HW114618   5.243   3.797   1.270 -0.0334  1.0740 -0.3340
 4573SOL    HW214619   5.267   3.789   1.431  0.0746 -2.4281 -0.4394
 4574SOL     OW14620   5.412   4.551   4.313  0.4868  0.0229 -0.4669
 4574SOL    HW114621   5.368   4.553   4.402  1.8525 -1.3241  0.2925
 4574SOL    HW214622   5.349   4.585   4.243 -0.4263  1.6518  1.0535
 4575SOL     OW14623   0.194   4.232   4.728 -0.3012 -0.2243  0.2788
 4575SOL    HW114624   0.269   4.294   4.751  0.9800 -0.4502 -2.7957
 4575SOL    HW214625   0.211   4.143   4.770  0.7485 -0.0374  0.2767
 4576SOL     OW14626   2.064   1.570   6.566  0.2725  0.0368  0.2565
 4576SOL    HW114627   2.057   1.615   6.477 -0.1035 -0.8528 -0.1694
 4576SOL    HW214628   1.979   1.520   6.585  0.3087  0.2919  1.1605
 4577SOL     OW14629   0.312   6.025   3.863  0.1201  0.2348 -0.1120
 4577SOL    HW114630   0.314   5.926   3.872 -1.5071  0.1557 -0.3915
 4577SOL    HW214631   0.262   6.065   3.940 -0.4790  0.7146 -0.7357
 4578SOL     OW14632   6.503   5.252   3.567 -0.6012 -0.2891 -0.0205
 4578SOL    HW114633   6.597   5.218   3.559 -0.5839 -0.4124  0.6466
 4578SOL    HW214634   6.448   5.185   3.617 -1.0829 -0.2802 -0.5204
 4579SOL     OW14635   4.536   6.506   0.613 -0.5746 -0.4346  0.2784
 4579SOL    HW114636   4.550   6.556   0.527 -1.4325  2.2091  1.5507
 4579SOL    HW214637   4.440   6.477   0.619  0.0219 -2.7981 -0.6599
 4580SOL     OW14638   2.497   4.885   1.564  0.0728  0.3124  0.1075
 4580SOL    HW114639   2.444   4.922   1.641 -1.4941  1.1829 -1.3325
 4580SOL    HW214640   2.548   4.959   1.520 -0.3194  0.1383 -0.6625
 4581SOL     OW14641   1.182   1.359   3.338  0.6273  0.3384  0.1063
 4581SOL    HW114642   1.163   1.274   3.388 -0.9896  0.7163  0.1781
 4581SOL    HW214643   1.278   1.360   3.310  1.2122 -0.5577  1.9120
 4582SOL     OW14644   6.361   3.658   4.049  0.1470 -0.2682 -0.6429
 4582SOL    HW114645   6.346   3.677   3.952  1.6487  0.3765 -0.7752
 4582SOL    HW214646   6.414   3.732   4.090 -0.9199 -0.2729  0.8140
 4583SOL     OW14647   4.290   3.808   1.523 -0.7017  0.3169  0.6541
 4583SOL    HW114648   4.194   3.799   1.498 -0.3209  1.4632 -1.5393
 4583SOL    HW214649   4.346   3.808   1.440  1.4298 -2.1846  1.9450
 4584SOL     OW14650   3.019   0.358   1.461  0.0550  0.0887  0.1922
 4584SOL    HW114651   2.998   0.261   1.454  0.7434 -0.0018 -0.7935
 4584SOL    HW214652   3.018   0.386   1.557 -0.6692 -0.7653  0.4423
 4585SOL     OW14653   1.014   5.158   2.072 -0.2731  0.2256 -0.4363
 4585SOL    HW114654   1.064   5.178   2.156  1.2873  0.5040 -1.3822
 4585SOL    HW214655   1.069   5.098   2.014 -1.2806  0.1005 -1.2907
 4586SOL     OW14656   4.417   5.174   6.484  0.8446  0.1677 -0.4407
 4586SOL    HW114657   4.354   5.151   6.409 -0.5002 -0.3865  0.8152
 4586SOL    HW214658   4.463   5.091   6.515 -0.4214 -0.0664  0.9182
 4587SOL     OW14659   2.172   6.924   5.859 -0.3892  0.4231 -0.5527
 4587SOL    HW114660   2.176   7.023   5.849 -0.6902  0.6115  0.8976
 4587SOL    HW214661   2.162   6.901   5.956 -1.3463 -0.9914 -0.9568
 4588SOL     OW14662   0.940   2.634   0.945  0.8780  0.2097 -0.4552
 4588SOL    HW114663   0.883   2.699   0.895 -0.7358  0.2805  1.3491
 4588SOL    HW214664   0.932   2.544   0.902 -0.4854  0.2604 -0.3614
 4589SOL     OW14665   3.638   4.861   2.227 -0.0425 -0.3487  0.2536
 4589SOL    HW114666   3.605   4.820   2.141  0.5008 -1.3116  0.4855
 4589SOL    HW214667   3.586   4.823   2.303 -0.1181  0.0541  0.4033
 4590SOL     OW14668   0.750   4.060   3.279 -0.5273 -0.1461  0.2903
 4590SOL    HW114669   0.704   3.971   3.283 -1.2908  0.2505  0.4799
 4590SOL    HW214670   0.765   4.093   3.372 -0.6113  0.1074  0.2145
 4591SOL     OW14671   6.486   5.721   4.271  0.0088 -0.2707  0.0889
 4591SOL    HW114672   6.445   5.703   4.182 -1.1363 -0.0744  0.5551
 4591SOL    HW214673   6.415   5.718   4.342  0.5261  1.6920  0.7450
 4592SOL     OW14674   3.472   3.101   1.633 -0.1846  0.2277 -0.6004
 4592SOL    HW114675   3.496   3.189   1.592  1.1531  0.7577  1.2050
 4592SOL    HW214676   3.528   3.029   1.591  0.1618  0.5441 -0.6906
 4593SOL     OW14677   1.275   5.779   1.663 -0.3455  0.3033 -0.4507
 4593SOL    HW114678   1.277   5.790   1.763  0.5235 -0.3991 -0.3803
 4593SOL    HW214679   1.368   5.768   1.629 -0.7096 -0.5795 -1.2011
 4594SOL     OW14680   6.271   2.557   2.011  0.8288  0.1929  0.1295
 4594SOL    HW114681   6.289   2.483   2.076  1.0154  0.1119 -0.0137
 4594SOL    HW214682   6.353   2.612   1.999  0.6702  0.4646  0.2846
 4595SOL     OW14683   2.537   6.979   3.381  0.4914  0.1715  0.4381
 4595SOL    HW114684   2.515   7.068   3.341  2.3906  0.8239  0.7435
 4595SOL    HW214685   2.567   6.991   3.476  0.6533 -0.8056  0.5219
 4596SOL     OW14686   3.961   1.817   2.150 -0.6768  0.1284  0.0942
 4596SOL    HW114687   3.934   1.757   2.225 -1.5296 -0.1122 -0.3803
 4596SOL    HW214688   3.934   1.911   2.170 -0.5666  0.1251  0.2533
 4597SOL     OW14689   1.830   3.438   2.564  0.2754 -0.1996 -0.1188
 4597SOL    HW114690   1.925   3.457   2.539  0.5630  0.6065  1.4590
 4597SOL    HW214691   1.803   3.497   2.640 -2.0964  0.9411 -1.7145
 4598SOL     OW14692   4.620   6.120   3.726  0.0846 -0.4976  0.0294
 4598SOL    HW114693   4.637   6.219   3.727  0.9248 -0.6251  1.1888
 4598SOL    HW214694   4.633   6.083   3.818 -2.1129 -1.4027  0.0354
 4599SOL     OW14695   5.626   1.786   2.752 -0.5461 -0.3644 -0.7814
 4599SOL    HW114696   5.686   1.729   2.696 -0.3568  0.2126 -1.1752
 4599SOL    HW214697   5.540   1.802   2.704 -1.8072 -2.6480  0.4891
 4600SOL     OW14698   0.156   1.446   4.471  0.0543 -0.4228 -0.4369
 4600SOL    HW114699   0.214   1.453   4.390 -0.7513 -0.4061 -1.0207
 4600SOL    HW214700   0.083   1.514   4.466 -0.3817 -0.8499 -0.0089
 4601SOL     OW14701   5.910   5.540   1.508  0.1479 -0.0203 -0.4846
 4601SOL    HW114702   5.928   5.605   1.433 -0.1462 -0.1260 -0.6484
 4601SOL    HW214703   5.845   5.581   1.572 -1.2652 -0.7340 -1.4021
 4602SOL     OW14704   5.402   4.457   2.857 -0.0124  0.0910  0.1691
 4602SOL    HW114705   5.445   4.489   2.941 -1.0985 -0.4401  0.9477
 4602SOL    HW214706   5.414   4.525   2.785  2.3268 -0.1400  0.2759
 4603SOL     OW14707   3.199   6.442   2.841 -0.3655  0.0684  0.0139
 4603SOL    HW114708   3.153   6.355   2.855  0.4698 -0.4351 -0.3029
 4603SOL    HW214709   3.141   6.516   2.875 -1.0608 -0.6079  0.3329
 4604SOL     OW14710   3.382   0.221   3.002  0.7707  0.1911  0.0243
 4604SOL    HW114711   3.381   0.235   2.903 -0.2217  0.3754  0.0481
 4604SOL    HW214712   3.325   0.142   3.025 -2.1534  2.2950  0.7000
 4605SOL     OW14713   1.178   5.714   5.875 -0.1074 -0.2472  0.4284
 4605SOL    HW114714   1.179   5.616   5.895 -1.3940 -0.0854  1.4418
 4605SOL    HW214715   1.095   5.755   5.913  0.0105  1.1037 -0.6873
 4606SOL     OW14716   6.556   5.350   4.823 -0.0080  0.5362  0.0805
 4606SOL    HW114717   6.569   5.252   4.811  0.3444  0.6955 -0.9671
 4606SOL    HW214718   6.518   5.368   4.914 -1.0472 -0.6454 -0.0910
 4607SOL     OW14719   6.007   3.004   6.521  0.3715  0.0110  0.2810
 4607SOL    HW114720   5.968   2.917   6.549 -1.3900  0.2923 -1.1115
 4607SOL    HW214721   5.943   3.052   6.461  2.1208  1.3590 -0.6267
 4608SOL     OW14722   1.072   2.452   1.841  0.3033  0.0697 -0.6876
 4608SOL    HW114723   1.144   2.492   1.784  0.1472 -0.8932 -1.5739
 4608SOL    HW214724   1.018   2.388   1.787 -0.1202 -0.5375  0.4292
 4609SOL     OW14725   1.092   5.784   5.268 -0.3181 -0.6678  0.0607
 4609SOL    HW114726   1.102   5.869   5.217  0.5495 -0.6667  0.2150
 4609SOL    HW214727   1.112   5.706   5.209  0.5725 -0.6717  0.3439
 4610SOL     OW14728   3.283   2.966   0.106  0.6759 -0.3918 -0.3112
 4610SOL    HW114729   3.219   3.040   0.124  3.2237  1.5228  1.5550
 4610SOL    HW214730   3.256   2.919   0.022 -1.4273  2.1959 -1.2352
 4611SOL     OW14731   5.525   1.029   0.608  0.1139  0.4662 -0.1784
 4611SOL    HW114732   5.490   1.086   0.683  0.3852 -0.6272  0.7992
 4611SOL    HW214733   5.496   0.935   0.622 -0.9169  0.4519 -2.1620
 4612SOL     OW14734   2.246   5.683   5.746 -0.3159 -0.1622 -0.0149
 4612SOL    HW114735   2.317   5.753   5.751  0.7442 -1.2307  0.4072
 4612SOL    HW214736   2.243   5.645   5.653 -0.7200  0.2470 -0.1763
 4613SOL     OW14737   2.454   1.244   5.977  0.0584 -0.0794  0.3941
 4613SOL    HW114738   2.431   1.188   5.898  1.2353  0.3316 -0.2694
 4613SOL    HW214739   2.516   1.193   6.037 -1.2457 -0.5905  1.3549
 4614SOL     OW14740   1.377   4.217   6.195  0.0118  0.1138  0.1968
 4614SOL    HW114741   1.388   4.268   6.280 -0.7260 -0.0121  0.3731
 4614SOL    HW214742   1.420   4.127   6.203  0.6105  0.3934  0.1649
 4615SOL     OW14743   0.948   5.716   2.184 -0.1372 -0.2494 -0.1083
 4615SOL    HW114744   0.885   5.736   2.259  0.2385 -1.5709  0.5784
 4615SOL    HW214745   0.896   5.704   2.100 -0.6815 -0.1044  0.1968
 4616SOL     OW14746   1.697   4.200   3.535 -0.2149  0.2179  0.4060
 4616SOL    HW114747   1.758   4.276   3.560 -1.3125  0.5909  2.1329
 4616SOL    HW214748   1.609   4.212   3.581 -1.3899 -0.6618 -1.5171
 4617SOL     OW14749   1.432   5.681   0.765  0.1459  0.1110 -0.1845
 4617SOL    HW114750   1.467   5.772   0.786 -0.2082  0.2587 -0.2267
 4617SOL    HW214751   1.462   5.617   0.836 -0.3516  0.4447  0.3330
 4618SOL     OW14752   1.374   3.712   0.957  0.0600  0.8087 -0.3425
 4618SOL    HW114753   1.412   3.627   0.921  2.8426  1.6047  0.5056
 4618SOL    HW214754   1.417   3.734   1.044 -1.7110  2.3401  0.2043
 4619SOL     OW14755   6.453   4.146   3.414  0.2101  0.3296  0.0192
 4619SOL    HW114756   6.464   4.121   3.318  1.8273 -0.4946  0.3743
 4619SOL    HW214757   6.534   4.196   3.445 -1.3146  2.7605  0.3538
 4620SOL     OW14758   0.542   1.533   0.296  0.4455 -0.4834 -0.0756
 4620SOL    HW114759   0.498   1.599   0.235  1.0939  0.6608  0.6677
 4620SOL    HW214760   0.640   1.531   0.277  0.2875 -2.1374 -0.9060
 4621SOL     OW14761   3.667   6.112   3.811 -0.7022  0.5300  1.0327
 4621SOL    HW114762   3.642   6.106   3.908 -0.8387 -0.6900  0.9297
 4621SOL    HW214763   3.599   6.166   3.762 -1.3179  0.0728  1.3791
 4622SOL     OW14764   5.952   6.826   1.306 -0.5726 -0.0021 -0.1589
 4622SOL    HW114765   6.048   6.827   1.334 -1.0579  0.0151  1.6410
 4622SOL    HW214766   5.946   6.827   1.206  1.2878 -0.1999 -0.3035
 4623SOL     OW14767   0.494   6.989   0.359 -0.2023  0.5144  0.0569
 4623SOL    HW114768   0.422   6.921   0.347 -0.1323  0.5709 -0.7077
 4623SOL    HW214769   0.574   6.946   0.400 -0.2154  0.1733 -0.2772
 4624SOL     OW14770   4.104   2.844   6.146 -0.1910  0.4919 -0.1459
 4624SOL    HW114771   4.033   2.905   6.181 -0.9058  0.2361 -1.1044
 4624SOL    HW214772   4.064   2.781   6.079  0.5670 -0.8778  0.6389
 4625SOL     OW14773   6.919   0.324   1.793  0.3296 -0.1324 -0.4178
 4625SOL    HW114774   6.886   0.266   1.720 -0.9757 -0.8324  0.6868
 4625SOL    HW214775   6.926   0.418   1.761 -1.1062 -0.2678 -1.1917
 4626SOL     OW14776   0.143   3.618   2.397 -0.2833 -0.1221  0.0551
 4626SOL    HW114777   0.058   3.566   2.398 -0.0301 -0.5352  0.8073
 4626SOL    HW214778   0.176   3.631   2.491 -0.9635  2.4344  0.0170
 4627SOL     OW14779   5.340   2.865   1.519  0.4648  0.0496 -0.0457
 4627SOL    HW114780   5.276   2.893   1.448  1.0600 -0.5580 -0.8332
 4627SOL    HW214781   5.407   2.937   1.535  2.0271 -0.8600 -2.1055
 4628SOL     OW14782   3.543   6.037   4.476  0.0740 -0.6332 -0.5210
 4628SOL    HW114783   3.482   6.099   4.525  1.7856 -0.9598  2.2589
 4628SOL    HW214784   3.498   5.949   4.464 -1.9015  0.6300 -3.3838
 4629SOL     OW14785   5.872   3.976   2.510 -0.1491  0.0318  0.2554
 4629SOL    HW114786   5.907   4.066   2.483 -0.1335  0.6919  2.2691
 4629SOL    HW214787   5.773   3.982   2.523 -0.0810 -0.0973  0.8632
 4630SOL     OW14788   1.246   2.592   4.500  0.1810  0.4653  0.3078
 4630SOL    HW114789   1.260   2.610   4.403 -0.7509 -0.6085 -0.0442
 4630SOL    HW214790   1.202   2.503   4.512  0.0853  0.6741  1.7043
 4631SOL     OW14791   1.364   0.440   3.274 -0.2911  0.3485  0.5985
 4631SOL    HW114792   1.434   0.378   3.237  0.2066 -0.7221  3.0824
 4631SOL    HW214793   1.275   0.395   3.270 -0.0508 -0.2908  1.6641
 4632SOL     OW14794   2.192   3.789   6.256  0.2502  0.0980 -0.0833
 4632SOL    HW114795   2.099   3.781   6.220 -0.2614  1.0986  0.9500
 4632SOL    HW214796   2.258   3.776   6.182 -0.7432  3.3629 -1.7303
 4633SOL     OW14797   1.639   5.847   5.372 -0.3271  0.1096  0.0489
 4633SOL    HW114798   1.628   5.914   5.298  0.0962 -0.8026 -0.8572
 4633SOL    HW214799   1.557   5.848   5.430 -0.7842  0.6345 -0.5875
 4634SOL     OW14800   5.665   5.762   0.437  0.4924 -0.1053  0.0771
 4634SOL    HW114801   5.627   5.821   0.508 -0.1183 -0.1767 -0.1792
 4634SOL    HW214802   5.703   5.819   0.363 -1.8667  0.0511 -1.1261
 4635SOL     OW14803   6.929   3.827   5.842 -0.1127 -0.3108  0.3203
 4635SOL    HW114804   6.896   3.921   5.832 -0.8280 -0.2802  2.3866
 4635SOL    HW214805   6.931   3.782   5.752 -0.1829  1.5151 -0.6381
 4636SOL     OW14806   1.238   0.769   6.371 -0.4953 -0.0806  0.7011
 4636SOL    HW114807   1.304   0.757   6.297 -0.4278 -0.6953  0.8520
 4636SOL    HW214808   1.212   0.865   6.379 -0.5105 -0.0152 -0.1272
 4637SOL     OW14809   6.358   3.464   1.457 -0.3011 -0.1675 -0.7232
 4637SOL    HW114810   6.376   3.556   1.424 -1.4168  0.1609 -0.4567
 4637SOL    HW214811   6.442   3.425   1.495 -0.1863  1.3695  0.6922
 4638SOL     OW14812   0.656   6.525   4.835  0.4092 -0.1751 -0.1251
 4638SOL    HW114813   0.719   6.603   4.830 -1.3594  1.4403  1.3220
 4638SOL    HW214814   0.659   6.485   4.926 -0.5537 -0.1394 -0.0664
 4639SOL     OW14815   6.633   2.722   1.612  0.0561 -0.6628 -0.5505
 4639SOL    HW114816   6.666   2.666   1.536 -0.6805  1.1562 -2.3067
 4639SOL    HW214817   6.538   2.698   1.633  0.2680 -1.1821 -0.1411
 4640SOL     OW14818   5.058   5.790   1.137 -0.6765 -0.5183 -0.0478
 4640SOL    HW114819   4.964   5.796   1.104 -0.4043  0.0995 -0.7302
 4640SOL    HW214820   5.072   5.856   1.211  0.5182  3.1423 -3.2047
 4641SOL     OW14821   2.289   1.454   3.951  0.1005 -0.1756  0.6907
 4641SOL    HW114822   2.370   1.486   4.001 -0.7982  0.5086  1.7643
 4641SOL    HW214823   2.206   1.481   4.001 -0.8618  0.5762 -1.2128
 4642SOL     OW14824   3.271   3.293   0.564  0.1286 -0.2383 -0.5090
 4642SOL    HW114825   3.175   3.279   0.540 -0.0169 -1.4809  0.6905
 4642SOL    HW214826   3.278   3.314   0.661  1.0401  0.3973 -0.7019
 4643SOL     OW14827   4.032   2.549   1.719  0.7331 -0.0910  0.3731
 4643SOL    HW114828   3.985   2.637   1.707  1.7624  0.1588 -3.1632
 4643SOL    HW214829   3.964   2.475   1.723 -0.0726  0.6663  1.1259
 4644SOL     OW14830   2.979   3.258   3.761 -0.3042 -0.2256  0.3459
 4644SOL    HW114831   3.011   3.189   3.695 -1.6785 -0.1271 -0.4516
 4644SOL    HW214832   2.937   3.334   3.711 -1.0322  0.0228  1.3216
 4645SOL     OW14833   2.394   0.428   2.593  0.0930 -0.3051  0.0433
 4645SOL    HW114834   2.306   0.454   2.555  0.3483  1.0915  0.3410
 4645SOL    HW214835   2.459   0.503   2.580  1.5160 -1.6497 -1.0166
 4646SOL     OW14836   5.255   6.794   2.370  0.2763 -0.0383  0.6108
 4646SOL    HW114837   5.280   6.731   2.443  3.2997 -0.3670 -0.5906
 4646SOL    HW214838   5.282   6.756   2.282 -0.0349  1.8985 -0.3772
 4647SOL     OW14839   5.485   5.533   0.051 -0.2794 -0.8655 -0.2774
 4647SOL    HW114840   5.461   5.551   0.146  0.8218  1.0023 -0.2984
 4647SOL    HW214841   5.584   5.542   0.040 -0.6024  1.5511 -2.0557
 4648SOL     OW14842   4.335   3.478   1.190  0.1266 -0.1139  0.2977
 4648SOL    HW114843   4.316   3.429   1.275 -0.8265 -1.7978 -0.8303
 4648SOL    HW214844   4.249   3.504   1.146  0.5780 -0.1752 -0.6470
 4649SOL     OW14845   2.454   2.630   2.565 -0.6148 -0.6144 -0.0991
 4649SOL    HW114846   2.527   2.652   2.500 -1.1343 -0.1093 -0.5369
 4649SOL    HW214847   2.470   2.540   2.605  1.0637  0.1240  0.9778
 4650SOL     OW14848   4.393   5.824   3.836 -0.3496 -0.4279  0.0596
 4650SOL    HW114849   4.317   5.784   3.887 -1.4949  0.9292 -0.5086
 4650SOL    HW214850   4.358   5.886   3.766  1.2067 -1.3851 -1.6949
 4651SOL     OW14851   3.742   3.422   1.671 -0.3272 -0.5052  0.1575
 4651SOL    HW114852   3.778   3.510   1.702 -0.9147 -1.0857  2.6790
 4651SOL    HW214853   3.699   3.374   1.747  1.3036 -3.6985 -0.7599
 4652SOL     OW14854   4.507   1.493   1.190  0.2955  0.7437 -0.1466
 4652SOL    HW114855   4.440   1.565   1.207 -1.6587 -0.7936 -0.9991
 4652SOL    HW214856   4.566   1.521   1.114 -1.1398  1.0377 -1.1928
 4653SOL     OW14857   6.458   3.453   5.480 -0.0321 -0.1180 -0.2129
 4653SOL    HW114858   6.533   3.466   5.415 -0.1671 -1.2598 -0.6128
 4653SOL    HW214859   6.493   3.458   5.573  0.2142  1.2314 -0.3586
 4654SOL     OW14860   2.213   5.873   1.045  0.5168  0.2264  0.3273
 4654SOL    HW114861   2.122   5.903   1.015  0.9320  1.1914 -0.0005
 4654SOL    HW214862   2.207   5.779   1.080 -0.6661  0.3947  0.6308
 4655SOL     OW14863   1.168   6.706   6.723 -0.1070  0.3510 -0.0799
 4655SOL    HW114864   1.172   6.606   6.710  3.4927  0.3038  0.3966
 4655SOL    HW214865   1.148   6.727   6.818 -2.4659  0.2064 -0.4795
 4656SOL     OW14866   0.514   4.530   5.276 -0.0262  0.0960  0.1075
 4656SOL    HW114867   0.438   4.553   5.337  0.9235 -1.2697  1.8703
 4656SOL    HW214868   0.479   4.472   5.201 -0.7878 -0.2213  0.6939
 4657SOL     OW14869   4.329   6.686   1.789  0.0691  0.5859  0.8417
 4657SOL    HW114870   4.408   6.628   1.767 -0.6635 -0.8258  1.7910
 4657SOL    HW214871   4.262   6.681   1.715 -0.4028 -0.5696  1.3194
 4658SOL     OW14872   2.338   4.333   6.279  0.1028  0.6690  0.3302
 4658SOL    HW114873   2.420   4.349   6.334  0.4065 -2.2228  0.8564
 4658SOL    HW214874   2.291   4.251   6.312 -1.2460  0.4332 -1.9724
 4659SOL     OW14875   4.772   4.744   5.616  0.4631  0.1168  0.3358
 4659SOL    HW114876   4.738   4.838   5.617 -1.0829 -0.4077 -0.4123
 4659SOL    HW214877   4.861   4.741   5.571  0.8671  1.3141  1.0259
 4660SOL     OW14878   3.763   3.026   5.215  0.4869  0.3256 -0.1855
 4660SOL    HW114879   3.743   2.951   5.151 -1.8278 -0.5218  1.4141
 4660SOL    HW214880   3.746   3.113   5.170 -1.0513 -0.2448 -0.7559
 4661SOL     OW14881   6.330   6.254   6.735 -0.0102 -0.2282  0.0592
 4661SOL    HW114882   6.278   6.243   6.650  1.9246 -0.0575 -1.2094
 4661SOL    HW214883   6.299   6.337   6.781 -1.6484 -0.7510 -0.0270
 4662SOL     OW14884   0.450   1.263   0.900  0.5393 -0.0293 -0.3695
 4662SOL    HW114885   0.391   1.324   0.953  0.6612 -0.7432  0.6372
 4662SOL    HW214886   0.538   1.253   0.947  0.4355 -1.1517 -0.3742
 4663SOL     OW14887   3.188   5.032   3.813 -0.1539 -0.4214 -0.3690
 4663SOL    HW114888   3.243   5.112   3.787  2.9237 -1.8638  1.2112
 4663SOL    HW214889   3.162   4.981   3.731  1.6386 -0.1340 -1.1515
 4664SOL     OW14890   4.793   7.005   6.993  0.3314 -0.5167  0.0754
 4664SOL    HW114891   4.755   7.085   7.040 -0.0515 -0.7263  0.1257
 4664SOL    HW214892   4.755   6.999   6.901 -0.2840 -1.1059  0.3585
 4665SOL     OW14893   4.525   6.073   1.162  0.3043  0.6150 -0.2609
 4665SOL    HW114894   4.587   6.143   1.199  0.6843 -0.4940  1.3195
 4665SOL    HW214895   4.444   6.067   1.220  1.1094 -1.4686  0.7495
 4666SOL     OW14896   5.537   2.950   6.345 -0.2101 -0.2385  0.3460
 4666SOL    HW114897   5.635   2.935   6.355 -0.1324 -1.6013 -1.8421
 4666SOL    HW214898   5.521   3.040   6.304  0.1102 -0.1025  0.5169
 4667SOL     OW14899   3.923   6.617   1.648 -0.3469 -0.4716  0.1171
 4667SOL    HW114900   3.911   6.686   1.719 -1.4450  1.0030 -1.4404
 4667SOL    HW214901   3.839   6.565   1.637 -0.7089  0.3320 -1.1114
 4668SOL     OW14902   5.003   1.573   0.688 -0.2623 -0.7473  0.4114
 4668SOL    HW114903   5.041   1.486   0.718 -0.0852 -1.3222 -1.3980
 4668SOL    HW214904   5.063   1.647   0.720  1.1133 -1.4787 -0.3527
 4669SOL     OW14905   0.449   1.917   2.563 -0.4469  0.3651  0.2777
 4669SOL    HW114906   0.409   1.860   2.491  0.5184  1.0083 -0.7949
 4669SOL    HW214907   0.525   1.970   2.526 -1.3099  2.3906  1.2268
 4670SOL     OW14908   6.525   2.180   3.771 -0.2126  0.1908 -0.1488
 4670SOL    HW114909   6.516   2.265   3.720  0.8213  0.7222  0.5451
 4670SOL    HW214910   6.575   2.113   3.716  1.0733  0.8273  0.2066
 4671SOL     OW14911   6.848   1.015   2.404 -0.0552  0.3597  0.4544
 4671SOL    HW114912   6.778   1.061   2.349 -0.0133  2.0913  1.7876
 4671SOL    HW214913   6.935   1.064   2.397  0.0607  0.3701  1.7241
 4672SOL     OW14914   1.212   4.447   5.794 -0.1553  0.4209 -0.2056
 4672SOL    HW114915   1.160   4.366   5.824  0.2610  0.0489 -0.4652
 4672SOL    HW214916   1.221   4.445   5.695 -0.8043  1.2051 -0.2905
 4673SOL     OW14917   5.477   4.884   4.172  0.1113 -0.5959  1.0239
 4673SOL    HW114918   5.536   4.803   4.174  0.6714 -0.2063  0.6407
 4673SOL    HW214919   5.444   4.898   4.078 -0.0184 -0.4002  1.1000
 4674SOL     OW14920   4.307   5.354   1.547  0.0386 -0.1526  0.2707
 4674SOL    HW114921   4.392   5.306   1.525 -1.3543 -2.6211 -0.2183
 4674SOL    HW214922   4.276   5.406   1.468  0.2465 -0.6592 -0.1536
 4675SOL     OW14923   3.495   5.579   5.163  0.2086  0.3836  0.2328
 4675SOL    HW114924   3.535   5.644   5.098  1.0140 -0.3202 -0.0007
 4675SOL    HW214925   3.401   5.560   5.138  0.9308 -1.0226 -1.6776
 4676SOL     OW14926   6.407   0.068   1.922 -0.3740 -0.0042  0.3530
 4676SOL    HW114927   6.349   0.009   1.978 -0.3441  2.0359  2.6772
 4676SOL    HW214928   6.350   0.129   1.868 -0.4420  1.0292  1.5584
 4677SOL     OW14929   0.654   5.891   1.264 -0.0302 -0.0461 -0.0151
 4677SOL    HW114930   0.656   5.791   1.274 -1.1670 -0.0616  0.1813
 4677SOL    HW214931   0.729   5.920   1.205 -0.4121 -1.1501 -1.0835
 4678SOL     OW14932   1.232   6.600   0.914  0.3401  0.0610  0.0531
 4678SOL    HW114933   1.157   6.633   0.856 -0.6049 -0.7482  0.7661
 4678SOL    HW214934   1.274   6.519   0.871 -1.4592 -1.5794  1.1990
 4679SOL     OW14935   6.409   1.511   6.261 -0.1085  0.1447 -0.0520
 4679SOL    HW114936   6.314   1.521   6.293  0.6056  0.4535  2.1431
 4679SOL    HW214937   6.460   1.454   6.325  1.1581 -0.2129 -1.3294
 4680SOL     OW14938   3.067   3.111   3.453  0.2609 -0.0140 -0.3241
 4680SOL    HW114939   3.115   3.102   3.366  1.9301  2.0741  0.2822
 4680SOL    HW214940   3.128   3.082   3.528  0.3475  1.8626  0.3989
 4681SOL     OW14941   3.126   4.844   5.085 -0.2550 -0.1148 -0.0481
 4681SOL    HW114942   3.165   4.936   5.091 -0.4091 -0.0649  0.1773
 4681SOL    HW214943   3.070   4.838   5.002  0.1069 -0.1411 -0.2937
 4682SOL     OW14944   6.515   0.967   2.728 -0.5636 -0.0774  0.0627
 4682SOL    HW114945   6.420   0.968   2.698 -0.1111  0.4208 -1.5247
 4682SOL    HW214946   6.524   0.918   2.814 -2.3150  0.2862  0.4858
 4683SOL     OW14947   1.614   1.946   1.611 -0.3380 -0.3188  0.2766
 4683SOL    HW114948   1.538   1.926   1.550  0.8647 -0.1887 -1.3506
 4683SOL    HW214949   1.588   1.927   1.706 -1.1588 -4.1668 -0.5487
 4684SOL     OW14950   6.545   5.551   2.765 -0.3881  0.1538  0.1630
 4684SOL    HW114951   6.470   5.497   2.805 -0.6003  1.0842  1.0998
 4684SOL    HW214952   6.593   5.599   2.839  1.3080 -0.6309 -0.4093
 4685SOL     OW14953   3.920   6.500   7.004 -0.5882  0.1869 -0.1028
 4685SOL    HW114954   3.860   6.476   6.928 -1.4887 -2.1501  1.2522
 4685SOL    HW214955   3.868   6.504   7.089  0.9969 -1.2899  1.0280
 4686SOL     OW14956   6.649   0.048   3.103  0.0656  0.8906  0.2254
 4686SOL    HW114957   6.651   0.111   3.026 -0.0392 -0.6762 -1.1295
 4686SOL    HW214958   6.554   0.034   3.131  0.1363  1.8150  0.9758
 4687SOL     OW14959   2.296   2.227   5.330  0.2321  0.4324  0.5491
 4687SOL    HW114960   2.340   2.230   5.240 -0.9583 -0.1220 -0.0828
 4687SOL    HW214961   2.318   2.141   5.375  0.9157  0.7557  0.8445
 4688SOL     OW14962   1.685   5.465   1.790  0.2621  0.6590 -0.2456
 4688SOL    HW114963   1.748   5.524   1.840 -1.3721  2.4827 -0.2288
 4688SOL    HW214964   1.593   5.475   1.827 -0.5200  0.0166 -1.9095
 4689SOL     OW14965   0.833   6.644   2.286 -0.1527 -0.2188  0.4741
 4689SOL    HW114966   0.911   6.602   2.239  0.3539  0.1278  1.0069
 4689SOL    HW214967   0.803   6.725   2.236  0.3172  0.0865  0.6860
 4690SOL     OW14968   4.874   6.895   2.754 -0.1674 -0.0598 -0.3663
 4690SOL    HW114969   4.823   6.927   2.674 -1.0803 -0.2909  0.1122
 4690SOL    HW214970   4.971   6.916   2.741  0.1726 -2.5885 -2.8026
 4691SOL     OW14971   0.081   3.655   4.762  0.0341 -0.4258  0.3372
 4691SOL    HW114972   0.151   3.656   4.834 -0.2437 -0.1271  0.6059
 4691SOL    HW214973  -0.009   3.650   4.804 -0.2491  1.8026  0.0935
 4692SOL     OW14974   6.687   5.046   1.871 -0.1834  0.0799 -0.0095
 4692SOL    HW114975   6.634   5.053   1.956 -0.8432 -0.5239 -0.3633
 4692SOL    HW214976   6.733   4.957   1.867  1.5457  0.8931  0.6684
 4693SOL     OW14977   0.380   0.928   3.844  0.0661  0.4260 -0.0414
 4693SOL    HW114978   0.298   0.899   3.796 -0.2986  2.2738 -0.6362
 4693SOL    HW214979   0.421   0.850   3.892 -1.0822 -0.8744 -1.1034
 4694SOL     OW14980   3.755   3.981   6.130  0.0041  0.4721  0.6125
 4694SOL    HW114981   3.833   3.919   6.137  0.5047  1.1405  1.2092
 4694SOL    HW214982   3.681   3.950   6.189 -0.5218 -0.6238 -0.5850
 4695SOL     OW14983   3.163   5.384   0.647 -0.1882 -0.0103  0.5802
 4695SOL    HW114984   3.115   5.297   0.636 -1.0123  0.3509  1.1959
 4695SOL    HW214985   3.113   5.455   0.596  0.3703  0.1458  0.2436
 4696SOL     OW14986   1.065   1.955   2.235 -0.5440 -0.3150  0.0548
 4696SOL    HW114987   1.061   2.041   2.183  0.1804  1.5974  2.8780
 4696SOL    HW214988   1.130   1.893   2.192  1.9814  2.1724 -0.0572
 4697SOL     OW14989   3.562   2.928   0.389 -0.0681  0.3172 -0.1414
 4697SOL    HW114990   3.555   2.829   0.377 -0.3363  0.0932  1.5363
 4697SOL    HW214991   3.477   2.972   0.358  0.1368  0.0450 -1.0863
 4698SOL     OW14992   3.906   1.863   5.659 -0.2661  0.3082 -0.0962
 4698SOL    HW114993   3.960   1.782   5.682 -1.2602 -0.6285 -0.9352
 4698SOL    HW214994   3.926   1.937   5.724  2.6029  0.2899 -0.8198
 4699SOL     OW14995   0.517   3.458   1.844  0.2689  0.4309 -0.4476
 4699SOL    HW114996   0.451   3.527   1.814  0.1872  0.5058 -0.0998
 4699SOL    HW214997   0.596   3.503   1.884 -0.5438  0.3091  1.3679
 4700SOL     OW14998   6.046   1.383   5.144 -0.5264 -0.2758 -0.0371
 4700SOL    HW114999   5.954   1.345   5.134  0.6666 -3.1181 -1.4433
 4700SOL    HW215000   6.112   1.308   5.153  1.6786  1.6623  1.0118
 4701SOL     OW15001   1.343   6.387   4.480 -0.5454  0.2536  0.0143
 4701SOL    HW115002   1.324   6.338   4.565 -1.1849  0.2668 -0.1195
 4701SOL    HW215003   1.284   6.352   4.407 -1.0519  1.2596 -0.0670
 4702SOL     OW15004   1.545   3.573   2.161  0.2021  0.2110 -0.2164
 4702SOL    HW115005   1.622   3.562   2.098 -0.7484  0.3618 -1.4438
 4702SOL    HW215006   1.486   3.492   2.156  1.0905 -0.6689  1.9426
 4703SOL     OW15007   6.253   4.101   1.105 -0.9014  0.6261  0.0576
 4703SOL    HW115008   6.234   4.091   1.007 -0.6905 -0.7693  0.1406
 4703SOL    HW215009   6.167   4.092   1.156 -0.6179 -2.2680  0.2014
 4704SOL     OW15010   2.325   6.259   5.692 -0.0655  0.3416 -0.1097
 4704SOL    HW115011   2.368   6.348   5.703 -0.1274  0.4023 -0.3729
 4704SOL    HW215012   2.368   6.210   5.616  0.2060  0.0064  0.2552
 4705SOL     OW15013   6.752   1.401   5.191 -0.0477 -0.3477 -0.7354
 4705SOL    HW115014   6.779   1.466   5.120  3.4171  1.1001  1.6038
 4705SOL    HW215015   6.777   1.309   5.163  1.5957  0.2446 -1.3522
 4706SOL     OW15016   0.131   6.777   2.128 -0.3132  0.3063  0.1287
 4706SOL    HW115017   0.202   6.772   2.058 -0.0177  0.8140  0.3838
 4706SOL    HW215018   0.090   6.687   2.140  0.1778  0.0395 -0.1370
 4707SOL     OW15019   0.115   4.831   4.121  0.5774 -1.0228  0.1352
 4707SOL    HW115020   0.062   4.746   4.123  0.5281 -0.9856  0.3832
 4707SOL    HW215021   0.118   4.866   4.027 -1.7954  0.2209  0.4708
 4708SOL     OW15022   2.972   3.865   4.207  0.2995 -0.1327 -0.0231
 4708SOL    HW115023   3.024   3.940   4.167  1.1373 -0.6694  0.0291
 4708SOL    HW215024   2.885   3.899   4.242  0.3555  0.6741 -0.6462
 4709SOL     OW15025   3.889   5.981   5.255 -0.1337  0.0786 -0.0564
 4709SOL    HW115026   3.801   6.027   5.240 -0.3837 -0.0912  0.8701
 4709SOL    HW215027   3.872   5.889   5.291  0.4157 -0.1181 -0.2984
 4710SOL     OW15028   0.981   3.654   6.491 -0.1537 -0.0777  0.4630
 4710SOL    HW115029   0.985   3.697   6.581 -2.4726 -0.5802  0.8749
 4710SOL    HW215030   1.069   3.666   6.444  0.4438  1.9764  1.9547
 4711SOL     OW15031   6.144   3.004   4.391  0.2516  0.5212 -0.2556
 4711SOL    HW115032   6.226   3.035   4.440  0.1522  0.0273  0.2351
 4711SOL    HW215033   6.063   3.030   4.443  0.1163  0.4967 -0.4533
 4712SOL     OW15034   2.116   0.045   6.524 -0.0244  0.1389  0.3717
 4712SOL    HW115035   2.038   0.069   6.467 -0.1864  1.1378  0.9981
 4712SOL    HW215036   2.084   0.011   6.612  0.2361 -0.6763  0.1595
 4713SOL     OW15037   5.261   6.804   4.004  0.3215  0.1044 -0.2802
 4713SOL    HW115038   5.213   6.807   4.091  0.3493 -2.0596 -0.1305
 4713SOL    HW215039   5.241   6.717   3.958  1.7304  0.4292 -1.5919
 4714SOL     OW15040   4.380   4.933   1.466 -0.6915 -0.3391  0.1185
 4714SOL    HW115041   4.446   4.863   1.439 -0.4866 -0.1971  0.2467
 4714SOL    HW215042   4.418   5.024   1.448 -0.9566 -0.2587 -0.0496
 4715SOL     OW15043   5.174   3.123   2.429  0.2560  0.2721  0.2564
 4715SOL    HW115044   5.232   3.043   2.442  1.1201  0.9063  0.4654
 4715SOL    HW215045   5.086   3.109   2.473  0.4867 -0.4658  0.4891
 4716SOL     OW15046   0.824   3.976   0.693  0.2089  0.1611  0.0928
 4716SOL    HW115047   0.808   3.886   0.650  0.4749  0.2851 -0.2778
 4716SOL    HW215048   0.746   4.000   0.750  0.4839 -0.6784  0.8585
 4717SOL     OW15049   6.542   4.196   1.445  0.0884  0.5921  0.1691
 4717SOL    HW115050   6.474   4.129   1.414 -0.8644  1.6981 -0.2325
 4717SOL    HW215051   6.571   4.175   1.538  1.7168 -1.8232 -0.7847
 4718SOL     OW15052   1.742   3.185   2.464  0.1944 -0.2068 -0.0369
 4718SOL    HW115053   1.769   3.167   2.369  0.8594  0.5132  0.0035
 4718SOL    HW215054   1.792   3.265   2.498 -1.7386  0.9676  0.1737
 4719SOL     OW15055   6.940   5.949   5.085  0.4363  0.3458  0.2785
 4719SOL    HW115056   7.006   5.943   5.010  0.5402  1.5853  0.2520
 4719SOL    HW215057   6.919   6.045   5.103 -0.1245  0.0292  1.3745
 4720SOL     OW15058   0.641   1.678   1.182  0.0279 -0.3704  1.3390
 4720SOL    HW115059   0.547   1.654   1.207 -0.8858 -0.3100 -1.6101
 4720SOL    HW215060   0.640   1.753   1.116  2.0152 -1.3247  0.1214
 4721SOL     OW15061   5.523   2.456   0.232 -0.4247  0.2000  0.5266
 4721SOL    HW115062   5.616   2.481   0.260  0.2552 -1.6865  0.1204
 4721SOL    HW215063   5.523   2.425   0.137 -1.3447 -0.3592  0.6894
 4722SOL     OW15064   2.484   2.159   3.328 -0.0909  0.4420  0.0510
 4722SOL    HW115065   2.475   2.098   3.407 -1.0942  0.6711  0.1238
 4722SOL    HW215066   2.533   2.242   3.356 -0.2829  0.4444  0.3875
 4723SOL     OW15067   3.950   6.550   1.238  0.1307 -0.2956  0.1795
 4723SOL    HW115068   3.966   6.457   1.270 -2.1543 -0.9592 -0.4212
 4723SOL    HW215069   3.874   6.551   1.173 -0.3842  2.0805  0.7104
 4724SOL     OW15070   5.257   1.861   2.673 -0.2130 -0.0030 -0.3367
 4724SOL    HW115071   5.191   1.805   2.723 -0.9978  0.4207 -0.8733
 4724SOL    HW215072   5.261   1.953   2.712  0.0365 -0.0162 -0.3272
 4725SOL     OW15073   5.668   4.314   2.942 -0.0368 -0.2407 -0.0920
 4725SOL    HW115074   5.677   4.357   2.853  0.6509  1.3384  0.7096
 4725SOL    HW215075   5.702   4.220   2.937 -0.0667 -0.1963 -1.4882
 4726SOL     OW15076   1.940   0.413   1.166  0.8542 -0.1793 -0.4426
 4726SOL    HW115077   2.029   0.454   1.186  0.6228 -0.1467  0.5979
 4726SOL    HW215078   1.895   0.463   1.092  0.2056  2.0425  1.3528
 4727SOL     OW15079   2.169   6.781   0.975  0.3556  0.8392  0.0928
 4727SOL    HW115080   2.113   6.751   1.052  0.7294  2.7463  1.1723
 4727SOL    HW215081   2.223   6.704   0.940  1.5541  0.2950  2.8974
 4728SOL     OW15082   0.220   3.022   0.778  0.5552 -0.5154 -0.0611
 4728SOL    HW115083   0.172   2.935   0.787 -1.7068  0.7540  0.9372
 4728SOL    HW215084   0.279   3.036   0.857  1.7199 -1.5566 -0.7158
 4729SOL     OW15085   3.099   0.170   1.863 -0.3048  0.0703  0.4536
 4729SOL    HW115086   3.034   0.101   1.895 -1.0744  1.1691  1.3450
 4729SOL    HW215087   3.152   0.133   1.786  0.6968 -2.2158  2.1189
 4730SOL     OW15088   3.453   6.589   4.298 -0.0350 -0.0555  0.1502
 4730SOL    HW115089   3.475   6.504   4.346  0.3564  0.5269  1.0003
 4730SOL    HW215090   3.507   6.664   4.335 -0.8138  0.6888 -0.2011
 4731SOL     OW15091   5.712   3.186   2.035  0.7599  0.0792  0.0297
 4731SOL    HW115092   5.638   3.179   1.968  0.3047  1.6537  0.3288
 4731SOL    HW215093   5.774   3.260   2.009  0.2583  1.1062  1.6182
 4732SOL     OW15094   4.323   6.372   6.854  0.6596  0.2816  0.2015
 4732SOL    HW115095   4.328   6.284   6.901  0.3890  1.0727  1.7802
 4732SOL    HW215096   4.413   6.415   6.855  0.1102  1.5523  2.6126
 4733SOL     OW15097   5.541   5.426   3.108 -0.6905 -0.1299 -0.6141
 4733SOL    HW115098   5.584   5.385   3.189  0.3497  1.7930 -0.1282
 4733SOL    HW215099   5.462   5.480   3.136  0.6666  1.9736 -0.5488
 4734SOL     OW15100   5.153   2.334   6.720 -0.5610 -0.1359 -0.6319
 4734SOL    HW115101   5.252   2.320   6.721 -0.6555 -0.8594 -0.1352
 4734SOL    HW215102   5.110   2.271   6.784 -1.1554  1.7282  0.8961
 4735SOL     OW15103   2.466   1.261   6.771  0.0062 -0.0958  0.1528
 4735SOL    HW115104   2.389   1.315   6.738  1.7712  2.5232  0.0525
 4735SOL    HW215105   2.536   1.321   6.809  1.7597 -2.4048  0.8525
 4736SOL     OW15106   3.923   5.736   3.679 -0.6817 -0.4501 -0.2292
 4736SOL    HW115107   3.933   5.774   3.587 -3.6972  1.9478  0.2847
 4736SOL    HW215108   3.949   5.805   3.746  0.7543 -1.9143  0.7888
 4737SOL     OW15109   6.977   6.214   4.002 -0.5285  0.9036  0.3946
 4737SOL    HW115110   6.943   6.224   4.095  0.4628  3.7973  0.5427
 4737SOL    HW215111   6.922   6.270   3.940 -1.0219 -0.7902 -0.7666
 4738SOL     OW15112   0.134   5.985   0.569  0.1372 -0.1338  0.9194
 4738SOL    HW115113   0.075   6.014   0.645  0.5170  0.2803  1.0618
 4738SOL    HW215114   0.206   6.053   0.555 -0.9304  0.7044 -0.9479
 4739SOL     OW15115   0.326   5.501   3.001 -0.0013  0.0750 -0.0438
 4739SOL    HW115116   0.368   5.589   2.977 -0.3636  0.3403  0.2867
 4739SOL    HW215117   0.317   5.495   3.100  4.3559 -2.2819  0.4685
 4740SOL     OW15118   0.614   6.665   5.379  0.6007  0.4769  0.1101
 4740SOL    HW115119   0.616   6.565   5.370  0.1021  0.4516  0.2641
 4740SOL    HW215120   0.679   6.705   5.314  0.5214  0.0697 -0.2274
 4741SOL     OW15121   4.297   6.191   3.774 -0.1959 -0.6457 -0.2039
 4741SOL    HW115122   4.283   6.284   3.740 -2.4667 -0.4595  1.0210
 4741SOL    HW215123   4.322   6.131   3.698 -0.5944  0.6023 -1.3699
 4742SOL     OW15124   6.940   2.800   0.765  0.0754  0.0200  0.1254
 4742SOL    HW115125   6.882   2.776   0.844  0.3238  2.4502  1.1434
 4742SOL    HW215126   7.036   2.790   0.790  0.1962  2.1122  0.6796
 4743SOL     OW15127   6.761   5.674   5.868 -0.1363  0.2021 -0.3849
 4743SOL    HW115128   6.712   5.729   5.935  1.3010 -0.0403  0.9473
 4743SOL    HW215129   6.858   5.700   5.868  0.1656 -0.8275 -1.2903
 4744SOL     OW15130   3.262   6.196   5.449 -0.0272  0.0881 -0.1265
 4744SOL    HW115131   3.282   6.133   5.374  1.5701 -0.4171  0.6850
 4744SOL    HW215132   3.179   6.166   5.496 -0.5612 -0.0794 -1.1442
 4745SOL     OW15133   2.638   1.585   5.082 -0.6817 -0.4433 -0.2697
 4745SOL    HW115134   2.569   1.641   5.036  0.6093  0.4086 -1.2607
 4745SOL    HW215135   2.598   1.544   5.164 -2.7385 -1.0844 -1.5104
 4746SOL     OW15136   1.858   1.978   0.135 -0.1945  0.2838 -0.2514
 4746SOL    HW115137   1.856   1.896   0.078  1.1082 -0.3994  0.6192
 4746SOL    HW215138   1.798   1.965   0.214  1.2320 -0.5728  0.7607
 4747SOL     OW15139   1.966   0.096   5.371  0.2039 -0.4385  0.1861
 4747SOL    HW115140   1.881   0.148   5.373 -0.3006 -1.2436  0.7258
 4747SOL    HW215141   1.953   0.011   5.424  2.0733  0.5766  2.4556
 4748SOL     OW15142   0.846   4.899   3.560  0.1958  0.4006  0.4525
 4748SOL    HW115143   0.932   4.930   3.600 -0.9543  0.0381  3.5502
 4748SOL    HW215144   0.772   4.959   3.591 -1.0487 -1.0239  0.3449
 4749SOL     OW15145   0.291   0.844   4.969  0.2824  0.0511 -0.0147
 4749SOL    HW115146   0.345   0.760   4.976 -1.5623 -1.2870 -0.8370
 4749SOL    HW215147   0.301   0.898   5.052  0.1177 -1.8936  1.3383
 4750SOL     OW15148   4.708   6.630   4.133 -0.2823  0.0373 -0.1344
 4750SOL    HW115149   4.714   6.605   4.230  0.4831  1.7491  0.2886
 4750SOL    HW215150   4.761   6.713   4.117 -2.0842  0.9713 -1.6063
 4751SOL     OW15151   2.669   0.464   1.164  0.2524 -0.3930  0.4387
 4751SOL    HW115152   2.643   0.427   1.253 -0.3113 -0.6939  0.1517
 4751SOL    HW215153   2.609   0.541   1.141  0.5801 -0.1328  0.4438
 4752SOL     OW15154   5.703   4.082   2.092  0.5029  0.2742 -0.1424
 4752SOL    HW115155   5.623   4.029   2.119 -0.3639  2.2256  1.3501
 4752SOL    HW215156   5.771   4.021   2.051 -0.8447 -1.7880  0.5409
 4753SOL     OW15157   4.709   2.747   3.340  0.0650  0.5894 -0.3692
 4753SOL    HW115158   4.772   2.778   3.270  0.6534 -0.4366 -0.3199
 4753SOL    HW215159   4.741   2.778   3.430  0.3628  0.2905 -0.3703
 4754SOL     OW15160   0.237   5.033   3.918 -0.4204  0.8879 -0.0207
 4754SOL    HW115161   0.246   5.133   3.915 -0.4301  0.8893 -0.0055
 4754SOL    HW215162   0.226   4.997   3.826  3.7361  0.5115 -0.5520
 4755SOL     OW15163   5.119   0.196   1.151 -0.2377  0.0325 -0.1989
 4755SOL    HW115164   5.156   0.125   1.091  1.1244  0.1709  0.4479
 4755SOL    HW215165   5.026   0.218   1.122 -0.4721 -1.5630 -0.8022
 4756SOL     OW15166   4.963   0.047   4.991 -0.4387 -0.0332 -0.5915
 4756SOL    HW115167   4.877  -0.003   4.984 -0.7716  0.6997 -2.3529
 4756SOL    HW215168   5.038  -0.010   4.957 -0.4963 -0.1012 -0.6044
 4757SOL     OW15169   6.073   3.359   6.378 -0.0466 -0.3659 -0.0358
 4757SOL    HW115170   6.083   3.364   6.478 -0.6812 -0.6036  0.0450
 4757SOL    HW215171   5.980   3.383   6.353  0.5237  1.2730 -0.7146
 4758SOL     OW15172   5.436   5.670   0.295  0.1637 -0.5033 -0.2998
 4758SOL    HW115173   5.354   5.703   0.343  0.1721 -1.1086  0.1461
 4758SOL    HW215174   5.517   5.711   0.336  0.0745  0.3379 -0.9426
 4759SOL     OW15175   4.009   3.259   3.409 -0.0398 -0.3493  0.1838
 4759SOL    HW115176   4.005   3.239   3.506  0.9952  0.9862  0.5302
 4759SOL    HW215177   3.989   3.176   3.357 -1.1057 -0.9633  1.5079
 4760SOL     OW15178   5.610   2.925   5.391  0.8232 -0.1818  0.0506
 4760SOL    HW115179   5.551   2.844   5.380  2.1363 -1.0920 -0.5230
 4760SOL    HW215180   5.601   2.984   5.312 -0.5127  0.5094  0.6891
 4761SOL     OW15181   5.749   6.281   2.188 -0.1053  0.2694  0.0874
 4761SOL    HW115182   5.722   6.232   2.272 -0.2722 -0.1881 -0.2281
 4761SOL    HW215183   5.820   6.347   2.210  0.3596 -0.3470  0.4718
 4762SOL     OW15184   4.575   4.986   5.671 -0.3197  0.4221 -0.2793
 4762SOL    HW115185   4.524   5.031   5.743  1.9157  0.7356  1.2060
 4762SOL    HW215186   4.658   5.039   5.650  0.9632 -1.5497 -0.4374
 4763SOL     OW15187   2.796   0.808   6.760 -0.4572 -0.3423 -0.8940
 4763SOL    HW115188   2.735   0.808   6.839 -0.4179 -1.7695 -0.8285
 4763SOL    HW215189   2.763   0.740   6.693 -0.0002  0.2206 -1.7085
 4764SOL     OW15190   3.000   5.476   2.398 -0.2875 -0.1472  0.1583
 4764SOL    HW115191   3.009   5.422   2.315  1.4802  0.5181 -0.1170
 4764SOL    HW215192   2.905   5.471   2.431 -0.8133 -1.0979 -1.4039
 4765SOL     OW15193   4.552   2.559   3.454 -0.3663  0.1160  0.3159
 4765SOL    HW115194   4.633   2.618   3.453 -0.8728  0.8207  0.0375
 4765SOL    HW215195   4.545   2.514   3.543  1.1395 -1.1158 -0.1374
 4766SOL     OW15196   6.674   2.002   4.097  0.4021  0.4043  0.4212
 4766SOL    HW115197   6.605   2.060   4.140 -0.6559 -0.5264  0.0074
 4766SOL    HW215198   6.670   1.910   4.136  0.6648  0.0479 -0.3691
 4767SOL     OW15199   5.214   0.838   3.365 -0.1412  0.1039 -0.5912
 4767SOL    HW115200   5.269   0.756   3.365 -0.8161 -0.3702  0.3330
 4767SOL    HW215201   5.272   0.918   3.348  0.2388 -0.6864 -3.5982
 4768SOL     OW15202   6.976   6.361   0.485 -0.7682  0.4431  0.4389
 4768SOL    HW115203   6.944   6.303   0.410  1.6261  0.6215 -0.8087
 4768SOL    HW215204   7.055   6.318   0.529  0.0390  1.9829  0.5485
 4769SOL     OW15205   2.102   1.341   4.807  0.3572  0.5770  0.2899
 4769SOL    HW115206   2.036   1.403   4.850  0.2638  0.8582 -0.2483
 4769SOL    HW215207   2.100   1.253   4.853  1.8657  1.5153  2.3660
 4770SOL     OW15208   2.760   3.066   1.099  0.0806 -0.0309 -0.3464
 4770SOL    HW115209   2.715   2.994   1.153  0.4496  0.8095  1.1376
 4770SOL    HW215210   2.759   3.151   1.151  1.3146  0.5714 -1.2763
 4771SOL     OW15211   0.296   5.687   1.321 -0.2945 -0.3369 -0.6565
 4771SOL    HW115212   0.351   5.761   1.283  0.0422 -1.4160 -2.3745
 4771SOL    HW215213   0.206   5.686   1.278 -1.0902  0.3499  0.8995
 4772SOL     OW15214   2.199   4.589   1.011 -0.4728  0.5717  0.2717
 4772SOL    HW115215   2.292   4.587   1.048 -0.7180 -0.1350  0.8511
 4772SOL    HW215216   2.164   4.683   1.013 -0.0446  0.7203  0.7230
 4773SOL     OW15217   1.842   5.543   4.340  0.1879  0.3245 -0.2177
 4773SOL    HW115218   1.825   5.503   4.430  0.8859 -0.6444 -0.4949
 4773SOL    HW215219   1.813   5.478   4.270  3.1982 -0.6396 -0.6986
 4774SOL     OW15220   5.018   0.604   0.576 -0.4353  0.1524  0.1072
 4774SOL    HW115221   5.027   0.694   0.534  0.0655  0.1912  0.2829
 4774SOL    HW215222   5.109   0.562   0.584 -0.6559 -0.3272  0.1098
 4775SOL     OW15223   6.768   5.498   6.166 -0.2063  0.2395 -0.0654
 4775SOL    HW115224   6.760   5.413   6.217  1.8152 -0.9733 -1.5962
 4775SOL    HW215225   6.680   5.524   6.127 -0.9589 -0.8431  0.8907
 4776SOL     OW15226   1.158   0.060   4.710 -0.1237 -0.0084  0.1658
 4776SOL    HW115227   1.188  -0.033   4.691 -0.5448 -0.2738  0.7601
 4776SOL    HW215228   1.169   0.116   4.628 -0.3784 -0.7095 -0.3570
 4777SOL     OW15229   0.259   5.318   0.079  0.2633  0.3567  0.6528
 4777SOL    HW115230   0.306   5.359   0.157  1.9731  0.4285 -0.3540
 4777SOL    HW215231   0.264   5.379   0.000  1.4308 -1.0251 -0.4158
 4778SOL     OW15232   4.136   1.495   3.951  0.0677  0.2281 -0.1014
 4778SOL    HW115233   4.148   1.485   4.050 -1.1401 -1.4668 -0.0839
 4778SOL    HW215234   4.060   1.557   3.933  0.2247  0.4606  0.0405
 4779SOL     OW15235   6.544   4.435   6.022 -0.8198  0.4096 -0.3597
 4779SOL    HW115236   6.601   4.419   6.103 -2.0884  0.4284  0.5703
 4779SOL    HW215237   6.544   4.532   5.999  1.0941  0.1555 -1.5940
 4780SOL     OW15238   6.604   4.281   4.847  0.0076  0.0308  0.6277
 4780SOL    HW115239   6.600   4.209   4.916  1.7505  0.4279  1.1847
 4780SOL    HW215240   6.594   4.370   4.891  0.0076  0.2377  0.2146
 4781SOL     OW15241   6.498   6.979   3.576 -0.0330 -0.0605  0.2269
 4781SOL    HW115242   6.519   7.066   3.622  0.5606  0.5758 -1.1799
 4781SOL    HW215243   6.515   6.989   3.478 -1.0023 -1.4551 -0.1049
 4782SOL     OW15244   6.507   6.625   6.119 -0.2932  0.5244  0.1966
 4782SOL    HW115245   6.605   6.642   6.108 -0.3110 -0.0035 -0.8556
 4782SOL    HW215246   6.464   6.616   6.030 -0.3019 -4.8402  0.4570
 4783SOL     OW15247   7.014   5.983   2.034  0.2317 -0.5419  0.2517
 4783SOL    HW115248   7.077   5.914   1.997  1.9416  0.5245  1.0597
 4783SOL    HW215249   6.968   6.030   1.959  2.7914  0.8050 -0.5872
 4784SOL     OW15250   0.629   2.002   1.458  0.4432  0.1025 -0.9465
 4784SOL    HW115251   0.615   1.909   1.493  3.2465 -1.2801 -3.1414
 4784SOL    HW215252   0.540   2.045   1.444 -0.9433 -1.2045  2.4619
 4785SOL     OW15253   6.181   6.028   1.430  0.1648  0.3577 -0.5536
 4785SOL    HW115254   6.151   6.020   1.525  0.2646  0.5606 -0.5042
 4785SOL    HW215255   6.164   6.122   1.397 -0.0741  0.2290 -0.8065
 4786SOL     OW15256   4.312   5.465   2.922 -0.3721  0.1495 -0.5846
 4786SOL    HW115257   4.344   5.371   2.914  0.5629  0.3961  0.0277
 4786SOL    HW215258   4.214   5.465   2.943 -1.0362 -0.6131 -3.2559
 4787SOL     OW15259   3.008   3.560   2.232 -0.4859  0.0243  0.1245
 4787SOL    HW115260   3.038   3.655   2.227  0.6989 -0.3961 -2.2306
 4787SOL    HW215261   3.079   3.504   2.276  0.6767 -0.3692 -2.1279
 4788SOL     OW15262   1.844   3.392   2.998  0.2772  0.0810 -0.4030
 4788SOL    HW115263   1.756   3.353   2.973  0.1452 -0.3202  0.6358
 4788SOL    HW215264   1.867   3.366   3.092  0.6509  1.6815 -0.0144
 4789SOL     OW15265   6.805   0.314   4.714 -0.5523 -0.1990  0.3191
 4789SOL    HW115266   6.728   0.297   4.653 -0.0436 -0.2283 -0.3274
 4789SOL    HW215267   6.771   0.333   4.806 -1.3539  0.2144 -0.0478
 4790SOL     OW15268   6.045   4.677   2.300  0.4581  0.4046 -0.0041
 4790SOL    HW115269   6.049   4.668   2.400 -0.6776  0.4275  0.0553
 4790SOL    HW215270   6.090   4.762   2.272  1.1367  0.1981  0.4487
 4791SOL     OW15271   6.998   5.356   4.608 -0.1346 -0.0415 -0.0044
 4791SOL    HW115272   6.912   5.327   4.649 -0.1648  0.1612  0.0749
 4791SOL    HW215273   7.008   5.455   4.617 -1.0223  0.2933 -2.1291
 4792SOL     OW15274   6.526   1.239   1.237  0.1636 -0.2469 -0.5986
 4792SOL    HW115275   6.563   1.312   1.180 -0.0957  1.6943  1.5644
 4792SOL    HW215276   6.598   1.173   1.258  1.4459  1.3597  0.3152
 4793SOL     OW15277   1.316   5.327   3.589  0.1482 -0.0237 -0.2046
 4793SOL    HW115278   1.339   5.245   3.536 -1.0265 -0.8987  0.5690
 4793SOL    HW215279   1.220   5.324   3.614 -0.2095  2.1791 -1.0845
 4794SOL     OW15280   4.843   0.415   6.774  0.2134  0.5509  0.6376
 4794SOL    HW115281   4.868   0.438   6.681 -1.0357 -0.5117  0.0066
 4794SOL    HW215282   4.892   0.333   6.803 -2.3367 -1.5710 -0.6223
 4795SOL     OW15283   0.080   1.327   4.111 -0.8302  0.5281 -0.9355
 4795SOL    HW115284   0.020   1.292   4.183 -2.0107  0.8800 -1.7234
 4795SOL    HW215285   0.109   1.251   4.052 -1.4477  0.5173 -1.2322
 4796SOL     OW15286   5.351   2.975   0.691  0.6997  0.6939 -0.4713
 4796SOL    HW115287   5.370   3.068   0.658  0.6282  0.8589 -0.0569
 4796SOL    HW215288   5.289   2.930   0.627 -0.9346  1.6655  0.3518
 4797SOL     OW15289   6.847   1.371   2.216  0.3691 -0.1842 -0.2205
 4797SOL    HW115290   6.857   1.274   2.239  1.2933 -0.4359 -1.5722
 4797SOL    HW215291   6.936   1.409   2.191 -0.1880  0.6714 -1.0007
 4798SOL     OW15292   5.002   5.834   1.724  0.6060 -0.1450 -0.8931
 4798SOL    HW115293   4.908   5.830   1.691 -0.2149  1.9532  0.9267
 4798SOL    HW215294   5.015   5.764   1.795  0.2650 -0.1092 -0.7933
 4799SOL     OW15295   5.869   0.952   5.188 -0.6315  0.4118 -0.4648
 4799SOL    HW115296   5.939   0.968   5.119 -1.3845 -0.8562 -1.5629
 4799SOL    HW215297   5.833   1.039   5.220 -2.4264  1.0937 -3.9370
 4800SOL     OW15298   1.616   2.148   3.426  0.4249  0.0178  0.3035
 4800SOL    HW115299   1.541   2.209   3.403  0.8911 -0.3037 -2.2960
 4800SOL    HW215300   1.699   2.202   3.443  0.0382  0.2657  1.5041
 4801SOL     OW15301   0.180   0.120   4.791 -0.0993  0.4600  0.0346
 4801SOL    HW115302   0.273   0.091   4.772 -0.3090 -1.2746  1.4563
 4801SOL    HW215303   0.161   0.205   4.742  1.9349  0.4048 -0.9290
 4802SOL     OW15304   1.499   1.893   3.414  0.0823  0.2109 -0.8434
 4802SOL    HW115305   1.570   1.963   3.424 -0.6130  0.6108  2.2331
 4802SOL    HW215306   1.505   1.853   3.322  1.4854  3.1697 -2.2038
 4803SOL     OW15307   0.473   0.327   4.729 -0.1576 -0.0812 -0.0139
 4803SOL    HW115308   0.533   0.343   4.651  1.4986 -1.8860  0.8078
 4803SOL    HW215309   0.528   0.305   4.809 -1.8911 -0.2467  1.1788
 4804SOL     OW15310   1.954   5.812   4.328 -0.1783 -0.3132 -0.7545
 4804SOL    HW115311   1.867   5.862   4.326  0.7603  1.3945 -1.6082
 4804SOL    HW215312   1.938   5.715   4.311 -2.1146 -0.4155  1.2424
 4805SOL     OW15313   1.687   5.406   4.125  0.3178 -0.2960 -0.4139
 4805SOL    HW115314   1.716   5.422   4.030 -0.3332  0.1751 -0.5379
 4805SOL    HW215315   1.606   5.461   4.145  0.6887 -0.0821  0.5481
 4806SOL     OW15316   1.248   4.136   5.749  0.1149 -0.2981 -0.3588
 4806SOL    HW115317   1.333   4.128   5.801 -1.1331 -0.4843  1.7785
 4806SOL    HW215318   1.203   4.047   5.745 -0.5791  0.0490 -0.4042
 4807SOL     OW15319   0.654   4.690   5.085 -0.0701  0.4113  0.4848
 4807SOL    HW115320   0.589   4.645   5.146 -0.3293  0.4968  0.2702
 4807SOL    HW215321   0.607   4.758   5.028  0.3458  1.1161  0.9536
 4808SOL     OW15322   0.788   6.281   0.397  0.1570  0.3403 -0.1921
 4808SOL    HW115323   0.811   6.252   0.490  0.4662 -1.0372 -0.6861
 4808SOL    HW215324   0.705   6.337   0.400 -0.1697 -0.1735  0.8547
 4809SOL     OW15325   2.377   4.324   6.744 -0.4347  0.2041 -0.7436
 4809SOL    HW115326   2.284   4.333   6.710 -0.0136 -0.3707 -2.1393
 4809SOL    HW215327   2.410   4.231   6.726  1.1244  0.9815 -2.2252
 4810SOL     OW15328   3.558   5.204   6.222 -0.5579  0.1393  0.1245
 4810SOL    HW115329   3.558   5.235   6.126 -0.7135 -0.6892 -0.1496
 4810SOL    HW215330   3.503   5.121   6.230  0.2652 -0.3578  0.7447
 4811SOL     OW15331   6.518   4.232   2.152 -0.0419 -0.0745  0.5587
 4811SOL    HW115332   6.495   4.293   2.228  0.9521 -1.6877  2.2109
 4811SOL    HW215333   6.616   4.236   2.134  0.2552 -2.0407  1.5150
 4812SOL     OW15334   3.244   6.975   2.410 -0.0405  0.4164  0.2602
 4812SOL    HW115335   3.314   6.944   2.345 -0.0914 -1.9329  1.2386
 4812SOL    HW215336   3.168   7.017   2.360  0.8456  0.5598 -1.0145
 4813SOL     OW15337   6.008   5.711   1.329  0.4383  0.2706  0.2157
 4813SOL    HW115338   6.092   5.764   1.340 -0.3676  1.4096  1.0050
 4813SOL    HW215339   5.956   5.747   1.251 -0.6683  1.4349  1.4568
 4814SOL     OW15340   4.191   2.278   2.740 -0.3407  0.1331 -0.8164
 4814SOL    HW115341   4.192   2.238   2.649  0.6766 -0.3417 -0.5996
 4814SOL    HW215342   4.228   2.371   2.736  0.3622 -0.1390 -0.7814
 4815SOL     OW15343   1.844   2.823   4.389  0.6708  0.1780 -0.1134
 4815SOL    HW115344   1.768   2.772   4.427  1.2254 -0.0102  0.7785
 4815SOL    HW215345   1.922   2.819   4.452  0.3071  3.2294  0.6877
 4816SOL     OW15346   6.089   4.202   0.172 -0.0791 -0.5181  0.3087
 4816SOL    HW115347   6.155   4.152   0.116  0.1734 -0.7535  0.8097
 4816SOL    HW215348   6.008   4.224   0.116 -0.2131 -1.5190  0.0774
 4817SOL     OW15349   2.446   2.760   6.435  0.2799 -0.0155 -0.3156
 4817SOL    HW115350   2.509   2.685   6.458 -0.7178 -1.0530 -0.8509
 4817SOL    HW215351   2.370   2.761   6.500 -1.6795 -1.9061 -2.3690
 4818SOL     OW15352   6.257   1.863   1.887 -0.3737 -0.7204  0.2653
 4818SOL    HW115353   6.189   1.838   1.819  0.5805 -1.2780 -0.5043
 4818SOL    HW215354   6.348   1.839   1.854  0.3079  0.9655  0.8274
 4819SOL     OW15355   2.603   1.826   0.909 -0.7633 -0.0470  0.1673
 4819SOL    HW115356   2.596   1.740   0.859  0.5003  0.5140 -1.0453
 4819SOL    HW215357   2.524   1.884   0.888  0.1816  0.5634 -2.0388
 4820SOL     OW15358   4.733   5.440   2.399  0.0330  0.1698 -0.9436
 4820SOL    HW115359   4.788   5.394   2.468 -1.1700 -2.3835 -1.5386
 4820SOL    HW215360   4.761   5.409   2.308 -2.6204 -1.7079 -1.2418
 4821SOL     OW15361   6.611   2.377   6.472 -0.5937  0.2718 -0.2503
 4821SOL    HW115362   6.670   2.441   6.522 -1.2352  1.8489 -1.4061
 4821SOL    HW215363   6.653   2.354   6.385 -0.9057  0.0211 -0.3357
 4822SOL     OW15364   0.688   2.836   0.223 -0.0581  0.0531  0.0807
 4822SOL    HW115365   0.769   2.806   0.173  0.4478  0.4995  0.6122
 4822SOL    HW215366   0.698   2.814   0.320 -1.2383 -1.2338 -0.0618
 4823SOL     OW15367   3.847   1.422   2.106 -0.1032 -0.2540  0.0198
 4823SOL    HW115368   3.919   1.486   2.079  0.2771 -0.6147  0.1733
 4823SOL    HW215369   3.772   1.472   2.150 -0.1008  0.1638 -0.4358
 4824SOL     OW15370   4.200   4.839   6.682  0.0429  0.0649  0.2877
 4824SOL    HW115371   4.278   4.895   6.710  0.3942 -0.2373 -0.0900
 4824SOL    HW215372   4.151   4.808   6.763  0.5489 -0.0787  0.5410
 4825SOL     OW15373   6.281   1.938   0.930 -0.2709 -0.5031 -0.7702
 4825SOL    HW115374   6.374   1.974   0.927 -1.1690  1.9956 -1.2436
 4825SOL    HW215375   6.218   2.010   0.960 -1.8958 -2.5733  1.1231
 4826SOL     OW15376   3.215   1.960   2.773 -0.3496  0.3363 -0.1547
 4826SOL    HW115377   3.188   1.888   2.710 -2.9397  1.1276 -0.0706
 4826SOL    HW215378   3.250   2.038   2.721 -0.2821  0.1123 -0.4493
 4827SOL     OW15379   4.322   5.600   6.033 -0.0644 -0.0901 -0.0309
 4827SOL    HW115380   4.308   5.682   6.088 -1.8207 -0.0614 -0.4650
 4827SOL    HW215381   4.314   5.622   5.936 -1.0577 -0.8417 -0.1345
 4828SOL     OW15382   0.719   6.794   2.947  0.0133 -0.1376 -0.2305
 4828SOL    HW115383   0.639   6.832   2.993 -0.6551 -2.4823  0.6977
 4828SOL    HW215384   0.690   6.732   2.875  1.0383  0.2157 -0.9677
 4829SOL     OW15385   5.988   1.079   0.628  0.5036 -0.1701  0.7098
 4829SOL    HW115386   5.977   0.981   0.640 -0.9280 -0.0569  0.5040
 4829SOL    HW215387   6.085   1.103   0.638  1.0356 -1.7255 -0.1923
 4830SOL     OW15388   3.841   2.062   0.195  0.1388 -0.2939  0.0894
 4830SOL    HW115389   3.870   2.156   0.211  0.6220 -0.5285  0.6797
 4830SOL    HW215390   3.742   2.058   0.186  0.0368  0.1733  0.8586
 4831SOL     OW15391   3.771   2.734   0.008  0.1389 -0.3031  0.1026
 4831SOL    HW115392   3.678   2.742   0.044  0.2319 -2.5888  0.9997
 4831SOL    HW215393   3.769   2.682  -0.078  0.5539 -0.0560 -0.0595
 4832SOL     OW15394   4.183   4.365   5.638 -0.2923 -0.3673  0.4317
 4832SOL    HW115395   4.197   4.287   5.699  0.3778 -0.9382 -0.4173
 4832SOL    HW215396   4.215   4.341   5.546 -1.4151  0.4175 -0.1868
 4833SOL     OW15397   2.817   1.435   0.612 -0.3640  0.1839 -0.0378
 4833SOL    HW115398   2.829   1.458   0.516  1.0868 -0.7791 -0.1216
 4833SOL    HW215399   2.768   1.349   0.620 -0.3527  0.1866  0.0722
 4834SOL     OW15400   5.042   0.722   4.195  0.1785 -0.4246  1.0430
 4834SOL    HW115401   5.093   0.783   4.257  1.7004 -0.9172  0.3247
 4834SOL    HW215402   5.097   0.641   4.176 -0.4870 -0.5441 -0.5237
 4835SOL     OW15403   3.894   0.270   3.987  0.4890  0.4116 -0.0079
 4835SOL    HW115404   3.840   0.333   3.931  0.9448 -1.5259 -2.8338
 4835SOL    HW215405   3.839   0.191   4.013  0.5818  0.8097  1.5236
 4836SOL     OW15406   5.451   2.404   4.513  0.0203  0.1178 -0.5871
 4836SOL    HW115407   5.378   2.400   4.581  0.3356  0.7490 -0.1982
 4836SOL    HW215408   5.419   2.366   4.426 -0.5554 -0.2086 -0.2327
 4837SOL     OW15409   6.102   5.262   4.292  0.1270  0.1440 -0.3837
 4837SOL    HW115410   6.120   5.288   4.197  0.9983  0.6921 -0.0722
 4837SOL    HW215411   6.013   5.216   4.297 -0.2851  0.7922 -1.3439
 4838SOL     OW15412   3.055   6.878   4.488 -0.4571  0.2759  0.1348
 4838SOL    HW115413   3.091   6.856   4.578  0.8600  3.9422  0.6904
 4838SOL    HW215414   3.130   6.912   4.430 -1.4904 -0.8402 -1.9596
 4839SOL     OW15415   4.044   6.205   4.469  0.4385 -0.2571  0.9217
 4839SOL    HW115416   3.948   6.176   4.466  0.2032  0.5125  0.7039
 4839SOL    HW215417   4.049   6.303   4.490  1.1437 -0.1426  0.2935
 4840SOL     OW15418   0.290   6.915   6.949 -0.2888 -0.2517  0.8433
 4840SOL    HW115419   0.287   7.003   6.902 -2.7924 -1.8587 -2.3750
 4840SOL    HW215420   0.385   6.883   6.951  0.7322  2.4723  2.3135
 4841SOL     OW15421   4.907   3.443   5.273  0.3278  0.0426  0.0846
 4841SOL    HW115422   4.845   3.509   5.231 -0.7614 -1.1058 -0.1934
 4841SOL    HW215423   4.939   3.379   5.203 -1.5210 -1.9072  0.8754
 4842SOL     OW15424   6.754   0.696   6.504 -0.1132 -0.0256  0.2837
 4842SOL    HW115425   6.669   0.659   6.466  1.0389 -1.7761 -0.6925
 4842SOL    HW215426   6.779   0.646   6.586  0.3878 -0.0311  0.1302
 4843SOL     OW15427   4.746   4.759   6.526 -0.3582  0.1253 -0.2973
 4843SOL    HW115428   4.841   4.760   6.495 -0.6923  1.8279 -1.3714
 4843SOL    HW215429   4.688   4.721   6.454 -0.4561 -1.5402  0.6065
 4844SOL     OW15430   3.650   1.344   4.535 -0.1990  0.1937  0.2712
 4844SOL    HW115431   3.692   1.434   4.519 -0.3653  0.2554  0.1762
 4844SOL    HW215432   3.674   1.282   4.461  0.1176  0.0858  0.4619
 4845SOL     OW15433   1.687   6.198   0.281  0.1478  0.1378  0.0797
 4845SOL    HW115434   1.738   6.218   0.198  1.9337 -0.3182  1.0061
 4845SOL    HW215435   1.713   6.108   0.315 -1.4405 -0.1927  0.5203
 4846SOL     OW15436   1.711   0.130   1.521 -0.1054  0.3773 -0.2571
 4846SOL    HW115437   1.788   0.190   1.502  0.3607 -0.5296 -1.3146
 4846SOL    HW215438   1.726   0.082   1.608 -0.5749  1.8920  0.6949
 4847SOL     OW15439   5.157   6.811   0.238  0.3275 -0.2498 -0.0592
 4847SOL    HW115440   5.254   6.831   0.247  0.8027 -1.9797 -0.9697
 4847SOL    HW215441   5.123   6.846   0.150 -0.3777  2.0199  1.0350
 4848SOL     OW15442   2.659   1.412   6.929 -0.5806  0.1604 -0.0852
 4848SOL    HW115443   2.650   1.510   6.948  0.1389 -0.2237  2.6855
 4848SOL    HW215444   2.735   1.397   6.867 -0.0319  1.3157  0.2810
 4849SOL     OW15445   2.436   0.454   0.587  0.5688  0.3343  0.0717
 4849SOL    HW115446   2.386   0.540   0.584  0.0795  0.0668  0.3823
 4849SOL    HW215447   2.371   0.378   0.594  1.0456  0.0249  1.3429
 4850SOL     OW15448   4.537   2.564   2.061  0.3546 -0.2832  0.0961
 4850SOL    HW115449   4.534   2.550   1.962 -3.5704  0.4857 -0.0328
 4850SOL    HW215450   4.531   2.662   2.080 -1.2429 -0.5567  1.0774
 4851SOL     OW15451   4.281   2.395   0.407  0.3204  0.4003 -0.0368
 4851SOL    HW115452   4.229   2.394   0.492  0.4244 -1.6417  0.0514
 4851SOL    HW215453   4.374   2.427   0.425 -0.1072  1.4921  0.2979
 4852SOL     OW15454   1.991   3.928   5.309  0.2342  0.0709 -0.2907
 4852SOL    HW115455   1.930   3.897   5.382  1.1552  2.0473  1.4385
 4852SOL    HW215456   2.063   3.859   5.294  1.0804  0.3659  1.9996
 4853SOL     OW15457   2.174   5.394   4.036  0.1933 -0.3375 -0.3712
 4853SOL    HW115458   2.195   5.345   3.952 -1.3337 -1.4435 -0.1547
 4853SOL    HW215459   2.097   5.456   4.020  0.9287  0.6505 -0.1734
 4854SOL     OW15460   4.124   2.081   6.206 -0.0330  0.0790 -0.6782
 4854SOL    HW115461   4.099   1.995   6.161  1.1667 -0.0674 -1.1032
 4854SOL    HW215462   4.209   2.068   6.257  0.4197  1.1144 -1.1265
 4855SOL     OW15463   3.024   5.537   6.382  0.6899  0.1668  0.4388
 4855SOL    HW115464   2.968   5.487   6.316  1.2726  1.0410 -0.7609
 4855SOL    HW215465   3.014   5.495   6.472 -1.4310 -0.0470  0.1598
 4856SOL     OW15466   5.389   5.203   2.118 -0.4808  0.0329 -0.9365
 4856SOL    HW115467   5.402   5.286   2.173 -2.9342  0.6009 -1.0881
 4856SOL    HW215468   5.367   5.126   2.178  0.9202 -0.3432 -0.8670
 4857SOL     OW15469   6.981   2.926   2.245 -0.1174  0.0406 -0.1859
 4857SOL    HW115470   6.918   2.978   2.187  0.7802  1.2214 -0.1272
 4857SOL    HW215471   7.075   2.951   2.224  0.2702 -0.2900  1.0623
 4858SOL     OW15472   1.944   0.842   2.699  0.0634 -0.0545 -0.1252
 4858SOL    HW115473   1.968   0.887   2.613  4.0510  0.7491  1.1739
 4858SOL    HW215474   1.915   0.911   2.766  1.5187  0.0394  0.4553
 4859SOL     OW15475   6.632   1.576   6.821 -0.5351 -0.2979  0.6039
 4859SOL    HW115476   6.545   1.618   6.795 -0.4914 -0.2067  0.6041
 4859SOL    HW215477   6.703   1.647   6.827 -0.6067 -0.2770  1.2495
 4860SOL     OW15478   3.692   0.482   2.297  0.1508  0.3797 -0.2186
 4860SOL    HW115479   3.608   0.509   2.250 -0.5391  0.0167  0.7775
 4860SOL    HW215480   3.709   0.545   2.373 -0.2470 -0.6249  0.7324
 4861SOL     OW15481   3.262   0.011   4.929 -0.0344 -0.3213 -0.0930
 4861SOL    HW115482   3.304   0.075   4.866 -0.4742 -0.3578 -0.4245
 4861SOL    HW215483   3.247   0.056   5.018  1.1400 -0.4504  0.1858
 4862SOL     OW15484   2.773   3.233   0.709  0.0367 -0.1094 -0.2279
 4862SOL    HW115485   2.863   3.258   0.743  0.0569  1.7953 -1.5267
 4862SOL    HW215486   2.703   3.282   0.760 -0.1521 -0.1650 -0.4312
 4863SOL     OW15487   1.808   3.658   1.887 -0.1400  0.2463  0.3307
 4863SOL    HW115488   1.902   3.624   1.875 -0.0784  0.0415  1.2904
 4863SOL    HW215489   1.805   3.756   1.867 -0.0415 -0.0349 -1.1691
 4864SOL     OW15490   5.748   0.202   0.071 -0.1409  0.3032  0.3417
 4864SOL    HW115491   5.833   0.252   0.060  0.5667 -1.2619 -2.0570
 4864SOL    HW215492   5.758   0.109   0.036 -2.3250 -0.5315  1.6772
 4865SOL     OW15493   5.175   3.659   6.522  0.4533  0.0402  0.5259
 4865SOL    HW115494   5.107   3.640   6.593 -0.7945  0.8863 -0.4052
 4865SOL    HW215495   5.132   3.652   6.432  1.6030  0.6303 -0.0897
 4866SOL     OW15496   2.005   6.560   4.220  0.0970  0.4739 -0.5051
 4866SOL    HW115497   1.931   6.587   4.283  1.3975  0.4580  1.1115
 4866SOL    HW215498   1.986   6.469   4.183  0.9862 -1.2698  2.8698
 4867SOL     OW15499   5.073   5.357   4.518 -0.2480  0.2359 -0.2524
 4867SOL    HW115500   5.002   5.359   4.448 -0.3703 -0.9934 -0.1780
 4867SOL    HW215501   5.074   5.444   4.567 -0.3911  0.9913 -1.5386
 4868SOL     OW15502   5.662   4.390   5.286 -0.4979 -0.7324 -0.0239
 4868SOL    HW115503   5.619   4.453   5.221  1.1476 -0.2095 -0.6363
 4868SOL    HW215504   5.694   4.441   5.365  1.1004 -0.7186 -0.6513
 4869SOL     OW15505   2.093   0.245   5.200  0.3825 -1.0637 -0.5523
 4869SOL    HW115506   2.180   0.248   5.248  0.0987 -1.1884 -0.0188
 4869SOL    HW215507   2.032   0.180   5.246 -0.0499 -0.8516 -0.8202
 4870SOL     OW15508   5.916   2.984   0.186  0.0760 -0.1476 -0.0819
 4870SOL    HW115509   5.911   2.925   0.267  1.9688  1.1007  1.0068
 4870SOL    HW215510   5.974   2.941   0.116  1.1685  0.2181  0.5734
 4871SOL     OW15511   6.153   2.708   1.405  0.1645  0.1291  0.2623
 4871SOL    HW115512   6.238   2.757   1.383  0.2123 -0.5117 -1.0791
 4871SOL    HW215513   6.098   2.699   1.322 -1.5003  1.0321  1.2320
 4872SOL     OW15514   2.068   5.886   4.928 -0.2372  0.5790  0.4474
 4872SOL    HW115515   1.999   5.856   4.862  0.0581 -0.7292  0.7131
 4872SOL    HW215516   2.080   5.985   4.920 -1.6189  0.7314 -0.0957
 4873SOL     OW15517   3.493   2.466   0.160 -0.5213 -0.1883  0.4956
 4873SOL    HW115518   3.498   2.561   0.190  1.5224 -0.5283  1.4390
 4873SOL    HW215519   3.484   2.463   0.061  0.5585  1.0081  0.3331
 4874SOL     OW15520   0.945   6.668   1.746  0.4427 -0.9743  0.1070
 4874SOL    HW115521   0.906   6.737   1.686 -0.7962 -0.4714  1.4264
 4874SOL    HW215522   1.041   6.688   1.762  0.5421 -0.5812 -0.9392
 4875SOL     OW15523   0.806   6.992   0.527  0.6820  0.4104 -0.1271
 4875SOL    HW115524   0.815   6.940   0.442  0.3443  0.0772  0.0355
 4875SOL    HW215525   0.856   7.078   0.519  1.7957 -0.2147 -0.1798
 4876SOL     OW15526   1.057   6.242   5.949 -0.1430 -0.2139 -0.4557
 4876SOL    HW115527   1.154   6.241   5.925 -0.2569 -0.0680 -0.9468
 4876SOL    HW215528   1.046   6.273   6.043  0.2676  0.0966 -0.5058
 4877SOL     OW15529   5.119   0.921   2.085  0.3910  0.6615  0.2181
 4877SOL    HW115530   5.194   0.986   2.087  0.2798  0.7901  1.8894
 4877SOL    HW215531   5.062   0.934   2.167  1.6089 -2.9292  1.8629
 4878SOL     OW15532   2.801   2.288   1.108  0.0142 -0.2848 -0.2445
 4878SOL    HW115533   2.867   2.248   1.044 -1.5427 -1.9831 -0.8928
 4878SOL    HW215534   2.792   2.229   1.188 -0.9070 -0.2393 -0.3048
 4879SOL     OW15535   0.185   2.461   5.208  0.4913  0.1057 -0.2323
 4879SOL    HW115536   0.258   2.394   5.193  0.8480  0.2327  0.8209
 4879SOL    HW215537   0.218   2.533   5.269 -0.3729  0.4211 -0.1210
 4880SOL     OW15538   1.186   4.688   3.220 -0.2649  1.0431 -0.3623
 4880SOL    HW115539   1.193   4.769   3.163 -3.9978  2.0395  0.3023
 4880SOL    HW215540   1.131   4.709   3.301  0.2220 -1.7026  0.7967
 4881SOL     OW15541   0.975   4.522   0.218  0.2759  0.1915  0.3160
 4881SOL    HW115542   0.990   4.551   0.124  0.4387 -0.2859  0.1915
 4881SOL    HW215543   1.046   4.457   0.245  0.8360  1.1197  1.1220
 4882SOL     OW15544   0.659   6.639   1.723 -0.0342 -0.1012  0.4156
 4882SOL    HW115545   0.757   6.650   1.742  0.0594  1.6962 -0.8712
 4882SOL    HW215546   0.646   6.559   1.664  0.6431 -0.3765  0.6209
 4883SOL     OW15547   3.286   4.427   6.374  0.0987 -0.2705 -0.7024
 4883SOL    HW115548   3.329   4.413   6.463  0.2907  0.4904 -0.6629
 4883SOL    HW215549   3.331   4.503   6.327  0.5229 -1.1644 -1.7937
 4884SOL     OW15550   6.888   0.893   1.116  0.3972  0.3614 -0.0751
 4884SOL    HW115551   6.953   0.959   1.152  0.5572 -0.8083  1.8920
 4884SOL    HW215552   6.909   0.802   1.151 -0.1371 -0.6892 -2.2946
 4885SOL     OW15553   2.921   0.303   6.826  0.3880  0.6190 -0.3271
 4885SOL    HW115554   2.855   0.265   6.890  1.3656  2.4762  1.9599
 4885SOL    HW215555   3.008   0.254   6.835  0.1483 -0.0140 -1.3004
 4886SOL     OW15556   6.291   3.344   2.930 -0.0677  0.1055  0.0427
 4886SOL    HW115557   6.283   3.435   2.970 -0.3463 -0.9856  2.6465
 4886SOL    HW215558   6.248   3.343   2.840 -0.0139  2.5336 -0.0639
 4887SOL     OW15559   5.092   2.623   3.867 -0.5685  0.3045  0.2092
 4887SOL    HW115560   5.097   2.575   3.779 -2.5027  2.8722 -1.4264
 4887SOL    HW215561   5.133   2.714   3.858 -0.0841  0.3409  2.2571
 4888SOL     OW15562   4.843   0.275   4.088 -0.2292 -0.5109 -0.1915
 4888SOL    HW115563   4.858   0.370   4.061  0.4335 -0.1062  1.4695
 4888SOL    HW215564   4.860   0.216   4.010  1.2799  0.6119 -0.7771
 4889SOL     OW15565   6.654   3.691   1.713  0.0262  0.1048 -0.0268
 4889SOL    HW115566   6.638   3.596   1.741  0.5756 -1.6202 -4.6744
 4889SOL    HW215567   6.751   3.711   1.717  0.0233  0.1036  0.0418
 4890SOL     OW15568   2.554   6.356   1.256 -0.0890 -0.4843  0.7464
 4890SOL    HW115569   2.519   6.445   1.227  0.3237 -0.1765  1.1898
 4890SOL    HW215570   2.527   6.338   1.350  1.4845  0.0590  1.3308
 4891SOL     OW15571   2.149   2.512   6.068 -0.0022  0.2366  0.1628
 4891SOL    HW115572   2.116   2.604   6.087 -1.0714  0.3700 -2.0314
 4891SOL    HW215573   2.208   2.513   5.988  1.3729 -0.7741  1.1180
 4892SOL     OW15574   3.303   5.681   0.510 -0.2609 -0.1360 -1.3945
 4892SOL    HW115575   3.289   5.700   0.413 -0.1037  0.8987 -1.2208
 4892SOL    HW215576   3.216   5.656   0.553 -0.4247 -0.0625 -1.6846
 4893SOL     OW15577   4.519   5.469   1.752  0.2306  0.8011  0.3771
 4893SOL    HW115578   4.481   5.552   1.792 -1.3952  0.4190 -0.2561
 4893SOL    HW215579   4.459   5.438   1.678  2.0593  0.3723 -0.9993
 4894SOL     OW15580   2.169   5.589   4.248  0.7442 -0.1950 -0.1317
 4894SOL    HW115581   2.072   5.608   4.238  0.8118  0.3637  0.2353
 4894SOL    HW215582   2.198   5.526   4.175 -0.4338 -2.4654  1.2411
 4895SOL     OW15583   1.337   4.817   2.568 -0.4757  0.0322 -0.1242
 4895SOL    HW115584   1.299   4.726   2.553  0.5038 -0.5176  0.5992
 4895SOL    HW215585   1.396   4.842   2.490 -0.3988 -0.1355 -0.1192
 4896SOL     OW15586   5.184   2.903   0.475  0.2731  0.5930 -0.0116
 4896SOL    HW115587   5.127   2.821   0.465  0.6715  0.2723  0.2860
 4896SOL    HW215588   5.133   2.983   0.443  0.6653 -0.0435 -2.3919
 4897SOL     OW15589   6.505   0.735   5.552  0.5464  0.7433 -0.2436
 4897SOL    HW115590   6.406   0.729   5.541  0.4492 -0.2722  0.8610
 4897SOL    HW215591   6.527   0.809   5.614  0.6667  2.4005 -2.1686
 4898SOL     OW15592   6.346   6.952   0.398  0.0635 -0.0922 -0.4782
 4898SOL    HW115593   6.416   6.933   0.330  2.5704  1.0179  1.6051
 4898SOL    HW215594   6.301   7.038   0.376 -0.7150 -0.8101 -1.8344
 4899SOL     OW15595   6.177   4.836   3.166  0.1395 -0.2417  0.2911
 4899SOL    HW115596   6.226   4.834   3.079 -3.9836 -0.2845 -2.2900
 4899SOL    HW215597   6.080   4.819   3.150 -0.9519  0.3453  4.9019
 4900SOL     OW15598   1.800   6.677   0.038 -0.1191 -0.3836 -0.4711
 4900SOL    HW115599   1.845   6.764   0.016 -0.3792  0.2011  1.1736
 4900SOL    HW215600   1.857   6.625   0.102 -0.7220 -0.6863 -0.1761
 4901SOL     OW15601   5.472   1.373   4.469  0.6595  0.3747 -0.1396
 4901SOL    HW115602   5.477   1.278   4.500  3.5879 -0.7192 -3.3414
 4901SOL    HW215603   5.395   1.383   4.406 -0.9677  0.7792  1.8264
 4902SOL     OW15604   1.367   1.455   2.118  0.4358 -0.5049  0.2375
 4902SOL    HW115605   1.278   1.416   2.140  1.7139 -3.9377 -0.0734
 4902SOL    HW215606   1.385   1.447   2.020  0.2283  2.3149 -0.1104
 4903SOL     OW15607   6.359   1.823   2.154 -0.0128 -0.0717 -0.3066
 4903SOL    HW115608   6.302   1.746   2.126 -2.7711  1.8030 -0.1690
 4903SOL    HW215609   6.368   1.887   2.078 -0.4335  0.9891  0.5261
 4904SOL     OW15610   3.417   0.412   4.812  0.5238  0.0975 -0.2479
 4904SOL    HW115611   3.491   0.395   4.746  1.8044  1.7364  0.6871
 4904SOL    HW215612   3.423   0.346   4.887  0.7637 -0.0476 -0.3934
 4905SOL     OW15613   2.905   6.350   4.511  0.2256  0.6524 -0.1173
 4905SOL    HW115614   2.881   6.377   4.418 -0.5009  0.8821  0.1318
 4905SOL    HW215615   2.954   6.424   4.556  1.7311  0.0766 -0.7226
 4906SOL     OW15616   3.365   2.881   3.062  0.3849 -0.9440 -0.2786
 4906SOL    HW115617   3.458   2.879   3.097  0.3989 -0.8028 -0.3096
 4906SOL    HW215618   3.301   2.869   3.138  0.4064 -0.3711 -0.1640
 4907SOL     OW15619   6.617   5.427   3.828  0.4293 -0.3544 -0.0520
 4907SOL    HW115620   6.553   5.468   3.762  0.0948 -2.6459 -1.2425
 4907SOL    HW215621   6.699   5.485   3.834  0.7255 -0.3011 -2.9408
 4908SOL     OW15622   5.610   2.071   6.855  0.1949 -0.4585 -0.0333
 4908SOL    HW115623   5.698   2.118   6.864  0.4410 -1.0294  0.6091
 4908SOL    HW215624   5.586   2.028   6.942 -1.2130  0.5321  0.1075
 4909SOL     OW15625   3.804   4.844   6.471  0.1126  1.0660 -0.2590
 4909SOL    HW115626   3.863   4.897   6.532  1.0998  0.0502 -0.2976
 4909SOL    HW215627   3.708   4.866   6.490  0.3635  0.4709  1.9556
 4910SOL     OW15628   6.728   0.533   6.157  0.1472 -0.7817  0.0397
 4910SOL    HW115629   6.695   0.518   6.250  0.5763 -0.5632  0.2326
 4910SOL    HW215630   6.804   0.598   6.158 -0.9173  0.5094 -0.6636
 4911SOL     OW15631   6.665   5.251   6.334  0.2608  1.2236  0.2558
 4911SOL    HW115632   6.578   5.235   6.381  0.8453 -1.5076  0.5631
 4911SOL    HW215633   6.671   5.194   6.252  1.9564  0.9360  0.5297
 4912SOL     OW15634   5.955   5.282   2.927  0.2202 -0.3543  1.0535
 4912SOL    HW115635   5.927   5.213   2.994  0.5468  0.2264  1.7922
 4912SOL    HW215636   6.006   5.238   2.853  1.3351 -0.7680  2.0530
 4913SOL     OW15637   2.501   3.862   5.387  0.0778 -0.2164 -0.2474
 4913SOL    HW115638   2.472   3.888   5.295  0.6292  3.0315  0.3796
 4913SOL    HW215639   2.597   3.885   5.400 -0.1918  0.1527  1.3732
 4914SOL     OW15640   2.032   3.941   1.994 -0.6924  0.1900 -0.0133
 4914SOL    HW115641   2.047   4.019   1.933  0.1778  0.0684  0.0409
 4914SOL    HW215642   2.113   3.927   2.051 -0.6596 -1.0471 -0.3455
 4915SOL     OW15643   1.701   6.114   4.713 -0.2429  0.0209 -0.5396
 4915SOL    HW115644   1.672   6.020   4.697  0.7344 -0.3937  0.0442
 4915SOL    HW215645   1.790   6.115   4.759 -0.1941  1.2314 -0.6108
 4916SOL     OW15646   6.987   1.470   3.511  0.0420  0.2226 -0.0183
 4916SOL    HW115647   6.901   1.445   3.555  2.0386 -3.5690  2.3434
 4916SOL    HW215648   7.038   1.532   3.571  0.5587 -0.7438  0.5722
 4917SOL     OW15649   5.542   6.429   0.512 -0.6130  0.0788 -0.6338
 4917SOL    HW115650   5.614   6.498   0.508  0.0520 -0.6067 -0.7593
 4917SOL    HW215651   5.583   6.338   0.504 -1.4331 -0.3497 -0.0760
 4918SOL     OW15652   0.623   1.592   1.527  0.2751 -0.0682  0.0598
 4918SOL    HW115653   0.686   1.646   1.470 -0.5027  2.0936  1.1461
 4918SOL    HW215654   0.590   1.648   1.603 -1.6344 -1.6905  0.5154
 4919SOL     OW15655   6.624   0.973   4.062 -0.0531  0.0772  0.5311
 4919SOL    HW115656   6.546   0.920   4.095  1.5498 -1.5084  1.9740
 4919SOL    HW215657   6.619   1.067   4.096 -1.1839 -0.0728  0.7946
 4920SOL     OW15658   3.453   3.685   1.067  0.5730 -0.1585  0.1557
 4920SOL    HW115659   3.472   3.764   1.009  0.1238 -0.4682 -0.4119
 4920SOL    HW215660   3.532   3.623   1.065  0.8744  0.1980  0.5021
 4921SOL     OW15661   1.305   0.713   4.211 -0.1589 -0.0275 -0.4592
 4921SOL    HW115662   1.258   0.669   4.135 -0.4126  1.0221 -0.9318
 4921SOL    HW215663   1.365   0.785   4.177 -0.0605  0.2718  0.3098
 4922SOL     OW15664   4.516   1.591   4.350  0.2422  0.0438 -0.0071
 4922SOL    HW115665   4.519   1.544   4.262  0.1527  0.4956 -0.2532
 4922SOL    HW215666   4.428   1.572   4.394 -0.5394  1.4102 -0.9095
 4923SOL     OW15667   3.954   0.427   2.140  0.5235  0.3302  0.4792
 4923SOL    HW115668   3.869   0.426   2.193  1.0251  1.9927  1.3860
 4923SOL    HW215669   3.958   0.511   2.086  1.6840  0.3811  0.6347
 4924SOL     OW15670   5.882   3.055   1.706  0.0134  0.5015  0.2865
 4924SOL    HW115671   5.804   3.034   1.766  0.3971 -0.6286  0.4302
 4924SOL    HW215672   5.919   3.145   1.730 -1.3808  1.1622  0.0501
 4925SOL     OW15673   6.860   5.201   4.161 -0.7180  0.1168 -0.3622
 4925SOL    HW115674   6.958   5.195   4.180 -1.0495  0.3775  1.5922
 4925SOL    HW215675   6.845   5.191   4.063  1.2633  0.1283 -0.7094
 4926SOL     OW15676   4.186   5.461   2.074  0.3547  0.1740  0.5120
 4926SOL    HW115677   4.159   5.499   1.985  0.7200  1.7695  1.0367
 4926SOL    HW215678   4.116   5.486   2.142  1.5266  1.6058  1.2469
 4927SOL     OW15679   3.301   1.845   6.998  0.2950  0.5981  0.3504
 4927SOL    HW115680   3.245   1.870   7.077 -0.1859  0.7335 -0.0343
 4927SOL    HW215681   3.296   1.917   6.929 -1.1748 -0.5396 -0.8142
 4928SOL     OW15682   6.240   5.691   2.262 -0.4061  0.1528 -0.2322
 4928SOL    HW115683   6.332   5.724   2.242 -0.7231  1.4377  0.3188
 4928SOL    HW215684   6.199   5.747   2.334 -0.3128 -2.5745  2.1775
 4929SOL     OW15685   0.450   5.416   0.456  0.3107 -0.0216  0.5003
 4929SOL    HW115686   0.464   5.325   0.416 -0.7825  0.5706 -1.3570
 4929SOL    HW215687   0.361   5.452   0.426  0.4663  1.4262  1.6754
 4930SOL     OW15688   4.084   3.900   5.761 -0.2215 -0.2077  0.2013
 4930SOL    HW115689   3.995   3.944   5.771 -1.6868 -2.6878 -0.9423
 4930SOL    HW215690   4.139   3.949   5.693 -2.6381 -1.2162 -2.7061
 4931SOL     OW15691   6.155   6.156   4.799  0.5228  0.0603  0.5966
 4931SOL    HW115692   6.253   6.137   4.786  0.0567 -1.9864 -0.4191
 4931SOL    HW215693   6.111   6.074   4.836 -0.7761  1.0375  1.2548
 4932SOL     OW15694   3.617   5.410   1.603 -0.0560  0.2595 -0.2616
 4932SOL    HW115695   3.582   5.472   1.533 -0.2483  0.6094  0.1431
 4932SOL    HW215696   3.689   5.353   1.563 -0.3769  0.2420 -0.8245
 4933SOL     OW15697   4.533   2.112   4.424  0.1793  0.2154 -0.0067
 4933SOL    HW115698   4.607   2.169   4.387  0.7215 -0.3020  0.2545
 4933SOL    HW215699   4.541   2.019   4.388  0.0275 -0.0024  0.5006
 4934SOL     OW15700   0.892   4.029   3.708  0.4322  0.2582 -0.2281
 4934SOL    HW115701   0.886   4.109   3.649  4.3437 -0.3801 -1.8337
 4934SOL    HW215702   0.853   3.950   3.661 -0.2916  0.5444 -0.1166
 4935SOL     OW15703   0.921   5.831   6.848  0.4386 -0.6046  0.3077
 4935SOL    HW115704   0.998   5.820   6.786  0.3162  1.1647 -0.2262
 4935SOL    HW215705   0.854   5.759   6.833  1.0185 -0.9465 -0.6844
 4936SOL     OW15706   5.013   0.698   1.724  0.0604 -0.1444 -0.2797
 4936SOL    HW115707   5.038   0.677   1.819 -0.7975 -1.8937 -0.3959
 4936SOL    HW215708   5.088   0.672   1.663  0.1477 -0.1280 -0.1797
 4937SOL     OW15709   5.543   4.421   3.504 -0.3267  0.0055 -0.0172
 4937SOL    HW115710   5.546   4.424   3.404 -0.6974  0.1286 -0.0241
 4937SOL    HW215711   5.458   4.378   3.534  0.3480 -1.2278  0.2337
 4938SOL     OW15712   6.615   4.678   5.865  0.2156  0.0816 -0.3199
 4938SOL    HW115713   6.614   4.741   5.787 -0.6186 -0.2691 -0.6075
 4938SOL    HW215714   6.651   4.589   5.836 -0.1021 -0.0511 -0.3160
 4939SOL     OW15715   5.376   5.239   0.571  0.1820 -0.2942  0.0986
 4939SOL    HW115716   5.377   5.147   0.532 -0.3357  0.3518 -1.5055
 4939SOL    HW215717   5.397   5.234   0.669  2.1776 -1.9281 -0.3461
 4940SOL     OW15718   3.998   0.637   6.894  0.4366 -0.0280 -0.1048
 4940SOL    HW115719   4.008   0.562   6.829  0.3789 -0.2639  0.1550
 4940SOL    HW215720   3.971   0.720   6.846  0.4080 -0.1977 -0.3829
 4941SOL     OW15721   2.563   4.389   6.455  0.5039  1.1699  0.3974
 4941SOL    HW115722   2.552   4.364   6.551 -1.0030  1.1374  0.2540
 4941SOL    HW215723   2.574   4.488   6.447 -1.3477  1.4287  0.5288
 4942SOL     OW15724   4.210   3.473   5.998 -0.0532 -0.2143  0.6416
 4942SOL    HW115725   4.140   3.402   5.989 -1.5994  1.0723  2.0482
 4942SOL    HW215726   4.215   3.525   5.913 -0.3417 -0.6954  0.3208
 4943SOL     OW15727   6.413   4.479   5.295  0.8945  0.1457  0.1788
 4943SOL    HW115728   6.372   4.487   5.385  1.1333  1.5065  0.1866
 4943SOL    HW215729   6.412   4.383   5.266 -1.5346  0.0231  0.5002
 4944SOL     OW15730   2.381   6.515   1.494 -0.2213  0.2693 -0.1781
 4944SOL    HW115731   2.440   6.437   1.513 -0.2304 -0.1151 -1.6256
 4944SOL    HW215732   2.424   6.598   1.529 -0.4408 -0.4068  1.8237
 4945SOL     OW15733   3.032   6.571   5.048  0.0354 -0.3534 -0.0725
 4945SOL    HW115734   3.034   6.494   5.112  0.7147  1.2776  2.0025
 4945SOL    HW215735   3.126   6.594   5.021 -0.2555 -1.1675 -1.9298
 4946SOL     OW15736   6.509   2.741   2.025  0.2509  0.1802 -1.0464
 4946SOL    HW115737   6.454   2.787   1.956  0.0478 -0.1490 -1.1084
 4946SOL    HW215738   6.598   2.717   1.987 -0.4906 -1.5912 -1.7846
 4947SOL     OW15739   1.053   5.124   0.207 -0.2036 -0.0211  0.6181
 4947SOL    HW115740   1.079   5.220   0.220  0.9812 -0.5783  3.0204
 4947SOL    HW215741   0.953   5.117   0.204 -0.3155  1.2462  0.7243
 4948SOL     OW15742   5.044   3.939   2.867 -0.2020  0.4324 -0.4898
 4948SOL    HW115743   5.073   3.979   2.953  1.1948  0.2793 -0.8673
 4948SOL    HW215744   5.100   3.976   2.792 -0.5234 -0.3963 -1.1569
 4949SOL     OW15745   6.664   1.301   6.291  0.3465 -0.0770  0.1142
 4949SOL    HW115746   6.685   1.256   6.378 -0.7996  2.4802  1.8435
 4949SOL    HW215747   6.734   1.278   6.224  1.5847 -1.7199  1.8484
 4950SOL     OW15748   0.374   4.843   6.073  0.5889  0.2036 -0.2930
 4950SOL    HW115749   0.370   4.918   6.008  1.6926 -1.4663 -2.4058
 4950SOL    HW215750   0.440   4.865   6.146  0.1320  1.6600 -0.3087
 4951SOL     OW15751   0.987   2.677   6.755  0.5258 -0.1935 -0.0559
 4951SOL    HW115752   1.001   2.767   6.797 -0.7933 -0.3533  0.8015
 4951SOL    HW215753   0.919   2.685   6.682 -0.3184 -0.6475  0.6678
 4952SOL     OW15754   0.636   3.952   0.056  0.2757  1.0795 -0.2145
 4952SOL    HW115755   0.625   3.923  -0.039 -0.4501  3.4199 -0.9198
 4952SOL    HW215756   0.731   3.976   0.074  0.4822  0.2971 -0.2091
 4953SOL     OW15757   4.590   0.180   5.545  0.0337 -0.2161 -0.7847
 4953SOL    HW115758   4.545   0.200   5.458 -0.3710 -0.0076 -0.5303
 4953SOL    HW215759   4.684   0.215   5.542 -0.1830  0.3647 -0.9004
 4954SOL     OW15760   1.380   0.013   2.442  0.1911  0.3688  0.4445
 4954SOL    HW115761   1.406  -0.082   2.454  0.3411  0.4856  1.0502
 4954SOL    HW215762   1.288   0.028   2.477  0.5634  0.6718  1.3029
 4955SOL     OW15763   3.411   5.001   6.343  0.3646 -0.7132 -0.0475
 4955SOL    HW115764   3.320   5.025   6.377  0.7092 -0.1120  0.4639
 4955SOL    HW215765   3.473   4.986   6.421  1.2031  0.8315 -0.3699
 4956SOL     OW15766   3.584   4.901   1.449 -0.0804 -0.1105  0.1120
 4956SOL    HW115767   3.547   4.994   1.444  2.8496  1.2277  1.4429
 4956SOL    HW215768   3.528   4.846   1.511 -2.3886  0.4047 -1.3888
 4957SOL     OW15769   1.458   1.948   6.419  0.3530  0.3862  0.1958
 4957SOL    HW115770   1.456   1.923   6.516  1.1677  0.2731  0.1929
 4957SOL    HW215771   1.448   1.866   6.363  1.5542  0.2259  0.1900
 4958SOL     OW15772   0.498   0.995   0.115  0.1325 -0.7885  0.4467
 4958SOL    HW115773   0.507   1.091   0.141 -0.0456  0.0421 -2.2478
 4958SOL    HW215774   0.586   0.948   0.129  0.2571 -0.2457  1.6478
 4959SOL     OW15775   2.356   0.420   2.873  0.1353 -0.5113 -0.2651
 4959SOL    HW115776   2.383   0.440   2.779  0.2127 -0.0593 -0.1498
 4959SOL    HW215777   2.297   0.339   2.875 -0.1222 -0.3334 -0.7341
 4960SOL     OW15778   4.532   0.288   3.811 -0.5537 -0.3074  0.4946
 4960SOL    HW115779   4.540   0.372   3.864  3.6372  0.1855 -0.6051
 4960SOL    HW215780   4.564   0.211   3.866  1.6888 -0.1240 -0.4610
 4961SOL     OW15781   3.476   6.946   5.363 -0.1098 -0.0812  0.1824
 4961SOL    HW115782   3.574   6.928   5.367 -0.3139 -1.0116  1.8252
 4961SOL    HW215783   3.431   6.873   5.311 -0.1059 -0.5506  0.8251
 4962SOL     OW15784   5.618   0.943   1.015  0.0021 -0.0773  0.2310
 4962SOL    HW115785   5.556   0.870   1.042 -0.1851  0.7300  2.1777
 4962SOL    HW215786   5.701   0.904   0.975 -0.8863 -1.2459 -0.4966
 4963SOL     OW15787   0.657   6.564   1.146  0.0215 -0.2446 -0.6317
 4963SOL    HW115788   0.753   6.586   1.160  0.0182 -0.4720 -0.2463
 4963SOL    HW215789   0.599   6.619   1.206 -0.0224 -0.8391 -0.1136
 4964SOL     OW15790   2.981   0.271   5.800  0.0457  0.1417  0.5564
 4964SOL    HW115791   2.949   0.347   5.743  2.0710  1.0504  0.5035
 4964SOL    HW215792   2.912   0.199   5.803 -0.1545  0.0102 -3.0814
 4965SOL     OW15793   1.168   0.701   0.156 -0.1074 -0.1665 -0.1150
 4965SOL    HW115794   1.207   0.739   0.072 -0.5583 -0.7564 -0.5968
 4965SOL    HW215795   1.191   0.760   0.233  1.2275 -0.1800 -0.4825
 4966SOL     OW15796   1.765   6.761   3.795  0.6282 -0.1876  0.5938
 4966SOL    HW115797   1.707   6.840   3.777 -1.0392 -1.2507  1.1093
 4966SOL    HW215798   1.858   6.781   3.765  0.5177  2.3576  1.6575
 4967SOL     OW15799   3.947   2.829   1.745  0.3007  0.3949 -0.0017
 4967SOL    HW115800   3.848   2.839   1.754  0.5238  0.7721  3.8199
 4967SOL    HW215801   3.992   2.915   1.768  1.5587  0.0352 -0.9761
 4968SOL     OW15802   5.397   5.765   2.682  0.1742  0.9637  0.0188
 4968SOL    HW115803   5.442   5.814   2.757 -0.2291 -2.2109  2.6002
 4968SOL    HW215804   5.298   5.761   2.700  0.3836 -2.4066  1.1818
 4969SOL     OW15805   6.622   4.663   5.305 -0.2591 -0.3897 -0.7992
 4969SOL    HW115806   6.559   4.586   5.289  1.0829 -1.1962 -2.5684
 4969SOL    HW215807   6.692   4.635   5.370 -0.7960 -0.0245 -0.0490
 4970SOL     OW15808   6.532   4.210   5.869 -0.0982 -0.4904 -0.4228
 4970SOL    HW115809   6.537   4.252   5.778 -0.5946 -0.2321 -0.3332
 4970SOL    HW215810   6.544   4.281   5.939  1.4346 -0.8416 -0.2802
 4971SOL     OW15811   3.474   1.212   0.593  0.0868  0.2380 -0.3262
 4971SOL    HW115812   3.413   1.273   0.542  1.4259  1.7879 -0.1413
 4971SOL    HW215813   3.558   1.261   0.617 -0.8325  0.0275  4.3126
 4972SOL     OW15814   2.019   0.077   2.189  0.1041  0.6856  0.8917
 4972SOL    HW115815   1.947   0.032   2.135  0.5022  1.2585 -0.1348
 4972SOL    HW215816   2.106   0.031   2.174  0.1133  0.4791  1.5284
 4973SOL     OW15817   5.260   5.797   3.594 -0.0563  0.8674 -0.4027
 4973SOL    HW115818   5.263   5.839   3.503  1.7996 -1.5852 -1.6104
 4973SOL    HW215819   5.349   5.807   3.638 -0.7509  1.4738  0.9420
 4974SOL     OW15820   5.730   0.539   6.807  0.7289 -0.3370  0.5329
 4974SOL    HW115821   5.642   0.528   6.761  0.4648 -0.7887  1.1368
 4974SOL    HW215822   5.727   0.618   6.867  0.9188 -0.0284  0.1415
 4975SOL     OW15823   1.092   6.593   0.036 -0.0194  0.8753  0.1076
 4975SOL    HW115824   1.114   6.498   0.059  0.9567  1.2054  0.5580
 4975SOL    HW215825   0.993   6.601   0.021 -0.2502 -0.0100  1.0265
 4976SOL     OW15826   0.446   7.017   4.774 -0.0324  0.2025  0.3870
 4976SOL    HW115827   0.455   6.930   4.822 -0.4169  0.7011  1.3963
 4976SOL    HW215828   0.529   7.072   4.787  2.3870 -1.8026 -4.1749
 4977SOL     OW15829   0.209   6.265   0.560  0.0690  0.5835  0.3600
 4977SOL    HW115830   0.248   6.354   0.538 -1.8566  1.2655 -0.5925
 4977SOL    HW215831   0.250   6.230   0.644  1.1909  2.1504  0.5085
 4978SOL     OW15832   5.179   1.563   4.050 -0.2301 -0.6971 -0.1897
 4978SOL    HW115833   5.173   1.586   3.952 -0.7110 -1.0996 -0.2610
 4978SOL    HW215834   5.182   1.648   4.103 -0.1147 -0.4735 -0.5450
 4979SOL     OW15835   3.970   1.934   1.057 -0.0819  0.0755 -0.0428
 4979SOL    HW115836   3.893   1.870   1.063 -0.7363  0.8156 -0.2960
 4979SOL    HW215837   3.952   2.013   1.115 -0.5331  1.2717 -1.7373
 4980SOL     OW15838   2.219   4.738   1.895  0.6346  0.0997 -0.7552
 4980SOL    HW115839   2.239   4.640   1.896  2.3640  0.2999 -3.9812
 4980SOL    HW215840   2.132   4.754   1.848  0.0055  0.1210  0.3788
 4981SOL     OW15841   0.964   5.996   5.619  0.3772  0.1445 -0.7331
 4981SOL    HW115842   0.936   5.990   5.714  0.7170 -2.3661 -0.7177
 4981SOL    HW215843   1.050   6.048   5.612 -0.1809  1.2285  0.1487
 4982SOL     OW15844   4.478   0.016   0.933  0.0131 -0.9656  0.3394
 4982SOL    HW115845   4.448   0.093   0.877  2.2953 -1.7267 -2.1854
 4982SOL    HW215846   4.554   0.045   0.992  1.3030 -1.3416 -1.0791
 4983SOL     OW15847   6.682   2.963   0.088 -0.1865  0.2898 -0.1069
 4983SOL    HW115848   6.588   2.984   0.061  0.5085 -0.0480 -3.0961
 4983SOL    HW215849   6.722   3.043   0.132 -1.6308  0.6671  0.6037
 4984SOL     OW15850   4.226   3.171   5.349 -0.0841  0.1525  0.2117
 4984SOL    HW115851   4.203   3.186   5.446  0.9181 -0.0804  0.4973
 4984SOL    HW215852   4.165   3.101   5.311  1.5266 -2.1567  1.5858
 4985SOL     OW15853   2.094   1.367   5.400  0.2915 -0.1443 -0.3822
 4985SOL    HW115854   2.051   1.285   5.363 -0.9300 -0.4357  1.5794
 4985SOL    HW215855   2.089   1.440   5.332 -0.2959 -1.1341 -1.4411
 4986SOL     OW15856   3.764   2.751   6.702  0.2918 -0.3376 -0.5297
 4986SOL    HW115857   3.718   2.822   6.755  0.7006 -0.9599  0.6915
 4986SOL    HW215858   3.751   2.769   6.605 -0.8318  0.6049 -0.2305
 4987SOL     OW15859   5.879   5.426   3.625 -0.0833 -0.2951 -0.4347
 4987SOL    HW115860   5.959   5.470   3.665  1.7526 -1.6875 -2.3583
 4987SOL    HW215861   5.817   5.396   3.697  0.6616  1.5651  1.0756
 4988SOL     OW15862   6.527   2.445   0.322 -0.3533  0.4162 -0.1408
 4988SOL    HW115863   6.625   2.465   0.317 -0.3335  0.2270 -0.5488
 4988SOL    HW215864   6.503   2.421   0.416  0.0355  0.2577 -0.0805
 4989SOL     OW15865   3.309   4.793   6.124 -0.0465  0.4787  0.2104
 4989SOL    HW115866   3.300   4.869   6.188 -0.5377  0.1422  0.5427
 4989SOL    HW215867   3.300   4.706   6.173  1.3368  0.1801 -0.0313
 4990SOL     OW15868   1.746   0.124   2.561 -0.2538  0.6346 -0.3810
 4990SOL    HW115869   1.818   0.159   2.500 -0.0411  1.3082  0.2477
 4990SOL    HW215870   1.780   0.123   2.655 -1.0350  0.8526 -0.0963
 4991SOL     OW15871   1.174   4.787   2.163  0.7053  0.1527  0.1168
 4991SOL    HW115872   1.251   4.732   2.195  1.3312  1.9967  2.0318
 4991SOL    HW215873   1.175   4.790   2.063  0.5401 -3.3180 -0.1047
 4992SOL     OW15874   5.116   1.375   6.114  0.4924 -0.0161  0.0333
 4992SOL    HW115875   5.115   1.281   6.082  0.6361  0.0651 -0.2130
 4992SOL    HW215876   5.023   1.413   6.111 -0.2802 -1.2674  3.5047
 4993SOL     OW15877   0.316   6.152   1.436 -0.5762  0.4477  0.5870
 4993SOL    HW115878   0.399   6.208   1.433  0.3436 -0.8268  1.0744
 4993SOL    HW215879   0.247   6.190   1.374  0.7153  1.0006 -0.5572
 4994SOL     OW15880   0.821   3.354   0.442 -0.4371  0.6666 -0.2666
 4994SOL    HW115881   0.723   3.340   0.431 -0.2372 -0.1941 -0.9963
 4994SOL    HW215882   0.850   3.435   0.391 -1.1169  2.2608  1.7249
 4995SOL     OW15883   5.953   0.250   3.495 -0.1274  0.0736 -1.0341
 4995SOL    HW115884   5.946   0.280   3.400  0.6450 -1.5133 -1.6213
 4995SOL    HW215885   5.917   0.321   3.555 -2.3415  0.3537 -2.6035
 4996SOL     OW15886   1.793   1.870   2.610  0.3190  0.1554  0.7475
 4996SOL    HW115887   1.854   1.856   2.531 -0.3494  0.2870  0.2020
 4996SOL    HW215888   1.737   1.951   2.595 -2.3150 -1.7113 -0.2847
 4997SOL     OW15889   4.299   3.543   6.406  0.2532 -0.4945 -0.6361
 4997SOL    HW115890   4.313   3.624   6.349 -0.1709 -0.3546 -0.5447
 4997SOL    HW215891   4.226   3.487   6.367 -1.8302  0.8657  1.0869
 4998SOL     OW15892   2.366   4.994   5.116  0.2510 -0.6229 -0.3436
 4998SOL    HW115893   2.332   4.899   5.120 -2.5491  0.2996  0.9476
 4998SOL    HW215894   2.299   5.051   5.069  1.1299  0.9987  0.3011
 4999SOL     OW15895   2.369   2.930   6.869 -0.5881 -0.4638 -0.1255
 4999SOL    HW115896   2.430   2.885   6.934 -0.7648  1.6072  1.5772
 4999SOL    HW215897   2.281   2.949   6.912 -1.1503 -0.1132 -1.3570
 5000SOL     OW15898   2.846   5.466   0.251 -0.6325  0.4006 -0.4265
 5000SOL    HW115899   2.944   5.452   0.242 -0.1562  2.4601  0.7849
 5000SOL    HW215900   2.804   5.387   0.296  0.6258 -0.1308 -0.1607
 5001SOL     OW15901   0.717   0.010   4.268 -0.2594  0.0545  0.1095
 5001SOL    HW115902   0.643  -0.047   4.302 -0.9427  0.9862  0.2379
 5001SOL    HW215903   0.688   0.106   4.270  0.9242  0.4250  0.0860
 5002SOL     OW15904   6.568   2.346   3.392 -0.2331 -0.0221 -0.1854
 5002SOL    HW115905   6.551   2.366   3.489  0.6314 -0.8499  0.1443
 5002SOL    HW215906   6.635   2.272   3.384 -0.6341 -0.2675 -1.4201
 5003SOL     OW15907   5.961   6.125   4.339  0.0586 -0.4507 -0.5271
 5003SOL    HW115908   6.036   6.164   4.393 -3.3765  4.9201  1.1762
 5003SOL    HW215909   5.907   6.063   4.397  0.4492 -0.4865 -0.1949
 5004SOL     OW15910   2.060   6.472   1.725  0.0146 -0.4849 -0.4455
 5004SOL    HW115911   1.989   6.521   1.675  0.4318  0.6783  0.0828
 5004SOL    HW215912   2.123   6.430   1.659  1.4233  2.2785 -0.9946
 5005SOL     OW15913   1.725   4.038   6.003 -0.0643  0.0923 -0.0375
 5005SOL    HW115914   1.770   4.077   5.922  0.8758  2.2400  1.4284
 5005SOL    HW215915   1.786   3.971   6.046 -0.6909 -1.2870 -1.2203
 5006SOL     OW15916   5.125   6.241   5.376  0.0803 -0.0806 -0.4925
 5006SOL    HW115917   5.075   6.289   5.448 -1.4913 -0.7124 -1.1198
 5006SOL    HW215918   5.081   6.154   5.356  2.1515 -1.2587 -0.2571
 5007SOL     OW15919   4.356   5.242   3.157 -0.1815 -0.0490  0.0472
 5007SOL    HW115920   4.344   5.341   3.166 -0.1958  0.1709 -1.9478
 5007SOL    HW215921   4.268   5.196   3.166 -0.2393  0.1586  0.5461
 5008SOL     OW15922   2.665   5.104   1.363  0.0857  0.0246 -0.7587
 5008SOL    HW115923   2.628   5.177   1.305 -0.9489  0.0538 -0.1041
 5008SOL    HW215924   2.717   5.040   1.307 -0.2235  0.4747 -1.5845
 5009SOL     OW15925   0.335   4.596   0.388  0.7517 -0.1475  0.3417
 5009SOL    HW115926   0.257   4.550   0.345  1.1506  0.6732 -1.3439
 5009SOL    HW215927   0.414   4.535   0.390  0.2052 -0.8568  1.7293
 5010SOL     OW15928   3.557   3.499   4.459  0.0766  0.2162  0.4874
 5010SOL    HW115929   3.509   3.527   4.376  2.3999 -0.7912 -1.3192
 5010SOL    HW215930   3.524   3.409   4.488 -0.2901  0.2864  0.2915
 5011SOL     OW15931   0.374   6.693   0.329  1.0963  0.2240 -0.2965
 5011SOL    HW115932   0.414   6.611   0.288 -1.8148 -1.7650  0.5323
 5011SOL    HW215933   0.275   6.692   0.316  0.5169  1.6528  3.0842
 5012SOL     OW15934   1.755   6.858   5.536 -0.2916 -0.2113 -0.0263
 5012SOL    HW115935   1.758   6.912   5.621  0.8683 -1.3063  0.6629
 5012SOL    HW215936   1.805   6.772   5.549  1.1939  0.2274 -2.2769
 5013SOL     OW15937   6.401   2.220   5.557 -0.3012 -0.7743 -0.2408
 5013SOL    HW115938   6.441   2.156   5.491 -1.5829 -1.9883  0.1196
 5013SOL    HW215939   6.399   2.179   5.648 -3.1018 -1.1719 -0.3842
 5014SOL     OW15940   5.194   6.042   6.255  0.1937  0.0492 -0.3658
 5014SOL    HW115941   5.247   6.125   6.264  1.1343 -0.6581  0.9959
 5014SOL    HW215942   5.218   5.995   6.170  0.0773  0.8522 -0.8514
 5015SOL     OW15943   3.644   1.483   6.780  0.0575 -0.5271  0.3194
 5015SOL    HW115944   3.563   1.459   6.728  0.5720 -2.5980  0.4084
 5015SOL    HW215945   3.681   1.570   6.746 -1.9396  0.2695  0.0463
 5016SOL     OW15946   3.030   3.255   0.827 -0.4896 -0.2482  0.0524
 5016SOL    HW115947   3.073   3.175   0.868  2.2035  0.9738 -0.1499
 5016SOL    HW215948   3.039   3.333   0.890  1.1193  0.9612 -1.5785
 5017SOL     OW15949   1.969   2.553   4.029  0.2492  0.2790 -0.3764
 5017SOL    HW115950   2.062   2.558   4.065 -0.1493  0.8047  0.6103
 5017SOL    HW215951   1.913   2.625   4.070 -0.5935 -0.0167 -0.9755
 5018SOL     OW15952   3.717   3.131   0.007 -0.2385 -0.4353 -0.3025
 5018SOL    HW115953   3.776   3.187  -0.051 -1.4379  0.8772 -0.3080
 5018SOL    HW215954   3.672   3.188   0.075 -1.7132 -1.3108 -0.4830
 5019SOL     OW15955   3.679   4.185   0.532 -0.1705  0.0827 -0.1239
 5019SOL    HW115956   3.729   4.111   0.488  0.3164  0.5480 -0.3583
 5019SOL    HW215957   3.742   4.242   0.583 -0.5934  0.1396  0.3418
 5020SOL     OW15958   6.977   1.277   4.579  0.2945 -0.1123 -0.2532
 5020SOL    HW115959   7.046   1.329   4.530  0.4748  0.2001  0.3172
 5020SOL    HW215960   6.960   1.190   4.532  1.0448 -0.1758 -0.4214
 5021SOL     OW15961   5.425   4.843   4.603  0.5325 -0.0813  0.0538
 5021SOL    HW115962   5.361   4.833   4.680  1.5258 -0.1224  0.8865
 5021SOL    HW215963   5.376   4.825   4.517 -0.8856  1.1428  0.5610
 5022SOL     OW15964   3.626   5.555   1.075  0.5432  0.3839 -0.3144
 5022SOL    HW115965   3.624   5.457   1.056 -0.2362 -0.0361  1.6683
 5022SOL    HW215966   3.719   5.582   1.100  0.7276  0.1163 -0.7109
 5023SOL     OW15967   1.307   1.184   0.489 -0.4328  0.3088  0.4664
 5023SOL    HW115968   1.359   1.101   0.470 -0.6965  0.3738 -0.5618
 5023SOL    HW215969   1.211   1.160   0.507 -0.3547  0.3245  0.9128
 5024SOL     OW15970   2.329   0.757   1.024 -0.2477  0.1419  0.2950
 5024SOL    HW115971   2.245   0.731   0.976 -0.5129  0.1785  0.7340
 5024SOL    HW215972   2.408   0.723   0.973 -0.4693  1.2202 -0.8129
 5025SOL     OW15973   3.427   2.126   5.307 -0.0378  0.0298 -0.2990
 5025SOL    HW115974   3.455   2.150   5.400 -1.3061 -0.7391  0.3134
 5025SOL    HW215975   3.508   2.118   5.248  0.9082 -0.7432  1.0535
 5026SOL     OW15976   6.168   6.964   1.745  0.0888  0.8367 -0.8934
 5026SOL    HW115977   6.108   6.955   1.825 -1.7965 -0.2859 -2.3372
 5026SOL    HW215978   6.246   6.904   1.754 -0.7632 -0.2302 -0.4341
 5027SOL     OW15979   0.470   0.378   2.394 -0.7909  0.2107  0.3157
 5027SOL    HW115980   0.486   0.365   2.492 -0.8980 -0.6348  0.2329
 5027SOL    HW215981   0.454   0.289   2.351 -1.9108  0.6745 -0.2650
 5028SOL     OW15982   6.575   3.727   6.993 -1.1612  0.3671 -0.0611
 5028SOL    HW115983   6.541   3.638   7.023  0.9922  0.4219  3.0372
 5028SOL    HW215984   6.638   3.715   6.917  1.6345 -1.3331  2.3179
 5029SOL     OW15985   4.587   0.443   1.881  0.2265  0.2229 -0.1144
 5029SOL    HW115986   4.547   0.384   1.952 -0.4237 -0.4769 -1.0299
 5029SOL    HW215987   4.607   0.387   1.801  1.0281  0.9940 -0.4576
 5030SOL     OW15988   6.744   2.306   0.546 -0.1410 -0.3811 -0.2227
 5030SOL    HW115989   6.651   2.272   0.534  0.7460 -2.6095 -1.5131
 5030SOL    HW215990   6.773   2.355   0.465 -0.1122  0.1368  0.0970
 5031SOL     OW15991   3.303   5.218   2.310 -0.3329 -0.1675  0.1460
 5031SOL    HW115992   3.261   5.167   2.385  1.4422  0.7398  1.8303
 5031SOL    HW215993   3.266   5.310   2.306 -2.3735 -0.9572 -1.8961
 5032SOL     OW15994   0.573   4.911   0.929  0.6209  0.0918  0.3267
 5032SOL    HW115995   0.646   4.881   0.868 -0.3148  1.5587 -1.6322
 5032SOL    HW215996   0.484   4.888   0.889 -0.0435 -0.7746  2.1843
 5033SOL     OW15997   2.776   2.622   6.602  0.6977 -0.6215 -0.1932
 5033SOL    HW115998   2.796   2.697   6.666  3.5334 -1.9374  0.6123
 5033SOL    HW215999   2.813   2.537   6.638 -2.8251 -2.6238 -0.8710
 5034SOL     OW16000   6.093   5.981   3.586 -0.6163 -0.2737  0.7165
 5034SOL    HW116001   6.191   5.987   3.565 -0.1802 -0.1531  2.6265
 5034SOL    HW216002   6.058   5.892   3.556 -0.1747  0.0463 -0.8480
 5035SOL     OW16003   6.041   3.780   2.398  0.5561  0.1166  0.5631
 5035SOL    HW116004   6.110   3.786   2.325  0.4910 -0.5007  0.4512
 5035SOL    HW216005   5.978   3.857   2.390 -0.0461 -0.4743 -0.6471
 5036SOL     OW16006   1.828   0.951   0.211  0.5028  0.7464  0.4050
 5036SOL    HW116007   1.762   1.018   0.244  2.3733  2.9797 -0.1089
 5036SOL    HW216008   1.921   0.987   0.222  1.6573 -2.1018  0.7436
 5037SOL     OW16009   0.018   4.315   1.936  0.2217 -0.2592 -0.3981
 5037SOL    HW116010   0.063   4.385   1.881  1.7764  0.1745  1.3157
 5037SOL    HW216011  -0.010   4.239   1.878  0.7292  0.6803 -1.9245
 5038SOL     OW16012   0.701   6.732   4.083  0.6159  0.1596 -0.0294
 5038SOL    HW116013   0.666   6.646   4.047  0.9942  0.1045 -0.2791
 5038SOL    HW216014   0.714   6.724   4.182 -1.7909  0.7799  0.3969
 5039SOL     OW16015   4.116   0.852   4.341  0.8137  0.2839 -0.3555
 5039SOL    HW116016   4.124   0.759   4.306 -0.4368 -0.3075  0.8217
 5039SOL    HW216017   4.208   0.889   4.357  1.3507 -1.3432  0.6123
 5040SOL     OW16018   3.709   5.062   0.302  0.3436 -0.1200  0.1423
 5040SOL    HW116019   3.642   5.122   0.345 -0.3976  0.7591 -2.1016
 5040SOL    HW216020   3.664   5.004   0.234  1.3164 -2.1748  1.1262
 5041SOL     OW16021   4.618   6.345   3.400 -0.0436 -0.3655 -0.5191
 5041SOL    HW116022   4.588   6.435   3.369 -1.5888 -0.3175  0.9644
 5041SOL    HW216023   4.633   6.286   3.321 -0.9893  0.5941 -1.4473
 5042SOL     OW16024   2.481   1.567   3.514 -0.1684 -0.3874 -0.4802
 5042SOL    HW116025   2.396   1.528   3.549  1.2206 -2.9705  0.2611
 5042SOL    HW216026   2.476   1.667   3.520 -3.7061 -0.3237 -1.9502
 5043SOL     OW16027   0.533   4.287   6.257  0.2026 -0.0561 -0.0070
 5043SOL    HW116028   0.436   4.294   6.281  0.3500 -0.8798  0.8872
 5043SOL    HW216029   0.549   4.334   6.170 -1.0330 -0.0755 -0.2677
 5044SOL     OW16030   1.231   3.323   3.284  0.3900  0.2396  0.0623
 5044SOL    HW116031   1.253   3.388   3.357  0.1335  0.4748 -0.0728
 5044SOL    HW216032   1.136   3.292   3.294 -0.2956  1.7548 -1.3050
 5045SOL     OW16033   6.660   6.598   0.110 -0.0901  0.4953  0.2410
 5045SOL    HW116034   6.579   6.546   0.139  1.7426 -1.3137  2.4780
 5045SOL    HW216035   6.659   6.688   0.153 -1.8959  1.3700 -1.4547
 5046SOL     OW16036   3.978   5.427   4.520  0.5233 -0.0705 -0.1443
 5046SOL    HW116037   4.043   5.360   4.487  1.1483 -0.8083  2.3557
 5046SOL    HW216038   4.006   5.519   4.490  1.4805 -0.5957 -0.8964
 5047SOL     OW16039   2.399   5.839   6.168 -0.2630  0.2847 -0.1048
 5047SOL    HW116040   2.299   5.846   6.177 -0.1450  0.6257  1.1678
 5047SOL    HW216041   2.436   5.926   6.137 -0.4551 -0.1930 -1.7466
 5048SOL     OW16042   0.234   0.325   1.011 -0.2890  0.4396 -0.3391
 5048SOL    HW116043   0.150   0.271   1.004  1.4904 -3.0769  2.2335
 5048SOL    HW216044   0.233   0.378   1.095  0.1637  0.0657 -0.0868
 5049SOL     OW16045   1.867   3.678   3.503  0.0036 -0.4704  0.1285
 5049SOL    HW116046   1.950   3.706   3.455 -0.1447 -0.2209  0.0209
 5049SOL    HW216047   1.831   3.754   3.556  0.0527 -0.6870  0.4805
 5050SOL     OW16048   0.128   0.029   1.789  0.3357  0.1519 -0.2692
 5050SOL    HW116049   0.196   0.077   1.845  0.4702 -0.4765  0.1145
 5050SOL    HW216050   0.056  -0.007   1.848 -0.5183  1.0967 -0.7059
 5051SOL     OW16051   3.386   2.907   4.778 -0.2461  0.9517  0.4092
 5051SOL    HW116052   3.292   2.905   4.746 -0.0164  0.9825 -0.2705
 5051SOL    HW216053   3.446   2.865   4.710 -0.0074 -0.8605  1.6737
 5052SOL     OW16054   0.377   4.709   5.672 -0.2976  0.0351  0.6520
 5052SOL    HW116055   0.398   4.805   5.658 -0.2360  0.1936  1.7051
 5052SOL    HW216056   0.295   4.701   5.728 -1.5123 -0.5582 -1.1455
 5053SOL     OW16057   6.282   1.715   6.514  0.6188  0.1055  0.3234
 5053SOL    HW116058   6.217   1.786   6.486  0.9053  0.4259  0.4484
 5053SOL    HW216059   6.238   1.626   6.511  0.9421 -0.0361 -2.2735
 5054SOL     OW16060   3.033   6.552   2.643  0.1204 -0.2443  0.3427
 5054SOL    HW116061   3.110   6.510   2.690 -0.7022 -1.2500  0.8219
 5054SOL    HW216062   3.067   6.609   2.567  1.2689 -1.9614 -0.4918
 5055SOL     OW16063   4.515   6.586   3.311 -0.4362 -0.0095  0.3462
 5055SOL    HW116064   4.535   6.613   3.217 -0.4354 -1.2777 -0.0335
 5055SOL    HW216065   4.473   6.663   3.360 -1.2444  0.3875 -0.9385
 5056SOL     OW16066   3.296   0.993   6.073  0.1448  0.3627 -0.6160
 5056SOL    HW116067   3.246   0.919   6.117 -1.2522  0.2528 -2.3103
 5056SOL    HW216068   3.388   0.999   6.113 -0.7279 -0.2881  1.6366
 5057SOL     OW16069   2.623   2.109   5.901 -0.5523 -0.5536 -0.1851
 5057SOL    HW116070   2.679   2.054   5.963 -1.5222 -0.7231  0.5835
 5057SOL    HW216071   2.526   2.092   5.921 -0.8733  0.8245 -0.4637
 5058SOL     OW16072   6.404   2.914   1.841 -0.3857  0.6653  0.0810
 5058SOL    HW116073   6.474   2.975   1.879  0.4965  0.8852 -1.7608
 5058SOL    HW216074   6.373   2.951   1.754 -3.8012  1.2445  1.4089
 5059SOL     OW16075   0.275   6.430   4.064 -0.1085  0.5468 -0.5292
 5059SOL    HW116076   0.223   6.453   3.982 -0.6115 -1.9431 -1.0032
 5059SOL    HW216077   0.298   6.332   4.062  0.6215  0.6070  1.8940
 5060SOL     OW16078   1.315   0.516   4.009 -0.1959 -0.2456  0.3874
 5060SOL    HW116079   1.410   0.519   3.977 -0.6301 -0.1122 -0.9235
 5060SOL    HW216080   1.256   0.563   3.943 -1.4169 -1.8077  0.3194
 5061SOL     OW16081   5.180   2.976   5.912  0.1423  0.5616 -0.8711
 5061SOL    HW116082   5.123   2.943   5.987 -1.1024  0.4800 -1.8117
 5061SOL    HW216083   5.127   3.041   5.857  1.0196  0.6075 -1.6765
 5062SOL     OW16084   2.480   6.069   2.627 -0.0830  0.0416  0.3297
 5062SOL    HW116085   2.502   6.125   2.547  0.0865 -1.1069 -0.4639
 5062SOL    HW216086   2.388   6.030   2.615  0.0067 -0.2551  0.6260
 5063SOL     OW16087   2.463   5.379   3.884  0.1963  0.0735 -0.2659
 5063SOL    HW116088   2.473   5.464   3.935  0.5603  0.0942 -0.3657
 5063SOL    HW216089   2.427   5.308   3.943 -0.0076  0.2703 -0.1543
 5064SOL     OW16090   2.356   0.957   0.738  0.1061 -0.8822  0.1902
 5064SOL    HW116091   2.391   0.989   0.826  1.3410  0.0898 -0.6104
 5064SOL    HW216092   2.267   1.000   0.720  0.4578 -0.0459  0.3827
 5065SOL     OW16093   6.108   5.012   6.613 -0.4321 -0.1536  0.0111
 5065SOL    HW116094   6.174   4.971   6.675 -0.4078  0.9387  0.7453
 5065SOL    HW216095   6.022   5.028   6.661 -1.0711 -1.0609 -0.7879
 5066SOL     OW16096   5.407   2.019   3.331 -0.2365  0.0042  0.1862
 5066SOL    HW116097   5.350   2.024   3.413  0.1368 -0.8125  0.4999
 5066SOL    HW216098   5.469   1.941   3.338  0.4116  0.4500 -0.4807
 5067SOL     OW16099   4.168   5.095   3.946 -0.1809 -0.0959 -0.1578
 5067SOL    HW116100   4.180   5.185   3.988 -0.1771  0.7746 -1.9392
 5067SOL    HW216101   4.074   5.086   3.913 -0.6682 -1.4268  1.4084
 5068SOL     OW16102   2.959   1.988   1.247  0.4797 -0.2376 -0.2802
 5068SOL    HW116103   2.867   1.948   1.247  0.5730 -0.4567 -0.5677
 5068SOL    HW216104   2.996   1.988   1.339  0.0773  0.1143 -0.1138
 5069SOL     OW16105   5.465   4.422   5.723 -0.0116 -0.1412 -0.4235
 5069SOL    HW116106   5.395   4.360   5.758  0.5257 -0.7357 -0.3888
 5069SOL    HW216107   5.549   4.411   5.776  0.8537 -1.1360 -1.9271
 5070SOL     OW16108   3.795   0.794   3.011  0.2082  0.6145  0.2562
 5070SOL    HW116109   3.708   0.837   2.988 -0.2634 -0.5176 -0.1385
 5070SOL    HW216110   3.782   0.728   3.084  1.4385  3.1264  2.9575
 5071SOL     OW16111   6.865   6.186   5.163 -0.4148 -0.1285 -0.0007
 5071SOL    HW116112   6.902   6.274   5.194  1.2389 -0.3953 -1.1159
 5071SOL    HW216113   6.799   6.201   5.090 -1.2543  0.2457  0.8098
 5072SOL     OW16114   4.715   4.741   2.514  0.0106 -0.1546  0.4540
 5072SOL    HW116115   4.722   4.694   2.426  1.8957 -0.1953  0.5739
 5072SOL    HW216116   4.628   4.719   2.557 -0.7074 -0.5908 -1.1339
 5073SOL     OW16117   1.744   3.387   1.158  0.2833  0.1657 -0.8192
 5073SOL    HW116118   1.651   3.363   1.187  1.0007 -0.1622  1.3963
 5073SOL    HW216119   1.740   3.452   1.083 -1.7324 -0.4112 -1.2602
 5074SOL     OW16120   2.789   3.078   1.671  0.2297  0.2399  0.0996
 5074SOL    HW116121   2.853   3.097   1.745  0.8127 -1.0724 -0.0446
 5074SOL    HW216122   2.730   3.001   1.697 -0.1695  0.3583 -0.4335
 5075SOL     OW16123   5.487   6.523   1.233  0.5398  0.4302 -0.5662
 5075SOL    HW116124   5.574   6.572   1.241  0.1476  0.9819  0.3573
 5075SOL    HW216125   5.501   6.427   1.258  1.1808  0.1796 -1.8144
 5076SOL     OW16126   1.818   0.052   4.709 -0.3141  0.0379  0.4370
 5076SOL    HW116127   1.859   0.128   4.658 -0.3112  0.6118  1.2683
 5076SOL    HW216128   1.874   0.032   4.789 -0.7944 -0.2518  0.7038
 5077SOL     OW16129   5.119   5.497   5.685 -0.0158  0.3170 -0.0112
 5077SOL    HW116130   5.149   5.554   5.608  0.6877 -1.3178 -0.9947
 5077SOL    HW216131   5.197   5.478   5.744 -0.4103  0.9853  0.7390
 5078SOL     OW16132   2.759   5.103   5.676  0.5547 -0.4536  0.1757
 5078SOL    HW116133   2.681   5.162   5.696  1.6431  1.6073 -1.3798
 5078SOL    HW216134   2.825   5.109   5.751  0.1565 -0.5882  0.5406
 5079SOL     OW16135   0.426   2.373   3.923  0.3717  0.0480 -0.0391
 5079SOL    HW116136   0.474   2.441   3.867 -0.2490  1.1603  0.7341
 5079SOL    HW216137   0.487   2.296   3.940  1.3296  0.6902 -0.4074
 5080SOL     OW16138   0.201   1.812   1.028  0.0920  0.3559 -0.6730
 5080SOL    HW116139   0.289   1.793   0.984 -0.1067 -0.6052 -0.6942
 5080SOL    HW216140   0.130   1.754   0.986 -0.1113 -0.5431  0.8493
 5081SOL     OW16141   3.852   4.016   3.555  0.5677  0.1896  0.6763
 5081SOL    HW116142   3.897   3.938   3.597 -1.1770 -0.5385  1.2720
 5081SOL    HW216143   3.856   4.094   3.617  0.5641 -0.0155  0.9363
 5082SOL     OW16144   0.896   2.264   2.517 -0.4324  0.0313 -0.2832
 5082SOL    HW116145   0.887   2.164   2.516 -2.0722  0.1446 -1.4250
 5082SOL    HW216146   0.953   2.294   2.441  0.0977 -0.0348  0.0868
 5083SOL     OW16147   0.036   6.619   6.219 -0.1093  0.1935 -0.9169
 5083SOL    HW116148   0.086   6.580   6.141  0.9206 -0.5357  0.0763
 5083SOL    HW216149   0.074   6.708   6.241 -0.1729  0.2497 -1.0314
 5084SOL     OW16150   6.922   2.963   6.253  0.2569 -1.0155  0.3778
 5084SOL    HW116151   6.859   2.904   6.303  0.5546 -0.1098  1.8736
 5084SOL    HW216152   6.974   3.019   6.317 -0.5025  1.3846 -0.9951
 5085SOL     OW16153   3.209   0.040   3.354  0.0180  0.2934 -0.6827
 5085SOL    HW116154   3.115   0.008   3.338  0.2829  0.2018 -2.2385
 5085SOL    HW216155   3.234   0.023   3.449 -0.4896 -2.5512 -0.9409
 5086SOL     OW16156   5.482   0.809   3.153 -0.3467  0.1352  1.0527
 5086SOL    HW116157   5.573   0.826   3.115  0.0347 -0.4621  1.6804
 5086SOL    HW216158   5.413   0.834   3.085  0.2866  0.3738  0.4811
 5087SOL     OW16159   0.848   0.665   0.256 -0.3214  0.1735 -0.1620
 5087SOL    HW116160   0.789   0.682   0.335  0.3490  1.5746  0.0671
 5087SOL    HW216161   0.942   0.691   0.279  0.1578 -0.7666 -0.9617
 5088SOL     OW16162   4.103   6.066   1.991  0.2490 -0.0497 -0.3817
 5088SOL    HW116163   4.072   6.139   2.051 -1.5175 -0.8497 -0.2615
 5088SOL    HW216164   4.057   6.073   1.902  1.5265  0.1018 -1.0617
 5089SOL     OW16165   2.993   2.721   1.167  0.0441 -0.2553  0.2326
 5089SOL    HW116166   2.944   2.636   1.190  0.1878 -0.4133 -0.0450
 5089SOL    HW216167   3.091   2.705   1.173  0.0679 -0.0398  0.4181
 5090SOL     OW16168   4.511   5.392   0.354 -0.6681 -0.1317 -0.3533
 5090SOL    HW116169   4.523   5.489   0.373 -1.3273  0.0579 -0.8780
 5090SOL    HW216170   4.600   5.352   0.332  0.2960 -0.5144  3.5083
 5091SOL     OW16171   1.943   4.729   1.484  0.2635 -0.2197  0.3366
 5091SOL    HW116172   1.887   4.743   1.402  2.1939 -0.1905 -1.0645
 5091SOL    HW216173   1.956   4.632   1.500 -2.3322 -0.3445  2.2937
 5092SOL     OW16174   6.347   3.564   2.345 -0.0309 -0.0553 -0.5489
 5092SOL    HW116175   6.258   3.524   2.325 -0.3850 -0.3050  1.3823
 5092SOL    HW216176   6.350   3.657   2.309 -0.1943 -0.7867 -2.6372
 5093SOL     OW16177   4.975   4.813   2.587  0.3015  0.0473  0.0968
 5093SOL    HW116178   4.879   4.799   2.562  0.7299 -0.0311 -1.6655
 5093SOL    HW216179   4.981   4.880   2.661 -1.0565  0.9632 -0.5741
 5094SOL     OW16180   4.662   2.382   1.224  0.2745  0.2231  0.5122
 5094SOL    HW116181   4.660   2.282   1.215  1.0414  0.1596  0.9679
 5094SOL    HW216182   4.636   2.407   1.317  1.3589  0.3730  0.7820
 5095SOL     OW16183   3.982   4.661   1.352 -0.1579 -0.5436  0.0711
 5095SOL    HW116184   3.900   4.699   1.309  0.2377 -1.7114 -1.8140
 5095SOL    HW216185   4.048   4.735   1.369 -1.3357  0.3171  1.0949
 5096SOL     OW16186   5.309   3.602   5.498 -0.0791 -0.0343  0.2140
 5096SOL    HW116187   5.345   3.686   5.538  0.9333 -0.2473 -0.2103
 5096SOL    HW216188   5.375   3.566   5.431 -0.7395 -0.8719 -0.0061
 5097SOL     OW16189   5.247   0.542   5.382  0.4408 -0.1267  0.0705
 5097SOL    HW116190   5.323   0.601   5.410  0.2649  3.1559 -5.0230
 5097SOL    HW216191   5.165   0.598   5.369 -0.0057 -1.4451 -4.1972
 5098SOL     OW16192   4.675   4.640   4.728 -0.2505 -0.5263 -0.0963
 5098SOL    HW116193   4.658   4.736   4.751  0.2571 -0.7508  1.3569
 5098SOL    HW216194   4.643   4.582   4.803  0.1162 -1.4405 -0.6286
 5099SOL     OW16195   0.401   0.749   2.107  0.4073 -0.6867 -0.0080
 5099SOL    HW116196   0.390   0.807   2.187 -0.4990 -2.7757  1.4980
 5099SOL    HW216197   0.354   0.789   2.029  2.5813  2.1589 -0.0071
 5100SOL     OW16198   1.413   1.954   2.803  0.4624  0.2305 -0.2913
 5100SOL    HW116199   1.499   1.903   2.814  0.8197  0.8558 -0.0855
 5100SOL    HW216200   1.343   1.913   2.861  0.9945  0.5154  0.5796
 5101SOL     OW16201   4.244   4.898   4.925 -1.0657  0.4513 -0.0684
 5101SOL    HW116202   4.202   4.870   5.011  0.6966 -0.6099  0.5070
 5101SOL    HW216203   4.288   4.818   4.882  0.6299  1.5249 -0.4232
 5102SOL     OW16204   4.300   6.103   1.337 -0.0164  0.3736  0.0631
 5102SOL    HW116205   4.215   6.082   1.385 -0.2383  1.2364  0.0714
 5102SOL    HW216206   4.349   6.174   1.387  0.5715  0.0845 -0.0975
 5103SOL     OW16207   3.999   3.693   4.979  0.6073  0.0000 -0.6523
 5103SOL    HW116208   3.964   3.718   4.889  0.6223  0.2470 -0.5899
 5103SOL    HW216209   4.070   3.623   4.969 -1.1822 -1.9117 -0.6632
 5104SOL     OW16210   3.220   0.744   5.913  0.4795 -0.0371  0.7663
 5104SOL    HW116211   3.214   0.823   5.851  0.4234 -0.1847  0.5841
 5104SOL    HW216212   3.223   0.660   5.859 -0.6245 -0.2295  0.9949
 5105SOL     OW16213   1.082   1.012   1.455  0.1607 -0.5622 -0.1959
 5105SOL    HW116214   1.016   0.937   1.456  0.5143 -0.9257 -1.4076
 5105SOL    HW216215   1.160   0.990   1.514 -0.4329 -0.4650  0.6371
 5106SOL     OW16216   6.546   0.046   5.340 -0.4541 -0.4959 -0.3225
 5106SOL    HW116217   6.473   0.066   5.406 -0.5649  0.5787 -0.7622
 5106SOL    HW216218   6.540  -0.050   5.314 -1.9218 -0.3589 -0.5930
 5107SOL     OW16219   4.572   5.006   6.198 -0.0085 -0.0960  0.3758
 5107SOL    HW116220   4.512   4.941   6.152  0.8976 -0.7067  0.0470
 5107SOL    HW216221   4.547   5.099   6.171 -0.1285 -0.3947 -0.5687
 5108SOL     OW16222   1.110   4.302   0.240  0.3632 -0.4702  0.1263
 5108SOL    HW116223   1.089   4.255   0.326 -0.6729  0.0626  0.1855
 5108SOL    HW216224   1.152   4.238   0.176  0.0132 -1.1861  0.6014
 5109SOL     OW16225   4.361   2.673   1.694 -0.1284 -0.0673  0.6076
 5109SOL    HW116226   4.322   2.585   1.718  0.7229 -1.0130 -1.3041
 5109SOL    HW216227   4.299   2.723   1.633  1.2383 -1.3547 -2.0136
 5110SOL     OW16228   0.647   0.509   5.191 -0.6371 -0.8690  0.2458
 5110SOL    HW116229   0.689   0.564   5.263 -1.5413 -0.2341  0.3000
 5110SOL    HW216230   0.607   0.427   5.232 -0.0152 -1.1596  0.2805
 5111SOL     OW16231   1.674   5.022   5.240 -0.7400  0.4056 -0.1047
 5111SOL    HW116232   1.771   5.030   5.265 -1.0013  0.3072  0.9794
 5111SOL    HW216233   1.618   5.070   5.306 -1.4576  0.3228 -0.6377
 5112SOL     OW16234   3.222   3.466   0.189 -0.0981  0.4429  0.6678
 5112SOL    HW116235   3.306   3.457   0.242  0.8143 -1.6190 -1.0016
 5112SOL    HW216236   3.243   3.473   0.092 -1.8069 -2.9252 -0.0916
 5113SOL     OW16237   3.729   3.200   4.334 -0.4942 -0.4279 -0.2226
 5113SOL    HW116238   3.647   3.198   4.392  0.0715  0.4732  0.6366
 5113SOL    HW216239   3.702   3.216   4.239 -1.3868 -1.2522 -0.1317
 5114SOL     OW16240   5.400   2.680   4.366  0.6871 -0.7664 -0.2804
 5114SOL    HW116241   5.353   2.740   4.302 -0.0908 -0.5330  0.4814
 5114SOL    HW216242   5.408   2.589   4.327 -0.9944 -0.9817 -0.2007
 5115SOL     OW16243   5.079   4.556   2.565 -0.3232  0.1295 -0.0968
 5115SOL    HW116244   5.148   4.547   2.493  0.6361 -0.9977  0.9215
 5115SOL    HW216245   5.077   4.650   2.598  0.3178  0.3048 -0.5374
 5116SOL     OW16246   5.182   0.891   0.040 -0.0385 -0.1359 -0.2786
 5116SOL    HW116247   5.191   0.853   0.132  2.5895 -1.9151 -1.1542
 5116SOL    HW216248   5.111   0.842  -0.010  0.0431 -0.6903  0.1363
 5117SOL     OW16249   3.445   1.122   4.282 -0.4405 -0.0802  0.1803
 5117SOL    HW116250   3.381   1.067   4.228 -2.0381  1.3337  0.5320
 5117SOL    HW216251   3.420   1.114   4.379  0.5369 -0.2509  0.4247
 5118SOL     OW16252   4.806   5.952   4.738 -0.9682 -0.4195  0.5191
 5118SOL    HW116253   4.755   6.006   4.805  1.8512  1.8757  1.0042
 5118SOL    HW216254   4.894   5.995   4.721 -1.4094 -0.9490 -4.6135
 5119SOL     OW16255   4.631   5.523   4.946 -0.0716 -0.2208 -0.2979
 5119SOL    HW116256   4.543   5.479   4.964  0.5854 -2.3702 -1.8272
 5119SOL    HW216257   4.632   5.559   4.853 -0.0138  1.7158  0.4048
 5120SOL     OW16258   1.233   1.774   2.947 -0.2313  0.1004 -0.2030
 5120SOL    HW116259   1.140   1.755   2.979  0.1636  0.3602  1.1590
 5120SOL    HW216260   1.290   1.693   2.959  0.6652  1.0519  2.6681
 5121SOL     OW16261   4.160   2.824   1.571  0.6260 -0.8439 -0.1757
 5121SOL    HW116262   4.124   2.887   1.503  1.2942 -0.9928 -0.6710
 5121SOL    HW216263   4.088   2.802   1.637  0.8978  2.1338  1.3159
 5122SOL     OW16264   3.403   5.927   1.778 -0.1199  0.2305 -0.1957
 5122SOL    HW116265   3.336   5.903   1.847  0.3708  1.0679  0.5983
 5122SOL    HW216266   3.450   5.844   1.746 -0.7808 -0.2301  0.0201
 5123SOL     OW16267   0.615   6.023   6.842 -0.2650 -0.0687  0.1843
 5123SOL    HW116268   0.709   6.049   6.818 -0.3376 -1.3017 -1.5810
 5123SOL    HW216269   0.554   6.099   6.824  0.0733 -0.0697 -1.0431
 5124SOL     OW16270   1.672   0.432   4.583  0.1262  0.2671 -0.2848
 5124SOL    HW116271   1.749   0.446   4.645 -0.5684  2.1936  0.2313
 5124SOL    HW216272   1.637   0.521   4.553 -1.6512 -0.5679 -0.8194
 5125SOL     OW16273   5.794   4.437   3.936 -0.5609 -0.1869  0.1429
 5125SOL    HW116274   5.851   4.374   3.883  1.0158  0.3559  1.1135
 5125SOL    HW216275   5.839   4.527   3.940 -2.2774  0.7460 -0.3681
 5126SOL     OW16276   1.833   0.555   5.054  0.4294 -0.4615 -0.0835
 5126SOL    HW116277   1.837   0.610   4.971 -1.5420 -1.4531 -0.9134
 5126SOL    HW216278   1.871   0.464   5.035 -0.1672 -0.7405  0.0329
 5127SOL     OW16279   0.370   3.812   6.847 -0.2148  0.4277  0.3426
 5127SOL    HW116280   0.423   3.783   6.767 -0.7156 -0.4343  0.3044
 5127SOL    HW216281   0.383   3.909   6.863  0.4855  0.4524 -0.3405
 5128SOL     OW16282   1.346   4.376   0.721  0.6315 -0.6953  0.1735
 5128SOL    HW116283   1.279   4.442   0.689  0.5063  0.2074  2.1799
 5128SOL    HW216284   1.299   4.303   0.772  1.0462 -0.7600  0.4667
 5129SOL     OW16285   1.745   2.444   4.300 -0.6254  0.2683 -0.5290
 5129SOL    HW116286   1.801   2.362   4.298 -0.9879  0.0178 -0.4960
 5129SOL    HW216287   1.656   2.423   4.339  0.6563  1.5339  3.6396
 5130SOL     OW16288   6.105   3.803   5.578 -0.1872  0.6089 -0.1226
 5130SOL    HW116289   6.167   3.854   5.518  0.6536  2.5832  2.2501
 5130SOL    HW216290   6.108   3.706   5.554  3.0804  0.7641 -0.7795
 5131SOL     OW16291   3.789   1.380   4.922 -0.7768 -0.5276  0.1023
 5131SOL    HW116292   3.887   1.362   4.914 -0.2027  0.8264  2.8014
 5131SOL    HW216293   3.769   1.474   4.895 -0.9805 -0.2060  1.3006
 5132SOL     OW16294   1.278   5.067   3.486 -0.4158 -0.1843 -0.2506
 5132SOL    HW116295   1.367   5.034   3.453 -0.6604  0.8229 -2.0069
 5132SOL    HW216296   1.209   5.054   3.416 -1.4655 -0.0240  0.7217
 5133SOL     OW16297   4.833   5.563   6.502  0.1857 -0.0005  0.5840
 5133SOL    HW116298   4.932   5.575   6.505  0.3233  0.3306 -2.3735
 5133SOL    HW216299   4.795   5.573   6.594  2.7529  0.9808  1.6146
 5134SOL     OW16300   0.838   6.829   6.836  0.0940 -0.0729 -0.0367
 5134SOL    HW116301   0.851   6.791   6.745  3.9186  0.8443 -0.0349
 5134SOL    HW216302   0.841   6.756   6.904  2.0554 -0.3792 -0.3950
 5135SOL     OW16303   6.451   3.835   3.161 -0.1781 -0.2579 -0.1486
 5135SOL    HW116304   6.448   3.930   3.133  0.3036  0.1073  0.9664
 5135SOL    HW216305   6.540   3.796   3.138  0.1369 -0.0214  0.6360
 5136SOL     OW16306   4.090   1.865   1.639 -0.0319  0.7713  0.2528
 5136SOL    HW116307   4.089   1.962   1.663 -1.4009  1.0168 -0.7171
 5136SOL    HW216308   4.054   1.853   1.547  0.0455 -0.6829  0.3903
 5137SOL     OW16309   0.148   1.913   5.385 -0.5678  0.2591 -0.2107
 5137SOL    HW116310   0.234   1.921   5.334 -0.1312 -0.5575  0.3649
 5137SOL    HW216311   0.088   1.989   5.362  0.4491  1.0384 -0.3598
 5138SOL     OW16312   5.188   4.157   6.311 -0.1319 -0.4004  0.1284
 5138SOL    HW116313   5.264   4.098   6.337  0.1710  0.3875  1.0736
 5138SOL    HW216314   5.155   4.207   6.391 -2.4585 -1.6092  0.0149
 5139SOL     OW16315   5.125   2.861   1.344 -0.0701 -0.2337  0.4181
 5139SOL    HW116316   5.035   2.889   1.313  1.3771  1.4024 -2.7839
 5139SOL    HW216317   5.143   2.767   1.313 -0.1198 -0.0064 -0.3170
 5140SOL     OW16318   1.366   2.042   5.521 -0.2523  0.0632 -0.3716
 5140SOL    HW116319   1.372   2.100   5.603 -0.7534 -0.3487 -0.0312
 5140SOL    HW216320   1.350   1.948   5.549  0.8251 -0.2912 -0.9153
 5141SOL     OW16321   4.666   2.091   1.209 -0.1378 -0.0842 -0.3458
 5141SOL    HW116322   4.577   2.102   1.253 -0.6608  1.1869 -1.6504
 5141SOL    HW216323   4.653   2.049   1.118  0.5651  0.3462 -0.6460
 5142SOL     OW16324   6.326   6.816   3.936 -0.0444 -0.1934 -0.5129
 5142SOL    HW116325   6.289   6.768   4.016 -1.8005  0.5896 -0.8065
 5142SOL    HW216326   6.255   6.823   3.866  0.6213  1.5299 -1.0541
 5143SOL     OW16327   2.441   5.653   5.440 -0.1554  0.4442  0.6526
 5143SOL    HW116328   2.478   5.735   5.482  2.7749 -0.4728  0.0639
 5143SOL    HW216329   2.341   5.662   5.431 -0.0842  3.3022  1.8249
 5144SOL     OW16330   6.820   3.269   0.450  0.2782 -0.0408 -0.1946
 5144SOL    HW116331   6.792   3.186   0.498  0.9766 -1.2796 -1.8265
 5144SOL    HW216332   6.827   3.345   0.515 -1.3648 -0.9874  1.1721
 5145SOL     OW16333   5.667   6.133   2.400  0.0744 -0.6200 -0.6021
 5145SOL    HW116334   5.623   6.047   2.426 -0.7447  0.0016  0.1283
 5145SOL    HW216335   5.621   6.209   2.445  0.4683  0.2544 -1.6220
 5146SOL     OW16336   3.757   4.862   0.469 -0.0244  0.2366  0.8176
 5146SOL    HW116337   3.828   4.892   0.533 -0.3213  0.8963  0.8564
 5146SOL    HW216338   3.731   4.939   0.411 -0.2662 -0.1690  0.3830
 5147SOL     OW16339   5.083   1.022   6.635  0.2520 -0.1681  0.2635
 5147SOL    HW116340   5.066   1.056   6.542 -0.7317  0.2995  0.5933
 5147SOL    HW216341   5.047   1.088   6.701 -0.3008 -1.1253  0.9434
 5148SOL     OW16342   5.423   0.539   2.898 -0.2488 -0.0291 -0.2588
 5148SOL    HW116343   5.433   0.471   2.971 -0.8881  1.6056  1.4373
 5148SOL    HW216344   5.511   0.581   2.878 -0.1884  0.0169  0.1011
 5149SOL     OW16345   1.709   2.128   3.153  0.4450  0.1387 -0.0639
 5149SOL    HW116346   1.665   2.127   3.242 -0.5215  0.2429 -0.5244
 5149SOL    HW216347   1.642   2.156   3.083  1.0281 -0.5033 -0.8964
 5150SOL     OW16348   4.670   0.616   6.585 -0.3722 -0.1481  0.1771
 5150SOL    HW116349   4.571   0.609   6.596 -0.3924  0.2178  0.2352
 5150SOL    HW216350   4.716   0.594   6.671 -0.4969  1.9083  0.8229
 5151SOL     OW16351   0.653   1.209   1.112  0.3081 -0.0664  0.1365
 5151SOL    HW116352   0.742   1.189   1.153  0.6006  0.9415  0.0330
 5151SOL    HW216353   0.599   1.264   1.176  0.8994  1.8233 -0.8998
 5152SOL     OW16354   6.108   3.106   5.728  0.1943 -0.6288  0.1725
 5152SOL    HW116355   6.188   3.125   5.786  1.0969 -1.4717 -0.7599
 5152SOL    HW216356   6.135   3.047   5.652 -0.6829  1.3269 -1.7829
 5153SOL     OW16357   0.115   5.942   0.149 -0.8979  0.2093  0.1423
 5153SOL    HW116358   0.182   5.944   0.224  0.2495  2.0970 -0.8277
 5153SOL    HW216359   0.104   5.848   0.116  1.4518 -0.1799  0.2482
 5154SOL     OW16360   4.675   2.812   4.987 -0.0296 -0.2265 -0.5403
 5154SOL    HW116361   4.616   2.827   5.067 -2.1023  1.2699 -2.2121
 5154SOL    HW216362   4.633   2.743   4.928  2.5015 -2.8511  0.4878
 5155SOL     OW16363   0.917   0.784   1.461  0.1100 -0.2793  0.3028
 5155SOL    HW116364   0.920   0.716   1.388  1.2079  0.1934 -0.1058
 5155SOL    HW216365   0.912   0.737   1.550  2.9305 -0.9947  0.1597
 5156SOL     OW16366   0.598   1.038   2.529  0.1243  0.0991  0.3647
 5156SOL    HW116367   0.578   1.048   2.626 -0.6642 -0.0809  0.2278
 5156SOL    HW216368   0.586   0.943   2.501  0.3022  0.1563  0.0814
 5157SOL     OW16369   2.132   0.919   3.293 -0.0319 -0.4720  0.0230
 5157SOL    HW116370   2.157   0.954   3.203 -0.3569 -0.3715 -0.0325
 5157SOL    HW216371   2.207   0.932   3.357 -0.7693  2.0419  0.4775
 5158SOL     OW16372   1.842   2.949   6.595  0.3939  0.1909  0.5861
 5158SOL    HW116373   1.807   3.018   6.531  2.4857 -1.0104 -2.0561
 5158SOL    HW216374   1.938   2.969   6.615  0.3230 -0.5982  1.7845
 5159SOL     OW16375   6.706   2.745   6.252  0.6195  0.3179  0.3643
 5159SOL    HW116376   6.621   2.693   6.259  1.3951 -1.0211  0.2956
 5159SOL    HW216377   6.760   2.709   6.175  0.4105  2.4406 -0.8544
 5160SOL     OW16378   6.005   5.246   5.742 -0.0584 -0.0099  0.0538
 5160SOL    HW116379   5.970   5.153   5.752 -2.1798  0.3864 -2.5498
 5160SOL    HW216380   6.088   5.243   5.686 -2.1109 -0.1903 -3.2206
 5161SOL     OW16381   5.625   2.682   6.544 -0.8436  0.1885 -0.0552
 5161SOL    HW116382   5.536   2.717   6.518 -0.8517 -1.3093 -2.2519
 5161SOL    HW216383   5.659   2.619   6.474  2.4524  1.5470  0.1191
 5162SOL     OW16384   4.807   1.500   2.445  0.0990  0.0162 -0.2490
 5162SOL    HW116385   4.793   1.587   2.397  1.4278  1.7587  2.2466
 5162SOL    HW216386   4.836   1.519   2.539 -3.4837 -3.0799  1.7583
 5163SOL     OW16387   0.500   1.167   2.237 -0.5485 -0.3369  0.3672
 5163SOL    HW116388   0.430   1.186   2.169  0.4921 -1.3925 -1.0517
 5163SOL    HW216389   0.576   1.117   2.195  1.1549  0.8878  1.7960
 5164SOL     OW16390   2.050   4.169   4.220 -0.1926  0.1500  0.2138
 5164SOL    HW116391   2.062   4.074   4.189 -0.2255  0.5843 -1.2066
 5164SOL    HW216392   1.958   4.200   4.197 -0.0483  0.6517  0.3028
 5165SOL     OW16393   3.095   6.110   6.691 -0.6045 -0.6604  0.2157
 5165SOL    HW116394   3.087   6.190   6.632  0.0588  0.0791  1.0875
 5165SOL    HW216395   3.158   6.044   6.650  3.0121  1.5123  1.7172
 5166SOL     OW16396   0.930   5.516   4.493  0.2878  0.2926  0.4115
 5166SOL    HW116397   1.018   5.540   4.451  1.1387  0.8708  2.4269
 5166SOL    HW216398   0.859   5.517   4.422  1.7638  0.4364 -1.1488
 5167SOL     OW16399   4.898   1.961   3.332 -0.3925  0.2355 -0.3197
 5167SOL    HW116400   4.850   2.047   3.349 -0.6403  0.0809 -0.2402
 5167SOL    HW216401   4.892   1.902   3.412 -2.3579 -0.8778 -1.1988
 5168SOL     OW16402   6.486   4.227   5.169 -0.5527  0.0858  0.1540
 5168SOL    HW116403   6.452   4.156   5.108  1.9565 -0.8073 -0.3168
 5168SOL    HW216404   6.586   4.224   5.172 -0.4861  1.6130  2.5326
 5169SOL     OW16405   5.646   3.937   3.563  0.2287  0.5273  0.9211
 5169SOL    HW116406   5.682   4.030   3.567 -1.3257  1.2573 -0.7694
 5169SOL    HW216407   5.651   3.903   3.470 -0.2999 -0.6301  1.3004
 5170SOL     OW16408   1.763   2.750   6.437  0.1109  0.6228  0.1326
 5170SOL    HW116409   1.785   2.823   6.501  0.3305 -0.7498  1.7118
 5170SOL    HW216410   1.821   2.670   6.458 -0.7869 -0.3241 -0.8919
 5171SOL     OW16411   1.308   3.647   5.682  0.2750 -0.1508 -0.8000
 5171SOL    HW116412   1.228   3.589   5.670  0.0521 -0.7670  2.6434
 5171SOL    HW216413   1.386   3.591   5.711  2.0283  0.4571 -3.9496
 5172SOL     OW16414   2.777   3.803   5.867  0.2963  0.3367 -0.5527
 5172SOL    HW116415   2.707   3.858   5.820  0.4450  1.7499  0.7925
 5172SOL    HW216416   2.825   3.746   5.800 -1.1545  0.4198 -1.7170
 5173SOL     OW16417   3.643   5.901   6.202  0.2647  0.1745 -0.2401
 5173SOL    HW116418   3.654   5.961   6.281  1.7716  0.5695 -0.7064
 5173SOL    HW216419   3.647   5.805   6.233 -1.6616  0.2717  0.4400
 5174SOL     OW16420   5.304   1.222   1.952 -0.0363 -0.0175 -0.3057
 5174SOL    HW116421   5.314   1.179   2.042 -0.4799  0.0805 -0.2099
 5174SOL    HW216422   5.342   1.161   1.882  0.9139  0.1925  0.0114
 5175SOL     OW16423   5.545   1.296   2.145  0.5717  0.2820  1.3294
 5175SOL    HW116424   5.475   1.258   2.205  0.4671  0.4222  1.2965
 5175SOL    HW216425   5.591   1.371   2.192  1.1423 -0.2263  1.5992
 5176SOL     OW16426   4.955   2.005   0.689 -0.3331 -0.1057 -0.0925
 5176SOL    HW116427   4.981   2.095   0.724  2.0051 -1.3373  1.6003
 5176SOL    HW216428   4.951   2.008   0.589 -0.4919  1.8833 -0.0684
 5177SOL     OW16429   1.212   4.390   2.037 -0.0076 -0.2404 -0.1054
 5177SOL    HW116430   1.254   4.366   1.949  1.7804  1.1376  0.3232
 5177SOL    HW216431   1.280   4.384   2.110 -1.1707 -0.2200  1.0189
 5178SOL     OW16432   3.394   5.200   3.799  0.1970 -0.2025  0.1784
 5178SOL    HW116433   3.485   5.226   3.768  1.6316 -3.3940  1.2928
 5178SOL    HW216434   3.350   5.278   3.843  2.4844  1.3385 -0.1215
 5179SOL     OW16435   4.718   4.891   5.887  0.0704  0.1952 -0.6638
 5179SOL    HW116436   4.674   4.836   5.958  1.1188 -1.5926 -1.3552
 5179SOL    HW216437   4.648   4.946   5.841 -0.9160 -0.0747  0.4406
 5180SOL     OW16438   1.777   2.964   3.084  0.1116  0.0946  0.4010
 5180SOL    HW116439   1.783   2.997   2.990 -0.6717  0.5561  0.5140
 5180SOL    HW216440   1.826   2.876   3.091  0.0714 -0.0048 -0.4563
 5181SOL     OW16441   5.742   4.301   6.824  0.4098  0.3360 -0.2006
 5181SOL    HW116442   5.773   4.383   6.776  0.9729 -0.0059 -0.4395
 5181SOL    HW216443   5.648   4.313   6.853  0.2190  0.7532 -0.9582
 5182SOL     OW16444   3.503   2.791   0.060 -0.0247 -0.0189 -0.4262
 5182SOL    HW116445   3.455   2.784   0.148 -0.0410  1.3704 -0.2984
 5182SOL    HW216446   3.443   2.836  -0.007  0.3755 -0.0937 -0.8389
 5183SOL     OW16447   4.490   2.227   6.212 -0.3593  0.5916  0.8872
 5183SOL    HW116448   4.455   2.250   6.121 -1.5002 -1.2644  0.8213
 5183SOL    HW216449   4.590   2.230   6.210 -0.2889 -0.7696 -0.8511
 5184SOL     OW16450   0.993   1.792   1.486  0.5316  0.1009  0.6210
 5184SOL    HW116451   1.085   1.806   1.448 -0.3899  0.1115 -1.7963
 5184SOL    HW216452   0.947   1.720   1.434 -0.3987 -0.8831  2.6738
 5185SOL     OW16453   0.309   5.419   3.654  0.4699  0.0394 -0.4752
 5185SOL    HW116454   0.364   5.490   3.610 -0.8964  1.8062  0.5470
 5185SOL    HW216455   0.212   5.441   3.644 -0.0990 -2.6484 -1.6422
 5186SOL     OW16456   2.724   1.524   2.011  0.7551  0.2143  0.9858
 5186SOL    HW116457   2.708   1.500   1.915 -1.3454  0.6691  1.1764
 5186SOL    HW216458   2.817   1.496   2.037  1.2080 -0.3430 -1.0241
 5187SOL     OW16459   6.728   2.408   4.748 -0.0172 -0.4765 -0.4351
 5187SOL    HW116460   6.777   2.321   4.743  0.4145 -0.1735 -1.9398
 5187SOL    HW216461   6.681   2.425   4.662 -0.4386  0.5923 -0.0162
 5188SOL     OW16462   4.304   0.514   3.407  0.5659  0.1838  0.0461
 5188SOL    HW116463   4.395   0.514   3.447  0.9935 -0.1486 -0.9038
 5188SOL    HW216464   4.264   0.423   3.413 -0.0337  0.5151  1.1825
 5189SOL     OW16465   5.261   4.422   3.194 -0.4728 -0.3820 -0.1007
 5189SOL    HW116466   5.211   4.380   3.118  0.8734  0.0062 -1.2371
 5189SOL    HW216467   5.355   4.440   3.166 -0.3938  1.3149  1.1116
 5190SOL     OW16468   6.871   4.502   6.419  0.1722 -0.4575  0.3144
 5190SOL    HW116469   6.876   4.465   6.512 -0.8759 -1.3466  0.0431
 5190SOL    HW216470   6.851   4.600   6.423 -0.8974 -0.6870  1.0275
 5191SOL     OW16471   2.250   6.640   4.490 -0.2685 -0.1589  0.2584
 5191SOL    HW116472   2.217   6.696   4.414 -2.4525  0.1728  1.3720
 5191SOL    HW216473   2.271   6.548   4.457  1.2348  0.6328 -1.1685
 5192SOL     OW16474   0.454   0.052   5.154 -0.1683  0.4045 -0.3938
 5192SOL    HW116475   0.513   0.040   5.075 -0.1943  0.5182 -0.4315
 5192SOL    HW216476   0.359   0.036   5.128 -0.1557  0.2389 -0.3378
 5193SOL     OW16477   1.101   5.486   6.410 -0.4371 -0.1651 -0.0683
 5193SOL    HW116478   1.184   5.438   6.439  0.1482  0.3594 -0.8437
 5193SOL    HW216479   1.126   5.571   6.364 -1.4700  1.4249  2.1457
 5194SOL     OW16480   2.132   6.788   2.715 -0.7408 -0.0031 -0.2105
 5194SOL    HW116481   2.053   6.843   2.687 -1.0044 -0.9572 -1.4033
 5194SOL    HW216482   2.163   6.733   2.638  0.4124 -0.4644  0.5657
 5195SOL     OW16483   3.003   4.223   5.216 -0.0823 -0.0137 -0.0177
 5195SOL    HW116484   2.932   4.158   5.244  0.0045 -0.1498 -0.1119
 5195SOL    HW216485   2.963   4.315   5.209 -0.4490 -0.2183 -0.8640
 5196SOL     OW16486   6.988   3.866   1.611 -0.1865 -0.3580  0.3438
 5196SOL    HW116487   6.969   3.814   1.694 -1.6022  0.2578  0.4314
 5196SOL    HW216488   6.963   3.812   1.531 -0.4748 -0.2902  0.3873
 5197SOL     OW16489   7.002   3.958   2.570 -0.1380  0.1088  0.3446
 5197SOL    HW116490   6.909   3.934   2.544 -0.3245  1.5207 -0.4057
 5197SOL    HW216491   7.000   4.035   2.633  0.5427  0.7558 -0.4068
 5198SOL     OW16492   2.667   4.137   6.603  0.0464  0.2123 -0.3601
 5198SOL    HW116493   2.651   4.081   6.521  1.6870 -3.0552  1.3295
 5198SOL    HW216494   2.604   4.110   6.675 -0.7775  2.4138 -0.1861
 5199SOL     OW16495   0.576   6.119   3.889 -0.0645 -0.5246 -0.3956
 5199SOL    HW116496   0.623   6.181   3.826 -0.8642  1.7295  1.1435
 5199SOL    HW216497   0.489   6.092   3.849 -0.0629 -0.0210 -0.7502
 5200SOL     OW16498   0.517   3.281   2.877 -0.9984  0.3489  0.3561
 5200SOL    HW116499   0.473   3.235   2.799 -0.5230  0.7484 -0.1580
 5200SOL    HW216500   0.582   3.218   2.920 -2.2718 -0.3584  1.3228
 5201SOL     OW16501   3.924   5.306   1.110 -0.1599 -0.0786  0.1736
 5201SOL    HW116502   3.897   5.306   1.014  0.1814 -0.5186  0.0710
 5201SOL    HW216503   3.851   5.265   1.165 -0.8993  1.3275  0.2773
 5202SOL     OW16504   6.013   2.525   1.941  1.1801 -0.2507  0.4223
 5202SOL    HW116505   6.106   2.555   1.961  0.7933  1.4858 -0.1338
 5202SOL    HW216506   5.949   2.600   1.962  0.1625 -0.5336 -1.4153
 5203SOL     OW16507   4.965   4.971   0.743  0.7658 -0.0704  0.9065
 5203SOL    HW116508   4.956   4.987   0.842 -1.1076 -0.0387  0.7584
 5203SOL    HW216509   4.987   5.057   0.697  0.0407  0.2540  1.1445
 5204SOL     OW16510   1.926   4.136   0.811  0.6339  0.1083  0.3591
 5204SOL    HW116511   2.021   4.103   0.810  0.2499 -1.1103  1.0891
 5204SOL    HW216512   1.877   4.091   0.885 -0.7369  0.0803 -0.5335
 5205SOL     OW16513   2.489   4.519   2.199  0.6805 -0.5410  0.1626
 5205SOL    HW116514   2.473   4.535   2.102  2.5907 -2.0443 -0.4517
 5205SOL    HW216515   2.569   4.570   2.229  0.4202 -0.5066  0.8188
 5206SOL     OW16516   4.915   5.929   6.964 -0.3658  0.5061 -0.1993
 5206SOL    HW116517   4.848   5.887   7.026 -0.0667  1.2396  0.6413
 5206SOL    HW216518   4.869   5.997   6.907 -0.4268  0.6768  0.0505
 5207SOL     OW16519   1.493   1.839   3.131  0.1604 -0.2505 -0.0182
 5207SOL    HW116520   1.575   1.845   3.073 -0.5414  0.0177 -1.0161
 5207SOL    HW216521   1.419   1.892   3.089 -0.7262 -1.0209  0.5346
 5208SOL     OW16522   2.595   6.189   4.875 -0.8388  0.2333 -0.4359
 5208SOL    HW116523   2.525   6.237   4.823 -2.7048 -1.4200  0.3993
 5208SOL    HW216524   2.578   6.091   4.871 -1.5343  0.0041  3.7541
 5209SOL     OW16525   3.632   2.524   1.511 -0.1247 -0.7902 -0.1246
 5209SOL    HW116526   3.641   2.552   1.607  1.5024  1.0661 -0.7512
 5209SOL    HW216527   3.723   2.510   1.472 -0.7005 -0.2353 -1.7476
 5210SOL     OW16528   6.048   3.845   4.236  0.1297 -0.0793  0.0028
 5210SOL    HW116529   6.077   3.752   4.257 -0.7609 -0.2083  0.7531
 5210SOL    HW216530   6.042   3.857   4.137 -0.0515 -0.9147 -0.0926
 5211SOL     OW16531   1.686   1.304   1.604 -0.2586  0.5428  0.4383
 5211SOL    HW116532   1.605   1.253   1.572 -0.3541  0.7382  0.3660
 5211SOL    HW216533   1.685   1.395   1.563  0.6621  0.1254 -0.5800
 5212SOL     OW16534   5.569   5.681   1.368 -0.6036  0.3016 -0.0462
 5212SOL    HW116535   5.595   5.628   1.449  0.5720 -1.7651 -1.6796
 5212SOL    HW216536   5.469   5.693   1.367 -0.7059 -0.1635  1.3540
 5213SOL     OW16537   6.352   0.715   4.572 -0.1000  0.2873 -0.6224
 5213SOL    HW116538   6.375   0.670   4.487  0.5047 -1.4097  0.3965
 5213SOL    HW216539   6.269   0.675   4.610  1.8661 -1.9834  1.6233
 5214SOL     OW16540   0.118   3.607   3.329  0.2564  0.5261 -0.1136
 5214SOL    HW116541   0.050   3.679   3.341  0.3564  0.5373  0.4073
 5214SOL    HW216542   0.151   3.577   3.418  0.2202 -0.1593 -0.3234
 5215SOL     OW16543   5.119   0.771   5.689  0.0358 -0.2943 -0.5535
 5215SOL    HW116544   5.215   0.785   5.662  0.0629  0.0699 -0.2770
 5215SOL    HW216545   5.061   0.836   5.640 -0.0865 -0.6037 -0.8199
 5216SOL     OW16546   6.302   5.930   6.148  0.2829 -0.0180  0.0297
 5216SOL    HW116547   6.367   5.953   6.220 -1.0788  0.4619  1.1454
 5216SOL    HW216548   6.308   5.997   6.074 -0.2845  1.1751  1.0310
 5217SOL     OW16549   2.524   1.137   3.366 -0.3312  0.7368 -0.5471
 5217SOL    HW116550   2.484   1.150   3.456  1.1800  0.6819  0.1464
 5217SOL    HW216551   2.554   1.224   3.329 -1.8008  0.9064 -1.4482
 5218SOL     OW16552   2.000   1.013   2.483  0.2777 -0.0584 -0.3274
 5218SOL    HW116553   2.092   1.042   2.459 -0.2116  0.5089 -1.6298
 5218SOL    HW216554   1.940   1.093   2.489 -0.1638 -0.4321  0.3512
 5219SOL     OW16555   3.449   1.515   0.851 -0.5262  0.3729 -0.5051
 5219SOL    HW116556   3.416   1.586   0.914  1.3209  0.7920  0.0315
 5219SOL    HW216557   3.439   1.547   0.757  0.4241  1.4300 -0.2668
 5220SOL     OW16558   1.100   5.873   0.023  0.0902 -0.3360  0.3004
 5220SOL    HW116559   1.008   5.853  -0.010 -0.1609 -2.2037  1.9092
 5220SOL    HW216560   1.096   5.892   0.122  1.3003  0.7365  0.1651
 5221SOL     OW16561   4.272   1.592   3.724 -1.1313 -0.0337 -0.7151
 5221SOL    HW116562   4.340   1.665   3.738  1.1911 -1.9506 -1.3669
 5221SOL    HW216563   4.245   1.555   3.813 -0.1336 -0.2400 -0.4807
 5222SOL     OW16564   3.132   0.309   6.027 -0.5357  0.7901  0.3435
 5222SOL    HW116565   3.059   0.295   5.959  0.3829  0.8566 -0.6927
 5222SOL    HW216566   3.099   0.367   6.101 -2.5575 -1.7788  1.5994
 5223SOL     OW16567   3.941   6.221   4.178  0.3135  0.0914 -0.0136
 5223SOL    HW116568   3.911   6.288   4.247 -1.2383 -0.1217 -0.4536
 5223SOL    HW216569   3.894   6.134   4.193  2.7218 -1.1541  0.9026
 5224SOL     OW16570   6.378   1.357   0.920 -0.4752  0.0781 -0.2241
 5224SOL    HW116571   6.380   1.413   0.838 -1.4483  0.5370  0.0580
 5224SOL    HW216572   6.380   1.260   0.894 -0.0226  0.2236 -0.7538
 5225SOL     OW16573   3.890   2.794   0.603  0.1125  0.1537  0.6211
 5225SOL    HW116574   3.873   2.877   0.549 -0.5337 -0.5476 -0.2977
 5225SOL    HW216575   3.981   2.759   0.582 -0.3611 -0.4503 -0.5102
 5226SOL     OW16576   4.648   5.780   4.199 -0.1804 -0.5488 -0.2479
 5226SOL    HW116577   4.721   5.802   4.264 -0.8784  0.4040  0.2372
 5226SOL    HW216578   4.657   5.684   4.171  2.1796 -0.0724 -1.4165
 5227SOL     OW16579   0.324   1.427   4.724 -0.1351 -0.3373  0.6749
 5227SOL    HW116580   0.259   1.427   4.647 -1.6152  2.4172  1.7679
 5227SOL    HW216581   0.337   1.334   4.756 -1.3474 -1.3018 -1.3876
 5228SOL     OW16582   1.294   1.274   5.170  0.0880 -0.0439  0.5000
 5228SOL    HW116583   1.226   1.336   5.132  1.6358  1.2407 -0.3092
 5228SOL    HW216584   1.312   1.200   5.104 -0.6026 -0.4816  0.7865
 5229SOL     OW16585   6.431   0.228   2.443 -0.3866 -0.0144  0.2062
 5229SOL    HW116586   6.485   0.160   2.394 -1.7874 -1.3227  0.4310
 5229SOL    HW216587   6.465   0.320   2.419  0.1732 -0.6742 -1.7407
 5230SOL     OW16588   6.235   0.960   0.453 -0.3440 -0.8021  0.2694
 5230SOL    HW116589   6.250   1.047   0.501  0.7497  0.2482 -1.8503
 5230SOL    HW216590   6.283   0.962   0.366 -1.3563 -3.0741 -0.3934
 5231SOL     OW16591   6.704   0.646   1.479 -0.5352 -0.0952 -0.0449
 5231SOL    HW116592   6.733   0.728   1.429  0.0213 -0.8103 -0.9114
 5231SOL    HW216593   6.610   0.658   1.510 -0.5167  0.8076 -0.3064
 5232SOL     OW16594   2.799   2.791   1.405 -0.2369  0.0639 -0.2826
 5232SOL    HW116595   2.831   2.733   1.330 -0.8868 -0.3992 -0.2023
 5232SOL    HW216596   2.769   2.734   1.481 -0.9653  0.5026 -0.2335
 5233SOL     OW16597   1.185   2.179   6.071 -0.1419 -0.7237 -0.4193
 5233SOL    HW116598   1.179   2.248   5.999  0.4366 -0.3286 -0.0940
 5233SOL    HW216599   1.201   2.089   6.030  2.7754 -0.1698 -0.7304
 5234SOL     OW16600   0.808   1.050   4.235 -0.1437 -0.5685  0.1894
 5234SOL    HW116601   0.889   1.014   4.188 -0.7529 -0.2634 -1.1510
 5234SOL    HW216602   0.779   1.134   4.189 -1.6212 -1.0455  0.2257
 5235SOL     OW16603   0.544   4.045   2.600 -0.2250  0.0803  0.3700
 5235SOL    HW116604   0.500   4.126   2.562  0.9848  1.6183  2.0149
 5235SOL    HW216605   0.560   4.059   2.698  2.5673 -0.9491  0.1556
 5236SOL     OW16606   3.508   6.462   4.583  0.1525 -0.4048 -0.5368
 5236SOL    HW116607   3.555   6.544   4.617 -1.4438  1.2855 -2.2244
 5236SOL    HW216608   3.519   6.388   4.650  2.3324  0.8812  0.6704
 5237SOL     OW16609   0.396   3.594   2.245 -0.0669 -0.0792 -0.0212
 5237SOL    HW116610   0.301   3.604   2.273 -0.5593 -0.9473 -1.2784
 5237SOL    HW216611   0.424   3.675   2.192 -0.5368 -0.3900 -0.7646
 5238SOL     OW16612   4.889   4.501   0.477  0.2871  0.9166  0.0161
 5238SOL    HW116613   4.912   4.589   0.519 -0.4766  0.7567  0.8186
 5238SOL    HW216614   4.861   4.437   0.549  0.2132  0.2228 -0.6242
 5239SOL     OW16615   3.280   3.857   3.421  0.4765 -0.5241 -0.5866
 5239SOL    HW116616   3.311   3.766   3.448  0.9259  0.0713  1.0899
 5239SOL    HW216617   3.344   3.896   3.355  1.5668 -0.5788  0.3939
 5240SOL     OW16618   1.217   3.188   0.447 -0.2917  0.5558  0.0957
 5240SOL    HW116619   1.187   3.281   0.426  0.9513  0.8485 -0.4836
 5240SOL    HW216620   1.200   3.129   0.367  0.7145  0.7503 -0.2826
 5241SOL     OW16621   4.246   5.894   0.927  0.2062  0.1583  0.3496
 5241SOL    HW116622   4.178   5.825   0.954 -1.8744  1.7530 -0.5582
 5241SOL    HW216623   4.245   5.969   0.992  1.1703  0.1891  0.3480
 5242SOL     OW16624   4.687   4.857   0.069  0.0693 -0.6178 -0.4481
 5242SOL    HW116625   4.705   4.765   0.035 -0.6236 -0.5861 -0.9246
 5242SOL    HW216626   4.591   4.864   0.098  0.2744 -0.2215  0.1455
 5243SOL     OW16627   2.160   3.132   6.253 -0.0224  0.3022 -0.5310
 5243SOL    HW116628   2.241   3.097   6.207  0.5829  2.2373 -1.0255
 5243SOL    HW216629   2.086   3.144   6.186 -0.8146 -1.5962 -0.0573
 5244SOL     OW16630   5.926   0.898   0.102 -0.3192  0.2437  0.8078
 5244SOL    HW116631   6.006   0.907   0.043 -0.4822 -1.2745  0.3237
 5244SOL    HW216632   5.866   0.977   0.087 -1.0828 -0.7575 -2.2489
 5245SOL     OW16633   3.138   2.344   1.348 -0.3960 -0.1983  0.1066
 5245SOL    HW116634   3.190   2.275   1.399  1.2917  0.5648 -0.5219
 5245SOL    HW216635   3.155   2.434   1.386  2.5005  0.6801 -2.8604
 5246SOL     OW16636   2.072   4.979   2.211 -0.6235 -0.1607  0.0125
 5246SOL    HW116637   2.137   5.051   2.185  0.3328 -0.2339  2.0086
 5246SOL    HW216638   1.979   5.010   2.192 -0.1055  0.3083 -2.0722
 5247SOL     OW16639   2.593   1.272   4.409  0.9159  0.0998  0.2701
 5247SOL    HW116640   2.676   1.328   4.401  0.2277  1.0872 -0.1272
 5247SOL    HW216641   2.571   1.233   4.320  0.3749  0.6841  0.1475
 5248SOL     OW16642   6.419   0.396   3.409 -0.2581  0.4335  0.0101
 5248SOL    HW116643   6.451   0.432   3.321 -1.4063  1.9395  0.1707
 5248SOL    HW216644   6.474   0.316   3.433  0.7815  0.6090 -1.5579
 5249SOL     OW16645   1.853   6.598   5.574  0.2674  0.4284 -0.0951
 5249SOL    HW116646   1.911   6.525   5.539  1.1720  1.4730 -0.8390
 5249SOL    HW216647   1.759   6.565   5.580  0.8169 -1.1044  0.5568
 5250SOL     OW16648   2.071   3.811   0.286 -0.4697  0.1597  0.2105
 5250SOL    HW116649   2.081   3.857   0.198  2.9618  0.3741  0.5901
 5250SOL    HW216650   2.121   3.725   0.285  1.4039  1.0949  2.4812
 5251SOL     OW16651   5.384   7.004   3.890 -0.0260  0.4455 -0.0118
 5251SOL    HW116652   5.481   6.982   3.893  0.1459  1.2594  1.8792
 5251SOL    HW216653   5.331   6.930   3.930 -0.2852 -0.3038 -1.6671
 5252SOL     OW16654   0.874   4.247   0.627  0.5851  0.3788 -0.1391
 5252SOL    HW116655   0.861   4.153   0.659  1.3647  0.3441  0.0984
 5252SOL    HW216656   0.920   4.246   0.538 -1.6069  0.4727 -1.3492
 5253SOL     OW16657   3.156   5.711   1.090 -0.7394  0.5837  0.7836
 5253SOL    HW116658   3.248   5.724   1.053 -1.5210  0.3541 -1.4466
 5253SOL    HW216659   3.155   5.630   1.149 -0.4155 -2.7913 -3.2891
 5254SOL     OW16660   1.646   5.946   0.597  0.4843  0.3463 -0.2515
 5254SOL    HW116661   1.707   6.000   0.654  0.6166  0.8917 -0.9043
 5254SOL    HW216662   1.567   5.917   0.652  0.1210  1.6823 -0.0357
 5255SOL     OW16663   4.367   2.403   3.990  0.8545 -0.6105  0.0023
 5255SOL    HW116664   4.352   2.494   4.030 -1.5975  1.3368 -4.6253
 5255SOL    HW216665   4.288   2.345   4.009  0.5560 -0.3485 -0.4335
 5256SOL     OW16666   6.979   1.078   1.783  0.3637  0.0852  0.5343
 5256SOL    HW116667   6.893   1.034   1.758  0.8685 -0.1459 -0.9012
 5256SOL    HW216668   6.960   1.166   1.827 -0.6246  0.4665 -0.5923
 5257SOL     OW16669   5.336   5.032   6.192  0.0315  0.0069  0.0400
 5257SOL    HW116670   5.432   5.053   6.173  0.4711 -0.1302  1.8388
 5257SOL    HW216671   5.291   5.113   6.228 -0.1743 -0.2581  0.3891
 5258SOL     OW16672   4.060   1.030   4.676  0.7636 -0.0163 -0.0031
 5258SOL    HW116673   4.066   1.103   4.608  0.4805  0.4527  0.4702
 5258SOL    HW216674   3.964   1.011   4.696  0.8356 -0.6074 -0.2160
 5259SOL     OW16675   0.745   5.244   2.723 -0.4913 -0.2261  0.9095
 5259SOL    HW116676   0.661   5.238   2.776 -1.1164 -1.5073 -0.1569
 5259SOL    HW216677   0.729   5.300   2.641 -0.0827  0.1633  1.0910
 5260SOL     OW16678   3.013   1.575   5.169 -0.2988 -1.0726  0.6317
 5260SOL    HW116679   3.098   1.626   5.173 -0.6725 -0.5087  2.0424
 5260SOL    HW216680   3.023   1.498   5.106  0.6277  0.0631 -0.6602
 5261SOL     OW16681   5.164   5.821   4.631  0.3599  0.8160 -0.1865
 5261SOL    HW116682   5.147   5.902   4.687  1.8032  0.5117  0.7421
 5261SOL    HW216683   5.119   5.742   4.672 -1.6201  1.2306 -1.4599
 5262SOL     OW16684   1.961   4.670   0.319 -0.4740 -0.4798 -0.1188
 5262SOL    HW116685   2.015   4.607   0.376  0.6517  1.0403  0.5551
 5262SOL    HW216686   1.928   4.745   0.375 -2.5353 -0.8675 -0.7439
 5263SOL     OW16687   0.263   3.439   1.522  0.4469  0.3598 -0.5283
 5263SOL    HW116688   0.166   3.452   1.500 -0.5686 -0.2089  2.9737
 5263SOL    HW216689   0.306   3.529   1.534  0.0872  0.6054 -1.0024
 5264SOL     OW16690   1.119   5.902   1.216 -0.0259 -0.1611 -0.2257
 5264SOL    HW116691   1.100   5.838   1.290 -1.7846 -0.9183 -1.2526
 5264SOL    HW216692   1.205   5.950   1.234  0.9002 -2.1567  1.0279
 5265SOL     OW16693   5.570   5.135   4.236 -0.4342 -0.0518  0.6618
 5265SOL    HW116694   5.551   5.172   4.327 -0.6428 -0.1080  0.6410
 5265SOL    HW216695   5.531   5.044   4.229  0.8741 -0.6664  1.0332
 5266SOL     OW16696   6.677   6.972   5.695 -0.0237 -0.1455 -0.0790
 5266SOL    HW116697   6.657   6.993   5.791 -0.2062  3.2074 -0.7356
 5266SOL    HW216698   6.614   6.902   5.662  1.1685 -2.7233  2.6383
 5267SOL     OW16699   1.811   5.909   2.955  0.0742  0.1000 -0.2561
 5267SOL    HW116700   1.762   5.856   3.024 -0.3058 -1.3465 -1.5743
 5267SOL    HW216701   1.753   5.984   2.923 -1.5218 -1.7417 -1.9829
 5268SOL     OW16702   0.614   1.882   1.003 -0.2996  0.6580  0.5274
 5268SOL    HW116703   0.622   1.966   0.949 -0.0720 -0.4803 -1.2952
 5268SOL    HW216704   0.548   1.821   0.960  1.1408 -0.9971  0.5694
 5269SOL     OW16705   4.612   5.992   0.912  0.3368  0.2507  0.0218
 5269SOL    HW116706   4.634   6.067   0.849 -2.8871 -0.3699 -2.0996
 5269SOL    HW216707   4.585   6.030   1.000  0.7074  1.4315 -0.3477
 5270SOL     OW16708   6.657   2.245   6.693 -0.1732 -0.1658 -0.4180
 5270SOL    HW116709   6.727   2.175   6.697  0.7464  0.6527 -1.6213
 5270SOL    HW216710   6.653   2.285   6.602 -0.7360  1.2757  0.1953
 5271SOL     OW16711   2.636   6.861   5.368 -0.0688  0.3182 -0.3473
 5271SOL    HW116712   2.578   6.929   5.412 -0.5976 -0.9466  1.0165
 5271SOL    HW216713   2.598   6.770   5.383  1.5712 -0.4503 -0.5421
 5272SOL     OW16714   4.535   4.668   6.018 -0.0777  0.6268 -0.3727
 5272SOL    HW116715   4.494   4.580   6.040 -0.2362  0.9951  0.8699
 5272SOL    HW216716   4.609   4.654   5.952 -0.7944 -0.2950 -1.0013
 5273SOL     OW16717   5.069   2.630   4.724  0.2826 -0.2008  0.0616
 5273SOL    HW116718   5.148   2.628   4.786 -0.6405  1.0073  1.3547
 5273SOL    HW216719   4.994   2.577   4.765 -0.6328  1.3392  0.4433
 5274SOL     OW16720   1.427   2.041   0.235  0.3463 -0.5235 -0.4538
 5274SOL    HW116721   1.336   2.077   0.216  0.1259  1.2853  3.1766
 5274SOL    HW216722   1.494   2.092   0.181 -0.5011  1.1211 -0.0476
 5275SOL     OW16723   1.224   6.102   5.651 -0.0451 -0.1291  0.3235
 5275SOL    HW116724   1.290   6.176   5.642 -0.0605 -0.1538 -0.0171
 5275SOL    HW216725   1.272   6.015   5.660 -0.0261 -0.0744  0.7900
 5276SOL     OW16726   0.568   4.915   2.547  0.3277  0.5074  0.1454
 5276SOL    HW116727   0.596   4.826   2.512 -1.5736  0.3434 -1.1109
 5276SOL    HW216728   0.469   4.917   2.558  0.4495  2.0503  1.4040
 5277SOL     OW16729   3.144   5.011   5.567 -0.4233 -0.1623 -0.3054
 5277SOL    HW116730   3.160   4.988   5.663  0.9293 -2.0430 -0.9319
 5277SOL    HW216731   3.057   4.971   5.537 -0.3701 -0.4202 -0.1212
 5278SOL     OW16732   5.315   6.320   2.644 -0.0353 -0.7794 -0.0415
 5278SOL    HW116733   5.233   6.333   2.700 -0.1654 -0.2808 -0.3405
 5278SOL    HW216734   5.360   6.234   2.670 -0.9380 -1.3295 -0.2337
 5279SOL     OW16735   1.496   6.388   0.362  0.1091 -0.1846  0.4266
 5279SOL    HW116736   1.551   6.308   0.340 -0.8341 -0.5547 -0.6847
 5279SOL    HW216737   1.524   6.465   0.305  0.1779 -0.0765  0.6056
 5280SOL     OW16738   3.865   0.552   0.126 -0.7243  0.0282 -0.1004
 5280SOL    HW116739   3.898   0.558   0.031 -1.1530 -0.5213 -0.2936
 5280SOL    HW216740   3.901   0.469   0.168 -0.4134  0.3498  0.2695
 5281SOL     OW16741   2.651   0.832   6.989  0.0717  0.4589 -0.0916
 5281SOL    HW116742   2.673   0.789   7.077 -0.7124  0.4241  0.1024
 5281SOL    HW216743   2.639   0.930   7.003  0.6213  0.5563 -0.2941
 5282SOL     OW16744   0.086   6.905   1.547 -0.1490 -0.4078  0.9454
 5282SOL    HW116745  -0.012   6.914   1.531  0.3579  2.2602 -1.4591
 5282SOL    HW216746   0.110   6.950   1.633 -0.8653  0.1961  0.8386
 5283SOL     OW16747   2.378   6.366   6.989  0.4407 -0.0287 -0.1315
 5283SOL    HW116748   2.325   6.450   6.979 -0.2553 -0.7276 -3.0933
 5283SOL    HW216749   2.473   6.383   6.962  0.9362  0.3446  1.6986
 5284SOL     OW16750   1.311   5.886   0.958  0.3917  0.1386  0.2534
 5284SOL    HW116751   1.269   5.958   0.903 -0.2504  0.3547  1.0140
 5284SOL    HW216752   1.272   5.887   1.050  1.0118 -0.6138  0.5346
 5285SOL     OW16753   2.713   0.216   2.796 -0.0116  0.5149 -0.3062
 5285SOL    HW116754   2.688   0.312   2.779 -0.4223  0.1960 -1.6765
 5285SOL    HW216755   2.749   0.207   2.889  1.8979  2.3749 -0.7596
 5286SOL     OW16756   5.735   5.920   3.180  0.1016 -0.8993 -0.5959
 5286SOL    HW116757   5.777   5.884   3.263 -1.0729 -1.3065 -0.1532
 5286SOL    HW216758   5.646   5.875   3.166 -0.6816  0.6914 -0.9001
 5287SOL     OW16759   6.593   1.207   2.846  0.1434  0.2941  0.4760
 5287SOL    HW116760   6.580   1.109   2.833 -2.1102  0.5940 -0.0784
 5287SOL    HW216761   6.687   1.226   2.873  0.0923 -2.2189  2.8333
 5288SOL     OW16762   1.720   4.604   4.722 -0.2218  0.2790 -0.0748
 5288SOL    HW116763   1.654   4.529   4.713 -0.2356  0.1600  0.9343
 5288SOL    HW216764   1.706   4.669   4.647  1.0316 -1.6363 -2.1118
 5289SOL     OW16765   4.184   6.471   4.538  0.2842 -0.1985  0.1661
 5289SOL    HW116766   4.262   6.420   4.573 -0.4885 -1.3950  0.2029
 5289SOL    HW216767   4.207   6.512   4.450  0.8115 -0.9055 -0.0316
 5290SOL     OW16768   6.631   0.408   4.503  0.8366 -0.6077  0.3973
 5290SOL    HW116769   6.569   0.329   4.502  0.6176 -0.4380  0.4497
 5290SOL    HW216770   6.597   0.476   4.568  0.4309  0.0114 -0.4419
 5291SOL     OW16771   0.170   0.285   4.139  0.0806  0.4023 -0.1949
 5291SOL    HW116772   0.265   0.256   4.122  0.4581  0.7234  1.2614
 5291SOL    HW216773   0.154   0.373   4.095  0.3018  0.1224 -0.8508
 5292SOL     OW16774   4.108   6.001   6.846  0.0008  0.1332 -0.6648
 5292SOL    HW116775   4.131   5.925   6.785 -0.4089  0.4167 -1.1754
 5292SOL    HW216776   4.191   6.032   6.893  0.0334 -1.2409  0.2676
 5293SOL     OW16777   5.394   6.362   4.842 -0.7011 -0.0796 -0.2941
 5293SOL    HW116778   5.443   6.293   4.789  0.0188 -1.6040  2.2121
 5293SOL    HW216779   5.459   6.426   4.881 -0.9463 -0.4576  0.7645
 5294SOL     OW16780   2.299   0.446   4.469 -0.3541 -0.3672 -0.3804
 5294SOL    HW116781   2.339   0.510   4.534 -0.6201  1.3745 -1.8761
 5294SOL    HW216782   2.200   0.440   4.484 -0.6743  1.2709 -1.5774
 5295SOL     OW16783   2.099   5.948   2.890  0.8396 -0.2865  0.1326
 5295SOL    HW116784   2.156   5.909   2.962  0.5401 -0.2416  0.3963
 5295SOL    HW216785   2.015   5.985   2.930  0.3297 -0.9198 -0.3258
 5296SOL     OW16786   0.328   6.462   3.432  0.6584  0.4036  1.0331
 5296SOL    HW116787   0.257   6.488   3.497  1.1273  1.8376  1.0076
 5296SOL    HW216788   0.290   6.456   3.340  0.8548  2.8269  0.7454
 5297SOL     OW16789   0.632   5.994   2.690  0.2474  0.3555 -0.5038
 5297SOL    HW116790   0.576   5.924   2.646  3.1045 -1.5331 -1.3819
 5297SOL    HW216791   0.650   6.068   2.624  2.2958 -1.1699 -1.7622
 5298SOL     OW16792   3.930   0.256   0.730  0.3050 -0.6692  0.3068
 5298SOL    HW116793   3.845   0.298   0.700 -0.6041 -1.2614  1.9173
 5298SOL    HW216794   3.910   0.173   0.783  1.8688 -0.7126  0.8923
 5299SOL     OW16795   4.051   0.912   4.928 -0.0545 -0.1290 -0.1066
 5299SOL    HW116796   4.089   0.862   4.849 -0.5883 -0.4374 -0.1700
 5299SOL    HW216797   3.980   0.974   4.896  2.8722  3.3226 -0.5787
 5300SOL     OW16798   3.821   4.135   0.211  0.2428 -0.2759  0.1499
 5300SOL    HW116799   3.743   4.178   0.166  0.6814  1.2205  0.7443
 5300SOL    HW216800   3.900   4.197   0.208  1.4756 -1.8036 -0.5621
 5301SOL     OW16801   3.950   1.130   2.719 -0.9667 -0.5739  0.1213
 5301SOL    HW116802   3.850   1.134   2.718 -0.9253  0.8875 -1.0622
 5301SOL    HW216803   3.987   1.213   2.677  0.7527 -1.1876  0.3609
 5302SOL     OW16804   1.574   2.964   4.592  0.2483 -0.5352  0.2995
 5302SOL    HW116805   1.520   2.887   4.559 -1.4914  0.4697  0.6645
 5302SOL    HW216806   1.626   2.936   4.673  1.8137 -2.0283 -1.1210
 5303SOL     OW16807   4.094   3.866   1.782  0.1581  0.4735  0.5481
 5303SOL    HW116808   4.094   3.778   1.830 -0.5952 -0.4037 -0.9473
 5303SOL    HW216809   4.181   3.879   1.735 -1.4017 -2.1969 -3.6849
 5304SOL     OW16810   1.246   4.632   4.069  0.3066  0.5023 -0.3345
 5304SOL    HW116811   1.292   4.548   4.042  1.5797  1.2068 -0.4573
 5304SOL    HW216812   1.205   4.621   4.160 -1.2635 -0.8615 -1.1566
 5305SOL     OW16813   0.464   4.839   3.000  0.7720  0.0040 -0.1680
 5305SOL    HW116814   0.508   4.807   2.916 -1.6648 -1.8568 -0.8477
 5305SOL    HW216815   0.487   4.777   3.075 -1.5182 -1.7354 -0.8048
 5306SOL     OW16816   6.520   0.335   4.108  0.1505  0.3134  0.2724
 5306SOL    HW116817   6.549   0.429   4.095 -0.2414  0.3001 -0.8465
 5306SOL    HW216818   6.584   0.273   4.061 -0.2117  0.1050  0.0457
 5307SOL     OW16819   3.907   5.576   5.450 -0.1478  0.2086  0.5446
 5307SOL    HW116820   3.978   5.510   5.472 -1.3726 -0.9248  1.2122
 5307SOL    HW216821   3.850   5.592   5.530 -0.9105  0.7681 -0.0923
 5308SOL     OW16822   4.680   1.559   6.748 -0.1374 -0.2418  0.1899
 5308SOL    HW116823   4.731   1.645   6.734 -0.9706  0.2112 -0.1024
 5308SOL    HW216824   4.654   1.521   6.660  1.1954 -1.4147  0.2585
 5309SOL     OW16825   2.380   3.580   6.622  0.0432  0.3194 -0.2562
 5309SOL    HW116826   2.448   3.538   6.562  1.3930 -0.6425  1.7890
 5309SOL    HW216827   2.288   3.551   6.596  0.7925 -2.5421 -0.0532
 5310SOL     OW16828   3.881   6.863   5.657 -0.5508 -0.1877  0.7429
 5310SOL    HW116829   3.917   6.790   5.599 -0.6813  0.4231 -0.1263
 5310SOL    HW216830   3.781   6.865   5.650 -0.5353  0.2035  0.5930
 5311SOL     OW16831   6.095   0.929   1.925 -0.4975 -0.4293  0.5140
 5311SOL    HW116832   6.169   0.928   1.857 -0.3257 -1.5327  0.7111
 5311SOL    HW216833   6.022   0.989   1.893 -0.9894 -1.9139 -1.2735
 5312SOL     OW16834   2.229   2.916   3.318  0.2103  0.3595 -0.2209
 5312SOL    HW116835   2.252   2.977   3.243  1.2409  0.9472  0.5440
 5312SOL    HW216836   2.258   2.823   3.295  1.2320  0.6719 -0.2476
 5313SOL     OW16837   1.276   2.944   0.752  0.2667 -0.0025  0.3320
 5313SOL    HW116838   1.317   3.029   0.785  3.0657 -0.3132 -1.9224
 5313SOL    HW216839   1.288   2.873   0.821  0.7912  0.6575  0.9437
 5314SOL     OW16840   5.674   5.168   5.623  0.6052 -0.1963 -0.0260
 5314SOL    HW116841   5.686   5.214   5.534 -2.2557 -0.7695 -0.7985
 5314SOL    HW216842   5.662   5.070   5.608 -0.7439 -0.1904  0.9030
 5315SOL     OW16843   2.485   2.616   3.828  0.6293  0.2027 -0.8617
 5315SOL    HW116844   2.528   2.560   3.899  0.5325 -1.7109 -2.2063
 5315SOL    HW216845   2.403   2.660   3.864  0.7881 -0.4327  0.3015
 5316SOL     OW16846   2.153   4.033   2.986  0.1198  0.3888 -0.1894
 5316SOL    HW116847   2.210   4.109   3.017  2.2511 -1.3414  0.3669
 5316SOL    HW216848   2.167   4.020   2.887  0.4618  0.1549 -0.1110
 5317SOL     OW16849   3.749   3.689   1.731 -0.7278  0.0399 -0.0281
 5317SOL    HW116850   3.830   3.732   1.691 -0.2605  0.3603  1.2467
 5317SOL    HW216851   3.703   3.754   1.791 -1.4423 -0.4372 -0.0518
 5318SOL     OW16852   1.468   1.496   3.695  0.2130 -0.1151  0.8107
 5318SOL    HW116853   1.512   1.579   3.729  0.1172  0.2364  0.0705
 5318SOL    HW216854   1.431   1.512   3.604 -0.3590 -0.7853  0.9206
 5319SOL     OW16855   4.913   2.758   3.127 -0.0064 -0.1458 -0.1129
 5319SOL    HW116856   4.865   2.799   3.049  1.0274  0.2999 -0.5452
 5319SOL    HW216857   4.965   2.679   3.096  0.7219  0.2651  0.0356
 5320SOL     OW16858   1.715   5.418   3.504 -0.2622 -0.0984  0.2704
 5320SOL    HW116859   1.629   5.464   3.527  0.9513  1.3988  2.1673
 5320SOL    HW216860   1.731   5.342   3.568 -0.0991 -0.2673  0.0311
 5321SOL     OW16861   1.635   4.045   5.466 -0.1927  0.2364  0.0260
 5321SOL    HW116862   1.600   4.139   5.473  1.5479  1.0386 -1.1879
 5321SOL    HW216863   1.590   3.987   5.534  0.7641  2.5901  2.8587
 5322SOL     OW16864   0.784   1.298   4.115 -0.3354 -0.3919  0.0544
 5322SOL    HW116865   0.785   1.260   4.022 -0.7824  0.4788 -0.3256
 5322SOL    HW216866   0.807   1.396   4.111 -1.7070 -0.0134  0.6844
 5323SOL     OW16867   2.845   5.043   4.698  0.2675  0.2802  0.9146
 5323SOL    HW116868   2.854   4.967   4.633 -0.5648  0.2284  0.8530
 5323SOL    HW216869   2.920   5.039   4.764  0.9816  0.1814  0.1177
 5324SOL     OW16870   0.250   6.612   2.829  0.0382  0.6368  0.2289
 5324SOL    HW116871   0.308   6.663   2.765  0.1879  0.2668  0.0670
 5324SOL    HW216872   0.303   6.592   2.911  0.1897  0.1615  0.0158
 5325SOL     OW16873   6.320   2.894   6.093  0.1882 -0.0643 -0.2235
 5325SOL    HW116874   6.363   2.819   6.143  0.9298  1.4772  1.5924
 5325SOL    HW216875   6.254   2.940   6.152 -1.0973  0.0400 -1.6871
 5326SOL     OW16876   6.097   1.212   3.789 -0.2865 -0.2463 -0.3378
 5326SOL    HW116877   6.179   1.270   3.795  1.2924 -2.1476 -1.9056
 5326SOL    HW216878   6.125   1.118   3.768 -2.8602 -1.1576  0.0011
 5327SOL     OW16879   6.064   2.607   1.622 -0.6880  0.1745  0.3792
 5327SOL    HW116880   5.983   2.665   1.636 -2.2123 -1.6854 -0.3412
 5327SOL    HW216881   6.114   2.638   1.542 -1.4722  0.5099  0.0125
 5328SOL     OW16882   4.149   2.986   6.789  0.4880 -0.4855 -0.3468
 5328SOL    HW116883   4.195   2.983   6.879  1.6272  0.4211 -0.8658
 5328SOL    HW216884   4.197   3.051   6.730 -1.6889  0.7431 -0.8387
 5329SOL     OW16885   4.949   2.208   4.822 -0.6521 -0.3363  0.0132
 5329SOL    HW116886   4.894   2.150   4.762 -1.4727  1.2347 -0.8320
 5329SOL    HW216887   4.892   2.245   4.895 -0.4102  0.2738 -0.0993
 5330SOL     OW16888   4.147   0.422   1.335  0.7335  0.1991 -0.5349
 5330SOL    HW116889   4.225   0.476   1.365  0.0023  0.0492  1.9232
 5330SOL    HW216890   4.077   0.422   1.407 -0.3461 -1.9640 -1.4785
 5331SOL     OW16891   5.394   1.325   5.618  0.0211 -0.3012 -0.2687
 5331SOL    HW116892   5.335   1.374   5.682 -0.9885 -1.1606 -0.5243
 5331SOL    HW216893   5.486   1.366   5.620 -0.8220  1.7666 -0.6547
 5332SOL     OW16894   5.098   6.585   0.110  0.2865  0.5102  0.1855
 5332SOL    HW116895   5.080   6.651   0.038  2.0986  0.1355 -0.6640
 5332SOL    HW216896   5.145   6.630   0.186  0.6709  0.4023  0.0150
 5333SOL     OW16897   6.781   6.365   1.631 -0.2252 -0.4161 -0.0035
 5333SOL    HW116898   6.765   6.432   1.704  0.6671 -0.6298  0.4008
 5333SOL    HW216899   6.765   6.409   1.543 -0.5182  0.0798  0.2863
 5334SOL     OW16900   6.364   1.544   2.525  0.0994 -0.2121  0.7820
 5334SOL    HW116901   6.409   1.529   2.437  0.9076  0.5061  1.0590
 5334SOL    HW216902   6.388   1.469   2.587  1.7641  0.6515  1.2430
 5335SOL     OW16903   6.672   6.791   4.385 -0.3771  0.2365  0.4011
 5335SOL    HW116904   6.769   6.797   4.363 -0.3229 -0.8104  0.2945
 5335SOL    HW216905   6.627   6.730   4.319 -1.0853  0.6187  0.5188
 5336SOL     OW16906   0.670   3.389   0.118 -0.5621  0.0778  0.3827
 5336SOL    HW116907   0.681   3.463   0.185  1.3947  0.3663 -0.1855
 5336SOL    HW216908   0.679   3.301   0.164  1.0270  0.2740  0.4997
 5337SOL     OW16909   0.938   6.770   3.945 -0.1707  0.8505 -0.2781
 5337SOL    HW116910   0.860   6.731   3.994  1.3610 -2.1875 -0.0166
 5337SOL    HW216911   1.014   6.783   4.008  0.2563  1.6231 -0.9395
 5338SOL     OW16912   5.069   3.953   4.615  0.4742 -0.1199  0.4000
 5338SOL    HW116913   5.023   3.962   4.704 -1.6582  0.2421 -0.6630
 5338SOL    HW216914   5.087   3.856   4.597  0.4767 -0.2414  1.0169
 5339SOL     OW16915   4.652   7.007   6.477 -0.2376 -0.0539 -0.2084
 5339SOL    HW116916   4.692   6.943   6.411  0.6405  0.3906 -0.1095
 5339SOL    HW216917   4.690   7.098   6.463  0.6774 -0.1279  1.5088
 5340SOL     OW16918   1.581   0.022   2.148  0.1636 -0.5960 -0.0888
 5340SOL    HW116919   1.488   0.028   2.110 -0.9246  0.4462  2.5025
 5340SOL    HW216920   1.577  -0.024   2.237  2.5093 -2.4700 -0.8606
 5341SOL     OW16921   0.080   2.632   1.096 -0.1241  0.1565  0.5484
 5341SOL    HW116922   0.087   2.535   1.070  1.5527  0.2875  0.3840
 5341SOL    HW216923  -0.014   2.653   1.122 -0.3941 -1.6724  1.1864
 5342SOL     OW16924   6.222   0.541   6.536 -0.1197 -0.0142 -0.2645
 5342SOL    HW116925   6.127   0.574   6.537 -0.5374 -1.0240  2.3144
 5342SOL    HW216926   6.223   0.442   6.548  1.2490  0.0694  0.5646
 5343SOL     OW16927   1.496   3.879   6.439  0.4209 -0.0672  0.0219
 5343SOL    HW116928   1.551   3.796   6.440  0.0929 -0.2899 -0.0667
 5343SOL    HW216929   1.489   3.914   6.346  3.3030  1.9345  0.4179
 5344SOL     OW16930   2.849   1.593   5.541 -0.2975 -0.4381 -0.5956
 5344SOL    HW116931   2.855   1.624   5.446 -0.6393  0.0756 -0.4539
 5344SOL    HW216932   2.813   1.667   5.598  1.7349 -0.0556  0.2844
 5345SOL     OW16933   0.245   2.603   0.097 -0.4032  0.4770 -0.6422
 5345SOL    HW116934   0.260   2.587   0.195  1.1178 -1.3102 -1.1053
 5345SOL    HW216935   0.241   2.701   0.080 -2.3362  0.8170  1.4042
 5346SOL     OW16936   6.277   5.319   2.675 -0.1471 -0.3787  0.0511
 5346SOL    HW116937   6.330   5.370   2.607 -1.4547  0.9169 -0.0422
 5346SOL    HW216938   6.327   5.317   2.762  0.1866  0.5676 -0.1113
 5347SOL     OW16939   3.698   5.561   1.848 -0.1668 -0.0639  0.1941
 5347SOL    HW116940   3.656   5.514   1.771 -2.2282 -0.5808  1.5680
 5347SOL    HW216941   3.633   5.567   1.924  0.0629  4.5650  0.3341
 5348SOL     OW16942   4.770   1.566   6.374  0.7339  0.4899  0.0993
 5348SOL    HW116943   4.767   1.503   6.452  2.3405  2.4785  1.8924
 5348SOL    HW216944   4.736   1.656   6.403 -0.0518  0.9135 -1.9509
 5349SOL     OW16945   0.886   6.355   4.536  0.0415 -0.1906  0.0445
 5349SOL    HW116946   0.823   6.281   4.559  0.6123 -0.5370  0.5314
 5349SOL    HW216947   0.844   6.415   4.467 -1.1571  0.0937  0.9895
 5350SOL     OW16948   6.579   1.662   3.793  0.0142  0.2863  0.2774
 5350SOL    HW116949   6.514   1.709   3.733  1.4014 -0.5323 -1.9875
 5350SOL    HW216950   6.537   1.579   3.830 -0.5252  0.2359 -0.4360
 5351SOL     OW16951   0.292   3.007   4.421  0.1994  0.1798  0.3613
 5351SOL    HW116952   0.254   3.074   4.357  0.7536  0.1438 -0.0106
 5351SOL    HW216953   0.217   2.954   4.462 -0.1628  0.1762 -0.2862
 5352SOL     OW16954   5.455   2.593   1.975  0.1071 -0.4245  0.0056
 5352SOL    HW116955   5.458   2.685   1.935  1.0662 -0.3330  0.2757
 5352SOL    HW216956   5.360   2.564   1.984 -0.1727 -0.0279 -1.3821
 5353SOL     OW16957   3.363   1.810   1.700 -0.0172 -0.6329 -0.4582
 5353SOL    HW116958   3.460   1.796   1.680  0.1518  0.2632 -0.2887
 5353SOL    HW216959   3.350   1.896   1.748 -0.6559 -1.7562  1.4950
 5354SOL     OW16960   1.298   1.460   0.624 -0.3720 -0.0749 -0.1774
 5354SOL    HW116961   1.366   1.453   0.698  2.0459  0.0886 -2.2397
 5354SOL    HW216962   1.299   1.377   0.569 -1.7880 -0.0017 -0.3557
 5355SOL     OW16963   6.603   6.366   4.908 -0.4068 -0.0664 -1.1209
 5355SOL    HW116964   6.542   6.302   4.955 -0.1781  0.2085 -0.4376
 5355SOL    HW216965   6.555   6.408   4.831 -1.1534  0.2894 -0.4759
 5356SOL     OW16966   0.751   3.659   4.952  0.0860  0.0489  0.0534
 5356SOL    HW116967   0.754   3.572   5.002 -1.4491 -0.9183 -1.4339
 5356SOL    HW216968   0.748   3.640   4.854  0.7664  1.8492 -0.3447
 5357SOL     OW16969   0.604   6.977   3.427 -0.5101 -0.1474 -0.2794
 5357SOL    HW116970   0.593   7.050   3.359 -0.9789  0.5945  0.5632
 5357SOL    HW216971   0.570   6.891   3.389  0.6473 -0.0917 -1.5273
 5358SOL     OW16972   2.617   1.986   5.266  0.4159 -0.1024  0.1904
 5358SOL    HW116973   2.625   2.000   5.167 -2.4954 -3.8108 -0.8015
 5358SOL    HW216974   2.684   1.919   5.296  1.0091  0.7000  0.7096
 5359SOL     OW16975   4.805   0.141   5.304 -0.3739 -0.4523 -0.4979
 5359SOL    HW116976   4.813   0.156   5.403 -0.1221 -0.1974 -0.5561
 5359SOL    HW216977   4.718   0.096   5.284 -0.0007 -1.4049 -0.0590
 5360SOL     OW16978   5.158   5.660   4.939 -0.2565 -0.0948  0.6444
 5360SOL    HW116979   5.108   5.695   5.018 -0.1983 -0.0583  0.6644
 5360SOL    HW216980   5.251   5.635   4.966  0.0305  0.6935  0.4088
 5361SOL     OW16981   1.404   5.827   1.953  0.1151  0.0393  0.0127
 5361SOL    HW116982   1.478   5.867   1.898  1.1118 -1.6017  0.0993
 5361SOL    HW216983   1.363   5.899   2.010  1.1649  1.1287 -0.5526
 5362SOL     OW16984   6.743   6.779   2.984 -0.7095  0.3573  0.0902
 5362SOL    HW116985   6.841   6.777   2.964 -1.2079 -1.5035 -2.5910
 5362SOL    HW216986   6.711   6.874   2.983  0.6442  0.8347 -1.3026
 5363SOL     OW16987   4.500   3.353   5.794  0.2823 -0.3003 -1.0021
 5363SOL    HW116988   4.482   3.353   5.892  1.7093 -3.0915 -0.6291
 5363SOL    HW216989   4.415   3.366   5.744 -0.7398 -0.5751  0.6108
 5364SOL     OW16990   1.550   3.253   4.179  0.3712  0.0625  0.1332
 5364SOL    HW116991   1.464   3.223   4.138  0.5306  0.0020 -0.1633
 5364SOL    HW216992   1.588   3.180   4.236 -0.2197  0.4080  0.9922
 5365SOL     OW16993   0.041   5.860   5.625 -0.3291 -0.6799 -0.0618
 5365SOL    HW116994   0.123   5.803   5.625 -0.6689 -1.1681  0.6782
 5365SOL    HW216995   0.050   5.930   5.554  0.4910 -1.0668 -0.3506
 5366SOL     OW16996   0.176   6.376   2.699 -0.4674  0.0880 -0.5112
 5366SOL    HW116997   0.149   6.314   2.773 -1.1022  0.0498 -0.7663
 5366SOL    HW216998   0.177   6.470   2.733  1.4017 -0.1273  0.1258
 5367SOL     OW16999   6.498   0.650   6.424  0.7026 -0.5621  0.0155
 5367SOL    HW117000   6.486   0.725   6.359  1.8641 -0.6996 -0.3901
 5367SOL    HW217001   6.416   0.641   6.480  0.1705  0.3818 -0.5761
 5368SOL     OW17002   5.716   1.346   1.116  0.4390 -0.1218  0.4446
 5368SOL    HW117003   5.658   1.346   1.198  0.6181  0.1878  0.5740
 5368SOL    HW217004   5.658   1.352   1.034  0.3274  2.0464  0.6228
 5369SOL     OW17005   0.133   5.714   2.368 -0.3461  0.4806 -0.5789
 5369SOL    HW117006   0.107   5.641   2.432 -0.2662  1.7068  0.9142
 5369SOL    HW217007   0.087   5.699   2.280 -1.3879 -0.6433  0.1229
 5370SOL     OW17008   4.735   1.073   5.030 -0.3235 -0.3142  0.3321
 5370SOL    HW117009   4.801   1.147   5.038 -1.3496  0.5509  1.1985
 5370SOL    HW217010   4.706   1.044   5.122 -0.6071 -1.1626 -0.0152
 5371SOL     OW17011   3.559   6.884   5.974  0.2262  0.8675  0.6701
 5371SOL    HW117012   3.612   6.801   5.993 -0.0137  0.9237  1.6614
 5371SOL    HW217013   3.573   6.911   5.879 -1.4227 -1.5357 -0.3424
 5372SOL     OW17014   6.235   5.779   0.555  0.1048 -0.0398 -0.4748
 5372SOL    HW117015   6.249   5.775   0.456 -1.0115 -0.3932 -0.6366
 5372SOL    HW217016   6.242   5.873   0.587 -0.2911  0.1760 -1.0184
 5373SOL     OW17017   6.259   0.428   1.948  0.8913 -0.0601  0.5892
 5373SOL    HW117018   6.164   0.449   1.926  1.1074  2.8568  1.9311
 5373SOL    HW217019   6.317   0.445   1.868  0.3980 -1.2692 -0.0484
 5374SOL     OW17020   3.591   6.374   6.788 -0.3348  0.2629 -0.3338
 5374SOL    HW117021   3.536   6.346   6.709 -2.2050  0.3336  0.8674
 5374SOL    HW217022   3.687   6.351   6.772 -1.0137 -2.0357 -1.5915
 5375SOL     OW17023   3.281   1.402   1.293 -0.7664  0.0118  0.1940
 5375SOL    HW117024   3.347   1.477   1.293  0.3352 -0.8891 -1.7702
 5375SOL    HW217025   3.323   1.320   1.331 -1.0581 -0.3236 -0.2012
 5376SOL     OW17026   2.681   4.557   1.196  0.0337  0.1208 -0.0697
 5376SOL    HW117027   2.762   4.594   1.152  0.0292  0.4423  0.1900
 5376SOL    HW217028   2.704   4.522   1.287 -0.6237  2.8847  1.2709
 5377SOL     OW17029   5.651   1.427   0.476  0.0433 -0.1616 -0.5380
 5377SOL    HW117030   5.707   1.378   0.544 -1.0677 -0.2809  0.3357
 5377SOL    HW217031   5.603   1.360   0.419 -3.1855 -0.3399  2.0503
 5378SOL     OW17032   5.140   0.604   2.572  0.3414 -0.0828  0.2382
 5378SOL    HW117033   5.114   0.524   2.517  1.3081  0.1848 -0.6218
 5378SOL    HW217034   5.176   0.676   2.512  0.9092  0.4186  1.1666
 5379SOL     OW17035   5.131   0.907   6.038  0.1821 -0.8142 -0.1315
 5379SOL    HW117036   5.129   0.881   6.134 -1.9120 -0.9740 -0.1640
 5379SOL    HW217037   5.063   0.853   5.987 -0.0578  0.5490 -1.3349
 5380SOL     OW17038   5.070   1.905   2.445 -0.6639  0.0798  0.3969
 5380SOL    HW117039   5.138   1.877   2.378  0.4280  0.6642  1.2147
 5380SOL    HW217040   5.115   1.920   2.533 -1.7544  1.0922  0.8078
 5381SOL     OW17041   6.193   3.075   2.791 -0.0011 -0.3241  0.5443
 5381SOL    HW117042   6.243   3.161   2.777  0.7406 -0.8472 -0.1273
 5381SOL    HW217043   6.258   3.000   2.804 -0.4835 -1.3051 -1.9602
 5382SOL     OW17044   6.063   5.100   1.644 -0.2619  0.0852 -0.4799
 5382SOL    HW117045   6.071   5.193   1.607  3.8073  0.4160  0.7424
 5382SOL    HW217046   6.146   5.049   1.622 -0.6873 -1.9585  2.2168
 5383SOL     OW17047   0.793   4.175   1.274  0.4529  0.5200 -0.0291
 5383SOL    HW117048   0.759   4.268   1.260 -1.4752 -0.1647 -0.2155
 5383SOL    HW217049   0.832   4.141   1.189  0.0525  0.7232 -0.2968
 5384SOL     OW17050   5.016   0.998   5.568 -0.0382  0.1215  0.3052
 5384SOL    HW117051   4.999   1.066   5.496 -1.5591 -0.8528 -0.3135
 5384SOL    HW217052   5.084   1.034   5.632  1.4368  1.0145 -1.6356
 5385SOL     OW17053   3.265   4.148   3.326 -0.0293 -0.1612  0.1726
 5385SOL    HW117054   3.320   4.152   3.409  0.5401  1.1918 -0.2529
 5385SOL    HW217055   3.325   4.160   3.246 -0.9321  1.5440 -0.2905
 5386SOL     OW17056   5.398   5.278   5.566 -0.2206 -0.5257 -0.2267
 5386SOL    HW117057   5.341   5.213   5.515 -2.4909 -0.0028  1.4928
 5386SOL    HW217058   5.485   5.234   5.590 -0.7827 -2.1560 -1.0037
 5387SOL     OW17059   3.948   3.481   1.262  0.0648  0.3536 -0.1020
 5387SOL    HW117060   3.969   3.462   1.358  0.1648  0.9885  0.0042
 5387SOL    HW217061   4.023   3.532   1.220 -1.1227  2.4948  0.2342
 5388SOL     OW17062   1.450   4.886   2.089  0.0581 -0.2314  0.2853
 5388SOL    HW117063   1.431   4.984   2.091 -0.2410 -0.2851  0.0829
 5388SOL    HW217064   1.418   4.847   2.003  2.5965 -0.0348 -0.8361
 5389SOL     OW17065   0.865   2.626   3.796  0.2030  0.3982 -0.2175
 5389SOL    HW117066   0.897   2.703   3.852  2.2152 -0.0637 -0.6499
 5389SOL    HW217067   0.907   2.632   3.705  1.1349 -1.6657  0.0250
 5390SOL     OW17068   3.538   2.182   6.484 -0.4094  0.0253  0.2263
 5390SOL    HW117069   3.590   2.100   6.508 -0.9239 -0.1822  0.6416
 5390SOL    HW217070   3.456   2.188   6.541 -0.4653  0.7395  0.0865
 5391SOL     OW17071   1.550   1.888   6.051  0.2106 -0.0401  0.2950
 5391SOL    HW117072   1.600   1.806   6.023  0.1006 -0.2845  0.8097
 5391SOL    HW217073   1.614   1.954   6.089  0.4131  0.4334 -0.8138
 5392SOL     OW17074   0.262   4.283   6.287 -0.8949  0.4319 -0.2528
 5392SOL    HW117075   0.232   4.192   6.313 -1.5376  0.1636 -1.8580
 5392SOL    HW217076   0.265   4.341   6.368  0.4226 -1.2261  0.9584
 5393SOL     OW17077   3.511   2.796   5.289 -0.3669  0.1843 -0.2581
 5393SOL    HW117078   3.519   2.837   5.198  0.0508  1.2186  0.2288
 5393SOL    HW217079   3.483   2.866   5.354 -2.3430 -0.8938  0.1350
 5394SOL     OW17080   3.070   0.885   3.940 -0.5181  0.2151 -0.5307
 5394SOL    HW117081   2.975   0.896   3.910 -1.2389 -0.8661  1.1792
 5394SOL    HW217082   3.126   0.855   3.863 -1.3157  1.8362 -1.8153
 5395SOL     OW17083   6.432   2.197   0.092 -1.1295 -0.4057  0.0295
 5395SOL    HW117084   6.417   2.242   0.181  0.0198  0.3426 -0.1352
 5395SOL    HW217085   6.517   2.231   0.052 -0.8230 -1.9051 -0.6432
 5396SOL     OW17086   4.448   2.302   3.456  0.5008 -0.8287 -0.3264
 5396SOL    HW117087   4.354   2.270   3.470  0.5601 -0.7556  0.3023
 5396SOL    HW217088   4.447   2.395   3.419  0.2327  0.9305  3.5996
 5397SOL     OW17089   6.818   0.526   3.567  0.1153 -0.1028 -0.4812
 5397SOL    HW117090   6.769   0.546   3.482 -0.3437 -1.1545 -0.4688
 5397SOL    HW217091   6.779   0.579   3.642 -0.9871 -0.8939 -0.4790
 5398SOL     OW17092   0.060   3.115   5.939 -0.0905 -0.1770  0.0668
 5398SOL    HW117093   0.118   3.107   6.020 -1.2978 -0.8822  0.8990
 5398SOL    HW217094  -0.029   3.154   5.965 -0.3712 -0.0954 -0.9743
 5399SOL     OW17095   6.951   4.129   6.830 -0.3407 -0.1922 -0.6040
 5399SOL    HW117096   6.879   4.061   6.844 -1.6044  1.5053  2.0499
 5399SOL    HW217097   7.015   4.126   6.907 -0.0093  1.0773 -0.8017
 5400SOL     OW17098   0.764   2.738   2.210  0.1262  0.5042  0.1705
 5400SOL    HW117099   0.706   2.765   2.134  0.0020  0.5968  0.2984
 5400SOL    HW217100   0.847   2.694   2.175 -0.5962 -0.7993  0.0017
 5401SOL     OW17101   6.828   5.780   2.464 -0.0380  0.0645  0.1452
 5401SOL    HW117102   6.809   5.829   2.550  0.8298 -1.0168  0.9860
 5401SOL    HW217103   6.849   5.846   2.392 -1.2289  1.0192  0.6330
 5402SOL     OW17104   3.301   3.620   3.722  0.0716  0.6272 -0.0055
 5402SOL    HW117105   3.281   3.523   3.711 -0.4640  0.4473  2.1035
 5402SOL    HW217106   3.382   3.644   3.668 -0.5819 -0.6442 -1.6509
 5403SOL     OW17107   2.874   4.754   4.312  0.2807 -0.1409 -0.1239
 5403SOL    HW117108   2.866   4.852   4.329 -1.8179  0.2913 -2.8690
 5403SOL    HW217109   2.783   4.714   4.304  1.0295 -1.6494 -2.1572
 5404SOL     OW17110   6.434   0.892   6.294 -0.2080 -0.4480 -0.0833
 5404SOL    HW117111   6.477   0.891   6.204  0.3704  0.9549  0.1658
 5404SOL    HW217112   6.441   0.983   6.334 -0.2543 -1.1041  1.4924
 5405SOL     OW17113   2.041   5.351   3.444 -0.2561  0.1244  0.4985
 5405SOL    HW117114   2.119   5.412   3.444  0.4427 -0.7345  1.4453
 5405SOL    HW217115   1.982   5.372   3.366  1.7438 -0.2527 -1.2135
 5406SOL     OW17116   2.672   1.317   2.597 -0.2815  0.3188 -0.1094
 5406SOL    HW117117   2.732   1.277   2.528 -0.0011  0.9396 -0.2415
 5406SOL    HW217118   2.656   1.252   2.671 -1.3748 -0.7266 -1.2143
 5407SOL     OW17119   2.996   4.997   6.225 -0.0919  0.2682  0.4873
 5407SOL    HW117120   3.018   5.095   6.223  0.6307  0.1375  1.1722
 5407SOL    HW217121   3.031   4.953   6.143  1.5621  0.2201  1.1735
 5408SOL     OW17122   0.364   3.412   5.829 -0.2644 -0.0213  0.5451
 5408SOL    HW117123   0.432   3.340   5.843 -2.0247 -1.7299  0.7313
 5408SOL    HW217124   0.286   3.375   5.779 -1.2831  1.7663  0.7136
 5409SOL     OW17125   3.094   6.862   2.022 -0.0758  0.5320 -0.3356
 5409SOL    HW117126   3.184   6.898   1.996  0.8150 -1.0759  0.3370
 5409SOL    HW217127   3.106   6.777   2.073 -1.9846  0.6106  0.3155
 5410SOL     OW17128   4.419   4.885   0.541  0.5406  0.0646  0.0817
 5410SOL    HW117129   4.434   4.983   0.553  1.0643  0.1602 -1.1704
 5410SOL    HW217130   4.365   4.869   0.458  0.4428 -0.6943  0.2832
 5411SOL     OW17131   3.349   1.353   5.485  0.0052 -0.1358 -0.0911
 5411SOL    HW117132   3.257   1.355   5.524 -0.1434  1.2001 -0.4717
 5411SOL    HW217133   3.415   1.383   5.554 -0.0747  0.6832 -0.3547
 5412SOL     OW17134   1.563   5.800   3.796  0.0695  0.2203  0.1486
 5412SOL    HW117135   1.659   5.800   3.768 -0.3323  0.6243 -1.3346
 5412SOL    HW217136   1.513   5.866   3.741 -1.1286 -0.2268  0.6802
 5413SOL     OW17137   4.842   1.899   6.474 -0.0045 -0.2766  0.1787
 5413SOL    HW117138   4.817   1.990   6.507 -1.1971 -0.8842  1.0385
 5413SOL    HW217139   4.884   1.907   6.384 -1.4003  1.0316 -0.4081
 5414SOL     OW17140   1.689   5.889   0.170 -0.2571  0.0855  0.1812
 5414SOL    HW117141   1.604   5.842   0.192 -0.9334  0.4659 -1.4552
 5414SOL    HW217142   1.682   5.929   0.079  1.2509  1.1488  0.4966
 5415SOL     OW17143   5.663   2.135   0.398  0.3526 -0.0805 -0.0226
 5415SOL    HW117144   5.698   2.066   0.335 -0.7705 -1.2425  0.5857
 5415SOL    HW217145   5.657   2.096   0.490  0.9614  1.2586  0.6192
 5416SOL     OW17146   6.255   2.985   0.956  0.1765 -0.1151  0.2645
 5416SOL    HW117147   6.257   3.035   1.042 -0.3152  0.1919  0.1048
 5416SOL    HW217148   6.167   2.938   0.947  0.8877 -1.6085  0.7388
 5417SOL     OW17149   5.303   5.292   4.378 -0.1197  0.4116 -0.2023
 5417SOL    HW117150   5.273   5.230   4.305 -0.7891 -1.5178  1.5926
 5417SOL    HW217151   5.227   5.310   4.440  1.0262 -0.0660  1.3986
 5418SOL     OW17152   3.135   2.610   0.646  0.2286 -0.5651  0.3514
 5418SOL    HW117153   3.186   2.695   0.659  2.2281 -1.3549 -1.7198
 5418SOL    HW217154   3.039   2.626   0.668  0.5520  2.1916  0.1228
 5419SOL     OW17155   3.944   3.856   3.229  0.2473 -0.0852 -0.0798
 5419SOL    HW117156   4.005   3.785   3.194  0.0841 -1.1197  1.6469
 5419SOL    HW217157   3.979   3.890   3.317 -0.0161  1.5474 -0.5661
 5420SOL     OW17158   5.173   2.110   5.289 -0.5907  0.2260 -0.2588
 5420SOL    HW117159   5.078   2.085   5.268 -0.2997 -1.9091  0.6892
 5420SOL    HW217160   5.233   2.033   5.269  0.4114  0.0557  2.8572
 5421SOL     OW17161   6.160   0.836   6.177  0.3034  0.0386 -0.3011
 5421SOL    HW117162   6.065   0.867   6.180  0.2355 -0.1690 -0.3038
 5421SOL    HW217163   6.212   0.882   6.248  0.4695  1.0584 -1.0619
 5422SOL     OW17164   1.971   3.289   4.781  0.9662 -0.4737 -0.2324
 5422SOL    HW117165   1.915   3.245   4.711  0.5830  1.4488 -1.2058
 5422SOL    HW217166   2.047   3.229   4.805  0.1404 -1.9024 -1.0123
 5423SOL     OW17167   4.198   1.152   2.127 -0.8857 -0.2853  0.7400
 5423SOL    HW117168   4.279   1.095   2.138 -0.5291 -0.5999 -2.5884
 5423SOL    HW217169   4.223   1.235   2.077 -2.5440 -0.1960  0.0136
 5424SOL     OW17170   0.546   1.475   2.206 -0.2767 -0.3835 -0.5615
 5424SOL    HW117171   0.506   1.405   2.265 -1.1656 -0.5497 -1.3218
 5424SOL    HW217172   0.472   1.524   2.159  0.3504  0.8984 -0.2234
 5425SOL     OW17173   1.480   6.858   6.673  0.0433  0.0904 -0.0039
 5425SOL    HW117174   1.420   6.915   6.617 -0.2528  0.0233  0.2402
 5425SOL    HW217175   1.557   6.912   6.705 -0.0860  0.2796 -0.0102
 5426SOL     OW17176   4.599   0.775   5.790  0.5066  0.4770  0.0191
 5426SOL    HW117177   4.535   0.719   5.738  0.7288  2.2978 -2.3510
 5426SOL    HW217178   4.560   0.795   5.880 -0.6778 -1.2935 -0.0415
 5427SOL     OW17179   5.407   5.479   2.901  0.2793  0.1293  0.1436
 5427SOL    HW117180   5.454   5.477   2.813  0.9508  1.1319  0.4693
 5427SOL    HW217181   5.469   5.450   2.973 -0.5071 -1.5198  0.2164
 5428SOL     OW17182   3.644   3.828   5.446 -0.1290 -0.0485 -0.0026
 5428SOL    HW117183   3.608   3.866   5.361  0.6415 -2.7349 -1.6658
 5428SOL    HW217184   3.720   3.885   5.479 -0.0027  0.6940 -1.4879
 5429SOL     OW17185   6.553   0.428   2.299 -0.9560  0.7846 -0.0643
 5429SOL    HW117186   6.559   0.364   2.222  1.0235  0.2439  0.4662
 5429SOL    HW217187   6.605   0.511   2.278  1.6097 -0.3000  1.4455
 5430SOL     OW17188   2.989   5.266   1.094 -0.1733  0.0031  0.0408
 5430SOL    HW117189   2.998   5.365   1.082  0.6075 -0.1003 -0.2753
 5430SOL    HW217190   3.080   5.226   1.106 -0.5012 -0.6532  0.3722
 5431SOL     OW17191   2.827   6.116   0.842 -0.2159 -0.1227  0.1853
 5431SOL    HW117192   2.793   6.050   0.909  0.0398 -1.3136 -0.8234
 5431SOL    HW217193   2.907   6.163   0.879 -0.5287 -0.2109  0.9999
 5432SOL     OW17194   4.016   5.882   5.794  0.0642  0.8184 -0.0557
 5432SOL    HW117195   3.991   5.797   5.841  0.4023  0.2902 -0.8040
 5432SOL    HW217196   4.051   5.860   5.702  0.1306  1.7699 -0.2676
 5433SOL     OW17197   5.852   5.832   3.481  0.1450 -0.5027  0.0012
 5433SOL    HW117198   5.884   5.781   3.561 -0.3258  1.3805  1.4783
 5433SOL    HW217199   5.755   5.853   3.493  0.2159  0.3109 -0.7918
 5434SOL     OW17200   4.358   5.998   3.599 -0.0037  0.3399 -0.2012
 5434SOL    HW117201   4.456   5.982   3.600  0.1353  1.1311  1.3886
 5434SOL    HW217202   4.326   6.001   3.504  1.2032 -1.5191 -0.7361
 5435SOL     OW17203   2.891   3.699   5.064 -0.4944  0.4572  0.2182
 5435SOL    HW117204   2.977   3.648   5.060  0.7608  2.0764  3.1156
 5435SOL    HW217205   2.856   3.713   4.972  1.5348 -1.5181 -0.9588
 5436SOL     OW17206   6.767   6.248   3.245 -0.4010 -0.6504  0.2557
 5436SOL    HW117207   6.829   6.170   3.253 -0.0460 -0.3418  0.6017
 5436SOL    HW217208   6.674   6.220   3.267 -0.0310 -0.6501  1.9601
 5437SOL     OW17209   1.890   0.780   1.291 -0.1421 -0.5032 -0.0120
 5437SOL    HW117210   1.961   0.805   1.357 -0.9678  0.3326  0.5988
 5437SOL    HW217211   1.820   0.852   1.289 -0.7599 -1.1088 -0.8979
 5438SOL     OW17212   0.746   5.530   0.168  0.1456  0.7506 -0.3072
 5438SOL    HW117213   0.681   5.602   0.191  0.1147 -0.1089  2.9056
 5438SOL    HW217214   0.837   5.570   0.152 -0.0471  1.5872  0.6104
 5439SOL     OW17215   4.250   6.633   4.313  0.3454  0.2044  0.4259
 5439SOL    HW117216   4.241   6.722   4.269  1.6314  0.7812  1.2464
 5439SOL    HW217217   4.272   6.564   4.245 -0.6472  0.5093 -0.2151
 5440SOL     OW17218   1.589   2.239   0.692  0.2155  0.1705  0.0169
 5440SOL    HW117219   1.547   2.226   0.602  1.3574  1.7584 -0.7692
 5440SOL    HW217220   1.610   2.335   0.707  0.4660 -0.1126  1.8228
 5441SOL     OW17221   1.989   6.386   3.816 -0.8711  0.3270  1.0302
 5441SOL    HW117222   2.061   6.321   3.843  0.0531  0.5593 -0.7386
 5441SOL    HW217223   1.994   6.467   3.875  1.7327  1.2664 -0.3322
 5442SOL     OW17224   3.305   5.358   2.933  0.1698  0.6169  0.1492
 5442SOL    HW117225   3.293   5.436   2.995 -0.7261  0.9839 -0.4743
 5442SOL    HW217226   3.394   5.366   2.887  1.4869 -0.3679  2.3369
 5443SOL     OW17227   1.622   4.503   4.176  0.3649  1.0854 -0.5236
 5443SOL    HW117228   1.703   4.493   4.118  0.1138  1.3360 -0.9258
 5443SOL    HW217229   1.540   4.491   4.119  0.1203  0.0046  0.0241
 5444SOL     OW17230   4.567   0.443   3.486  0.2076 -0.3279 -0.4531
 5444SOL    HW117231   4.632   0.477   3.418 -0.8435 -0.1714 -1.4068
 5444SOL    HW217232   4.578   0.344   3.497  0.3967 -0.3510 -0.8323
 5445SOL     OW17233   1.239   6.670   3.752  0.5498  0.5494  0.0237
 5445SOL    HW117234   1.283   6.597   3.699  0.3186 -0.8784  1.7116
 5445SOL    HW217235   1.193   6.631   3.831  0.3427  2.5414  0.9524
 5446SOL     OW17236   0.128   4.601   2.147 -0.1611  0.2010  0.3971
 5446SOL    HW117237   0.084   4.530   2.202  0.3485 -0.9684 -0.6689
 5446SOL    HW217238   0.067   4.680   2.139 -2.2728 -1.5283 -1.3850
 5447SOL     OW17239   3.650   0.562   3.200 -0.0118 -0.3854 -0.4415
 5447SOL    HW117240   3.743   0.557   3.235 -0.1802 -0.9203 -0.0509
 5447SOL    HW217241   3.643   0.507   3.117  0.1593  0.1213 -0.7925
 5448SOL     OW17242   5.325   6.138   0.023  0.2829 -0.2140 -0.1576
 5448SOL    HW117243   5.341   6.078   0.102 -1.1751  1.5150  1.5470
 5448SOL    HW217244   5.229   6.133  -0.003  0.2278  1.0493 -0.2499
 5449SOL     OW17245   4.166   2.564   1.382  0.5840 -0.2226  0.3822
 5449SOL    HW117246   4.088   2.501   1.386  0.1884  0.2700  0.4325
 5449SOL    HW217247   4.137   2.656   1.408  1.3913 -0.2226  1.3711
 5450SOL     OW17248   3.435   2.635   1.356  0.6088 -0.4856 -0.3353
 5450SOL    HW117249   3.474   2.710   1.302  1.8100 -0.6278  0.2833
 5450SOL    HW217250   3.509   2.590   1.407 -0.4530 -0.4830  1.2714
 5451SOL     OW17251   5.181   5.206   2.326  0.0340  0.0509  0.1185
 5451SOL    HW117252   5.157   5.301   2.307  1.7821  0.3189 -0.9247
 5451SOL    HW217253   5.106   5.146   2.299 -0.8568  1.0711  0.2573
 5452SOL     OW17254   2.585   4.988   2.472 -0.4233 -0.3629 -0.6412
 5452SOL    HW117255   2.601   5.033   2.384  1.5516 -1.1258 -0.7218
 5452SOL    HW217256   2.567   4.891   2.457  0.8471 -0.6844 -0.1820
 5453SOL     OW17257   3.281   1.406   5.225 -0.4434  0.7922 -0.2456
 5453SOL    HW117258   3.270   1.505   5.234  2.7154  1.1242  1.0141
 5453SOL    HW217259   3.321   1.368   5.308 -0.2306 -1.3491 -1.2381
 5454SOL     OW17260   2.252   5.820   3.087 -0.0285  0.0745  0.5991
 5454SOL    HW117261   2.169   5.764   3.083  0.0712 -0.0217 -1.8585
 5454SOL    HW217262   2.330   5.765   3.055 -0.0155  1.6370 -2.3947
 5455SOL     OW17263   0.860   4.951   0.606 -0.1388 -0.1321  0.6306
 5455SOL    HW117264   0.857   4.854   0.630 -0.3213 -0.2202  0.2617
 5455SOL    HW217265   0.799   5.002   0.667 -0.4973 -0.3353  0.4513
 5456SOL     OW17266   1.781   2.912   0.667  0.3871 -0.2679  0.1747
 5456SOL    HW117267   1.796   2.887   0.763  1.8048  3.3716  1.0479
 5456SOL    HW217268   1.869   2.931   0.623 -0.4241  1.0683 -0.9406
 5457SOL     OW17269   3.576   6.316   2.101  0.2527  0.0262 -0.4009
 5457SOL    HW117270   3.610   6.224   2.122  0.2146 -0.0343 -0.5981
 5457SOL    HW217271   3.651   6.372   2.065  0.4510  0.3048  0.4258
 5458SOL     OW17272   0.559   3.340   0.379  0.0353 -0.8030  0.3440
 5458SOL    HW117273   0.504   3.257   0.389  0.7897 -1.4081 -0.4129
 5458SOL    HW217274   0.502   3.413   0.340 -0.0230 -1.7006 -1.3447
 5459SOL     OW17275   2.171   3.521   5.092 -0.0621 -0.0709  0.1298
 5459SOL    HW117276   2.234   3.547   5.165  0.1801  0.4416 -0.2626
 5459SOL    HW217277   2.150   3.601   5.036 -1.2131 -0.1816  0.3714
 5460SOL     OW17278   2.588   1.112   4.170  0.5681 -0.2001  0.2139
 5460SOL    HW117279   2.492   1.099   4.198  0.8275  0.0007  1.2397
 5460SOL    HW217280   2.609   1.050   4.095 -0.4684  0.0006 -0.2691
 5461SOL     OW17281   4.229   1.481   5.472 -0.4686  0.3602 -0.0992
 5461SOL    HW117282   4.226   1.580   5.461  1.8311  0.4566 -0.4046
 5461SOL    HW217283   4.318   1.455   5.511 -0.1637 -1.7462 -2.0186
 5462SOL     OW17284   3.056   6.589   3.640  0.2733  0.6374  0.4415
 5462SOL    HW117285   3.041   6.521   3.711  0.6213  0.3924  0.2795
 5462SOL    HW217286   3.098   6.546   3.560  0.4715  1.0334  0.3270
 5463SOL     OW17287   3.891   2.126   5.754 -0.1622  0.1953 -0.3360
 5463SOL    HW117288   3.977   2.152   5.709  0.3629  1.3278  1.2578
 5463SOL    HW217289   3.849   2.206   5.795  0.2884 -1.0194  2.7099
 5464SOL     OW17290   2.277   4.515   2.951 -0.0190 -0.6254  0.1260
 5464SOL    HW117291   2.196   4.535   3.006  0.1616  1.1509 -0.2071
 5464SOL    HW217292   2.359   4.529   3.006  0.0990 -1.8038  0.2733
 5465SOL     OW17293   5.101   1.387   3.019 -0.5776  0.0271 -0.0335
 5465SOL    HW117294   5.009   1.363   3.052  0.2909 -2.2520  0.9582
 5465SOL    HW217295   5.123   1.332   2.939 -0.3209  1.0828 -0.7056
 5466SOL     OW17296   3.864   5.778   4.420 -0.1176 -0.2489 -0.1298
 5466SOL    HW117297   3.954   5.746   4.389  0.0059  0.1666 -0.2141
 5466SOL    HW217298   3.875   5.834   4.502 -0.3214 -0.3581 -0.0277
 5467SOL     OW17299   1.526   3.851   0.473 -0.4870  0.0538 -0.3195
 5467SOL    HW117300   1.524   3.855   0.573  1.2446 -3.5015 -0.0058
 5467SOL    HW217301   1.438   3.816   0.440 -1.2562  1.7422 -0.1364
 5468SOL     OW17302   5.661   1.062   1.266  0.2266  0.3641  0.1899
 5468SOL    HW117303   5.658   1.041   1.169 -0.5229  1.7979 -0.1273
 5468SOL    HW217304   5.746   1.109   1.288 -0.5669  2.0925 -0.2624
 5469SOL     OW17305   0.780   5.802   4.157  0.5308 -0.4780  0.4070
 5469SOL    HW117306   0.719   5.808   4.079 -2.0058 -0.2069  2.2953
 5469SOL    HW217307   0.814   5.708   4.166 -0.2670 -0.8321 -0.2059
 5470SOL     OW17308   1.239   3.890   6.868 -0.2139  0.4352 -0.3342
 5470SOL    HW117309   1.290   3.941   6.799  1.4025  0.9933  1.2027
 5470SOL    HW217310   1.143   3.882   6.839 -0.6036  4.3382 -0.7242
 5471SOL     OW17311   3.659   1.288   2.412  0.1560  0.4326  0.0554
 5471SOL    HW117312   3.736   1.337   2.452  0.6810 -0.0586 -0.3317
 5471SOL    HW217313   3.593   1.264   2.484 -0.1601  1.7670  0.2317
 5472SOL     OW17314   4.449   4.042   1.561  0.5745  0.3828 -0.0634
 5472SOL    HW117315   4.450   3.942   1.567  0.9235  0.3693 -0.3448
 5472SOL    HW217316   4.385   4.079   1.629  0.1471 -0.0511 -0.2279
 5473SOL     OW17317   3.994   0.547   6.471  0.1642 -0.0708  0.5445
 5473SOL    HW117318   4.061   0.492   6.422 -1.1915  0.3691 -2.0168
 5473SOL    HW217319   4.041   0.615   6.527  1.8287 -0.8238  0.1267
 5474SOL     OW17320   3.865   0.079   0.913  0.1474  0.0071 -0.1528
 5474SOL    HW117321   3.900   0.001   0.862  1.7406 -0.3595  1.3932
 5474SOL    HW217322   3.883   0.066   1.011 -2.9029  0.6111  0.6050
 5475SOL     OW17323   4.862   0.678   0.101 -0.2047 -0.3446  0.4394
 5475SOL    HW117324   4.837   0.775   0.098 -2.4883 -0.8322  1.5992
 5475SOL    HW217325   4.803   0.627   0.038  2.1039 -0.8333 -1.4499
 5476SOL     OW17326   1.067   4.090   6.418  0.2509  0.0169  0.1010
 5476SOL    HW117327   1.148   4.104   6.362  1.5746 -1.9962  1.3585
 5476SOL    HW217328   1.094   4.050   6.506 -1.8562  1.7560  1.6671
 5477SOL     OW17329   5.126   3.595   5.042  0.0147 -0.0710 -0.5320
 5477SOL    HW117330   5.142   3.524   5.111 -0.7749  1.4747  1.3196
 5477SOL    HW217331   5.032   3.589   5.009 -0.3260  0.6540  0.2900
 5478SOL     OW17332   0.836   4.429   2.930 -0.1666  0.0266 -0.3069
 5478SOL    HW117333   0.928   4.407   2.898 -1.1358  0.1022 -3.5945
 5478SOL    HW217334   0.821   4.528   2.921 -0.5138  0.0396  0.3805
 5479SOL     OW17335   3.957   6.750   3.145  0.8359 -0.0427  0.1361
 5479SOL    HW117336   3.911   6.830   3.105  0.9279 -1.5896 -3.4385
 5479SOL    HW217337   3.904   6.718   3.223 -0.2508  2.3491  0.4910
 5480SOL     OW17338   2.377   1.744   4.321  0.0775  0.4188  0.0253
 5480SOL    HW117339   2.424   1.790   4.396  1.3186  1.3281 -1.2677
 5480SOL    HW217340   2.368   1.646   4.342  0.0853  0.7041  1.4811
 5481SOL     OW17341   1.539   5.852   2.679  0.5499 -0.2643  0.5506
 5481SOL    HW117342   1.492   5.857   2.767 -1.0549  0.2329 -0.2857
 5481SOL    HW217343   1.556   5.756   2.656 -1.7857 -0.6448  0.0791
 5482SOL     OW17344   2.691   5.717   2.898 -0.0486  0.2521  0.0363
 5482SOL    HW117345   2.768   5.653   2.895 -1.0029 -0.8861 -0.9391
 5482SOL    HW217346   2.625   5.688   2.967  0.4193  1.3012  0.9662
 5483SOL     OW17347   6.834   2.853   2.756  0.3030 -0.1086 -0.3386
 5483SOL    HW117348   6.844   2.846   2.657  0.1612 -1.7047 -0.2510
 5483SOL    HW217349   6.907   2.911   2.792 -0.4395  1.6378 -1.4996
 5484SOL     OW17350   0.682   5.711   3.146 -0.0138 -0.1689  0.2521
 5484SOL    HW117351   0.702   5.770   3.068 -0.7123 -0.2713 -0.0180
 5484SOL    HW217352   0.724   5.748   3.229  1.4724 -0.5129 -0.3124
 5485SOL     OW17353   6.708   4.284   2.699  0.4820 -0.4216  0.3055
 5485SOL    HW117354   6.710   4.376   2.662  0.6213 -0.8657 -0.8286
 5485SOL    HW217355   6.800   4.256   2.725  0.2278  0.3204  2.1439
 5486SOL     OW17356   4.963   3.380   0.901 -0.1919 -0.0881 -0.1777
 5486SOL    HW117357   5.039   3.324   0.867 -0.4918 -1.3554  1.1309
 5486SOL    HW217358   4.880   3.356   0.851 -0.2256 -0.4872  0.0665
 5487SOL     OW17359   5.730   1.090   0.238 -0.0987  0.0375  0.4923
 5487SOL    HW117360   5.678   1.168   0.273 -2.5923 -0.1186 -2.4792
 5487SOL    HW217361   5.733   1.018   0.307 -1.2408  1.2323  1.8471
 5488SOL     OW17362   3.758   2.883   3.087  0.6227 -0.2799  0.7061
 5488SOL    HW117363   3.738   2.927   2.999 -1.6659 -1.3950  0.6005
 5488SOL    HW217364   3.793   2.791   3.070  1.2344 -0.1010  0.9739
 5489SOL     OW17365   6.482   3.416   6.682 -0.2949  0.1285 -0.5683
 5489SOL    HW117366   6.500   3.318   6.681 -0.2528  0.1258  0.1557
 5489SOL    HW217367   6.482   3.449   6.776  0.9026  1.0574 -0.8702
 5490SOL     OW17368   5.945   2.549   6.443 -0.3680  0.3789  0.2671
 5490SOL    HW117369   5.943   2.637   6.491 -0.3834  0.6584 -0.2428
 5490SOL    HW217370   5.984   2.561   6.352 -0.2921 -0.1608  0.2210
 5491SOL     OW17371   1.981   5.937   0.927  0.2419  0.1107  0.2486
 5491SOL    HW117372   1.937   5.878   0.859 -3.0525  1.3000  1.1282
 5491SOL    HW217373   2.050   5.994   0.883 -2.1798  1.2845 -2.3454
 5492SOL     OW17374   3.150   6.572   0.403 -0.1940 -0.0991  0.0738
 5492SOL    HW117375   3.132   6.568   0.501 -0.1873  2.1276  0.2276
 5492SOL    HW217376   3.187   6.662   0.380  1.5904 -1.2133 -1.7113
 5493SOL     OW17377   3.769   0.384   4.244  0.7944  0.1650 -0.0749
 5493SOL    HW117378   3.846   0.403   4.306  1.9188 -0.4424 -1.2201
 5493SOL    HW217379   3.805   0.362   4.153 -0.8184  3.4783 -1.7228
 5494SOL     OW17380   1.702   2.812   1.851  0.3672 -0.2312  0.7098
 5494SOL    HW117381   1.687   2.779   1.944  0.1990  2.2529  1.6397
 5494SOL    HW217382   1.731   2.908   1.854 -2.1749  0.7668 -1.8306
 5495SOL     OW17383   2.482   0.644   0.844 -0.2234  0.0273 -0.1503
 5495SOL    HW117384   2.479   0.635   0.745  0.1522 -0.6598 -0.1009
 5495SOL    HW217385   2.540   0.721   0.869 -1.0972  0.8116 -0.4865
 5496SOL     OW17386   1.712   0.928   6.683  0.0148 -0.4191  0.0293
 5496SOL    HW117387   1.613   0.923   6.679 -0.0089  0.0028  0.1170
 5496SOL    HW217388   1.744   0.898   6.773 -0.0440 -0.3509  0.0724
 5497SOL     OW17389   6.543   3.561   2.546  0.1588 -0.1494  0.2974
 5497SOL    HW117390   6.477   3.538   2.475 -2.3993  2.1502  1.7484
 5497SOL    HW217391   6.551   3.485   2.610 -1.1888 -0.4194  0.1637
 5498SOL     OW17392   4.230   6.021   6.397 -0.0121 -0.1487 -0.0285
 5498SOL    HW117393   4.327   6.000   6.407 -0.0858 -0.0312  1.0410
 5498SOL    HW217394   4.178   5.975   6.469 -0.6552  0.3879 -0.1364
 5499SOL     OW17395   4.093   6.304   5.229  0.5102 -0.0710  0.4084
 5499SOL    HW117396   4.075   6.287   5.132 -0.8534  0.4485  0.5486
 5499SOL    HW217397   4.080   6.219   5.280 -0.5136  0.0479  0.3562
 5500SOL     OW17398   0.597   3.986   1.687 -0.5774  0.4447  0.1704
 5500SOL    HW117399   0.672   4.042   1.720  0.7734 -1.1240 -0.0821
 5500SOL    HW217400   0.586   4.000   1.588  0.0966 -0.0817  0.0123
 5501SOL     OW17401   6.016   1.692   6.274 -0.1807  0.0457 -0.8633
 5501SOL    HW117402   6.012   1.725   6.180 -1.2495 -0.5145 -1.0356
 5501SOL    HW217403   6.030   1.593   6.275  2.4292  0.3549 -0.3631
 5502SOL     OW17404   3.710   6.387   1.755  0.2017 -0.0876  0.6571
 5502SOL    HW117405   3.733   6.414   1.849 -0.3543  2.8120  0.0693
 5502SOL    HW217406   3.790   6.348   1.711  1.6263  1.9805  1.2466
 5503SOL     OW17407   3.470   3.928   0.945  0.5042  0.4948 -0.5553
 5503SOL    HW117408   3.509   3.957   0.858 -0.5197  0.5488 -1.0159
 5503SOL    HW217409   3.398   3.992   0.972 -1.2936 -1.1538 -1.2157
 5504SOL     OW17410   3.009   6.707   0.641  0.4601 -0.1946  0.2694
 5504SOL    HW117411   3.094   6.760   0.643  1.0323 -1.0873 -0.0530
 5504SOL    HW217412   2.941   6.754   0.584  1.3060 -0.2995 -0.8594
 5505SOL     OW17413   6.117   0.121   3.895  0.0522  0.0694  0.0539
 5505SOL    HW117414   6.215   0.107   3.882  0.1515 -0.0525  0.8920
 5505SOL    HW217415   6.101   0.214   3.930 -0.1646  0.2057 -0.3947
 5506SOL     OW17416   1.264   5.457   4.906 -0.1367  0.1908 -0.0427
 5506SOL    HW117417   1.253   5.462   5.005  0.9992  0.0976  0.0981
 5506SOL    HW217418   1.199   5.391   4.868 -0.1598 -0.2301  0.7103
 5507SOL     OW17419   2.211   3.121   3.118  0.0743  0.1510 -0.2674
 5507SOL    HW117420   2.156   3.055   3.067 -0.0566  0.2844 -0.3017
 5507SOL    HW217421   2.209   3.209   3.071 -1.3234  0.6982  0.7677
 5508SOL     OW17422   4.163   2.561   0.887  0.0396  0.0391 -0.4390
 5508SOL    HW117423   4.195   2.607   0.804  0.0717  0.7843 -0.0144
 5508SOL    HW217424   4.166   2.624   0.964  1.3131 -1.0276  0.4275
 5509SOL     OW17425   6.409   2.766   2.533 -0.6471 -0.2152  0.1068
 5509SOL    HW117426   6.347   2.690   2.512  0.9924 -1.5158 -0.2389
 5509SOL    HW217427   6.472   2.779   2.457 -0.1424  0.7279  0.6677
 5510SOL     OW17428   0.854   4.212   5.358  0.8703  0.7736 -0.1808
 5510SOL    HW117429   0.793   4.279   5.400 -0.1517 -1.1043  1.5155
 5510SOL    HW217430   0.841   4.123   5.402  2.6355 -0.4158 -1.8939
 5511SOL     OW17431   5.950   2.531   3.116 -0.1357 -0.3016  0.2777
 5511SOL    HW117432   5.986   2.438   3.103  0.0347 -0.2354  0.2770
 5511SOL    HW217433   5.956   2.556   3.212 -0.0556 -0.2396  0.2568
 5512SOL     OW17434   0.411   1.738   5.428  0.2184  0.2948 -0.2028
 5512SOL    HW117435   0.422   1.644   5.396 -1.7225 -0.0940  0.1172
 5512SOL    HW217436   0.397   1.798   5.350  1.2131  0.2893 -0.3944
 5513SOL     OW17437   6.175   4.441   4.162  0.3962  0.3895  0.0165
 5513SOL    HW117438   6.148   4.361   4.216 -0.2158  0.3302 -0.3684
 5513SOL    HW217439   6.240   4.497   4.215 -1.7164  1.4084  1.6592
 5514SOL     OW17440   0.221   4.720   6.292 -0.5086  0.3387  0.2650
 5514SOL    HW117441   0.218   4.804   6.347 -0.7667  0.4565  0.0752
 5514SOL    HW217442   0.245   4.743   6.198  1.1058  0.0036  0.5721
 5515SOL     OW17443   5.072   3.487   3.407  0.0184  0.1547  0.0024
 5515SOL    HW117444   5.155   3.540   3.427  0.6031 -0.2989 -1.1580
 5515SOL    HW217445   5.076   3.452   3.314 -1.0181 -0.7424  0.2732
 5516SOL     OW17446   6.781   2.451   2.133  0.0541 -1.1834  0.1278
 5516SOL    HW117447   6.824   2.536   2.103 -2.3733  0.2031  0.3175
 5516SOL    HW217448   6.755   2.459   2.230 -0.1126 -2.1721  0.1731
 5517SOL     OW17449   5.501   6.545   5.150 -0.1406 -0.1086 -0.2076
 5517SOL    HW117450   5.457   6.470   5.201 -0.3547 -0.7878 -1.3630
 5517SOL    HW217451   5.585   6.510   5.107  0.3818  0.6266  0.2002
 5518SOL     OW17452   1.887   4.596   0.944 -0.1118 -0.5050  0.0961
 5518SOL    HW117453   1.823   4.642   0.882 -0.4347  0.3228  1.0247
 5518SOL    HW217454   1.968   4.567   0.892 -0.8486 -0.8093 -0.9195
 5519SOL     OW17455   6.800   3.655   6.007 -0.1491  0.3265 -0.1910
 5519SOL    HW117456   6.720   3.700   6.046  1.2991  1.7923  1.2502
 5519SOL    HW217457   6.842   3.715   5.940 -0.6748 -0.7820 -1.5658
 5520SOL     OW17458   3.822   6.438   2.013  0.3679 -0.2862  0.0630
 5520SOL    HW117459   3.864   6.348   2.026  3.3998  0.3255 -3.7219
 5520SOL    HW217460   3.886   6.509   2.045 -0.7501  0.6216  0.3528
 5521SOL     OW17461   2.658   0.463   3.524  0.1933  0.7861  0.0825
 5521SOL    HW117462   2.571   0.511   3.516  0.1183  0.5764 -0.3924
 5521SOL    HW217463   2.731   0.516   3.482  0.1117  0.4954 -0.4356
 5522SOL     OW17464   6.310   1.867   1.212  0.0976 -0.0512 -0.1804
 5522SOL    HW117465   6.287   1.957   1.251  0.3033  0.4973 -1.2840
 5522SOL    HW217466   6.242   1.844   1.142  2.1282  1.0858 -2.7150
 5523SOL     OW17467   1.904   3.035   5.814  0.4739 -0.5304  0.1391
 5523SOL    HW117468   1.816   2.987   5.818 -1.0245  2.0544  0.6500
 5523SOL    HW217469   1.937   3.036   5.720 -1.9649  1.5240 -0.8135
 5524SOL     OW17470   6.979   0.602   1.136 -0.3932 -0.4553  0.3434
 5524SOL    HW117471   6.988   0.620   1.038  0.0329 -1.3861  0.2042
 5524SOL    HW217472   6.901   0.542   1.152 -1.0200  0.4260  0.6772
 5525SOL     OW17473   0.256   2.801   1.891 -0.0417  0.2297 -0.5488
 5525SOL    HW117474   0.278   2.704   1.886  0.5833  0.1289  2.4441
 5525SOL    HW217475   0.335   2.855   1.863  0.8546 -0.1572  1.1360
 5526SOL     OW17476   5.545   1.471   3.145  0.0680  0.0881 -0.3257
 5526SOL    HW117477   5.607   1.418   3.202 -0.8867 -2.2187 -1.2852
 5526SOL    HW217478   5.450   1.445   3.166 -0.3264 -0.8494 -2.8486
 5527SOL     OW17479   0.827   5.809   2.399  0.9798 -0.2663  0.5611
 5527SOL    HW117480   0.858   5.809   2.494 -0.1941  0.4637  0.9687
 5527SOL    HW217481   0.730   5.783   2.395  1.2855 -1.3618 -0.5566
 5528SOL     OW17482   1.763   0.733   2.302  0.3355 -0.1212  0.0902
 5528SOL    HW117483   1.703   0.798   2.254  0.5896 -0.7179 -1.0708
 5528SOL    HW217484   1.714   0.692   2.378 -0.1690  0.6552  0.1984
 5529SOL     OW17485   2.165   4.702   2.695 -0.0101  0.1537 -0.5145
 5529SOL    HW117486   2.122   4.764   2.629 -0.2425 -0.6611 -1.1457
 5529SOL    HW217487   2.112   4.703   2.780  1.3774  2.6917  0.4214
 5530SOL     OW17488   4.147   0.839   0.939  0.3456  0.0567  0.1292
 5530SOL    HW117489   4.117   0.744   0.937 -1.0493  0.4646 -0.0200
 5530SOL    HW217490   4.179   0.866   0.848  1.0513 -0.3523  0.2521
 5531SOL     OW17491   6.156   1.985   4.367 -0.3235 -0.2028 -0.5503
 5531SOL    HW117492   6.174   2.081   4.387  0.0391 -0.1382 -1.1683
 5531SOL    HW217493   6.106   1.944   4.443 -0.8207  0.5750 -0.4445
 5532SOL     OW17494   4.676   1.793   5.893  0.0180 -0.2354  0.1838
 5532SOL    HW117495   4.673   1.892   5.893  0.6410 -0.2148 -0.3266
 5532SOL    HW217496   4.769   1.762   5.913  0.2582 -0.6927 -1.5230
 5533SOL     OW17497   4.833   5.881   4.399  0.0387  0.1568  0.0299
 5533SOL    HW117498   4.812   5.914   4.491 -1.5087  3.0968 -1.2309
 5533SOL    HW217499   4.917   5.827   4.402  0.6600  1.0759  2.9869
 5534SOL     OW17500   6.108   2.536   4.927  0.3882  0.3752  0.2914
 5534SOL    HW117501   6.056   2.451   4.936  1.1042  0.0844  1.9520
 5534SOL    HW217502   6.106   2.565   4.831 -1.9861 -0.1352  0.1033
 5535SOL     OW17503   5.243   2.253   5.060 -0.5099 -0.2603  0.7845
 5535SOL    HW117504   5.214   2.204   5.143 -1.7178 -0.6693  0.1477
 5535SOL    HW217505   5.169   2.313   5.030 -0.7126 -1.2648 -0.8530
 5536SOL     OW17506   6.962   4.836   5.585  0.6328  0.1278  0.6054
 5536SOL    HW117507   7.051   4.837   5.630  1.3210 -0.3781 -0.7067
 5536SOL    HW217508   6.971   4.871   5.492 -0.4509 -0.4376  0.2693
 5537SOL     OW17509   6.263   6.105   3.361  0.2098  0.1989  0.3692
 5537SOL    HW117510   6.241   6.031   3.298 -0.4433 -0.5759  1.4744
 5537SOL    HW217511   6.239   6.193   3.319  0.5965 -0.2393 -0.7844
 5538SOL     OW17512   1.448   6.510   6.795 -0.2616  0.0219 -0.0712
 5538SOL    HW117513   1.354   6.474   6.793  0.1258 -1.3684  2.6043
 5538SOL    HW217514   1.450   6.592   6.851  0.2471 -0.5185  0.7261
 5539SOL     OW17515   0.365   0.256   4.448 -0.8637 -0.5485 -0.7993
 5539SOL    HW117516   0.335   0.161   4.454 -0.3115 -0.9753 -3.4009
 5539SOL    HW217517   0.459   0.263   4.481 -0.8277 -0.9620 -0.8074
 5540SOL     OW17518   1.039   6.793   1.240 -0.2627 -0.1240  0.0175
 5540SOL    HW117519   1.007   6.716   1.185  2.7042 -0.7764 -0.9874
 5540SOL    HW217520   0.991   6.876   1.212  0.3055 -0.6571 -2.7990
 5541SOL     OW17521   5.059   1.936   4.498 -0.0743 -0.7165  0.6374
 5541SOL    HW117522   5.150   1.971   4.521  0.3636 -0.6909 -1.0064
 5541SOL    HW217523   5.069   1.853   4.443 -1.0509 -0.7988  0.5702
 5542SOL     OW17524   4.430   2.099   3.195 -0.1790  0.5987  0.1327
 5542SOL    HW117525   4.463   2.169   3.132  0.9131  0.5504  0.6179
 5542SOL    HW217526   4.364   2.139   3.258 -2.1238  0.4005 -1.6954
 5543SOL     OW17527   4.844   2.488   3.942  0.5190 -0.5463 -0.6125
 5543SOL    HW117528   4.768   2.545   3.973  1.5455 -0.0645  1.1544
 5543SOL    HW217529   4.924   2.545   3.925  0.7609 -1.1520 -1.5485
 5544SOL     OW17530   5.528   6.746   0.630 -0.1149 -0.4991  0.2309
 5544SOL    HW117531   5.617   6.703   0.613  0.6045  0.3696  1.6194
 5544SOL    HW217532   5.463   6.717   0.559  1.0094 -1.8673 -0.2926
 5545SOL     OW17533   6.583   0.883   4.553 -0.3326 -0.2764  0.3160
 5545SOL    HW117534   6.505   0.820   4.547 -1.5466  0.9990  2.0575
 5545SOL    HW217535   6.646   0.851   4.623  0.3126 -0.8514 -0.5102
 5546SOL     OW17536   2.787   0.947   2.946 -0.3150  0.1101 -0.3732
 5546SOL    HW117537   2.809   0.857   2.984  0.7784  0.8544  0.7997
 5546SOL    HW217538   2.833   0.957   2.857  1.0753  0.1976  0.3318
 5547SOL     OW17539   0.349   3.066   1.521  0.1585 -0.6039  0.2934
 5547SOL    HW117540   0.332   3.131   1.448 -0.8528 -0.1240  0.9351
 5547SOL    HW217541   0.447   3.054   1.534  0.3441  0.4015 -0.1698
 5548SOL     OW17542   2.705   6.364   3.618  0.1272 -0.0457 -0.0561
 5548SOL    HW117543   2.639   6.296   3.649  1.0632 -1.2417 -0.6292
 5548SOL    HW217544   2.693   6.448   3.671 -1.4188 -0.4542  0.2755
 5549SOL     OW17545   2.014   5.689   2.791  0.7053 -0.0998  0.7347
 5549SOL    HW117546   2.007   5.786   2.817  3.2802  0.9947 -2.0182
 5549SOL    HW217547   2.073   5.681   2.711 -0.6675 -3.8589 -0.0991
 5550SOL     OW17548   0.121   4.270   5.184  0.2904 -0.4536 -0.0172
 5550SOL    HW117549   0.089   4.306   5.272  0.8023 -1.4938  0.6213
 5550SOL    HW217550   0.055   4.204   5.149 -1.2127  1.7996 -1.7451
 5551SOL     OW17551   2.009   0.003   3.036  0.1105 -0.0589  0.3133
 5551SOL    HW117552   2.074  -0.026   3.106  0.2505 -1.1933 -0.2580
 5551SOL    HW217553   1.916  -0.006   3.071  0.1413 -1.4415  0.0958
 5552SOL     OW17554   1.469   5.333   0.230  0.0523  0.5215  0.0885
 5552SOL    HW117555   1.515   5.310   0.316  0.0458 -1.8488 -0.4748
 5552SOL    HW217556   1.465   5.252   0.172 -2.0562  1.4684 -1.1959
 5553SOL     OW17557   2.836   0.585   1.380  0.1496 -0.0920  0.4678
 5553SOL    HW117558   2.763   0.551   1.320  0.6971  0.4544 -0.5164
 5553SOL    HW217559   2.922   0.540   1.357  0.1881 -0.5831  1.4945
 5554SOL     OW17560   0.434   2.423   0.591 -0.3651 -0.2201 -0.1627
 5554SOL    HW117561   0.402   2.331   0.615 -0.1160 -0.9588 -2.3912
 5554SOL    HW217562   0.525   2.437   0.629 -0.5931 -0.7264  0.5841
 5555SOL     OW17563   0.760   4.789   3.087  0.6486 -0.1519 -0.1407
 5555SOL    HW117564   0.701   4.790   3.006  0.2972 -1.3837  0.0861
 5555SOL    HW217565   0.843   4.841   3.067 -0.1898  1.0274 -0.6907
 5556SOL     OW17566   2.996   0.062   1.420 -0.0578 -0.4451 -0.4883
 5556SOL    HW117567   2.966   0.020   1.335  0.2984 -2.0407  0.1456
 5556SOL    HW217568   2.961   0.009   1.498  1.5339 -0.3809  0.3108
 5557SOL     OW17569   2.136   2.659   6.435  0.4250  0.0130 -0.1713
 5557SOL    HW117570   2.166   2.565   6.450  0.5172  0.3669  2.2328
 5557SOL    HW217571   2.170   2.718   6.509 -0.6006  1.7166 -0.9835
 5558SOL     OW17572   4.287   6.001   3.310 -0.1395  0.7218  0.4532
 5558SOL    HW117573   4.345   5.924   3.284  1.0603  1.2815  1.3549
 5558SOL    HW217574   4.219   6.018   3.238  0.5668 -0.1902 -0.4549
 5559SOL     OW17575   6.566   4.344   6.606 -0.1081  0.0440 -0.2291
 5559SOL    HW117576   6.533   4.298   6.524 -0.3728 -0.4856  0.1630
 5559SOL    HW217577   6.498   4.411   6.637 -0.6248 -0.7083  0.3084
 5560SOL     OW17578   5.410   6.760   5.286  0.0889  0.2833  0.2983
 5560SOL    HW117579   5.427   6.676   5.235 -2.1969  0.4305 -0.8195
 5560SOL    HW217580   5.315   6.788   5.274 -0.1342  1.2127  3.3898
 5561SOL     OW17581   0.694   4.442   4.690  0.2218  0.0866  0.3806
 5561SOL    HW117582   0.686   4.439   4.789  0.4093 -1.6633  0.3767
 5561SOL    HW217583   0.779   4.489   4.665  1.1410 -1.1245  1.1256
 5562SOL     OW17584   0.650   6.447   2.071  0.2847 -0.2422 -0.0490
 5562SOL    HW117585   0.733   6.456   2.017  1.3762 -0.0317  1.6148
 5562SOL    HW217586   0.671   6.408   2.160 -0.9073  2.3852  1.4939
 5563SOL     OW17587   3.176   6.204   3.635  0.5553  0.1791 -0.3894
 5563SOL    HW117588   3.268   6.187   3.670  1.1834 -0.3282 -2.1750
 5563SOL    HW217589   3.145   6.294   3.667  0.8505 -0.4596  1.8173
 5564SOL     OW17590   6.369   3.418   3.231 -0.0700 -0.2373  0.4659
 5564SOL    HW117591   6.347   3.321   3.230  0.0291 -0.2584  0.0891
 5564SOL    HW217592   6.289   3.471   3.259 -0.2964 -0.3851  0.1031
 5565SOL     OW17593   4.563   5.293   6.808  0.2738 -0.2689 -0.2174
 5565SOL    HW117594   4.489   5.356   6.788  0.2670 -0.5169 -1.0350
 5565SOL    HW217595   4.552   5.254   6.900  0.7377  1.5361  0.6458
 5566SOL     OW17596   4.294   5.394   6.223 -0.0837 -0.1479 -0.2288
 5566SOL    HW117597   4.198   5.366   6.229 -0.2933  0.4345 -0.7026
 5566SOL    HW217598   4.301   5.477   6.167  0.4406  1.0984  1.5957
 5567SOL     OW17599   6.083   4.774   4.999 -0.7660  0.1120  0.2163
 5567SOL    HW117600   6.065   4.731   4.911  1.8678 -3.1473  1.0640
 5567SOL    HW217601   6.168   4.826   4.994 -0.6440 -0.0252  0.7878
 5568SOL     OW17602   2.758   5.947   4.243 -0.8945  0.5591 -0.1388
 5568SOL    HW117603   2.771   6.015   4.315 -0.7267  1.2438 -0.8000
 5568SOL    HW217604   2.672   5.899   4.258 -0.8373  0.6561  0.5398
 5569SOL     OW17605   2.345   5.185   6.807  0.2166 -0.2969  0.7072
 5569SOL    HW117606   2.405   5.104   6.799 -1.2695 -1.2964 -1.2081
 5569SOL    HW217607   2.393   5.265   6.770  0.1609 -1.2533 -1.6475
 5570SOL     OW17608   6.662   4.758   3.457 -0.0504 -0.2561 -0.0749
 5570SOL    HW117609   6.623   4.770   3.366  1.8204 -1.3081 -1.0812
 5570SOL    HW217610   6.598   4.707   3.514 -0.6117 -1.0042 -1.3251
 5571SOL     OW17611   0.206   3.984   1.016 -0.5101 -0.3722 -0.8506
 5571SOL    HW117612   0.265   3.958   1.093 -0.1573 -1.0655 -1.3428
 5571SOL    HW217613   0.111   3.968   1.040 -0.5035  0.6543 -0.0842
 5572SOL     OW17614   5.447   6.352   0.157  1.0448 -0.0748  0.2861
 5572SOL    HW117615   5.392   6.372   0.238  0.2357  0.2700 -0.3373
 5572SOL    HW217616   5.402   6.281   0.103  0.9774  0.5233 -0.4567
 5573SOL     OW17617   6.188   3.019   6.326 -0.1287 -0.1046  0.0857
 5573SOL    HW117618   6.139   2.991   6.409  0.0295  0.7251  0.4720
 5573SOL    HW217619   6.122   3.043   6.255 -0.2755  0.1113  0.2934
 5574SOL     OW17620   3.277   1.845   3.129 -0.5569 -0.2197 -0.4401
 5574SOL    HW117621   3.192   1.827   3.079 -1.9351 -1.1567  2.0731
 5574SOL    HW217622   3.276   1.938   3.164 -1.4176 -0.7724  1.0783
 5575SOL     OW17623   6.150   3.329   2.352  0.1012 -0.0106 -0.9333
 5575SOL    HW117624   6.126   3.263   2.423 -1.5393  0.9036 -0.5938
 5575SOL    HW217625   6.185   3.280   2.272 -0.7750 -1.2725 -0.5717
 5576SOL     OW17626   2.412   5.143   1.977  0.0947 -0.2769 -0.2999
 5576SOL    HW117627   2.412   5.044   1.990  1.0605 -0.2218  0.2540
 5576SOL    HW217628   2.421   5.164   1.879 -1.4145 -0.7140 -0.5610
 5577SOL     OW17629   5.869   3.090   5.277 -0.0961  0.3075  0.6800
 5577SOL    HW117630   5.951   3.085   5.219 -0.6486 -2.0979  0.0252
 5577SOL    HW217631   5.801   3.148   5.232  0.5275  0.7803  0.3218
 5578SOL     OW17632   3.595   2.083   2.301 -0.0686 -0.1897  0.2397
 5578SOL    HW117633   3.589   2.118   2.207 -0.3412  0.1506  0.3821
 5578SOL    HW217634   3.671   2.128   2.348 -1.0527  0.9920  0.7439
 5579SOL     OW17635   6.524   2.959   5.739 -0.3326  0.0199  0.3472
 5579SOL    HW117636   6.545   3.021   5.816  0.4299  0.7173 -0.3980
 5579SOL    HW217637   6.445   2.994   5.689  0.2048  0.5069 -0.1775
 5580SOL     OW17638   5.113   2.552   6.109 -0.2012 -0.3240  0.1034
 5580SOL    HW117639   5.166   2.537   6.192  0.3020  0.1968 -0.1153
 5580SOL    HW217640   5.112   2.468   6.055  0.7311 -0.2378 -0.0680
 5581SOL     OW17641   3.957   5.742   0.571  0.2797 -0.0074  0.4079
 5581SOL    HW117642   3.910   5.748   0.483  0.2344  1.5816  0.5128
 5581SOL    HW217643   3.944   5.828   0.621 -1.7961 -1.7012  3.0371
 5582SOL     OW17644   3.268   4.196   5.271 -0.3626 -0.0466 -0.4232
 5582SOL    HW117645   3.272   4.100   5.298  1.2554 -0.0178 -0.4862
 5582SOL    HW217646   3.176   4.217   5.236 -0.5567 -1.7211 -1.0085
 5583SOL     OW17647   1.530   2.843   6.072 -0.5578 -0.7725  0.2070
 5583SOL    HW117648   1.493   2.759   6.111  0.1575 -1.8407 -1.2924
 5583SOL    HW217649   1.612   2.870   6.122 -0.9922 -0.7469  0.9207
 5584SOL     OW17650   5.474   4.673   1.036  0.3768 -0.3558 -0.0317
 5584SOL    HW117651   5.380   4.701   1.053  0.5566  1.3123 -1.4824
 5584SOL    HW217652   5.512   4.632   1.119 -0.7878  1.3186  1.4097
 5585SOL     OW17653   0.501   2.499   1.324 -0.3633 -0.2739 -0.3345
 5585SOL    HW117654   0.461   2.581   1.284  2.7637  1.8089  0.4277
 5585SOL    HW217655   0.586   2.477   1.276  0.3764 -1.2569  1.3459
 5586SOL     OW17656   3.135   0.974   3.178 -0.2269  0.1620 -0.1403
 5586SOL    HW117657   3.158   1.040   3.249 -0.6328 -0.3149  0.4429
 5586SOL    HW217658   3.215   0.917   3.159 -0.5341 -0.7072  1.0333
 5587SOL     OW17659   4.921   1.082   4.589 -0.5457  0.4837 -0.2822
 5587SOL    HW117660   4.871   1.118   4.510 -3.3289  0.3687  1.2774
 5587SOL    HW217661   4.907   1.143   4.667 -1.4615 -1.5110  1.1958
 5588SOL     OW17662   6.385   6.858   0.063  0.4062  0.4185  0.3291
 5588SOL    HW117663   6.381   6.907  -0.024 -1.0989  0.6477  0.5040
 5588SOL    HW217664   6.478   6.825   0.078  0.7933  0.7662 -1.1412
 5589SOL     OW17665   2.253   2.631   0.075 -0.4480  1.5536 -0.0611
 5589SOL    HW117666   2.205   2.662  -0.007 -2.3730 -0.6812  0.1104
 5589SOL    HW217667   2.192   2.573   0.129  1.8447  0.1837  1.2068
 5590SOL     OW17668   0.302   4.401   6.827 -0.2540  0.1991  0.1082
 5590SOL    HW117669   0.214   4.421   6.784 -1.1211 -0.1270  1.6393
 5590SOL    HW217670   0.327   4.305   6.809 -0.6342  0.0509  0.3486
 5591SOL     OW17671   2.675   0.502   6.929 -0.1704  0.1806  0.1087
 5591SOL    HW117672   2.675   0.574   6.998 -1.8832 -1.2593  1.7138
 5591SOL    HW217673   2.769   0.478   6.907  0.4263  1.3676  1.1991
 5592SOL     OW17674   5.599   0.393   1.804  0.6032  0.8013  0.1977
 5592SOL    HW117675   5.556   0.484   1.805 -1.9020 -0.2322 -1.6020
 5592SOL    HW217676   5.612   0.363   1.710 -2.1991 -2.1379  0.5499
 5593SOL     OW17677   1.476   4.771   6.612 -0.4655  0.2098  0.5701
 5593SOL    HW117678   1.456   4.782   6.515  1.1219  0.3782  0.2433
 5593SOL    HW217679   1.407   4.820   6.666 -1.7951 -0.5068 -0.4222
 5594SOL     OW17680   5.229   6.464   1.052 -0.0815  0.2836 -0.0297
 5594SOL    HW117681   5.210   6.553   1.093  0.1258  0.0888  0.4977
 5594SOL    HW217682   5.325   6.461   1.023  0.5733 -0.5888  2.0971
 5595SOL     OW17683   5.931   0.696   3.436 -0.3254  0.0581 -0.4816
 5595SOL    HW117684   6.030   0.687   3.440 -0.2606  0.2560 -1.4416
 5595SOL    HW217685   5.906   0.778   3.384 -0.9923  0.8816  1.0533
 5596SOL     OW17686   2.084   5.092   3.423  0.4110 -0.4238 -0.8247
 5596SOL    HW117687   2.011   5.030   3.453  1.1787 -1.7733 -1.5992
 5596SOL    HW217688   2.057   5.186   3.440 -0.0960 -0.9841  2.0163
 5597SOL     OW17689   2.955   1.432   0.369 -0.5931 -0.2542  0.0468
 5597SOL    HW117690   2.976   1.444   0.271  1.3906 -2.9441  0.0114
 5597SOL    HW217691   3.008   1.498   0.422 -0.2493  0.0135 -0.6089
 5598SOL     OW17692   4.272   2.208   0.226  0.0735 -0.0141  0.1163
 5598SOL    HW117693   4.286   2.269   0.304  1.0958 -0.2252  0.1201
 5598SOL    HW217694   4.237   2.120   0.257 -0.3205  0.1830  0.2369
 5599SOL     OW17695   0.254   4.865   5.416 -0.4496 -0.1140  0.1336
 5599SOL    HW117696   0.312   4.864   5.334  0.1743 -1.1421  0.5604
 5599SOL    HW217697   0.240   4.771   5.447 -2.4033  0.0969  0.0223
 5600SOL     OW17698   5.271   1.793   0.028 -0.0072 -0.0917 -0.0956
 5600SOL    HW117699   5.324   1.875   0.053  0.6209 -0.3262 -0.6421
 5600SOL    HW217700   5.180   1.800   0.069  0.4558  0.2819  0.9273
 5601SOL     OW17701   7.004   3.723   0.641  0.0011 -0.3577  0.0235
 5601SOL    HW117702   7.034   3.667   0.718 -1.2487 -0.6926  0.2915
 5601SOL    HW217703   6.976   3.813   0.673 -1.4655 -0.8200  0.1549
 5602SOL     OW17704   4.416   0.499   1.403 -0.7761 -0.2121  0.3507
 5602SOL    HW117705   4.510   0.532   1.412 -0.2542 -1.2700 -0.9294
 5602SOL    HW217706   4.407   0.412   1.452  0.0963 -2.2386 -2.8267
 5603SOL     OW17707   2.492   2.523   2.028  0.1405  0.2216  0.5884
 5603SOL    HW117708   2.476   2.504   1.932  0.6130 -0.8923  0.7221
 5603SOL    HW217709   2.413   2.573   2.066 -0.7748 -0.7708  0.0296
 5604SOL     OW17710   0.083   1.221   5.142 -1.0731  0.3806  0.2794
 5604SOL    HW117711   0.044   1.283   5.210 -1.5125  0.4688 -0.0480
 5604SOL    HW217712   0.138   1.274   5.077 -0.9219  0.3401  0.3738
 5605SOL     OW17713   4.391   0.096   4.567  0.2294  0.3905 -0.2795
 5605SOL    HW117714   4.467   0.136   4.516  1.8538 -2.6601 -0.4430
 5605SOL    HW217715   4.322   0.061   4.502  0.7304 -0.5703 -0.3104
 5606SOL     OW17716   5.462   4.718   2.269  0.7839  0.3653 -0.6642
 5606SOL    HW117717   5.426   4.778   2.197  2.6243  1.7505 -0.5148
 5606SOL    HW217718   5.548   4.756   2.303  0.2649 -0.5616  1.8855
 5607SOL     OW17719   6.414   5.107   3.325  0.5387  0.0441  0.0715
 5607SOL    HW117720   6.330   5.060   3.352  0.0597  0.8559  0.0327
 5607SOL    HW217721   6.442   5.170   3.397  2.0862 -1.4520  0.8350
 5608SOL     OW17722   0.097   2.602   2.663  0.4371 -0.4358  0.0880
 5608SOL    HW117723   0.178   2.573   2.611  1.5295 -1.5223  2.2657
 5608SOL    HW217724   0.114   2.692   2.703  0.3968 -0.4782  0.1999
 5609SOL     OW17725   5.533   0.270   3.346  0.1723  0.2618 -0.1676
 5609SOL    HW117726   5.485   0.289   3.260  0.5160  0.5883 -0.2883
 5609SOL    HW217727   5.487   0.317   3.421 -2.8635 -3.4630  0.6314
 5610SOL     OW17728   4.388   5.642   4.814 -0.7110 -0.1351 -0.6275
 5610SOL    HW117729   4.427   5.630   4.723  1.4354 -0.7656  0.3060
 5610SOL    HW217730   4.352   5.554   4.846 -0.6616 -0.1208 -0.5326
 5611SOL     OW17731   4.563   4.812   4.385  0.1978  0.6651  0.6729
 5611SOL    HW117732   4.619   4.773   4.312  0.1777  1.6917  0.0881
 5611SOL    HW217733   4.485   4.752   4.404  0.1511  0.4426 -0.2114
 5612SOL     OW17734   3.185   1.171   6.350 -0.0044  0.2680 -0.1369
 5612SOL    HW117735   3.278   1.136   6.339  0.1776  1.1285 -1.4970
 5612SOL    HW217736   3.188   1.265   6.383 -0.4024  0.2856 -0.1460
 5613SOL     OW17737   1.307   0.144   3.146 -0.5233 -0.4706 -0.2375
 5613SOL    HW117738   1.400   0.159   3.113 -0.4032 -0.0673  0.2623
 5613SOL    HW217739   1.261   0.078   3.087 -0.2770  0.1224 -1.1153
 5614SOL     OW17740   3.370   4.692   1.103 -0.3163  0.2993  0.3478
 5614SOL    HW117741   3.464   4.665   1.080 -0.5639  0.1172 -0.5131
 5614SOL    HW217742   3.327   4.621   1.158 -0.6176 -0.6034 -1.0105
 5615SOL     OW17743   2.573   0.255   2.379 -0.5282 -0.4339 -0.2499
 5615SOL    HW117744   2.537   0.313   2.452  0.6978  1.0963 -0.7957
 5615SOL    HW217745   2.527   0.166   2.380 -1.1587 -0.1258  1.8013
 5616SOL     OW17746   0.421   2.092   3.034 -0.0285  0.0642 -0.0037
 5616SOL    HW117747   0.385   2.185   3.027  2.0772  0.9779  0.3698
 5616SOL    HW217748   0.389   2.038   2.957 -0.8052  1.2890 -0.5798
 5617SOL     OW17749   5.023   1.140   4.276 -0.0249  0.0732 -0.7154
 5617SOL    HW117750   5.108   1.182   4.244  1.9467 -0.5255  3.1639
 5617SOL    HW217751   4.974   1.204   4.336 -0.5599 -0.7755 -0.2289
 5618SOL     OW17752   3.510   1.252   1.143  0.3386  0.0273 -0.1972
 5618SOL    HW117753   3.544   1.278   1.053  2.0710 -0.2681  0.3396
 5618SOL    HW217754   3.586   1.246   1.207 -0.9514  1.0419  1.5130
 5619SOL     OW17755   0.029   4.661   3.293 -0.3281  0.4862 -0.2364
 5619SOL    HW117756   0.124   4.693   3.290 -0.3369  0.4674 -0.9568
 5619SOL    HW217757  -0.032   4.740   3.303 -0.2237  0.4638  0.6702
 5620SOL     OW17758   0.322   2.667   1.219  0.3780  0.2281  0.1839
 5620SOL    HW117759   0.378   2.683   1.138 -0.2977 -1.9172 -0.7847
 5620SOL    HW217760   0.226   2.662   1.193  0.1713 -0.7584  1.0478
 5621SOL     OW17761   5.789   2.831   6.102  0.3612 -0.1126 -0.4237
 5621SOL    HW117762   5.837   2.887   6.034  0.0613  1.0475  0.2790
 5621SOL    HW217763   5.691   2.854   6.101  0.5476  0.9485  1.3049
 5622SOL     OW17764   4.904   3.011   4.442 -0.3130 -0.3657  0.1215
 5622SOL    HW117765   4.960   2.954   4.502  0.8894  0.5029 -0.1511
 5622SOL    HW217766   4.909   3.106   4.471  0.8690  0.1950 -1.7152
 5623SOL     OW17767   3.740   6.887   5.351 -0.4506  0.2008  0.2709
 5623SOL    HW117768   3.729   6.813   5.284 -2.7288  1.0610 -0.4211
 5623SOL    HW217769   3.837   6.904   5.366  0.1333 -1.8315 -0.7501
 5624SOL     OW17770   1.039   3.165   6.470  0.8438 -0.5481  0.2368
 5624SOL    HW117771   1.098   3.102   6.420  2.2543 -0.8154  2.1126
 5624SOL    HW217772   1.083   3.190   6.556 -0.8391  1.0035  0.7031
 5625SOL     OW17773   1.211   1.213   1.065 -0.1677 -0.2636  0.2574
 5625SOL    HW117774   1.287   1.149   1.047 -0.0082 -0.1116  0.3945
 5625SOL    HW217775   1.137   1.194   1.000  0.3108  0.1184 -0.4130
 5626SOL     OW17776   5.925   2.351   4.356 -0.5114 -0.0837 -0.7173
 5626SOL    HW117777   5.843   2.311   4.399  0.8459 -1.2625  0.9163
 5626SOL    HW217778   5.903   2.443   4.323 -2.1503  0.1748  0.8948
 5627SOL     OW17779   1.425   3.606   5.353 -0.4937 -0.1966 -0.4525
 5627SOL    HW117780   1.445   3.623   5.257  0.6609 -1.1576 -0.4000
 5627SOL    HW217781   1.507   3.622   5.408 -1.0531  0.0405  0.3379
 5628SOL     OW17782   5.925   4.088   1.400 -0.0380 -0.4754 -0.9126
 5628SOL    HW117783   5.983   4.027   1.453  0.5553 -1.1534 -2.3129
 5628SOL    HW217784   5.966   4.180   1.398 -1.3438  0.2875  1.8885
 5629SOL     OW17785   2.099   4.844   4.898  0.1590  0.8827 -0.0242
 5629SOL    HW117786   2.155   4.802   4.969 -0.6678  1.0667  0.7447
 5629SOL    HW217787   2.093   4.782   4.819  0.6342  0.4476  0.2756
 5630SOL     OW17788   6.085   4.887   2.797  0.0878  0.4399 -0.0136
 5630SOL    HW117789   6.177   4.854   2.818  1.0817  3.9253  1.8047
 5630SOL    HW217790   6.090   4.982   2.765 -2.7882  0.1369 -1.7022
 5631SOL     OW17791   1.458   6.254   3.687 -0.3101 -0.5093 -0.3315
 5631SOL    HW117792   1.386   6.302   3.738 -0.2798 -1.9292  1.1352
 5631SOL    HW217793   1.543   6.255   3.740  0.0250 -1.1233 -0.8336
 5632SOL     OW17794   3.732   5.471   4.682  0.2725 -0.0045 -0.1158
 5632SOL    HW117795   3.811   5.439   4.630 -1.0470 -1.2736 -1.4358
 5632SOL    HW217796   3.688   5.394   4.727 -0.3173  0.6581  0.4644
 5633SOL     OW17797   5.956   4.253   2.414  0.2855 -0.0477 -0.0042
 5633SOL    HW117798   5.969   4.310   2.495  2.7210 -3.0053  1.9357
 5633SOL    HW217799   6.033   4.264   2.352  0.4694 -0.7288  0.0930
 5634SOL     OW17800   4.534   4.499   0.377 -0.0619 -0.0203 -0.7197
 5634SOL    HW117801   4.524   4.542   0.287 -0.3907  1.3015 -0.0797
 5634SOL    HW217802   4.443   4.487   0.417  0.1725  1.4906  0.3563
 5635SOL     OW17803   1.139   4.425   4.558  0.0764 -0.2490 -0.2168
 5635SOL    HW117804   1.210   4.417   4.488 -0.4418 -1.3529 -0.6385
 5635SOL    HW217805   1.118   4.335   4.595 -0.0065  0.2578  1.0416
 5636SOL     OW17806   5.849   0.897   6.228  0.1755 -0.1098  0.0564
 5636SOL    HW117807   5.906   0.964   6.276 -0.4461  1.2382 -1.0178
 5636SOL    HW217808   5.766   0.881   6.280 -1.7312  3.2988 -1.5722
 5637SOL     OW17809   1.675   0.177   4.431 -0.2889  0.1837 -0.5770
 5637SOL    HW117810   1.655   0.270   4.460 -1.1716  0.1719 -1.1300
 5637SOL    HW217811   1.754   0.142   4.482  0.4838  1.4718 -0.8548
 5638SOL     OW17812   3.203   3.038   3.673 -0.0415  0.0459  0.1581
 5638SOL    HW117813   3.198   3.068   3.769 -0.2122 -0.1406  0.2066
 5638SOL    HW217814   3.284   2.981   3.661  0.4553  0.7659 -0.0020
 5639SOL     OW17815   5.776   2.878   6.855  0.0157  0.5404 -0.2696
 5639SOL    HW117816   5.783   2.976   6.871  0.6155  0.8730 -2.3472
 5639SOL    HW217817   5.703   2.840   6.912 -0.7868  2.3200 -0.0591
 5640SOL     OW17818   0.165   5.767   3.174 -0.1609 -0.5282 -0.4618
 5640SOL    HW117819   0.125   5.678   3.197 -0.6573 -0.0662  0.4828
 5640SOL    HW217820   0.264   5.757   3.167  0.1664 -0.5487  2.8327
 5641SOL     OW17821   6.259   1.158   0.645 -0.4083  0.0207  0.6681
 5641SOL    HW117822   6.313   1.134   0.726  1.1835  0.3040 -0.2558
 5641SOL    HW217823   6.244   1.257   0.643  0.9302  0.2392 -0.1423
 5642SOL     OW17824   3.556   2.279   1.449 -0.5580 -0.1203 -0.8715
 5642SOL    HW117825   3.530   2.271   1.353 -0.7602  0.0141 -0.8286
 5642SOL    HW217826   3.563   2.375   1.474 -1.4953 -0.1401 -0.4896
 5643SOL     OW17827   3.060   6.564   4.646  0.0631 -0.4163 -0.4571
 5643SOL    HW117828   3.139   6.548   4.588 -0.8728  0.6634 -2.0951
 5643SOL    HW217829   3.068   6.654   4.690 -1.0085  0.5084 -2.0302
 5644SOL     OW17830   6.728   2.004   4.410 -0.0214  0.2453 -0.1170
 5644SOL    HW117831   6.688   2.096   4.412 -0.2336  0.1558 -0.3494
 5644SOL    HW217832   6.671   1.941   4.462 -0.2221  0.1016 -0.5117
 5645SOL     OW17833   3.164   3.511   4.400  0.8268 -0.1642 -0.1698
 5645SOL    HW117834   3.077   3.462   4.399 -0.0756  1.3532  0.8291
 5645SOL    HW217835   3.226   3.468   4.466  1.3477 -1.9998 -1.7511
 5646SOL     OW17836   2.333   6.006   0.356  0.1046 -0.0468  0.0035
 5646SOL    HW117837   2.279   5.955   0.290  1.9960 -0.3322 -1.3839
 5646SOL    HW217838   2.381   6.081   0.310  1.9403 -0.6197  0.8784
 5647SOL     OW17839   6.149   0.269   6.481  0.8934 -0.2209 -0.1400
 5647SOL    HW117840   6.118   0.263   6.386  1.1765  0.8576 -0.3182
 5647SOL    HW217841   6.181   0.180   6.512  2.1026 -0.2993 -1.5211
 5648SOL     OW17842   3.681   1.339   2.926  0.2120 -0.2328 -0.6083
 5648SOL    HW117843   3.667   1.407   2.998 -1.9006 -2.2604  1.0874
 5648SOL    HW217844   3.594   1.294   2.906  1.3186 -1.7304 -2.3866
 5649SOL     OW17845   6.470   6.779   1.409 -0.9315  0.2248  0.2270
 5649SOL    HW117846   6.476   6.688   1.368  0.1229  0.5197 -0.3095
 5649SOL    HW217847   6.489   6.849   1.340 -3.9496  1.0139  0.0793
 5650SOL     OW17848   6.812   6.535   4.021 -0.3157 -0.4590  0.6189
 5650SOL    HW117849   6.784   6.454   3.968 -0.7742 -0.8712  1.4677
 5650SOL    HW217850   6.892   6.512   4.076  0.9546  0.3372 -0.8136
 5651SOL     OW17851   5.143   7.014   3.543  0.4530  0.3168  0.4620
 5651SOL    HW117852   5.144   6.994   3.445 -1.1353  1.5676  0.1443
 5651SOL    HW217853   5.237   7.014   3.578  1.1205  0.6276 -1.2189
 5652SOL     OW17854   4.096   1.350   0.659  0.6086 -0.7259 -0.3906
 5652SOL    HW117855   4.084   1.286   0.583  0.3955 -1.5217  0.3063
 5652SOL    HW217856   4.030   1.330   0.731 -1.0241  1.6975 -1.0708
 5653SOL     OW17857   2.237   6.984   5.315 -0.1009 -0.0532 -0.1406
 5653SOL    HW117858   2.195   7.034   5.240  0.9360 -0.3911 -0.9610
 5653SOL    HW217859   2.220   6.886   5.304 -1.0666 -0.0123  0.7943
 5654SOL     OW17860   4.018   3.164   3.676 -0.0545 -0.4996 -0.5452
 5654SOL    HW117861   3.965   3.099   3.730 -0.5104  0.1819 -0.1536
 5654SOL    HW217862   4.090   3.205   3.733  1.3786 -1.9211 -1.2488
 5655SOL     OW17863   0.950   2.933   5.335 -0.0454  0.7896  0.1117
 5655SOL    HW117864   0.889   3.009   5.360 -1.8265  0.1417 -1.9517
 5655SOL    HW217865   1.029   2.969   5.285 -0.5304  1.3504 -0.2626
 5656SOL     OW17866   4.329   5.596   0.139  0.1296  0.4007  0.3652
 5656SOL    HW117867   4.375   5.681   0.165 -4.2096  3.5093 -0.9416
 5656SOL    HW217868   4.249   5.582   0.198 -0.1316 -2.0077 -0.4541
 5657SOL     OW17869   6.550   5.160   1.667 -0.1887  0.0908 -0.0267
 5657SOL    HW117870   6.600   5.108   1.736  0.6531  1.0001  0.0727
 5657SOL    HW217871   6.473   5.208   1.711 -0.8529 -0.8861 -0.0883
 5658SOL     OW17872   5.927   6.038   0.950 -0.4158  0.6101 -0.1585
 5658SOL    HW117873   5.905   6.134   0.934 -0.8618  0.5529  0.0923
 5658SOL    HW217874   5.882   5.982   0.880  0.1657  0.6094 -0.5436
 5659SOL     OW17875   2.182   4.762   3.621 -0.1473  0.9547 -0.6803
 5659SOL    HW117876   2.168   4.716   3.709  1.0281 -0.7541 -1.3343
 5659SOL    HW217877   2.229   4.849   3.636 -2.2127  1.9223  0.5729
 5660SOL     OW17878   1.606   3.208   3.747 -0.0521  0.1070  0.2859
 5660SOL    HW117879   1.630   3.236   3.654  2.4844  0.9560  1.1268
 5660SOL    HW217880   1.513   3.240   3.768 -0.1280  1.1660 -1.4479
 5661SOL     OW17881   0.073   5.455   4.338 -0.3073 -0.3925 -0.1574
 5661SOL    HW117882   0.074   5.405   4.425  0.1472  0.3298  0.2544
 5661SOL    HW217883   0.132   5.535   4.344  1.5937 -1.5639 -1.8749
 5662SOL     OW17884   0.417   2.203   0.285  0.3676 -0.1884 -0.5444
 5662SOL    HW117885   0.381   2.162   0.369 -1.2517 -1.9065 -1.9915
 5662SOL    HW217886   0.442   2.298   0.303 -4.2321  1.0302  0.8770
 5663SOL     OW17887   0.524   5.374   5.143 -0.5178 -0.0923 -0.2152
 5663SOL    HW117888   0.567   5.461   5.118  0.0809 -0.2338  0.2873
 5663SOL    HW217889   0.444   5.358   5.085 -0.3538  0.5633 -0.6306
 5664SOL     OW17890   6.052   5.386   4.913  0.7455 -0.8574  0.1361
 5664SOL    HW117891   5.968   5.436   4.889  2.2736  1.5935 -0.4663
 5664SOL    HW217892   6.125   5.451   4.933  2.3742 -2.9143  1.3196
 5665SOL     OW17893   3.875   4.974   1.514  0.1959  0.4326 -0.2399
 5665SOL    HW117894   3.810   4.900   1.495 -0.5689  0.7326  1.1034
 5665SOL    HW217895   3.965   4.948   1.478 -0.4674 -0.3245 -1.4470
 5666SOL     OW17896   3.111   0.605   5.059 -0.3144  0.3821 -0.6672
 5666SOL    HW117897   3.137   0.627   4.965  0.1813 -0.5306 -0.7487
 5666SOL    HW217898   3.032   0.545   5.058 -0.0756  0.0660 -0.5082
 5667SOL     OW17899   0.882   5.326   5.020  0.2098  0.2944  0.5092
 5667SOL    HW117900   0.978   5.300   5.013  0.4966  1.2392  0.8855
 5667SOL    HW217901   0.835   5.262   5.081  0.3788 -0.7264 -0.3930
 5668SOL     OW17902   3.606   6.819   4.297 -0.4918 -0.3123 -0.2446
 5668SOL    HW117903   3.624   6.914   4.324  0.4155 -0.2386 -1.0296
 5668SOL    HW217904   3.608   6.813   4.197  0.4058 -1.3375 -0.1745
 5669SOL     OW17905   2.258   4.972   3.991 -0.7592 -0.0745  0.0231
 5669SOL    HW117906   2.259   4.977   3.891  0.0253 -1.4158 -0.0612
 5669SOL    HW217907   2.334   5.027   4.027 -0.4793 -0.3241 -0.1755
 5670SOL     OW17908   0.660   3.899   6.806 -0.3137  0.5834  0.3468
 5670SOL    HW117909   0.597   3.848   6.747  0.2973  0.3829 -0.1409
 5670SOL    HW217910   0.655   3.996   6.782 -0.8895  0.6511  0.7314
 5671SOL     OW17911   1.602   5.598   0.550  0.0658 -0.2846  0.2119
 5671SOL    HW117912   1.527   5.616   0.615 -1.4485  0.9848 -1.7483
 5671SOL    HW217913   1.685   5.643   0.582 -0.7527  0.6698  1.0690
 5672SOL     OW17914   4.790   4.735   6.818 -0.5218 -0.4489 -0.2455
 5672SOL    HW117915   4.786   4.778   6.728 -0.0118  0.2986  0.0786
 5672SOL    HW217916   4.778   4.636   6.808  1.0683 -0.5754 -1.3181
 5673SOL     OW17917   4.118   1.682   5.657  0.7851  0.3969  0.1931
 5673SOL    HW117918   4.196   1.622   5.673  0.8619  0.3068 -0.4892
 5673SOL    HW217919   4.146   1.777   5.672  0.8298  0.3147  0.6564
 5674SOL     OW17920   5.544   5.425   3.526 -0.3498  0.4961  0.0711
 5674SOL    HW117921   5.459   5.461   3.564  0.9263  1.7733  1.8860
 5674SOL    HW217922   5.619   5.440   3.591  1.2625 -0.6727 -1.4170
 5675SOL     OW17923   1.875   0.579   6.542 -0.7976  0.2567  0.7227
 5675SOL    HW117924   1.794   0.553   6.595 -0.7250 -0.3072  0.5674
 5675SOL    HW217925   1.847   0.627   6.459 -1.0867 -1.3185 -0.1370
 5676SOL     OW17926   5.480   2.440   5.194 -0.3483  0.2550 -0.5528
 5676SOL    HW117927   5.388   2.422   5.158  0.5529 -0.6184 -2.6106
 5676SOL    HW217928   5.500   2.376   5.268 -1.0665 -0.1644 -0.7128
 5677SOL     OW17929   5.753   2.558   3.596 -0.2500 -0.1345  0.0502
 5677SOL    HW117930   5.710   2.468   3.602  0.3279 -0.5124 -1.1628
 5677SOL    HW217931   5.845   2.554   3.634  0.3189 -0.4510 -1.2863
 5678SOL     OW17932   2.060   0.542   0.666 -0.0135 -0.0683  0.0738
 5678SOL    HW117933   2.031   0.450   0.693 -0.6766  0.1988  0.3007
 5678SOL    HW217934   2.073   0.546   0.567  2.4263 -1.0575  0.2973
 5679SOL     OW17935   6.565   3.085   6.400  0.2084 -0.2650  0.1035
 5679SOL    HW117936   6.467   3.076   6.382  0.1918 -0.0481  0.0803
 5679SOL    HW217937   6.599   3.166   6.353  0.4413 -0.4571 -0.0590
 5680SOL     OW17938   0.688   3.466   6.001  0.1333 -0.1694  0.4978
 5680SOL    HW117939   0.658   3.560   6.016  2.0958  0.7124 -0.5941
 5680SOL    HW217940   0.612   3.403   6.016 -2.4200  1.8687 -2.5909
 5681SOL     OW17941   2.606   5.295   2.363 -0.4401  0.0553 -0.5172
 5681SOL    HW117942   2.626   5.382   2.320 -0.7704 -0.0586 -0.9037
 5681SOL    HW217943   2.579   5.228   2.293 -2.1121  0.1824 -0.0350
 5682SOL     OW17944   0.423   5.821   3.186 -0.3236  0.0143  0.1333
 5682SOL    HW117945   0.445   5.891   3.118  0.2596 -0.8088 -0.5620
 5682SOL    HW217946   0.502   5.760   3.197 -1.1952 -1.2111 -0.1353
 5683SOL     OW17947   2.832   0.062   5.970  0.1278 -0.5217  0.5321
 5683SOL    HW117948   2.895  -0.016   5.973  0.2746 -0.4561 -0.5841
 5683SOL    HW217949   2.783   0.068   6.057  0.1960 -1.7992  0.6773
 5684SOL     OW17950   3.327   3.476   6.922  0.2189  0.1478 -0.1050
 5684SOL    HW117951   3.333   3.376   6.923  1.3893  0.1998  1.1228
 5684SOL    HW217952   3.234   3.504   6.901  0.0970 -1.1800 -1.5156
 5685SOL     OW17953   1.581   5.234   3.288 -0.3298  0.1758  0.5553
 5685SOL    HW117954   1.615   5.321   3.323  0.0325  1.0278 -1.7899
 5685SOL    HW217955   1.652   5.190   3.234 -0.8975 -1.0679  0.7832
 5686SOL     OW17956   3.731   5.608   0.689 -0.9098  0.2137  0.3390
 5686SOL    HW117957   3.756   5.531   0.748 -1.6487  0.3436  0.8401
 5686SOL    HW217958   3.814   5.649   0.651 -0.5430 -1.3882 -0.6939
 5687SOL     OW17959   3.023   0.876   3.537 -0.2048  0.4099  0.1530
 5687SOL    HW117960   2.962   0.839   3.607  0.0662  1.6624  1.0963
 5687SOL    HW217961   3.110   0.827   3.540 -1.1502 -1.4702 -1.2853
 5688SOL     OW17962   1.409   0.741   1.560 -0.4305  0.1960 -0.5757
 5688SOL    HW117963   1.339   0.669   1.560 -0.4597  0.1436  1.8434
 5688SOL    HW217964   1.465   0.733   1.478 -1.4040 -1.6080 -1.1140
 5689SOL     OW17965   1.327   5.781   6.645 -0.2403  0.0954  0.1926
 5689SOL    HW117966   1.409   5.830   6.676  0.9159 -2.2962  1.1340
 5689SOL    HW217967   1.292   5.724   6.719 -0.3360 -2.0094 -1.3744
 5690SOL     OW17968   0.503   3.476   3.676  0.2092 -0.5121 -0.4486
 5690SOL    HW117969   0.568   3.426   3.619 -0.8653 -1.3243 -0.9963
 5690SOL    HW217970   0.476   3.420   3.754  0.4160 -0.0398 -0.0268
 5691SOL     OW17971   4.240   4.010   0.256 -0.1729 -0.4453  0.2509
 5691SOL    HW117972   4.188   4.087   0.292 -2.0059 -1.1834 -0.6619
 5691SOL    HW217973   4.320   3.994   0.313  0.0202  1.8317  0.7106
 5692SOL     OW17974   0.447   4.902   2.198 -0.0295 -0.4646  0.7535
 5692SOL    HW117975   0.399   4.966   2.138  0.2200 -0.3028  0.7231
 5692SOL    HW217976   0.521   4.858   2.148 -0.1272 -0.6935  0.8076
 5693SOL     OW17977   3.687   0.338   0.654  0.6925 -0.6443  0.3985
 5693SOL    HW117978   3.632   0.422   0.654  1.4761 -0.0491  2.8458
 5693SOL    HW217979   3.676   0.291   0.566  0.4482  2.1506 -1.1985
 5694SOL     OW17980   0.735   2.644   6.635 -0.4633 -0.2100  0.3059
 5694SOL    HW117981   0.738   2.593   6.549  0.3635  0.6972 -0.2198
 5694SOL    HW217982   0.649   2.695   6.640 -0.1898  0.3362 -0.3558
 5695SOL     OW17983   3.646   0.012   3.818 -0.3813 -0.4158 -0.3213
 5695SOL    HW117984   3.711   0.022   3.742  0.2352  0.1282  0.2550
 5695SOL    HW217985   3.603   0.101   3.836 -1.6752 -0.8729 -1.0106
 5696SOL     OW17986   4.128   3.626   0.609  0.4239 -0.0148  0.2793
 5696SOL    HW117987   4.080   3.666   0.532 -0.2574 -0.1030  0.6514
 5696SOL    HW217988   4.212   3.581   0.577 -0.2862 -0.7873 -0.5237
 5697SOL     OW17989   5.017   2.922   2.057 -0.2847  0.4482 -0.1997
 5697SOL    HW117990   4.980   2.849   2.000 -0.2370  0.2078  0.0729
 5697SOL    HW217991   4.944   2.983   2.085 -0.4866 -0.0367  0.3535
 5698SOL     OW17992   3.815   6.253   6.387 -0.0501 -0.8676  0.1087
 5698SOL    HW117993   3.778   6.318   6.320 -0.5616 -0.4170  0.8200
 5698SOL    HW217994   3.915   6.258   6.387 -0.0668 -0.4613 -0.2134
 5699SOL     OW17995   4.487   0.667   0.437  0.1736 -0.6579 -0.4043
 5699SOL    HW117996   4.584   0.658   0.414  0.7302 -0.1543  1.5025
 5699SOL    HW217997   4.439   0.712   0.362  1.6461  0.0643 -0.9643
 5700SOL     OW17998   5.314   4.883   5.526 -0.1872  0.0369  0.2113
 5700SOL    HW117999   5.244   4.814   5.506 -1.4550  0.4609  2.7667
 5700SOL    HW218000   5.330   4.886   5.624  1.2142  2.1354 -0.0261
 5701SOL     OW18001   0.691   0.166   4.824  0.4437  0.1990  0.1573
 5701SOL    HW118002   0.713   0.123   4.912  0.9759 -0.1618 -0.1520
 5701SOL    HW218003   0.741   0.121   4.751 -1.6677 -0.9885 -0.6448
 5702SOL     OW18004   6.361   0.589   1.368  0.2937  0.6277 -0.0352
 5702SOL    HW118005   6.344   0.682   1.335 -0.3339  0.5629  0.0937
 5702SOL    HW218006   6.431   0.592   1.440 -0.1242  1.0797  0.3714
 5703SOL     OW18007   5.615   2.999   1.805 -0.0761 -0.5724 -0.5216
 5703SOL    HW118008   5.554   3.047   1.742  0.5147  0.0616 -0.6217
 5703SOL    HW218009   5.588   3.020   1.899  0.0868 -0.1618 -0.5648
 5704SOL     OW18010   4.868   5.709   0.795 -0.4270  0.2937  0.2416
 5704SOL    HW118011   4.893   5.777   0.864  1.8540 -0.3942  0.1810
 5704SOL    HW218012   4.791   5.743   0.742 -1.1539  1.5762  2.0138
 5705SOL     OW18013   2.393   2.460   1.775 -0.0436 -0.6174  0.3981
 5705SOL    HW118014   2.416   2.473   1.679  1.1074 -1.4904  0.5413
 5705SOL    HW218015   2.293   2.455   1.785 -0.3201  1.7283 -0.4373
 5706SOL     OW18016   6.496   1.292   4.642 -1.2935  0.3035  0.3350
 5706SOL    HW118017   6.528   1.368   4.587 -2.2330  2.7538  2.9341
 5706SOL    HW218018   6.558   1.278   4.719 -2.2404 -0.1648  1.0319
 5707SOL     OW18019   6.175   3.522   3.407 -0.0244 -1.0178 -0.1367
 5707SOL    HW118020   6.148   3.489   3.497  0.1008  2.4842  1.3344
 5707SOL    HW218021   6.094   3.542   3.352 -0.2161 -0.0028  0.4949
 5708SOL     OW18022   1.699   5.966   2.208 -0.5048  0.3691  0.0163
 5708SOL    HW118023   1.607   6.001   2.191 -0.7255 -0.3212 -0.2423
 5708SOL    HW218024   1.696   5.867   2.219  0.3923  0.1321 -1.5302
 5709SOL     OW18025   3.898   2.132   3.566  0.0274  0.2923 -0.2498
 5709SOL    HW118026   3.801   2.107   3.570  0.6616 -2.4467 -0.4029
 5709SOL    HW218027   3.922   2.157   3.472 -0.6566  1.7248 -0.0698
 5710SOL     OW18028   2.351   1.147   5.741  0.2496  0.1571  0.0174
 5710SOL    HW118029   2.327   1.232   5.694 -1.8067 -1.1572 -1.4725
 5710SOL    HW218030   2.415   1.095   5.685  0.4759  0.1188  0.3083
 5711SOL     OW18031   6.564   1.368   1.781  0.2969 -0.5661 -0.3363
 5711SOL    HW118032   6.563   1.272   1.810 -0.5746 -0.3155  0.5135
 5711SOL    HW218033   6.588   1.425   1.859  0.5476 -0.0669 -0.7757
 5712SOL     OW18034   5.917   5.260   0.084 -0.1252 -1.0045 -0.7535
 5712SOL    HW118035   5.949   5.341   0.035  0.6258 -2.0700 -2.0905
 5712SOL    HW218036   5.977   5.244   0.163 -2.1838  1.5488  1.5320
 5713SOL     OW18037   6.798   3.811   6.735 -0.0896 -0.8210 -0.2062
 5713SOL    HW118038   6.845   3.735   6.780 -1.2302 -1.8417 -0.6758
 5713SOL    HW218039   6.847   3.836   6.651  0.1151 -1.2790 -0.2248
 5714SOL     OW18040   2.832   5.883   6.165  0.5768 -0.1980 -0.5359
 5714SOL    HW118041   2.762   5.863   6.233  0.1222 -1.2036 -1.2732
 5714SOL    HW218042   2.922   5.863   6.203  0.4526  0.6434  0.2507
 5715SOL     OW18043   5.247   1.967   1.047 -0.7330  0.4311 -0.6512
 5715SOL    HW118044   5.240   2.046   1.107 -1.2989  0.6650 -1.0172
 5715SOL    HW218045   5.226   1.884   1.098  3.3982  0.0147  0.7277
 5716SOL     OW18046   4.151   1.008   1.335  0.1871 -0.5389 -0.8747
 5716SOL    HW118047   4.074   1.069   1.349 -0.2259 -0.9873 -1.1828
 5716SOL    HW218048   4.123   0.913   1.352  0.4762 -0.7765 -1.6839
 5717SOL     OW18049   6.840   6.654   3.442  0.5905 -0.4033  0.1729
 5717SOL    HW118050   6.916   6.649   3.507  0.7142  0.8308  0.1351
 5717SOL    HW218051   6.756   6.678   3.490  0.4490 -0.6246  0.0401
 5718SOL     OW18052   2.936   2.661   5.312  0.2991  0.1002 -0.2826
 5718SOL    HW118053   2.888   2.732   5.363  2.2602 -0.0395  1.9236
 5718SOL    HW218054   3.028   2.692   5.291  1.4017 -1.8889  1.2333
 5719SOL     OW18055   4.483   0.916   3.277 -0.0724  0.5882 -0.1205
 5719SOL    HW118056   4.432   0.882   3.357  0.0466 -0.4618 -0.4770
 5719SOL    HW218057   4.421   0.926   3.200  0.2588 -0.8620 -0.6064
 5720SOL     OW18058   5.102   5.840   2.721 -0.1400  0.0324 -0.0644
 5720SOL    HW118059   5.044   5.886   2.789 -0.1188  2.0814 -1.3691
 5720SOL    HW218060   5.069   5.862   2.629  0.1305 -2.2994 -0.7825
 5721SOL     OW18061   2.962   4.574   1.443  0.0854  0.6311  0.2620
 5721SOL    HW118062   2.889   4.626   1.487  0.1471 -0.1219  1.3012
 5721SOL    HW218063   2.921   4.501   1.387  0.0269  0.6184  0.3210
 5722SOL     OW18064   4.969   1.171   6.826  0.1063 -0.3840 -0.3905
 5722SOL    HW118065   4.970   1.267   6.799 -1.5838 -0.3378 -0.3347
 5722SOL    HW218066   4.980   1.164   6.925  1.6742 -0.3494 -0.5285
 5723SOL     OW18067   4.904   6.821   4.126  0.0217 -0.0480  0.3475
 5723SOL    HW118068   4.859   6.902   4.163  0.2716  1.4102 -2.2616
 5723SOL    HW218069   4.963   6.780   4.196 -2.9117 -0.2532  2.8904
 5724SOL     OW18070   1.609   6.836   5.830 -0.3607 -0.6419  0.2160
 5724SOL    HW118071   1.582   6.807   5.922  0.0855  0.7489  0.8189
 5724SOL    HW218072   1.535   6.818   5.766 -1.5841  0.3797  1.2773
 5725SOL     OW18073   1.776   2.158   1.235 -0.1983  0.0050 -0.3038
 5725SOL    HW118074   1.763   2.119   1.144  1.0137 -0.9178 -0.1082
 5725SOL    HW218075   1.687   2.176   1.277 -0.7879  1.7595 -2.1880
 5726SOL     OW18076   4.300   4.973   2.490  0.6848  0.3167 -0.3343
 5726SOL    HW118077   4.337   5.045   2.431  1.4024  0.4574  0.2631
 5726SOL    HW218078   4.225   4.927   2.444  0.0524  1.6035 -0.6444
 5727SOL     OW18079   4.836   6.342   1.047  0.2052 -0.1421  0.2750
 5727SOL    HW118080   4.757   6.383   1.002  0.1613 -0.7598 -0.2153
 5727SOL    HW218081   4.839   6.372   1.143  1.1650  2.4783 -0.4664
 5728SOL     OW18082   2.857   0.116   3.865  0.1719  0.2952 -0.0730
 5728SOL    HW118083   2.856   0.177   3.786  0.1485 -0.9754 -1.0808
 5728SOL    HW218084   2.942   0.064   3.867 -0.8949 -1.6004 -0.8194
 5729SOL     OW18085   6.524   5.596   1.132  0.1678  0.0627 -0.3369
 5729SOL    HW118086   6.567   5.543   1.059  0.8736 -1.4019  1.0785
 5729SOL    HW218087   6.586   5.670   1.160  0.5302 -0.2606 -0.2673
 5730SOL     OW18088   6.684   2.660   5.987  0.6966  0.6537 -0.2574
 5730SOL    HW118089   6.711   2.671   5.891 -1.2724  0.4943 -0.8670
 5730SOL    HW218090   6.636   2.573   5.999 -2.6790  2.3675 -0.0903
 5731SOL     OW18091   5.592   1.882   5.670 -0.5406  0.0080  0.0580
 5731SOL    HW118092   5.538   1.800   5.653 -1.7857  0.3778  1.9010
 5731SOL    HW218093   5.667   1.887   5.604 -1.2952 -1.8180 -1.0168
 5732SOL     OW18094   3.924   4.960   2.785 -0.3371 -0.4815  0.0669
 5732SOL    HW118095   3.876   5.039   2.824 -2.1125 -2.3988  2.1281
 5732SOL    HW218096   4.022   4.971   2.798 -0.6551  0.5418  2.1704
 5733SOL     OW18097   2.362   6.358   4.873 -0.0049  0.5433 -0.5277
 5733SOL    HW118098   2.284   6.420   4.877 -0.4333  0.0455 -0.9520
 5733SOL    HW218099   2.427   6.381   4.946 -0.8803  0.5390  0.2835
 5734SOL     OW18100   2.969   6.716   6.107  0.3631 -0.6387  0.1383
 5734SOL    HW118101   3.056   6.672   6.131 -0.4254 -3.0776 -1.1530
 5734SOL    HW218102   2.920   6.659   6.041 -1.3806  1.6175 -0.6430
 5735SOL     OW18103   2.519   5.805   3.904 -0.0416 -0.1696  0.1964
 5735SOL    HW118104   2.426   5.796   3.937 -0.1967 -2.5434 -0.7025
 5735SOL    HW218105   2.541   5.902   3.892 -2.3019  0.4478  0.6054
 5736SOL     OW18106   1.849   5.810   0.728  0.5097 -0.1540  0.2159
 5736SOL    HW118107   1.844   5.810   0.629  0.7394  1.7449  0.1725
 5736SOL    HW218108   1.867   5.716   0.761 -0.3158 -0.9303 -1.4518
 5737SOL     OW18109   1.337   4.534   5.252 -0.0765  0.3287  0.6265
 5737SOL    HW118110   1.277   4.613   5.238  2.6783  2.4283 -0.2325
 5737SOL    HW218111   1.373   4.503   5.165  1.8703  0.6472  1.2788
 5738SOL     OW18112   5.204   6.848   4.502 -0.3392  0.1691  0.2445
 5738SOL    HW118113   5.225   6.766   4.556  1.6582 -0.4368 -1.3287
 5738SOL    HW218114   5.121   6.890   4.538 -1.7915 -2.8428  0.7687
 5739SOL     OW18115   0.372   6.989   2.856 -0.3402 -0.6006  0.2806
 5739SOL    HW118116   0.305   7.062   2.846 -0.1592 -0.3679  0.7435
 5739SOL    HW218117   0.348   6.913   2.795  1.6782  1.4017 -3.3855
 5740SOL     OW18118   6.894   1.649   0.125 -0.4091  0.0623  0.1050
 5740SOL    HW118119   6.809   1.602   0.150 -0.3421  0.0903  0.3806
 5740SOL    HW218120   6.970   1.583   0.126 -0.2763  0.2211  0.7112
 5741SOL     OW18121   3.979   6.048   6.219  0.0249  0.4418 -0.4132
 5741SOL    HW118122   3.882   6.063   6.241  0.3889 -0.2117  1.9072
 5741SOL    HW218123   4.028   6.023   6.302  2.1395  0.3717 -1.6226
 5742SOL     OW18124   2.836   0.574   6.115  0.2764  0.0686 -0.2896
 5742SOL    HW118125   2.836   0.624   6.028  3.1194  2.2448  0.7876
 5742SOL    HW218126   2.897   0.495   6.108  0.8741  0.5136 -0.1630
 5743SOL     OW18127   6.061   1.853   1.691 -0.5037 -0.5866 -0.0241
 5743SOL    HW118128   5.983   1.868   1.752 -1.7254 -2.5965 -0.9916
 5743SOL    HW218129   6.030   1.808   1.607  1.5330 -0.3021 -0.9950
 5744SOL     OW18130   3.382   4.414   0.215  0.1211  0.0134  0.5631
 5744SOL    HW118131   3.296   4.363   0.219 -0.6999  1.3879  1.6660
 5744SOL    HW218132   3.419   4.425   0.308  0.4630  1.0619  0.3233
 5745SOL     OW18133   3.270   3.157   1.806  0.3135  0.4239  0.1966
 5745SOL    HW118134   3.340   3.123   1.744 -1.1989 -0.9162 -0.8359
 5745SOL    HW218135   3.278   3.257   1.815  2.6525  0.2579  0.5541
 5746SOL     OW18136   6.318   2.385   2.208 -0.0156  0.1774 -0.1580
 5746SOL    HW118137   6.406   2.338   2.210  0.2329  0.6533  0.6216
 5746SOL    HW218138   6.250   2.329   2.255 -0.0663 -0.0600 -0.5102
 5747SOL     OW18139   1.320   4.457   0.363  0.2357  0.0006 -0.0900
 5747SOL    HW118140   1.260   4.400   0.306  0.8604 -0.1489 -0.6119
 5747SOL    HW218141   1.289   4.552   0.359  0.0875 -0.0603 -0.4223
 5748SOL     OW18142   4.328   0.154   2.885  0.4858 -0.6626  0.2523
 5748SOL    HW118143   4.352   0.250   2.873 -1.3835 -0.3604 -1.7018
 5748SOL    HW218144   4.278   0.143   2.971 -0.4188  0.3758 -0.1260
 5749SOL     OW18145   4.420   5.142   2.338 -0.6508 -0.0128  0.2451
 5749SOL    HW118146   4.378   5.174   2.252 -0.1805 -1.0715 -0.4035
 5749SOL    HW218147   4.495   5.080   2.316 -1.2408 -1.1748  1.4429
 5750SOL     OW18148   2.686   3.948   0.537  0.5072 -0.3868 -0.1440
 5750SOL    HW118149   2.728   4.006   0.606  0.5973  1.3958 -1.6337
 5750SOL    HW218150   2.731   3.961   0.449 -2.7286  1.2730 -1.7401
 5751SOL     OW18151   3.726   2.327   5.838 -0.2878  0.0985  0.5038
 5751SOL    HW118152   3.673   2.375   5.768  0.1951  0.1371  0.1662
 5751SOL    HW218153   3.679   2.335   5.926 -2.4804 -2.4308 -0.3058
 5752SOL     OW18154   4.877   4.914   4.413 -0.2243 -0.6180 -0.1616
 5752SOL    HW118155   4.866   4.912   4.513  1.1359  0.1607  0.0264
 5752SOL    HW218156   4.833   4.996   4.377  0.3321 -0.2644 -0.0472
 5753SOL     OW18157   4.197   4.147   1.659 -0.3618  0.4428 -0.0156
 5753SOL    HW118158   4.118   4.163   1.717  0.4339 -0.0345  1.2322
 5753SOL    HW218159   4.280   4.177   1.706  0.2134  0.9410 -1.2992
 5754SOL     OW18160   0.659   5.664   5.687  0.6897  0.4910 -0.2378
 5754SOL    HW118161   0.754   5.642   5.667  0.3473  0.7655 -2.3562
 5754SOL    HW218162   0.599   5.601   5.638 -0.2357  0.5306  0.8081
 5755SOL     OW18163   6.185   3.050   1.246 -0.0690 -0.2545  0.0190
 5755SOL    HW118164   6.160   3.126   1.306  0.2020 -0.8977  0.9874
 5755SOL    HW218165   6.217   2.973   1.302 -1.1248 -1.3842 -0.8704
 5756SOL     OW18166   2.665   6.062   1.371 -0.1919 -0.2874 -0.5720
 5756SOL    HW118167   2.722   6.073   1.290 -0.8528 -0.1673 -1.0336
 5756SOL    HW218168   2.647   6.152   1.412  0.4168 -0.3802 -0.0942
 5757SOL     OW18169   6.878   5.587   0.308  0.2798  0.4662 -0.2076
 5757SOL    HW118170   6.827   5.504   0.329  0.5604  0.2294 -0.4487
 5757SOL    HW218171   6.922   5.621   0.391  1.8477 -0.7786 -0.4575
 5758SOL     OW18172   6.468   6.282   1.361 -0.1576 -0.2945  0.6316
 5758SOL    HW118173   6.386   6.299   1.415  0.0870 -0.2040  0.9751
 5758SOL    HW218174   6.454   6.201   1.304 -0.1449 -0.8331  1.3809
 5759SOL     OW18175   0.123   3.826   2.839 -0.1109  0.1937 -0.2309
 5759SOL    HW118176   0.060   3.840   2.763  0.5278 -1.3804 -1.1074
 5759SOL    HW218177   0.086   3.755   2.900 -0.0051  0.5140  0.2114
 5760SOL     OW18178   1.259   1.314   4.194 -0.2938 -0.1271  0.1150
 5760SOL    HW118179   1.230   1.409   4.187  2.6996  0.9697  0.9429
 5760SOL    HW218180   1.255   1.285   4.290  1.1007  0.0213  0.2345
 5761SOL     OW18181   6.503   0.684   4.995 -0.2669  0.0279 -0.0359
 5761SOL    HW118182   6.519   0.611   5.062  1.7003  1.3991  1.0745
 5761SOL    HW218183   6.450   0.757   5.037  0.1580  0.4753 -0.2669
 5762SOL     OW18184   6.924   2.684   2.092  0.0687  0.0292  0.5729
 5762SOL    HW118185   6.887   2.732   2.012  1.8840  2.1654  0.9229
 5762SOL    HW218186   6.938   2.749   2.166  1.9175 -1.1696  1.3505
 5763SOL     OW18187   2.352   5.538   3.657  0.2443  0.3642 -0.1291
 5763SOL    HW118188   2.395   5.473   3.721  1.6539  0.4609 -0.9480
 5763SOL    HW218189   2.421   5.601   3.622 -0.3946  0.0374 -2.0990
 5764SOL     OW18190   2.331   3.670   5.757 -0.1635 -0.0747 -0.6382
 5764SOL    HW118191   2.366   3.577   5.768 -2.9492 -1.2538 -0.9494
 5764SOL    HW218192   2.322   3.691   5.659 -0.7657  0.0097 -0.5687
 5765SOL     OW18193   2.196   1.170   3.871  0.5702 -0.5515 -0.3663
 5765SOL    HW118194   2.105   1.175   3.831  1.1172  0.8236 -1.5061
 5765SOL    HW218195   2.231   1.262   3.886  2.3921 -1.0317 -1.3786
 5766SOL     OW18196   1.631   2.539   1.785 -0.5461 -0.1186  0.3065
 5766SOL    HW118197   1.652   2.463   1.724  2.4873 -1.1592  2.4699
 5766SOL    HW218198   1.702   2.609   1.778 -0.5663  0.1168  2.0520
 5767SOL     OW18199   6.744   5.487   6.988  0.0494 -0.0992 -0.1983
 5767SOL    HW118200   6.834   5.444   6.991 -0.2015 -0.6218 -0.0563
 5767SOL    HW218201   6.673   5.418   7.002 -0.5004 -0.0689 -2.4939
 5768SOL     OW18202   3.462   6.120   0.328 -0.4829  0.4801 -0.1719
 5768SOL    HW118203   3.478   6.097   0.232 -0.3841 -1.3977  0.2563
 5768SOL    HW218204   3.380   6.073   0.361 -0.0688  0.4475  0.8757
 5769SOL     OW18205   6.018   6.355   4.680  0.2705 -0.3536  0.1330
 5769SOL    HW118206   6.065   6.279   4.726 -1.8764 -0.4621  2.3925
 5769SOL    HW218207   6.021   6.436   4.739 -1.3959 -0.0686 -0.1213
 5770SOL     OW18208   1.030   2.327   3.433  0.3289  0.1339  0.7974
 5770SOL    HW118209   0.948   2.279   3.465  0.5825 -0.5141  0.4985
 5770SOL    HW218210   1.048   2.406   3.492  0.1198 -0.3682  1.5439
 5771SOL     OW18211   6.926   6.460   3.277 -0.1451  0.6066 -0.0848
 5771SOL    HW118212   6.859   6.386   3.275  0.8832 -0.4193  1.2865
 5771SOL    HW218213   6.886   6.540   3.322  0.1331 -0.6766  2.6065
 5772SOL     OW18214   0.555   5.013   1.394 -0.5430  0.0809  0.2014
 5772SOL    HW118215   0.475   4.960   1.422 -0.9597  0.1474 -0.8463
 5772SOL    HW218216   0.532   5.110   1.393 -0.0466  0.2278  1.2052
 5773SOL     OW18217   1.919   4.859   6.552  0.0284 -0.1547 -0.0207
 5773SOL    HW118218   1.896   4.801   6.475  0.8128 -1.1919  0.4942
 5773SOL    HW218219   1.900   4.955   6.529  0.9564 -0.3510 -1.7793
 5774SOL     OW18220   1.592   4.576   0.222 -0.0579  0.4041 -0.0300
 5774SOL    HW118221   1.685   4.598   0.191 -0.5328  0.9725 -1.0887
 5774SOL    HW218222   1.596   4.502   0.289  1.0522 -0.4015 -0.9604
 5775SOL     OW18223   1.354   5.267   6.933  0.7337 -0.2850  0.8899
 5775SOL    HW118224   1.412   5.349   6.941  1.6429 -0.9636  1.4067
 5775SOL    HW218225   1.258   5.293   6.944  0.9774  0.7757  0.6218
 5776SOL     OW18226   5.864   4.207   1.682 -0.3566 -0.0418 -0.2330
 5776SOL    HW118227   5.917   4.179   1.601 -1.6300  0.2855 -1.2129
 5776SOL    HW218228   5.780   4.253   1.652  0.1317  1.9905  1.2839
 5777SOL     OW18229   1.298   4.472   5.525  0.6399 -0.2316  0.5505
 5777SOL    HW118230   1.352   4.549   5.558  0.0378  0.1169  0.7305
 5777SOL    HW218231   1.309   4.464   5.426  2.7921 -1.5470  0.8264
 5778SOL     OW18232   4.035   2.387   1.041  0.4931  0.1431  0.0605
 5778SOL    HW118233   4.082   2.446   0.975  0.5650  0.7378  0.6317
 5778SOL    HW218234   3.939   2.378   1.015  0.3681  0.9180  0.2424
 5779SOL     OW18235   4.502   5.920   2.292 -0.2670  0.7111 -0.1526
 5779SOL    HW118236   4.449   5.955   2.368  1.2313  1.5227  0.5551
 5779SOL    HW218237   4.551   5.838   2.321  0.4888  1.1546 -0.1653
 5780SOL     OW18238   1.615   1.134   4.142  0.1249  0.2579 -0.3476
 5780SOL    HW118239   1.616   1.161   4.239 -1.2645  0.6582 -0.4332
 5780SOL    HW218240   1.576   1.207   4.087  1.0584  0.0961 -1.2537
 5781SOL     OW18241   5.754   0.859   3.621  0.0836  0.0821 -0.1802
 5781SOL    HW118242   5.657   0.842   3.600 -0.3883  0.0310  1.8399
 5781SOL    HW218243   5.811   0.797   3.567 -1.1356 -1.5201  0.3106
 5782SOL     OW18244   2.158   4.124   1.849 -0.0351  0.3971  0.0125
 5782SOL    HW118245   2.223   4.172   1.908 -1.4851  2.6482 -0.0955
 5782SOL    HW218246   2.208   4.075   1.777  1.6811 -1.1493  2.1129
 5783SOL     OW18247   0.592   4.568   5.785  0.1034 -0.4098 -0.1314
 5783SOL    HW118248   0.571   4.491   5.725 -1.3541 -0.5116  0.4613
 5783SOL    HW218249   0.530   4.644   5.764 -0.0460 -0.2474  0.8393
 5784SOL     OW18250   3.154   0.067   3.921 -0.4444 -0.3138  0.3587
 5784SOL    HW118251   3.185   0.113   3.838 -1.6665  0.3069  0.2260
 5784SOL    HW218252   3.158  -0.032   3.908  1.9153 -0.3117  0.5410
 5785SOL     OW18253   5.758   5.523   0.431 -0.5369  0.5880  0.2917
 5785SOL    HW118254   5.694   5.463   0.382  1.5687 -0.3406 -1.5109
 5785SOL    HW218255   5.726   5.617   0.425 -0.7801  0.4227 -2.3785
 5786SOL     OW18256   4.116   1.505   0.099 -0.0091  0.1588 -0.0716
 5786SOL    HW118257   4.209   1.526   0.070  0.3154 -0.2126  0.6960
 5786SOL    HW218258   4.105   1.529   0.195 -0.3553 -0.9005  0.1608
 5787SOL     OW18259   0.211   2.539   5.762  0.5915 -0.1299 -0.8625
 5787SOL    HW118260   0.125   2.572   5.801  0.2629  1.3669 -2.6714
 5787SOL    HW218261   0.244   2.461   5.815  0.6399  2.1697  2.8522
 5788SOL     OW18262   0.223   1.970   3.783  0.3386  0.5395 -0.0335
 5788SOL    HW118263   0.278   2.016   3.853  1.0077 -2.1921  1.3629
 5788SOL    HW218264   0.282   1.939   3.709  0.1547  0.4405 -0.1405
 5789SOL     OW18265   3.973   3.327   4.276  0.0860  0.2300  0.0149
 5789SOL    HW118266   3.886   3.286   4.301  0.0580  0.7863  0.8498
 5789SOL    HW218267   4.015   3.274   4.202  0.0270 -1.2472  1.0201
 5790SOL     OW18268   1.384   0.179   5.295  0.0099 -0.0387  0.0011
 5790SOL    HW118269   1.320   0.234   5.242  0.5951 -0.4140 -1.1435
 5790SOL    HW218270   1.468   0.166   5.241  0.3637 -0.9916  0.7671
 5791SOL     OW18271   3.846   1.227   6.472  0.3317 -0.8716 -0.2107
 5791SOL    HW118272   3.800   1.304   6.516  0.8471 -1.1976  0.9358
 5791SOL    HW218273   3.828   1.143   6.523  1.2588 -1.1997 -0.4030
 5792SOL     OW18274   2.266   0.325   1.565 -0.2191 -0.1081 -0.7677
 5792SOL    HW118275   2.219   0.307   1.479 -1.2565  1.0862 -0.4836
 5792SOL    HW218276   2.215   0.284   1.641 -0.3821  0.4992 -0.5393
 5793SOL     OW18277   0.992   6.809   3.678  0.1257  0.4415 -0.3104
 5793SOL    HW118278   1.083   6.766   3.674  0.4698  1.1406 -0.2618
 5793SOL    HW218279   0.955   6.799   3.771  0.5531  0.9375 -0.0806
 5794SOL     OW18280   6.886   0.129   5.662 -0.4270  0.0966 -0.3618
 5794SOL    HW118281   6.982   0.106   5.677 -0.3111 -0.3088 -1.6395
 5794SOL    HW218282   6.831   0.046   5.665 -0.7158  0.3002  0.1322
 5795SOL     OW18283   4.993   2.307   4.224 -0.1099 -0.1430  0.0146
 5795SOL    HW118284   4.973   2.258   4.140 -1.4941  2.1782 -1.1034
 5795SOL    HW218285   5.048   2.388   4.204  0.4064 -0.0765  1.5054
 5796SOL     OW18286   5.641   3.304   0.656  0.1168 -0.0772  0.5660
 5796SOL    HW118287   5.738   3.318   0.676  0.2552  0.1969 -0.2710
 5796SOL    HW218288   5.592   3.391   0.660  0.2131  0.0372 -0.6171
 5797SOL     OW18289   4.970   6.009   5.377  0.0789  0.4218 -0.2156
 5797SOL    HW118290   4.995   5.925   5.423  1.0116  1.9788  2.3183
 5797SOL    HW218291   4.882   6.042   5.411  0.6270  1.4396  0.2655
 5798SOL     OW18292   2.644   1.597   0.754 -0.4932  0.1695 -0.2519
 5798SOL    HW118293   2.724   1.545   0.724  0.2438  0.8626  0.4652
 5798SOL    HW218294   2.568   1.580   0.691 -0.1102 -1.3160 -0.3530
 5799SOL     OW18295   3.761   2.141   4.651 -0.8256  0.0484  0.0149
 5799SOL    HW118296   3.721   2.231   4.630 -2.3649 -0.2535  1.4495
 5799SOL    HW218297   3.855   2.138   4.618  0.2307  3.1822  2.2742
 5800SOL     OW18298   5.334   2.824   6.175  0.1364 -0.2528 -0.1898
 5800SOL    HW118299   5.396   2.883   6.228  1.0406 -0.5525 -0.8866
 5800SOL    HW218300   5.322   2.737   6.223  1.3715 -0.7286 -0.6925
 5801SOL     OW18301   6.796   1.657   5.708 -0.3147  0.4047  0.4373
 5801SOL    HW118302   6.761   1.697   5.624 -0.5728 -0.9660 -0.1265
 5801SOL    HW218303   6.719   1.638   5.770 -0.0156  2.9503  1.7466
 5802SOL     OW18304   4.966   7.000   0.876 -0.1631  0.0930 -0.0079
 5802SOL    HW118305   4.970   6.901   0.886  0.2842  0.2148  1.1480
 5802SOL    HW218306   5.029   7.029   0.804  2.5676 -0.1683  2.1217
 5803SOL     OW18307   4.961   2.730   0.005  0.2389  0.1965 -0.3279
 5803SOL    HW118308   5.023   2.784   0.061 -1.5470  1.0193  0.9452
 5803SOL    HW218309   4.922   2.656   0.060 -1.5216  1.0015 -0.4385
 5804SOL     OW18310   1.737   1.840   1.279 -0.0043  0.4522 -0.2848
 5804SOL    HW118311   1.755   1.938   1.288  0.7603  0.2056  1.2912
 5804SOL    HW218312   1.792   1.790   1.347  0.5301 -1.1697 -1.8323
 5805SOL     OW18313   6.285   3.887   5.311 -0.5624 -0.0486 -0.6692
 5805SOL    HW118314   6.334   3.965   5.349 -2.1475  1.2116 -1.1153
 5805SOL    HW218315   6.306   3.877   5.214  2.3640 -2.3929  0.0692
 5806SOL     OW18316   2.308   4.308   4.020 -0.1765 -0.5480 -0.6867
 5806SOL    HW118317   2.265   4.327   4.108 -0.6927 -2.1731 -0.5533
 5806SOL    HW218318   2.265   4.227   3.979  2.8510 -2.4200 -0.4574
 5807SOL     OW18319   1.799   4.692   6.365  0.6305 -0.1438  0.3087
 5807SOL    HW118320   1.750   4.631   6.428  1.2078 -0.4922  0.4345
 5807SOL    HW218321   1.733   4.750   6.317  0.1213 -0.3952  0.6834
 5808SOL     OW18322   1.955   5.418   4.965 -0.4229 -0.2695 -0.2266
 5808SOL    HW118323   1.900   5.466   5.034  0.8481 -1.1733  1.5094
 5808SOL    HW218324   1.953   5.320   4.983  1.9114 -0.3240  0.1059
 5809SOL     OW18325   6.369   4.600   2.516  0.3650  0.3221  0.3179
 5809SOL    HW118326   6.365   4.549   2.602 -0.1429 -0.5778 -0.2251
 5809SOL    HW218327   6.287   4.656   2.507 -0.1785 -0.5141 -0.1236
 5810SOL     OW18328   4.426   0.922   2.798 -0.2917  0.4204  0.1416
 5810SOL    HW118329   4.470   0.832   2.795  0.8088  0.9570 -0.3149
 5810SOL    HW218330   4.338   0.917   2.750  0.3251 -0.1189 -0.9800
 5811SOL     OW18331   6.149   6.849   6.701  0.5756  0.0821 -0.4161
 5811SOL    HW118332   6.231   6.808   6.740 -0.3570 -2.2822 -0.7701
 5811SOL    HW218333   6.075   6.844   6.768 -0.0403 -0.5040 -1.1278
 5812SOL     OW18334   2.000   6.782   1.215 -0.4352  0.7129 -0.0405
 5812SOL    HW118335   1.954   6.869   1.197 -2.3242 -0.0769  0.7777
 5812SOL    HW218336   1.932   6.710   1.228  1.0929 -0.9658 -0.9316
 5813SOL     OW18337   1.018   6.325   5.666 -0.2381 -0.2402  0.0413
 5813SOL    HW118338   1.076   6.268   5.608 -0.1780 -0.8632  0.6892
 5813SOL    HW218339   1.002   6.278   5.753 -1.7041 -0.0786 -0.1118
 5814SOL     OW18340   1.635   0.181   5.782 -0.5011 -0.4492  0.0615
 5814SOL    HW118341   1.551   0.167   5.833 -1.0632  0.6391 -0.5409
 5814SOL    HW218342   1.627   0.137   5.692 -1.4264  1.7059 -0.9752
 5815SOL     OW18343   5.617   3.372   0.211  0.3181 -0.3729  0.5086
 5815SOL    HW118344   5.630   3.445   0.145  3.1557  0.0847  1.4256
 5815SOL    HW218345   5.629   3.283   0.166 -1.0999 -0.2242 -0.2004
 5816SOL     OW18346   5.582   2.830   3.200  0.6957  0.1900 -1.2372
 5816SOL    HW118347   5.634   2.818   3.116  0.7238 -2.5184 -0.9481
 5816SOL    HW218348   5.597   2.750   3.260  0.2428  1.7437  1.0985
 5817SOL     OW18349   1.624   5.588   2.647  0.4311 -0.5305  0.1382
 5817SOL    HW118350   1.682   5.557   2.722  2.2913  1.1362 -0.5132
 5817SOL    HW218351   1.552   5.521   2.630  1.7291 -2.3593  1.4767
 5818SOL     OW18352   1.743   1.783   4.682  0.1982 -0.1516 -0.4707
 5818SOL    HW118353   1.683   1.720   4.731 -1.4208 -0.4620 -2.7015
 5818SOL    HW218354   1.741   1.872   4.726 -0.3207 -0.7083  0.6576
 5819SOL     OW18355   1.568   4.919   0.560  0.4681  0.0679 -0.1436
 5819SOL    HW118356   1.500   4.988   0.587  0.1693 -0.3873  0.3074
 5819SOL    HW218357   1.529   4.860   0.489  0.8855  0.6362 -0.8489
 5820SOL     OW18358   2.837   3.941   6.141 -0.0709 -0.4993 -0.5961
 5820SOL    HW118359   2.847   4.035   6.109  0.6638 -0.1869  0.5044
 5820SOL    HW218360   2.816   3.882   6.063  0.9852  0.3317 -1.5538
 5821SOL     OW18361   2.085   4.043   6.723 -0.1338  0.1679 -0.2192
 5821SOL    HW118362   2.046   4.132   6.702  2.3110  1.2669 -0.3861
 5821SOL    HW218363   2.184   4.051   6.734 -0.0366 -2.2431  1.4384
 5822SOL     OW18364   1.604   0.506   2.440  0.2807 -0.3696 -0.7167
 5822SOL    HW118365   1.704   0.500   2.442  0.2245 -1.4545 -0.5826
 5822SOL    HW218366   1.566   0.419   2.409 -0.6414 -0.1351 -0.2855
 5823SOL     OW18367   0.848   0.822   4.929 -0.2159  0.5865 -0.4369
 5823SOL    HW118368   0.909   0.763   4.982 -1.8577 -0.4041  0.4595
 5823SOL    HW218369   0.790   0.765   4.870  1.6636  1.6544 -3.5723
 5824SOL     OW18370   0.185   0.793   1.189  0.1139  0.1295 -1.0429
 5824SOL    HW118371   0.185   0.708   1.241 -0.1482  1.2735  0.9295
 5824SOL    HW218372   0.214   0.775   1.095  2.8053 -1.6871  0.0173
 5825SOL     OW18373   0.892   6.193   4.151 -0.3066  0.0313 -0.5046
 5825SOL    HW118374   0.929   6.147   4.232 -2.0533  0.8781  0.8432
 5825SOL    HW218375   0.914   6.139   4.069  1.1040 -1.0938  0.5467
 5826SOL     OW18376   5.643   4.498   6.533  0.6401 -0.3313 -0.1353
 5826SOL    HW118377   5.581   4.576   6.535  0.5451 -0.3562 -1.2517
 5826SOL    HW218378   5.701   4.498   6.615 -0.4390  0.0061  0.6462
 5827SOL     OW18379   5.585   3.275   1.379 -0.3045  0.0194 -0.4543
 5827SOL    HW118380   5.497   3.261   1.334 -0.6985 -2.0341  0.8214
 5827SOL    HW218381   5.652   3.211   1.341 -0.5359 -1.4573  1.5099
 5828SOL     OW18382   6.494   3.902   1.842  0.6468  0.3189  0.2458
 5828SOL    HW118383   6.553   3.833   1.801  0.5204  0.3113  0.0733
 5828SOL    HW218384   6.406   3.860   1.866  0.5566  0.4284  0.1080
 5829SOL     OW18385   6.229   0.004   2.304 -0.0412  0.3922 -0.0571
 5829SOL    HW118386   6.225   0.103   2.315  0.0028  0.4250 -0.3248
 5829SOL    HW218387   6.182  -0.040   2.380 -0.4080  0.6266 -0.1485
 5830SOL     OW18388   5.813   4.602   6.084  0.2385 -0.3954 -0.8442
 5830SOL    HW118389   5.763   4.687   6.102 -2.6974 -1.5186 -2.9418
 5830SOL    HW218390   5.796   4.537   6.158  2.3953  0.6694  0.7056
 5831SOL     OW18391   6.785   3.283   4.547 -0.1113  0.3510  0.9004
 5831SOL    HW118392   6.879   3.281   4.515 -0.1737 -0.2361  0.7487
 5831SOL    HW218393   6.745   3.192   4.541 -0.4093  0.4135  1.8061
 5832SOL     OW18394   0.067   4.243   2.208  0.2480  0.2349 -0.2130
 5832SOL    HW118395   0.140   4.174   2.203 -1.1176 -1.3009  0.1743
 5832SOL    HW218396   0.039   4.268   2.116 -0.8558 -1.5554 -0.4145
 5833SOL     OW18397   0.392   1.170   4.814 -0.1165  0.4545  0.2457
 5833SOL    HW118398   0.416   1.163   4.910 -1.0651 -0.0737  0.4519
 5833SOL    HW218399   0.394   1.079   4.772 -0.0026  0.6406 -0.1538
 5834SOL     OW18400   0.103   5.955   4.881 -0.3342 -0.2465  0.5832
 5834SOL    HW118401   0.078   6.002   4.796 -0.9724 -1.0293  0.3267
 5834SOL    HW218402   0.173   5.886   4.862 -1.8447 -1.7494  0.3254
 5835SOL     OW18403   5.980   2.659   2.362  0.6297 -0.0183  0.4047
 5835SOL    HW118404   5.999   2.749   2.324  0.5526  0.5320  1.6279
 5835SOL    HW218405   5.910   2.614   2.307 -0.3977  1.2681  0.6215
 5836SOL     OW18406   2.690   1.292   0.944 -0.0213 -0.0022 -0.4001
 5836SOL    HW118407   2.678   1.389   0.961 -2.0721 -0.3526  0.4044
 5836SOL    HW218408   2.786   1.267   0.958  0.2848  1.6570  0.6941
 5837SOL     OW18409   2.814   1.172   2.417  0.1483  0.4510  0.0517
 5837SOL    HW118410   2.768   1.091   2.379  1.3790 -0.7265  0.9852
 5837SOL    HW218411   2.888   1.200   2.355  0.1578  0.4551  0.0649
 5838SOL     OW18412   5.580   5.928   0.701 -0.5308 -0.4957 -0.4878
 5838SOL    HW118413   5.538   5.974   0.623  1.5707  1.2431 -0.6817
 5838SOL    HW218414   5.574   5.987   0.782 -1.9848 -1.9442  0.5245
 5839SOL     OW18415   3.684   6.599   3.843  0.0011 -0.1421  0.0926
 5839SOL    HW118416   3.654   6.666   3.910 -1.9193 -0.6968 -0.1597
 5839SOL    HW218417   3.698   6.511   3.888  1.6922  0.1794  0.2693
 5840SOL     OW18418   4.791   0.964   0.408  0.0491  0.3051 -0.4472
 5840SOL    HW118419   4.725   0.941   0.337  0.6804 -0.7493 -0.7079
 5840SOL    HW218420   4.764   1.050   0.452 -3.2836 -1.5842  1.5715
 5841SOL     OW18421   5.050   4.229   1.803 -0.1048  0.2876 -0.5158
 5841SOL    HW118422   5.090   4.184   1.883  0.7685  2.0293  0.0719
 5841SOL    HW218423   4.991   4.164   1.755 -0.3085 -0.9350  1.2805
 5842SOL     OW18424   1.658   6.933   2.814 -0.6787 -0.3643  0.6357
 5842SOL    HW118425   1.701   6.862   2.758 -1.1503  2.0177 -3.1221
 5842SOL    HW218426   1.560   6.916   2.821 -0.9411  0.2570 -1.0332
 5843SOL     OW18427   3.980   5.839   3.951  0.0294  0.1203 -0.0763
 5843SOL    HW118428   4.008   5.744   3.967  0.4473 -0.1819 -2.2798
 5843SOL    HW218429   4.059   5.899   3.965  0.6150 -0.2254 -1.6915
 5844SOL     OW18430   6.491   0.945   5.741 -0.0228 -0.2879 -0.2508
 5844SOL    HW118431   6.563   1.012   5.760  0.8979 -1.0941 -0.7918
 5844SOL    HW218432   6.402   0.990   5.741  0.1923  0.3785  2.6727
 5845SOL     OW18433   3.254   2.142   1.518  0.0226 -0.2505  0.2373
 5845SOL    HW118434   3.348   2.120   1.543  0.6076 -0.3118 -1.8292
 5845SOL    HW218435   3.218   2.211   1.580  0.7449 -1.5520  2.2208
 5846SOL     OW18436   2.784   6.073   4.476 -0.1072 -0.4399  0.3285
 5846SOL    HW118437   2.799   6.166   4.508 -0.3279 -0.0269 -0.7582
 5846SOL    HW218438   2.798   6.009   4.553  1.8716  0.3136  0.6506
 5847SOL     OW18439   0.677   2.077   6.820 -0.1411  0.0510  0.0243
 5847SOL    HW118440   0.768   2.062   6.858 -0.6102 -0.2277  1.0944
 5847SOL    HW218441   0.614   2.101   6.894 -1.0708 -0.3798 -0.6072
 5848SOL     OW18442   6.955   6.451   4.782  0.2074 -0.1644  0.0824
 5848SOL    HW118443   7.029   6.461   4.849 -1.5398 -1.2505  2.3181
 5848SOL    HW218444   6.905   6.538   4.774 -0.1966 -0.2919  1.0323
 5849SOL     OW18445   6.208   0.352   1.383  0.3614 -0.1449 -0.3864
 5849SOL    HW118446   6.264   0.434   1.383 -0.6847  0.5995 -1.0547
 5849SOL    HW218447   6.131   0.363   1.446  0.2721 -0.6554 -0.3944
 5850SOL     OW18448   2.433   2.156   0.618 -0.3907 -0.1272 -0.0954
 5850SOL    HW118449   2.405   2.092   0.690  1.1534 -0.5732  0.1288
 5850SOL    HW218450   2.388   2.245   0.633 -1.6709 -0.8050  0.2281
 5851SOL     OW18451   6.801   5.767   0.876 -0.3014  0.2981 -0.2847
 5851SOL    HW118452   6.717   5.818   0.894 -1.5478 -2.2273  1.8129
 5851SOL    HW218453   6.781   5.692   0.813 -0.0413 -1.1327  1.2477
 5852SOL     OW18454   5.800   2.211   3.838  0.2451  0.1230  0.0633
 5852SOL    HW118455   5.861   2.138   3.807 -0.1032 -0.0454 -0.2268
 5852SOL    HW218456   5.835   2.249   3.924  1.1548  0.5181 -0.4631
 5853SOL     OW18457   2.407   5.923   5.736 -0.3697 -0.1531  0.2691
 5853SOL    HW118458   2.452   5.876   5.660 -0.6397  0.0065  0.0065
 5853SOL    HW218459   2.361   6.005   5.701  1.7527  1.4340  1.0243
 5854SOL     OW18460   6.715   4.842   3.007 -0.1603 -0.9736  0.5614
 5854SOL    HW118461   6.647   4.851   3.080 -1.6448 -5.1100 -0.0241
 5854SOL    HW218462   6.794   4.900   3.026 -1.9605  0.7025  3.5739
 5855SOL     OW18463   4.756   1.695   4.248 -0.1029 -0.3173 -0.1665
 5855SOL    HW118464   4.665   1.658   4.267 -0.6822  1.0053 -0.2466
 5855SOL    HW218465   4.759   1.731   4.155  1.0344 -1.8020 -0.7616
 5856SOL     OW18466   6.513   3.683   1.264 -0.1064  0.2310 -0.0609
 5856SOL    HW118467   6.484   3.719   1.353 -0.0679 -0.7423  0.3653
 5856SOL    HW218468   6.608   3.708   1.247 -0.3564  1.0914 -0.1902
 5857SOL     OW18469   5.514   1.962   4.049  0.0160 -0.9734 -0.5019
 5857SOL    HW118470   5.517   1.903   3.969  0.4776 -3.1083  1.0097
 5857SOL    HW218471   5.566   1.920   4.123 -0.6996  0.7561  1.0568
 5858SOL     OW18472   0.861   4.247   6.492 -0.1835  0.1099 -0.1147
 5858SOL    HW118473   0.953   4.209   6.478  0.6594  1.5779  1.0951
 5858SOL    HW218474   0.793   4.180   6.464  1.2425 -0.5795 -2.1520
 5859SOL     OW18475   2.588   5.924   4.818 -0.2690 -0.0531  0.0300
 5859SOL    HW118476   2.609   5.882   4.906  0.2450  1.7840  0.8231
 5859SOL    HW218477   2.663   5.906   4.754 -0.0544 -0.3231  0.3552
 5860SOL     OW18478   4.834   0.388   1.152  0.0740  0.6874  0.1786
 5860SOL    HW118479   4.800   0.301   1.115  2.5202  0.2736 -1.3633
 5860SOL    HW218480   4.767   0.460   1.135 -0.3748 -0.1841 -2.0941
 5861SOL     OW18481   2.699   1.371   5.602 -0.1611 -0.0722  0.5266
 5861SOL    HW118482   2.662   1.395   5.692 -1.5491  1.0251 -0.2851
 5861SOL    HW218483   2.747   1.450   5.564 -4.0356  1.4860 -1.8096
 5862SOL     OW18484   5.314   4.799   6.056  0.4692 -0.5265 -0.0166
 5862SOL    HW118485   5.336   4.885   6.102 -0.3261 -0.1417 -0.3254
 5862SOL    HW218486   5.238   4.755   6.103  0.1505 -0.5086 -0.5070
 5863SOL     OW18487   2.354   1.303   6.449  0.1955  0.1232  0.0699
 5863SOL    HW118488   2.427   1.358   6.408  0.0082  1.1676  1.0760
 5863SOL    HW218489   2.321   1.349   6.532 -0.7321 -0.9752  0.3253
 5864SOL     OW18490   4.242   4.164   6.390 -0.0817 -0.5381 -0.1498
 5864SOL    HW118491   4.233   4.117   6.477 -2.7865  1.1632  0.6240
 5864SOL    HW218492   4.203   4.256   6.397 -1.3692 -0.6759 -3.3817
 5865SOL     OW18493   0.750   5.027   6.902 -0.2607 -0.6645  0.1843
 5865SOL    HW118494   0.653   5.020   6.922 -0.5674  1.0022 -0.5850
 5865SOL    HW218495   0.766   5.003   6.806  0.4122 -2.9261  0.7861
 5866SOL     OW18496   6.442   2.676   0.202 -0.3841  0.8539  1.0168
 5866SOL    HW118497   6.467   2.589   0.243  0.2940  1.6159  2.2917
 5866SOL    HW218498   6.443   2.668   0.102 -3.7477 -1.5515  0.9826
 5867SOL     OW18499   2.447   2.166   1.949  0.0797 -0.8952  0.4722
 5867SOL    HW118500   2.525   2.220   1.978 -0.8536  0.3430  0.7629
 5867SOL    HW218501   2.456   2.143   1.852  0.6725 -0.5446  0.4415
 5868SOL     OW18502   5.521   3.653   1.282  0.3986  0.5529  0.1119
 5868SOL    HW118503   5.484   3.746   1.279 -0.8309  0.0635 -0.1095
 5868SOL    HW218504   5.491   3.603   1.201  2.4631  0.4606 -0.6609
 5869SOL     OW18505   0.662   0.694   3.023  0.3979  0.2580 -0.0942
 5869SOL    HW118506   0.680   0.778   2.971  0.2714  0.5807  0.3746
 5869SOL    HW218507   0.738   0.678   3.086  1.4343 -1.1114 -1.6165
 5870SOL     OW18508   1.589   2.051   2.579  0.1376 -0.1086 -0.2625
 5870SOL    HW118509   1.531   2.023   2.656  2.6829 -0.7638  1.5599
 5870SOL    HW218510   1.558   2.139   2.545 -3.0898 -1.2970 -0.7383
 5871SOL     OW18511   5.807   5.618   6.744  0.6373 -0.1134 -0.5929
 5871SOL    HW118512   5.822   5.533   6.694  3.3068 -1.0699  1.5355
 5871SOL    HW218513   5.893   5.669   6.748 -0.1629  1.1950  0.7119
 5872SOL     OW18514   1.812   5.748   5.111  0.6908  1.1471  0.1085
 5872SOL    HW118515   1.816   5.848   5.106  0.8536  1.1726  0.6646
 5872SOL    HW218516   1.885   5.715   5.171 -0.1714  0.7880  0.9821
 5873SOL     OW18517   4.542   2.343   3.800  0.0723  0.2631 -0.1447
 5873SOL    HW118518   4.474   2.388   3.858 -0.8741  2.1248 -2.5030
 5873SOL    HW218519   4.517   2.246   3.789 -0.4662  0.1941  1.4068
 5874SOL     OW18520   5.564   2.280   1.374  0.0870 -0.0561 -0.1135
 5874SOL    HW118521   5.639   2.259   1.436 -0.3632 -0.7133  0.2187
 5874SOL    HW218522   5.531   2.196   1.332 -0.8540  0.1453  0.2016
 5875SOL     OW18523   5.025   5.746   5.405 -0.1938 -0.3860 -0.6982
 5875SOL    HW118524   5.004   5.759   5.308  1.9644  1.8027 -0.9450
 5875SOL    HW218525   5.118   5.712   5.415  0.8288  2.5617  0.6282
 5876SOL     OW18526   1.375   2.897   5.325 -0.2047 -0.7003 -0.6239
 5876SOL    HW118527   1.315   2.835   5.375  0.3923  0.3413  1.4724
 5876SOL    HW218528   1.320   2.958   5.267 -1.0440 -0.8064  0.0522
 5877SOL     OW18529   0.977   3.286   5.124  0.1272  0.5301  0.3323
 5877SOL    HW118530   1.029   3.241   5.051 -0.5171 -3.3214  1.9914
 5877SOL    HW218531   0.879   3.276   5.105 -0.0348 -0.1157  1.4305
 5878SOL     OW18532   0.644   4.728   2.821 -0.0995 -0.2642  0.2004
 5878SOL    HW118533   0.730   4.767   2.789 -0.9029  0.1610 -1.5679
 5878SOL    HW218534   0.586   4.706   2.743 -1.5713 -0.6190  1.3400
 5879SOL     OW18535   0.219   2.469   4.399 -0.2936 -0.1603 -0.0128
 5879SOL    HW118536   0.314   2.460   4.430 -0.7744  0.7839  1.8371
 5879SOL    HW218537   0.189   2.382   4.360  0.5991 -1.2292  1.5648
 5880SOL     OW18538   6.214   0.518   2.332 -0.4125  0.0672 -0.2071
 5880SOL    HW118539   6.272   0.571   2.269 -0.5966  1.6811  0.9098
 5880SOL    HW218540   6.156   0.581   2.384 -1.3950 -1.3456  0.4635
 5881SOL     OW18541   2.458   1.211   3.612 -0.2770  0.4627  0.2295
 5881SOL    HW118542   2.416   1.297   3.639  2.7935  1.4129  2.6057
 5881SOL    HW218543   2.431   1.139   3.677 -0.8743  0.2324 -0.2684
 5882SOL     OW18544   6.300   5.792   1.481 -0.2048 -0.1334  0.3967
 5882SOL    HW118545   6.398   5.790   1.462 -0.5238  0.5643 -1.4878
 5882SOL    HW218546   6.262   5.880   1.452 -1.3557 -0.2939  1.3346
 5883SOL     OW18547   6.275   0.806   5.094 -0.1199  0.7190 -0.2041
 5883SOL    HW118548   6.232   0.870   5.158  0.3537  0.1617  0.7014
 5883SOL    HW218549   6.221   0.722   5.090  0.8679 -0.0242  1.0142
 5884SOL     OW18550   5.800   2.396   0.413 -0.2038  0.4691  0.2961
 5884SOL    HW118551   5.845   2.383   0.325  1.0077 -2.1254  1.1826
 5884SOL    HW218552   5.723   2.332   0.421  1.4409 -1.4556  2.0977
 5885SOL     OW18553   2.906   6.133   3.812 -0.1165 -0.0264 -0.1758
 5885SOL    HW118554   3.000   6.126   3.778 -0.1110 -1.5775  0.1056
 5885SOL    HW218555   2.906   6.120   3.911 -0.5540  0.8165 -0.0530
 5886SOL     OW18556   4.825   3.954   2.078  0.3508  0.8408  0.5401
 5886SOL    HW118557   4.798   4.043   2.043 -0.4488  0.0555 -0.9124
 5886SOL    HW218558   4.806   3.884   2.010  3.1074 -0.1963  0.6944
 5887SOL     OW18559   3.382   5.416   5.837  0.5505 -0.1712 -0.5524
 5887SOL    HW118560   3.375   5.481   5.913 -2.8767 -2.0365  0.9378
 5887SOL    HW218561   3.449   5.346   5.860  0.9703  0.3411 -0.1629
 5888SOL     OW18562   0.523   6.086   2.381  0.2282  0.6616  0.1217
 5888SOL    HW118563   0.467   6.022   2.432  2.1203 -2.5796 -1.5366
 5888SOL    HW218564   0.593   6.125   2.440  0.1801 -0.2425  0.7852
 5889SOL     OW18565   3.113   1.451   6.423 -0.1379  0.0520 -0.0006
 5889SOL    HW118566   3.109   1.499   6.511 -0.2138 -1.0061  0.5967
 5889SOL    HW218567   3.199   1.474   6.376  1.8380 -2.2819  2.1354
 5890SOL     OW18568   2.524   5.557   2.205 -0.4315 -0.3833 -0.0079
 5890SOL    HW118569   2.445   5.496   2.206 -0.2135 -0.7028 -1.2040
 5890SOL    HW218570   2.494   5.651   2.189 -0.6008 -0.4554 -0.1071
 5891SOL     OW18571   3.782   0.728   1.518 -0.2378  0.0244 -0.0138
 5891SOL    HW118572   3.710   0.797   1.509 -0.8647 -0.7782 -1.5638
 5891SOL    HW218573   3.852   0.743   1.448  0.6412  0.2317  0.8835
 5892SOL     OW18574   3.386   2.733   1.854  0.2695  0.3553  0.4085
 5892SOL    HW118575   3.300   2.725   1.905  0.4931 -1.6608  0.5551
 5892SOL    HW218576   3.453   2.783   1.908 -0.1178 -0.0267  1.2479
 5893SOL     OW18577   2.094   5.149   1.943  0.6144  0.2477 -0.2370
 5893SOL    HW118578   2.180   5.112   1.978  0.8570  0.2538 -0.8221
 5893SOL    HW218579   2.104   5.171   1.846 -0.5007 -1.1899 -0.7127
 5894SOL     OW18580   5.002   6.914   2.043 -0.6162 -0.2920 -0.3307
 5894SOL    HW118581   4.931   6.887   2.107  0.8470  0.8298  1.8806
 5894SOL    HW218582   4.977   7.001   2.000 -0.7329 -0.0868  0.1519
 5895SOL     OW18583   1.260   3.720   0.412  0.2073  0.0078 -0.4902
 5895SOL    HW118584   1.233   3.670   0.495  0.2900  0.3774 -0.2351
 5895SOL    HW218585   1.263   3.657   0.334 -1.9584  0.0342 -0.6613
 5896SOL     OW18586   5.480   4.609   5.266 -0.0571  0.0318 -0.1343
 5896SOL    HW118587   5.504   4.596   5.362 -1.5589  0.2450  0.2978
 5896SOL    HW218588   5.453   4.704   5.251  0.7330  0.1442 -0.9092
 5897SOL     OW18589   1.763   2.193   0.292  0.5104  0.2281  0.1804
 5897SOL    HW118590   1.748   2.290   0.275 -1.7869 -0.3398 -1.4564
 5897SOL    HW218591   1.813   2.153   0.215  0.3074 -0.1273  0.2282
 5898SOL     OW18592   3.331   2.129   2.599 -0.2477 -0.5420 -0.1183
 5898SOL    HW118593   3.427   2.152   2.611  0.0499 -0.4091 -2.3902
 5898SOL    HW218594   3.312   2.110   2.503 -2.1568 -2.1951  0.5002
 5899SOL     OW18595   6.945   0.062   4.844  0.2267  0.3662  0.5142
 5899SOL    HW118596   6.910   0.104   4.928  0.0933  1.4849 -0.0937
 5899SOL    HW218597   7.043   0.079   4.837  0.4993 -0.8293  1.0673
 5900SOL     OW18598   4.888   0.499   0.788  0.2841 -0.0236  0.1605
 5900SOL    HW118599   4.927   0.544   0.708 -0.5611  3.2439  1.4406
 5900SOL    HW218600   4.961   0.477   0.853  0.6639  0.0213 -0.2506
 5901SOL     OW18601   2.316   0.700   0.617 -0.4516 -0.1956  0.2441
 5901SOL    HW118602   2.342   0.770   0.684 -1.2753  0.2717  0.0890
 5901SOL    HW218603   2.221   0.672   0.634  0.0621 -1.7427  0.6987
 5902SOL     OW18604   0.603   1.537   3.620  0.3947 -0.1598 -0.4833
 5902SOL    HW118605   0.675   1.546   3.688  0.0255 -0.2482 -0.0746
 5902SOL    HW218606   0.560   1.447   3.628 -0.9443  0.5335  0.4703
 5903SOL     OW18607   3.046   6.270   6.188  0.0216 -0.0173 -0.7301
 5903SOL    HW118608   3.102   6.353   6.193 -0.9731  0.7497 -1.8866
 5903SOL    HW218609   3.097   6.193   6.228  0.9648  1.1304  0.3502
 5904SOL     OW18610   6.389   2.683   6.946  0.0150  0.3064  0.3795
 5904SOL    HW118611   6.289   2.679   6.952  0.0432  0.7995  1.4745
 5904SOL    HW218612   6.424   2.599   6.904 -0.8320 -0.0432  0.3654
 5905SOL     OW18613   6.636   6.700   6.868  0.0348 -0.7782 -0.3824
 5905SOL    HW118614   6.665   6.675   6.960  0.8792 -0.7906 -0.6373
 5905SOL    HW218615   6.680   6.639   6.802 -0.7884 -0.9558 -0.7787
 5906SOL     OW18616   1.226   1.678   4.186 -0.0760  0.8148  0.0652
 5906SOL    HW118617   1.161   1.642   4.253  0.5734  1.4876  1.0746
 5906SOL    HW218618   1.208   1.636   4.097  0.8150 -2.2697  1.2033
 5907SOL     OW18619   2.551   0.395   5.738 -0.5782  0.0953  0.4709
 5907SOL    HW118620   2.615   0.319   5.752  0.4680  1.1103  1.3771
 5907SOL    HW218621   2.495   0.407   5.820  0.5282  1.4307  1.0675
 5908SOL     OW18622   5.112   6.989   0.015 -0.3069  0.1807 -0.3823
 5908SOL    HW118623   5.038   7.046   0.050 -1.6771 -1.5988 -0.2587
 5908SOL    HW218624   5.200   7.025   0.048 -1.1645  1.7254  0.3318
 5909SOL     OW18625   3.501   3.531   4.791 -0.3769  0.6035 -0.3700
 5909SOL    HW118626   3.530   3.627   4.784  0.6253  0.4221  0.9832
 5909SOL    HW218627   3.580   3.471   4.778 -1.2943 -0.1657 -3.1759
 5910SOL     OW18628   5.267   0.357   5.186  0.1035  0.1891 -0.0880
 5910SOL    HW118629   5.194   0.289   5.185  1.4592 -1.3126 -0.3534
 5910SOL    HW218630   5.264   0.409   5.272 -0.7488 -0.4275  0.2630
 5911SOL     OW18631   6.083   4.292   6.487  0.4317  0.0589 -0.3257
 5911SOL    HW118632   6.154   4.312   6.419 -0.4180  0.6570 -1.0681
 5911SOL    HW218633   6.033   4.376   6.508 -1.9324 -0.8371 -1.9877
 5912SOL     OW18634   4.210   5.645   3.960  0.6018  0.5645  0.1385
 5912SOL    HW118635   4.168   5.596   3.884  0.9703 -1.1632  0.9975
 5912SOL    HW218636   4.291   5.595   3.992  0.7684  1.5254  1.3200
 5913SOL     OW18637   0.109   4.506   4.872  0.0099  0.5389  0.0509
 5913SOL    HW118638   0.137   4.477   4.780 -2.1228 -0.3682 -0.3600
 5913SOL    HW218639   0.151   4.445   4.939 -0.5795 -0.5214 -0.5109
 5914SOL     OW18640   5.503   6.551   2.246 -0.0325 -0.8887 -0.2519
 5914SOL    HW118641   5.513   6.469   2.190 -2.0980  0.4122 -2.6746
 5914SOL    HW218642   5.415   6.550   2.293  0.0386 -0.1537 -0.0858
 5915SOL     OW18643   3.719   3.459   3.700 -0.3169  0.2345 -0.1913
 5915SOL    HW118644   3.813   3.456   3.736 -1.7126 -1.2918  3.9311
 5915SOL    HW218645   3.699   3.551   3.666  2.1315  1.0614  0.3903
 5916SOL     OW18646   3.308   3.453   0.794 -0.5349 -0.3106  0.0952
 5916SOL    HW118647   3.394   3.407   0.814 -0.3020 -0.5929 -1.4268
 5916SOL    HW218648   3.319   3.512   0.714 -1.8760 -0.7653 -0.4601
 5917SOL     OW18649   6.916   6.799   4.274  0.2862 -0.4258 -0.3601
 5917SOL    HW118650   6.921   6.699   4.278  1.3257 -0.3698  0.1763
 5917SOL    HW218651   7.008   6.837   4.286 -0.1431  0.6041 -0.2477
 5918SOL     OW18652   0.922   6.443   4.048  0.1180 -0.1888 -0.9313
 5918SOL    HW118653   0.837   6.489   4.022 -0.6999  0.0039  1.7630
 5918SOL    HW218654   0.901   6.364   4.105  1.7416  0.8176  1.2014
 5919SOL     OW18655   4.777   5.570   1.769  0.6590  0.0669  0.6710
 5919SOL    HW118656   4.688   5.560   1.725  0.9630  0.3694 -0.0258
 5919SOL    HW218657   4.810   5.481   1.799  0.2715 -0.0894  0.6367
 5920SOL     OW18658   2.629   0.585   3.231 -0.3022  0.1158 -0.1611
 5920SOL    HW118659   2.718   0.577   3.275  0.0187  0.0367 -0.7999
 5920SOL    HW218660   2.598   0.495   3.202 -1.5551 -0.1496  1.8604
 5921SOL     OW18661   0.859   1.356   1.498  0.6753  0.3104 -0.6587
 5921SOL    HW118662   0.946   1.335   1.542  0.4501 -0.6589 -0.6495
 5921SOL    HW218663   0.857   1.452   1.470  0.2151  1.4607  2.8880
 5922SOL     OW18664   2.154   5.895   0.140  0.0064 -0.4140  0.1127
 5922SOL    HW118665   2.165   5.797   0.150 -1.5621 -0.6873 -0.4790
 5922SOL    HW218666   2.137   5.917   0.044 -1.5115  0.2005  0.4899
 5923SOL     OW18667   6.329   4.865   1.967  0.4539  0.8316  0.1292
 5923SOL    HW118668   6.340   4.818   1.880 -1.3142 -0.8893  0.7577
 5923SOL    HW218669   6.352   4.962   1.956  2.3039  0.2546 -1.6920
 5924SOL     OW18670   0.464   5.012   5.016  0.1714  0.3895  0.3218
 5924SOL    HW118671   0.379   5.058   4.990 -0.1848  0.2091  1.1312
 5924SOL    HW218672   0.530   5.020   4.942 -0.1074  1.6450  0.1835
 5925SOL     OW18673   4.895   4.904   4.680  0.1254 -0.3631  0.1742
 5925SOL    HW118674   4.808   4.890   4.725 -0.0733  1.9352  0.6251
 5925SOL    HW218675   4.953   4.964   4.735  0.6170  0.9855 -1.6940
 5926SOL     OW18676   1.515   3.954   6.165 -0.1030 -0.0303  0.3721
 5926SOL    HW118677   1.453   3.897   6.112  0.2877 -0.2522  0.1520
 5926SOL    HW218678   1.596   3.976   6.110 -0.7768  1.7199  0.0213
 5927SOL     OW18679   0.649   0.778   4.199 -0.2931 -0.2409 -0.1173
 5927SOL    HW118680   0.726   0.841   4.191 -1.1805  0.7376 -1.2395
 5927SOL    HW218681   0.643   0.744   4.292  0.9114  0.4261  0.2170
 5928SOL     OW18682   3.606   2.109   2.618  0.1651 -0.4168 -0.7473
 5928SOL    HW118683   3.701   2.102   2.587 -0.3798 -1.0219 -2.4182
 5928SOL    HW218684   3.586   2.034   2.680  0.6918 -0.4608 -0.6198
 5929SOL     OW18685   5.668   3.114   0.159  0.6849 -0.6631  0.3426
 5929SOL    HW118686   5.604   3.102   0.235 -2.1673 -1.0521 -1.9275
 5929SOL    HW218687   5.752   3.064   0.178  0.8202  0.6424  3.8947
 5930SOL     OW18688   2.659   5.504   5.258  0.1173  0.4152  0.2111
 5930SOL    HW118689   2.593   5.579   5.254  0.7811  1.0533  0.8199
 5930SOL    HW218690   2.695   5.497   5.351  0.2622 -0.4909  0.0918
 5931SOL     OW18691   5.642   3.543   2.931  0.5048  0.4147 -0.8950
 5931SOL    HW118692   5.621   3.613   2.999  1.7261  0.0178 -0.0724
 5931SOL    HW218693   5.620   3.453   2.969  3.0393  0.0277 -0.1958
 5932SOL     OW18694   2.996   5.257   6.152 -0.6238 -0.5033  0.4777
 5932SOL    HW118695   2.981   5.221   6.060  0.3134 -1.5993  0.7249
 5932SOL    HW218696   3.074   5.319   6.152  0.7263 -2.1261  0.8711
 5933SOL     OW18697   2.807   6.213   3.400  0.1000 -0.0586 -0.5822
 5933SOL    HW118698   2.733   6.228   3.334 -1.5138 -0.8708  0.9490
 5933SOL    HW218699   2.784   6.258   3.486  1.1483 -0.7758  0.0939
 5934SOL     OW18700   5.898   1.266   2.981 -0.8531 -0.6009 -0.6657
 5934SOL    HW118701   5.830   1.287   2.910  0.1652  2.3380 -0.9436
 5934SOL    HW218702   5.852   1.248   3.067 -2.0379  0.5734 -1.0222
 5935SOL     OW18703   2.885   1.858   3.211 -0.0945  0.3085  0.0557
 5935SOL    HW118704   2.958   1.861   3.143 -1.1731 -2.0884 -1.3433
 5935SOL    HW218705   2.798   1.882   3.168 -0.2630  2.7869  1.6155
 5936SOL     OW18706   6.265   2.274   4.852  0.0074  0.0718 -0.0665
 5936SOL    HW118707   6.270   2.371   4.827  0.3018  0.1301  0.2129
 5936SOL    HW218708   6.323   2.221   4.790 -2.2423 -0.3011 -2.0027
 5937SOL     OW18709   5.378   2.288   3.551  0.2213 -0.3426  0.3301
 5937SOL    HW118710   5.338   2.326   3.467  1.4170 -1.1615 -0.6475
 5937SOL    HW218711   5.315   2.303   3.627 -0.9911  0.2446 -0.7376
 5938SOL     OW18712   6.460   3.772   1.523  0.7725 -0.5365  0.0482
 5938SOL    HW118713   6.535   3.778   1.589 -1.2875  1.5251  2.3927
 5938SOL    HW218714   6.373   3.778   1.571 -0.8647  2.5321 -2.9295
 5939SOL     OW18715   4.692   4.011   1.009 -0.3321 -0.0839  0.2413
 5939SOL    HW118716   4.629   4.023   0.932  0.3020  0.8834 -0.1486
 5939SOL    HW218717   4.694   3.915   1.036 -2.1843 -0.0891  0.4552
 5940SOL     OW18718   4.982   4.784   5.874  0.2338 -0.3929  0.0692
 5940SOL    HW118719   4.888   4.817   5.887  0.5154  0.2274  0.5517
 5940SOL    HW218720   4.999   4.709   5.938  0.0868 -0.4641  0.0266
 5941SOL     OW18721   1.126   2.837   5.507  0.1166 -0.2126  0.2366
 5941SOL    HW118722   1.168   2.746   5.506 -1.4519 -0.9963  1.3899
 5941SOL    HW218723   1.055   2.841   5.437  0.6317  0.3706 -0.2610
 5942SOL     OW18724   2.480   2.785   0.094 -0.5368  0.6594 -0.0799
 5942SOL    HW118725   2.467   2.865   0.154  0.4349 -0.7365  2.1285
 5942SOL    HW218726   2.405   2.721   0.109  1.0946 -0.9365  1.8334
 5943SOL     OW18727   4.773   4.182   4.225  0.4696  0.2609 -0.1501
 5943SOL    HW118728   4.725   4.191   4.138 -0.3388  1.9127  0.4276
 5943SOL    HW218729   4.725   4.234   4.296  1.8641  0.0765  0.9851
 5944SOL     OW18730   6.245   0.870   2.172  0.3145  0.0303  0.6975
 5944SOL    HW118731   6.164   0.866   2.114  1.1593  0.3023 -0.5354
 5944SOL    HW218732   6.305   0.793   2.151  0.3393 -0.2292  1.6726
 5945SOL     OW18733   4.043   0.646   2.491  0.3425 -0.0271 -0.3379
 5945SOL    HW118734   4.014   0.560   2.533 -0.3370 -1.2509 -3.1354
 5945SOL    HW218735   3.978   0.718   2.515 -0.3337 -0.7956  0.2020
 5946SOL     OW18736   2.551   1.469   4.672 -0.0116 -0.1952  0.3281
 5946SOL    HW118737   2.621   1.540   4.678 -0.8053  0.8849 -1.9756
 5946SOL    HW218738   2.594   1.381   4.651  0.7743  0.0790  0.7466
 5947SOL     OW18739   5.147   6.883   1.620  0.1271 -0.4626 -0.1876
 5947SOL    HW118740   5.086   6.921   1.689 -0.2569 -0.6821 -0.4070
 5947SOL    HW218741   5.154   6.948   1.544  0.7498 -0.1048  0.1619
 5948SOL     OW18742   3.406   6.791   4.646  0.2936  0.0206  0.0475
 5948SOL    HW118743   3.503   6.779   4.670  0.3262 -1.1108 -0.5813
 5948SOL    HW218744   3.394   6.776   4.548 -0.3125  1.5681 -0.1382
 5949SOL     OW18745   4.729   0.929   3.629 -0.1192 -0.2172  0.1760
 5949SOL    HW118746   4.685   0.967   3.548 -0.7579  0.2425  0.7296
 5949SOL    HW218747   4.670   0.860   3.670  0.7833 -1.4306 -0.4945
 5950SOL     OW18748   4.649   1.680   0.036 -0.2174 -0.6095  0.1335
 5950SOL    HW118749   4.551   1.674   0.057 -0.3137  0.2507 -0.0500
 5950SOL    HW218750   4.663   1.664  -0.062 -0.0791 -1.5835  0.3033
 5951SOL     OW18751   3.708   4.947   5.087 -0.1798  0.0849  0.4050
 5951SOL    HW118752   3.681   4.974   4.995 -2.7580  0.1789  1.1120
 5951SOL    HW218753   3.632   4.962   5.150  0.3340 -3.0370  1.9643
 5952SOL     OW18754   5.987   3.825   0.301  0.3914  0.1702 -0.4791
 5952SOL    HW118755   6.080   3.791   0.314  0.0397 -0.3069  0.9738
 5952SOL    HW218756   5.964   3.888   0.375 -0.8920 -0.7396 -0.0701
 5953SOL     OW18757   0.064   4.329   2.470  0.0521 -0.2508 -0.5700
 5953SOL    HW118758   0.068   4.300   2.374  1.8457 -0.0154 -0.5963
 5953SOL    HW218759   0.155   4.355   2.501 -0.8886  1.9722  0.5242
 5954SOL     OW18760   2.604   0.116   4.978 -0.0014  0.3531 -0.3461
 5954SOL    HW118761   2.642   0.126   5.070  0.9254 -0.9279 -0.5705
 5954SOL    HW218762   2.550   0.032   4.973  1.3033 -0.4453 -1.4150
 5955SOL     OW18763   0.549   3.707   2.833  0.2806  0.4242  0.1423
 5955SOL    HW118764   0.543   3.754   2.921  0.1065  1.9346 -0.6514
 5955SOL    HW218765   0.480   3.635   2.829 -1.4217  1.9961  0.2934
 5956SOL     OW18766   4.839   2.345   1.002 -0.4659  0.9907  0.1004
 5956SOL    HW118767   4.773   2.387   1.064  0.9182  0.4335  2.0588
 5956SOL    HW218768   4.796   2.268   0.954 -1.4909  1.2536  0.5672
 5957SOL     OW18769   4.350   4.686   0.721 -0.2923  0.0461  0.0511
 5957SOL    HW118770   4.400   4.599   0.730 -1.3774 -0.5134  0.9254
 5957SOL    HW218771   4.370   4.727   0.633 -1.2397 -2.0508 -1.2202
 5958SOL     OW18772   2.616   1.104   0.021 -0.3408  0.6210 -0.6163
 5958SOL    HW118773   2.659   1.186  -0.018 -0.3448  1.0030  0.1619
 5958SOL    HW218774   2.600   1.118   0.119  0.9360 -0.8259 -0.1526
 5959SOL     OW18775   6.311   6.554   3.732  0.4300  0.4331  0.1452
 5959SOL    HW118776   6.246   6.629   3.722 -0.7580 -0.5708  0.1079
 5959SOL    HW218777   6.337   6.520   3.642  1.0829  0.8880  0.1580
 5960SOL     OW18778   4.609   2.369   4.112 -0.0198  0.1752 -0.0431
 5960SOL    HW118779   4.521   2.331   4.083 -1.0230  1.5371  1.0539
 5960SOL    HW218780   4.649   2.420   4.036  0.0278 -0.7688 -0.6675
 5961SOL     OW18781   6.404   4.692   4.074  0.0906  0.3828 -0.3909
 5961SOL    HW118782   6.393   4.643   4.160  2.9100  2.0991  1.0924
 5961SOL    HW218783   6.373   4.786   4.084 -0.6415  0.3001 -1.6436
 5962SOL     OW18784   2.524   2.093   6.733 -0.2201 -0.7153  0.4202
 5962SOL    HW118785   2.621   2.117   6.729  0.1183 -0.8958  4.1496
 5962SOL    HW218786   2.510   2.005   6.688  1.4981 -1.0452  0.4517
 5963SOL     OW18787   5.466   5.627   5.002 -0.1391  0.1987 -0.0875
 5963SOL    HW118788   5.538   5.569   5.040  0.6725  1.1889 -0.0762
 5963SOL    HW218789   5.472   5.718   5.042 -0.9090  0.5113 -0.6650
 5964SOL     OW18790   5.805   4.755   0.350  0.5528  0.1852  0.2755
 5964SOL    HW118791   5.836   4.706   0.432  0.0944  0.2635  0.4978
 5964SOL    HW218792   5.865   4.834   0.335 -0.2226  1.0291  1.4005
 5965SOL     OW18793   3.684   3.767   3.820 -0.1019 -0.3684  0.5523
 5965SOL    HW118794   3.653   3.703   3.891  1.0645 -0.2110  1.2280
 5965SOL    HW218795   3.694   3.859   3.860  1.7783 -0.5300  0.5243
 5966SOL     OW18796   2.041   2.820   0.570  0.0845 -0.0485  0.4284
 5966SOL    HW118797   2.038   2.804   0.472  1.7251 -1.6256  0.5833
 5966SOL    HW218798   2.135   2.836   0.599 -0.4440  1.0564  1.6795
 5967SOL     OW18799   2.368   6.092   0.687 -0.8239 -0.2688  0.4514
 5967SOL    HW118800   2.382   6.052   0.597 -0.0771 -0.6333  0.7200
 5967SOL    HW218801   2.442   6.063   0.748 -0.6514  0.9385  0.8486
 5968SOL     OW18802   2.174   1.837   4.138  0.0089 -0.3644 -0.2711
 5968SOL    HW118803   2.211   1.854   4.047  1.7770  1.4959  0.7038
 5968SOL    HW218804   2.247   1.805   4.198 -0.5642  0.7096  1.0548
 5969SOL     OW18805   5.090   6.031   4.822  0.4214 -0.1840 -0.0803
 5969SOL    HW118806   5.047   6.004   4.908  1.3573 -0.2820  0.3658
 5969SOL    HW218807   5.101   6.131   4.820  1.7942 -0.3029  0.6011
 5970SOL     OW18808   1.439   2.191   3.045  0.4028  0.4772  0.4775
 5970SOL    HW118809   1.419   2.220   3.139 -0.1139  0.4763  0.3670
 5970SOL    HW218810   1.367   2.130   3.013  1.1004 -0.3561  0.4409
 5971SOL     OW18811   1.655   5.572   6.718 -0.0715 -0.2865  0.1370
 5971SOL    HW118812   1.704   5.628   6.786  1.0756 -0.0519 -0.8502
 5971SOL    HW218813   1.604   5.501   6.766 -0.0390  0.4329  1.3072
 5972SOL     OW18814   1.659   4.105   4.214  0.0707 -0.1180  0.1826
 5972SOL    HW118815   1.656   4.143   4.307  0.4278 -2.5320  1.2474
 5972SOL    HW218816   1.734   4.148   4.164  1.6531 -0.6729  1.9365
 5973SOL     OW18817   2.954   5.510   5.892 -0.3366  0.3202 -0.6323
 5973SOL    HW118818   2.871   5.521   5.838  0.1891  0.9918 -1.3357
 5973SOL    HW218819   3.027   5.474   5.833  0.6959  2.5424 -0.8351
 5974SOL     OW18820   1.789   5.184   6.484 -0.6344  0.4074 -0.3594
 5974SOL    HW118821   1.699   5.141   6.484 -1.1829  1.4280  1.8989
 5974SOL    HW218822   1.780   5.283   6.493  0.7139  0.6207 -1.0227
 5975SOL     OW18823   6.158   1.493   0.252 -0.2040  0.6685  0.2027
 5975SOL    HW118824   6.250   1.476   0.287 -0.4419 -1.2847 -0.0577
 5975SOL    HW218825   6.143   1.592   0.245  0.8449  1.0872  2.9212
 5976SOL     OW18826   2.976   0.261   5.204  0.4744 -0.1244 -0.4200
 5976SOL    HW118827   2.962   0.254   5.105 -1.0929 -1.7454 -0.1406
 5976SOL    HW218828   2.956   0.354   5.234  0.7281  0.3216 -1.5847
 5977SOL     OW18829   1.843   2.303   2.450  0.0503  0.1036  0.2220
 5977SOL    HW118830   1.869   2.385   2.399  0.3861  0.2613  0.6448
 5977SOL    HW218831   1.751   2.314   2.487  0.5651  0.7988  1.3250
 5978SOL     OW18832   3.841   1.654   0.118  0.4601  0.0589 -0.1553
 5978SOL    HW118833   3.908   1.579   0.119  2.3285  1.3894 -4.1025
 5978SOL    HW218834   3.879   1.733   0.165 -0.3409 -0.5306  1.5558
 5979SOL     OW18835   1.860   4.441   5.435  0.3146 -0.2984  0.7460
 5979SOL    HW118836   1.849   4.366   5.369  0.4202 -0.3000  0.7295
 5979SOL    HW218837   1.845   4.407   5.527 -1.5114  0.0568  0.6119
 5980SOL     OW18838   6.566   5.330   2.162 -0.0309  0.0091 -0.4504
 5980SOL    HW118839   6.561   5.412   2.218  0.4004  0.0600 -0.4821
 5980SOL    HW218840   6.654   5.326   2.115 -0.8104  0.5553 -2.0438
 5981SOL     OW18841   0.699   5.607   0.460  0.1364 -0.2089  0.3263
 5981SOL    HW118842   0.702   5.660   0.375  0.6582 -1.8180 -0.7232
 5981SOL    HW218843   0.632   5.533   0.450 -0.9725  0.5317  1.9498
 5982SOL     OW18844   0.237   1.416   2.729  0.1570 -0.1429  0.1604
 5982SOL    HW118845   0.227   1.353   2.653  0.3568  0.1704 -0.1310
 5982SOL    HW218846   0.217   1.509   2.698 -2.0976 -0.2748  1.0339
 5983SOL     OW18847   6.637   1.123   5.333 -0.6522  0.2506 -0.7946
 5983SOL    HW118848   6.568   1.189   5.361  0.6643  0.8464  1.2911
 5983SOL    HW218849   6.681   1.154   5.249 -2.2389  0.3215 -1.6398
 5984SOL     OW18850   2.049   3.548   1.072  0.1359 -0.0716 -0.2347
 5984SOL    HW118851   1.967   3.568   1.125 -0.0473 -1.9545  0.2361
 5984SOL    HW218852   2.030   3.475   1.007  1.1828  0.1482 -0.8109
 5985SOL     OW18853   0.326   6.962   2.209 -0.3789 -0.1985  0.2965
 5985SOL    HW118854   0.242   6.909   2.192 -0.0349  0.0154 -2.4784
 5985SOL    HW218855   0.398   6.931   2.147  0.6092  1.8167  0.3582
 5986SOL     OW18856   1.229   6.929   6.547  0.0650  0.4218 -0.4483
 5986SOL    HW118857   1.231   6.887   6.637  1.4351  1.6925  0.1479
 5986SOL    HW218858   1.247   6.859   6.477 -2.0805 -0.7941  0.0984
 5987SOL     OW18859   0.198   4.132   3.742  0.1946  0.4401 -0.1002
 5987SOL    HW118860   0.118   4.103   3.690 -0.1873 -0.8288  1.1423
 5987SOL    HW218861   0.170   4.184   3.823  0.6286  0.2459  0.1835
 5988SOL     OW18862   3.319   1.642   1.994  0.1346  0.7310 -0.1580
 5988SOL    HW118863   3.383   1.647   1.918 -0.8707 -0.8261 -1.1741
 5988SOL    HW218864   3.239   1.698   1.975  0.1569  0.8351  0.0477
 5989SOL     OW18865   5.628   0.737   6.289  0.6958 -0.1668  0.1623
 5989SOL    HW118866   5.553   0.741   6.223  0.2630 -0.8428  0.6124
 5989SOL    HW218867   5.603   0.679   6.366  1.6188 -0.2837  0.3925
 5990SOL     OW18868   1.475   4.684   6.993 -0.3228  0.4039 -0.2132
 5990SOL    HW118869   1.507   4.651   7.082 -1.4713  0.2513  0.1681
 5990SOL    HW218870   1.551   4.723   6.942  0.3202  0.6757  0.9259
 5991SOL     OW18871   2.775   3.747   1.424  0.0672  0.1458 -0.5153
 5991SOL    HW118872   2.686   3.750   1.469  0.8908 -1.0684  1.3635
 5991SOL    HW218873   2.823   3.833   1.438  0.1025 -0.0313  0.5757
 5992SOL     OW18874   0.630   2.223   6.588 -0.1766  0.6781 -0.6163
 5992SOL    HW118875   0.706   2.280   6.555  0.4435  0.1979 -0.0553
 5992SOL    HW218876   0.659   2.174   6.670 -1.5751  1.6232  0.4933
 5993SOL     OW18877   5.482   0.323   1.503 -0.2425  0.2473  0.2211
 5993SOL    HW118878   5.472   0.360   1.410  1.3381  1.0886  0.3333
 5993SOL    HW218879   5.393   0.294   1.537 -1.1131  1.3634 -0.9738
 5994SOL     OW18880   6.013   1.842   4.540 -0.6169  0.6040 -0.3279
 5994SOL    HW118881   5.939   1.831   4.606  1.1732 -0.6100  1.6171
 5994SOL    HW218882   6.098   1.805   4.579  0.8767  1.2803 -2.7303
 5995SOL     OW18883   1.578   0.210   6.739  0.4135  0.0213 -0.2997
 5995SOL    HW118884   1.634   0.127   6.734 -1.3511 -1.3091  0.8927
 5995SOL    HW218885   1.579   0.245   6.833 -1.1948 -0.3666 -0.1201
 5996SOL     OW18886   3.239   2.052   2.331 -0.1217 -0.0552 -0.3440
 5996SOL    HW118887   3.225   2.097   2.242  0.3595 -1.5723 -1.2224
 5996SOL    HW218888   3.287   1.965   2.317 -2.2291 -1.5333  1.1481
 5997SOL     OW18889   0.781   1.210   6.645 -0.2623  0.2782  0.2428
 5997SOL    HW118890   0.699   1.263   6.624 -0.9005 -1.2632 -1.3660
 5997SOL    HW218891   0.861   1.270   6.643 -1.1970  1.6006  0.8190
 5998SOL     OW18892   4.099   1.107   1.872  0.1467  0.0143  0.4006
 5998SOL    HW118893   4.153   1.110   1.955  1.5137 -1.3033 -0.4081
 5998SOL    HW218894   4.158   1.116   1.792 -0.7616 -1.7689 -0.5272
 5999SOL     OW18895   6.959   2.145   4.464 -0.8352  0.6014  0.4247
 5999SOL    HW118896   6.866   2.106   4.459 -1.3531  1.9583 -1.1938
 5999SOL    HW218897   7.006   2.105   4.543 -2.8007 -0.0863  1.3418
 6000SOL     OW18898   6.210   1.925   0.149  0.1459 -0.3988 -0.2096
 6000SOL    HW118899   6.238   1.988   0.222  0.1386  0.5930 -1.0292
 6000SOL    HW218900   6.291   1.898   0.096 -0.1773  1.2082 -1.6042
 6001SOL     OW18901   4.385   4.585   5.670 -0.3325  0.0058 -0.2498
 6001SOL    HW118902   4.451   4.557   5.740  1.5064  0.1687 -1.8266
 6001SOL    HW218903   4.301   4.532   5.681  0.2266 -0.6092  1.4989
 6002SOL     OW18904   3.666   2.963   6.494 -0.3356  0.1405  0.2462
 6002SOL    HW118905   3.690   3.052   6.531  0.7850  0.1063 -0.3474
 6002SOL    HW218906   3.614   2.975   6.409  0.4208  0.2493 -0.2121
 6003SOL     OW18907   3.426   1.629   1.285  0.3167  0.0129  0.3994
 6003SOL    HW118908   3.393   1.703   1.343 -0.4563 -1.4476  1.9329
 6003SOL    HW218909   3.506   1.587   1.328  1.4254  0.6171 -1.0034
 6004SOL     OW18910   3.051   1.760   4.641  0.1617 -0.6826  0.6825
 6004SOL    HW118911   3.085   1.788   4.731 -1.1318 -0.4938  1.1370
 6004SOL    HW218912   3.060   1.661   4.632 -0.3277 -0.7879  1.2998
 6005SOL     OW18913   0.966   2.372   0.820  0.9172  0.3734 -0.2720
 6005SOL    HW118914   0.938   2.306   0.750  1.8562 -1.1150  0.6965
 6005SOL    HW218915   1.000   2.323   0.900  1.6374  2.0517  0.5013
 6006SOL     OW18916   2.024   2.909   3.531 -0.3664 -0.4967 -0.2698
 6006SOL    HW118917   2.071   2.888   3.445  0.0881  0.4346 -0.2660
 6006SOL    HW218918   1.928   2.931   3.512 -0.0202  0.7529 -0.6974
 6007SOL     OW18919   4.838   3.750   2.848 -0.8107  0.5233  0.0347
 6007SOL    HW118920   4.921   3.806   2.838 -2.5743  3.2934 -0.1286
 6007SOL    HW218921   4.819   3.705   2.761  0.3999 -0.0154  0.0212
 6008SOL     OW18922   6.005   5.186   3.684 -0.4971  0.0988 -0.8941
 6008SOL    HW118923   5.987   5.105   3.628 -0.5567 -1.0080  0.6632
 6008SOL    HW218924   5.967   5.267   3.638  3.2587  0.0820 -4.6339
 6009SOL     OW18925   6.619   4.280   2.963  0.7917  0.5734 -0.1054
 6009SOL    HW118926   6.644   4.331   2.882  0.6997  1.7659  0.5993
 6009SOL    HW218927   6.643   4.332   3.045 -0.7583  0.2087  0.6249
 6010SOL     OW18928   5.863   6.690   3.435  0.4880  0.1990 -0.3334
 6010SOL    HW118929   5.775   6.737   3.442  0.4713 -0.0136  1.2841
 6010SOL    HW218930   5.852   6.596   3.467  1.4608  0.4167  0.7080
 6011SOL     OW18931   3.719   4.171   4.803 -0.3214 -0.0993 -0.1214
 6011SOL    HW118932   3.709   4.238   4.876 -0.5075  1.1469 -1.2622
 6011SOL    HW218933   3.629   4.147   4.767 -0.2003 -0.3434 -0.2657
 6012SOL     OW18934   1.293   2.340   0.669 -0.6612 -1.0039 -0.0811
 6012SOL    HW118935   1.209   2.343   0.615 -1.3186 -0.5743  0.9338
 6012SOL    HW218936   1.351   2.266   0.636 -1.8750 -1.9466 -0.1752
 6013SOL     OW18937   4.143   0.241   0.550 -0.3415 -0.2960 -0.3768
 6013SOL    HW118938   4.165   0.338   0.550 -2.0299  0.1305  0.0125
 6013SOL    HW218939   4.088   0.219   0.631 -0.7128 -1.3818 -0.8942
 6014SOL     OW18940   1.088   6.579   3.375 -0.2906  0.0765  0.4508
 6014SOL    HW118941   1.066   6.675   3.360 -1.2230 -0.0079  1.2326
 6014SOL    HW218942   1.074   6.528   3.290 -0.3346  0.5272  0.1866
 6015SOL     OW18943   2.601   2.864   1.654 -0.3278 -0.7858 -0.3659
 6015SOL    HW118944   2.588   2.927   1.578  0.2703 -0.7283 -0.4324
 6015SOL    HW218945   2.594   2.770   1.623 -0.6862 -0.7555 -0.3736
 6016SOL     OW18946   0.549   5.827   0.983 -0.2206 -0.1788 -0.3557
 6016SOL    HW118947   0.531   5.823   1.082  0.8261 -2.0445 -0.2064
 6016SOL    HW218948   0.585   5.739   0.952 -0.3408  0.4455 -2.3857
 6017SOL     OW18949   6.733   2.656   1.862  0.6004 -0.5898 -0.2362
 6017SOL    HW118950   6.704   2.561   1.873  3.9311 -1.8034 -0.9488
 6017SOL    HW218951   6.724   2.683   1.766 -0.0981 -0.2318 -0.0801
 6018SOL     OW18952   2.906   3.415   4.767  0.2744 -0.1225 -0.5471
 6018SOL    HW118953   2.822   3.362   4.774  0.1355  0.1869  0.2728
 6018SOL    HW218954   2.885   3.512   4.778  0.7327 -0.0433 -0.3428
 6019SOL     OW18955   1.969   2.875   4.619 -0.0843 -0.1904 -0.2035
 6019SOL    HW118956   2.062   2.908   4.604 -0.2418  1.2616  1.5740
 6019SOL    HW218957   1.970   2.778   4.643  0.9026 -0.3322 -0.8070
 6020SOL     OW18958   4.362   2.351   1.462  0.2651  0.1315 -0.3461
 6020SOL    HW118959   4.297   2.413   1.418 -1.4868 -2.2069 -1.2969
 6020SOL    HW218960   4.444   2.401   1.489 -0.1472  2.4348 -2.9417
 6021SOL     OW18961   1.397   4.404   4.061  0.1755 -0.0094  0.3207
 6021SOL    HW118962   1.347   4.395   3.975  1.0598 -3.1415  0.0073
 6021SOL    HW218963   1.345   4.362   4.135  0.0056  1.5041  1.0952
 6022SOL     OW18964   0.718   3.098   2.112  0.2321 -0.0345  0.0570
 6022SOL    HW118965   0.807   3.064   2.084 -0.0450 -0.0288 -0.8678
 6022SOL    HW218966   0.729   3.185   2.161  0.7764 -0.3820  0.5547
 6023SOL     OW18967   4.160   0.892   3.679 -0.1989  0.7904  0.1217
 6023SOL    HW118968   4.121   0.951   3.608 -0.4784  1.1144  0.5378
 6023SOL    HW218969   4.167   0.943   3.765  3.0165  1.3850 -0.3904
 6024SOL     OW18970   3.398   5.628   6.947 -0.0722 -0.2599 -0.2613
 6024SOL    HW118971   3.493   5.615   6.920 -0.1065 -1.4038  0.0974
 6024SOL    HW218972   3.338   5.611   6.868  0.0224  0.6725 -0.5421
 6025SOL     OW18973   5.083   6.215   4.270  0.5279 -0.4717  0.3161
 6025SOL    HW118974   5.082   6.311   4.297  1.6299 -0.5780  0.7830
 6025SOL    HW218975   5.164   6.171   4.307  0.2754 -1.4757 -0.2895
 6026SOL     OW18976   2.835   4.855   2.571 -0.2320 -0.7295 -0.3953
 6026SOL    HW118977   2.777   4.936   2.574  0.6311  0.0158 -1.9945
 6026SOL    HW218978   2.907   4.863   2.640 -1.4371 -1.2296  0.9705
 6027SOL     OW18979   4.730   1.027   5.777  0.0611  0.1827  0.2887
 6027SOL    HW118980   4.741   1.058   5.871 -1.4939  0.4401  0.4092
 6027SOL    HW218981   4.706   0.929   5.777 -1.5664  0.5582  0.2740
 6028SOL     OW18982   4.227   6.490   1.257  0.6248  0.1570 -0.1262
 6028SOL    HW118983   4.207   6.501   1.160  0.9619 -0.0609 -0.2226
 6028SOL    HW218984   4.230   6.580   1.302 -1.9069  0.1699  0.1772
 6029SOL     OW18985   6.213   2.164   6.415 -0.0321 -0.0516 -0.1055
 6029SOL    HW118986   6.244   2.217   6.337  1.7199  0.6991  1.0257
 6029SOL    HW218987   6.289   2.153   6.481 -1.7717  0.5649  2.1311
 6030SOL     OW18988   3.742   5.301   2.648 -0.7302 -0.5395  0.0883
 6030SOL    HW118989   3.736   5.334   2.554 -2.2548  1.3783  0.7802
 6030SOL    HW218990   3.838   5.293   2.675 -0.1232  3.2150 -0.3112
 6031SOL     OW18991   3.900   5.442   5.789  0.0013  0.4743 -0.2519
 6031SOL    HW118992   3.973   5.374   5.797 -0.9722 -0.6780 -0.9040
 6031SOL    HW218993   3.933   5.530   5.823  1.6571 -0.0380 -0.4522
 6032SOL     OW18994   6.897   5.235   1.806 -0.5364 -0.5134  0.0265
 6032SOL    HW118995   6.814   5.179   1.815 -0.0346 -1.2734 -0.0032
 6032SOL    HW218996   6.897   5.280   1.717 -1.6525  0.7151  0.6132
 6033SOL     OW18997   6.241   2.886   0.316 -0.0753 -0.1001  0.6017
 6033SOL    HW118998   6.321   2.846   0.271 -0.6557 -2.8229  1.7524
 6033SOL    HW218999   6.240   2.984   0.301  1.5015 -0.4422 -2.4651
 6034SOL     OW19000   3.828   3.708   1.169  0.4179 -0.2428  0.0377
 6034SOL    HW119001   3.791   3.708   1.077  0.6586 -0.3091 -0.0616
 6034SOL    HW219002   3.856   3.616   1.194 -2.1315 -0.7664  1.2084
 6035SOL     OW19003   2.681   1.571   2.321 -0.3391 -0.1369 -0.1141
 6035SOL    HW119004   2.772   1.541   2.351 -0.9271 -0.9594  0.8904
 6035SOL    HW219005   2.664   1.538   2.228  0.9172  1.2022 -0.8730
 6036SOL     OW19006   6.134   6.090   2.048  0.2603  0.1282 -0.2856
 6036SOL    HW119007   6.204   6.161   2.052 -0.2983  0.6338  1.4252
 6036SOL    HW219008   6.068   6.104   2.121 -1.5191 -0.4773 -1.6874
 6037SOL     OW19009   6.614   0.418   5.912 -0.3567  0.5533  0.0802
 6037SOL    HW119010   6.517   0.398   5.927  0.0810 -2.6879 -0.6025
 6037SOL    HW219011   6.652   0.459   5.995 -2.2554  1.9505  0.3445
 6038SOL     OW19012   5.954   5.362   4.594 -0.0593 -0.0563 -0.1008
 6038SOL    HW119013   5.889   5.388   4.665  0.5452 -0.6144  0.6614
 6038SOL    HW219014   5.912   5.378   4.504 -2.8630 -4.0336  0.2334
 6039SOL     OW19015   2.225   5.591   6.080 -0.2696  0.5959  0.2215
 6039SOL    HW119016   2.216   5.491   6.089  1.0694  0.4654  0.2874
 6039SOL    HW219017   2.289   5.625   6.149 -0.4053  1.4600 -0.0655
 6040SOL     OW19018   6.134   3.396   1.924 -0.0351 -0.6130  0.3278
 6040SOL    HW119019   6.183   3.480   1.949 -0.3049  0.0955 -1.4090
 6040SOL    HW219020   6.148   3.377   1.827  0.2348 -2.7483  0.7451
 6041SOL     OW19021   2.167   6.381   3.119 -0.4929 -0.1146  0.3648
 6041SOL    HW119022   2.170   6.347   3.213  1.8646 -0.6292  0.1662
 6041SOL    HW219023   2.153   6.480   3.120 -1.8575 -0.2852  1.1683
 6042SOL     OW19024   0.529   4.395   6.621 -0.1778  0.0763  0.2066
 6042SOL    HW119025   0.520   4.396   6.521  0.7636  0.7758  0.1140
 6042SOL    HW219026   0.483   4.475   6.659  0.1471  0.2348  0.2654
 6043SOL     OW19027   3.079   5.132   0.620 -0.7482  0.0244  0.1738
 6043SOL    HW119028   3.021   5.115   0.700  0.6634 -0.5098  1.1379
 6043SOL    HW219029   3.142   5.054   0.608 -0.4534  0.4303 -1.0270
 6044SOL     OW19030   6.700   1.805   0.545  0.2141 -0.4332  0.1132
 6044SOL    HW119031   6.617   1.842   0.586 -0.5242 -0.3407 -1.4197
 6044SOL    HW219032   6.713   1.710   0.576  0.6082  0.1443  1.8516
 6045SOL     OW19033   4.693   6.824   1.993  0.4440  0.4748  0.3881
 6045SOL    HW119034   4.740   6.821   2.081 -0.1376  0.0554  0.6913
 6045SOL    HW219035   4.604   6.779   2.001  0.4796  0.2327 -0.4717
 6046SOL     OW19036   5.042   5.602   6.831  0.2586  0.2174 -0.3428
 6046SOL    HW119037   5.057   5.696   6.860 -0.8761 -0.1836  1.7188
 6046SOL    HW219038   5.097   5.540   6.886  0.2761 -0.4080 -1.0397
 6047SOL     OW19039   2.886   0.229   1.108  0.9519 -0.2429 -0.4873
 6047SOL    HW119040   2.817   0.300   1.122  1.4205  0.0729  0.3290
 6047SOL    HW219041   2.917   0.195   1.198  1.4263 -0.7968 -0.8524
 6048SOL     OW19042   4.953   6.324   5.005  0.3473  0.4971 -0.0670
 6048SOL    HW119043   4.930   6.233   5.039 -0.8333 -0.3178 -2.7320
 6048SOL    HW219044   5.037   6.319   4.952  0.7161  1.1437  0.4534
 6049SOL     OW19045   0.019   5.731   5.882 -0.1551 -0.0784 -0.0935
 6049SOL    HW119046   0.022   5.722   5.783  0.1814  1.5283 -0.2596
 6049SOL    HW219047   0.096   5.786   5.913 -0.1715 -0.6778  1.0915
 6050SOL     OW19048   2.208   1.217   5.117 -0.3126 -0.0061 -0.3257
 6050SOL    HW119049   2.241   1.308   5.139 -1.9161  0.3962  0.6090
 6050SOL    HW219050   2.127   1.196   5.173 -1.6455 -0.8841 -2.4316
 6051SOL     OW19051   0.643   4.762   3.943 -0.1333  0.4554  0.5664
 6051SOL    HW119052   0.698   4.758   3.859 -0.0024  0.2981  0.6601
 6051SOL    HW219053   0.547   4.746   3.920 -0.4188  2.4748  0.1446
 6052SOL     OW19054   4.250   1.258   1.182  0.3313  0.3806 -0.1842
 6052SOL    HW119055   4.313   1.238   1.107  1.1209 -0.5855  0.7055
 6052SOL    HW219056   4.230   1.174   1.232 -0.5162  0.9355  0.4388
 6053SOL     OW19057   0.151   6.181   2.449 -0.1571  0.5221  0.0770
 6053SOL    HW119058   0.197   6.230   2.375 -0.7701 -0.6668 -1.1524
 6053SOL    HW219059   0.139   6.241   2.528 -0.7663  2.2877 -1.3000
 6054SOL     OW19060   1.173   1.601   2.641  0.0700 -0.9245 -0.0556
 6054SOL    HW119061   1.267   1.597   2.607  1.3786 -0.1546  3.0313
 6054SOL    HW219062   1.155   1.521   2.698  0.5574  0.9103  2.9344
 6055SOL     OW19063   2.368   0.154   5.753 -0.1980 -0.4967 -0.0932
 6055SOL    HW119064   2.467   0.161   5.763 -0.4252  1.6402  1.2447
 6055SOL    HW219065   2.342   0.173   5.658  0.6350 -1.0962 -0.4587
 6056SOL     OW19066   0.702   3.892   3.569  0.5643 -0.7354 -0.0182
 6056SOL    HW119067   0.667   3.829   3.638  1.7779 -1.9858 -0.5038
 6056SOL    HW219068   0.703   3.847   3.480 -0.8320  0.7981 -0.8745
 6057SOL     OW19069   0.756   4.915   4.146 -0.5942 -0.2271 -0.1288
 6057SOL    HW119070   0.747   4.858   4.064  1.6043 -1.9846  0.7535
 6057SOL    HW219071   0.697   4.878   4.218 -1.0985  0.1787 -0.3285
 6058SOL     OW19072   6.976   2.316   1.424 -0.6407 -0.0755  0.0576
 6058SOL    HW119073   6.911   2.391   1.416 -0.4808 -0.1073 -2.3581
 6058SOL    HW219074   7.069   2.352   1.425 -0.5192 -0.2008 -2.0641
 6059SOL     OW19075   3.861   1.199   5.470  0.4871  0.1636 -0.5168
 6059SOL    HW119076   3.894   1.281   5.517  1.2162 -1.4512  1.9736
 6059SOL    HW219077   3.761   1.196   5.473  0.3070  1.8016 -2.3052
 6060SOL     OW19078   5.227   4.022   6.658 -0.6055  0.1680 -0.6442
 6060SOL    HW119079   5.146   4.030   6.715  0.6405  0.0102  1.2240
 6060SOL    HW219080   5.259   3.927   6.659  0.4992  0.5358 -0.0643
 6061SOL     OW19081   6.150   2.631   4.667 -0.4280 -0.0251 -0.4711
 6061SOL    HW119082   6.115   2.702   4.606  0.4646  0.0560 -0.8916
 6061SOL    HW219083   6.128   2.541   4.628 -1.1813  0.0080 -0.1496
 6062SOL     OW19084   4.566   6.107   2.714  0.0714 -0.5486  0.6808
 6062SOL    HW119085   4.524   6.100   2.623  0.8705 -0.3330  0.2818
 6062SOL    HW219086   4.633   6.034   2.725  0.3334 -0.2756  0.9062
 6063SOL     OW19087   3.776   3.882   0.593 -0.5451 -0.0941  0.2753
 6063SOL    HW119088   3.771   3.878   0.493 -0.4311  0.7410  0.2301
 6063SOL    HW219089   3.700   3.831   0.632 -1.5833  1.0000 -0.2672
 6064SOL     OW19090   0.251   0.829   5.762  0.6474  0.1035 -0.2306
 6064SOL    HW119091   0.302   0.796   5.682  1.6824 -2.5108  1.3658
 6064SOL    HW219092   0.171   0.880   5.731  1.9501  0.7568 -2.8823
 6065SOL     OW19093   0.060   5.363   0.828 -0.2305 -0.1810 -0.2503
 6065SOL    HW119094   0.079   5.275   0.872  1.7129  0.9813  1.4454
 6065SOL    HW219095  -0.039   5.374   0.819 -0.5304 -2.5901 -0.7012
 6066SOL     OW19096   2.250   4.338   0.255 -0.2233 -0.1845  0.2099
 6066SOL    HW119097   2.249   4.294   0.165  1.7330 -0.3017  0.1987
 6066SOL    HW219098   2.180   4.297   0.313 -1.2313 -0.4093 -1.1049
 6067SOL     OW19099   0.288   1.437   7.007  0.1278  0.3556  0.1335
 6067SOL    HW119100   0.228   1.414   6.930  0.6572  3.0231 -1.1980
 6067SOL    HW219101   0.233   1.459   7.087 -0.4929 -0.9204  0.0796
 6068SOL     OW19102   1.627   1.931   2.126  0.4574  0.0459 -0.7149
 6068SOL    HW119103   1.588   1.844   2.155  0.0209 -0.1781 -1.8913
 6068SOL    HW219104   1.704   1.954   2.185  1.2386 -1.6560 -0.9968
 6069SOL     OW19105   0.491   5.472   1.198  0.0740 -0.0772 -0.2548
 6069SOL    HW119106   0.474   5.389   1.146 -0.0416  1.2477 -2.4729
 6069SOL    HW219107   0.418   5.538   1.183  1.5527  1.5061 -0.9396
 6070SOL     OW19108   2.748   0.946   4.936  0.0073  0.2944  0.6816
 6070SOL    HW119109   2.677   1.011   4.963  0.4542  1.5814 -1.0682
 6070SOL    HW219110   2.742   0.930   4.837  0.9637 -1.0736  0.8178
 6071SOL     OW19111   6.611   3.974   6.019  0.0156 -0.5911 -0.7178
 6071SOL    HW119112   6.558   4.051   5.982  0.9953 -0.5068 -2.0327
 6071SOL    HW219113   6.551   3.894   6.027 -0.5417 -0.2427 -1.2616
 6072SOL     OW19114   2.265   1.259   2.889 -0.0916  0.0490  0.2473
 6072SOL    HW119115   2.345   1.202   2.904  0.9885  1.0914 -1.2259
 6072SOL    HW219116   2.280   1.317   2.809 -1.5554  1.6773  1.0885
 6073SOL     OW19117   3.760   3.076   1.112 -0.3597  0.3606 -0.0758
 6073SOL    HW119118   3.768   3.047   1.017 -0.7648  1.0026 -0.3089
 6073SOL    HW219119   3.727   3.000   1.168 -0.0271 -0.0448 -0.4289
 6074SOL     OW19120   0.778   5.719   1.961  0.2743 -0.2003  0.4008
 6074SOL    HW119121   0.702   5.721   2.026  0.8109  0.8356  1.0282
 6074SOL    HW219122   0.742   5.721   1.868 -0.4824 -0.6011  0.6737
 6075SOL     OW19123   4.759   6.502   6.454 -0.3357 -0.1714 -0.4579
 6075SOL    HW119124   4.736   6.409   6.481  1.4924 -0.1840  1.2733
 6075SOL    HW219125   4.783   6.555   6.535  0.0503  1.4066 -1.5597
 6076SOL     OW19126   6.524   4.472   1.435 -0.7935  0.4254 -0.6911
 6076SOL    HW119127   6.461   4.484   1.358 -1.3143 -0.6727 -0.4596
 6076SOL    HW219128   6.538   4.374   1.451  0.5877  0.6399 -0.4164
 6077SOL     OW19129   1.595   2.305   5.871 -0.0611  0.0244  0.0193
 6077SOL    HW119130   1.682   2.256   5.868  0.1895  0.5087 -1.0879
 6077SOL    HW219131   1.530   2.263   5.807 -0.6415 -0.3117  0.8093
 6078SOL     OW19132   3.420   5.704   3.977 -0.1186  0.0519 -0.4300
 6078SOL    HW119133   3.488   5.719   3.905  0.2651 -2.6999 -0.7412
 6078SOL    HW219134   3.376   5.615   3.963 -3.5125  1.4941  0.0380
 6079SOL     OW19135   1.788   6.574   1.306  0.1851  0.0726  0.2122
 6079SOL    HW119136   1.726   6.559   1.229 -0.3548  0.2586  0.6047
 6079SOL    HW219137   1.849   6.495   1.316  0.1721 -0.0064 -0.3205
 6080SOL     OW19138   6.393   1.724   6.782  0.0540 -0.2104 -0.0963
 6080SOL    HW119139   6.343   1.726   6.696 -0.1529  3.6588 -0.0527
 6080SOL    HW219140   6.331   1.693   6.855 -0.5439 -1.0101 -0.9210
 6081SOL     OW19141   0.846   0.690   3.205  0.6624 -0.3155 -0.0431
 6081SOL    HW119142   0.873   0.632   3.282  1.1817 -1.5162 -1.0778
 6081SOL    HW219143   0.788   0.764   3.237 -0.1330 -1.4829  1.3356
 6082SOL     OW19144   1.841   4.533   2.706 -0.1731 -0.5125  0.1127
 6082SOL    HW119145   1.789   4.462   2.661 -1.4097 -0.0528  0.7710
 6082SOL    HW219146   1.806   4.547   2.798  0.1461  0.8368  0.0506
 6083SOL     OW19147   0.192   2.944   2.125 -0.4903 -0.5242 -0.8444
 6083SOL    HW119148   0.217   2.871   2.062  0.7587 -0.2468 -0.6976
 6083SOL    HW219149   0.242   3.027   2.101 -1.1339  0.0002 -0.3976
 6084SOL     OW19150   1.573   4.502   0.831 -0.2278  0.8160  0.3230
 6084SOL    HW119151   1.504   4.450   0.780  0.4430  0.3133 -0.0873
 6084SOL    HW219152   1.613   4.444   0.902 -0.0716  1.0447  0.4243
 6085SOL     OW19153   1.331   2.519   6.812 -0.2777 -0.0552  0.1577
 6085SOL    HW119154   1.257   2.498   6.876 -1.2814  0.9265 -0.6462
 6085SOL    HW219155   1.331   2.452   6.738  0.1710 -0.5286  0.5748
 6086SOL     OW19156   0.899   3.258   2.989 -0.1631  0.0598 -0.2049
 6086SOL    HW119157   0.932   3.296   3.076 -1.3585  0.8646 -0.0728
 6086SOL    HW219158   0.851   3.330   2.938 -0.3226 -0.6618 -1.0878
 6087SOL     OW19159   3.778   5.440   2.389 -0.0069  0.2226 -0.5086
 6087SOL    HW119160   3.846   5.493   2.338  0.5352  0.4316  0.4169
 6087SOL    HW219161   3.740   5.370   2.329  1.2040 -0.0651 -0.9801
 6088SOL     OW19162   1.994   6.221   2.949 -0.2921  0.0461  0.5308
 6088SOL    HW119163   2.012   6.234   2.852 -0.8378 -1.0394  0.2690
 6088SOL    HW219164   2.026   6.301   3.000  0.4033  0.4310 -0.4830
 6089SOL     OW19165   2.643   0.382   6.199  0.0872  0.2531  0.2189
 6089SOL    HW119166   2.693   0.462   6.166  0.9154 -0.0332  0.7572
 6089SOL    HW219167   2.610   0.398   6.292 -1.7448  0.8362 -0.4895
 6090SOL     OW19168   6.151   6.609   4.402 -0.2034  0.0401 -0.4692
 6090SOL    HW119169   6.079   6.542   4.384 -0.5191  0.3031 -0.1988
 6090SOL    HW219170   6.236   6.561   4.425  0.1123 -0.3099 -2.1967
 6091SOL     OW19171   0.428   5.885   1.876  0.3310 -0.8455  0.4486
 6091SOL    HW119172   0.521   5.922   1.875  0.7644 -1.9074  0.7070
 6091SOL    HW219173   0.370   5.939   1.814  1.5668 -1.3209 -1.1914
 6092SOL     OW19174   3.669   0.763   4.783 -0.3070  0.0944  0.4325
 6092SOL    HW119175   3.573   0.734   4.778 -0.9042  1.7750  1.2394
 6092SOL    HW219176   3.689   0.794   4.876  0.4284  1.6090 -0.2025
 6093SOL     OW19177   6.804   3.323   2.740  0.1197  0.0795 -0.0850
 6093SOL    HW119178   6.705   3.332   2.734  0.1540  0.0042 -0.8560
 6093SOL    HW219179   6.827   3.247   2.801 -0.2594  1.0956  1.3772
 6094SOL     OW19180   2.065   3.557   0.570  0.2167  0.5572  0.2254
 6094SOL    HW119181   2.155   3.600   0.563  0.2897  0.1826 -1.4899
 6094SOL    HW219182   2.014   3.573   0.486 -0.2423 -1.5843  0.0514
 6095SOL     OW19183   6.141   0.840   4.804  0.0189 -0.2992 -0.5234
 6095SOL    HW119184   6.233   0.877   4.815 -0.0041  0.2861 -2.0455
 6095SOL    HW219185   6.106   0.864   4.713 -1.8790  0.0347  0.2460
 6096SOL     OW19186   1.354   3.713   3.319  0.0826  0.0195 -0.0055
 6096SOL    HW119187   1.304   3.627   3.320 -0.8187  0.5043  2.2590
 6096SOL    HW219188   1.429   3.709   3.385 -0.4766  1.2199  0.7524
 6097SOL     OW19189   0.131   6.481   6.697  0.0875 -0.3409  0.0234
 6097SOL    HW119190   0.226   6.487   6.668  0.0156 -1.0812 -0.3859
 6097SOL    HW219191   0.109   6.559   6.756  0.6408  0.4072 -0.7395
 6098SOL     OW19192   3.024   3.460   5.143 -0.3815 -0.2873  0.0222
 6098SOL    HW119193   3.040   3.375   5.093 -0.6102  0.8686 -2.1412
 6098SOL    HW219194   2.928   3.464   5.172 -0.9972  0.2497 -1.9828
 6099SOL     OW19195   4.412   3.525   1.650 -0.7217  0.1287 -0.6142
 6099SOL    HW119196   4.463   3.589   1.594  0.5869  0.2809  0.7024
 6099SOL    HW219197   4.341   3.574   1.701  0.5573  0.6589  0.7242
 6100SOL     OW19198   0.106   2.819   5.482 -0.5111  0.5206  0.3661
 6100SOL    HW119199   0.022   2.871   5.467 -1.1293 -0.5684 -0.0170
 6100SOL    HW219200   0.090   2.746   5.547 -0.5141 -1.1463 -1.4095
 6101SOL     OW19201   4.486   1.156   6.583 -0.1480  0.2868 -0.1700
 6101SOL    HW119202   4.544   1.083   6.620  1.3309  2.2129  1.5347
 6101SOL    HW219203   4.423   1.188   6.654 -0.2595  1.1529 -0.6464
 6102SOL     OW19204   5.628   2.995   4.065 -0.3425 -0.1124  0.3089
 6102SOL    HW119205   5.573   3.004   4.147 -0.6648 -0.4141  0.1277
 6102SOL    HW219206   5.638   3.085   4.021  0.7972  0.2750  1.2828
 6103SOL     OW19207   2.499   2.579   1.247  0.0882 -0.0249 -0.5731
 6103SOL    HW119208   2.420   2.589   1.188 -0.4898  1.5854  0.4278
 6103SOL    HW219209   2.473   2.532   1.331  0.1770  0.5273 -0.2303
 6104SOL     OW19210   4.472   5.329   1.053 -0.1712  0.1119  0.1644
 6104SOL    HW119211   4.546   5.277   1.009 -0.1514 -0.5198  0.9210
 6104SOL    HW219212   4.385   5.284   1.035 -0.5350  1.4043 -1.5741
 6105SOL     OW19213   5.691   5.975   4.542  0.2681 -0.0695 -0.2418
 6105SOL    HW119214   5.751   5.895   4.538  2.3404  1.3685  0.1152
 6105SOL    HW219215   5.651   5.983   4.633  2.0550  0.6018  0.5296
 6106SOL     OW19216   1.630   2.918   5.447  0.0009  0.4396 -0.1417
 6106SOL    HW119217   1.676   2.977   5.380  0.5638 -0.4437 -0.5401
 6106SOL    HW219218   1.535   2.905   5.420  0.0115  0.7295 -0.3301
 6107SOL     OW19219   2.745   6.085   0.178  0.3099  0.0866  0.2536
 6107SOL    HW119220   2.671   6.024   0.149  0.3553 -0.9638  2.2267
 6107SOL    HW219221   2.717   6.136   0.259  2.2328 -1.4827  2.0135
 6108SOL     OW19222   5.326   0.489   6.247 -0.3157  0.0873 -0.3526
 6108SOL    HW119223   5.355   0.576   6.206  2.2969  0.7249  2.4959
 6108SOL    HW219224   5.374   0.414   6.201  0.7057  0.5601 -0.0911
 6109SOL     OW19225   3.047   4.266   1.299 -0.3858  0.4976 -0.1919
 6109SOL    HW119226   3.059   4.203   1.376 -2.8813  0.3092  0.1166
 6109SOL    HW219227   3.018   4.215   1.218  1.9758  0.7316 -1.2604
 6110SOL     OW19228   6.778   2.458   0.773 -0.2153  0.5568  0.1342
 6110SOL    HW119229   6.763   2.411   0.686  0.2784  2.4244 -1.0044
 6110SOL    HW219230   6.690   2.472   0.819 -0.5801  0.3319 -0.4828
 6111SOL     OW19231   0.116   1.473   0.194 -0.1974  0.0961  0.1721
 6111SOL    HW119232   0.105   1.381   0.232 -3.2938  0.5642  0.6701
 6111SOL    HW219233   0.135   1.537   0.268  4.3074 -0.2523 -0.3739
 6112SOL     OW19234   2.845   5.763   6.600  0.1810  0.6209  0.0011
 6112SOL    HW119235   2.773   5.708   6.559  0.0712 -0.1803  1.2285
 6112SOL    HW219236   2.806   5.823   6.670  0.8157 -0.7487  1.6106
 6113SOL     OW19237   5.416   2.277   6.445  0.3721  0.1579  0.5275
 6113SOL    HW119238   5.437   2.277   6.543  0.5114 -0.9045  0.5087
 6113SOL    HW219239   5.379   2.188   6.419  0.0091  0.5500 -0.3198
 6114SOL     OW19240   6.227   4.041   6.477  0.0161  0.0452 -0.1876
 6114SOL    HW119241   6.167   3.974   6.522  0.6836  0.4204  1.3326
 6114SOL    HW219242   6.184   4.131   6.481  0.5539  0.2767  0.7173
 6115SOL     OW19243   1.764   3.402   6.388  0.2912  0.3874 -0.2437
 6115SOL    HW119244   1.666   3.400   6.405  0.1923  0.5218 -0.7742
 6115SOL    HW219245   1.813   3.405   6.475 -0.1490 -0.4224  0.0404
 6116SOL     OW19246   0.896   5.957   4.342  0.5875 -0.3935  0.3921
 6116SOL    HW119247   0.858   5.916   4.258  2.7965 -0.4385 -0.6364
 6116SOL    HW219248   0.921   5.884   4.406  0.1625 -0.4131  0.5422
 6117SOL     OW19249   5.216   5.741   0.478 -0.6182  0.0970 -0.5807
 6117SOL    HW119250   5.182   5.770   0.568  1.5821  2.9910 -0.5360
 6117SOL    HW219251   5.272   5.659   0.488 -0.1370  0.5687  0.7626
 6118SOL     OW19252   3.847   6.822   4.687 -0.3471 -0.0379 -0.7437
 6118SOL    HW119253   3.767   6.878   4.709 -0.3330  0.2321 -1.3619
 6118SOL    HW219254   3.921   6.881   4.655 -0.6144 -0.4678 -2.2236
 6119SOL     OW19255   6.210   0.328   3.571  0.1331 -0.3677 -0.0527
 6119SOL    HW119256   6.285   0.351   3.509 -1.0166  2.9560 -0.3909
 6119SOL    HW219257   6.140   0.277   3.520  1.3867 -2.0797 -0.1335
 6120SOL     OW19258   1.694   0.325   6.961  0.2843 -0.3746 -0.2877
 6120SOL    HW119259   1.692   0.274   7.047  0.0600  2.3415  1.4065
 6120SOL    HW219260   1.789   0.339   6.932  0.4081 -0.1242  0.2405
 6121SOL     OW19261   1.106   4.906   5.437 -0.0938  0.5182  0.5938
 6121SOL    HW119262   1.172   4.903   5.512 -0.1890 -0.4990  0.6468
 6121SOL    HW219263   1.053   4.991   5.442  0.2298  0.6772  1.3886
 6122SOL     OW19264   4.494   4.909   1.850  0.2038 -0.3435  0.4743
 6122SOL    HW119265   4.450   4.857   1.923  0.9758  0.4456  1.5162
 6122SOL    HW219266   4.428   4.974   1.811 -0.2678 -0.9097  0.2950
 6123SOL     OW19267   2.198   0.176   1.320  0.1828  0.0912 -0.4461
 6123SOL    HW119268   2.204   0.079   1.344 -1.3515 -0.1134 -0.8014
 6123SOL    HW219269   2.116   0.192   1.265  0.9599  1.4221 -1.2751
 6124SOL     OW19270   5.583   4.775   1.310  0.0640  0.1915 -0.3080
 6124SOL    HW119271   5.500   4.826   1.289 -1.7036 -1.8059  1.3976
 6124SOL    HW219272   5.619   4.804   1.399 -0.3003 -0.6773  0.1381
 6125SOL     OW19273   6.409   7.014   3.227  0.4550 -0.0307 -0.1469
 6125SOL    HW119274   6.339   7.085   3.233  0.6875  0.3830 -1.9943
 6125SOL    HW219275   6.366   6.924   3.235 -0.0300  0.2485  0.5805
 6126SOL     OW19276   0.616   6.899   3.858 -0.2622 -0.4974 -0.6589
 6126SOL    HW119277   0.693   6.961   3.842  0.9417 -1.4136  1.1750
 6126SOL    HW219278   0.634   6.845   3.940 -3.7687  0.6252  1.0103
 6127SOL     OW19279   4.630   1.893   3.905  0.1335 -1.0024  0.0791
 6127SOL    HW119280   4.644   1.922   3.999  0.6654 -2.1200  0.3574
 6127SOL    HW219281   4.700   1.936   3.847  1.2129 -2.0439  0.5616
 6128SOL     OW19282   5.055   2.890   0.775 -0.2633  0.0065 -0.3466
 6128SOL    HW119283   5.090   2.832   0.848  1.1295 -0.7391 -1.5530
 6128SOL    HW219284   5.070   2.986   0.799 -2.3622 -0.0704  1.5526
 6129SOL     OW19285   6.065   5.502   0.053  0.2416 -0.2174  0.6429
 6129SOL    HW119286   6.110   5.539  -0.028 -0.6622 -0.1645  0.1462
 6129SOL    HW219287   6.134   5.474   0.120  1.1736 -3.1372 -1.3611
 6130SOL     OW19288   5.575   0.196   2.602  0.4094 -0.4604  0.1195
 6130SOL    HW119289   5.506   0.221   2.534  0.2855  0.4915  0.5725
 6130SOL    HW219290   5.666   0.218   2.566  0.2802  1.0703  0.6544
 6131SOL     OW19291   2.462   5.587   5.030  0.1659 -0.3427 -0.4385
 6131SOL    HW119292   2.457   5.552   4.937  1.7153  0.5231 -0.8754
 6131SOL    HW219293   2.379   5.560   5.080 -0.6318 -0.9291 -2.0045
 6132SOL     OW19294   1.931   3.256   0.198 -0.0352  0.0973 -0.3171
 6132SOL    HW119295   1.896   3.323   0.263  1.1832  0.2797  0.1710
 6132SOL    HW219296   1.854   3.212   0.151 -1.0474 -1.2261  2.3916
 6133SOL     OW19297   4.428   0.092   6.019 -0.0957 -0.8126  0.1167
 6133SOL    HW119298   4.369   0.088   6.100 -1.1879  0.6912 -0.5617
 6133SOL    HW219299   4.493   0.016   6.021  1.6525  0.5775  3.7189
 6134SOL     OW19300   2.913   1.720   4.169  0.8797 -0.4325  0.1142
 6134SOL    HW119301   2.904   1.641   4.229  1.2642  0.5629  1.5206
 6134SOL    HW219302   2.992   1.706   4.108  1.9431 -0.4686  1.4487
 6135SOL     OW19303   6.831   3.919   3.156 -0.2548 -0.4553  0.1835
 6135SOL    HW119304   6.826   3.986   3.082 -0.2558  0.7157  1.2128
 6135SOL    HW219305   6.773   3.841   3.134 -2.1013  0.9096 -0.0161
 6136SOL     OW19306   0.058   4.046   0.058 -0.3171  0.5030  0.3562
 6136SOL    HW119307   0.135   4.059   0.120 -0.3581  0.4517  0.4180
 6136SOL    HW219308   0.000   3.971   0.092 -0.2971  0.4232  0.2162
 6137SOL     OW19309   3.355   1.404   4.964 -0.2158 -0.5437  0.2058
 6137SOL    HW119310   3.406   1.320   4.944  0.7181 -0.4868  2.1250
 6137SOL    HW219311   3.341   1.412   5.063 -0.0127  1.6994  0.1085
 6138SOL     OW19312   3.957   2.598   6.052 -0.4930 -0.2492 -0.0869
 6138SOL    HW119313   3.950   2.537   5.972 -0.7400  0.9637 -1.0227
 6138SOL    HW219314   4.023   2.560   6.116 -0.6516 -1.5132 -0.6252
 6139SOL     OW19315   4.683   5.074   2.570 -0.0307  0.4809 -0.3017
 6139SOL    HW119316   4.675   5.017   2.488  0.7012 -0.3854  0.2130
 6139SOL    HW219317   4.777   5.105   2.581 -0.3041  1.3415 -0.2581
 6140SOL     OW19318   5.047   3.684   5.453  0.2091  0.3285  0.6975
 6140SOL    HW119319   5.006   3.594   5.434  1.1024 -0.1573  1.0024
 6140SOL    HW219320   5.138   3.671   5.491  0.7600  1.4014 -0.2151
 6141SOL     OW19321   3.050   6.073   5.611 -0.0701 -0.4408  0.0727
 6141SOL    HW119322   3.064   6.101   5.706 -1.3365  0.6633 -0.0457
 6141SOL    HW219323   3.086   5.980   5.599  0.7948 -0.3166  1.4225
 6142SOL     OW19324   1.232   3.618   2.968  0.0057  0.1271 -0.4436
 6142SOL    HW119325   1.146   3.618   3.019 -0.1034  0.0524 -0.6239
 6142SOL    HW219326   1.284   3.701   2.988 -0.2211  0.2878 -0.5227
 6143SOL     OW19327   4.275   5.044   0.780 -0.2151  0.6302  0.0108
 6143SOL    HW119328   4.368   5.007   0.783 -0.7575 -0.7473  2.7136
 6143SOL    HW219329   4.225   5.000   0.706  0.5731 -0.5292  0.1234
 6144SOL     OW19330   6.466   6.578   0.994 -0.0862  0.1081 -0.0245
 6144SOL    HW119331   6.504   6.567   1.086  1.7907  0.7444 -0.6762
 6144SOL    HW219332   6.379   6.530   0.988 -0.4094  0.3191  2.1672
 6145SOL     OW19333   6.820   0.816   3.998  0.5958  0.3564  0.2466
 6145SOL    HW119334   6.890   0.820   4.069 -0.8881 -1.5997  1.9422
 6145SOL    HW219335   6.744   0.877   4.023  0.7947  0.9644 -0.5778
 6146SOL     OW19336   5.871   4.794   0.652 -0.3250  0.1582 -0.0631
 6146SOL    HW119337   5.833   4.772   0.741  1.4456 -1.7083  0.2770
 6146SOL    HW219338   5.970   4.785   0.654 -0.2004  0.5606 -2.0945
 6147SOL     OW19339   2.483   6.781   4.506  0.4405 -0.5223  0.1899
 6147SOL    HW119340   2.538   6.708   4.466  1.2194 -0.0528  0.3911
 6147SOL    HW219341   2.390   6.747   4.522  0.0844 -0.7534 -1.9783
 6148SOL     OW19342   4.339   1.394   4.980  0.1267  0.0741 -0.1232
 6148SOL    HW119343   4.438   1.393   4.981  0.1248 -0.9906  0.5899
 6148SOL    HW219344   4.304   1.421   5.070 -0.2417  1.1979 -0.5826
 6149SOL     OW19345   2.728   4.984   6.320 -0.7424  0.0148 -0.0985
 6149SOL    HW119346   2.823   5.002   6.296 -1.0598 -1.0912 -2.5473
 6149SOL    HW219347   2.723   4.939   6.409  0.8211  1.8491  0.9846
 6150SOL     OW19348   1.032   2.597   6.155 -0.5084 -0.3917 -0.5144
 6150SOL    HW119349   0.941   2.568   6.129 -1.4920  0.3645  1.8054
 6150SOL    HW219350   1.070   2.533   6.222  0.0554  0.0717 -0.3797
 6151SOL     OW19351   5.603   2.231   4.074 -0.7193 -0.0588 -0.0892
 6151SOL    HW119352   5.697   2.227   4.107 -0.8493  0.5197  0.3776
 6151SOL    HW219353   5.569   2.138   4.058 -0.9967 -0.4627  2.4576
 6152SOL     OW19354   5.267   5.384   1.871  0.0110  0.0488  0.4303
 6152SOL    HW119355   5.323   5.440   1.932 -3.2865  2.8372  1.2417
 6152SOL    HW219356   5.282   5.411   1.776  0.8079 -0.0138  0.5378
 6153SOL     OW19357   1.528   6.475   1.520  0.4903 -0.4327  0.0512
 6153SOL    HW119358   1.555   6.532   1.598 -0.2437  0.5992 -0.4131
 6153SOL    HW219359   1.557   6.381   1.536 -0.7580 -0.5399  2.1930
 6154SOL     OW19360   6.306   5.217   1.075  0.0578  0.0195 -0.0092
 6154SOL    HW119361   6.328   5.120   1.071 -1.5652 -0.3492 -0.4524
 6154SOL    HW219362   6.235   5.238   1.008  0.0876  1.4314  0.3739
 6155SOL     OW19363   3.876   4.784   5.545 -0.6430  0.0187 -0.4865
 6155SOL    HW119364   3.837   4.799   5.454 -1.9140 -0.8840 -0.1208
 6155SOL    HW219365   3.840   4.854   5.608 -1.1153 -0.3816 -0.3082
 6156SOL     OW19366   6.461   0.203   2.727  0.0557 -0.3652 -0.1901
 6156SOL    HW119367   6.434   0.294   2.757 -2.9812 -1.3838  0.5617
 6156SOL    HW219368   6.460   0.199   2.627  0.7831  0.5376 -0.2466
 6157SOL     OW19369   5.594   1.186   1.590  0.1375  0.5061 -0.0374
 6157SOL    HW119370   5.684   1.165   1.628 -0.6039 -0.2117  1.3827
 6157SOL    HW219371   5.551   1.101   1.559  1.1047  1.1368 -3.5121
 6158SOL     OW19372   0.114   2.850   0.024 -0.1250  0.8077 -0.4013
 6158SOL    HW119373   0.087   2.758  -0.002 -0.0274  0.7704 -0.3727
 6158SOL    HW219374   0.033   2.909   0.031 -0.1951  0.7026 -0.3359
 6159SOL     OW19375   5.442   0.113   2.841 -0.2276 -0.1533  0.3911
 6159SOL    HW119376   5.342   0.113   2.848 -0.2870  1.5250 -0.1495
 6159SOL    HW219377   5.469   0.144   2.749  0.7997 -0.7173  0.4875
 6160SOL     OW19378   6.179   3.977   1.996 -0.7118  0.1469  0.1057
 6160SOL    HW119379   6.239   4.004   2.071  1.0153 -0.7274 -0.9001
 6160SOL    HW219380   6.144   4.059   1.949 -0.3916  0.6672  0.7628
 6161SOL     OW19381   4.313   0.669   1.243 -0.0999 -0.2638 -0.2417
 6161SOL    HW119382   4.353   0.678   1.152 -0.1140  1.0259 -0.1386
 6161SOL    HW219383   4.348   0.587   1.287  0.4902 -0.4928 -1.1087
 6162SOL     OW19384   6.952   1.469   1.701 -0.1833 -0.0900  0.4439
 6162SOL    HW119385   7.027   1.505   1.646  0.5532 -1.3978  0.5434
 6162SOL    HW219386   6.878   1.439   1.640 -0.5875  1.0878  0.3387
 6163SOL     OW19387   4.651   4.616   0.761  0.1607 -0.1469 -0.2390
 6163SOL    HW119388   4.729   4.633   0.821 -0.5908 -0.2315  0.7690
 6163SOL    HW219389   4.673   4.649   0.669  1.4073 -0.2258  0.0125
 6164SOL     OW19390   4.778   5.564   0.223  0.3416 -0.0266 -0.4111
 6164SOL    HW119391   4.749   5.591   0.315 -0.9180 -0.5780 -0.6265
 6164SOL    HW219392   4.877   5.569   0.217  0.5679 -1.3228  1.4182
 6165SOL     OW19393   5.540   4.775   0.471 -0.1891  0.3024  0.3511
 6165SOL    HW119394   5.547   4.730   0.560 -0.6210 -1.0484 -0.2737
 6165SOL    HW219395   5.631   4.802   0.440 -0.0855  1.2138  1.3980
 6166SOL     OW19396   0.132   0.361   6.547  0.3315  0.3688  0.1900
 6166SOL    HW119397   0.120   0.300   6.468  0.5827  0.5348  0.0216
 6166SOL    HW219398   0.095   0.451   6.525  0.9110  0.5765  0.0552
 6167SOL     OW19399   0.482   1.221   1.802  0.1181  0.1651  0.3178
 6167SOL    HW119400   0.459   1.125   1.819 -1.9676  0.6659  0.6905
 6167SOL    HW219401   0.542   1.227   1.723 -1.6158 -1.3383 -1.2399
 6168SOL     OW19402   0.967   6.773   5.911  0.0049  0.2761 -0.1957
 6168SOL    HW119403   0.961   6.718   5.828 -1.1091 -1.2197  0.8382
 6168SOL    HW219404   1.057   6.760   5.954  0.3967  0.6733 -0.8599
 6169SOL     OW19405   3.451   3.525   3.957  0.1116 -0.1401 -0.0499
 6169SOL    HW119406   3.405   3.516   4.045 -1.8069 -0.8739 -1.0538
 6169SOL    HW219407   3.392   3.577   3.894  1.6615  0.8079 -0.7679
 6170SOL     OW19408   5.031   6.685   2.902 -0.0281 -0.1633  0.2818
 6170SOL    HW119409   4.954   6.726   2.853  0.9723  0.7535 -0.5819
 6170SOL    HW219410   5.108   6.673   2.838  0.2491 -1.9122  0.8997
 6171SOL     OW19411   3.701   2.330   0.306  0.9572  0.2075  0.7891
 6171SOL    HW119412   3.623   2.373   0.260  0.1345 -1.7790  0.1951
 6171SOL    HW219413   3.786   2.375   0.278  0.0706  2.4112  1.4350
 6172SOL     OW19414   0.728   0.402   3.608  0.1071  0.3877 -0.2392
 6172SOL    HW119415   0.675   0.475   3.652 -2.3117 -0.5744 -1.3543
 6172SOL    HW219416   0.737   0.325   3.671  0.6080  0.7327  0.1169
 6173SOL     OW19417   0.947   4.641   5.406  0.3741  0.4133  0.1731
 6173SOL    HW119418   0.991   4.724   5.373 -0.5920  0.8446 -0.0468
 6173SOL    HW219419   0.994   4.561   5.368 -0.7724  0.8824 -2.4061
 6174SOL     OW19420   0.052   6.026   6.643  0.6413  0.0387  0.4063
 6174SOL    HW119421  -0.046   6.008   6.633  0.2898  1.9264  0.0214
 6174SOL    HW219422   0.066   6.099   6.710  1.5318  1.7626 -1.5382
 6175SOL     OW19423   6.362   0.068   5.947 -0.1183 -0.1237 -0.1111
 6175SOL    HW119424   6.449   0.076   5.996 -1.7403  1.4092  2.8310
 6175SOL    HW219425   6.378   0.072   5.849  3.0826  0.3165  0.3353
 6176SOL     OW19426   4.004   4.028   0.922  0.3749  0.3928  0.6221
 6176SOL    HW119427   3.989   4.096   0.850 -0.6048  0.2502  0.6838
 6176SOL    HW219428   3.916   3.994   0.955  0.8391 -1.2719  0.2351
 6177SOL     OW19429   1.986   2.540   1.930  0.2073  0.0829  0.4579
 6177SOL    HW119430   2.012   2.482   1.853  0.0346  0.1765  0.3301
 6177SOL    HW219431   1.887   2.537   1.943  0.2246  0.1503  0.6092
 6178SOL     OW19432   3.711   4.591   6.457 -0.0549 -0.6339  0.4236
 6178SOL    HW119433   3.746   4.683   6.473 -1.4483 -0.1348  0.7487
 6178SOL    HW219434   3.696   4.545   6.545 -1.3553 -0.3668  0.3688
 6179SOL     OW19435   1.211   0.028   4.091  0.4751 -0.2748 -0.3094
 6179SOL    HW119436   1.120  -0.011   4.109  0.5985 -2.0265 -2.9247
 6179SOL    HW219437   1.281  -0.031   4.129  0.5796 -0.1648 -0.3294
 6180SOL     OW19438   0.441   2.239   1.062  0.2256 -0.0896 -0.3894
 6180SOL    HW119439   0.460   2.311   1.128  3.9513 -0.6556 -0.6350
 6180SOL    HW219440   0.498   2.251   0.981 -0.9931 -1.8853 -1.5997
 6181SOL     OW19441   4.361   6.519   5.822 -0.2157  0.2821  0.1130
 6181SOL    HW119442   4.343   6.585   5.895 -1.9608  0.5048 -0.4603
 6181SOL    HW219443   4.320   6.431   5.846  1.2103 -0.3269  0.4079
 6182SOL     OW19444   5.473   3.486   5.345 -0.3637 -0.2473 -0.1924
 6182SOL    HW119445   5.464   3.387   5.336 -0.9234 -0.2128 -0.0562
 6182SOL    HW219446   5.548   3.518   5.288  0.2364 -0.8285  0.2646
 6183SOL     OW19447   6.311   4.497   5.544 -0.3287 -0.4485  0.0469
 6183SOL    HW119448   6.214   4.474   5.558 -0.7537  1.2132  0.0153
 6183SOL    HW219449   6.332   4.583   5.590  1.5292 -1.4975  1.2753
 6184SOL     OW19450   5.390   4.848   5.793 -0.2000  0.1205  0.4744
 6184SOL    HW119451   5.341   4.827   5.877 -0.9894 -2.0321 -0.4364
 6184SOL    HW219452   5.487   4.823   5.803 -0.0842  0.7988  1.0527
 6185SOL     OW19453   4.344   3.719   5.477  0.3204  0.5645  0.3691
 6185SOL    HW119454   4.302   3.809   5.465  0.3968  0.4673 -0.7343
 6185SOL    HW219455   4.361   3.678   5.388  2.2416  0.3541  0.7713
 6186SOL     OW19456   3.298   6.981   3.091  0.4444  0.1368 -0.3362
 6186SOL    HW119457   3.265   7.003   3.183  1.1733  2.3232 -0.5581
 6186SOL    HW219458   3.234   6.917   3.047 -0.5648  0.0295  1.2096
 6187SOL     OW19459   1.170   6.210   2.427  0.7263 -0.0514  0.4925
 6187SOL    HW119460   1.090   6.266   2.447  0.3534 -0.6416  0.6554
 6187SOL    HW219461   1.251   6.252   2.469  0.4734  0.4459  0.4830
 6188SOL     OW19462   0.366   4.849   4.199  0.4125  0.4778 -0.3057
 6188SOL    HW119463   0.388   4.945   4.183  0.2861  0.3818 -1.0868
 6188SOL    HW219464   0.266   4.838   4.202  0.4264  0.6190  1.3892
 6189SOL     OW19465   4.606   6.272   6.436  0.2436  0.3595 -0.0874
 6189SOL    HW119466   4.580   6.257   6.341 -1.1377  0.5647  0.2358
 6189SOL    HW219467   4.524   6.284   6.491  0.9108 -1.7748  1.5023
 6190SOL     OW19468   2.129   2.714   5.655 -0.6627  0.6195  0.5660
 6190SOL    HW119469   2.138   2.740   5.751 -2.3113  1.9351  0.4034
 6190SOL    HW219470   2.033   2.718   5.628 -0.1685  0.8694 -1.3105
 6191SOL     OW19471   6.545   6.571   0.571  0.0836  0.5322  0.2333
 6191SOL    HW119472   6.596   6.515   0.637 -0.8023 -0.7979 -0.1780
 6191SOL    HW219473   6.606   6.639   0.532  1.2286 -0.1997  0.6799
 6192SOL     OW19474   3.360   2.287   1.180 -0.0192  0.0457  0.0513
 6192SOL    HW119475   3.263   2.303   1.202 -0.5888  0.6188 -2.5807
 6192SOL    HW219476   3.368   2.213   1.114  1.3168  0.2576 -0.0562
 6193SOL     OW19477   1.952   6.080   2.244  0.1628  0.2549  0.3211
 6193SOL    HW119478   1.854   6.060   2.244  0.1801  0.1248  1.0492
 6193SOL    HW219479   1.971   6.156   2.305  0.6259 -0.3398  0.9382
 6194SOL     OW19480   3.022   5.817   6.392  0.0350 -0.3318 -0.0203
 6194SOL    HW119481   3.031   5.722   6.364 -1.2206 -0.0933 -1.3304
 6194SOL    HW219482   2.966   5.822   6.474 -0.1887 -0.6904 -0.1491
 6195SOL     OW19483   6.277   3.104   6.580  0.1027 -0.5964  0.1177
 6195SOL    HW119484   6.213   3.147   6.643  0.2441 -1.3304  0.7821
 6195SOL    HW219485   6.239   3.105   6.487  1.1836  3.2207 -0.4423
 6196SOL     OW19486   0.284   5.299   3.906 -0.3898 -0.4909  0.1462
 6196SOL    HW119487   0.285   5.378   3.966 -1.3269 -0.5753  0.2939
 6196SOL    HW219488   0.304   5.328   3.812 -0.0736 -0.1802  0.3102
 6197SOL     OW19489   2.492   1.875   1.186  0.9216  0.5537 -0.0342
 6197SOL    HW119490   2.461   1.968   1.204  0.5046 -0.0081  2.4173
 6197SOL    HW219491   2.551   1.875   1.105  1.8529  3.1208  0.5494
 6198SOL     OW19492   6.679   1.272   4.884  0.0164  0.0406  0.5358
 6198SOL    HW119493   6.706   1.210   4.959  1.5167 -0.3924 -0.3077
 6198SOL    HW219494   6.743   1.348   4.880 -1.0325  0.9497  0.7109
 6199SOL     OW19495   3.573   2.205   6.903 -0.3182  0.0504 -0.2075
 6199SOL    HW119496   3.543   2.299   6.885 -3.5660 -0.7866  0.2701
 6199SOL    HW219497   3.504   2.158   6.956  1.7538 -2.3485  0.5511
 6200SOL     OW19498   1.963   3.496   0.054  0.6848  0.3556  0.2471
 6200SOL    HW119499   1.977   3.515  -0.043  1.8740  1.1236  0.5453
 6200SOL    HW219500   1.926   3.404   0.065  2.9956 -0.7932 -0.8343
 6201SOL     OW19501   3.577   5.211   5.592  0.1273  0.4431 -0.1959
 6201SOL    HW119502   3.502   5.152   5.623  0.0253  0.6505 -0.0436
 6201SOL    HW219503   3.538   5.293   5.549  0.2641  0.1219 -0.9461
 6202SOL     OW19504   2.874   0.484   6.642 -0.3123  0.5478  0.2543
 6202SOL    HW119505   2.807   0.460   6.572  0.0083  1.3651 -0.3428
 6202SOL    HW219506   2.904   0.401   6.689  1.6797 -0.4723 -2.5636
 6203SOL     OW19507   1.165   5.052   1.863  0.5603  0.4940  0.2387
 6203SOL    HW119508   1.223   5.126   1.829  2.2327 -0.7367  0.3086
 6203SOL    HW219509   1.220   4.970   1.877 -0.9507 -0.3357  1.6469
 6204SOL     OW19510   0.443   1.685   0.894  0.1843 -0.1112 -0.6187
 6204SOL    HW119511   0.403   1.703   0.804  2.4161  1.1352 -1.4203
 6204SOL    HW219512   0.466   1.588   0.901 -0.4904 -0.3228 -1.1592
 6205SOL     OW19513   4.839   3.069   6.244 -0.4479 -0.3400 -0.0480
 6205SOL    HW119514   4.923   3.018   6.224  0.3015  0.1342  1.7139
 6205SOL    HW219515   4.765   3.034   6.187  1.1454 -0.0606 -2.4508
 6206SOL     OW19516   0.935   6.377   3.527  0.1711  0.7194  0.1095
 6206SOL    HW119517   1.033   6.396   3.523  0.5567 -0.7747  1.3419
 6206SOL    HW219518   0.899   6.364   3.435  1.3836  0.2144 -0.3111
 6207SOL     OW19519   4.732   4.327   3.296 -0.1049  0.2281  0.1971
 6207SOL    HW119520   4.728   4.251   3.361 -1.9019  1.1499  1.2334
 6207SOL    HW219521   4.737   4.290   3.203 -2.6291 -1.2476  0.5587
 6208SOL     OW19522   2.601   0.773   5.749  0.2192  0.0796 -0.5060
 6208SOL    HW119523   2.598   0.869   5.723  0.6014  0.6518  1.3919
 6208SOL    HW219524   2.521   0.750   5.804  0.9128 -0.2360  0.4031
 6209SOL     OW19525   6.344   3.650   4.728 -0.3909  0.6366 -0.3666
 6209SOL    HW119526   6.250   3.628   4.754 -0.9659  0.2972 -2.5244
 6209SOL    HW219527   6.384   3.572   4.679  1.5479  0.2356  1.6916
 6210SOL     OW19528   0.824   2.134   0.571 -0.7788  0.4154  0.3680
 6210SOL    HW119529   0.841   2.220   0.522  2.7308  0.0919  0.7852
 6210SOL    HW219530   0.839   2.057   0.510  0.8661  0.0691  1.1528
 6211SOL     OW19531   0.658   3.304   6.868 -0.0059  0.4173 -0.1916
 6211SOL    HW119532   0.739   3.345   6.827  1.5926 -1.4789  0.8694
 6211SOL    HW219533   0.667   3.306   6.968  0.0176 -2.1064 -0.0761
 6212SOL     OW19534   1.824   6.255   0.046  0.8055  0.2626  0.4039
 6212SOL    HW119535   1.909   6.285   0.090  1.2943 -0.5684  0.0527
 6212SOL    HW219536   1.806   6.311  -0.034 -0.5297  2.3473  2.0516
 6213SOL     OW19537   2.465   5.995   0.954 -0.3766 -0.0814  0.4124
 6213SOL    HW119538   2.380   5.945   0.971 -1.0316  1.5171  2.2020
 6213SOL    HW219539   2.450   6.092   0.969  1.1041  0.6284 -1.9933
 6214SOL     OW19540   0.731   3.448   2.880  0.8841 -0.3432  0.2355
 6214SOL    HW119541   0.662   3.389   2.839 -1.6120  1.7066  1.2449
 6214SOL    HW219542   0.752   3.523   2.818 -1.3050  1.5693  1.6659
 6215SOL     OW19543   3.783   1.643   4.837 -0.2809  0.4873 -0.2322
 6215SOL    HW119544   3.800   1.741   4.848 -0.1350  0.5795 -1.1687
 6215SOL    HW219545   3.735   1.627   4.750  1.9741 -0.4892 -1.3757
 6216SOL     OW19546   0.307   3.158   2.672 -0.1183  0.3461 -0.0796
 6216SOL    HW119547   0.273   3.064   2.671 -1.0623  0.6592 -1.8697
 6216SOL    HW219548   0.253   3.213   2.735 -1.5926  0.3528 -1.3025
 6217SOL     OW19549   2.135   6.004   6.888  0.0577  0.1816  0.0665
 6217SOL    HW119550   2.142   5.959   6.799  2.1116  0.2309  0.1439
 6217SOL    HW219551   2.225   6.040   6.914 -0.8905  1.7611  1.3499
 6218SOL     OW19552   5.700   6.400   6.650  0.0476 -0.7327  0.9257
 6218SOL    HW119553   5.690   6.304   6.625 -0.9820 -0.2644 -0.6785
 6218SOL    HW219554   5.631   6.424   6.719 -1.0298 -0.7229 -0.1144
 6219SOL     OW19555   6.383   0.005   5.662  0.5562  0.1643  0.8950
 6219SOL    HW119556   6.291  -0.008   5.626  0.5969  2.2726 -0.0986
 6219SOL    HW219557   6.418   0.094   5.634  3.1499 -0.7967  0.7670
 6220SOL     OW19558   6.003   1.345   1.079  0.8171 -0.2899 -0.4379
 6220SOL    HW119559   5.912   1.306   1.067  0.5003  0.9220 -2.4827
 6220SOL    HW219560   6.040   1.371   0.990  2.4160  0.9290  0.5275
 6221SOL     OW19561   3.041   4.017   0.698 -0.0754 -0.0709 -0.0217
 6221SOL    HW119562   3.001   3.999   0.788  0.5907 -1.2326  0.0575
 6221SOL    HW219563   3.120   3.957   0.684 -1.1736 -1.1411 -2.0526
 6222SOL     OW19564   6.432   2.501   1.479  0.2901 -0.1214  0.3108
 6222SOL    HW119565   6.361   2.432   1.495  0.4332 -0.3085  0.1367
 6222SOL    HW219566   6.412   2.582   1.534 -0.8660  0.4079 -0.8160
 6223SOL     OW19567   0.239   1.582   6.658 -0.1061 -0.1774  0.0746
 6223SOL    HW119568   0.189   1.521   6.720  1.2981 -0.3141  1.1263
 6223SOL    HW219569   0.273   1.661   6.709  0.9883 -0.2335 -0.5391
 6224SOL     OW19570   0.849   5.578   3.736 -0.4904  0.1998  0.2905
 6224SOL    HW119571   0.847   5.663   3.683 -1.8001 -0.4849 -0.8265
 6224SOL    HW219572   0.831   5.500   3.676  0.3581 -0.8594  1.3485
 6225SOL     OW19573   0.931   2.046   4.548 -0.0839  0.0857 -0.6889
 6225SOL    HW119574   1.020   2.043   4.503 -0.2749 -2.4817 -1.0442
 6225SOL    HW219575   0.944   2.049   4.647  0.4569 -1.2397 -0.7003
 6226SOL     OW19576   6.192   3.121   4.142  0.2986 -0.2561  0.1604
 6226SOL    HW119577   6.240   3.209   4.138  0.1703 -0.1931  0.0181
 6226SOL    HW219578   6.211   3.077   4.230 -1.0548  0.7112  0.9650
 6227SOL     OW19579   1.022   3.542   5.078  0.7598 -0.6737  0.4113
 6227SOL    HW119580   1.003   3.529   4.981 -2.1371 -0.1383  0.8315
 6227SOL    HW219581   1.003   3.457   5.127 -2.3756  0.2669  1.0331
 6228SOL     OW19582   2.266   2.831   2.688  0.0731  0.4807 -0.2401
 6228SOL    HW119583   2.341   2.783   2.643  0.6588  2.0352 -0.9959
 6228SOL    HW219584   2.190   2.841   2.624 -1.2993 -2.0284  0.8376
 6229SOL     OW19585   4.558   0.733   1.795  0.1826 -0.2160  0.3171
 6229SOL    HW119586   4.548   0.650   1.850 -0.2589 -0.4794 -0.1415
 6229SOL    HW219587   4.525   0.812   1.847  0.9195 -0.2739  0.8813
 6230SOL     OW19588   2.146   4.491   4.205 -0.5978  0.0242  0.1718
 6230SOL    HW119589   2.143   4.587   4.179 -3.2436 -0.3401 -1.2203
 6230SOL    HW219590   2.106   4.480   4.296  1.3623  0.3961  1.1173
 6231SOL     OW19591   1.394   3.130   6.433  0.0644  0.3782  0.3093
 6231SOL    HW119592   1.363   3.063   6.365  1.2925 -0.0211  0.1310
 6231SOL    HW219593   1.413   3.083   6.519 -0.2247  0.6924  0.5471
 6232SOL     OW19594   6.118   1.902   3.127 -0.1137  0.4289  0.3603
 6232SOL    HW119595   6.042   1.935   3.183 -0.7327  2.5705 -1.5826
 6232SOL    HW219596   6.104   1.805   3.106 -1.3017  0.3112  1.5883
 6233SOL     OW19597   0.065   0.808   3.261 -0.0415  0.0518 -0.2285
 6233SOL    HW119598   0.106   0.879   3.204 -0.9737 -0.2209 -1.2510
 6233SOL    HW219599   0.121   0.725   3.256  0.2406  0.2366 -0.1955
 6234SOL     OW19600   3.863   2.105   6.307 -0.2381  0.0214 -0.3073
 6234SOL    HW119601   3.947   2.110   6.253  0.4349  0.4966  0.7521
 6234SOL    HW219602   3.816   2.193   6.305 -0.3312 -0.0270 -0.3046
 6235SOL     OW19603   6.309   0.315   4.967 -0.2467 -0.4169 -0.8934
 6235SOL    HW119604   6.304   0.289   4.870  1.4655 -2.0554 -0.6071
 6235SOL    HW219605   6.399   0.291   5.002  0.0824  2.5346  0.4893
 6236SOL     OW19606   2.430   6.254   1.053 -0.7439  0.7227 -0.0302
 6236SOL    HW119607   2.496   6.289   0.987  2.7223 -2.5320  1.3151
 6236SOL    HW219608   2.468   6.261   1.145 -2.5176 -0.8646  0.8994
 6237SOL     OW19609   0.541   4.348   5.604  0.0564  0.0472  0.5369
 6237SOL    HW119610   0.618   4.380   5.548  0.1661 -1.8299 -0.4595
 6237SOL    HW219611   0.462   4.329   5.544 -0.7011  0.4987  1.3658
 6238SOL     OW19612   3.632   1.934   3.270 -0.1060 -0.1087 -0.2666
 6238SOL    HW119613   3.686   1.852   3.289 -0.6359 -0.3389  0.2961
 6238SOL    HW219614   3.673   1.985   3.195  0.8081 -0.3542  0.0554
 6239SOL     OW19615   0.268   2.298   3.170  0.1631 -0.3380  0.0711
 6239SOL    HW119616   0.203   2.306   3.094  1.3147  1.5648 -0.8220
 6239SOL    HW219617   0.315   2.386   3.182  2.0302 -1.4089  1.1385
 6240SOL     OW19618   5.868   2.112   3.035  0.2043 -0.3964  0.1051
 6240SOL    HW119619   5.787   2.163   3.064  0.0399 -0.2005 -0.6600
 6240SOL    HW219620   5.849   2.069   2.946  1.0085 -0.1699 -0.1822
 6241SOL     OW19621   4.193   5.287   6.586 -0.1778  0.1785  0.2708
 6241SOL    HW119622   4.150   5.217   6.642 -0.7205 -1.2694 -1.8266
 6241SOL    HW219623   4.279   5.252   6.549  0.3392  1.2196  0.4448
 6242SOL     OW19624   3.819   2.967   3.866  0.0109 -0.0361 -0.5732
 6242SOL    HW119625   3.823   2.904   3.789  0.2102  0.8838 -1.3436
 6242SOL    HW219626   3.726   3.001   3.877 -0.1325 -0.5924 -0.0480
 6243SOL     OW19627   0.240   0.699   0.929  0.2189  0.2469 -0.7340
 6243SOL    HW119628   0.142   0.692   0.908  0.0119 -0.3171  0.3680
 6243SOL    HW219629   0.290   0.723   0.845 -0.8167  0.2319 -1.3795
 6244SOL     OW19630   4.101   5.093   3.346 -0.1988 -0.4751 -0.3538
 6244SOL    HW119631   4.092   5.130   3.253  0.8800  0.9388  0.0753
 6244SOL    HW219632   4.045   5.010   3.354  0.5067 -1.2326 -2.5710
 6245SOL     OW19633   6.502   1.952   0.676  0.4189 -0.2283  0.2967
 6245SOL    HW119634   6.407   1.926   0.690  0.2610 -0.3473 -0.9290
 6245SOL    HW219635   6.536   2.000   0.757 -1.5341  2.3876 -0.3277
 6246SOL     OW19636   1.975   6.807   5.333  0.1497 -0.3505  0.1531
 6246SOL    HW119637   1.900   6.741   5.323  0.8889 -1.0416 -1.1250
 6246SOL    HW219638   1.982   6.837   5.428 -2.3414  0.4549  0.1488
 6247SOL     OW19639   4.499   5.968   6.390  0.1396  0.5656 -0.5723
 6247SOL    HW119640   4.562   6.025   6.442  0.1850 -0.5947  0.7185
 6247SOL    HW219641   4.525   5.872   6.399 -0.0240  0.2896 -2.5596
 6248SOL     OW19642   2.789   3.286   1.256 -0.1784  0.0007 -0.1818
 6248SOL    HW119643   2.889   3.287   1.256 -0.1821  0.4954  0.0010
 6248SOL    HW219644   2.756   3.272   1.349 -0.2825  0.6400 -0.1199
 6249SOL     OW19645   4.610   4.279   3.637  0.0204  0.1168 -0.0488
 6249SOL    HW119646   4.579   4.364   3.680  3.1873  2.5611 -2.1512
 6249SOL    HW219647   4.544   4.252   3.566  0.1789  2.4416 -1.1958
 6250SOL     OW19648   1.107   6.319   1.976 -0.7810 -0.5778 -0.0999
 6250SOL    HW119649   1.109   6.227   2.013  1.2507  0.4275  2.6509
 6250SOL    HW219650   1.201   6.351   1.960 -1.4379  0.9905 -1.0908
 6251SOL     OW19651   1.958   2.432   4.809 -0.2822  0.5321  0.0775
 6251SOL    HW119652   1.860   2.420   4.822 -0.0623 -1.4565  0.2484
 6251SOL    HW219653   1.990   2.371   4.737  0.8248  1.2537 -0.0771
 6252SOL     OW19654   0.446   6.685   2.608  0.3398 -0.4832  0.1210
 6252SOL    HW119655   0.412   6.601   2.567 -0.2930 -0.3685  0.3924
 6252SOL    HW219656   0.433   6.761   2.544 -0.3942 -0.3517  0.4186
 6253SOL     OW19657   1.749   0.438   5.726  0.5173  0.6640 -0.1772
 6253SOL    HW119658   1.690   0.491   5.665 -0.5134  0.5365  0.6858
 6253SOL    HW219659   1.701   0.356   5.757  0.9341  0.8343  0.9744
 6254SOL     OW19660   1.283   6.986   1.757  0.3291 -0.0892  0.6848
 6254SOL    HW119661   1.252   6.894   1.735  0.2880 -0.1935  1.1898
 6254SOL    HW219662   1.377   6.998   1.722  0.3143 -0.2980  0.5699
 6255SOL     OW19663   6.610   2.081   0.879 -0.0331  0.8331 -0.7151
 6255SOL    HW119664   6.596   2.159   0.941 -0.4659  0.0895  0.1493
 6255SOL    HW219665   6.708   2.073   0.858  0.3471  0.2806  1.0371
 6256SOL     OW19666   4.442   4.750   0.200  0.3625 -0.5099  0.1662
 6256SOL    HW119667   4.465   4.672   0.142  0.8410 -1.1497  1.2035
 6256SOL    HW219668   4.394   4.718   0.282  1.9862  0.0824  1.3915
 6257SOL     OW19669   4.585   5.953   3.962  0.4023 -0.5732  1.0015
 6257SOL    HW119670   4.605   5.906   4.047  0.0299 -0.5670  1.0937
 6257SOL    HW219671   4.507   5.911   3.917 -0.9949  0.9551  1.9042
 6258SOL     OW19672   2.647   0.862   3.548  0.3215 -0.5323  0.6477
 6258SOL    HW119673   2.613   0.935   3.489 -1.0911  0.3987  2.4774
 6258SOL    HW219674   2.576   0.793   3.560  0.2328 -0.2618  1.8806
 6259SOL     OW19675   0.500   2.150   0.029  0.0897  0.1432 -0.6312
 6259SOL    HW119676   0.494   2.113   0.122 -1.5359  1.0012 -0.3542
 6259SOL    HW219677   0.448   2.235   0.023  2.6037  1.7223 -1.6005
 6260SOL     OW19678   0.513   0.843   5.545 -0.6095 -0.2638 -0.0422
 6260SOL    HW119679   0.574   0.882   5.614 -0.0344 -0.4150 -0.4628
 6260SOL    HW219680   0.555   0.851   5.455 -1.0032 -0.8049 -0.2760
 6261SOL     OW19681   1.938   6.637   0.294 -0.2961 -0.3485 -0.0198
 6261SOL    HW119682   2.033   6.657   0.320 -0.7537  1.5161  0.3206
 6261SOL    HW219683   1.902   6.566   0.355  1.1052 -1.7059 -0.6922
 6262SOL     OW19684   0.206   6.790   6.624  0.0536 -0.2391 -0.0540
 6262SOL    HW119685   0.209   6.748   6.714  1.7802  0.2351  0.1461
 6262SOL    HW219686   0.113   6.821   6.604 -0.9963 -2.9737  0.2958
 6263SOL     OW19687   5.166   4.098   0.863 -0.3613  0.1502  0.6604
 6263SOL    HW119688   5.246   4.077   0.919  0.6556 -2.0364 -1.4316
 6263SOL    HW219689   5.090   4.038   0.889 -0.1196 -0.3660  0.1786
 6264SOL     OW19690   1.384   1.852   2.442  0.0546  0.3904  0.0221
 6264SOL    HW119691   1.435   1.793   2.504 -1.1218 -2.1662 -1.3017
 6264SOL    HW219692   1.365   1.803   2.357 -3.4769  1.6007 -0.0656
 6265SOL     OW19693   6.374   3.369   4.113  0.0139  0.3163 -0.3325
 6265SOL    HW119694   6.472   3.350   4.112 -0.1441 -0.5770 -0.9649
 6265SOL    HW219695   6.357   3.458   4.071  0.6513  1.0830  0.9999
 6266SOL     OW19696   1.500   5.408   2.103  0.2956 -0.0157  0.0308
 6266SOL    HW119697   1.482   5.458   2.019 -0.2902 -0.9213 -0.3989
 6266SOL    HW219698   1.471   5.462   2.182  1.2863  1.0387 -0.3006
 6267SOL     OW19699   4.349   0.303   1.639  0.3428  0.6284  0.3856
 6267SOL    HW119700   4.390   0.225   1.684  1.5293  0.6836 -0.5409
 6267SOL    HW219701   4.310   0.365   1.707  0.5052 -0.1437  1.1932
 6268SOL     OW19702   0.187   6.490   1.562 -1.0763 -0.1403  0.0430
 6268SOL    HW119703   0.258   6.458   1.624 -1.8381  0.5223  1.3149
 6268SOL    HW219704   0.116   6.538   1.615 -2.1340 -0.2071 -1.2566
 6269SOL     OW19705   3.245   3.435   5.665  0.3175 -0.0529  0.1485
 6269SOL    HW119706   3.274   3.440   5.569  0.3257 -0.2917  0.1373
 6269SOL    HW219707   3.164   3.492   5.678  0.1092 -0.2961 -0.0787
 6270SOL     OW19708   1.286   6.960   5.255  0.0350  0.2403 -0.3996
 6270SOL    HW119709   1.332   7.045   5.281 -2.1460  1.5002 -0.4170
 6270SOL    HW219710   1.331   6.921   5.175  1.4077  1.0672 -0.0636
 6271SOL     OW19711   6.319   6.754   3.526  0.1325 -0.2662 -0.5586
 6271SOL    HW119712   6.391   6.811   3.564  0.2285  0.8119 -2.2431
 6271SOL    HW219713   6.237   6.762   3.583  1.1170 -1.0353  1.0313
 6272SOL     OW19714   0.733   2.314   0.053  0.2487  0.2929  1.1861
 6272SOL    HW119715   0.763   2.352  -0.034  0.7421  0.2602  1.3387
 6272SOL    HW219716   0.671   2.237   0.036 -0.6490  1.0673  0.8794
 6273SOL     OW19717   4.782   0.098   1.062 -0.9748  0.2405 -0.2817
 6273SOL    HW119718   4.837   0.056   0.990 -0.1424  0.6078  0.1317
 6273SOL    HW219719   4.764   0.030   1.134  1.0641  0.7488  0.7842
 6274SOL     OW19720   5.584   1.340   0.833 -0.0687 -0.5861  0.2254
 6274SOL    HW119721   5.579   1.433   0.795  0.6887  0.0947  1.7037
 6274SOL    HW219722   5.678   1.307   0.828 -0.3529 -1.3252 -0.3710
 6275SOL     OW19723   6.625   6.733   3.598  1.0382  0.7235 -0.3816
 6275SOL    HW119724   6.634   6.713   3.696 -2.6512  0.6349  0.0661
 6275SOL    HW219725   6.582   6.822   3.586  0.5575  0.3107 -1.8797
 6276SOL     OW19726   6.158   5.292   4.019 -0.3155  0.4433  0.1204
 6276SOL    HW119727   6.255   5.315   4.008 -0.5345  0.9193 -0.9362
 6276SOL    HW219728   6.143   5.197   3.992  0.0513 -0.0344  1.4898
 6277SOL     OW19729   5.034   0.427   4.395 -0.5539 -0.2959  0.0137
 6277SOL    HW119730   5.131   0.427   4.372 -0.5413  1.3930 -0.0725
 6277SOL    HW219731   5.020   0.483   4.477 -1.4123 -0.8140  0.2295
 6278SOL     OW19732   5.943   5.492   0.842 -0.8297 -0.0196 -0.2349
 6278SOL    HW119733   5.932   5.511   0.744 -1.1678  1.1376  0.0233
 6278SOL    HW219734   6.029   5.531   0.875 -0.4148 -0.9325 -0.1807
 6279SOL     OW19735   1.995   3.209   4.379 -0.0962  0.3308 -0.0693
 6279SOL    HW119736   1.998   3.234   4.283  1.2916 -0.9246 -0.3877
 6279SOL    HW219737   2.057   3.267   4.431 -1.5298  1.6324  0.2684
 6280SOL     OW19738   0.706   6.974   0.772 -0.5600  0.1048  0.4902
 6280SOL    HW119739   0.751   6.969   0.684  1.5178 -2.4025  1.5698
 6280SOL    HW219740   0.674   7.068   0.788  0.0096  0.8780 -2.3651
 6281SOL     OW19741   3.640   0.331   3.050 -0.3614 -0.0669  0.0782
 6281SOL    HW119742   3.555   0.279   3.040 -0.6314  0.6025 -1.3885
 6281SOL    HW219743   3.717   0.273   3.024 -0.7461  0.5052 -2.5641
 6282SOL     OW19744   4.051   5.552   2.307 -0.1939 -0.0972 -0.1431
 6282SOL    HW119745   4.109   5.544   2.388 -1.8632 -0.4897  1.0644
 6282SOL    HW219746   4.017   5.645   2.299  3.5814  1.3145 -3.0990
 6283SOL     OW19747   2.451   5.099   6.532  1.4789  0.2820 -0.4406
 6283SOL    HW119748   2.447   5.111   6.631  0.2137 -1.7077 -0.1766
 6283SOL    HW219749   2.546   5.088   6.503  1.8183  0.1298  0.6771
 6284SOL     OW19750   1.738   3.775   6.806 -0.0318 -0.6954  0.0295
 6284SOL    HW119751   1.819   3.764   6.750  0.1623 -1.5100  0.4472
 6284SOL    HW219752   1.763   3.771   6.903 -0.2177  1.6618  0.2442
 6285SOL     OW19753   3.485   1.988   1.954  0.5711 -0.2526 -0.5938
 6285SOL    HW119754   3.536   2.073   1.963  1.2579 -0.2534 -3.4489
 6285SOL    HW219755   3.448   1.961   2.043  4.6181  0.2716  1.4506
 6286SOL     OW19756   3.008   0.931   5.004  0.0281  0.1119  0.8686
 6286SOL    HW119757   3.062   1.006   5.042 -0.3623 -0.6101  3.0107
 6286SOL    HW219758   2.919   0.965   4.974  0.4074  0.7300  0.4082
 6287SOL     OW19759   2.751   2.482   5.544  0.3527  0.2274  0.4389
 6287SOL    HW119760   2.729   2.537   5.464 -2.8975 -0.7085  0.5750
 6287SOL    HW219761   2.801   2.400   5.516  0.2075  0.4424 -0.4618
 6288SOL     OW19762   1.388   5.619   3.924 -0.8399 -0.2425 -0.2871
 6288SOL    HW119763   1.450   5.689   3.888 -1.6388  1.7146  1.8794
 6288SOL    HW219764   1.298   5.659   3.941 -1.2145 -1.6539  1.4188
 6289SOL     OW19765   4.955   6.348   5.608 -0.6415  0.9599 -0.0829
 6289SOL    HW119766   4.888   6.306   5.670 -0.6576  1.6924  0.4207
 6289SOL    HW219767   4.997   6.427   5.654  0.5736  0.5072 -0.3990
 6290SOL     OW19768   6.396   1.974   5.782 -0.2111  0.2902  0.4505
 6290SOL    HW119769   6.494   1.959   5.772 -0.1859  0.3282  0.6539
 6290SOL    HW219770   6.358   1.906   5.844 -0.7433 -1.3614 -1.5548
 6291SOL     OW19771   6.682   4.585   2.787 -0.5280 -0.2915  0.8727
 6291SOL    HW119772   6.649   4.677   2.806 -0.9862 -0.1570 -0.4763
 6291SOL    HW219773   6.760   4.565   2.845  1.2194  1.9230 -0.5460
 6292SOL     OW19774   7.016   1.748   3.954  0.3255  0.1458  0.3933
 6292SOL    HW119775   6.947   1.683   3.986 -0.5803 -0.4529 -2.4764
 6292SOL    HW219776   7.034   1.815   4.026 -1.7161 -0.8759  1.9800
 6293SOL     OW19777   6.911   3.442   5.439 -0.0037 -0.3731 -0.3749
 6293SOL    HW119778   6.893   3.445   5.537 -2.1687 -0.4011 -0.7234
 6293SOL    HW219779   6.980   3.373   5.419  0.2793 -0.5322  1.0971
 6294SOL     OW19780   6.428   5.271   3.966 -0.3584 -0.0315 -0.4422
 6294SOL    HW119781   6.474   5.297   4.051  1.0160 -0.8243 -0.9117
 6294SOL    HW219782   6.472   5.317   3.889 -1.9289  1.0986 -0.7214
 6295SOL     OW19783   6.880   0.331   3.263 -0.5723  1.1372  0.8929
 6295SOL    HW119784   6.830   0.417   3.273  1.2655  2.2752  0.8658
 6295SOL    HW219785   6.866   0.295   3.171 -2.5408  0.5746  1.3666
 6296SOL     OW19786   5.231   3.384   1.990  0.0853  0.0944 -0.4090
 6296SOL    HW119787   5.178   3.461   1.954 -0.4648  0.2474  0.6890
 6296SOL    HW219788   5.282   3.413   2.071  0.2899 -0.5642 -0.2950
 6297SOL     OW19789   3.213   1.758   6.092  0.4006  0.5559 -0.2352
 6297SOL    HW119790   3.258   1.785   6.006 -0.8730 -0.3990 -1.2437
 6297SOL    HW219791   3.151   1.682   6.074  0.3725  0.1004  1.6323
 6298SOL     OW19792   3.415   6.571   3.435  0.1803  0.5343  0.5153
 6298SOL    HW119793   3.425   6.667   3.408  2.2851  0.9865  2.5705
 6298SOL    HW219794   3.319   6.545   3.427 -0.7181  3.2403  1.1552
 6299SOL     OW19795   1.065   0.657   2.575 -0.0390  0.2610 -0.4795
 6299SOL    HW119796   1.164   0.666   2.589 -0.4563  1.0918  2.5849
 6299SOL    HW219797   1.017   0.729   2.624 -2.2230  0.2399 -2.3771
 6300SOL     OW19798   1.929   2.994   0.377 -0.4959 -0.2632  0.1048
 6300SOL    HW119799   2.005   3.048   0.414 -0.3893 -0.5211  0.2630
 6300SOL    HW219800   1.848   3.052   0.369 -0.5973 -0.2678  0.9993
 6301SOL     OW19801   3.123   0.183   0.102 -0.9681 -0.2836 -0.0505
 6301SOL    HW119802   3.039   0.221   0.142  0.0935  2.4514 -0.2314
 6301SOL    HW219803   3.105   0.153   0.008 -2.0630 -1.1620  0.4188
 6302SOL     OW19804   1.668   3.154   5.263  0.2151  0.1867 -0.7163
 6302SOL    HW119805   1.583   3.109   5.234  0.4507 -0.1527 -0.8922
 6302SOL    HW219806   1.707   3.204   5.186  0.1029  0.4603 -0.5971
 6303SOL     OW19807   5.438   5.731   6.888 -0.2925  0.1825 -0.4612
 6303SOL    HW119808   5.459   5.638   6.919  1.4698  0.5083 -0.5806
 6303SOL    HW219809   5.347   5.756   6.919  0.3728 -0.4308  2.2875
 6304SOL     OW19810   3.039   4.851   1.648  0.1326  0.7782 -0.2327
 6304SOL    HW119811   2.947   4.849   1.689  0.0590  0.0937 -0.4170
 6304SOL    HW219812   3.082   4.762   1.660  1.4554  1.5801  1.3707
 6305SOL     OW19813   2.580   5.046   2.216  0.2020  0.7722 -0.5795
 6305SOL    HW119814   2.500   4.988   2.200  1.0265 -0.7655  0.5690
 6305SOL    HW219815   2.642   5.040   2.137 -0.2132  0.9523 -0.9217
 6306SOL     OW19816   1.801   2.718   4.148 -0.4380 -0.6755 -0.0975
 6306SOL    HW119817   1.791   2.815   4.123 -1.6185 -0.9363 -0.6854
 6306SOL    HW219818   1.780   2.707   4.245  1.1354 -0.1425  0.3486
 6307SOL     OW19819   2.750   4.169   5.683 -0.3133  0.6962  0.9698
 6307SOL    HW119820   2.849   4.158   5.690 -0.1125  0.7415 -1.1503
 6307SOL    HW219821   2.729   4.264   5.658 -0.6818  0.0957 -1.1706
 6308SOL     OW19822   4.886   5.363   2.610  0.5205 -0.0476  0.2684
 6308SOL    HW119823   4.829   5.417   2.672  0.4240  0.3398 -0.1620
 6308SOL    HW219824   4.978   5.403   2.606  0.2929  0.4177 -0.4798
 6309SOL     OW19825   0.577   5.066   1.923 -0.6358  0.4100 -0.1907
 6309SOL    HW119826   0.541   5.145   1.973  0.1037  1.6691 -1.5663
 6309SOL    HW219827   0.529   5.056   1.836  0.4910  0.4905 -0.8523
 6310SOL     OW19828   0.564   5.802   6.980 -0.7152  0.0128  0.0905
 6310SOL    HW119829   0.615   5.876   6.935 -1.5181  0.8913  0.5852
 6310SOL    HW219830   0.466   5.819   6.972 -1.0664 -2.4405 -2.1808
 6311SOL     OW19831   5.061   1.278   4.804  0.1989  0.1781 -0.1283
 6311SOL    HW119832   5.039   1.374   4.787 -1.2222 -0.3477 -1.4407
 6311SOL    HW219833   5.140   1.252   4.749  2.5467  1.3218  2.4699
 6312SOL     OW19834   5.996   2.019   3.801 -0.4274  0.4071 -0.4824
 6312SOL    HW119835   6.073   2.052   3.746 -0.1009 -0.3465 -0.4906
 6312SOL    HW219836   6.013   2.040   3.897  1.6213 -2.9739  0.0388
 6313SOL     OW19837   3.760   1.591   4.499  0.0193  0.1376  0.1233
 6313SOL    HW119838   3.845   1.616   4.455 -0.6463 -1.6271 -2.4376
 6313SOL    HW219839   3.694   1.666   4.491  0.5119  0.5363 -0.2412
 6314SOL     OW19840   6.083   3.934   3.962 -0.4754 -0.1186 -0.0126
 6314SOL    HW119841   6.065   3.836   3.973 -0.9568 -0.2153 -1.4785
 6314SOL    HW219842   6.007   3.977   3.914  1.1723  0.3204 -2.4028
 6315SOL     OW19843   2.204   3.236   1.728  0.0049  0.0723 -0.2469
 6315SOL    HW119844   2.168   3.306   1.667 -3.3316  0.5601  2.0115
 6315SOL    HW219845   2.264   3.279   1.796 -1.3880  0.6987  0.6345
 6316SOL     OW19846   1.929   4.311   1.033  0.3033  0.1524  0.4410
 6316SOL    HW119847   1.954   4.264   0.948 -3.9612 -2.1527  0.2257
 6316SOL    HW219848   1.917   4.409   1.015  0.4718 -0.1265 -1.3555
 6317SOL     OW19849   5.942   1.894   6.942  0.2155 -0.3360  0.0549
 6317SOL    HW119850   6.021   1.853   6.987 -1.0890 -2.5933  0.3928
 6317SOL    HW219851   5.930   1.853   6.851 -0.5325  0.0398 -0.0234
 6318SOL     OW19852   1.173   2.309   4.454  0.5108  0.1429  0.0289
 6318SOL    HW119853   1.075   2.301   4.433  0.4911 -0.8171  0.4366
 6318SOL    HW219854   1.221   2.344   4.373  0.0725 -1.0579 -0.7867
 6319SOL     OW19855   3.614   1.254   3.743  0.1098  0.0301  0.4530
 6319SOL    HW119856   3.601   1.190   3.820 -1.6973 -0.4790 -0.2051
 6319SOL    HW219857   3.546   1.327   3.749  2.1293  1.9678  1.1740
 6320SOL     OW19858   5.686   0.707   2.058 -0.1164 -0.2130  0.5965
 6320SOL    HW119859   5.612   0.752   2.009 -0.7969 -1.3571  0.5350
 6320SOL    HW219860   5.653   0.621   2.097  0.4055  0.6040  3.0227
 6321SOL     OW19861   0.893   2.195   2.803  0.0548  0.5606 -0.4035
 6321SOL    HW119862   0.919   2.249   2.723  1.5292  0.6556  0.1167
 6321SOL    HW219863   0.793   2.195   2.812 -0.0095  3.5580 -0.1731
 6322SOL     OW19864   6.210   3.591   4.284  0.0887 -0.0507 -0.1700
 6322SOL    HW119865   6.239   3.504   4.323  0.3777 -0.2266 -0.7683
 6322SOL    HW219866   6.252   3.603   4.193 -0.7919  0.2222 -0.5493
 6323SOL     OW19867   6.928   4.969   6.187  0.6931  0.0548 -0.1728
 6323SOL    HW119868   6.829   4.978   6.198  0.5644  0.6004 -1.6128
 6323SOL    HW219869   6.948   4.906   6.112  1.4692 -0.6404  0.5904
 6324SOL     OW19870   6.389   3.605   6.513  0.9429  0.7479 -0.2830
 6324SOL    HW119871   6.398   3.698   6.550 -0.8575  0.7593  0.2122
 6324SOL    HW219872   6.439   3.541   6.571  1.8287  1.3291 -0.3768
 6325SOL     OW19873   5.148   0.425   2.805 -0.4954  0.2426 -0.0563
 6325SOL    HW119874   5.154   0.447   2.902  1.6123 -2.0502  0.4228
 6325SOL    HW219875   5.137   0.510   2.753  0.5034  1.7492  2.0358
 6326SOL     OW19876   2.740   6.495   6.589 -0.0238 -0.0793 -0.2910
 6326SOL    HW119877   2.817   6.543   6.632 -0.0042  0.6950 -1.1424
 6326SOL    HW219878   2.742   6.399   6.614  1.2779 -0.0887 -0.3489
 6327SOL     OW19879   4.930   3.906   6.347 -0.1487 -0.0711  0.2164
 6327SOL    HW119880   5.029   3.906   6.358 -0.1598 -4.0700  2.1753
 6327SOL    HW219881   4.906   3.856   6.263 -0.5675  1.6024 -0.7006
 6328SOL     OW19882   1.535   1.638   6.309  0.6472  0.1767  0.0062
 6328SOL    HW119883   1.573   1.675   6.224  1.3144 -0.1146  0.1696
 6328SOL    HW219884   1.589   1.670   6.387  0.3151  0.0780  0.2797
 6329SOL     OW19885   2.840   1.517   4.315  0.2470 -0.2428 -0.1171
 6329SOL    HW119886   2.911   1.448   4.332  0.2752 -0.5766 -1.5026
 6329SOL    HW219887   2.765   1.475   4.264 -1.3485 -0.0883  1.9955
 6330SOL     OW19888   6.974   5.092   1.091 -0.2039  0.0335  0.3268
 6330SOL    HW119889   6.986   5.126   1.185  0.0699  0.1269  0.2600
 6330SOL    HW219890   6.886   5.123   1.055  0.3663  1.3305 -0.0089
 6331SOL     OW19891   0.946   1.670   4.929  0.3238  0.0737 -0.2685
 6331SOL    HW119892   0.885   1.732   4.880  1.0775  1.9863  1.0557
 6331SOL    HW219893   1.031   1.718   4.950  0.8831 -1.3770  0.9413
 6332SOL     OW19894   5.885   3.406   0.730  0.6668  0.0877  0.3356
 6332SOL    HW119895   5.951   3.354   0.785  0.5030 -1.0722 -0.5126
 6332SOL    HW219896   5.934   3.475   0.677  1.0133  0.2294  0.8398
 6333SOL     OW19897   1.910   3.943   3.880  0.1540  0.5265  0.0852
 6333SOL    HW119898   1.858   3.905   3.956 -0.3203  1.2314  0.1248
 6333SOL    HW219899   1.866   3.917   3.793  0.4010  0.1465  0.0777
 6334SOL     OW19900   0.322   3.824   1.271  0.2574  0.3087  0.0283
 6334SOL    HW119901   0.243   3.872   1.311  0.1684 -1.0287  1.5152
 6334SOL    HW219902   0.381   3.789   1.343  0.2766 -1.9075 -0.9863
 6335SOL     OW19903   4.517   4.472   3.822 -0.3958  0.3164 -0.4995
 6335SOL    HW119904   4.419   4.493   3.813 -1.7031 -3.7630  1.8499
 6335SOL    HW219905   4.548   4.497   3.914  1.5080  3.3536 -1.7808
 6336SOL     OW19906   0.412   5.638   6.402 -0.7119 -0.2774 -0.0313
 6336SOL    HW119907   0.353   5.606   6.328 -0.5373 -0.9853  0.1214
 6336SOL    HW219908   0.498   5.587   6.400  0.5436  1.7769 -1.1803
 6337SOL     OW19909   3.910   1.683   5.966 -0.8228  0.5811 -0.1142
 6337SOL    HW119910   3.907   1.594   5.920  0.2435 -0.2025  1.2351
 6337SOL    HW219911   3.817   1.715   5.982 -1.2773 -1.0714  0.7826
 6338SOL     OW19912   0.504   1.746   4.308 -0.3067 -0.0675  0.4263
 6338SOL    HW119913   0.595   1.711   4.326  0.0193  0.5437  0.0110
 6338SOL    HW219914   0.491   1.759   4.209 -0.8731 -0.2276  0.4715
 6339SOL     OW19915   4.838   6.443   1.325  0.1045  0.0287  0.4588
 6339SOL    HW119916   4.819   6.538   1.350  0.3934 -0.3652  2.3226
 6339SOL    HW219917   4.936   6.425   1.329  0.0234 -0.4389  0.4921
 6340SOL     OW19918   0.702   2.498   5.660 -0.5118  0.4159  0.1601
 6340SOL    HW119919   0.616   2.546   5.678 -0.4934  0.7958 -0.7189
 6340SOL    HW219920   0.759   2.553   5.598  0.1070 -0.1068  0.2515
 6341SOL     OW19921   0.284   0.535   4.390  0.0370  0.7149 -0.6546
 6341SOL    HW119922   0.305   0.443   4.424 -3.7739  0.4711  1.6204
 6341SOL    HW219923   0.332   0.603   4.445  0.9348  0.1410 -0.7088
 6342SOL     OW19924   2.805   1.438   6.022  0.0437  0.2037 -0.1198
 6342SOL    HW119925   2.838   1.427   6.116  1.9708 -1.0403 -0.8843
 6342SOL    HW219926   2.839   1.524   5.984  0.6020 -0.0366 -0.1774
 6343SOL     OW19927   0.550   4.711   0.009  0.1231  0.1776 -0.3270
 6343SOL    HW119928   0.637   4.665   0.026 -0.4691 -0.5344  0.9484
 6343SOL    HW219929   0.518   4.754   0.094 -1.0186 -0.0328 -0.6299
 6344SOL     OW19930   1.145   5.966   4.567 -0.3605 -0.0539 -0.3839
 6344SOL    HW119931   1.068   5.904   4.552  0.8616 -1.6287 -0.3605
 6344SOL    HW219932   1.195   5.937   4.648 -0.8910  2.1908  0.8163
 6345SOL     OW19933   2.289   4.260   3.114  0.1892 -0.0638 -0.1071
 6345SOL    HW119934   2.323   4.289   3.203  0.5120  0.2953 -0.3459
 6345SOL    HW219935   2.310   4.330   3.045  1.4054 -1.0555 -0.7836
 6346SOL     OW19936   5.617   6.971   0.432 -0.0887  0.2863 -0.3834
 6346SOL    HW119937   5.703   6.928   0.407 -0.6996 -0.6542 -0.9208
 6346SOL    HW219938   5.579   6.926   0.513  0.5266  1.5261  0.6355
 6347SOL     OW19939   6.103   4.762   3.768  0.0449  0.0505 -0.5981
 6347SOL    HW119940   6.019   4.767   3.822 -0.6490  0.8332 -1.6901
 6347SOL    HW219941   6.168   4.700   3.812 -0.5876  0.4529  0.9588
 6348SOL     OW19942   0.941   3.483   4.786 -0.3767 -0.1447  0.4394
 6348SOL    HW119943   0.984   3.424   4.718  3.0014  0.3837  1.9005
 6348SOL    HW219944   0.950   3.579   4.759  0.6968  0.0514  1.4172
 6349SOL     OW19945   0.505   5.790   2.465 -0.0072 -0.0788  0.0856
 6349SOL    HW119946   0.529   5.705   2.512 -0.4327 -1.5516 -2.2075
 6349SOL    HW219947   0.420   5.827   2.502  0.1693 -0.6614  1.0851
 6350SOL     OW19948   3.419   3.389   0.379 -0.0315 -0.1065  0.6033
 6350SOL    HW119949   3.364   3.357   0.456  0.9177 -0.5981  1.0937
 6350SOL    HW219950   3.512   3.409   0.410  1.8545 -4.7327 -1.1214
 6351SOL     OW19951   2.577   2.104   1.650  0.0225  0.1466 -0.1459
 6351SOL    HW119952   2.598   2.006   1.653 -0.5237  0.0530  0.9756
 6351SOL    HW219953   2.662   2.156   1.649  0.4179 -0.2657  2.8568
 6352SOL     OW19954   3.650   1.936   1.394  0.3345 -0.3971  0.3637
 6352SOL    HW119955   3.555   1.909   1.377  0.7811 -0.7328 -1.8918
 6352SOL    HW219956   3.703   1.857   1.424 -0.0635 -0.2242  1.5585
 6353SOL     OW19957   0.059   5.852   4.191  0.2176  1.2514 -0.3554
 6353SOL    HW119958  -0.024   5.818   4.145  2.1226 -0.0421 -3.1183
 6353SOL    HW219959   0.115   5.774   4.220  1.1728  2.0847  0.0936
 6354SOL     OW19960   4.866   2.229   3.975 -0.2277 -0.2812  0.9233
 6354SOL    HW119961   4.862   2.329   3.975  0.4146 -0.1397 -2.4991
 6354SOL    HW219962   4.777   2.192   3.999 -2.0753  1.2997 -2.7557
 6355SOL     OW19963   6.197   1.852   4.809 -0.0384  0.0800  0.4668
 6355SOL    HW119964   6.250   1.935   4.792 -0.0186  0.0767  0.5134
 6355SOL    HW219965   6.214   1.820   4.902  0.2771 -0.2141  0.3081
 6356SOL     OW19966   5.993   3.284   5.449  0.1574 -0.1923  0.0363
 6356SOL    HW119967   5.936   3.365   5.432 -1.3029 -0.4228  3.1595
 6356SOL    HW219968   5.951   3.204   5.407  0.9665  0.3879 -2.0140
 6357SOL     OW19969   4.065   0.642   6.063 -0.3839  0.7378 -0.8569
 6357SOL    HW119970   3.990   0.691   6.018 -1.5420 -0.4524 -0.2933
 6357SOL    HW219971   4.123   0.599   5.994 -0.3538  1.4541 -1.2895
 6358SOL     OW19972   4.628   6.172   2.219  0.0192 -0.3863  0.3003
 6358SOL    HW119973   4.572   6.098   2.255 -0.2109  0.4354  1.6862
 6358SOL    HW219974   4.595   6.260   2.254  0.8734  0.3048 -0.5533
 6359SOL     OW19975   0.609   1.032   3.751  0.1055  0.1652 -0.0892
 6359SOL    HW119976   0.668   0.970   3.700  0.3183 -0.5442  0.9883
 6359SOL    HW219977   0.523   0.985   3.774 -0.7844  1.0852 -1.3838
 6360SOL     OW19978   2.162   5.253   2.753 -0.3678 -0.2679 -0.4208
 6360SOL    HW119979   2.193   5.229   2.661 -0.7114  2.3816 -1.3362
 6360SOL    HW219980   2.062   5.255   2.755 -0.3595  1.1918 -0.4763
 6361SOL     OW19981   4.372   0.223   0.777  0.0118  0.8227  0.2514
 6361SOL    HW119982   4.407   0.317   0.777 -2.5176  1.8472 -0.7344
 6361SOL    HW219983   4.363   0.190   0.683 -3.4928  1.4661  0.2089
 6362SOL     OW19984   1.734   5.966   4.290 -0.0900  0.3009  0.0330
 6362SOL    HW119985   1.658   5.904   4.268  0.1763 -0.4018  1.0430
 6362SOL    HW219986   1.697   6.056   4.312 -0.5752  0.1593 -0.1761
 6363SOL     OW19987   2.976   3.576   0.271  0.3438 -0.4219  0.6342
 6363SOL    HW119988   2.911   3.514   0.314 -1.4462  0.7488 -0.2537
 6363SOL    HW219989   3.060   3.527   0.249 -1.4466 -2.9083 -1.1947
 6364SOL     OW19990   4.945   5.267   6.091  0.3938 -0.2366  0.2344
 6364SOL    HW119991   4.918   5.204   6.163 -1.1469 -0.1934 -0.2566
 6364SOL    HW219992   5.006   5.221   6.027 -1.2369 -1.4890 -0.4875
 6365SOL     OW19993   5.415   0.624   5.881 -0.1537 -0.3421 -0.7294
 6365SOL    HW119994   5.492   0.573   5.843  1.0796  1.1649 -0.3618
 6365SOL    HW219995   5.389   0.696   5.817 -0.4749 -0.1042 -0.3312
 6366SOL     OW19996   1.603   2.719   2.095  0.1819  0.0070 -0.3565
 6366SOL    HW119997   1.614   2.750   2.189 -2.2820 -1.8163  0.6412
 6366SOL    HW219998   1.593   2.619   2.093 -0.1731  0.0251 -2.4963
 6367SOL     OW19999   1.955   6.519   2.876 -0.4843  0.1976 -0.5497
 6367SOL    HW120000   2.006   6.586   2.929 -3.5375  1.6364  0.8534
 6367SOL    HW220001   1.981   6.525   2.780  1.7529  0.9529  0.0519
 6368SOL     OW20002   3.710   5.245   4.118  0.1017  0.7042 -0.7825
 6368SOL    HW120003   3.662   5.326   4.152  0.4346 -0.5420  3.1609
 6368SOL    HW220004   3.795   5.273   4.074 -0.2596  2.5435 -0.4015
 6369SOL     OW20005   2.437   5.549   4.756 -0.1052 -0.1312 -0.1625
 6369SOL    HW120006   2.357   5.589   4.711  0.1614  0.3161 -0.2361
 6369SOL    HW220007   2.444   5.452   4.731  1.4885  0.6554 -3.1491
 6370SOL     OW20008   0.199   5.556   6.235 -0.3938 -0.7107 -0.3998
 6370SOL    HW120009   0.211   5.473   6.290  0.5415 -0.0824  0.3967
 6370SOL    HW220010   0.230   5.539   6.142  0.8164 -0.9656  0.0278
 6371SOL     OW20011   5.118   0.986   5.052  0.3737 -1.1841  0.0434
 6371SOL    HW120012   5.039   0.936   5.015  0.6688 -0.3947 -1.7856
 6371SOL    HW220013   5.187   0.996   4.980  0.7366  1.0045  0.6283
 6372SOL     OW20014   5.288   4.340   4.066  0.6271 -0.0082 -0.3480
 6372SOL    HW120015   5.268   4.258   4.013  2.4191 -0.0140 -1.1173
 6372SOL    HW220016   5.232   4.416   4.032  0.8765 -0.3057 -1.4930
 6373SOL     OW20017   6.758   0.257   0.584 -0.2044 -0.3485 -0.7978
 6373SOL    HW120018   6.855   0.237   0.601 -0.2037 -0.1379 -0.5423
 6373SOL    HW220019   6.738   0.350   0.613 -0.4689 -0.3663 -0.9209
 6374SOL     OW20020   2.604   0.676   1.549  0.0037 -0.0065  0.1454
 6374SOL    HW120021   2.540   0.602   1.570 -0.1010 -0.0333 -0.2503
 6374SOL    HW220022   2.691   0.636   1.520 -0.0505  0.0242 -0.0614
 6375SOL     OW20023   3.051   0.456   3.607  0.3162 -0.2019 -0.4996
 6375SOL    HW120024   3.048   0.446   3.508  0.5727 -0.9105 -0.4451
 6375SOL    HW220025   3.145   0.475   3.636  0.8636 -2.9859 -0.1667
 6376SOL     OW20026   6.811   6.178   6.314 -0.1701 -0.3660 -1.0005
 6376SOL    HW120027   6.899   6.219   6.292 -0.9729  1.3762 -1.1541
 6376SOL    HW220028   6.801   6.091   6.267  1.4091 -0.5307 -1.0673
 6377SOL     OW20029   3.637   2.084   3.617  0.1033 -0.5142 -0.4329
 6377SOL    HW120030   3.556   2.121   3.572  0.6716 -1.2671 -2.1326
 6377SOL    HW220031   3.626   2.093   3.716 -1.9963 -0.5183 -0.6153
 6378SOL     OW20032   0.780   2.761   5.880 -0.0995 -0.2119 -0.0867
 6378SOL    HW120033   0.874   2.768   5.914 -0.4220 -0.2186  0.8448
 6378SOL    HW220034   0.779   2.772   5.781  0.9679 -0.9394 -0.1920
 6379SOL     OW20035   2.315   6.620   5.515  0.1192  0.2073  0.1826
 6379SOL    HW120036   2.312   6.709   5.560 -0.1661 -0.8413  2.3493
 6379SOL    HW220037   2.222   6.588   5.497  0.2122  0.1634 -0.2411
 6380SOL     OW20038   0.999   6.232   6.249 -0.6877 -0.6202 -0.5902
 6380SOL    HW120039   0.928   6.162   6.233  0.9198 -2.2790 -0.7986
 6380SOL    HW220040   1.081   6.188   6.284 -0.6706  1.6087  2.5395
 6381SOL     OW20041   2.183   4.935   6.287 -0.5012  0.2893 -0.1824
 6381SOL    HW120042   2.107   5.000   6.276  0.4229  1.4025 -0.1351
 6381SOL    HW220043   2.213   4.936   6.382 -0.2853  0.0064 -0.2475
 6382SOL     OW20044   3.081   1.271   0.110 -0.1496  0.3765 -0.6362
 6382SOL    HW120045   3.067   1.241   0.204 -1.5271 -1.2457 -1.3128
 6382SOL    HW220046   3.172   1.314   0.102 -0.5217  1.7712  1.6766
 6383SOL     OW20047   6.868   4.430   5.050 -0.1116 -0.6953  0.5303
 6383SOL    HW120048   6.912   4.485   5.120 -0.1291 -1.5538  1.2308
 6383SOL    HW220049   6.918   4.440   4.963  0.1576  0.0397  0.7685
 6384SOL     OW20050   1.412   3.377   2.626  0.4776  0.2686 -0.5275
 6384SOL    HW120051   1.427   3.284   2.592 -1.9021 -0.4292  0.1895
 6384SOL    HW220052   1.482   3.438   2.587  1.7133 -1.6790 -1.4960
 6385SOL     OW20053   5.840   6.170   6.134 -0.0589 -0.4446  0.5441
 6385SOL    HW120054   5.893   6.106   6.190 -0.5815 -0.5171  0.9596
 6385SOL    HW220055   5.831   6.257   6.182 -1.4051 -0.8417  1.0574
 6386SOL     OW20056   4.397   0.595   0.964 -0.3066 -0.4132  0.3917
 6386SOL    HW120057   4.453   0.666   0.923 -0.6995 -0.6386 -0.5646
 6386SOL    HW220058   4.308   0.592   0.919 -0.6764 -0.8186  1.1219
 6387SOL     OW20059   3.030   0.271   4.409  0.5973 -0.7979  0.2383
 6387SOL    HW120060   3.023   0.241   4.314  1.5122 -1.3533  0.3258
 6387SOL    HW220061   2.980   0.356   4.422 -0.0849 -1.0654 -0.5843
 6388SOL     OW20062   5.314   6.530   5.527  0.2521 -0.1534  0.0984
 6388SOL    HW120063   5.253   6.567   5.458  0.3919  1.3302  0.7167
 6388SOL    HW220064   5.261   6.491   5.602  0.0358  1.0181  0.5748
 6389SOL     OW20065   4.534   4.192   0.599  0.2150  1.0877 -0.2277
 6389SOL    HW120066   4.586   4.185   0.514 -1.4140 -0.9438 -1.1664
 6389SOL    HW220067   4.453   4.249   0.584 -0.7204 -0.2482 -0.4576
 6390SOL     OW20068   6.538   6.159   2.972 -0.0195 -0.2244 -0.6335
 6390SOL    HW120069   6.519   6.179   3.069 -0.0761  0.2649 -0.7396
 6390SOL    HW220070   6.585   6.238   2.931  0.8283 -0.7917 -0.7729
 6391SOL     OW20071   3.343   1.411   4.502  0.1153 -0.3868 -0.2184
 6391SOL    HW120072   3.426   1.387   4.552 -0.3469 -0.8391  0.3504
 6391SOL    HW220073   3.266   1.359   4.539 -0.9698  2.0237  1.1426
 6392SOL     OW20074   1.808   3.562   4.524  0.8108  0.1822 -0.2948
 6392SOL    HW120075   1.880   3.522   4.582  1.2363  0.4391 -0.6391
 6392SOL    HW220076   1.755   3.488   4.482 -0.6227 -0.0274  1.7660
 6393SOL     OW20077   0.321   0.652   5.560 -0.2631 -0.5508 -0.8327
 6393SOL    HW120078   0.404   0.707   5.551 -0.3593 -0.4165 -0.9098
 6393SOL    HW220079   0.256   0.677   5.488 -0.6148 -0.2203 -0.4045
 6394SOL     OW20080   5.128   1.242   2.698 -0.5488 -0.0713 -0.6721
 6394SOL    HW120081   5.168   1.307   2.633 -0.5087 -0.4915 -1.0727
 6394SOL    HW220082   5.031   1.264   2.711 -0.3671  0.5043 -0.2554
 6395SOL     OW20083   2.282   1.484   1.718 -0.4057  0.0309 -0.2541
 6395SOL    HW120084   2.231   1.399   1.728  1.5358 -1.2541 -0.8388
 6395SOL    HW220085   2.376   1.464   1.692  0.3791  2.3256  0.5533
 6396SOL     OW20086   2.673   6.652   5.685 -0.2124 -0.1988 -0.0949
 6396SOL    HW120087   2.623   6.666   5.600 -0.5504 -0.4048  0.0667
 6396SOL    HW220088   2.729   6.732   5.704  0.3907 -0.4289 -0.8584
 6397SOL     OW20089   1.367   4.136   0.365  0.0663  0.0660 -0.5545
 6397SOL    HW120090   1.437   4.138   0.293  1.0770 -0.4759  0.3745
 6397SOL    HW220091   1.345   4.041   0.387 -0.4015  0.2283 -0.3023
 6398SOL     OW20092   6.053   0.372   4.015 -0.4505  0.5202 -0.0021
 6398SOL    HW120093   6.126   0.391   4.081 -0.3778 -1.3111  0.5020
 6398SOL    HW220094   6.066   0.428   3.933  2.5898 -0.9790 -0.6801
 6399SOL     OW20095   1.440   2.497   0.411  0.0981  0.1695 -0.3110
 6399SOL    HW120096   1.377   2.472   0.338  0.5257 -1.9918 -0.0206
 6399SOL    HW220097   1.389   2.537   0.487 -0.5780  0.7449 -1.0550
 6400SOL     OW20098   2.946   6.308   0.622 -0.2334 -0.0219  0.1759
 6400SOL    HW120099   2.989   6.253   0.694  2.4297  1.0173 -0.4982
 6400SOL    HW220100   2.918   6.396   0.660 -3.1019 -1.1251  0.8981
 6401SOL     OW20101   3.905   1.713   2.676 -0.1843 -0.1417 -0.0580
 6401SOL    HW120102   3.865   1.624   2.700  1.3770 -1.0665 -0.6838
 6401SOL    HW220103   4.002   1.712   2.699 -0.3674  1.8436  0.9540
 6402SOL     OW20104   4.650   5.494   4.220  0.0823 -0.3553  0.9938
 6402SOL    HW120105   4.749   5.486   4.217  0.1915  0.7806  1.2278
 6402SOL    HW220106   4.609   5.402   4.222  1.0249 -0.8865 -1.2035
 6403SOL     OW20107   1.873   4.129   5.801  0.5303  0.1192 -0.1218
 6403SOL    HW120108   1.836   4.197   5.739 -0.0444 -2.3172 -2.6527
 6403SOL    HW220109   1.973   4.135   5.803  0.4305  2.3004  1.3749
 6404SOL     OW20110   4.910   4.560   3.264  0.2010  0.0639 -0.2936
 6404SOL    HW120111   4.823   4.534   3.304  1.0426 -1.0875  0.8704
 6404SOL    HW220112   4.912   4.533   3.167  0.5495 -3.2213  0.5416
 6405SOL     OW20113   6.166   1.382   6.891 -0.4155 -0.3916 -0.4460
 6405SOL    HW120114   6.151   1.478   6.913 -0.4163 -0.4645 -0.1257
 6405SOL    HW220115   6.152   1.326   6.973  0.6888 -0.5553 -0.3479
 6406SOL     OW20116   2.083   4.854   0.928  0.0802 -0.5041  0.0275
 6406SOL    HW120117   1.998   4.860   0.979  0.1019  1.5088 -0.1282
 6406SOL    HW220118   2.064   4.854   0.830  0.2069 -1.5859 -0.0181
 6407SOL     OW20119   2.849   0.184   0.159 -0.0053  0.2436 -0.2465
 6407SOL    HW120120   2.781   0.163   0.089 -0.1793 -0.0272  0.0025
 6407SOL    HW220121   2.820   0.264   0.212  0.4575  0.8692 -0.9271
 6408SOL     OW20122   5.729   0.487   0.203 -0.1058 -0.0404  0.1543
 6408SOL    HW120123   5.743   0.540   0.286 -1.0429  1.7597 -0.7689
 6408SOL    HW220124   5.631   0.485   0.181 -0.1082 -2.2241  0.1539
 6409SOL     OW20125   1.859   3.452   6.045 -0.3662  0.2357  0.0166
 6409SOL    HW120126   1.897   3.451   6.138  0.4480 -2.4318 -0.2779
 6409SOL    HW220127   1.891   3.534   5.997  0.5938  0.7927  1.5402
 6410SOL     OW20128   2.445   6.536   4.166 -0.0100  0.4144  0.3200
 6410SOL    HW120129   2.466   6.625   4.125 -0.0662 -0.5929 -2.0165
 6410SOL    HW220130   2.505   6.521   4.244  1.3250  1.6784 -0.4124
 6411SOL     OW20131   5.066   6.549   5.744  0.0934  0.5530  0.5018
 6411SOL    HW120132   5.120   6.564   5.828  1.1297 -0.8002  0.1225
 6411SOL    HW220133   4.994   6.618   5.738 -0.1152  0.5813  2.5977
 6412SOL     OW20134   1.513   2.955   3.838  0.1926  0.0507  0.1928
 6412SOL    HW120135   1.557   3.039   3.806  0.7842 -0.4520 -0.3684
 6412SOL    HW220136   1.558   2.923   3.921  1.3054 -0.7493 -0.6694
 6413SOL     OW20137   1.834   3.769   0.062  0.8585 -0.7658 -0.2561
 6413SOL    HW120138   1.887   3.685   0.066  1.2762 -0.4792  0.6949
 6413SOL    HW220139   1.802   3.793   0.154  0.4618 -0.0703 -0.5630
 6414SOL     OW20140   4.051   1.894   6.029 -0.6750 -0.2826 -0.1218
 6414SOL    HW120141   4.088   1.933   5.945 -0.5871 -1.2291 -0.5322
 6414SOL    HW220142   3.989   1.819   6.007 -1.1757 -0.1023  0.6382
 6415SOL     OW20143   1.686   1.352   0.524 -0.2908  0.4248  0.0829
 6415SOL    HW120144   1.725   1.371   0.614 -0.8924  0.0293  0.4371
 6415SOL    HW220145   1.666   1.439   0.478  0.9665  0.6273 -0.1035
 6416SOL     OW20146   2.413   7.015   2.435  0.3016  0.1463  0.2237
 6416SOL    HW120147   2.442   6.931   2.388 -1.0695  0.2839 -0.9116
 6416SOL    HW220148   2.444   7.012   2.530  1.6923 -0.8945 -0.2311
 6417SOL     OW20149   2.676   4.134   1.660  0.0099  0.2021  0.3143
 6417SOL    HW120150   2.763   4.180   1.676 -0.2899  1.2553 -0.8945
 6417SOL    HW220151   2.601   4.197   1.681 -0.4347 -0.2268  0.0381
 6418SOL     OW20152   3.393   3.270   5.876 -0.0201 -0.1140 -0.1437
 6418SOL    HW120153   3.316   3.296   5.819  0.0026  0.4215  0.0655
 6418SOL    HW220154   3.472   3.249   5.818 -0.2558 -0.4639 -0.3464
 6419SOL     OW20155   1.717   6.250   3.780 -0.0803  0.5773  0.1725
 6419SOL    HW120156   1.741   6.186   3.854 -0.5651  1.7911  1.4242
 6419SOL    HW220157   1.801   6.287   3.740  0.2442  2.2020  2.2025
 6420SOL     OW20158   3.833   3.911   4.885 -1.0398 -0.5696  0.1831
 6420SOL    HW120159   3.896   3.881   4.813 -0.5344 -0.9630  0.7732
 6420SOL    HW220160   3.791   3.998   4.859 -2.3527 -1.6597 -1.4572
 6421SOL     OW20161   1.173   0.582   1.614 -0.5096  0.4105 -0.1687
 6421SOL    HW120162   1.092   0.633   1.643 -0.8417 -1.5934  2.8974
 6421SOL    HW220163   1.144   0.500   1.564 -0.3456  0.0946  0.2485
 6422SOL     OW20164   1.335   3.334   3.817 -0.0098  0.4772 -0.1048
 6422SOL    HW120165   1.255   3.394   3.806 -2.0579 -2.1857 -0.6759
 6422SOL    HW220166   1.322   3.274   3.895  1.4888 -0.0046 -0.1854
 6423SOL     OW20167   6.994   6.626   5.486  0.5211 -0.0865  0.1215
 6423SOL    HW120168   6.987   6.633   5.586  0.9638  0.1364  0.1400
 6423SOL    HW220169   7.026   6.713   5.449 -0.1566 -0.0006 -0.2671
 6424SOL     OW20170   0.106   3.133   6.673  0.2070 -0.0272 -0.1291
 6424SOL    HW120171   0.021   3.156   6.720 -0.3334  0.6270 -1.3781
 6424SOL    HW220172   0.181   3.188   6.711  0.3891 -1.5949  1.9215
 6425SOL     OW20173   0.658   6.208   2.965 -0.3284 -0.3075  0.5735
 6425SOL    HW120174   0.679   6.279   2.897 -1.9922  0.1696  0.5192
 6425SOL    HW220175   0.720   6.217   3.042 -0.8183  1.5821  0.8070
 6426SOL     OW20176   1.966   6.313   2.393 -0.0072  0.4621 -0.2995
 6426SOL    HW120177   1.945   6.296   2.489  0.5337 -0.2465 -0.3003
 6426SOL    HW220178   1.958   6.411   2.374 -0.8494  0.5180  0.2824
 6427SOL     OW20179   4.166   2.511   0.140  0.3468  0.0588  0.4133
 6427SOL    HW120180   4.183   2.518   0.042  0.3209 -0.5168  0.3654
 6427SOL    HW220181   4.253   2.498   0.188  0.2456 -1.0410  0.3337
 6428SOL     OW20182   3.355   5.181   6.807 -0.2059  0.8158 -0.2888
 6428SOL    HW120183   3.272   5.200   6.859  0.4196  0.0649  1.0288
 6428SOL    HW220184   3.380   5.085   6.818 -0.3841  0.4686 -2.5062
 6429SOL     OW20185   1.249   4.980   0.286  0.2548  0.0595  0.2770
 6429SOL    HW120186   1.173   5.024   0.239  0.3609  1.6406  1.4645
 6429SOL    HW220187   1.335   5.003   0.241  0.0339 -2.7468 -1.8182
 6430SOL     OW20188   3.326   6.476   4.889 -0.3182 -0.1029 -0.5150
 6430SOL    HW120189   3.424   6.480   4.908 -0.4924 -0.0249  0.3749
 6430SOL    HW220190   3.301   6.552   4.829 -0.3006  1.4841  1.4096
 6431SOL     OW20191   5.383   0.057   3.630  0.3276 -0.2860  0.6113
 6431SOL    HW120192   5.387   0.073   3.729  2.3613  0.9308  0.4058
 6431SOL    HW220193   5.446   0.120   3.584  0.0747 -1.4120 -1.3991
 6432SOL     OW20194   3.282   5.575   2.432 -0.3930 -0.1231  0.0660
 6432SOL    HW120195   3.344   5.592   2.508  1.5340 -1.6680 -1.0794
 6432SOL    HW220196   3.202   5.525   2.464 -0.5340  0.8991  1.3702
 6433SOL     OW20197   6.738   6.307   1.090 -0.8318 -0.0991 -0.0649
 6433SOL    HW120198   6.681   6.355   1.022 -0.6120 -0.8267 -0.7803
 6433SOL    HW220199   6.778   6.374   1.153 -0.5297  0.6637 -1.0418
 6434SOL     OW20200   4.319   4.607   2.313 -0.0144 -0.4548 -0.2742
 6434SOL    HW120201   4.308   4.553   2.396  2.2764  1.5339  1.4683
 6434SOL    HW220202   4.396   4.572   2.260 -0.6894 -0.9584 -0.9373
 6435SOL     OW20203   4.463   0.466   0.733 -0.3976  0.0797  0.3002
 6435SOL    HW120204   4.414   0.542   0.777 -1.1459 -0.4932  0.4792
 6435SOL    HW220205   4.550   0.453   0.779 -0.6600  0.2497  0.8635
 6436SOL     OW20206   2.856   0.562   3.372 -0.4105 -0.5668 -0.0942
 6436SOL    HW120207   2.868   0.658   3.344 -0.0980 -0.6257 -0.1701
 6436SOL    HW220208   2.941   0.512   3.355  1.0068  0.1236  3.8655
 6437SOL     OW20209   4.810   2.772   0.393  0.1726 -0.1063  0.2599
 6437SOL    HW120210   4.725   2.722   0.383 -0.2461  0.6090  0.1639
 6437SOL    HW220211   4.856   2.745   0.478 -1.4482  1.3878  1.6774
 6438SOL     OW20212   0.981   5.570   2.443 -0.1237 -0.2032  0.2890
 6438SOL    HW120213   0.939   5.648   2.397  1.6352  1.5080  1.4329
 6438SOL    HW220214   1.001   5.499   2.376 -0.1867  1.0447 -1.1059
 6439SOL     OW20215   5.634   1.386   2.860 -0.3061  0.0801 -0.8931
 6439SOL    HW120216   5.554   1.359   2.807 -0.2786 -1.1437 -0.3447
 6439SOL    HW220217   5.606   1.438   2.940 -0.6621 -1.1753 -0.1735
 6440SOL     OW20218   4.883   5.537   5.829  0.2715 -0.5105  0.5048
 6440SOL    HW120219   4.975   5.502   5.812  0.8191  0.8598  0.5147
 6440SOL    HW220220   4.834   5.545   5.742 -0.5719 -3.0475  0.6632
 6441SOL     OW20221   6.471   5.539   6.096  0.2900 -0.3559  0.0933
 6441SOL    HW120222   6.516   5.628   6.089  0.1860 -0.1280  1.9024
 6441SOL    HW220223   6.372   5.551   6.089  0.3222 -0.8119 -3.4494
 6442SOL     OW20224   3.465   0.485   5.169  0.2269 -0.0138 -0.0335
 6442SOL    HW120225   3.556   0.493   5.211  1.5404 -0.2843 -2.6521
 6442SOL    HW220226   3.466   0.411   5.102 -1.6658  0.6353 -0.8344
 6443SOL     OW20227   4.587   1.527   5.366 -0.1699 -0.2934  0.2175
 6443SOL    HW120228   4.513   1.589   5.391 -0.0731 -0.3034  0.5358
 6443SOL    HW220229   4.667   1.545   5.424 -0.1558 -0.7389  0.3389
 6444SOL     OW20230   0.347   2.504   0.348  0.1853  0.0064 -0.2326
 6444SOL    HW120231   0.435   2.509   0.301 -0.0661 -0.5778 -0.7702
 6444SOL    HW220232   0.363   2.484   0.445  0.6330 -0.2716 -0.3608
 6445SOL     OW20233   6.684   0.345   5.653 -0.3855 -0.2948  0.2167
 6445SOL    HW120234   6.743   0.264   5.660  1.2306  0.8685  0.4877
 6445SOL    HW220235   6.670   0.384   5.744 -1.5940 -0.5494  0.1537
 6446SOL     OW20236   6.372   4.969   5.012  0.5468 -0.0892 -0.1295
 6446SOL    HW120237   6.305   4.991   5.083  1.9525  2.6043  0.5127
 6446SOL    HW220238   6.452   4.925   5.053  1.3256  1.3957  0.0263
 6447SOL     OW20239   4.787   2.906   2.869  0.8508 -0.0911  0.3374
 6447SOL    HW120240   4.821   2.885   2.777  1.3487  0.7698  0.3052
 6447SOL    HW220241   4.828   2.993   2.900  0.3246 -0.1335  1.1801
 6448SOL     OW20242   6.087   2.549   6.200 -0.1623 -0.0343  0.2647
 6448SOL    HW120243   6.026   2.522   6.126 -0.1513 -2.2439  0.9879
 6448SOL    HW220244   6.129   2.637   6.178 -0.8368 -0.2003 -1.9159
 6449SOL     OW20245   5.707   5.016   0.570 -0.3760  0.3886 -0.3944
 6449SOL    HW120246   5.794   4.978   0.601  0.1351  1.3270 -0.6248
 6449SOL    HW220247   5.635   4.994   0.636  0.4935  1.5357  1.0180
 6450SOL     OW20248   3.558   5.938   3.565  0.0746  0.1075 -0.1916
 6450SOL    HW120249   3.647   5.952   3.523  0.3277 -0.7599  0.0363
 6450SOL    HW220250   3.547   5.841   3.589 -0.6061  0.3471  0.4999
 6451SOL     OW20251   6.640   5.847   1.216 -0.1177 -0.1490 -0.0970
 6451SOL    HW120252   6.648   5.904   1.298 -1.0576  0.2265 -0.2432
 6451SOL    HW220253   6.681   5.894   1.138  0.2994 -0.2687  0.0494
 6452SOL     OW20254   1.663   1.673   1.044  0.1078 -0.0016 -0.2287
 6452SOL    HW120255   1.742   1.712   0.998 -0.8444  2.9705  0.4704
 6452SOL    HW220256   1.646   1.722   1.130 -0.7965 -2.4751  1.1090
 6453SOL     OW20257   2.254   2.626   4.837  0.0831 -0.0599 -0.2743
 6453SOL    HW120258   2.206   2.627   4.924  0.1723 -2.6804 -0.1172
 6453SOL    HW220259   2.188   2.636   4.762 -0.6688 -2.4291 -0.0138
 6454SOL     OW20260   0.858   4.432   1.566  0.5198  0.3591  0.3821
 6454SOL    HW120261   0.796   4.492   1.517 -0.4200 -0.9445 -0.1007
 6454SOL    HW220262   0.825   4.418   1.659  0.8121  0.6887  0.5374
 6455SOL     OW20263   2.080   1.556   4.422  0.1298 -0.4014 -0.3859
 6455SOL    HW120264   2.029   1.481   4.380  0.3621 -0.5402 -0.4240
 6455SOL    HW220265   2.169   1.523   4.452 -0.2092 -0.4111  0.6321
 6456SOL     OW20266   5.513   3.632   0.969 -0.7630  0.0936 -0.5428
 6456SOL    HW120267   5.556   3.560   0.915 -2.8590 -0.3131 -1.7817
 6456SOL    HW220268   5.582   3.676   1.027  1.4059 -0.0963 -2.8201
 6457SOL     OW20269   2.332   2.855   5.490 -0.1455 -0.1622 -0.4924
 6457SOL    HW120270   2.370   2.946   5.471 -2.4876  0.8590 -0.7128
 6457SOL    HW220271   2.286   2.857   5.579  1.3807 -1.7399  0.3965
 6458SOL     OW20272   6.259   4.568   1.305  0.4163 -0.1805 -0.1459
 6458SOL    HW120273   6.223   4.571   1.398  0.5991 -0.8651 -0.0430
 6458SOL    HW220274   6.184   4.579   1.240  0.4067  1.2105  0.0799
 6459SOL     OW20275   3.215   4.074   4.463  0.2650  0.0990 -0.6132
 6459SOL    HW120276   3.197   3.983   4.424 -2.9342  0.7609 -0.9783
 6459SOL    HW220277   3.197   4.072   4.561 -0.8895  0.5318 -0.7979
 6460SOL     OW20278   1.838   2.169   6.955  0.0201  0.1522  0.4710
 6460SOL    HW120279   1.927   2.187   6.913 -0.1905  1.8193  0.6483
 6460SOL    HW220280   1.839   2.078   6.997  1.1588 -0.4235 -0.7134
 6461SOL     OW20281   2.965   4.850   2.320  0.4402  0.3825 -0.7229
 6461SOL    HW120282   3.000   4.758   2.302  0.3500  0.3383 -0.6665
 6461SOL    HW220283   2.900   4.847   2.396  0.6710  0.5408 -0.5187
 6462SOL     OW20284   3.393   4.916   6.909  0.0805 -0.3505  0.3498
 6462SOL    HW120285   3.306   4.886   6.869  0.8568 -0.2973 -1.4649
 6462SOL    HW220286   3.465   4.851   6.884  0.8195  0.3148  0.7247
 6463SOL     OW20287   2.820   2.501   1.665  0.1227 -0.2702  0.5669
 6463SOL    HW120288   2.878   2.500   1.746  1.5761  1.9721 -0.3257
 6463SOL    HW220289   2.850   2.430   1.601 -0.4322 -1.4333  1.5637
 6464SOL     OW20290   4.231   0.500   0.522  0.2575  0.2106  0.2239
 6464SOL    HW120291   4.328   0.488   0.544  0.8925  1.5290 -1.5371
 6464SOL    HW220292   4.223   0.535   0.428 -2.0504 -2.0876 -0.5392
 6465SOL     OW20293   1.079   5.504   2.673 -0.8248  0.1928  0.1752
 6465SOL    HW120294   1.048   5.532   2.582 -1.9293  1.6844  0.9652
 6465SOL    HW220295   1.085   5.404   2.677 -1.5843  0.0640 -1.2706
 6466SOL     OW20296   4.727   1.295   5.243 -0.4067  0.0927 -0.2688
 6466SOL    HW120297   4.658   1.350   5.290  2.3346  1.1908  2.8757
 6466SOL    HW220298   4.817   1.312   5.284  1.5895 -2.2236 -3.2560
 6467SOL     OW20299   3.723   0.627   2.533 -0.1626 -0.2688  0.0880
 6467SOL    HW120300   3.760   0.698   2.594  1.5117 -0.5005 -0.5924
 6467SOL    HW220301   3.680   0.555   2.588  0.4532  0.0044  0.9571
 6468SOL     OW20302   5.841   5.668   2.997 -0.1600 -0.3934 -0.8123
 6468SOL    HW120303   5.879   5.576   2.997 -1.9294 -1.1558 -1.3412
 6468SOL    HW220304   5.903   5.729   3.047  0.4720 -2.0991  0.5858
 6469SOL     OW20305   3.551   4.881   3.851 -0.0777 -0.2665 -0.6848
 6469SOL    HW120306   3.504   4.936   3.919 -1.4219 -1.4665 -0.5915
 6469SOL    HW220307   3.493   4.804   3.824  1.1305 -0.8047 -1.9017
 6470SOL     OW20308   5.644   4.065   1.099  0.2231  0.8829 -0.1331
 6470SOL    HW120309   5.652   4.009   1.181  0.3549 -0.8096 -1.2602
 6470SOL    HW220310   5.713   4.037   1.032 -1.3885  0.5894 -1.7513
 6471SOL     OW20311   2.448   5.314   2.601 -0.0645 -0.2701 -0.2952
 6471SOL    HW120312   2.516   5.317   2.528  0.5027  0.6185  0.2552
 6471SOL    HW220313   2.490   5.282   2.685 -0.4618 -0.2617 -0.0918
 6472SOL     OW20314   4.838   6.531   2.496  0.1568  0.0542 -0.3596
 6472SOL    HW120315   4.799   6.525   2.588  3.5540  2.0634  1.4329
 6472SOL    HW220316   4.830   6.443   2.450 -1.2128 -1.1707  2.0447
 6473SOL     OW20317   3.184   3.067   5.623 -0.4687 -0.3924  0.2944
 6473SOL    HW120318   3.246   3.014   5.680  0.6444  0.6700  0.1101
 6473SOL    HW220319   3.165   3.016   5.539  1.6789 -0.0028 -0.5063
 6474SOL     OW20320   6.976   6.118   0.349  0.5701 -0.2120 -0.2184
 6474SOL    HW120321   7.035   6.067   0.287 -1.2652 -3.4546  0.4385
 6474SOL    HW220322   6.961   6.064   0.433 -1.6963  1.3341  0.4667
 6475SOL     OW20323   6.039   4.109   2.762  0.2024 -0.1683  0.1095
 6475SOL    HW120324   6.065   4.198   2.724  1.3494 -0.9330 -0.9753
 6475SOL    HW220325   6.065   4.037   2.699 -0.4080 -1.3153  1.1258
 6476SOL     OW20326   1.150   2.433   5.907 -0.5086  0.1114  0.0417
 6476SOL    HW120327   1.101   2.474   5.984  0.0864  3.2410 -1.1155
 6476SOL    HW220328   1.107   2.459   5.821  0.7860 -0.5095 -0.8316
 6477SOL     OW20329   0.120   0.792   2.200 -0.0505 -0.3400  0.8863
 6477SOL    HW120330   0.154   0.879   2.234 -2.5905  0.2248  2.2589
 6477SOL    HW220331   0.158   0.717   2.254  2.1250 -0.1421 -0.2826
 6478SOL     OW20332   3.293   1.563   2.847 -0.1779  0.0150 -0.4011
 6478SOL    HW120333   3.276   1.520   2.936  0.2382  1.9756  0.6975
 6478SOL    HW220334   3.387   1.544   2.819  0.3616  1.0283  0.6122
 6479SOL     OW20335   2.563   6.600   5.412  0.7722  0.1908  0.3163
 6479SOL    HW120336   2.466   6.582   5.427  0.5478  1.5536  0.6508
 6479SOL    HW220337   2.612   6.514   5.399 -0.7391 -0.4600 -1.4973
 6480SOL     OW20338   0.571   4.531   3.464 -0.3264  0.1806 -0.1390
 6480SOL    HW120339   0.586   4.545   3.561  0.0151 -0.7220 -0.0522
 6480SOL    HW220340   0.653   4.558   3.413 -0.4840  0.5977 -0.1749
 6481SOL     OW20341   0.867   3.083   3.291 -0.0996  0.5403 -0.1789
 6481SOL    HW120342   0.771   3.100   3.311  0.0762  0.2256  0.9953
 6481SOL    HW220343   0.912   3.169   3.267 -0.9616  0.4941 -2.1215
 6482SOL     OW20344   4.198   4.999   2.883  0.0023  0.2490 -0.3676
 6482SOL    HW120345   4.219   4.904   2.906 -1.2160 -0.1959 -1.0337
 6482SOL    HW220346   4.269   5.034   2.822  0.1236 -0.4331 -0.6298
 6483SOL     OW20347   0.583   1.360   2.710 -0.0201 -0.7773 -0.2089
 6483SOL    HW120348   0.681   1.367   2.688 -0.1431 -1.5252 -1.0246
 6483SOL    HW220349   0.547   1.451   2.730  0.8506 -0.4984  0.1564
 6484SOL     OW20350   1.054   4.905   6.486  0.3827 -0.2336  0.5933
 6484SOL    HW120351   0.958   4.913   6.460  0.8248 -0.3402 -1.2396
 6484SOL    HW220352   1.076   4.809   6.502  0.4967 -0.3838 -0.3980
 6485SOL     OW20353   3.368   4.491   6.639  0.1671 -0.1763  0.3129
 6485SOL    HW120354   3.306   4.471   6.715 -0.9568 -0.2677 -0.6024
 6485SOL    HW220355   3.352   4.584   6.606  2.2348  0.7258  1.6165
 6486SOL     OW20356   3.810   5.109   2.312  0.5633 -0.8798 -0.1926
 6486SOL    HW120357   3.849   5.056   2.387 -4.1138  0.0598  3.3856
 6486SOL    HW220358   3.763   5.047   2.248 -2.1014 -1.5042  2.1730
 6487SOL     OW20359   1.216   6.417   3.539 -0.2819  0.2817 -0.4986
 6487SOL    HW120360   1.189   6.494   3.481  0.6971  1.3097  0.3357
 6487SOL    HW220361   1.271   6.353   3.486  0.0139  0.8497 -0.8950
 6488SOL     OW20362   5.295   4.844   4.375 -0.3124  0.3388 -0.2166
 6488SOL    HW120363   5.244   4.760   4.362  0.6456 -0.0581 -1.5606
 6488SOL    HW220364   5.361   4.856   4.301  2.1099  0.4295  1.8237
 6489SOL     OW20365   0.727   1.886   3.492 -0.4409  0.1044 -0.0509
 6489SOL    HW120366   0.721   1.789   3.470 -3.5338  0.5482 -1.7740
 6489SOL    HW220367   0.675   1.904   3.575 -0.3398  0.3498 -0.0406
 6490SOL     OW20368   1.019   0.256   3.741 -0.4136 -0.1412  0.2375
 6490SOL    HW120369   1.026   0.352   3.716  0.9122 -0.2528  0.1269
 6490SOL    HW220370   1.100   0.207   3.709 -0.5200 -1.0628  1.3249
 6491SOL     OW20371   2.137   5.885   6.196  0.3397 -0.1438  0.0436
 6491SOL    HW120372   2.054   5.831   6.182  0.5482 -0.3748 -0.3260
 6491SOL    HW220373   2.153   5.943   6.116  0.5781 -0.1626  0.0763
 6492SOL     OW20374   6.241   1.845   5.547 -0.1920  0.1866  0.1041
 6492SOL    HW120375   6.252   1.906   5.626 -1.7150  0.8443 -0.1598
 6492SOL    HW220376   6.161   1.787   5.560 -1.7487  1.7582 -1.8040
 6493SOL     OW20377   0.271   2.256   4.691  0.2271  1.0651 -0.1308
 6493SOL    HW120378   0.272   2.356   4.686 -0.3720  1.2092  1.7625
 6493SOL    HW220379   0.281   2.227   4.786  0.4487 -0.6973 -0.6505
 6494SOL     OW20380   2.090   2.770   6.194  0.4238 -0.8489  0.0344
 6494SOL    HW120381   2.182   2.808   6.185  0.7489 -1.7132 -0.4490
 6494SOL    HW220382   2.079   2.731   6.286  0.1981  0.1141  0.4214
 6495SOL     OW20383   2.846   5.278   1.566  0.4434 -0.6413 -0.4109
 6495SOL    HW120384   2.811   5.248   1.655  0.0162  0.0122 -0.3492
 6495SOL    HW220385   2.804   5.224   1.494 -0.4007 -0.1443 -0.3080
 6496SOL     OW20386   2.132   6.478   4.886 -0.1173 -0.0642  0.1362
 6496SOL    HW120387   2.104   6.573   4.871 -1.2799 -0.3179  0.5384
 6496SOL    HW220388   2.081   6.419   4.823 -2.0274 -0.7342  2.1499
 6497SOL     OW20389   1.464   2.325   2.292  0.1512 -0.0096  0.3446
 6497SOL    HW120390   1.521   2.347   2.371  0.2672 -0.0016  0.2599
 6497SOL    HW220391   1.431   2.231   2.299  2.4698 -1.0258 -0.9605
 6498SOL     OW20392   3.939   1.019   1.014  0.1096 -0.0590 -0.0635
 6498SOL    HW120393   4.013   0.957   0.990 -1.5782 -2.3015  0.2183
 6498SOL    HW220394   3.966   1.113   0.994  2.5326 -0.9107 -1.0954
 6499SOL     OW20395   4.388   5.428   5.011  0.6383  0.4722 -0.5119
 6499SOL    HW120396   4.335   5.455   5.091  0.1728 -0.8535 -0.3436
 6499SOL    HW220397   4.366   5.333   4.987  1.6230  0.4760 -1.5141
 6500SOL     OW20398   3.662   3.758   6.727  0.4213 -0.0849 -0.0695
 6500SOL    HW120399   3.700   3.772   6.819  0.3706  1.2685 -0.2416
 6500SOL    HW220400   3.708   3.818   6.662  0.0687 -0.6300 -0.8377
 6501SOL     OW20401   6.730   3.822   3.797  0.2749  0.2220 -0.4646
 6501SOL    HW120402   6.659   3.793   3.860  0.8839 -1.4903 -0.5009
 6501SOL    HW220403   6.689   3.859   3.714 -0.5506  0.3189 -0.0184
 6502SOL     OW20404   5.311   4.114   4.587 -0.2036  0.0687  0.1837
 6502SOL    HW120405   5.338   4.146   4.678  0.5043 -1.1782  0.4465
 6502SOL    HW220406   5.235   4.049   4.596  0.2451 -0.4988 -0.0411
 6503SOL     OW20407   5.504   1.257   0.314 -0.0136  0.3532  0.1039
 6503SOL    HW120408   5.452   1.316   0.251 -1.0106 -2.4280 -1.9163
 6503SOL    HW220409   5.450   1.175   0.334  1.0285  0.3137  3.3260
 6504SOL     OW20410   2.364   4.319   1.996  0.1715  0.4412 -0.7339
 6504SOL    HW120411   2.415   4.396   1.958 -0.4263  0.8088 -0.8138
 6504SOL    HW220412   2.405   4.290   2.083  0.5017  0.7365 -0.7912
 6505SOL     OW20413   2.343   1.985   0.835 -0.5726  0.9630 -0.2652
 6505SOL    HW120414   2.316   1.898   0.792 -0.9744  0.8824  0.1448
 6505SOL    HW220415   2.264   2.024   0.883 -0.0550  0.8949  0.6607
 6506SOL     OW20416   3.611   1.071   0.178  0.0499 -0.6779  0.3365
 6506SOL    HW120417   3.702   1.113   0.176 -1.2992  2.5076 -0.6450
 6506SOL    HW220418   3.585   1.044   0.086  0.9415 -4.1267  0.9627
 6507SOL     OW20419   4.952   0.116   3.165  0.7908  0.0792  0.0934
 6507SOL    HW120420   4.993   0.063   3.239  2.8695 -1.0039 -1.7163
 6507SOL    HW220421   4.912   0.053   3.098 -0.2878  0.9935 -0.1453
 6508SOL     OW20422   5.867   3.942   4.738 -0.2765  0.6578 -0.0575
 6508SOL    HW120423   5.832   3.991   4.658 -0.9243  1.2425  0.5737
 6508SOL    HW220424   5.889   4.008   4.810 -2.3901 -0.0340  1.2964
 6509SOL     OW20425   5.167   0.323   6.406  0.0528  0.1103  0.0871
 6509SOL    HW120426   5.219   0.383   6.346  0.3145 -1.7781 -1.6690
 6509SOL    HW220427   5.230   0.261   6.453 -0.4323 -1.0682 -0.7727
 6510SOL     OW20428   4.482   0.246   2.047  0.3521  0.1899 -0.5443
 6510SOL    HW120429   4.552   0.178   2.027  0.8190  0.5694 -0.2054
 6510SOL    HW220430   4.396   0.200   2.071  1.3325 -0.3868  2.3057
 6511SOL     OW20431   6.787   4.143   0.190  0.0676 -0.0835 -0.2415
 6511SOL    HW120432   6.784   4.213   0.119  0.0199 -0.0098 -0.1673
 6511SOL    HW220433   6.771   4.053   0.149  2.5486 -0.3675 -0.7320
 6512SOL     OW20434   0.116   0.226   2.370  0.7415  0.1801 -0.3074
 6512SOL    HW120435   0.179   0.152   2.397 -0.0480 -0.8375 -1.1700
 6512SOL    HW220436   0.032   0.218   2.423 -0.1453 -0.8005 -1.7940
 6513SOL     OW20437   6.075   5.476   3.044 -0.5108 -0.2476  0.0337
 6513SOL    HW120438   6.026   5.400   3.002 -2.0235  0.7107  0.0010
 6513SOL    HW220439   6.071   5.468   3.143 -0.2127 -0.4645  0.0332
 6514SOL     OW20440   1.597   2.300   2.855 -0.3740  0.5364 -0.1944
 6514SOL    HW120441   1.536   2.268   2.927  1.4696 -1.7382  0.5048
 6514SOL    HW220442   1.569   2.260   2.768  0.9706 -1.9742  0.4085
 6515SOL     OW20443   5.460   6.751   4.794  0.9025 -0.7078 -0.1730
 6515SOL    HW120444   5.461   6.848   4.768  1.0898 -0.4181  0.8851
 6515SOL    HW220445   5.393   6.703   4.738  0.1274  0.2162 -0.0621
 6516SOL     OW20446   2.130   3.957   3.608 -0.0776  0.1055 -0.4220
 6516SOL    HW120447   2.220   3.965   3.564  0.4021  0.8387  0.6359
 6516SOL    HW220448   2.084   4.046   3.605 -0.4777 -0.0975 -0.3468
 6517SOL     OW20449   5.972   3.848   5.830  0.4811 -0.3593  0.5709
 6517SOL    HW120450   6.006   3.808   5.745  1.0148  1.8128 -0.2996
 6517SOL    HW220451   5.872   3.850   5.829  0.4911  0.2579 -0.3241
 6518SOL     OW20452   3.801   1.020   4.794 -0.1807  0.4092  0.1520
 6518SOL    HW120453   3.771   0.994   4.886 -0.5532  2.1559  0.5543
 6518SOL    HW220454   3.743   1.095   4.760  1.7402  1.7348 -0.3289
 6519SOL     OW20455   1.479   6.802   3.349  0.2814  0.1458 -0.0052
 6519SOL    HW120456   1.429   6.877   3.392  1.1445 -0.1530  1.6095
 6519SOL    HW220457   1.422   6.759   3.280 -1.7017 -0.1681  1.7213
 6520SOL     OW20458   4.690   0.345   4.818 -0.8746  0.4417 -0.0156
 6520SOL    HW120459   4.590   0.338   4.818 -0.9312  1.1041  0.2502
 6520SOL    HW220460   4.717   0.431   4.774 -0.3330 -0.5640 -1.7371
 6521SOL     OW20461   1.491   0.526   5.108 -0.1704  0.0940 -0.0380
 6521SOL    HW120462   1.472   0.442   5.058 -0.3759  0.0213  0.1615
 6521SOL    HW220463   1.557   0.507   5.181 -0.4295  0.0449  0.1862
 6522SOL     OW20464   2.929   6.917   0.178 -0.1752 -0.3450  0.5984
 6522SOL    HW120465   3.015   6.909   0.227  0.2247  0.8079  0.1265
 6522SOL    HW220466   2.896   7.012   0.183  0.4611  0.1244 -2.2421
 6523SOL     OW20467   6.173   1.200   4.770 -0.8075  0.0561 -0.0696
 6523SOL    HW120468   6.203   1.121   4.823 -1.1055  0.7876  1.2334
 6523SOL    HW220469   6.073   1.208   4.776 -1.0288 -0.7218 -2.0257
 6524SOL     OW20470   5.605   4.692   0.755 -0.5441  0.3545 -0.0844
 6524SOL    HW120471   5.665   4.627   0.707  1.0421  1.3364  0.4992
 6524SOL    HW220472   5.581   4.654   0.845  0.0491  0.3856  0.0931
 6525SOL     OW20473   4.097   0.812   6.263  0.0098 -0.5466 -1.0459
 6525SOL    HW120474   4.084   0.720   6.226 -0.2242  0.0991 -2.6633
 6525SOL    HW220475   4.056   0.878   6.200  0.9806  0.7223 -0.3652
 6526SOL     OW20476   6.258   5.379   5.293 -0.5103  0.3940  0.2007
 6526SOL    HW120477   6.258   5.330   5.380 -0.0326 -1.3915 -0.7491
 6526SOL    HW220478   6.180   5.349   5.238 -0.5485  1.1660 -0.1763
 6527SOL     OW20479   4.563   1.226   3.158 -0.1317 -0.1672 -0.9401
 6527SOL    HW120480   4.559   1.137   3.204 -4.0165 -1.2220 -2.8429
 6527SOL    HW220481   4.657   1.245   3.130  1.1197 -2.8138  1.0492
 6528SOL     OW20482   5.170   2.498   4.120  0.2033 -0.6293  0.2257
 6528SOL    HW120483   5.217   2.569   4.171  1.0681  0.0617 -1.4426
 6528SOL    HW220484   5.135   2.536   4.034  0.0608 -2.0469 -0.3759
 6529SOL     OW20485   6.820   5.323   2.070  0.2411  0.3072  0.4769
 6529SOL    HW120486   6.799   5.419   2.054  0.2404  0.4424  1.2870
 6529SOL    HW220487   6.859   5.284   1.986  1.5516  1.3726  0.5596
 6530SOL     OW20488   1.228   0.177   6.145  0.1416 -0.1261  0.0367
 6530SOL    HW120489   1.269   0.228   6.221  0.6035  0.0230 -0.3058
 6530SOL    HW220490   1.133   0.154   6.167  0.0655  0.5015  0.3743
 6531SOL     OW20491   3.151   1.497   4.765 -0.5708 -0.1350  0.0915
 6531SOL    HW120492   3.060   1.502   4.808 -0.7086 -0.1448 -0.1939
 6531SOL    HW220493   3.221   1.490   4.835 -0.7551  0.4073  0.3386
 6532SOL     OW20494   1.971   5.060   3.751 -0.2255  0.1091 -0.0608
 6532SOL    HW120495   1.943   4.981   3.697 -0.8063  0.0083  0.3837
 6532SOL    HW220496   2.069   5.075   3.739 -0.0859 -0.7510 -0.0502
 6533SOL     OW20497   4.662   3.470   0.790 -0.3827  0.1321  0.4650
 6533SOL    HW120498   4.563   3.466   0.774 -0.3592  0.7543  0.1160
 6533SOL    HW220499   4.710   3.437   0.709 -0.2997 -2.4607  1.4709
 6534SOL     OW20500   4.633   5.315   3.138 -1.0704 -0.5148 -0.3494
 6534SOL    HW120501   4.534   5.326   3.146 -1.1381 -1.3978  0.1144
 6534SOL    HW220502   4.654   5.230   3.089 -0.5568 -2.3251  2.7739
 6535SOL     OW20503   1.946   2.913   3.789  0.1579 -0.1271  0.1307
 6535SOL    HW120504   1.863   2.963   3.813 -1.1616 -2.2836  0.3766
 6535SOL    HW220505   1.981   2.945   3.701 -1.8777 -0.2406 -0.7641
 6536SOL     OW20506   2.312   5.057   2.904 -0.7324 -0.1891  0.1733
 6536SOL    HW120507   2.257   5.119   2.849  2.2598  1.3205 -1.3415
 6536SOL    HW220508   2.357   5.109   2.977  0.4403 -0.8854 -0.0301
 6537SOL     OW20509   5.559   0.515   5.625 -0.2911  0.2692  1.1802
 6537SOL    HW120510   5.645   0.557   5.656 -0.9560  0.8369  2.3373
 6537SOL    HW220511   5.574   0.418   5.607  1.1572  0.8262 -1.0308
 6538SOL     OW20512   1.083   1.543   4.384 -0.0793  0.0712  0.2245
 6538SOL    HW120513   1.052   1.449   4.390  2.2392 -0.6817  2.8470
 6538SOL    HW220514   1.043   1.596   4.459  2.3380 -0.1784  1.8020
 6539SOL     OW20515   1.416   4.286   6.465 -0.2435  0.1185 -0.0573
 6539SOL    HW120516   1.509   4.281   6.501  0.0026  1.8273 -0.3732
 6539SOL    HW220517   1.351   4.287   6.542 -0.0268 -1.1459  0.1612
 6540SOL     OW20518   6.683   5.012   6.708 -0.3698  0.1344  0.2716
 6540SOL    HW120519   6.669   5.100   6.752 -1.3649  0.0239  0.1919
 6540SOL    HW220520   6.770   5.012   6.658  0.4885  0.4752  1.7079
 6541SOL     OW20521   2.746   6.116   6.433  0.2373  0.0222  0.2392
 6541SOL    HW120522   2.728   6.019   6.453  0.7144 -0.3474 -1.0231
 6541SOL    HW220523   2.716   6.172   6.510  0.8840 -1.2112  1.4333
 6542SOL     OW20524   1.481   6.212   0.583 -0.0064  0.5111  0.5268
 6542SOL    HW120525   1.548   6.139   0.567  1.1277  1.6025  0.0945
 6542SOL    HW220526   1.435   6.234   0.498  1.3522  1.8747  0.1006
 6543SOL     OW20527   0.402   2.964   5.959 -0.1679 -0.1616 -0.4974
 6543SOL    HW120528   0.359   2.930   5.876 -0.6726  0.7306 -0.6151
 6543SOL    HW220529   0.332   2.982   6.028  0.2289 -0.7026  0.0487
 6544SOL     OW20530   4.288   2.867   6.593 -0.1629 -0.5879  0.4169
 6544SOL    HW120531   4.213   2.901   6.650 -0.1975 -0.3561  0.2376
 6544SOL    HW220532   4.306   2.772   6.614  0.7164 -0.1496  1.7494
 6545SOL     OW20533   3.887   1.292   0.216  0.4906 -0.2490 -0.1999
 6545SOL    HW120534   3.966   1.301   0.277 -0.2647 -1.6729  1.0379
 6545SOL    HW220535   3.910   1.232   0.140  0.9206  0.1955 -0.4259
 6546SOL     OW20536   1.283   6.163   4.832 -0.5633 -0.0484  0.1797
 6546SOL    HW120537   1.294   6.067   4.807  0.0720  0.0768 -0.0416
 6546SOL    HW220538   1.234   6.212   4.760 -1.6635 -0.3843  0.6829
 6547SOL     OW20539   3.018   3.624   5.719 -0.2884 -0.2922  0.3798
 6547SOL    HW120540   3.001   3.590   5.626 -0.9113 -0.8486  0.6917
 6547SOL    HW220541   3.063   3.713   5.714  0.6950 -0.8083 -0.4631
 6548SOL     OW20542   0.592   0.277   5.281  0.6712  0.0708 -0.2179
 6548SOL    HW120543   0.610   0.264   5.378  3.8503 -2.0175 -0.9319
 6548SOL    HW220544   0.537   0.201   5.246 -1.8138  1.5967  0.1210
 6549SOL     OW20545   0.863   1.068   3.094  0.7342 -0.6892 -0.3021
 6549SOL    HW120546   0.945   1.084   3.038  1.6087 -2.0057  0.5486
 6549SOL    HW220547   0.854   1.141   3.162  0.6336 -0.0112 -1.0282
 6550SOL     OW20548   4.591   6.886   5.944 -0.3970 -1.0923 -0.0208
 6550SOL    HW120549   4.667   6.843   5.992  0.6494 -1.3276 -1.7763
 6550SOL    HW220550   4.622   6.914   5.852 -1.8986  0.6025 -0.0607
 6551SOL     OW20551   6.935   4.640   5.239 -0.2920  0.5747  0.8084
 6551SOL    HW120552   6.974   4.730   5.217 -1.1095  0.8427  0.3697
 6551SOL    HW220553   6.875   4.649   5.319 -0.5831  0.4827  0.6017
 6552SOL     OW20554   0.516   1.314   6.876  0.1269 -0.0024  0.8437
 6552SOL    HW120555   0.466   1.235   6.840  0.4745  0.4987 -0.8131
 6552SOL    HW220556   0.455   1.368   6.934 -0.9062 -0.0705 -0.1508
 6553SOL     OW20557   6.451   0.346   3.777 -1.0210 -0.2593  0.3479
 6553SOL    HW120558   6.435   0.410   3.702 -2.6456 -0.9888  0.0305
 6553SOL    HW220559   6.398   0.263   3.762  1.0314 -1.7173  0.7493
 6554SOL     OW20560   5.378   0.770   0.297 -0.2450 -0.4900  0.0638
 6554SOL    HW120561   5.439   0.794   0.221 -0.3783 -1.9780 -0.5356
 6554SOL    HW220562   5.429   0.714   0.363  0.1373  1.5079  1.5763
 6555SOL     OW20563   1.610   5.559   5.036 -0.1749 -0.1934 -0.8541
 6555SOL    HW120564   1.600   5.519   4.945 -1.8779  0.0537 -0.8009
 6555SOL    HW220565   1.685   5.625   5.034 -0.6163  0.3101 -2.2657
 6556SOL     OW20566   2.193   0.738   3.918 -0.2039 -0.7156  0.3824
 6556SOL    HW120567   2.217   0.815   3.977  1.2548 -1.0064  0.2082
 6556SOL    HW220568   2.148   0.667   3.972 -0.9443 -0.0438  0.6734
 6557SOL     OW20569   5.541   6.230   1.380 -0.3675  0.1294  0.1627
 6557SOL    HW120570   5.571   6.147   1.333 -0.5910  0.9525 -1.4870
 6557SOL    HW220571   5.596   6.243   1.462  0.7419 -0.7981 -0.4073
 6558SOL     OW20572   4.111   5.108   1.184 -0.1795 -0.3344 -0.0106
 6558SOL    HW120573   4.138   5.167   1.109 -1.5318 -0.0865 -0.3408
 6558SOL    HW220574   4.024   5.140   1.222 -0.9785 -2.1171 -0.2234
 6559SOL     OW20575   2.208   6.973   3.222  0.1976  0.0249  0.0239
 6559SOL    HW120576   2.241   6.888   3.262 -0.9411 -0.0945  0.7634
 6559SOL    HW220577   2.257   7.050   3.261  1.2355 -0.2858 -0.6476
 6560SOL     OW20578   5.122   6.529   5.103  0.3892 -0.5751 -0.2501
 6560SOL    HW120579   5.058   6.456   5.079  1.7863 -2.3890  1.2407
 6560SOL    HW220580   5.111   6.551   5.200  1.3851 -0.2794 -0.1971
 6561SOL     OW20581   1.797   6.997   1.277  0.1658 -0.2226  0.2957
 6561SOL    HW120582   1.722   6.932   1.266 -1.0134  1.4086 -1.9519
 6561SOL    HW220583   1.769   7.072   1.336  0.9770 -0.9000  1.5841
 6562SOL     OW20584   0.542   6.783   6.855  0.0650 -0.3402 -0.0143
 6562SOL    HW120585   0.629   6.830   6.857  0.7029 -1.3692 -1.3573
 6562SOL    HW220586   0.529   6.740   6.765 -2.6030  1.2030 -0.4788
 6563SOL     OW20587   6.805   0.415   4.062  0.5288 -0.2843 -0.9053
 6563SOL    HW120588   6.785   0.318   4.078 -1.3704 -0.0325 -1.5052
 6563SOL    HW220589   6.805   0.464   4.150  0.2089 -0.6135 -0.7208
 6564SOL     OW20590   0.575   6.327   3.381 -0.3782  0.6038  0.4779
 6564SOL    HW120591   0.584   6.246   3.439  0.5780  0.8579  0.7103
 6564SOL    HW220592   0.492   6.377   3.405 -0.6815 -0.0017  0.7121
 6565SOL     OW20593   5.557   2.443   1.749 -0.1576 -0.4175  0.1660
 6565SOL    HW120594   5.551   2.527   1.803 -1.7856  0.7059 -1.6312
 6565SOL    HW220595   5.471   2.430   1.699  0.5521 -2.4812 -0.5947
 6566SOL     OW20596   2.648   3.349   6.587 -0.6919 -0.2121  0.5633
 6566SOL    HW120597   2.688   3.303   6.508  0.8310  1.1937  0.4584
 6566SOL    HW220598   2.589   3.285   6.637  0.9340 -2.1239  0.1651
 6567SOL     OW20599   3.408   0.989   4.523 -0.7100 -0.2180 -0.3628
 6567SOL    HW120600   3.366   0.994   4.614 -1.2952  0.3614 -0.6594
 6567SOL    HW220601   3.508   0.991   4.532 -0.7699  0.8609  0.2126
 6568SOL     OW20602   6.937   6.027   3.271  0.3791  0.1729  0.6653
 6568SOL    HW120603   7.032   6.034   3.241  0.6775  2.9519  1.8694
 6568SOL    HW220604   6.932   5.976   3.357  0.5897 -1.0287 -0.0243
 6569SOL     OW20605   3.961   6.107   1.770 -0.2142 -0.6655 -0.2279
 6569SOL    HW120606   3.971   6.194   1.722  1.4489 -0.5617  0.2215
 6569SOL    HW220607   3.897   6.049   1.721 -0.4978  0.3869 -1.1534
 6570SOL     OW20608   1.050   3.102   2.465 -0.3897  0.1433  0.4086
 6570SOL    HW120609   1.053   3.066   2.372 -0.2081  0.2340  0.3792
 6570SOL    HW220610   1.040   3.027   2.530  1.2359 -0.0857  0.4304
 6571SOL     OW20611   1.674   5.721   2.415  0.0174  0.3466 -0.4640
 6571SOL    HW120612   1.755   5.685   2.368  0.4563  0.5968  0.0785
 6571SOL    HW220613   1.666   5.677   2.505 -0.9369 -0.2922 -0.8385
 6572SOL     OW20614   4.743   4.475   6.716  0.4599 -0.2991 -0.1825
 6572SOL    HW120615   4.777   4.381   6.713 -0.6200 -0.7075 -0.3730
 6572SOL    HW220616   4.655   4.480   6.669  0.0619  0.6159  0.6102
 6573SOL     OW20617   2.838   4.843   3.124 -0.3748 -0.0315 -0.3089
 6573SOL    HW120618   2.811   4.760   3.075  2.5711 -1.0724 -0.3499
 6573SOL    HW220619   2.790   4.922   3.085 -1.5169 -1.4097 -1.8132
 6574SOL     OW20620   0.405   1.666   0.062 -1.0234 -0.0483  0.2924
 6574SOL    HW120621   0.457   1.723  -0.002 -0.5799 -0.5761  0.1740
 6574SOL    HW220622   0.367   1.587   0.013  1.3955 -1.8299  1.0753
 6575SOL     OW20623   3.450   1.203   1.466 -0.1517 -0.0621  0.4527
 6575SOL    HW120624   3.509   1.168   1.538  1.3665  2.0407  0.3165
 6575SOL    HW220625   3.354   1.198   1.495  0.3753  0.0999  2.3162
 6576SOL     OW20626   4.024   4.504   6.667 -0.0124 -0.9003  0.0764
 6576SOL    HW120627   3.988   4.466   6.581 -0.9662 -0.1088  0.1061
 6576SOL    HW220628   4.116   4.539   6.651 -1.1680  1.7818 -1.4217
 6577SOL     OW20629   6.001   0.876   4.582  1.1975 -0.8655  0.0450
 6577SOL    HW120630   6.007   0.805   4.512  1.8404 -0.8900  0.1193
 6577SOL    HW220631   6.040   0.961   4.547  0.7777 -0.6542  0.0884
 6578SOL     OW20632   1.881   1.127   1.565  0.3670  0.0924  0.4297
 6578SOL    HW120633   1.818   1.184   1.618  0.7664  0.4836  0.4925
 6578SOL    HW220634   1.869   1.147   1.467  2.1062  2.0440  0.5324
 6579SOL     OW20635   1.365   6.011   1.241 -0.5207  0.0526 -0.3418
 6579SOL    HW120636   1.418   6.066   1.176 -0.2906 -0.1614 -0.3336
 6579SOL    HW220637   1.369   6.055   1.331 -0.4223  0.0802 -0.3587
 6580SOL     OW20638   1.013   2.057   5.199 -0.2514 -0.9401  0.3716
 6580SOL    HW120639   0.994   2.040   5.102  0.9143 -1.4016  0.2103
 6580SOL    HW220640   1.111   2.072   5.211 -0.4582 -0.3447  1.4108
 6581SOL     OW20641   6.182   6.473   1.905  0.0443  0.0416  0.1711
 6581SOL    HW120642   6.104   6.508   1.957 -0.5785 -0.5528 -0.3509
 6581SOL    HW220643   6.221   6.394   1.952 -0.6359 -0.6115 -0.3535
 6582SOL     OW20644   3.621   1.561   1.878 -0.4719  0.3377  0.5895
 6582SOL    HW120645   3.667   1.617   1.946  0.3066  0.3129  0.0998
 6582SOL    HW220646   3.587   1.478   1.921  0.8230 -0.1171  0.7964
 6583SOL     OW20647   0.020   3.189   5.340  0.0001 -0.3220  0.0283
 6583SOL    HW120648  -0.010   3.108   5.392  0.3509 -0.3543  0.1888
 6583SOL    HW220649  -0.011   3.182   5.246 -1.6544  0.2912  0.4920
 6584SOL     OW20650   2.314   1.896   5.665 -0.2182 -0.6212  0.1962
 6584SOL    HW120651   2.228   1.945   5.681 -1.1640 -1.8167 -0.9354
 6584SOL    HW220652   2.314   1.811   5.717  1.4147  0.4751  2.1550
 6585SOL     OW20653   5.549   5.772   2.043 -0.5645 -0.2429 -0.4524
 6585SOL    HW120654   5.558   5.809   1.950  1.1923 -1.0724 -0.6665
 6585SOL    HW220655   5.641   5.753   2.080 -1.2165  0.1966  1.5162
 6586SOL     OW20656   3.114   5.336   0.255 -0.2452 -0.1911 -0.5484
 6586SOL    HW120657   3.127   5.239   0.278  0.1818  0.0461  0.2355
 6586SOL    HW220658   3.202   5.378   0.235 -0.5099 -0.1568 -1.7675
 6587SOL     OW20659   5.940   4.497   2.117  0.7744 -0.0939  0.6732
 6587SOL    HW120660   5.974   4.556   2.190 -0.1803  0.9128  0.3292
 6587SOL    HW220661   5.849   4.463   2.141  0.0385  1.0101 -0.4251
 6588SOL     OW20662   6.321   6.811   4.955 -0.2987  0.6427 -0.5307
 6588SOL    HW120663   6.384   6.737   4.931  1.0594  1.1904  1.0993
 6588SOL    HW220664   6.303   6.868   4.875 -0.1835 -0.5960 -1.4442
 6589SOL     OW20665   4.700   6.195   0.743 -0.1533  0.0738  0.2872
 6589SOL    HW120666   4.676   6.215   0.648  2.5670 -1.1876 -0.7491
 6589SOL    HW220667   4.679   6.275   0.799 -1.8181  0.8572 -1.3269
 6590SOL     OW20668   5.938   4.491   5.858  0.1903  0.2409 -0.5291
 6590SOL    HW120669   5.882   4.536   5.926 -0.2476 -1.0114 -0.0316
 6590SOL    HW220670   6.029   4.472   5.896  1.0321  2.2790 -1.3379
 6591SOL     OW20671   3.903   4.736   6.800  0.0468 -0.5870 -0.6017
 6591SOL    HW120672   3.936   4.657   6.749  0.1579 -1.6856  1.0950
 6591SOL    HW220673   3.917   4.819   6.746 -1.0348 -1.7870 -2.8885
 6592SOL     OW20674   0.842   6.099   2.236 -0.2145  0.3757  0.1727
 6592SOL    HW120675   0.848   6.100   2.335 -1.0418 -0.4849  0.2470
 6592SOL    HW220676   0.811   6.189   2.203  3.7753  2.0011  0.3602
 6593SOL     OW20677   3.152   3.750   5.030 -0.9073  0.2149 -0.2997
 6593SOL    HW120678   3.159   3.718   4.936 -0.6709  0.7100 -0.4529
 6593SOL    HW220679   3.159   3.850   5.032  1.9823  0.0880  0.4952
 6594SOL     OW20680   1.998   5.506   1.335  0.4278  0.0102 -0.0159
 6594SOL    HW120681   2.017   5.543   1.244 -1.4583 -0.3798 -0.6042
 6594SOL    HW220682   1.954   5.416   1.326  1.1567 -0.5074  1.3175
 6595SOL     OW20683   3.717   6.286   2.899  0.6717  0.1709  0.4744
 6595SOL    HW120684   3.618   6.295   2.885  0.2961 -1.6617  1.5891
 6595SOL    HW220685   3.740   6.316   2.992  0.7718 -1.4509  1.0058
 6596SOL     OW20686   3.402   2.909   5.065  0.1416 -0.7999 -0.1774
 6596SOL    HW120687   3.307   2.937   5.054  0.2318  0.6400  2.0646
 6596SOL    HW220688   3.449   2.916   4.977 -1.3113  0.5430 -0.8983
 6597SOL     OW20689   5.986   0.616   1.374  0.0484  0.6591 -0.2496
 6597SOL    HW120690   5.968   0.547   1.444  1.0604 -0.6390 -1.2152
 6597SOL    HW220691   5.904   0.629   1.318  0.2536 -0.8379 -0.9449
 6598SOL     OW20692   5.769   4.532   0.584 -0.0909 -0.2323 -0.2062
 6598SOL    HW120693   5.864   4.559   0.601 -0.3328  2.8522 -2.8858
 6598SOL    HW220694   5.768   4.451   0.525  0.9344  0.3322 -1.0358
 6599SOL     OW20695   4.885   1.420   4.289 -0.3805 -0.3870 -0.9644
 6599SOL    HW120696   4.817   1.461   4.349 -0.7194 -1.5084 -0.5577
 6599SOL    HW220697   4.977   1.445   4.319 -0.5880  1.7836 -1.9771
 6600SOL     OW20698   1.167   6.530   3.965 -0.3903 -0.7153  0.5542
 6600SOL    HW120699   1.173   6.615   4.018  0.6410 -1.4934  1.7374
 6600SOL    HW220700   1.093   6.473   4.002  0.9089 -1.6590  1.8435
 6601SOL     OW20701   5.295   3.229   1.302 -0.5154  1.1155  0.3906
 6601SOL    HW120702   5.298   3.142   1.252  0.8126  0.1880  1.9814
 6601SOL    HW220703   5.237   3.219   1.383  1.2360  1.0252  1.6961
 6602SOL     OW20704   6.792   5.754   5.586  0.2779 -0.3001 -0.2337
 6602SOL    HW120705   6.885   5.786   5.604 -0.1162 -0.3313  2.2340
 6602SOL    HW220706   6.756   5.708   5.668 -1.9444 -0.2049 -1.0824
 6603SOL     OW20707   3.892   3.934   1.303 -0.6929 -0.7433 -0.3494
 6603SOL    HW120708   3.903   3.848   1.253 -1.7140  0.7271 -3.3332
 6603SOL    HW220709   3.982   3.967   1.333 -0.1190 -2.0399 -0.5693
 6604SOL     OW20710   2.135   4.575   6.486  0.0039 -0.7999 -0.4290
 6604SOL    HW120711   2.088   4.624   6.412  2.0236  0.2458 -1.0820
 6604SOL    HW220712   2.207   4.633   6.524  1.1826 -2.5480  0.1101
 6605SOL     OW20713   3.244   3.630   1.458  0.3722  0.0012 -0.5911
 6605SOL    HW120714   3.212   3.539   1.485 -0.1691  0.0916 -0.9105
 6605SOL    HW220715   3.269   3.682   1.539 -1.1209  0.2299 -0.2342
 6606SOL     OW20716   3.898   1.486   5.561  0.2323 -0.0594 -0.4509
 6606SOL    HW120717   3.989   1.527   5.557 -1.4156  4.4394  1.0916
 6606SOL    HW220718   3.836   1.538   5.502 -1.6795 -2.1402 -0.4215
 6607SOL     OW20719   5.547   0.898   2.274 -0.6224 -0.0998 -0.1408
 6607SOL    HW120720   5.566   0.982   2.324  0.2441  0.3886 -1.2319
 6607SOL    HW220721   5.624   0.835   2.284 -0.0231  0.3573 -1.5094
 6608SOL     OW20722   1.558   1.753   5.168  0.1784 -0.3334 -0.3468
 6608SOL    HW120723   1.615   1.825   5.207  0.0720 -0.3730 -0.1126
 6608SOL    HW220724   1.507   1.708   5.242 -1.1379  0.5587 -0.6926
 6609SOL     OW20725   3.678   1.259   1.717  0.3890 -0.0768  0.8846
 6609SOL    HW120726   3.621   1.329   1.674  2.0614 -0.2061 -1.7860
 6609SOL    HW220727   3.750   1.303   1.770 -0.6733  0.1199  2.2031
 6610SOL     OW20728   4.181   6.091   1.095 -0.4774 -0.4493  0.3525
 6610SOL    HW120729   4.227   6.089   1.184  2.9350 -1.9978 -1.2748
 6610SOL    HW220730   4.200   6.179   1.051  0.0207 -0.6745  0.1165
 6611SOL     OW20731   4.566   0.038   3.007 -0.3278  0.3564 -0.3101
 6611SOL    HW120732   4.477   0.053   2.965 -0.4136 -1.8046 -0.9915
 6611SOL    HW220733   4.634   0.098   2.964 -1.2321  1.2966 -0.4741
 6612SOL     OW20734   6.474   5.572   6.516  0.7300  0.3371  0.9128
 6612SOL    HW120735   6.455   5.494   6.456 -0.5376  0.1166  1.5633
 6612SOL    HW220736   6.564   5.609   6.495  1.2765 -1.1811  0.4508
 6613SOL     OW20737   5.872   5.471   5.664 -0.2804  0.0936  0.4633
 6613SOL    HW120738   5.909   5.386   5.701  2.0191  0.4534 -0.8405
 6613SOL    HW220739   5.945   5.539   5.657 -1.6077  1.4896 -0.4981
 6614SOL     OW20740   0.857   7.005   2.789 -0.2414  0.5145  0.2834
 6614SOL    HW120741   0.829   6.939   2.858 -0.5324  0.4649  0.1204
 6614SOL    HW220742   0.791   7.005   2.714  0.9384 -0.6317 -0.7906
 6615SOL     OW20743   6.553   0.227   5.087 -0.1385 -0.2484 -0.0536
 6615SOL    HW120744   6.559   0.168   5.168 -1.4306 -0.2671  0.0644
 6615SOL    HW220745   6.621   0.199   5.020  0.6286 -0.5519  0.8234
 6616SOL     OW20746   0.238   0.594   2.715  0.6031  0.1386 -0.3297
 6616SOL    HW120747   0.199   0.508   2.681 -0.5080 -0.1432  1.5153
 6616SOL    HW220748   0.182   0.671   2.685 -0.3985 -0.1131  0.7973
 6617SOL     OW20749   2.215   5.127   4.953  0.9660  0.2336 -0.4040
 6617SOL    HW120750   2.124   5.142   4.992  0.7789 -1.2781 -0.1589
 6617SOL    HW220751   2.220   5.034   4.917  2.8213 -0.1926  0.7791
 6618SOL     OW20752   1.938   3.364   0.711  0.0304  0.3786 -0.3627
 6618SOL    HW120753   2.005   3.295   0.739 -1.6544 -1.1802  0.0217
 6618SOL    HW220754   1.984   3.438   0.661  2.4105  0.7446  2.1552
 6619SOL     OW20755   5.206   1.097   1.370 -0.4583  0.3191 -0.9803
 6619SOL    HW120756   5.211   1.000   1.349  0.9975  0.7184 -2.8231
 6619SOL    HW220757   5.152   1.144   1.299 -2.3107  0.7161  0.6200
 6620SOL     OW20758   1.457   4.768   0.381 -0.6875 -0.2436  0.3681
 6620SOL    HW120759   1.503   4.697   0.328  0.1893  0.1982  0.5032
 6620SOL    HW220760   1.369   4.790   0.339  0.6535  1.2321 -1.9294
 6621SOL     OW20761   2.345   0.490   1.342  0.2331  0.4392  0.5858
 6621SOL    HW120762   2.437   0.451   1.336  0.4411  0.8014  1.3341
 6621SOL    HW220763   2.297   0.450   1.420 -0.0115  0.7298  0.5876
 6622SOL     OW20764   2.879   1.110   1.378 -0.0796 -0.1072  0.2114
 6622SOL    HW120765   2.979   1.109   1.378 -0.0783 -0.8885  0.2697
 6622SOL    HW220766   2.845   1.018   1.398 -0.8131 -0.1348 -1.0646
 6623SOL     OW20767   5.316   2.992   1.182 -0.0230  0.3201 -0.3988
 6623SOL    HW120768   5.359   2.955   1.099  0.8714  1.1815 -0.3332
 6623SOL    HW220769   5.222   2.958   1.188 -0.2218  0.5023 -1.9459
 6624SOL     OW20770   2.281   3.701   0.540  0.2421 -0.3284 -0.2811
 6624SOL    HW120771   2.362   3.663   0.585  1.4337  1.6013 -0.6766
 6624SOL    HW220772   2.287   3.801   0.540 -2.3145 -0.1012 -0.0498
 6625SOL     OW20773   0.087   5.643   0.903  0.1338  0.6000  0.3131
 6625SOL    HW120774  -0.003   5.686   0.899 -0.0247  0.4762  1.9059
 6625SOL    HW220775   0.077   5.543   0.902  0.3105  0.5855 -0.3325
 6626SOL     OW20776   4.214   2.476   6.900 -0.1743 -0.6701  0.1661
 6626SOL    HW120777   4.133   2.424   6.871  0.0661 -2.0309  1.7315
 6626SOL    HW220778   4.278   2.414   6.946 -0.4225  1.1760  3.2909
 6627SOL     OW20779   6.323   4.049   4.080  0.1489  0.1143  0.2464
 6627SOL    HW120780   6.238   3.997   4.083 -0.4757  1.1678  1.3869
 6627SOL    HW220781   6.399   3.991   4.111 -0.5294 -0.1302  1.4895
 6628SOL     OW20782   0.292   2.215   0.673  0.1682  0.2410  0.1373
 6628SOL    HW120783   0.281   2.162   0.757 -1.4007 -1.2708 -0.9447
 6628SOL    HW220784   0.209   2.268   0.657  0.6995  0.9984 -0.1803
 6629SOL     OW20785   1.097   3.387   4.216 -0.4343  0.0230 -0.5550
 6629SOL    HW120786   1.030   3.449   4.257 -0.6780 -0.3711 -0.3454
 6629SOL    HW220787   1.187   3.403   4.255 -0.7256 -0.5673  0.3837
 6630SOL     OW20788   6.780   4.774   1.813  0.6282  0.5419 -0.5860
 6630SOL    HW120789   6.713   4.700   1.823 -1.3676  2.3157 -0.0876
 6630SOL    HW220790   6.871   4.735   1.799 -0.0497 -2.0201  1.3445
 6631SOL     OW20791   5.637   3.188   6.781  0.0129  0.2372  0.6870
 6631SOL    HW120792   5.597   3.107   6.737  0.3189 -0.3487  1.4589
 6631SOL    HW220793   5.566   3.256   6.796 -0.3659 -0.1178  0.5337
 6632SOL     OW20794   4.757   5.041   6.878 -0.1479 -0.3311 -0.5860
 6632SOL    HW120795   4.745   5.088   6.965 -0.2946  1.0318 -1.3131
 6632SOL    HW220796   4.766   4.943   6.894  0.2610 -0.0622  0.9857
 6633SOL     OW20797   6.562   4.242   1.744 -0.4227  0.1431  0.1518
 6633SOL    HW120798   6.519   4.290   1.821 -1.5252 -1.4749  0.6079
 6633SOL    HW220799   6.633   4.182   1.779 -0.6615 -0.3063 -0.1323
 6634SOL     OW20800   7.010   0.272   6.220 -0.3279  0.3797 -0.2894
 6634SOL    HW120801   7.105   0.304   6.230 -0.5694  1.1121 -0.2874
 6634SOL    HW220802   6.986   0.269   6.123  0.3051 -1.6656 -0.4359
 6635SOL     OW20803   4.706   1.443   3.578 -0.2990  0.2394 -0.0830
 6635SOL    HW120804   4.798   1.409   3.555 -0.2813  0.9400 -1.1297
 6635SOL    HW220805   4.706   1.543   3.575 -0.7671  0.2920  1.2751
 6636SOL     OW20806   3.219   5.980   0.397 -0.3781 -0.5729 -0.8591
 6636SOL    HW120807   3.164   6.063   0.401  0.4302  0.0613 -2.3584
 6636SOL    HW220808   3.177   5.915   0.334 -0.0830 -0.5980 -1.0329
 6637SOL     OW20809   0.685   0.520   2.322  0.3312 -0.3753  0.1633
 6637SOL    HW120810   0.627   0.457   2.374  0.6145 -2.1837 -1.6142
 6637SOL    HW220811   0.652   0.613   2.336 -0.6763 -0.9509  2.1459
 6638SOL     OW20812   3.071   3.216   4.783  0.1859 -0.3167  0.1112
 6638SOL    HW120813   3.100   3.218   4.879  2.8123  0.3754 -0.6211
 6638SOL    HW220814   3.010   3.293   4.765 -0.1796 -0.3373  1.1632
 6639SOL     OW20815   5.763   6.203   3.598  0.1387  0.2273  0.3773
 6639SOL    HW120816   5.796   6.156   3.680  1.3976  1.5649  0.6703
 6639SOL    HW220817   5.836   6.205   3.530  0.0168  1.5314  0.2779
 6640SOL     OW20818   3.224   5.139   1.056  0.3436  0.2962  0.1320
 6640SOL    HW120819   3.251   5.117   0.962  0.9843  0.3738  0.2923
 6640SOL    HW220820   3.240   5.059   1.115  1.2790  0.6933  0.4347
 6641SOL     OW20821   4.722   4.956   1.490 -0.3075 -0.8216  0.4342
 6641SOL    HW120822   4.789   4.908   1.434 -0.9747 -0.9350 -0.2902
 6641SOL    HW220823   4.677   4.890   1.551 -0.8237 -1.0293 -0.1589
 6642SOL     OW20824   2.249   4.781   0.517 -0.0247 -0.3304 -0.1810
 6642SOL    HW120825   2.331   4.723   0.520  0.5454  0.4843  0.1124
 6642SOL    HW220826   2.175   4.735   0.565 -0.4661 -2.1466 -2.3746
 6643SOL     OW20827   3.300   2.459   0.825  0.0365 -0.0067  0.2517
 6643SOL    HW120828   3.341   2.547   0.845 -2.6061  1.8451 -1.8050
 6643SOL    HW220829   3.214   2.472   0.776 -1.1336 -3.7154  0.9540
 6644SOL     OW20830   2.605   2.643   5.729  0.0474  0.8460 -0.0139
 6644SOL    HW120831   2.654   2.576   5.672  0.5377  0.2298  1.1068
 6644SOL    HW220832   2.670   2.689   5.790 -0.7663 -0.1010  1.6238
 6645SOL     OW20833   3.420   1.391   6.616  0.1003  0.2750  0.2953
 6645SOL    HW120834   3.407   1.420   6.521 -0.9863  1.4689  0.7753
 6645SOL    HW220835   3.391   1.296   6.626 -0.3030  0.3057 -0.4669
 6646SOL     OW20836   6.212   1.493   5.993 -0.1258  0.6215  0.3706
 6646SOL    HW120837   6.299   1.455   5.962 -0.5653  1.1209 -1.5989
 6646SOL    HW220838   6.139   1.463   5.932 -1.5007 -0.3438  2.3716
 6647SOL     OW20839   1.158   2.888   6.521  0.0923 -0.3384  0.2162
 6647SOL    HW120840   1.200   2.903   6.611  1.4858  0.7577 -0.5745
 6647SOL    HW220841   1.063   2.861   6.533 -0.7690  2.9537  2.0292
 6648SOL     OW20842   4.157   0.479   0.223  0.9577 -0.7847 -0.3248
 6648SOL    HW120843   4.195   0.421   0.150  0.1420 -0.5606 -0.9545
 6648SOL    HW220844   4.141   0.571   0.187 -1.3544 -1.1923 -0.5109
 6649SOL     OW20845   5.335   6.089   4.379 -0.3215 -0.0687 -0.8709
 6649SOL    HW120846   5.410   6.095   4.313 -0.5454 -1.1608 -1.2565
 6649SOL    HW220847   5.307   5.994   4.388  0.7448 -0.2120  2.0156
 6650SOL     OW20848   3.543   2.001   0.138 -0.3578 -0.1964 -0.1352
 6650SOL    HW120849   3.589   1.939   0.074  0.3827  0.3445 -0.1463
 6650SOL    HW220850   3.481   2.061   0.087 -0.2127 -0.1632 -0.2744
 6651SOL     OW20851   3.968   0.849   6.735  0.3341  0.4735  0.4806
 6651SOL    HW120852   4.019   0.925   6.775  0.4112  0.3842  0.5543
 6651SOL    HW220853   3.885   0.884   6.692 -0.7862  0.3794  2.4422
 6652SOL     OW20854   3.235   1.171   3.923  0.2056 -0.5315  0.4840
 6652SOL    HW120855   3.210   1.079   3.893 -1.3773 -0.6119  1.9520
 6652SOL    HW220856   3.210   1.237   3.852 -1.0601 -0.9765  0.5018
 6653SOL     OW20857   6.898   4.307   4.579  0.5147  0.2510 -0.1494
 6653SOL    HW120858   6.907   4.224   4.523  0.2025  0.0194  0.1367
 6653SOL    HW220859   6.879   4.282   4.674 -0.9216  0.6440 -0.2973
 6654SOL     OW20860   4.232   5.817   6.203 -0.0084 -0.2383 -0.2123
 6654SOL    HW120861   4.241   5.883   6.278 -1.4805  0.5194 -0.6606
 6654SOL    HW220862   4.195   5.863   6.122  1.1558 -1.1345 -1.2939
 6655SOL     OW20863   0.557   2.759   4.022 -0.5308  0.3475  0.0263
 6655SOL    HW120864   0.595   2.689   4.082  1.0153  0.2205 -1.0527
 6655SOL    HW220865   0.466   2.786   4.055 -0.8523 -1.6312  0.8662
 6656SOL     OW20866   4.499   5.874   5.900  0.1470  0.2763 -0.2617
 6656SOL    HW120867   4.586   5.861   5.949  0.4674 -1.4368 -1.1940
 6656SOL    HW220868   4.478   5.792   5.848 -1.4534  1.1230 -1.0216
 6657SOL     OW20869   0.113   0.847   3.844 -0.7325  0.8410  0.0561
 6657SOL    HW120870   0.058   0.929   3.831 -0.8168  0.4077 -2.9184
 6657SOL    HW220871   0.113   0.793   3.760  1.6021 -0.8277  1.0263
 6658SOL     OW20872   3.215   5.587   5.420  0.5767 -0.4276  0.0701
 6658SOL    HW120873   3.269   5.666   5.450 -2.1243  1.3764  0.5772
 6658SOL    HW220874   3.214   5.584   5.320 -0.9000  1.5352 -0.0518
 6659SOL     OW20875   5.403   4.889   1.772 -0.8979 -0.1512  0.2836
 6659SOL    HW120876   5.495   4.919   1.797 -0.7458 -0.5475  0.1992
 6659SOL    HW220877   5.337   4.956   1.805 -0.6445 -0.2748  1.0825
 6660SOL     OW20878   1.054   4.385   5.313  0.7131  0.3148 -0.9027
 6660SOL    HW120879   0.992   4.307   5.320  0.7954  0.3052 -0.1799
 6660SOL    HW220880   1.148   4.352   5.301  0.8260  0.2796  0.0105
 6661SOL     OW20881   5.237   3.432   0.537  0.0133  0.0593 -0.1398
 6661SOL    HW120882   5.167   3.406   0.471 -1.7118  1.7699  0.9120
 6661SOL    HW220883   5.297   3.501   0.498  1.2881 -1.5207 -1.0970
 6662SOL     OW20884   5.768   6.738   6.144 -0.5967 -0.6660 -0.8232
 6662SOL    HW120885   5.766   6.665   6.076 -3.0418 -1.0160 -0.4695
 6662SOL    HW220886   5.768   6.827   6.098  0.5481 -0.8748 -1.2519
 6663SOL     OW20887   4.858   6.314   3.690 -0.0136 -0.5812 -0.0641
 6663SOL    HW120888   4.772   6.347   3.653  0.2209 -0.0113 -0.1040
 6663SOL    HW220889   4.843   6.279   3.783  0.0054  1.0544  0.5902
 6664SOL     OW20890   6.405   4.895   6.774 -0.2328 -0.1786 -0.6810
 6664SOL    HW120891   6.462   4.812   6.775 -0.0030 -0.0168 -0.0971
 6664SOL    HW220892   6.462   4.974   6.795 -0.9908 -0.2328  1.9018
 6665SOL     OW20893   3.925   0.507   3.211 -0.2641  0.1551 -0.0567
 6665SOL    HW120894   4.001   0.546   3.158 -0.2365  0.6565  0.3377
 6665SOL    HW220895   3.903   0.416   3.177  0.8437 -0.1999  0.1438
 6666SOL     OW20896   5.487   3.593   6.443 -0.5885  0.1324 -0.1053
 6666SOL    HW120897   5.450   3.500   6.441 -1.5666  0.4061  2.0473
 6666SOL    HW220898   5.416   3.657   6.472 -0.0913  1.6983 -2.0888
 6667SOL     OW20899   0.556   4.009   3.830 -0.5730  0.2150 -0.2181
 6667SOL    HW120900   0.535   4.070   3.753 -1.7378  0.0649 -0.0373
 6667SOL    HW220901   0.542   3.914   3.801 -0.3723  0.1208 -0.0084
 6668SOL     OW20902   4.071   4.797   2.375 -0.0066  0.2157  0.0633
 6668SOL    HW120903   4.025   4.818   2.289  1.3926 -0.0189 -0.7825
 6668SOL    HW220904   4.157   4.750   2.356  0.5216  0.4974  1.5912
 6669SOL     OW20905   0.556   2.102   2.031  0.4536  0.1931  0.6021
 6669SOL    HW120906   0.604   2.017   2.054 -0.7831 -1.5972 -2.7006
 6669SOL    HW220907   0.464   2.100   2.071 -0.2552 -1.0293 -0.9480
 6670SOL     OW20908   0.423   6.358   5.673  0.4645 -0.0366 -0.5952
 6670SOL    HW120909   0.465   6.447   5.688  0.7977  0.3973 -3.4962
 6670SOL    HW220910   0.493   6.293   5.642  0.0010 -0.9858  0.2792
 6671SOL     OW20911   4.991   4.119   6.730  0.4804  0.1430  0.2623
 6671SOL    HW120912   4.940   4.032   6.730 -1.2783  1.1306  0.3081
 6671SOL    HW220913   4.967   4.172   6.650  2.8859 -0.0945 -0.6959
 6672SOL     OW20914   4.835   2.503   4.816 -0.0371 -0.8167  0.1419
 6672SOL    HW120915   4.853   2.479   4.912  1.2414  2.1972  0.7851
 6672SOL    HW220916   4.755   2.562   4.811  0.6004  0.0283 -0.4413
 6673SOL     OW20917   5.432   4.087   3.294 -0.4843 -0.3834 -0.4028
 6673SOL    HW120918   5.386   4.039   3.369 -1.1057  1.1982  0.2916
 6673SOL    HW220919   5.388   4.065   3.208  0.1358 -2.1128 -0.3169
 6674SOL     OW20920   2.600   1.090   6.581 -0.1766  0.5559  0.0346
 6674SOL    HW120921   2.543   1.033   6.521  0.9493 -0.5341 -0.0356
 6674SOL    HW220922   2.541   1.137   6.647 -1.1131 -1.3791  0.6689
 6675SOL     OW20923   5.050   5.249   3.772  0.0477  0.3954  0.4493
 6675SOL    HW120924   5.095   5.161   3.789 -1.4902 -0.5436 -0.0531
 6675SOL    HW220925   5.010   5.248   3.681  0.5622  1.8945  0.1868
 6676SOL     OW20926   5.438   5.520   6.308  0.1322  0.4002 -0.2931
 6676SOL    HW120927   5.461   5.458   6.383 -1.7509  0.5949  0.4848
 6676SOL    HW220928   5.421   5.467   6.225  0.4464  0.0360 -0.1298
 6677SOL     OW20929   4.935   3.507   2.546 -0.1505  0.1418  0.1762
 6677SOL    HW120930   4.914   3.431   2.608  0.0849  0.5642  0.7846
 6677SOL    HW220931   4.976   3.472   2.462 -0.7075 -0.4617  0.1498
 6678SOL     OW20932   3.088   2.135   5.750  0.5452 -0.4259  0.1249
 6678SOL    HW120933   3.038   2.207   5.701  1.5647 -0.8046 -1.5255
 6678SOL    HW220934   3.077   2.149   5.849 -1.6803  0.2765 -0.1636
 6679SOL     OW20935   5.224   6.560   3.867 -0.5139 -0.0964 -0.0397
 6679SOL    HW120936   5.307   6.592   3.820  0.6887 -2.0657  0.6152
 6679SOL    HW220937   5.163   6.518   3.800 -0.3941  0.1807 -0.3292
 6680SOL     OW20938   3.436   3.000   1.318  0.0818  0.1179  0.2143
 6680SOL    HW120939   3.437   3.099   1.326  0.5946  0.3453 -1.9246
 6680SOL    HW220940   3.343   2.968   1.301 -0.0367  0.2587  0.5934
 6681SOL     OW20941   2.272   0.825   3.524 -0.0564  0.2633 -0.4178
 6681SOL    HW120942   2.302   0.900   3.582  0.4043  0.3403 -0.7502
 6681SOL    HW220943   2.196   0.777   3.568  1.0266 -0.3904  0.7906
 6682SOL     OW20944   1.175   0.814   5.558  0.0803  0.5781 -0.8284
 6682SOL    HW120945   1.153   0.892   5.617 -1.6065 -0.1258 -0.4730
 6682SOL    HW220946   1.216   0.846   5.473  0.0502  1.7922 -0.3955
 6683SOL     OW20947   2.365   0.185   4.427 -0.3089  0.0871 -0.4644
 6683SOL    HW120948   2.367   0.283   4.448  0.2522  0.1017 -0.5653
 6683SOL    HW220949   2.452   0.144   4.451 -0.2679 -0.2347 -1.1307
 6684SOL     OW20950   6.386   1.512   3.083 -0.5868 -0.0506  0.1871
 6684SOL    HW120951   6.372   1.428   3.030 -1.0490  0.8060 -1.1008
 6684SOL    HW220952   6.483   1.534   3.085 -0.4058 -0.8697  0.9596
 6685SOL     OW20953   2.226   1.127   2.354 -0.1269  0.3669  0.6143
 6685SOL    HW120954   2.185   1.185   2.284 -0.2289 -0.0581  0.3165
 6685SOL    HW220955   2.297   1.178   2.402  1.0784  0.1623 -0.8762
 6686SOL     OW20956   6.213   2.261   2.877  0.0849 -0.2416 -0.0012
 6686SOL    HW120957   6.155   2.260   2.958  1.6306  1.6220  1.2195
 6686SOL    HW220958   6.297   2.312   2.897  2.0818 -2.5826 -1.7276
 6687SOL     OW20959   1.564   4.352   1.048 -0.2623 -0.4525 -0.0644
 6687SOL    HW120960   1.466   4.375   1.053 -0.4310 -1.2205  0.4537
 6687SOL    HW220961   1.617   4.423   1.094 -0.7563 -0.9643  1.3671
 6688SOL     OW20962   5.866   3.743   4.924 -0.2386  0.3229  0.6667
 6688SOL    HW120963   5.858   3.814   4.854  0.6804  0.0574  0.2763
 6688SOL    HW220964   5.922   3.778   5.000  1.1952 -0.3278 -0.0386
 6689SOL     OW20965   5.620   0.793   5.219  0.5996  0.4400  0.1301
 6689SOL    HW120966   5.704   0.831   5.180  0.8492 -1.0695 -0.9116
 6689SOL    HW220967   5.567   0.865   5.263  0.8976  2.0258 -1.9732
 6690SOL     OW20968   4.990   5.125   1.748 -0.2188 -0.9937 -0.2015
 6690SOL    HW120969   4.915   5.065   1.778  0.7054 -2.1653 -0.1590
 6690SOL    HW220970   4.987   5.133   1.648 -0.8491 -0.4132 -0.1422
 6691SOL     OW20971   0.924   2.598   1.437  0.3387  0.1697 -0.0544
 6691SOL    HW120972   0.994   2.649   1.488  0.2610  1.1644 -0.8928
 6691SOL    HW220973   0.845   2.581   1.496  1.1881 -0.8166  0.8570
 6692SOL     OW20974   3.234   6.537   1.095 -0.5300  0.2909  0.5833
 6692SOL    HW120975   3.223   6.538   0.996  0.9391  2.0003  0.3867
 6692SOL    HW220976   3.166   6.476   1.136 -2.7647  1.4140 -1.2549
 6693SOL     OW20977   1.735   5.283   1.310 -0.1231 -0.1513 -0.2030
 6693SOL    HW120978   1.823   5.241   1.287  0.7775  1.4140  0.2232
 6693SOL    HW220979   1.746   5.342   1.390 -1.4407  0.4747 -0.4491
 6694SOL     OW20980   4.370   6.349   2.758 -0.2171  0.2962 -0.2502
 6694SOL    HW120981   4.282   6.381   2.793  0.1430 -0.4007  1.4144
 6694SOL    HW220982   4.385   6.254   2.788  0.5510 -0.0144 -1.5612
 6695SOL     OW20983   1.240   6.729   1.694  0.1283 -0.0246 -0.1179
 6695SOL    HW120984   1.306   6.663   1.728  1.2199  1.6290  1.1105
 6695SOL    HW220985   1.250   6.737   1.595  0.7824 -0.8303 -0.1334
 6696SOL     OW20986   2.024   0.371   6.668  0.4554  0.9115 -0.1883
 6696SOL    HW120987   1.967   0.441   6.625  1.0476  0.2651 -2.1131
 6696SOL    HW220988   1.967   0.316   6.729  0.0389  3.2027  1.6632
 6697SOL     OW20989   5.419   2.005   0.117  0.1449  0.0457  0.1030
 6697SOL    HW120990   5.517   1.987   0.124  0.7413  1.5614 -2.8674
 6697SOL    HW220991   5.403   2.102   0.103 -1.7441 -0.2633 -0.2020
 6698SOL     OW20992   5.771   6.670   2.749  0.1577 -0.1283  0.7112
 6698SOL    HW120993   5.798   6.574   2.762  0.2966  0.0107  1.5022
 6698SOL    HW220994   5.818   6.727   2.817 -1.1567  0.2969  1.2945
 6699SOL     OW20995   6.746   6.044   1.037  0.7866  0.2718  0.1972
 6699SOL    HW120996   6.744   6.143   1.043 -0.6508  0.5465 -2.9545
 6699SOL    HW220997   6.667   6.011   0.985  0.8382 -2.6199  1.7032
 6700SOL     OW20998   2.254   0.164   0.998  0.8823 -0.0731  0.6158
 6700SOL    HW120999   2.304   0.248   1.019  2.2380 -1.1356  1.8966
 6700SOL    HW221000   2.163   0.169   1.039  1.4131  0.2868  1.8169
 6701SOL     OW21001   1.725   3.408   4.808 -0.1318  0.0147 -0.8590
 6701SOL    HW121002   1.817   3.375   4.785 -0.6839 -2.4507  0.2632
 6701SOL    HW221003   1.658   3.363   4.750 -0.8664 -0.3523  0.2494
 6702SOL     OW21004   6.184   2.949   1.594 -0.0532  0.0880 -0.3949
 6702SOL    HW121005   6.154   2.854   1.586 -0.6516  0.3819 -2.0269
 6702SOL    HW221006   6.113   3.003   1.639  0.3721 -0.2484  0.7202
 6703SOL     OW21007   6.060   5.155   2.694  0.5715 -0.2855 -0.0700
 6703SOL    HW121008   5.986   5.214   2.662 -1.6262 -0.6204  3.7291
 6703SOL    HW221009   6.146   5.206   2.691 -0.4756  1.5495 -1.0243
 6704SOL     OW21010   3.523   6.381   0.986  0.0888  0.2341  0.3769
 6704SOL    HW121011   3.491   6.295   1.026 -2.1277  1.1652  0.7502
 6704SOL    HW221012   3.520   6.453   1.056  1.4242  0.7464 -0.0620
 6705SOL     OW21013   6.131   5.808   2.467  0.0176 -0.6473  0.0766
 6705SOL    HW121014   6.034   5.793   2.485 -0.2810  1.5144  0.5045
 6705SOL    HW221015   6.175   5.843   2.550  0.4916  1.2411 -0.9194
 6706SOL     OW21016   5.222   3.147   2.745  0.2222  0.0641 -0.0220
 6706SOL    HW121017   5.199   3.110   2.655  1.0858  0.6540 -0.4987
 6706SOL    HW221018   5.196   3.243   2.749 -1.1072 -0.3116  0.8646
 6707SOL     OW21019   6.793   4.549   3.793 -0.0261  0.2207  0.2211
 6707SOL    HW121020   6.826   4.512   3.880  0.3257  0.7893  0.3330
 6707SOL    HW221021   6.707   4.599   3.808 -0.2768 -0.1801  0.1398
 6708SOL     OW21022   2.138   6.818   2.315  0.3750 -0.4108  0.1243
 6708SOL    HW121023   2.193   6.872   2.252 -0.9409 -1.1369 -1.7417
 6708SOL    HW221024   2.063   6.874   2.350  1.0399 -0.0402  0.9855
 6709SOL     OW21025   5.058   6.209   2.518 -0.0675  0.1738  0.1359
 6709SOL    HW121026   5.053   6.277   2.592 -0.7308 -0.6597  0.8749
 6709SOL    HW221027   5.143   6.222   2.467 -0.2200  1.6081  0.2071
 6710SOL     OW21028   5.538   2.816   1.249 -0.2114 -0.4061 -0.2136
 6710SOL    HW121029   5.460   2.878   1.257 -1.0605 -1.3187 -1.0707
 6710SOL    HW221030   5.514   2.740   1.188  1.0854 -1.1289  0.1326
 6711SOL     OW21031   4.251   1.896   3.386 -0.3689  0.6000 -0.1903
 6711SOL    HW121032   4.259   1.796   3.385 -0.3104  0.6050 -0.2403
 6711SOL    HW221033   4.319   1.935   3.324  0.5177  0.7340  0.8345
 6712SOL     OW21034   0.798   0.655   5.354 -0.5205 -0.3332  0.1383
 6712SOL    HW121035   0.875   0.611   5.400 -0.4678 -0.8432 -0.4251
 6712SOL    HW221036   0.821   0.750   5.334  0.0288 -0.5252 -0.1657
 6713SOL     OW21037   0.264   3.943   1.658  0.9205  0.0370 -0.2766
 6713SOL    HW121038   0.297   3.999   1.735  0.4784  1.3449 -1.0020
 6713SOL    HW221039   0.172   3.910   1.679  0.9204  0.1430 -0.1047
 6714SOL     OW21040   2.117   6.123   0.804  0.3912  0.4191  0.2319
 6714SOL    HW121041   2.182   6.096   0.733 -0.2198 -0.0346 -0.1675
 6714SOL    HW221042   2.144   6.211   0.842  0.3519  1.0223 -1.0685
 6715SOL     OW21043   5.766   0.260   1.984 -0.1490  0.0071  0.4021
 6715SOL    HW121044   5.707   0.317   1.926 -0.4646 -0.7789 -0.0605
 6715SOL    HW221045   5.771   0.168   1.946  1.3239  0.0316  0.4737
 6716SOL     OW21046   5.906   5.336   2.580  0.1429  0.4849  0.2398
 6716SOL    HW121047   5.934   5.336   2.484  0.1365  0.5480  0.2379
 6716SOL    HW221048   5.831   5.400   2.594 -0.9339 -0.6882 -0.0183
 6717SOL     OW21049   6.467   2.880   4.860  0.1819  0.2024  0.6396
 6717SOL    HW121050   6.412   2.850   4.938  0.1132 -0.2067  0.4350
 6717SOL    HW221051   6.543   2.817   4.847  0.2006  0.2794  0.3828
 6718SOL     OW21052   4.910   5.922   2.936  0.2200  0.3613 -0.6669
 6718SOL    HW121053   4.924   6.017   2.965  0.0988  0.0603  0.4464
 6718SOL    HW221054   4.827   5.886   2.979  1.6729 -1.0638  1.1594
 6719SOL     OW21055   4.694   6.973   1.280 -0.0613  0.0798  0.8026
 6719SOL    HW121056   4.699   6.873   1.270  0.3071  0.1643  0.0524
 6719SOL    HW221057   4.619   6.997   1.341 -2.1306 -0.5394 -1.3219
 6720SOL     OW21058   0.572   4.434   3.010  0.1214 -0.1630 -0.5900
 6720SOL    HW121059   0.498   4.427   2.943  0.7051  2.4432 -1.6267
 6720SOL    HW221060   0.660   4.435   2.963  0.5853  1.0637  0.2589
 6721SOL     OW21061   5.889   4.509   3.484 -0.1795 -0.0849 -0.3543
 6721SOL    HW121062   5.980   4.526   3.520 -0.4685  0.9571 -0.0979
 6721SOL    HW221063   5.824   4.573   3.525 -1.4955 -2.3397  1.3227
 6722SOL     OW21064   6.045   1.726   2.136  0.7514  1.4680  0.3808
 6722SOL    HW121065   5.966   1.771   2.095  0.4150  1.7003  1.2598
 6722SOL    HW221066   6.062   1.765   2.227  2.0113  1.5822  0.1229
 6723SOL     OW21067   3.380   0.997   0.744  0.0533 -0.4302 -0.4188
 6723SOL    HW121068   3.457   1.054   0.717 -1.1931  1.7778  0.3677
 6723SOL    HW221069   3.357   0.934   0.670  1.6797 -0.1314 -1.2233
 6724SOL     OW21070   6.147   5.220   6.242 -0.3240 -0.3484 -0.8037
 6724SOL    HW121071   6.062   5.216   6.295 -1.0801  2.9934 -1.4991
 6724SOL    HW221072   6.127   5.248   6.148  1.3928 -1.7076 -1.6303
 6725SOL     OW21073   4.706   0.251   3.282  0.0172  0.0182  0.0770
 6725SOL    HW121074   4.704   0.218   3.377 -0.5379 -1.3115 -0.3741
 6725SOL    HW221075   4.796   0.231   3.243 -0.3807 -1.2053 -0.2560
 6726SOL     OW21076   0.401   0.757   0.010  0.7814  0.0826  0.4533
 6726SOL    HW121077   0.382   0.758  -0.088  0.9997 -0.8589  0.3898
 6726SOL    HW221078   0.430   0.849   0.039  1.3751  0.2140 -0.4950
 6727SOL     OW21079   1.872   5.808   3.763 -0.2938  0.3611  0.2072
 6727SOL    HW121080   1.888   5.816   3.861 -0.2806 -0.2770  0.2603
 6727SOL    HW221081   1.904   5.891   3.717  2.9437 -0.6739  0.3505
 6728SOL     OW21082   2.575   6.452   0.237 -0.1958 -0.1409  0.1795
 6728SOL    HW121083   2.634   6.390   0.289  2.1040  1.4453 -0.3764
 6728SOL    HW221084   2.605   6.453   0.142 -0.8686  1.0224 -0.0280
 6729SOL     OW21085   4.665   2.153   0.886 -0.4753 -0.1232 -0.3856
 6729SOL    HW121086   4.643   2.107   0.800 -0.5008  0.7582 -0.8534
 6729SOL    HW221087   4.581   2.180   0.933 -0.4437  0.1330 -0.4793
 6730SOL     OW21088   1.546   6.124   6.644  0.1033 -0.0586  0.0900
 6730SOL    HW121089   1.631   6.155   6.602  0.1928 -0.6036 -0.1420
 6730SOL    HW221090   1.469   6.171   6.602  0.2405 -0.1166 -0.2344
 6731SOL     OW21091   3.430   6.810   1.937 -0.0401  0.7228  0.1021
 6731SOL    HW121092   3.411   6.862   1.854  0.3218  0.2687 -0.2727
 6731SOL    HW221093   3.499   6.857   1.991 -0.2495  1.0009  0.1301
 6732SOL     OW21094   1.179   5.458   1.773 -0.0341  0.2898  0.1054
 6732SOL    HW121095   1.143   5.477   1.681  0.1209  0.0238 -0.0119
 6732SOL    HW221096   1.105   5.425   1.831 -0.0909  0.2602  0.0175
 6733SOL     OW21097   4.955   5.472   3.420  0.2130  0.1905  0.3311
 6733SOL    HW121098   4.931   5.568   3.408  0.7340  0.0656 -2.6851
 6733SOL    HW221099   4.923   5.420   3.340 -0.6456 -2.3066  2.1667
 6734SOL     OW21100   3.693   5.198   1.249 -0.5844 -0.4652  0.3901
 6734SOL    HW121101   3.677   5.125   1.182  0.6596 -2.1410  1.8301
 6734SOL    HW221102   3.606   5.241   1.273 -1.3164 -1.2978 -0.6560
 6735SOL     OW21103   4.510   6.582   2.781  0.0688  0.0619  0.9646
 6735SOL    HW121104   4.443   6.509   2.792  0.2108  0.1377  2.6645
 6735SOL    HW221105   4.473   6.667   2.819  0.7939  0.3198  1.1087
 6736SOL     OW21106   1.332   0.334   2.173 -0.4985  0.1668 -0.1892
 6736SOL    HW121107   1.278   0.389   2.237 -2.1126 -1.0295 -0.4574
 6736SOL    HW221108   1.417   0.305   2.217 -0.7184  0.8984  0.7544
 6737SOL     OW21109   6.625   6.005   4.296 -0.2389 -0.2497 -0.1103
 6737SOL    HW121110   6.605   5.990   4.199 -1.7761 -0.0370  0.1491
 6737SOL    HW221111   6.541   6.033   4.344  0.8676  1.4939  0.9295
 6738SOL     OW21112   5.400   6.962   6.537  0.0040 -0.1805 -0.6036
 6738SOL    HW121113   5.323   7.018   6.568 -0.4416 -0.3450 -1.4063
 6738SOL    HW221114   5.458   6.940   6.615  0.3035  1.5773 -0.2962
 6739SOL     OW21115   6.478   6.757   5.668 -0.5247  0.0140  0.6437
 6739SOL    HW121116   6.422   6.839   5.658 -0.2875  0.1221  0.1715
 6739SOL    HW221117   6.483   6.709   5.580  0.9336  0.5330  0.4119
 6740SOL     OW21118   5.358   4.166   2.750 -0.0782 -0.0825  0.5681
 6740SOL    HW121119   5.362   4.262   2.775  0.1831 -0.6169  2.7673
 6740SOL    HW221120   5.266   4.144   2.716  0.1583  1.1267 -0.9338
 6741SOL     OW21121   3.725   4.175   5.110 -0.2114  0.6828 -0.3075
 6741SOL    HW121122   3.718   4.221   5.198 -0.3562  0.9934 -0.4809
 6741SOL    HW221123   3.811   4.123   5.106  1.4538  3.3336 -1.2455
 6742SOL     OW21124   2.064   0.607   5.283  0.2823  0.3925 -0.3259
 6742SOL    HW121125   1.986   0.562   5.240 -0.5999 -0.6627  2.1592
 6742SOL    HW221126   2.115   0.658   5.215 -2.2152  0.6124 -2.1856
 6743SOL     OW21127   3.659   6.667   2.344  0.2389  0.7348  0.1500
 6743SOL    HW121128   3.572   6.627   2.372  0.6259 -0.6631 -0.5885
 6743SOL    HW221129   3.728   6.595   2.334  1.1259  1.6586 -0.6057
 6744SOL     OW21130   4.396   1.652   0.109  0.2857 -0.5072  0.3565
 6744SOL    HW121131   4.342   1.730   0.077 -1.7773 -1.8087  0.4264
 6744SOL    HW221132   4.414   1.661   0.207 -0.5395 -0.4267  0.5087
 6745SOL     OW21133   3.851   2.321   5.270 -0.3540 -0.2627  0.5245
 6745SOL    HW121134   3.910   2.292   5.194 -0.9955  1.8280 -0.8638
 6745SOL    HW221135   3.893   2.398   5.317 -0.5522 -0.7587  1.5432
 6746SOL     OW21136   1.239   5.256   4.450 -0.5387  0.1659  0.3621
 6746SOL    HW121137   1.240   5.235   4.353 -1.6425  1.8477 -0.0452
 6746SOL    HW221138   1.327   5.230   4.491  0.3178  0.3834 -1.2759
 6747SOL     OW21139   4.126   7.012   0.051 -0.7018  0.2258 -0.0249
 6747SOL    HW121140   4.112   7.066  -0.032 -0.8130  2.4781  1.3793
 6747SOL    HW221141   4.224   6.997   0.065 -0.7239 -1.4197 -1.2504
 6748SOL     OW21142   0.673   0.033   1.891  0.2533  0.2260  0.3504
 6748SOL    HW121143   0.586   0.071   1.859  0.1872 -0.3570 -0.2042
 6748SOL    HW221144   0.738   0.032   1.815  1.0748  1.5656  1.0159
 6749SOL     OW21145   2.325   0.833   5.530  0.2184  0.2730 -0.6499
 6749SOL    HW121146   2.423   0.829   5.507  0.3952 -0.2605  0.1463
 6749SOL    HW221147   2.291   0.740   5.547  0.0049  0.5719  0.7353
 6750SOL     OW21148   2.218   0.207   1.853 -0.2487  0.1992  0.0463
 6750SOL    HW121149   2.166   0.291   1.838 -1.5094 -0.2847  1.4531
 6750SOL    HW221150   2.249   0.204   1.948  1.2192 -0.1645 -0.4308
 6751SOL     OW21151   4.490   1.241   3.940 -0.6706  0.5435 -0.3883
 6751SOL    HW121152   4.443   1.297   3.872  0.7077 -0.7533 -2.5246
 6751SOL    HW221153   4.564   1.190   3.897  0.3821 -0.2648  2.1472
 6752SOL     OW21154   4.117   4.942   0.044  0.4873  0.0323 -0.2427
 6752SOL    HW121155   4.042   4.886   0.079  2.0188 -0.3025  2.8247
 6752SOL    HW221156   4.088   5.038   0.042  0.2262  0.0388  1.8691
 6753SOL     OW21157   0.901   2.124   0.136  0.1516  0.3525  0.1831
 6753SOL    HW121158   0.872   2.032   0.162 -0.4441 -0.0160 -1.6521
 6753SOL    HW221159   0.820   2.183   0.126  0.3378  0.4286 -0.9565
 6754SOL     OW21160   1.432   1.572   4.725 -0.3156 -0.0840  0.1477
 6754SOL    HW121161   1.432   1.480   4.764 -0.8721  0.1074  0.6165
 6754SOL    HW221162   1.434   1.566   4.625 -0.8293 -0.6162  0.1618
 6755SOL     OW21163   6.980   3.836   3.896 -0.1990 -0.4889 -0.1664
 6755SOL    HW121164   7.065   3.839   3.844 -0.4680 -1.1354 -0.6665
 6755SOL    HW221165   6.902   3.828   3.833 -0.8727  2.6604  0.1106
 6756SOL     OW21166   5.438   1.181   3.111 -0.1016  0.0973  0.3732
 6756SOL    HW121167   5.391   1.259   3.152 -1.4475 -0.5596  0.1324
 6756SOL    HW221168   5.443   1.193   3.012 -1.9826 -0.9386  0.1099
 6757SOL     OW21169   0.844   2.610   2.938  0.4765  0.4934 -0.9363
 6757SOL    HW121170   0.785   2.602   2.857 -0.5850  2.1322 -0.3768
 6757SOL    HW221171   0.811   2.684   2.996  1.1046 -0.7578  1.1286
 6758SOL     OW21172   3.359   6.775   4.927 -0.1073  0.3886 -0.0536
 6758SOL    HW121173   3.324   6.868   4.940 -2.3957 -0.3435 -0.5862
 6758SOL    HW221174   3.404   6.770   4.837 -3.1102  0.1966 -1.6749
 6759SOL     OW21175   4.824   0.050   1.635  0.0427  0.7918 -0.6143
 6759SOL    HW121176   4.887   0.109   1.686  0.8685  0.7391 -1.5500
 6759SOL    HW221177   4.841   0.061   1.537  0.0411 -0.8192 -0.8099
 6760SOL     OW21178   0.983   4.960   3.104 -0.1864 -0.2049 -0.0576
 6760SOL    HW121179   1.037   5.019   3.165 -3.6445  2.4985  0.6949
 6760SOL    HW221180   1.039   4.934   3.025  2.9224  0.2174  1.8303
 6761SOL     OW21181   2.643   0.927   3.978 -0.8210 -0.5462 -0.4355
 6761SOL    HW121182   2.704   0.939   3.900 -0.3912 -1.0396 -0.1814
 6761SOL    HW221183   2.566   0.870   3.951  0.1039 -2.0005 -0.1167
 6762SOL     OW21184   1.386   2.043   2.274  0.5590  0.4984  0.5373
 6762SOL    HW121185   1.373   1.996   2.361  1.2444  0.2133  0.4882
 6762SOL    HW221186   1.473   2.015   2.233  0.2950  0.7127 -0.1857
 6763SOL     OW21187   3.563   2.665   5.857  0.2522 -0.1207 -0.1443
 6763SOL    HW121188   3.488   2.629   5.801 -1.3332  0.0884  1.7250
 6763SOL    HW221189   3.649   2.657   5.807 -1.0562  0.1220 -2.6055
 6764SOL     OW21190   4.563   0.010   5.245 -0.5260  0.0449 -0.0819
 6764SOL    HW121191   4.611  -0.061   5.193 -1.0709 -0.6804  0.3820
 6764SOL    HW221192   4.466   0.006   5.225 -1.0558 -1.5749  2.4456
 6765SOL     OW21193   3.148   0.116   6.853 -0.0116 -0.3832 -0.1516
 6765SOL    HW121194   3.245   0.106   6.874 -0.2437  0.1339  1.2657
 6765SOL    HW221195   3.103   0.027   6.859  0.4447 -0.7295 -1.3751
 6766SOL     OW21196   2.820   6.996   6.785 -0.5149 -0.3535  0.2041
 6766SOL    HW121197   2.766   7.027   6.864  2.4407  5.6294  0.4303
 6766SOL    HW221198   2.904   6.952   6.818 -0.3263  0.0986  0.3361
 6767SOL     OW21199   6.544   6.076   3.307  0.0528 -0.0021  0.3690
 6767SOL    HW121200   6.583   6.006   3.247 -0.1297 -0.5936  0.9230
 6767SOL    HW221201   6.445   6.061   3.315  0.0073  0.3428  0.4601
 6768SOL     OW21202   2.495   0.777   0.314 -0.1539 -0.3517 -0.4725
 6768SOL    HW121203   2.522   0.872   0.296  0.2415 -0.0069  1.6484
 6768SOL    HW221204   2.433   0.746   0.243 -0.1588  1.4440 -1.3077
 6769SOL     OW21205   5.624   1.133   2.403  0.3111 -0.1841  0.4392
 6769SOL    HW121206   5.688   1.137   2.326  1.7124 -1.2050  1.4983
 6769SOL    HW221207   5.650   1.200   2.472  0.0261 -0.3764  0.7346
 6770SOL     OW21208   1.810   6.882   6.174 -0.0874  0.2191  0.0995
 6770SOL    HW121209   1.728   6.828   6.190  0.5474 -0.2633  1.9459
 6770SOL    HW221210   1.784   6.971   6.135 -1.7241  0.8909  2.4940
 6771SOL     OW21211   5.539   6.143   5.223  0.0015  0.8135  0.9661
 6771SOL    HW121212   5.562   6.186   5.311  0.0822 -0.6379  1.7007
 6771SOL    HW221213   5.460   6.188   5.183  0.4571  2.0167  1.3876
 6772SOL     OW21214   4.805   6.165   6.861  0.2221 -0.2890 -0.1498
 6772SOL    HW121215   4.854   6.252   6.853  0.1600 -0.2512 -0.1274
 6772SOL    HW221216   4.766   6.141   6.772  2.9557 -1.9310 -0.9953
 6773SOL     OW21217   3.054   4.906   2.811 -0.2057 -0.0053  0.1470
 6773SOL    HW121218   3.014   4.991   2.845 -0.2441  0.0123  0.0573
 6773SOL    HW221219   3.119   4.870   2.879 -0.7583 -0.3118  0.5199
 6774SOL     OW21220   4.688   4.164   5.524 -0.2981 -0.4206  0.3404
 6774SOL    HW121221   4.708   4.262   5.519  2.0229 -0.7639  1.5286
 6774SOL    HW221222   4.644   4.135   5.440 -1.6226  1.7343  0.2016
 6775SOL     OW21223   3.824   6.337   4.676 -0.0270  0.0364 -0.3616
 6775SOL    HW121224   3.894   6.266   4.684  0.1178  0.1306 -0.7957
 6775SOL    HW221225   3.867   6.427   4.672 -0.1560  0.0771 -0.9050
 6776SOL     OW21226   0.094   2.220   1.884 -0.3195 -0.2264  0.1151
 6776SOL    HW121227   0.060   2.299   1.832  1.6584  0.0159 -0.9017
 6776SOL    HW221228   0.086   2.239   1.982 -1.3548  0.5604 -0.1094
 6777SOL     OW21229   1.881   6.050   1.658  0.9224  0.6696 -0.1529
 6777SOL    HW121230   1.891   6.146   1.630 -2.5274  2.1189  2.8303
 6777SOL    HW221231   1.958   6.024   1.715  1.5553  1.9353 -0.3924
 6778SOL     OW21232   1.155   2.575   2.575 -0.0337 -0.1756  0.1176
 6778SOL    HW121233   1.228   2.543   2.636 -1.7708 -1.7081  1.5088
 6778SOL    HW221234   1.130   2.501   2.513 -1.9024 -0.4833  1.1801
 6779SOL     OW21235   5.291   1.879   0.483  0.3993 -0.2653  0.2532
 6779SOL    HW121236   5.196   1.851   0.470  0.3501  0.1034 -0.2041
 6779SOL    HW221237   5.294   1.971   0.521  0.5639 -0.8320  1.6653
 6780SOL     OW21238   1.844   6.155   2.578 -0.2703  0.7334 -0.5096
 6780SOL    HW121239   1.751   6.150   2.542  0.0588 -1.0992 -1.2202
 6780SOL    HW221240   1.861   6.074   2.635 -0.1757  2.6505  2.4139
 6781SOL     OW21241   6.871   5.415   1.598 -0.3378 -0.1294  0.5145
 6781SOL    HW121242   6.810   5.407   1.519  0.1993  1.5429 -0.1364
 6781SOL    HW221243   6.848   5.498   1.649  1.6796  0.9117 -0.1054
 6782SOL     OW21244   5.205   5.948   3.332 -0.4808 -0.3061 -0.1439
 6782SOL    HW121245   5.133   5.880   3.316 -0.0134 -1.0142  0.6693
 6782SOL    HW221246   5.178   6.035   3.292 -1.5251 -0.7165 -0.3671
 6783SOL     OW21247   6.979   1.871   0.299 -0.4363  0.1546 -0.3151
 6783SOL    HW121248   6.988   1.775   0.274  0.9892  0.3207 -0.4859
 6783SOL    HW221249   6.937   1.922   0.224 -0.8419 -0.2602 -0.3702
 6784SOL     OW21250   5.334   4.488   6.238 -0.3307  0.0873 -0.5610
 6784SOL    HW121251   5.301   4.489   6.143  1.5347 -0.9542 -1.2824
 6784SOL    HW221252   5.332   4.394   6.273 -0.0407  0.3148  0.0824
 6785SOL     OW21253   3.545   5.994   1.426 -0.1774  0.2999  0.4999
 6785SOL    HW121254   3.531   5.952   1.337 -2.0460  0.7892  0.5368
 6785SOL    HW221255   3.594   5.930   1.486 -3.0271 -1.9671  0.5942
 6786SOL     OW21256   3.094   0.937   0.949  0.1636  0.2263  0.1849
 6786SOL    HW121257   3.129   1.023   0.911  1.9324 -0.9930 -1.1127
 6786SOL    HW221258   3.168   0.890   0.997  0.6978 -2.7464 -3.1628
 6787SOL     OW21259   1.931   6.298   1.158 -0.5748 -0.3279 -0.2457
 6787SOL    HW121260   1.903   6.342   1.073  3.2205  2.4634 -0.3192
 6787SOL    HW221261   2.001   6.230   1.139  1.4257  1.3964  0.6364
 6788SOL     OW21262   4.179   4.331   6.969 -0.0275 -0.8497 -0.1199
 6788SOL    HW121263   4.223   4.406   6.921 -1.3241  1.4512  2.0362
 6788SOL    HW221264   4.080   4.344   6.967 -0.4165 -3.4303 -1.0359
 6789SOL     OW21265   2.641   4.788   3.533 -0.1559 -0.5818 -0.1140
 6789SOL    HW121266   2.673   4.770   3.626 -0.0421  0.8790  0.1659
 6789SOL    HW221267   2.586   4.872   3.534 -0.8629 -1.0170 -1.2277
 6790SOL     OW21268   3.093   4.581   6.212  0.3412  0.1712  0.1359
 6790SOL    HW121269   3.017   4.563   6.150  0.4488  1.5612 -0.4432
 6790SOL    HW221270   3.152   4.501   6.218  0.5612  0.1395 -1.8998
 6791SOL     OW21271   3.502   0.009   6.604  0.2148  0.1115 -0.7591
 6791SOL    HW121272   3.542  -0.057   6.667  1.7255  0.5195 -1.2406
 6791SOL    HW221273   3.545  -0.000   6.514 -1.3472  0.0665 -1.5395
 6792SOL     OW21274   1.096   1.279   5.817  0.5466  0.4484 -0.0939
 6792SOL    HW121275   1.017   1.319   5.772  0.3927  0.5937  0.3059
 6792SOL    HW221276   1.162   1.248   5.748  0.9148  1.8693 -0.4113
 6793SOL     OW21277   3.038   1.845   2.977  0.1023  0.5661  0.1366
 6793SOL    HW121278   2.943   1.842   2.948  0.0849  0.5411  0.1957
 6793SOL    HW221279   3.095   1.882   2.904  0.1509 -0.0901 -0.1647
 6794SOL     OW21280   6.899   5.883   3.501 -0.3084  0.8046 -0.3390
 6794SOL    HW121281   6.897   5.911   3.597  0.4627 -0.4330  0.0731
 6794SOL    HW221282   6.845   5.799   3.490 -0.1732  0.7905 -0.9225
 6795SOL     OW21283   5.279   3.428   3.000 -0.5051  0.2246 -0.0559
 6795SOL    HW121284   5.361   3.371   2.996 -1.2992 -1.0152  0.3545
 6795SOL    HW221285   5.236   3.432   2.910  0.0705  0.9960 -0.3035
 6796SOL     OW21286   4.995   1.859   1.222 -0.3883  0.1145  0.7467
 6796SOL    HW121287   5.083   1.831   1.260  1.0454  2.1266 -0.8424
 6796SOL    HW221288   4.959   1.936   1.274 -0.3458  0.3887  0.3757
 6797SOL     OW21289   1.166   5.649   4.361  0.8342  0.4507  0.2308
 6797SOL    HW121290   1.201   5.740   4.340  1.5143  0.2947  0.6322
 6797SOL    HW221291   1.199   5.620   4.451  0.0403  0.0950  0.4177
 6798SOL     OW21292   6.382   1.979   3.952 -0.0747  0.0833  0.4767
 6798SOL    HW121293   6.391   1.953   3.856  3.5210 -0.8789  0.9173
 6798SOL    HW221294   6.442   2.057   3.971 -1.0433  0.5172  1.8751
 6799SOL     OW21295   4.931   5.884   2.209  0.7539 -0.0984  0.0557
 6799SOL    HW121296   4.928   5.966   2.153  1.6586  0.5317  0.8987
 6799SOL    HW221297   4.859   5.821   2.180 -1.6896  2.0514  1.0419
 6800SOL     OW21298   1.564   6.466   4.338  0.1007 -0.5646 -0.6596
 6800SOL    HW121299   1.520   6.486   4.251 -0.6290  0.3248 -0.1065
 6800SOL    HW221300   1.494   6.450   4.408  0.6037  1.3580  0.3514
 6801SOL     OW21301   4.705   1.001   6.677  0.3248  0.2807 -0.2543
 6801SOL    HW121302   4.743   1.092   6.690 -1.6733  1.0766  0.4862
 6801SOL    HW221303   4.707   0.951   6.764  0.6353 -0.0483 -0.4520
 6802SOL     OW21304   6.099   1.895   6.447  0.2566  0.2183 -0.3904
 6802SOL    HW121305   6.080   1.824   6.379 -0.2692  1.0136 -1.0871
 6802SOL    HW221306   6.103   1.984   6.403  0.8296  0.6488  0.4896
 6803SOL     OW21307   1.435   6.668   6.468 -0.3900  0.6648 -0.2372
 6803SOL    HW121308   1.449   6.704   6.560  0.1992 -0.9732  0.3532
 6803SOL    HW221309   1.337   6.665   6.449 -0.5665  0.2855  0.6541
 6804SOL     OW21310   4.592   3.831   6.129  0.2312  0.0996  0.1343
 6804SOL    HW121311   4.633   3.815   6.039  0.8901  2.2121 -0.0105
 6804SOL    HW221312   4.617   3.756   6.191 -1.1675 -1.9828 -1.6708
 6805SOL     OW21313   0.831   4.255   0.333  0.2300 -0.4245 -0.3476
 6805SOL    HW121314   0.801   4.346   0.362  1.5725  0.1645 -0.7315
 6805SOL    HW221315   0.864   4.259   0.239  0.5366 -1.2702 -0.2859
 6806SOL     OW21316   5.221   0.571   0.886  0.2136 -0.0069  0.3355
 6806SOL    HW121317   5.238   0.669   0.900 -1.9862  0.6971 -1.3068
 6806SOL    HW221318   5.246   0.546   0.793  0.3103 -0.9179  0.5966
 6807SOL     OW21319   1.007   6.968   3.227 -0.9910  0.3918 -0.2141
 6807SOL    HW121320   1.051   6.936   3.311  1.2252 -0.6233 -1.6507
 6807SOL    HW221321   0.950   6.895   3.189  0.9892 -0.6020 -1.4636
 6808SOL     OW21322   2.034   1.388   3.572 -0.5631 -0.0795  0.1580
 6808SOL    HW121323   1.936   1.375   3.590 -0.5784  0.3926  0.4505
 6808SOL    HW221324   2.068   1.314   3.515 -1.1007 -0.2338  0.0327
 6809SOL     OW21325   5.980   6.505   1.399  0.1180 -0.1256 -0.5371
 6809SOL    HW121326   6.022   6.495   1.489 -0.5128  2.0893  0.0824
 6809SOL    HW221327   6.032   6.571   1.345 -1.3064  1.0867 -0.5116
 6810SOL     OW21328   4.067   2.599   0.449 -0.1005 -0.3444  0.2269
 6810SOL    HW121329   3.972   2.567   0.447 -1.3545  3.0078 -1.5278
 6810SOL    HW221330   4.118   2.556   0.375 -0.5039 -1.3419  0.5042
 6811SOL     OW21331   5.786   2.101   2.521 -0.2550 -0.1788 -0.4320
 6811SOL    HW121332   5.817   2.194   2.502 -0.3941 -0.1698 -0.6151
 6811SOL    HW221333   5.686   2.096   2.515 -0.6255  0.4678  2.9467
 6812SOL     OW21334   0.202   0.614   3.659 -1.0176  0.2690 -0.4287
 6812SOL    HW121335   0.133   0.562   3.609  0.8247 -1.4406 -1.3404
 6812SOL    HW221336   0.285   0.622   3.603  0.5319 -0.2319  1.6618
 6813SOL     OW21337   4.316   2.088   6.899 -0.1198  0.5093 -0.6065
 6813SOL    HW121338   4.259   2.054   6.973  2.4560 -1.4116  0.6211
 6813SOL    HW221339   4.346   2.012   6.842  0.2711  1.6259 -1.9593
 6814SOL     OW21340   1.737   1.205   6.340  0.0031  0.1007 -0.2283
 6814SOL    HW121341   1.805   1.141   6.375  1.8969  1.1490 -1.8239
 6814SOL    HW221342   1.708   1.266   6.414  0.8493 -0.3047  0.4551
 6815SOL     OW21343   3.166   5.131   5.152 -0.5907  0.3032  0.3984
 6815SOL    HW121344   3.227   5.150   5.229  1.2946 -1.6551 -0.5094
 6815SOL    HW221345   3.180   5.199   5.081 -0.9672  1.0213  0.9943
 6816SOL     OW21346   5.142   0.415   5.655 -0.2708  0.4447  0.4912
 6816SOL    HW121347   5.062   0.474   5.647 -0.9355 -0.6123 -1.0473
 6816SOL    HW221348   5.212   0.444   5.589 -0.2116  0.1100  0.4052
 6817SOL     OW21349   4.557   4.040   5.315 -0.2624 -0.1649 -0.6219
 6817SOL    HW121350   4.466   4.038   5.275 -1.5938 -0.8079  2.1458
 6817SOL    HW221351   4.581   3.949   5.349  0.1210  0.5536  1.2005
 6818SOL     OW21352   1.598   2.922   1.215  0.1755  0.2629  0.3319
 6818SOL    HW121353   1.585   2.838   1.267 -1.3154 -0.5184 -1.2196
 6818SOL    HW221354   1.664   2.981   1.263  0.6843 -1.4324  1.8251
 6819SOL     OW21355   5.298   5.645   6.064 -0.1310  0.5583  0.1538
 6819SOL    HW121356   5.224   5.627   6.129  0.4985  2.3149  1.4312
 6819SOL    HW221357   5.317   5.562   6.012 -2.6376 -0.0867  0.1158
 6820SOL     OW21358   2.257   6.882   1.288 -1.1874 -0.1620  0.4087
 6820SOL    HW121359   2.188   6.828   1.239 -0.0625 -1.8264  0.5759
 6820SOL    HW221360   2.274   6.842   1.378  0.5057 -0.2548  0.0904
 6821SOL     OW21361   0.962   0.692   1.731  0.1652  0.1118 -0.0985
 6821SOL    HW121362   0.972   0.774   1.788  2.4634  0.2490 -0.5883
 6821SOL    HW221363   0.889   0.635   1.768  0.4318  1.0026  1.9820
 6822SOL     OW21364   2.113   1.823   3.815  0.2017  0.4314 -0.2296
 6822SOL    HW121365   2.053   1.747   3.839 -0.4114  1.0419  0.2242
 6822SOL    HW221366   2.153   1.806   3.725 -1.4633  0.4608 -1.0228
 6823SOL     OW21367   3.432   4.192   4.384 -0.5539 -0.0851  0.0474
 6823SOL    HW121368   3.347   4.154   4.421  0.3205 -2.1842  0.0107
 6823SOL    HW221369   3.452   4.278   4.431 -2.2678  0.0543  0.6204
 6824SOL     OW21370   5.446   0.556   2.621  0.1600  0.0073  0.3530
 6824SOL    HW121371   5.360   0.591   2.584  0.5976 -0.1545 -0.8585
 6824SOL    HW221372   5.429   0.516   2.711 -1.1691 -0.6406 -0.1512
 6825SOL     OW21373   0.118   0.536   0.149 -0.3129 -0.0386 -0.6723
 6825SOL    HW121374   0.027   0.495   0.139 -0.5749  0.4520 -0.3117
 6825SOL    HW221375   0.151   0.566   0.059 -0.2959 -0.6599 -0.8758
 6826SOL     OW21376   1.880   2.184   4.261 -0.2107 -0.4362  0.2027
 6826SOL    HW121377   1.941   2.226   4.194 -0.8478  0.0001 -0.1061
 6826SOL    HW221378   1.864   2.088   4.236 -1.4852  0.0682 -1.0147
 6827SOL     OW21379   5.085   3.872   2.036  0.2468  0.3518 -0.8272
 6827SOL    HW121380   5.150   3.942   2.006  0.9845  0.6485  1.2476
 6827SOL    HW221381   4.992   3.908   2.031  0.4941  0.9622 -1.1293
 6828SOL     OW21382   5.697   6.611   4.379  0.3330 -0.3704 -0.1689
 6828SOL    HW121383   5.700   6.529   4.436 -2.5850  0.7376  1.8393
 6828SOL    HW221384   5.740   6.687   4.428  2.6044 -0.4666 -1.8229
 6829SOL     OW21385   0.576   2.892   0.671  0.2631 -0.0053 -0.0439
 6829SOL    HW121386   0.525   2.976   0.692 -1.0078 -0.8850  0.5380
 6829SOL    HW221387   0.514   2.825   0.629  1.2685 -0.6331 -0.5516
 6830SOL     OW21388   2.528   4.579   3.390 -0.3144  0.7512 -0.0815
 6830SOL    HW121389   2.556   4.584   3.294 -0.9576  0.4320 -0.2922
 6830SOL    HW221390   2.579   4.646   3.444  1.6665 -0.5193 -0.2505
 6831SOL     OW21391   4.859   0.225   5.569 -0.1425  0.5648 -0.2205
 6831SOL    HW121392   4.909   0.158   5.624  1.0668  0.9808 -0.7797
 6831SOL    HW221393   4.875   0.317   5.606 -0.1225  0.7479 -0.6771
 6832SOL     OW21394   5.417   3.729   4.544  0.0566 -0.5559  0.7654
 6832SOL    HW121395   5.367   3.766   4.623 -2.4280  0.6986 -1.2643
 6832SOL    HW221396   5.378   3.642   4.517  0.8886 -0.9702  0.8631
 6833SOL     OW21397   4.527   6.447   5.469  0.3230  0.1080  0.3860
 6833SOL    HW121398   4.620   6.436   5.435  0.4204  1.4872  0.1523
 6833SOL    HW221399   4.522   6.530   5.525 -0.3388 -0.9612  1.9489
 6834SOL     OW21400   6.613   4.542   0.357 -0.3399  0.1903 -0.4039
 6834SOL    HW121401   6.661   4.455   0.361 -0.0753  0.3079 -0.9140
 6834SOL    HW221402   6.588   4.571   0.450  0.6255  0.1602 -0.1216
 6835SOL     OW21403   0.105   0.992   6.771 -0.2192 -0.2009 -0.4814
 6835SOL    HW121404   0.188   0.974   6.824 -0.4933  0.4275  0.1847
 6835SOL    HW221405   0.113   1.080   6.726 -0.9096  0.3136  0.3791
 6836SOL     OW21406   2.709   1.910   6.407  0.0835  0.1552  0.2170
 6836SOL    HW121407   2.799   1.938   6.373 -0.4851  0.7194 -0.9091
 6836SOL    HW221408   2.648   1.990   6.410 -1.1550 -0.6332 -1.6710
 6837SOL     OW21409   1.228   6.750   1.428  0.1322 -0.1894  0.5370
 6837SOL    HW121410   1.156   6.787   1.369  1.0762  0.5125 -0.2167
 6837SOL    HW221411   1.316   6.788   1.400  0.5143  1.0017  3.0827
 6838SOL     OW21412   4.047   2.972   5.289 -0.6479 -0.1263  0.0301
 6838SOL    HW121413   3.980   2.958   5.216  0.8705  0.3738 -1.5123
 6838SOL    HW221414   4.090   2.884   5.311 -0.4319 -0.1107 -0.3365
 6839SOL     OW21415   1.378   5.151   5.629  0.0200  0.7922  0.1039
 6839SOL    HW121416   1.407   5.155   5.725 -0.7674  2.2848  0.3030
 6839SOL    HW221417   1.303   5.085   5.621  1.3331 -0.7743  0.1340
 6840SOL     OW21418   6.597   6.333   2.538 -0.4296  0.7351 -0.6445
 6840SOL    HW121419   6.526   6.268   2.509 -0.4599  1.0321 -1.2511
 6840SOL    HW221420   6.637   6.302   2.624  1.1511 -1.3602 -2.0213
 6841SOL     OW21421   2.326   3.023   0.939 -0.9430 -0.1861  0.5396
 6841SOL    HW121422   2.261   2.981   1.002  1.1354 -0.7755  2.4320
 6841SOL    HW221423   2.376   3.095   0.987 -0.1315  0.1844 -0.8202
 6842SOL     OW21424   3.853   5.647   2.558  0.6276 -0.6252  0.0210
 6842SOL    HW121425   3.907   5.705   2.497 -0.8554  1.8708  0.9554
 6842SOL    HW221426   3.807   5.576   2.505  0.2976  0.7529 -1.5990
 6843SOL     OW21427   1.817   0.682   0.221 -0.1625 -0.0264  0.1829
 6843SOL    HW121428   1.792   0.779   0.220  0.7788  0.2340  0.6372
 6843SOL    HW221429   1.775   0.638   0.299 -2.6142 -0.5759 -1.3511
 6844SOL     OW21430   0.534   3.202   1.940  0.5137  0.5604  0.0522
 6844SOL    HW121431   0.614   3.192   1.999  2.3050 -0.1352 -2.3264
 6844SOL    HW221432   0.540   3.288   1.889 -0.3267  0.5677 -0.0520
 6845SOL     OW21433   6.082   5.907   4.872  0.3813  0.1978 -0.2879
 6845SOL    HW121434   5.993   5.881   4.908  0.0480  2.1362  0.3742
 6845SOL    HW221435   6.154   5.873   4.932 -0.0181  0.5067  0.3691
 6846SOL     OW21436   2.441   6.806   0.642 -0.2975 -0.1945 -0.7264
 6846SOL    HW121437   2.494   6.864   0.580 -0.0264 -0.4748 -0.7585
 6846SOL    HW221438   2.380   6.863   0.697  1.4860  0.3552  0.7758
 6847SOL     OW21439   0.113   4.663   2.716  0.2518  0.0376  0.1104
 6847SOL    HW121440   0.029   4.692   2.670 -1.1784 -1.0524  1.9247
 6847SOL    HW221441   0.122   4.712   2.803  1.4461  0.0437  0.0033
 6848SOL     OW21442   6.561   6.539   1.299 -0.2483 -0.1060 -0.3233
 6848SOL    HW121443   6.660   6.528   1.288 -0.1655  0.6727 -0.4018
 6848SOL    HW221444   6.522   6.454   1.335  0.4699 -0.3641 -0.1319
 6849SOL     OW21445   3.792   5.261   5.969  0.9248  0.1895 -0.0132
 6849SOL    HW121446   3.845   5.317   5.905  0.0510  1.3718  0.2572
 6849SOL    HW221447   3.845   5.245   6.052  0.2142  3.0601  1.1074
 6850SOL     OW21448   3.638   4.278   0.879 -0.2480  0.4867 -0.0599
 6850SOL    HW121449   3.555   4.272   0.823  0.7209 -1.9314 -1.4248
 6850SOL    HW221450   3.614   4.273   0.975 -1.7106 -0.6664 -0.4396
 6851SOL     OW21451   3.386   1.061   2.013 -0.5135  0.6688 -0.6258
 6851SOL    HW121452   3.365   1.027   1.921  0.2357  0.2947 -0.6606
 6851SOL    HW221453   3.460   1.008   2.053  0.3430  1.9164 -0.4827
 6852SOL     OW21454   3.440   2.237   0.809  0.1091  0.2148 -0.4187
 6852SOL    HW121455   3.387   2.321   0.815  1.9387  1.4714 -1.0349
 6852SOL    HW221456   3.420   2.179   0.888 -3.7625 -0.4441 -1.6312
 6853SOL     OW21457   4.448   5.219   0.022 -0.2979  0.1861 -0.2662
 6853SOL    HW121458   4.453   5.125   0.057  2.0610  0.9275  1.6746
 6853SOL    HW221459   4.397   5.276   0.087 -1.2681  0.4106 -1.1856
 6854SOL     OW21460   3.638   5.151   1.961  0.6217  0.4209  0.0471
 6854SOL    HW121461   3.593   5.212   2.027  1.3371  1.1966 -0.1680
 6854SOL    HW221462   3.733   5.179   1.949  0.8539 -0.4927 -0.3761
 6855SOL     OW21463   6.727   0.033   4.421 -0.0642  0.0699 -0.7753
 6855SOL    HW121464   6.668   0.077   4.353 -2.3880 -0.9415  0.4554
 6855SOL    HW221465   6.706  -0.065   4.424  0.9433 -0.1269  0.4651
 6856SOL     OW21466   0.407   5.266   5.375  0.1985 -0.1488 -0.5813
 6856SOL    HW121467   0.314   5.288   5.405 -0.1729 -1.1926 -0.9547
 6856SOL    HW221468   0.438   5.335   5.309 -0.3061  0.2003 -0.4570
 6857SOL     OW21469   1.069   0.334   1.534 -0.5290  0.5194 -0.3239
 6857SOL    HW121470   0.977   0.326   1.571 -0.2795  2.0234  0.7011
 6857SOL    HW221471   1.132   0.278   1.588 -0.8407 -0.6863 -1.1610
 6858SOL     OW21472   1.376   2.474   0.873 -0.1502  0.2099  0.1313
 6858SOL    HW121473   1.342   2.407   0.807  1.3218  0.2890 -0.7339
 6858SOL    HW221474   1.348   2.447   0.965  1.0802 -2.0718 -0.0993
 6859SOL     OW21475   6.347   6.187   0.328  0.0775  0.0676 -0.7085
 6859SOL    HW121476   6.421   6.131   0.368 -1.1519 -0.5977  0.7324
 6859SOL    HW221477   6.360   6.282   0.354  1.2012  0.2060 -1.6794
 6860SOL     OW21478   4.754   2.281   6.125 -0.1404 -0.0394 -0.1709
 6860SOL    HW121479   4.800   2.308   6.040 -1.5172  1.9842 -0.3519
 6860SOL    HW221480   4.773   2.349   6.195 -1.0012 -0.3925  0.4147
 6861SOL     OW21481   1.962   4.791   6.091  0.0602  0.8391 -0.2563
 6861SOL    HW121482   1.925   4.708   6.133  3.0204 -1.4606 -1.7528
 6861SOL    HW221483   2.016   4.841   6.158 -2.4697  2.2297  0.9122
 6862SOL     OW21484   6.235   3.652   0.657 -0.4269 -0.3641 -0.0371
 6862SOL    HW121485   6.286   3.594   0.593  0.8257  2.3424 -1.7001
 6862SOL    HW221486   6.143   3.669   0.621 -0.9095 -1.5052  0.6129
 6863SOL     OW21487   0.864   5.202   2.329 -0.3708 -0.3480 -0.1556
 6863SOL    HW121488   0.877   5.115   2.280  1.0264 -0.0921 -0.3001
 6863SOL    HW221489   0.932   5.268   2.297  0.6744 -0.2026  2.1955
 6864SOL     OW21490   0.875   3.530   3.473  0.1060 -0.2526  0.6789
 6864SOL    HW121491   0.961   3.534   3.523  1.3674 -0.9367 -1.3380
 6864SOL    HW221492   0.847   3.623   3.448 -0.3722  0.0714  2.2759
 6865SOL     OW21493   1.755   3.319   0.521 -0.5769  0.6819  0.0470
 6865SOL    HW121494   1.707   3.406   0.531  1.2193  1.7350  0.0153
 6865SOL    HW221495   1.834   3.318   0.582 -0.4543 -0.8534 -0.1177
 6866SOL     OW21496   6.156   5.323   1.453  0.3400 -0.0528 -0.4514
 6866SOL    HW121497   6.233   5.357   1.399  0.2615 -1.5408 -1.5647
 6866SOL    HW221498   6.071   5.343   1.405 -0.2238  3.2979  1.6680
 6867SOL     OW21499   2.995   5.663   0.522  0.1043  0.4422 -0.4547
 6867SOL    HW121500   2.966   5.718   0.601  0.4419  0.2202 -0.1728
 6867SOL    HW221501   2.924   5.597   0.500  0.3284 -0.0168  0.1561
 6868SOL     OW21502   4.891   4.814   1.322 -0.3035  0.6128 -0.0230
 6868SOL    HW121503   4.948   4.743   1.280 -1.4048  0.2775 -0.9922
 6868SOL    HW221504   4.855   4.874   1.251 -0.2095  1.5433  0.6923
 6869SOL     OW21505   2.730   5.881   6.887 -0.3759  0.3844  0.2253
 6869SOL    HW121506   2.779   5.969   6.889 -1.8944  1.3041 -1.0929
 6869SOL    HW221507   2.686   5.867   6.976  1.5693 -0.1082  1.1815
 6870SOL     OW21508   2.542   3.545   0.268 -0.2611 -0.6767  0.0837
 6870SOL    HW121509   2.457   3.550   0.320 -0.1651  1.1497  0.1248
 6870SOL    HW221510   2.550   3.625   0.208  1.2193 -1.0292 -0.2439
 6871SOL     OW21511   0.035   3.185   6.421 -0.5959  0.4809 -0.1628
 6871SOL    HW121512   0.116   3.194   6.364 -1.1658 -1.2457 -1.3130
 6871SOL    HW221513   0.060   3.148   6.510 -0.2626 -1.8464 -1.1435
 6872SOL     OW21514   3.123   4.654   5.262 -0.2688  0.0944 -0.3545
 6872SOL    HW121515   3.035   4.606   5.252 -0.6088  0.6088  0.1381
 6872SOL    HW221516   3.127   4.729   5.196 -0.1902  0.0644 -0.3838
 6873SOL     OW21517   0.884   1.823   6.890  0.2818 -0.5176 -0.0730
 6873SOL    HW121518   0.923   1.913   6.873  2.2329 -0.9187  1.7805
 6873SOL    HW221519   0.896   1.766   6.808 -0.3915  0.6685 -1.0314
 6874SOL     OW21520   3.470   2.909   2.084  0.1687 -0.9154 -0.0089
 6874SOL    HW121521   3.461   2.888   2.181  0.3311 -0.7489  0.0405
 6874SOL    HW221522   3.381   2.935   2.047  0.4627  0.9337  0.5281
 6875SOL     OW21523   6.005   5.856   1.991  0.6067  0.1569  0.1512
 6875SOL    HW121524   6.057   5.814   1.917  0.4970 -1.5389  0.9888
 6875SOL    HW221525   6.060   5.929   2.033  0.9731  0.6067 -1.0717
 6876SOL     OW21526   1.575   3.247   4.653 -0.3534 -0.3524  0.7886
 6876SOL    HW121527   1.645   3.186   4.616 -0.9724 -0.5281 -0.1316
 6876SOL    HW221528   1.493   3.195   4.676 -1.0922  0.1708 -0.5296
 6877SOL     OW21529   5.925   3.170   4.050 -0.2637 -0.0670  0.2935
 6877SOL    HW121530   5.935   3.083   4.002 -1.0754  0.1656 -0.2975
 6877SOL    HW221531   6.007   3.186   4.105 -0.4424 -1.6001  1.0671
 6878SOL     OW21532   4.121   6.055   5.982 -0.0281  0.0477  0.0975
 6878SOL    HW121533   4.093   5.986   5.915 -0.8283 -1.3031  1.7490
 6878SOL    HW221534   4.060   6.050   6.062 -0.3777  2.9796  0.1089
 6879SOL     OW21535   3.336   0.970   1.763 -0.1210 -0.3004  0.5545
 6879SOL    HW121536   3.435   0.967   1.748  0.2594 -0.4700  2.7095
 6879SOL    HW221537   3.296   0.884   1.732  0.6070 -0.7403  0.7941
 6880SOL     OW21538   5.510   0.238   5.189 -0.3657 -0.5163 -0.3321
 6880SOL    HW121539   5.421   0.285   5.188 -0.8101 -1.3320 -1.8108
 6880SOL    HW221540   5.516   0.181   5.271 -0.0007  1.7009  1.2610
 6881SOL     OW21541   6.686   1.144   5.814 -0.1798  0.5314 -0.1090
 6881SOL    HW121542   6.720   1.213   5.877  3.0242 -2.0620  1.2675
 6881SOL    HW221543   6.709   1.170   5.720  0.4116  1.5766  0.3135
 6882SOL     OW21544   1.928   4.416   1.545 -1.1204 -0.4509 -0.6293
 6882SOL    HW121545   1.838   4.455   1.565  0.2261  1.5755  2.2489
 6882SOL    HW221546   1.933   4.323   1.581 -2.2620 -0.8648 -1.4915
 6883SOL     OW21547   3.130   1.970   4.482  0.2642 -0.1296 -0.4889
 6883SOL    HW121548   3.076   2.043   4.524  0.5406 -0.6091  0.7466
 6883SOL    HW221549   3.116   1.885   4.533  3.7462  0.1650  1.2420
 6884SOL     OW21550   3.470   1.850   6.747  0.0996 -0.2008  0.3317
 6884SOL    HW121551   3.387   1.906   6.749  0.3204  0.1085  1.1762
 6884SOL    HW221552   3.464   1.778   6.816  0.0542 -0.8836 -0.3765
 6885SOL     OW21553   6.490   6.906   6.445 -0.1135  0.2237 -0.1387
 6885SOL    HW121554   6.523   6.823   6.399  0.7714 -0.3592  1.4588
 6885SOL    HW221555   6.469   6.976   6.377  0.3877 -0.8598 -1.4517
 6886SOL     OW21556   3.547   1.222   5.895 -0.0196  0.0794 -0.3369
 6886SOL    HW121557   3.554   1.321   5.888  0.6744  0.2629  1.8931
 6886SOL    HW221558   3.483   1.187   5.827 -1.4496  2.2222 -0.1673
 6887SOL     OW21559   4.985   6.860   5.556  0.2344  0.1780 -0.1401
 6887SOL    HW121560   4.946   6.824   5.641 -1.7190 -2.0612 -1.8457
 6887SOL    HW221561   4.912   6.879   5.491  1.6776  1.8702 -1.3605
 6888SOL     OW21562   6.469   3.725   5.476 -0.6488  0.4222 -0.4027
 6888SOL    HW121563   6.439   3.630   5.471  1.1524 -0.2009 -0.0480
 6888SOL    HW221564   6.393   3.785   5.452 -2.0787 -1.0572  0.2256
 6889SOL     OW21565   3.394   4.948   3.003  0.6461  0.4778 -0.5424
 6889SOL    HW121566   3.404   4.970   2.906 -0.8353  0.5283 -0.7043
 6889SOL    HW221567   3.303   4.909   3.019  1.1472 -0.2188  0.7041
 6890SOL     OW21568   2.527   3.677   1.516 -0.0095 -0.0805  0.0642
 6890SOL    HW121569   2.484   3.641   1.433 -0.8789 -0.7718  0.8049
 6890SOL    HW221570   2.456   3.709   1.579  0.5991 -0.5017  0.9751
 6891SOL     OW21571   2.562   1.449   6.349 -0.3178  0.2292 -0.4339
 6891SOL    HW121572   2.606   1.401   6.273  1.0326  1.0431 -0.1897
 6891SOL    HW221573   2.623   1.521   6.383 -0.1415 -1.1959  2.5544
 6892SOL     OW21574   6.207   5.507   4.367  0.7311  0.4843 -0.1472
 6892SOL    HW121575   6.286   5.469   4.415  1.1453 -0.3999 -1.4705
 6892SOL    HW221576   6.145   5.433   4.343  1.1005  0.7317 -1.9741
 6893SOL     OW21577   4.781   0.573   2.216 -0.6132 -0.2772 -0.0967
 6893SOL    HW121578   4.694   0.528   2.234 -0.5149 -1.1000 -1.4861
 6893SOL    HW221579   4.826   0.527   2.139  1.6903 -0.7234  1.4487
 6894SOL     OW21580   4.973   1.034   6.330 -0.1149  0.0308  0.5410
 6894SOL    HW121581   5.043   0.964   6.315 -0.7808  0.0713 -4.0099
 6894SOL    HW221582   4.885   0.990   6.345 -0.3958 -0.2312 -1.5647
 6895SOL     OW21583   5.245   3.956   5.312 -0.3188 -0.1543  0.7701
 6895SOL    HW121584   5.310   3.918   5.377 -0.7025 -0.0017  1.2441
 6895SOL    HW221585   5.251   4.056   5.312  0.7501 -0.1858 -0.5367
 6896SOL     OW21586   3.625   1.218   4.767 -0.0717 -0.5912  0.0711
 6896SOL    HW121587   3.641   1.256   4.675 -0.4738 -0.2569  0.1366
 6896SOL    HW221588   3.657   1.283   4.836 -1.1201 -0.1819  0.1911
 6897SOL     OW21589   6.952   6.923   2.254 -0.1763  0.6816 -0.0754
 6897SOL    HW121590   6.945   6.894   2.350 -0.7232  1.5311  0.1498
 6897SOL    HW221591   7.032   6.879   2.212 -0.7022 -0.7828  0.3703
 6898SOL     OW21592   5.493   3.536   6.804  0.1179 -0.3481 -0.4531
 6898SOL    HW121593   5.455   3.443   6.808  0.2565 -0.3517  1.1127
 6898SOL    HW221594   5.537   3.558   6.891 -2.0575  2.1080  0.1306
 6899SOL     OW21595   5.966   3.835   5.164  0.2613 -0.1619  0.7466
 6899SOL    HW121596   5.901   3.800   5.231 -0.6272 -0.0904 -0.0395
 6899SOL    HW221597   5.961   3.934   5.162  0.1257 -0.1721  0.4401
 6900SOL     OW21598   0.928   2.700   0.513  0.1994  0.0264  0.2921
 6900SOL    HW121599   0.959   2.793   0.491  0.1097  0.1943  0.8530
 6900SOL    HW221600   0.998   2.654   0.567 -0.3274  0.2548  1.1916
 6901SOL     OW21601   2.438   6.998   6.014 -0.1725 -0.1205 -0.3975
 6901SOL    HW121602   2.373   6.984   5.939  1.1948  0.6645 -1.7765
 6901SOL    HW221603   2.486   6.912   6.033 -0.3732 -0.2712 -0.5640
 6902SOL     OW21604   4.557   3.327   1.041  0.2485 -0.0087 -0.6251
 6902SOL    HW121605   4.580   3.376   0.956 -0.7232 -1.4203 -1.7610
 6902SOL    HW221606   4.505   3.387   1.101 -0.1470  0.6384 -1.5919
 6903SOL     OW21607   3.960   5.461   1.889  0.0166  0.3414  0.0322
 6903SOL    HW121608   3.974   5.436   1.793  1.0469  0.2035  0.2067
 6903SOL    HW221609   3.879   5.518   1.897 -0.2030  0.1755 -0.8926
 6904SOL     OW21610   2.879   5.713   3.471 -0.1300 -0.2330 -0.3090
 6904SOL    HW121611   2.809   5.786   3.471  0.3633  0.2540 -1.5560
 6904SOL    HW221612   2.910   5.696   3.378  1.9331  0.0568  0.2749
 6905SOL     OW21613   3.587   2.330   6.078  0.2464  0.5423 -0.2858
 6905SOL    HW121614   3.506   2.271   6.080  0.3003  0.4831  0.5411
 6905SOL    HW221615   3.559   2.426   6.078  0.1429  0.5755  2.2892
 6906SOL     OW21616   4.022   0.097   5.570  0.7756 -0.0006  0.8270
 6906SOL    HW121617   4.119   0.114   5.553  0.5061  0.0540 -0.8150
 6906SOL    HW221618   3.976   0.183   5.593  1.1122 -0.0412  1.6983
 6907SOL     OW21619   3.280   2.065   6.763 -0.2475  0.5939 -0.0537
 6907SOL    HW121620   3.305   2.155   6.727  2.1358 -0.5653 -1.5785
 6907SOL    HW221621   3.213   2.023   6.702 -0.0553  0.6469 -0.3019
 6908SOL     OW21622   6.075   0.788   0.301  0.3566 -0.0071  0.9076
 6908SOL    HW121623   6.018   0.822   0.226  1.5380 -0.3286 -0.1693
 6908SOL    HW221624   6.116   0.865   0.350 -1.3773  0.2524  2.0443
 6909SOL     OW21625   3.301   1.912   3.664 -0.0509 -0.7232 -0.3094
 6909SOL    HW121626   3.280   1.962   3.748  1.4641 -0.1326 -0.2393
 6909SOL    HW221627   3.242   1.946   3.590  3.3617  4.2886 -1.2933
 6910SOL     OW21628   2.727   5.673   0.854  0.6907  0.6155  0.2747
 6910SOL    HW121629   2.628   5.665   0.850  0.7337  0.6172 -2.8116
 6910SOL    HW221630   2.768   5.581   0.854  0.7303  0.6281  0.7186
 6911SOL     OW21631   4.164   1.305   2.359  0.7085  0.0542  0.1172
 6911SOL    HW121632   4.212   1.262   2.282  2.2384  1.2503  0.3519
 6911SOL    HW221633   4.182   1.403   2.358  0.9831  0.0557  2.1562
 6912SOL     OW21634   6.553   6.257   0.058 -0.0806 -0.4114  0.2849
 6912SOL    HW121635   6.605   6.299  -0.016  0.6335  1.5867  1.8365
 6912SOL    HW221636   6.613   6.200   0.114 -0.3340 -0.8646  0.1022
 6913SOL     OW21637   2.111   4.177   5.393 -0.3347 -0.0593  0.2740
 6913SOL    HW121638   2.069   4.088   5.379 -0.2426 -0.2800  1.3225
 6913SOL    HW221639   2.053   4.248   5.352 -0.8398 -0.5218  0.1801
 6914SOL     OW21640   5.503   5.186   3.971 -0.3335 -0.6336 -0.6628
 6914SOL    HW121641   5.453   5.104   3.944 -1.4950 -0.4113  0.7159
 6914SOL    HW221642   5.505   5.193   4.070  0.6394  0.4879 -0.7360
 6915SOL     OW21643   6.918   1.648   1.184  0.1738  0.0505  1.0246
 6915SOL    HW121644   6.981   1.677   1.113 -1.4917 -0.8881 -0.9338
 6915SOL    HW221645   6.869   1.727   1.220  0.4443  0.4403  0.5540
 6916SOL     OW21646   5.880   6.534   5.076 -0.2203 -0.1300  0.0579
 6916SOL    HW121647   5.918   6.567   4.990 -1.2246  0.0054 -0.3476
 6916SOL    HW221648   5.785   6.506   5.062 -1.1636  2.0640  1.6060
 6917SOL     OW21649   6.538   3.134   6.760 -0.2511 -0.1124 -0.7512
 6917SOL    HW121650   6.483   3.072   6.704 -0.3626 -1.8556  1.1574
 6917SOL    HW221651   6.518   3.118   6.857  3.0467 -0.3144  0.0104
 6918SOL     OW21652   4.301   4.341   0.524 -0.0683 -0.0945 -0.2588
 6918SOL    HW121653   4.258   4.411   0.580  0.4497  1.0312 -1.2236
 6918SOL    HW221654   4.235   4.267   0.507 -0.8614  0.4956  0.1735
 6919SOL     OW21655   6.265   1.423   0.605  0.3175  0.2347 -0.4402
 6919SOL    HW121656   6.315   1.510   0.603  0.6835  0.0597  0.4933
 6919SOL    HW221657   6.274   1.378   0.517  1.5407  0.3669 -0.3973
 6920SOL     OW21658   4.909   4.580   0.208 -0.6830 -0.0412  0.2183
 6920SOL    HW121659   4.946   4.673   0.206 -1.3961  0.2596  0.6649
 6920SOL    HW221660   4.889   4.554   0.302  0.0554 -0.8807  0.1643
 6921SOL     OW21661   6.807   3.794   2.080  0.5300 -0.1843 -0.2129
 6921SOL    HW121662   6.857   3.872   2.117 -0.7242 -0.1628  1.5640
 6921SOL    HW221663   6.837   3.710   2.125 -0.2163 -0.3159  0.0570
 6922SOL     OW21664   0.225   6.985   3.709 -0.1942  0.0431  0.5284
 6922SOL    HW121665   0.323   7.002   3.698 -0.2804  0.0867 -0.1957
 6922SOL    HW221666   0.176   7.072   3.699 -0.2774  0.1036  1.3626
 6923SOL     OW21667   5.093   4.808   3.229 -0.1457  0.8238  0.0764
 6923SOL    HW121668   5.124   4.757   3.149  2.5180  0.1789  1.3984
 6923SOL    HW221669   5.102   4.906   3.212 -1.1861  0.7756 -0.9352
 6924SOL     OW21670   1.783   6.950   2.380 -0.1638  0.1376  0.4522
 6924SOL    HW121671   1.702   6.903   2.344  0.7471 -0.7157 -0.5717
 6924SOL    HW221672   1.755   7.032   2.428 -1.4942  1.9031 -2.9886
 6925SOL     OW21673   3.848   5.034   5.808  0.0652 -0.3653  0.4311
 6925SOL    HW121674   3.903   5.050   5.725 -0.0245 -0.8840  0.2653
 6925SOL    HW221675   3.822   5.122   5.848 -3.9712  0.2250 -2.7565
 6926SOL     OW21676   0.414   3.431   4.859  0.2476 -0.1515  0.0008
 6926SOL    HW121677   0.357   3.436   4.941  1.2811  0.6723  0.6904
 6926SOL    HW221678   0.486   3.363   4.873  0.6038  0.2020 -0.1060
 6927SOL     OW21679   0.807   5.240   1.867  0.1314  0.2147 -0.2150
 6927SOL    HW121680   0.885   5.218   1.926 -0.8115 -0.0882  0.9444
 6927SOL    HW221681   0.725   5.196   1.902 -0.0508 -2.0768 -3.1512
 6928SOL     OW21682   4.556   3.951   0.737  0.5996  0.2249  0.0905
 6928SOL    HW121683   4.545   4.035   0.685  1.5301  0.2057 -0.1523
 6928SOL    HW221684   4.466   3.919   0.768 -0.0657 -0.0861 -1.9909
 6929SOL     OW21685   4.626   2.646   2.873 -0.1821  0.1080  0.1727
 6929SOL    HW121686   4.616   2.619   2.968 -0.3692 -0.5268 -0.0198
 6929SOL    HW221687   4.682   2.729   2.867 -0.5898  0.4445  0.8652
 6930SOL     OW21688   6.587   3.452   2.214  0.2759  0.2861  0.0473
 6930SOL    HW121689   6.681   3.485   2.220  0.1224  1.1731 -1.7012
 6930SOL    HW221690   6.528   3.511   2.269  0.2404  2.0700 -1.7887
 6931SOL     OW21691   0.551   6.832   5.881 -0.4422  0.1620  0.2023
 6931SOL    HW121692   0.554   6.745   5.929 -0.0456 -1.1775 -2.1178
 6931SOL    HW221693   0.462   6.875   5.895 -2.2207 -2.5667 -1.7641
 6932SOL     OW21694   6.947   2.535   6.460 -0.4992  0.2805  0.5611
 6932SOL    HW121695   6.930   2.634   6.460 -0.2419  0.3302  0.1110
 6932SOL    HW221696   6.922   2.497   6.548  3.3813  1.4652  2.4394
 6933SOL     OW21697   0.309   2.996   6.420 -0.0882  0.5457 -0.1116
 6933SOL    HW121698   0.352   3.054   6.489  1.2142  1.2340 -1.4533
 6933SOL    HW221699   0.372   2.924   6.393 -0.5620  0.3206 -0.6349
 6934SOL     OW21700   3.795   4.660   6.120 -0.0824  0.5969 -0.1731
 6934SOL    HW121701   3.712   4.604   6.113  0.3523  0.0352 -1.0314
 6934SOL    HW221702   3.846   4.655   6.034  0.7932  1.0210  0.3049
 6935SOL     OW21703   2.265   6.193   6.094  1.1376 -0.4347 -0.4078
 6935SOL    HW121704   2.284   6.281   6.051 -0.3070  0.8137  1.3552
 6935SOL    HW221705   2.349   6.138   6.095  1.6333  0.1412 -3.1548
 6936SOL     OW21706   5.126   0.800   6.298 -0.2329 -0.1600 -0.1663
 6936SOL    HW121707   5.061   0.739   6.342  0.1234  0.7156  1.6878
 6936SOL    HW221708   5.209   0.806   6.354  0.2594  0.9983 -0.9791
 6937SOL     OW21709   3.368   3.981   6.509  0.0174 -0.4197  0.0480
 6937SOL    HW121710   3.365   3.881   6.503  0.8518 -0.4749  0.3641
 6937SOL    HW221711   3.283   4.019   6.473 -0.7270 -1.2795  0.8175
 6938SOL     OW21712   0.333   0.304   3.014  0.2804 -0.5385  0.7052
 6938SOL    HW121713   0.420   0.352   3.001  1.0610 -1.6033  1.7720
 6938SOL    HW221714   0.324   0.276   3.110 -1.9088  0.7820  0.9716
 6939SOL     OW21715   0.998   1.985   4.932 -0.2981  0.2222 -0.0718
 6939SOL    HW121716   1.064   1.921   4.972 -1.0472  0.1707  1.1270
 6939SOL    HW221717   1.041   2.033   4.855  1.5232  1.0338  1.3906
 6940SOL     OW21718   5.549   5.517   1.597 -0.0972  0.2589  0.4373
 6940SOL    HW121719   5.597   5.437   1.561 -0.0905  0.8285 -0.8470
 6940SOL    HW221720   5.453   5.495   1.609  0.2087 -0.4730  1.7657
 6941SOL     OW21721   5.130   2.489   5.218 -0.0204 -0.5044  0.2149
 6941SOL    HW121722   5.139   2.575   5.169 -0.7024 -0.3348  0.3816
 6941SOL    HW221723   5.159   2.503   5.313 -4.3631  0.8110  1.5819
 6942SOL     OW21724   5.448   1.107   0.856 -0.0423 -0.6748  0.0292
 6942SOL    HW121725   5.492   1.033   0.906  1.7634  0.2438 -0.1214
 6942SOL    HW221726   5.505   1.189   0.860 -1.6588  0.5253 -0.3854
 6943SOL     OW21727   0.256   2.674   5.018 -0.0538  0.5081 -0.4005
 6943SOL    HW121728   0.240   2.594   5.076  0.7958  1.1712  0.7923
 6943SOL    HW221729   0.247   2.757   5.072  2.4235  1.1022 -0.7739
 6944SOL     OW21730   1.998   3.547   6.808  0.3253  0.3870  0.1980
 6944SOL    HW121731   2.092   3.514   6.814 -0.2896 -1.3755  0.8671
 6944SOL    HW221732   1.996   3.635   6.760  2.2907  0.4528  0.1658
 6945SOL     OW21733   6.514   5.525   1.724  0.5301 -0.3207 -0.5344
 6945SOL    HW121734   6.436   5.473   1.760  0.2081  0.8618  0.5407
 6945SOL    HW221735   6.507   5.532   1.625 -0.5883 -0.4548 -0.4735
 6946SOL     OW21736   6.419   2.738   5.863  0.0602  0.5793 -0.0904
 6946SOL    HW121737   6.467   2.802   5.803 -0.8675  0.0473 -1.4426
 6946SOL    HW221738   6.386   2.787   5.944 -1.4978  2.0902 -1.5701
 6947SOL     OW21739   6.307   6.768   3.262 -0.2368  0.5891 -0.0663
 6947SOL    HW121740   6.393   6.731   3.226 -0.7456 -0.4506 -0.2627
 6947SOL    HW221741   6.300   6.746   3.359 -1.3582 -1.5266 -0.5586
 6948SOL     OW21742   4.080   0.147   6.824  0.0312 -0.4036  0.8186
 6948SOL    HW121743   4.113   0.239   6.803 -1.1626  0.2931  1.8176
 6948SOL    HW221744   3.983   0.141   6.800  0.1451 -1.4659  0.5912
 6949SOL     OW21745   0.417   3.610   4.638 -0.7492 -0.5421 -0.1918
 6949SOL    HW121746   0.334   3.663   4.618 -0.6248  0.2373  1.2300
 6949SOL    HW221747   0.394   3.530   4.692 -0.5311  0.0050  0.7390
 6950SOL     OW21748   6.160   5.719   1.822 -0.1515  0.9676 -0.5393
 6950SOL    HW121749   6.239   5.775   1.845 -0.6247  0.9228  1.3741
 6950SOL    HW221750   6.182   5.662   1.743  2.8524 -1.2076  1.6282
 6951SOL     OW21751   6.497   2.894   0.900 -0.2273 -0.2822 -0.3221
 6951SOL    HW121752   6.403   2.923   0.915 -0.5518 -2.1464  1.7778
 6951SOL    HW221753   6.552   2.972   0.871 -1.8566  1.4074  0.9264
 6952SOL     OW21754   3.434   1.939   4.761 -0.2457 -0.3707  0.1426
 6952SOL    HW121755   3.356   2.000   4.754  0.8562  0.8815 -3.3323
 6952SOL    HW221756   3.417   1.857   4.706  0.6797 -0.3345 -0.2055
 6953SOL     OW21757   6.708   4.069   1.915  0.0210 -0.1226  0.2382
 6953SOL    HW121758   6.712   4.106   2.008  1.5730 -0.0584  0.1668
 6953SOL    HW221759   6.622   4.019   1.903 -1.7877  2.6753  0.6089
 6954SOL     OW21760   5.345   4.708   3.925  0.3273 -0.4829  0.7770
 6954SOL    HW121761   5.287   4.701   3.844 -1.1517 -0.4657  1.7853
 6954SOL    HW221762   5.440   4.695   3.899 -0.0646 -0.1027 -1.0097
 6955SOL     OW21763   1.745   2.820   1.565 -0.0468 -0.0473 -0.1551
 6955SOL    HW121764   1.676   2.787   1.500 -0.5592  0.2571  0.2205
 6955SOL    HW221765   1.703   2.831   1.655  0.0402  1.7545 -0.2837
 6956SOL     OW21766   6.037   1.560   4.934 -0.5949  0.4708  0.3074
 6956SOL    HW121767   6.036   1.498   5.012  0.5736 -0.6492 -0.5196
 6956SOL    HW221768   6.100   1.635   4.952 -2.3050  1.7052  1.4709
 6957SOL     OW21769   0.138   1.652   0.372 -0.2941  0.2572 -0.0926
 6957SOL    HW121770   0.172   1.609   0.456  0.7773 -1.9359 -1.5344
 6957SOL    HW221771   0.149   1.751   0.378  2.8467 -0.0391  1.1012
 6958SOL     OW21772   6.121   6.851   6.442  0.4155  0.0958  0.5221
 6958SOL    HW121773   6.029   6.816   6.424  1.4048 -2.7048  0.4417
 6958SOL    HW221774   6.140   6.847   6.540  0.5241  0.5341  0.5234
 6959SOL     OW21775   6.289   5.833   0.285  0.0295 -0.3583 -0.2705
 6959SOL    HW121776   6.335   5.921   0.273  0.0352 -0.4296 -0.7858
 6959SOL    HW221777   6.224   5.818   0.211 -0.0719 -0.7264 -0.1113
 6960SOL     OW21778   5.322   3.120   4.600  0.0930 -0.4188 -0.4368
 6960SOL    HW121779   5.335   3.063   4.681  1.6927 -0.6589 -0.8303
 6960SOL    HW221780   5.392   3.192   4.598  0.5527 -0.8774 -1.9801
 6961SOL     OW21781   3.921   3.764   6.170  0.0450 -0.3388 -0.2506
 6961SOL    HW121782   4.006   3.756   6.117  0.8126 -0.8685  1.0100
 6961SOL    HW221783   3.876   3.675   6.175 -1.0694  0.1056 -1.6243
 6962SOL     OW21784   5.428   3.477   5.845 -0.7708  0.1648 -0.8276
 6962SOL    HW121785   5.511   3.439   5.886 -1.3948 -0.7960 -0.4164
 6962SOL    HW221786   5.350   3.421   5.871 -1.4579  0.6727 -1.7545
 6963SOL     OW21787   1.537   6.555   3.788 -0.1435 -0.0153  0.3195
 6963SOL    HW121788   1.598   6.484   3.823  0.7848  0.4597 -0.2697
 6963SOL    HW221789   1.543   6.557   3.688  0.1365  1.1335  0.3486
 6964SOL     OW21790   3.311   4.981   1.973 -0.0093  0.4473  0.0694
 6964SOL    HW121791   3.306   4.922   2.054 -1.9896 -0.4949 -0.6786
 6964SOL    HW221792   3.346   5.071   1.999 -0.6198  0.1747  1.9695
 6965SOL     OW21793   5.406   2.850   3.410  0.4638  0.0184  0.1119
 6965SOL    HW121794   5.314   2.874   3.379 -0.5520 -2.5176  0.9270
 6965SOL    HW221795   5.470   2.862   3.334 -0.5682  1.5413 -0.5645
 6966SOL     OW21796   4.690   4.248   5.101  0.6845 -0.0968  0.0462
 6966SOL    HW121797   4.654   4.167   5.148 -0.3924  0.3000 -0.0725
 6966SOL    HW221798   4.771   4.222   5.048  0.1344 -1.1935 -0.3020
 6967SOL     OW21799   4.029   1.319   1.692  0.0122  0.1355 -0.0416
 6967SOL    HW121800   3.968   1.394   1.720  2.3236  2.2765 -0.3841
 6967SOL    HW221801   4.048   1.261   1.771 -3.6613 -1.6539 -0.2567
 6968SOL     OW21802   2.768   6.481   2.724 -0.1791 -0.1837  0.2109
 6968SOL    HW121803   2.741   6.385   2.715 -2.1026  0.4612 -1.9172
 6968SOL    HW221804   2.857   6.494   2.681 -0.0310 -0.9637  0.2623
 6969SOL     OW21805   4.837   3.745   6.905 -0.0769 -0.1182 -0.1371
 6969SOL    HW121806   4.925   3.791   6.889  0.6160 -0.8844  1.2808
 6969SOL    HW221807   4.763   3.812   6.896  0.5784  0.4335 -1.8709
 6970SOL     OW21808   0.797   3.216   0.702 -0.5354 -0.3979 -0.2189
 6970SOL    HW121809   0.840   3.129   0.678  2.0749  1.0184 -1.0796
 6970SOL    HW221810   0.819   3.285   0.632 -0.2765  1.6100  1.7164
 6971SOL     OW21811   3.146   2.329   1.718  0.0289  0.4732  0.0626
 6971SOL    HW121812   3.063   2.342   1.772  0.3935  1.0954  0.4940
 6971SOL    HW221813   3.171   2.416   1.675 -0.3407 -0.0514 -1.2376
 6972SOL     OW21814   4.814   2.810   3.582 -0.2647  0.0801 -0.5250
 6972SOL    HW121815   4.749   2.747   3.626 -1.9509  2.7611  1.1315
 6972SOL    HW221816   4.896   2.760   3.557 -0.7506 -2.4628  2.2926
 6973SOL     OW21817   1.596   3.243   3.483  0.2501 -0.3895  0.2874
 6973SOL    HW121818   1.579   3.185   3.403 -0.7235 -1.0809  0.9789
 6973SOL    HW221819   1.638   3.329   3.453  3.4596 -2.1093 -0.6090
 6974SOL     OW21820   0.233   3.085   6.162  0.2395  0.1460  0.4696
 6974SOL    HW121821   0.245   3.022   6.239  0.5311 -2.1071 -1.2818
 6974SOL    HW221822   0.275   3.173   6.183 -0.7994  0.0445  3.3141
 6975SOL     OW21823   6.491   6.025   5.281 -0.1863  0.1451 -0.0428
 6975SOL    HW121824   6.540   5.939   5.266  2.8021  1.7540 -0.2836
 6975SOL    HW221825   6.397   6.006   5.310  1.0637 -3.2113  2.3592
 6976SOL     OW21826   3.081   2.739   6.321 -0.3952 -0.3811 -0.8246
 6976SOL    HW121827   3.100   2.716   6.416 -0.9783 -0.8504 -0.8147
 6976SOL    HW221828   3.151   2.802   6.287  0.8825 -1.6563 -0.6599
 6977SOL     OW21829   4.691   1.723   3.544  0.3139 -0.4966  0.2383
 6977SOL    HW121830   4.765   1.789   3.557 -1.3849  1.4871  0.3756
 6977SOL    HW221831   4.647   1.740   3.455 -0.4277 -1.1776  0.4642
 6978SOL     OW21832   2.228   6.985   0.485 -0.1813  0.1316  0.1337
 6978SOL    HW121833   2.203   6.896   0.446 -0.5397  0.2598  0.0709
 6978SOL    HW221834   2.283   6.971   0.568 -1.4901 -0.1805  0.9887
 6979SOL     OW21835   3.991   6.609   0.785 -0.1900 -0.4891 -0.3835
 6979SOL    HW121836   3.948   6.674   0.723  1.4355 -0.0050 -1.0437
 6979SOL    HW221837   3.931   6.529   0.796 -1.7440  0.6429 -0.3556
 6980SOL     OW21838   1.632   0.545   1.043  0.0082 -0.0815 -0.7430
 6980SOL    HW121839   1.718   0.595   1.047 -0.8250  1.3542  0.1859
 6980SOL    HW221840   1.609   0.511   1.134 -1.1859  0.9816 -0.6206
 6981SOL     OW21841   5.453   0.955   1.516 -0.1709 -0.0436 -0.3768
 6981SOL    HW121842   5.378   0.943   1.452 -0.2593 -0.1434 -0.2546
 6981SOL    HW221843   5.523   0.886   1.498  0.0194  0.2228 -0.6715
 6982SOL     OW21844   5.539   1.585   4.259  0.6274 -0.6643 -0.5827
 6982SOL    HW121845   5.485   1.610   4.339 -0.0997 -2.2159 -0.5512
 6982SOL    HW221846   5.569   1.490   4.267  0.9752 -0.6960 -1.9302
 6983SOL     OW21847   6.052   6.976   5.365  0.3039  0.4151  0.2355
 6983SOL    HW121848   5.981   7.042   5.390 -0.0425  0.4418 -0.7982
 6983SOL    HW221849   6.061   6.972   5.266  0.8138 -0.5776  0.3090
 6984SOL     OW21850   4.772   1.540   5.594 -0.3480  0.3475  0.8636
 6984SOL    HW121851   4.738   1.478   5.665 -1.4535  1.1576  1.0723
 6984SOL    HW221852   4.869   1.523   5.579 -0.3168 -0.5004  1.8802
 6985SOL     OW21853   2.856   1.922   6.863  0.0631 -0.4819 -0.3284
 6985SOL    HW121854   2.902   1.856   6.803  1.4074  1.3132 -1.3789
 6985SOL    HW221855   2.825   2.000   6.810  0.5635  0.8027  1.1870
 6986SOL     OW21856   1.883   1.697   5.507  0.3053  0.6842  0.1559
 6986SOL    HW121857   1.892   1.702   5.606 -1.3576 -0.0257  0.3842
 6986SOL    HW221858   1.945   1.763   5.464  0.9980  1.0445  1.6599
 6987SOL     OW21859   2.467   3.074   0.239  0.2017  0.2377  0.3633
 6987SOL    HW121860   2.509   3.141   0.300 -2.2727  0.1432  2.3134
 6987SOL    HW221861   2.377   3.105   0.210 -0.3896 -1.5659  0.0992
 6988SOL     OW21862   0.505   5.211   0.225 -0.0357  0.4021  0.0287
 6988SOL    HW121863   0.604   5.221   0.213 -0.3785  2.3638 -1.6222
 6988SOL    HW221864   0.460   5.214   0.136 -1.5211 -2.3633  0.5500
 6989SOL     OW21865   1.113   3.720   1.893  0.2857 -0.2774  0.7212
 6989SOL    HW121866   1.120   3.748   1.989 -0.2318  1.7248  0.2236
 6989SOL    HW221867   1.143   3.795   1.834 -0.4826 -1.0572 -0.7111
 6990SOL     OW21868   4.072   2.932   0.828 -0.1214  0.7029 -0.4628
 6990SOL    HW121869   4.132   2.994   0.879  0.7885 -0.3690 -0.1798
 6990SOL    HW221870   4.124   2.852   0.798 -1.2935 -0.0145 -0.6662
 6991SOL     OW21871   2.219   3.165   4.699  0.0664  0.5919 -0.2931
 6991SOL    HW121872   2.216   3.119   4.787 -1.3463  1.7165  0.2831
 6991SOL    HW221873   2.233   3.097   4.626 -0.6501 -0.5694  0.6247
 6992SOL     OW21874   6.068   4.195   1.847 -0.0410 -0.2784 -0.4558
 6992SOL    HW121875   6.052   4.276   1.904  0.0368 -0.7250  0.2153
 6992SOL    HW221876   5.988   4.180   1.789 -0.6852 -0.5480  0.4657
 6993SOL     OW21877   6.897   4.869   3.349  0.1731 -0.6484  0.1496
 6993SOL    HW121878   6.944   4.949   3.387 -0.5738 -0.0030 -0.2492
 6993SOL    HW221879   6.816   4.849   3.404  0.0427 -0.7757 -0.0886
 6994SOL     OW21880   3.366   3.586   4.248 -0.2700  0.1504  0.1494
 6994SOL    HW121881   3.358   3.669   4.193 -0.9317 -1.6080 -2.5934
 6994SOL    HW221882   3.284   3.574   4.303 -0.1033  1.3299  0.7000
 6995SOL     OW21883   6.515   1.393   3.892  0.0165 -0.0782 -0.1386
 6995SOL    HW121884   6.475   1.435   3.973 -0.9402  0.8404 -1.0667
 6995SOL    HW221885   6.504   1.293   3.897  1.8474 -0.2633  1.8332
 6996SOL     OW21886   1.742   4.746   5.597  0.1256  0.0131 -0.2403
 6996SOL    HW121887   1.695   4.830   5.621  0.4655 -0.0214  0.5789
 6996SOL    HW221888   1.719   4.720   5.503  1.1534  1.8074 -1.0532
 6997SOL     OW21889   4.238   1.105   5.739  0.4369  0.0517  0.3789
 6997SOL    HW121890   4.296   1.062   5.808  2.1691  0.1256 -0.9689
 6997SOL    HW221891   4.292   1.170   5.685 -0.6649 -0.5140 -1.5056
 6998SOL     OW21892   6.380   6.569   5.863 -0.2927 -0.3103  0.1338
 6998SOL    HW121893   6.434   6.615   5.792 -1.4687  1.1752  0.1611
 6998SOL    HW221894   6.286   6.558   5.832 -0.7770  0.1608  1.3700
 6999SOL     OW21895   4.980   6.157   0.743  0.1243  0.0688  0.1437
 6999SOL    HW121896   5.025   6.159   0.833  1.3390 -1.2749 -0.3792
 6999SOL    HW221897   4.881   6.158   0.754  0.2529  1.2431  1.4281
 7000SOL     OW21898   0.163   2.687   2.997 -0.6747 -0.0470 -0.4518
 7000SOL    HW121899   0.237   2.749   2.972 -2.5309  0.9748 -4.0932
 7000SOL    HW221900   0.089   2.740   3.039  0.1111 -0.9179  2.2612
 7001SOL     OW21901   4.936   1.074   1.865 -0.2421  0.4047  0.0770
 7001SOL    HW121902   4.977   1.087   1.775 -2.3042 -0.0698 -0.9994
 7001SOL    HW221903   5.001   1.027   1.925  1.4380  1.3918 -0.9133
 7002SOL     OW21904   2.014   5.260   5.710  0.1696  0.2527 -0.6436
 7002SOL    HW121905   1.950   5.290   5.640  1.2077  1.2936 -1.1722
 7002SOL    HW221906   2.051   5.340   5.758  0.5633 -0.3709  0.1181
 7003SOL     OW21907   1.456   4.760   4.202  0.2910  0.4006  0.2740
 7003SOL    HW121908   1.356   4.754   4.195  0.1481 -1.0316  2.5743
 7003SOL    HW221909   1.497   4.738   4.114 -1.4058  0.5168 -0.5794
 7004SOL     OW21910   5.744   6.616   0.481  0.2432  0.0048  0.4475
 7004SOL    HW121911   5.746   6.684   0.408  1.6380 -1.0341 -0.5355
 7004SOL    HW221912   5.834   6.610   0.523  0.3723 -1.7154  0.0090
 7005SOL     OW21913   0.440   1.111   5.095  0.4229  0.2329 -0.5414
 7005SOL    HW121914   0.374   1.051   5.142  1.0146  0.0118  0.0259
 7005SOL    HW221915   0.492   1.162   5.163  1.3245 -0.1253 -0.9599
 7006SOL     OW21916   6.534   2.237   2.207  0.5972 -0.1132 -0.3518
 7006SOL    HW121917   6.527   2.160   2.270 -0.6710 -0.3174 -0.7052
 7006SOL    HW221918   6.624   2.279   2.215  0.3167  0.1738  1.9292
 7007SOL     OW21919   4.696   6.121   5.324  0.9741 -0.3833 -0.2006
 7007SOL    HW121920   4.645   6.156   5.245 -0.4335  1.1325  1.2913
 7007SOL    HW221921   4.656   6.035   5.353  0.9189 -0.4933 -0.5940
 7008SOL     OW21922   2.550   0.243   0.435  0.1182  0.0182 -0.1894
 7008SOL    HW121923   2.513   0.309   0.500  1.7420 -1.0507  1.9803
 7008SOL    HW221924   2.497   0.245   0.351 -2.2872  1.2953  1.2412
 7009SOL     OW21925   3.266   1.674   5.186 -0.1544 -0.0070 -0.0386
 7009SOL    HW121926   3.298   1.724   5.266 -2.0962  2.1718 -0.5108
 7009SOL    HW221927   3.332   1.682   5.112 -0.6998  2.5547 -0.3177
 7010SOL     OW21928   2.858   0.005   4.875  0.2042 -0.4632 -0.0243
 7010SOL    HW121929   2.863  -0.076   4.934  1.2493  1.0239  2.0420
 7010SOL    HW221930   2.780   0.061   4.902 -0.2911 -0.5495 -1.1992
 7011SOL     OW21931   1.123   4.195   0.511 -0.2044 -0.0715  0.2698
 7011SOL    HW121932   1.115   4.126   0.582 -0.2437  0.7690  1.1051
 7011SOL    HW221933   1.215   4.194   0.473 -0.0587 -0.2622  0.6229
 7012SOL     OW21934   1.435   5.539   3.518 -0.5949  0.3893  0.2066
 7012SOL    HW121935   1.386   5.611   3.567 -0.8637 -1.0870  2.2453
 7012SOL    HW221936   1.386   5.453   3.528  0.8196 -0.5111 -0.3276
 7013SOL     OW21937   2.107   6.439   2.030 -0.3537  0.0832  0.3182
 7013SOL    HW121938   2.146   6.370   2.092  1.1683 -0.8080 -1.5109
 7013SOL    HW221939   2.096   6.399   1.939 -0.1152  2.0469 -0.6267
 7014SOL     OW21940   3.057   0.417   6.255 -0.1207 -0.1422 -0.0899
 7014SOL    HW121941   3.120   0.475   6.306  1.1905  0.1756 -1.9789
 7014SOL    HW221942   3.011   0.354   6.318  1.2917  0.3254  1.4710
 7015SOL     OW21943   4.941   6.132   6.427  0.3173 -0.3815 -0.0626
 7015SOL    HW121944   5.003   6.158   6.353 -0.9280  1.1764 -0.6046
 7015SOL    HW221945   4.995   6.103   6.506  1.8010  1.9949 -0.1193
 7016SOL     OW21946   0.929   6.597   1.063  0.0149 -0.1276 -0.6206
 7016SOL    HW121947   0.962   6.646   0.982 -1.2796 -0.5969 -1.4673
 7016SOL    HW221948   0.952   6.500   1.054 -0.2509 -0.2021 -0.4823
 7017SOL     OW21949   0.220   6.331   0.925  0.1008  0.2715 -0.3244
 7017SOL    HW121950   0.266   6.420   0.918  0.0981  0.2661 -0.4066
 7017SOL    HW221951   0.277   6.260   0.883  0.4294  0.1159  0.3619
 7018SOL     OW21952   6.882   2.977   4.675 -0.0205  0.6126 -0.7469
 7018SOL    HW121953   6.955   2.925   4.630  0.6041  1.3363 -0.5996
 7018SOL    HW221954   6.807   2.991   4.611  0.5640  1.0427 -1.3604
 7019SOL     OW21955   0.503   0.132   2.300  0.0551 -0.4155  0.6674
 7019SOL    HW121956   0.449   0.057   2.264  0.8853 -1.1381  0.8838
 7019SOL    HW221957   0.589   0.140   2.249  0.5734 -0.4913  1.4949
 7020SOL     OW21958   6.648   5.034   6.189  0.4307 -0.3383 -0.1819
 7020SOL    HW121959   6.610   4.963   6.130  2.3306 -0.8131 -0.9055
 7020SOL    HW221960   6.598   5.035   6.276 -0.1630 -2.0389 -0.4567
 7021SOL     OW21961   2.787   4.030   1.202 -0.1236 -0.2394  0.2513
 7021SOL    HW121962   2.878   3.990   1.196  0.1622  0.1951  1.3683
 7021SOL    HW221963   2.751   4.047   1.110  0.5577 -1.2041 -0.2073
 7022SOL     OW21964   2.441   0.849   1.652  0.4043  0.0426 -0.5590
 7022SOL    HW121965   2.381   0.892   1.585 -0.2422 -0.2826 -0.2029
 7022SOL    HW221966   2.507   0.790   1.606 -1.4054 -1.8870 -0.8348
 7023SOL     OW21967   5.097   1.659   6.604  0.4508  0.0212  0.6590
 7023SOL    HW121968   5.100   1.759   6.593  1.9809  0.0895  1.4663
 7023SOL    HW221969   5.154   1.617   6.534  1.0557 -0.1837  1.2643
 7024SOL     OW21970   3.720   3.330   1.222 -0.4835  0.6032  0.4147
 7024SOL    HW121971   3.745   3.248   1.171 -3.1179 -0.0220 -0.0523
 7024SOL    HW221972   3.800   3.390   1.232  1.9232 -2.6143  2.0632
 7025SOL     OW21973   0.961   0.206   1.029 -0.7814  0.2885 -0.0950
 7025SOL    HW121974   0.973   0.235   1.124 -2.0308 -0.3268  0.2800
 7025SOL    HW221975   1.007   0.118   1.015  3.1676  2.3045 -1.2813
 7026SOL     OW21976   0.136   3.886   2.370 -0.3361  0.0795  0.6662
 7026SOL    HW121977   0.102   3.915   2.460 -0.5372 -1.5051  1.1380
 7026SOL    HW221978   0.154   3.788   2.372 -0.0940  0.0719 -0.9641
 7027SOL     OW21979   2.023   1.447   1.623  0.3817 -0.1784  0.2624
 7027SOL    HW121980   1.961   1.505   1.676 -1.2104 -1.6652  0.1351
 7027SOL    HW221981   2.107   1.497   1.603 -0.5489  1.7459  0.8954
 7028SOL     OW21982   6.724   3.392   5.037  0.3037  0.4141  0.2334
 7028SOL    HW121983   6.816   3.431   5.043  0.0677  1.0786 -0.2941
 7028SOL    HW221984   6.694   3.394   4.941 -0.0295 -0.3434  0.3183
 7029SOL     OW21985   0.779   5.783   3.398 -0.2203  0.1985  0.4310
 7029SOL    HW121986   0.875   5.768   3.419  0.0853 -0.0658 -1.0052
 7029SOL    HW221987   0.751   5.874   3.429  0.0939 -0.2413  2.0909
 7030SOL     OW21988   2.412   0.511   1.672  0.1734 -0.2881  0.0275
 7030SOL    HW121989   2.350   0.449   1.624  0.5047 -1.4513  1.0671
 7030SOL    HW221990   2.359   0.572   1.731 -0.0422 -1.0076  0.6016
 7031SOL     OW21991   1.485   1.694   2.215 -0.6200 -0.2805 -0.2389
 7031SOL    HW121992   1.433   1.626   2.164  0.9283  0.3259 -2.8359
 7031SOL    HW221993   1.566   1.651   2.256 -0.0474 -0.1918 -1.2382
 7032SOL     OW21994   6.453   1.385   5.938 -0.0291  0.9260  0.0653
 7032SOL    HW121995   6.491   1.470   5.974 -1.6092  1.8567 -0.3987
 7032SOL    HW221996   6.467   1.312   6.006  1.3153  1.5353  0.4782
 7033SOL     OW21997   1.466   6.999   4.466  0.0746 -0.5629  0.0205
 7033SOL    HW121998   1.534   7.071   4.456  0.3791 -0.7508  0.6487
 7033SOL    HW221999   1.507   6.920   4.511  0.0388 -1.5693 -1.6226
 7034SOL     OW22000   1.266   3.733   4.463  0.0679  0.5124 -0.2587
 7034SOL    HW122001   1.354   3.766   4.431  0.4043  3.0380  2.6882
 7034SOL    HW222002   1.194   3.795   4.432 -0.1087  0.7175  0.5330
 7035SOL     OW22003   6.346   4.371   1.111 -0.3506  0.7762 -0.3438
 7035SOL    HW122004   6.329   4.274   1.100 -0.2043  0.4570  1.9070
 7035SOL    HW222005   6.274   4.413   1.167  1.0548  1.3409  1.1294
 7036SOL     OW22006   5.296   1.273   1.557 -0.0125  0.7616  0.2157
 7036SOL    HW122007   5.272   1.215   1.479 -0.3385  2.3522 -0.9213
 7036SOL    HW222008   5.394   1.264   1.577  0.8941  2.8195 -2.6537
 7037SOL     OW22009   2.586   6.481   6.372 -0.0156  0.2903 -0.1620
 7037SOL    HW122010   2.640   6.474   6.456 -1.6055 -0.1870  0.8667
 7037SOL    HW222011   2.628   6.424   6.301  0.9044  0.0383  0.5601
 7038SOL     OW22012   0.810   3.742   2.732 -0.2801  0.0787  0.0699
 7038SOL    HW122013   0.710   3.740   2.742 -0.3236  0.1892 -0.3241
 7038SOL    HW222014   0.842   3.651   2.704 -0.1777 -0.1814  1.0141
 7039SOL     OW22015   5.225   4.208   2.195  0.1559  0.1106  0.5253
 7039SOL    HW122016   5.272   4.228   2.280 -0.6845 -2.6864  1.7659
 7039SOL    HW222017   5.128   4.194   2.213  0.0636 -1.1295 -0.7466
 7040SOL     OW22018   3.325   0.209   0.841  0.3657 -0.2200 -0.3515
 7040SOL    HW122019   3.267   0.271   0.893 -0.0484 -2.0307  1.4510
 7040SOL    HW222020   3.400   0.176   0.899  0.5087 -1.4828 -1.2110
 7041SOL     OW22021   0.632   2.093   0.840 -0.1658 -0.2876 -0.0563
 7041SOL    HW122022   0.598   2.178   0.801  0.1134 -0.7035 -1.2321
 7041SOL    HW222023   0.731   2.096   0.847 -0.2759  0.3896  2.1215
 7042SOL     OW22024   6.055   2.439   3.387 -0.1360  0.2533  0.3918
 7042SOL    HW122025   6.126   2.368   3.380  0.6897  1.1235 -0.4212
 7042SOL    HW222026   5.965   2.397   3.391  0.4108 -0.8828  1.2983
 7043SOL     OW22027   1.870   3.149   1.139 -0.0713 -0.0067 -1.4835
 7043SOL    HW122028   1.824   3.233   1.168 -0.9664 -0.7780 -0.5601
 7043SOL    HW222029   1.966   3.168   1.121  0.1717  0.9005  0.4559
 7044SOL     OW22030   4.870   6.590   4.694  0.1851 -0.2639 -0.1485
 7044SOL    HW122031   4.941   6.623   4.756  1.9833 -0.5102 -2.0069
 7044SOL    HW222032   4.831   6.505   4.731 -1.7430  1.6440  2.6762
 7045SOL     OW22033   5.040   3.946   6.971 -0.1520 -0.6044  0.2949
 7045SOL    HW122034   5.136   3.956   6.997  0.1011  1.5458 -1.2285
 7045SOL    HW222035   4.986   3.921   7.052  1.4652 -0.4205  1.4783
 7046SOL     OW22036   4.199   0.468   6.294 -0.2117  0.1622  0.2449
 7046SOL    HW122037   4.156   0.522   6.221  0.7944 -0.3317 -0.7516
 7046SOL    HW222038   4.285   0.429   6.260  1.4580  1.7438  2.3567
 7047SOL     OW22039   5.652   5.618   0.919  0.3312 -0.7421 -0.3328
 7047SOL    HW122040   5.656   5.577   1.010  0.1141 -0.8105 -0.3547
 7047SOL    HW222041   5.741   5.658   0.897 -0.1849  1.1986  0.8139
 7048SOL     OW22042   0.449   2.581   2.270 -0.2687  0.4958 -0.3554
 7048SOL    HW122043   0.511   2.647   2.228 -1.5614  1.1399 -1.3018
 7048SOL    HW222044   0.366   2.573   2.216 -0.6984 -0.9560  0.4513
 7049SOL     OW22045   2.136   4.933   1.517 -0.2184 -0.6267  0.2521
 7049SOL    HW122046   2.192   4.880   1.453 -0.6664  0.2422 -0.8958
 7049SOL    HW222047   2.044   4.894   1.522 -0.3880 -0.2854 -0.1747
 7050SOL     OW22048   3.842   5.241   1.473  0.3152  0.3840 -0.7185
 7050SOL    HW122049   3.790   5.239   1.388 -2.6249 -0.0749  0.9723
 7050SOL    HW222050   3.848   5.149   1.511  1.0589  0.6787 -0.0861
 7051SOL     OW22051   0.557   2.576   4.887 -0.3101 -0.0409 -0.1249
 7051SOL    HW122052   0.464   2.590   4.922 -0.4073  0.2498 -0.4963
 7051SOL    HW222053   0.621   2.572   4.963 -0.2172  2.7737  0.0240
 7052SOL     OW22054   0.325   2.697   3.428 -0.4415  0.1113 -0.3741
 7052SOL    HW122055   0.399   2.735   3.483  0.7921 -2.1787 -0.3423
 7052SOL    HW222056   0.237   2.719   3.471  0.3139  1.1592  0.7029
 7053SOL     OW22057   1.043   5.527   3.939 -0.2240 -0.2765 -0.4626
 7053SOL    HW122058   1.105   5.462   3.896  0.3246 -0.6324  0.8111
 7053SOL    HW222059   0.976   5.558   3.872  0.8102 -0.5109 -1.6596
 7054SOL     OW22060   6.401   6.135   5.989  0.0939 -0.3175  0.1214
 7054SOL    HW122061   6.485   6.163   6.036  1.2293 -1.1007 -1.3754
 7054SOL    HW222062   6.335   6.211   5.991  1.7574  1.2267 -0.7898
 7055SOL     OW22063   0.060   4.543   1.118 -0.6661  0.1486 -0.5495
 7055SOL    HW122064   0.012   4.497   1.043 -0.3761 -0.7787 -0.1878
 7055SOL    HW222065   0.080   4.476   1.190 -1.0924  1.0635  0.4343
 7056SOL     OW22066   5.521   2.113   2.038  0.1313  0.4729 -0.2605
 7056SOL    HW122067   5.583   2.170   1.984  0.3546  1.0918  0.6287
 7056SOL    HW222068   5.446   2.080   1.980 -0.0325  1.7155 -0.7709
 7057SOL     OW22069   0.803   3.540   4.453 -0.4335  0.4024  0.0660
 7057SOL    HW122070   0.867   3.470   4.485 -0.9773  0.2282  0.7778
 7057SOL    HW222071   0.851   3.602   4.390  0.8325  1.1177  1.6600
 7058SOL     OW22072   1.602   5.333   0.500 -0.2452 -0.2464 -0.3330
 7058SOL    HW122073   1.586   5.430   0.517  0.5957 -0.1627  0.0108
 7058SOL    HW222074   1.548   5.278   0.564  0.6335  0.0254  0.6646
 7059SOL     OW22075   0.979   5.205   1.483 -0.2293 -0.0663  0.0729
 7059SOL    HW122076   1.056   5.269   1.477 -0.3801  0.1406  0.3133
 7059SOL    HW222077   0.972   5.170   1.576 -1.2691  0.9742  0.4039
 7060SOL     OW22078   5.037   5.417   2.239 -0.0351  0.3268  0.3738
 7060SOL    HW122079   4.946   5.430   2.200  0.6782  0.9053 -1.1516
 7060SOL    HW222080   5.086   5.504   2.241  0.8400 -0.1508  0.2652
 7061SOL     OW22081   1.745   2.912   6.207  0.3511  0.0211 -0.3288
 7061SOL    HW122082   1.794   2.999   6.204 -0.7178  0.7014  0.7505
 7061SOL    HW222083   1.778   2.858   6.284 -0.6965  0.5785  0.5404
 7062SOL     OW22084   2.666   0.285   6.530 -0.0713  0.2967 -0.2256
 7062SOL    HW122085   2.622   0.260   6.616 -1.0811 -1.6842 -1.2220
 7062SOL    HW222086   2.614   0.357   6.485 -0.2808  0.4408  0.2466
 7063SOL     OW22087   5.086   4.819   0.191 -0.6871 -0.5361  0.3509
 7063SOL    HW122088   5.159   4.778   0.245  0.8308  0.5324 -0.7948
 7063SOL    HW222089   5.078   4.916   0.213 -0.6400 -0.2844 -0.6928
 7064SOL     OW22090   0.937   2.955   4.505 -0.4126 -0.0732 -0.4061
 7064SOL    HW122091   0.855   2.960   4.562 -1.5377 -0.0579 -1.9945
 7064SOL    HW222092   1.006   2.900   4.552 -1.7120 -0.9995  0.4860
 7065SOL     OW22093   3.039   6.902   5.243 -0.6738 -0.0229 -0.5651
 7065SOL    HW122094   3.028   6.826   5.306  1.0600 -0.5963 -0.8942
 7065SOL    HW222095   3.127   6.893   5.195  0.1486  2.7664  0.2045
 7066SOL     OW22096   5.203   5.611   3.880 -0.5525 -0.1821 -0.4031
 7066SOL    HW122097   5.280   5.551   3.861 -0.6179  0.0392 -1.4048
 7066SOL    HW222098   5.131   5.597   3.812 -1.8700 -1.1202  1.0857
 7067SOL     OW22099   2.707   5.624   3.657 -0.6850 -0.3047  0.6160
 7067SOL    HW122100   2.741   5.650   3.747 -0.1346 -2.5066  1.1161
 7067SOL    HW222101   2.780   5.636   3.589 -0.8907  0.7244  0.5631
 7068SOL     OW22102   1.222   4.540   6.227 -0.3632 -1.0715 -0.5512
 7068SOL    HW122103   1.273   4.546   6.141 -1.1559  0.1769 -0.9560
 7068SOL    HW222104   1.171   4.454   6.229  1.8500 -2.4397 -0.0515
 7069SOL     OW22105   5.391   0.795   5.664 -0.0698 -1.1611  0.4211
 7069SOL    HW122106   5.391   0.771   5.567 -1.0269 -0.8312  0.3228
 7069SOL    HW222107   5.473   0.848   5.685  0.7012 -2.1860  0.0515
 7070SOL     OW22108   2.700   0.496   2.711  0.7112 -0.4265  0.4172
 7070SOL    HW122109   2.665   0.589   2.726  0.2360 -0.4363 -0.5851
 7070SOL    HW222110   2.790   0.501   2.668  0.8575 -0.4390  0.7127
 7071SOL     OW22111   4.943   1.232   5.042 -0.1825 -0.1316 -0.1715
 7071SOL    HW122112   5.010   1.173   5.087  0.2119 -0.7789 -1.5320
 7071SOL    HW222113   4.969   1.243   4.946 -1.8341 -0.1195 -0.6453
 7072SOL     OW22114   2.586   2.375   6.014  0.0788 -0.0068  0.5308
 7072SOL    HW122115   2.631   2.289   5.987 -2.7345 -1.2731 -0.5230
 7072SOL    HW222116   2.527   2.357   6.093 -0.9163  0.8348 -0.0114
 7073SOL     OW22117   5.897   2.297   6.337 -0.1206 -0.3652  0.0910
 7073SOL    HW122118   5.957   2.235   6.388  1.2862 -0.2927 -1.3869
 7073SOL    HW222119   5.939   2.388   6.333  0.4458 -0.6643 -2.1607
 7074SOL     OW22120   0.236   4.348   0.701  0.4505 -0.2886 -0.4177
 7074SOL    HW122121   0.229   4.442   0.670 -0.5791 -0.0879  0.3742
 7074SOL    HW222122   0.167   4.292   0.655 -1.9753  0.2566  2.2069
 7075SOL     OW22123   0.940   6.707   0.321 -0.4032  0.2104  0.5042
 7075SOL    HW122124   0.931   6.694   0.223 -2.1370  0.8482  0.5405
 7075SOL    HW222125   0.955   6.619   0.366 -0.2988 -0.1634 -0.2580
 7076SOL     OW22126   0.629   3.032   1.604  0.2604 -0.1009 -0.2965
 7076SOL    HW122127   0.642   3.127   1.632 -0.5198 -0.2454  0.5885
 7076SOL    HW222128   0.718   2.985   1.604  0.4407  0.2232  0.7729
 7077SOL     OW22129   2.860   1.147   5.547 -0.4150 -0.0119  0.0158
 7077SOL    HW122130   2.892   1.103   5.463 -1.4289 -1.5234  0.3897
 7077SOL    HW222131   2.806   1.228   5.524  1.0063  0.7640 -0.7019
 7078SOL     OW22132   0.009   4.307   0.081  0.6689  0.5351 -0.5040
 7078SOL    HW122133   0.020   4.208   0.068  1.3856  0.5742 -0.2774
 7078SOL    HW222134  -0.044   4.345   0.006 -0.3384 -0.1482 -0.1521
 7079SOL     OW22135   0.473   3.345   6.583 -0.1467 -0.3579 -0.4864
 7079SOL    HW122136   0.502   3.284   6.656 -1.4864  0.0508  0.4229
 7079SOL    HW222137   0.538   3.340   6.507  2.3782  0.6734  1.4672
 7080SOL     OW22138   1.846   5.171   2.516  0.0372 -0.3803 -0.1252
 7080SOL    HW122139   1.861   5.270   2.520  1.3155 -0.6062  1.6817
 7080SOL    HW222140   1.897   5.132   2.439  0.8919  0.1421  0.1721
 7081SOL     OW22141   1.838   0.110   1.801  0.1546 -0.0124  0.0879
 7081SOL    HW122142   1.801   0.197   1.832  0.1146  0.2661 -0.7066
 7081SOL    HW222143   1.845   0.046   1.878  1.3222  1.0900  0.9289
 7082SOL     OW22144   4.512   5.505   6.368 -0.1396 -0.5213  0.2158
 7082SOL    HW122145   4.453   5.439   6.320  1.4705 -2.1784  0.4061
 7082SOL    HW222146   4.585   5.534   6.307 -0.1379  0.1820  0.5386
 7083SOL     OW22147   2.938   1.208   4.323 -0.2052 -0.1491  0.5617
 7083SOL    HW122148   2.950   1.230   4.226 -1.3068  0.8887  0.6393
 7083SOL    HW222149   2.916   1.111   4.333  2.3346 -0.8489  0.0011
 7084SOL     OW22150   0.975   5.216   2.913 -0.2108 -0.9687  0.9275
 7084SOL    HW122151   0.953   5.125   2.948  0.4033 -0.9358  1.4240
 7084SOL    HW222152   0.891   5.266   2.894 -0.5549 -1.3713  1.3755
 7085SOL     OW22153   5.008   5.850   5.788 -0.5427  0.5011 -0.3317
 7085SOL    HW122154   4.969   5.902   5.712 -0.5935  0.0051 -0.6535
 7085SOL    HW222155   4.958   5.764   5.799  0.6103 -0.2861 -0.9389
 7086SOL     OW22156   3.311   3.837   5.881 -0.0984  0.0535  0.1583
 7086SOL    HW122157   3.256   3.853   5.800 -0.1627  1.4461  0.4560
 7086SOL    HW222158   3.348   3.744   5.879 -1.7062 -0.5969 -0.4856
 7087SOL     OW22159   0.405   5.334   4.292  0.1378  0.0099 -0.1221
 7087SOL    HW122160   0.427   5.255   4.233 -0.3970 -1.3338  1.3986
 7087SOL    HW222161   0.416   5.307   4.388 -0.1517  1.7886  0.4322
 7088SOL     OW22162   4.886   5.332   0.021 -0.2236  0.0916 -0.6450
 7088SOL    HW122163   4.834   5.260   0.066 -0.6617  0.8956  0.1658
 7088SOL    HW222164   4.891   5.413   0.080  1.0536  0.4121 -1.1334
 7089SOL     OW22165   5.799   1.620   1.621 -0.2816 -0.1940  0.1464
 7089SOL    HW122166   5.763   1.556   1.553  0.2354 -1.3320  0.9183
 7089SOL    HW222167   5.784   1.584   1.713  1.5736 -0.0648  0.5411
 7090SOL     OW22168   0.950   5.944   0.756  0.1908  0.5046 -0.0554
 7090SOL    HW122169   1.017   5.870   0.768  0.7030  0.3413 -3.0737
 7090SOL    HW222170   0.862   5.904   0.729 -1.1168  0.7592  3.3347
 7091SOL     OW22171   1.873   4.824   3.135  0.5249  0.8621  0.1525
 7091SOL    HW122172   1.854   4.748   3.073 -3.3674  1.0138  0.8724
 7091SOL    HW222173   1.909   4.901   3.083  1.7812 -0.4776 -1.0639
 7092SOL     OW22174   6.141   5.336   1.956  0.1212  0.1663  0.0311
 7092SOL    HW122175   6.071   5.266   1.968  0.3951 -0.1448 -0.1665
 7092SOL    HW222176   6.099   5.418   1.917 -0.6333  0.9232  2.2630
 7093SOL     OW22177   3.434   3.172   4.198 -0.1437 -0.1470  0.2983
 7093SOL    HW122178   3.338   3.199   4.210 -0.3843 -0.8186 -0.0172
 7093SOL    HW222179   3.446   3.078   4.231  0.4496 -0.0096  0.4901
 7094SOL     OW22180   6.409   4.258   3.929  0.1093  0.4569 -0.2125
 7094SOL    HW122181   6.382   4.197   4.002 -2.0181  1.3575 -0.1561
 7094SOL    HW222182   6.365   4.230   3.843  0.7900  0.6843 -0.6459
 7095SOL     OW22183   0.357   1.687   2.125  0.1962 -0.0084  0.2416
 7095SOL    HW122184   0.259   1.705   2.122  0.2614  0.2612 -1.9462
 7095SOL    HW222185   0.394   1.717   2.213 -1.2863  2.0596  0.2357
 7096SOL     OW22186   2.173   0.642   3.264  0.4698 -0.3387  0.6422
 7096SOL    HW122187   2.126   0.724   3.296 -1.1054 -1.3270  1.0058
 7096SOL    HW222188   2.263   0.666   3.227 -0.5966  1.7515 -0.7675
 7097SOL     OW22189   0.064   1.975   6.753 -0.2303 -0.0369 -0.0406
 7097SOL    HW122190   0.065   2.058   6.809  0.2826  0.2401 -0.4493
 7097SOL    HW222191   0.152   1.928   6.762 -0.4672 -0.4658  0.0761
 7098SOL     OW22192   4.684   6.952   4.535 -0.0662 -0.5013 -0.4287
 7098SOL    HW122193   4.618   6.893   4.582  1.2213 -1.7461 -0.1008
 7098SOL    HW222194   4.776   6.927   4.564  0.5678  1.1409 -0.9410
 7099SOL     OW22195   0.155   5.885   3.530 -0.0355 -0.3684  0.4429
 7099SOL    HW122196   0.063   5.846   3.518  0.1107 -0.1305 -1.7407
 7099SOL    HW222197   0.154   5.982   3.507  0.9104 -0.5306 -0.3427
 7100SOL     OW22198   6.910   3.712   2.710  0.1223 -0.9866 -0.1355
 7100SOL    HW122199   6.956   3.642   2.764 -0.5368 -1.2221  0.1374
 7100SOL    HW222200   6.830   3.745   2.760  0.7553  0.3934 -0.0004
 7101SOL     OW22201   5.276   0.762   2.877  0.1451  0.0960 -0.6542
 7101SOL    HW122202   5.206   0.771   2.948 -0.6594  2.1969 -1.6160
 7101SOL    HW222203   5.327   0.677   2.891 -0.5020  0.0422  1.9195
 7102SOL     OW22204   1.168   2.266   3.167 -0.6045  0.6772  0.2126
 7102SOL    HW122205   1.160   2.171   3.136 -0.8110  1.5635 -2.6956
 7102SOL    HW222206   1.103   2.281   3.242 -0.9479 -1.3257  0.3851
 7103SOL     OW22207   0.976   2.612   4.819  0.1398  0.2394 -0.3616
 7103SOL    HW122208   1.062   2.664   4.813  0.3957 -0.1014  0.2164
 7103SOL    HW222209   0.926   2.621   4.734  1.1498 -0.2276 -1.0346
 7104SOL     OW22210   5.714   1.505   1.857  0.4015 -0.0557  0.0472
 7104SOL    HW122211   5.641   1.439   1.838  0.0877  0.1285  0.5954
 7104SOL    HW222212   5.697   1.549   1.945  1.5510 -0.5320  0.5292
 7105SOL     OW22213   0.197   1.168   3.919 -0.1375 -0.3060  0.1486
 7105SOL    HW122214   0.231   1.258   3.891 -0.6380  0.0751  0.7350
 7105SOL    HW222215   0.274   1.110   3.946  0.3877 -0.7547 -2.1122
 7106SOL     OW22216   3.676   3.710   4.096  0.6619  0.3435 -0.4638
 7106SOL    HW122217   3.581   3.689   4.114  0.6082  0.8945 -0.0778
 7106SOL    HW222218   3.707   3.782   4.158  0.0289  3.4084 -3.3582
 7107SOL     OW22219   6.167   5.657   6.883 -0.2649 -0.1165  0.0968
 7107SOL    HW122220   6.126   5.738   6.841 -0.9402 -1.1088 -1.2084
 7107SOL    HW222221   6.258   5.681   6.917  0.5347  0.6642 -2.3554
 7108SOL     OW22222   2.026   2.393   1.713  0.1164  0.3355  0.5188
 7108SOL    HW122223   1.980   2.305   1.700 -1.5320  1.4869 -2.3682
 7108SOL    HW222224   2.098   2.404   1.645  0.4787  1.1223  1.0141
 7109SOL     OW22225   4.913   5.641   4.178  0.5883  0.0078  0.1340
 7109SOL    HW122226   4.916   5.692   4.092 -0.2090 -0.8105 -0.3935
 7109SOL    HW222227   4.982   5.677   4.240  1.2531  0.5452 -0.8877
 7110SOL     OW22228   4.895   2.100   5.523  0.6473 -0.3042 -0.2853
 7110SOL    HW122229   4.860   2.085   5.616  4.0077 -0.0710  1.1842
 7110SOL    HW222230   4.875   2.021   5.466  2.7773 -2.8799  2.1890
 7111SOL     OW22231   3.882   5.548   1.194  0.4857  0.5289 -0.7741
 7111SOL    HW122232   3.923   5.460   1.171  2.4493  1.1681  0.1172
 7111SOL    HW222233   3.877   5.557   1.293  0.5960  1.5457 -0.8536
 7112SOL     OW22234   6.975   4.938   4.978 -0.0589 -0.0471  0.1277
 7112SOL    HW122235   6.881   4.944   5.011 -0.5439 -0.3696 -1.1338
 7112SOL    HW222236   7.027   5.017   5.010 -1.7836  2.2221 -2.2238
 7113SOL     OW22237   6.869   1.639   6.635  0.8064 -0.3406  0.5887
 7113SOL    HW122238   6.894   1.669   6.728 -0.6237 -2.0409  1.5834
 7113SOL    HW222239   6.827   1.715   6.586  0.5971  0.3171  1.7416
 7114SOL     OW22240   1.309   2.754   0.999  0.2771 -0.5820  0.3499
 7114SOL    HW122241   1.213   2.748   1.027  0.0798  1.1082  0.1581
 7114SOL    HW222242   1.354   2.666   1.014 -0.7466 -0.8152  2.4891
 7115SOL     OW22243   5.510   1.681   0.067  0.0861  0.1118 -0.0407
 7115SOL    HW122244   5.539   1.708  -0.025  0.5864  1.0370  0.3621
 7115SOL    HW222245   5.419   1.718   0.085  0.6646  1.4123  0.4143
 7116SOL     OW22246   6.432   2.749   5.154 -0.2059 -0.4978 -0.6413
 7116SOL    HW122247   6.334   2.763   5.168 -0.2736 -0.8395 -0.7523
 7116SOL    HW222248   6.484   2.816   5.207 -0.5073 -0.0374 -0.9292
 7117SOL     OW22249   0.148   1.576   1.943 -0.4960 -0.1740 -0.6406
 7117SOL    HW122250   0.219   1.589   1.874 -1.0256 -0.1437 -1.1894
 7117SOL    HW222251   0.062   1.549   1.898 -1.4990  2.1125 -0.2623
 7118SOL     OW22252   0.648   2.258   5.545 -0.1089 -0.2903 -0.1458
 7118SOL    HW122253   0.661   2.342   5.597 -0.4627 -0.5973  0.4425
 7118SOL    HW222254   0.736   2.215   5.527  0.0797  0.2276 -0.4977
 7119SOL     OW22255   3.874   1.772   0.608  0.2886  0.3305  0.4015
 7119SOL    HW122256   3.808   1.839   0.573  0.4611  0.5508  0.4940
 7119SOL    HW222257   3.845   1.741   0.699  0.3333  0.4606  0.4610
 7120SOL     OW22258   5.736   0.032   1.841 -0.4449  0.2207  0.4244
 7120SOL    HW122259   5.715   0.060   1.748 -1.9377  3.3443  1.5714
 7120SOL    HW222260   5.660  -0.020   1.879 -1.3721  1.9138  0.9592
 7121SOL     OW22261   6.373   6.729   6.788 -0.5961 -0.0392  0.4306
 7121SOL    HW122262   6.465   6.738   6.828 -0.2142 -0.6497 -0.2723
 7121SOL    HW222263   6.343   6.634   6.796 -0.9440  0.0481  0.1767
 7122SOL     OW22264   0.721   5.672   6.771 -0.6278 -0.7040 -0.2694
 7122SOL    HW122265   0.718   5.572   6.770  1.2795 -0.8038 -0.1948
 7122SOL    HW222266   0.652   5.707   6.834  2.0153 -2.2519  3.8605
 7123SOL     OW22267   4.409   2.074   1.034 -0.0626  0.3163  0.2706
 7123SOL    HW122268   4.404   2.096   1.132  0.1311  2.2647 -0.1158
 7123SOL    HW222269   4.320   2.093   0.991 -0.4296 -1.4102  0.1977
 7124SOL     OW22270   2.101   0.714   0.880  0.1146 -0.0596 -0.3726
 7124SOL    HW122271   2.078   0.669   0.794  3.3587 -2.6335 -0.1059
 7124SOL    HW222272   2.045   0.678   0.954 -0.2625 -0.4626 -0.8547
 7125SOL     OW22273   0.597   1.461   3.336 -0.2712  0.4001 -0.8420
 7125SOL    HW122274   0.601   1.457   3.436 -0.6829  0.1751 -0.8321
 7125SOL    HW222275   0.512   1.506   3.308 -1.0325 -1.1391 -1.1056
 7126SOL     OW22276   0.004   6.721   2.962  0.2228 -0.3315 -0.2612
 7126SOL    HW122277   0.043   6.692   2.875 -1.4038 -0.2833 -1.0465
 7126SOL    HW222278   0.074   6.716   3.033  0.8353 -3.2682 -0.9315
 7127SOL     OW22279   6.615   6.293   6.067  0.1067  0.5364 -0.3823
 7127SOL    HW122280   6.691   6.313   6.005 -1.2662  1.7175 -1.7406
 7127SOL    HW222281   6.608   6.365   6.136 -1.2427  1.7337 -1.7321
 7128SOL     OW22282   5.392   4.639   6.487  0.7551  0.0908  0.1622
 7128SOL    HW122283   5.330   4.602   6.557 -0.3272  0.0552 -0.7960
 7128SOL    HW222284   5.390   4.580   6.406  0.5911  1.1273 -0.5993
 7129SOL     OW22285   0.382   3.709   1.783 -0.1247  0.4782 -0.3904
 7129SOL    HW122286   0.329   3.779   1.736 -1.3539 -0.5264 -0.5519
 7129SOL    HW222287   0.470   3.696   1.737 -1.2265 -0.3764 -2.3366
 7130SOL     OW22288   1.251   5.444   2.388 -0.2078  0.1736  0.2142
 7130SOL    HW122289   1.314   5.440   2.466  1.5586 -0.7208 -1.2069
 7130SOL    HW222290   1.249   5.537   2.352  1.2059 -0.0238 -0.4222
 7131SOL     OW22291   4.741   7.017   4.231  0.0061 -0.7755 -0.1387
 7131SOL    HW122292   4.658   6.968   4.261  1.5125 -1.9064  2.5549
 7131SOL    HW222293   4.753   7.099   4.287 -1.0367  1.4170 -2.8522
 7132SOL     OW22294   2.619   5.479   1.561 -0.4841 -0.2229 -0.2351
 7132SOL    HW122295   2.713   5.446   1.551 -0.0234  0.7383  0.8082
 7132SOL    HW222296   2.590   5.522   1.475  0.2566  0.0692 -0.3486
 7133SOL     OW22297   6.352   4.952   4.112  0.0817 -0.0787 -0.1782
 7133SOL    HW122298   6.451   4.940   4.119  0.0735 -1.4915 -1.8106
 7133SOL    HW222299   6.328   5.047   4.131  1.3614 -0.3153  3.4414
 7134SOL     OW22300   3.911   5.212   1.975  0.4621  0.1893  0.1240
 7134SOL    HW122301   3.929   5.304   1.940  0.7756  0.3055  0.5897
 7134SOL    HW222302   3.967   5.195   2.056  1.5599 -0.9592 -0.8108
 7135SOL     OW22303   5.121   1.343   1.750  0.0925 -0.6026 -0.5017
 7135SOL    HW122304   5.139   1.272   1.818  0.9695  1.0829  1.1301
 7135SOL    HW222305   5.171   1.321   1.666 -1.5005 -3.0423 -0.9171
 7136SOL     OW22306   1.504   1.355   4.034  0.5843  0.1974  0.1793
 7136SOL    HW122307   1.432   1.349   4.103 -1.3317  2.6574 -1.4221
 7136SOL    HW222308   1.545   1.447   4.037  1.7121 -0.2483 -0.7873
 7137SOL     OW22309   1.404   6.792   1.110 -0.0787  0.6903 -0.0437
 7137SOL    HW122310   1.305   6.805   1.119 -0.5224 -1.2376 -1.4051
 7137SOL    HW222311   1.436   6.839   1.028  0.0921  1.0339  0.2154
 7138SOL     OW22312   1.388   0.829   0.005 -0.8743 -0.0254 -0.1620
 7138SOL    HW122313   1.327   0.902   0.037 -1.4584 -0.4245 -0.3498
 7138SOL    HW222314   1.404   0.765   0.080 -0.6261  0.1143 -0.0936
 7139SOL     OW22315   6.378   5.396   6.983  0.0168  0.7842 -0.0210
 7139SOL    HW122316   6.445   5.330   7.015 -0.1039  0.7446  0.1529
 7139SOL    HW222317   6.417   5.451   6.910  0.4240  1.1338  0.4543
 7140SOL     OW22318   6.359   1.351   5.074 -0.2093  0.5613 -0.5234
 7140SOL    HW122319   6.277   1.295   5.085  0.8603 -1.2358 -1.1944
 7140SOL    HW222320   6.418   1.311   5.004  0.9538  2.1689 -0.5373
 7141SOL     OW22321   3.226   1.520   3.470 -0.3485 -0.7368  0.3610
 7141SOL    HW122322   3.221   1.570   3.556 -2.2000  0.7619 -0.5617
 7141SOL    HW222323   3.321   1.494   3.452  0.3946  0.8274  1.7869
 7142SOL     OW22324   1.953   1.497   6.109 -0.3438 -0.2187 -0.4054
 7142SOL    HW122325   1.879   1.430   6.106 -1.1780  0.6974 -1.5878
 7142SOL    HW222326   1.947   1.550   6.193 -2.0618  0.9028 -1.1690
 7143SOL     OW22327   4.418   1.817   5.036 -0.3821 -0.1941  0.6274
 7143SOL    HW122328   4.468   1.864   5.109 -1.4011  1.2024  0.4741
 7143SOL    HW222329   4.373   1.885   4.977  0.3586 -1.2844 -1.2787
 7144SOL     OW22330   3.550   1.826   3.606 -0.9088  0.0021  0.2691
 7144SOL    HW122331   3.454   1.844   3.630 -0.9709 -0.1104  0.1052
 7144SOL    HW222332   3.592   1.910   3.574 -0.4361  0.4959  2.0515
 7145SOL     OW22333   3.578   6.927   2.797 -0.2112  0.0855  0.0215
 7145SOL    HW122334   3.583   6.931   2.897  1.8660  0.9987 -0.0731
 7145SOL    HW222335   3.537   6.840   2.770 -0.2824 -0.4352  1.6565
 7146SOL     OW22336   6.190   3.331   6.098 -0.2243  0.1951 -0.4953
 7146SOL    HW122337   6.118   3.289   6.154  0.0994  0.3326  0.0290
 7146SOL    HW222338   6.257   3.376   6.157  0.9760 -0.9888 -0.8920
 7147SOL     OW22339   1.931   3.853   2.839  0.0555 -0.0085 -0.0029
 7147SOL    HW122340   1.907   3.858   2.936  0.3278  1.7047 -0.0003
 7147SOL    HW222341   2.021   3.893   2.825  0.3127 -0.8836 -0.8716
 7148SOL     OW22342   5.978   3.120   6.173 -0.2842  0.0239 -0.2352
 7148SOL    HW122343   5.901   3.144   6.232 -0.9472 -0.2509 -0.9613
 7148SOL    HW222344   5.943   3.083   6.087  0.6644 -1.8865  0.1471
 7149SOL     OW22345   0.738   1.791   4.789  0.1013  0.1075 -0.1311
 7149SOL    HW122346   0.668   1.722   4.770  0.2984 -1.2154  3.2940
 7149SOL    HW222347   0.694   1.875   4.821  0.0076  0.4314 -1.0705
 7150SOL     OW22348   2.425   1.501   1.396  0.0678 -0.0765 -0.4441
 7150SOL    HW122349   2.440   1.431   1.465  0.5924 -1.4587 -1.8904
 7150SOL    HW222350   2.377   1.579   1.437  0.4817 -0.7706  1.4730
 7151SOL     OW22351   5.596   5.892   4.276 -0.1187  0.8267  0.3765
 7151SOL    HW122352   5.674   5.831   4.264  0.1437  1.0292  1.0251
 7151SOL    HW222353   5.620   5.966   4.339 -0.7311  1.0708  0.3335
 7152SOL     OW22354   0.202   0.178   0.039 -0.1641  0.2997 -0.6827
 7152SOL    HW122355   0.162   0.190   0.130 -0.6678 -1.8184 -0.5688
 7152SOL    HW222356   0.134   0.199  -0.031 -0.4952 -0.2123 -0.5216
 7153SOL     OW22357   3.493   5.756   0.664  0.0143  0.8226 -0.2108
 7153SOL    HW122358   3.432   5.720   0.594 -0.1268  0.4783  0.0868
 7153SOL    HW222359   3.583   5.713   0.655 -0.9392 -1.9822  2.0090
 7154SOL     OW22360   5.160   6.788   4.244 -0.5002  0.0816  0.2923
 7154SOL    HW122361   5.152   6.812   4.341 -0.7991  1.2000 -0.0042
 7154SOL    HW222362   5.205   6.699   4.236 -0.2804  0.0751  1.4481
 7155SOL     OW22363   2.389   2.462   1.502 -0.1884 -0.0146  0.0620
 7155SOL    HW122364   2.380   2.363   1.496 -0.7998 -0.0331  0.9644
 7155SOL    HW222365   2.298   2.504   1.503  0.0366  0.4818  0.5892
 7156SOL     OW22366   4.784   5.972   5.610 -0.1181 -0.3240 -0.3946
 7156SOL    HW122367   4.688   5.983   5.585 -0.1278  1.4902  0.2718
 7156SOL    HW222368   4.806   6.034   5.685  1.5500 -0.7944 -0.4569
 7157SOL     OW22369   5.084   5.265   2.980  0.1126  0.2248 -0.0420
 7157SOL    HW122370   5.129   5.353   2.967 -0.7982  0.5954 -0.8020
 7157SOL    HW222371   5.057   5.228   2.891  1.1335 -1.1910  0.1959
 7158SOL     OW22372   0.396   4.009   1.893  0.8313 -0.0257 -0.0646
 7158SOL    HW122373   0.381   4.104   1.920  0.9822  0.1050 -0.4270
 7158SOL    HW222374   0.470   4.005   1.826 -0.0753 -0.2396 -1.0845
 7159SOL     OW22375   2.497   4.919   2.726 -0.0382 -0.0013 -0.0138
 7159SOL    HW122376   2.421   4.957   2.779 -0.3486 -1.4585  0.6450
 7159SOL    HW222377   2.503   4.965   2.638  0.3476  2.3583  1.1549
 7160SOL     OW22378   4.836   2.674   1.661 -0.2817  0.0255 -0.6590
 7160SOL    HW122379   4.754   2.728   1.680 -0.1158  0.0853 -0.1010
 7160SOL    HW222380   4.913   2.735   1.640 -0.4050 -0.0336 -1.3029
 7161SOL     OW22381   3.310   0.581   0.830  0.0820  0.0914  0.1474
 7161SOL    HW122382   3.405   0.603   0.807  0.2815 -0.9252 -0.0218
 7161SOL    HW222383   3.251   0.600   0.752  0.3621 -0.6841 -0.2594
 7162SOL     OW22384   0.533   6.498   1.501 -0.0614 -0.1223  0.1250
 7162SOL    HW122385   0.559   6.408   1.466  0.6870  0.7746 -1.7573
 7162SOL    HW222386   0.524   6.562   1.425 -1.4865  1.1925  1.3392
 7163SOL     OW22387   4.897   0.831   4.956 -0.7600  0.4878  1.0403
 7163SOL    HW122388   4.877   0.764   5.027 -1.6150  1.6235  1.9121
 7163SOL    HW222389   4.821   0.896   4.949 -0.3667  0.8149 -0.4273
 7164SOL     OW22390   4.522   0.773   3.713  0.0693  0.6940  0.3788
 7164SOL    HW122391   4.468   0.778   3.630  1.7874 -0.6237 -0.8919
 7164SOL    HW222392   4.461   0.761   3.792 -1.4854 -2.2048 -1.1074
 7165SOL     OW22393   0.936   4.412   6.103 -0.4096 -0.3765 -0.3346
 7165SOL    HW122394   0.860   4.439   6.044  0.1606 -2.6738 -2.2863
 7165SOL    HW222395   1.015   4.388   6.047  1.2398  0.3571  1.5694
 7166SOL     OW22396   2.705   2.611   0.978  0.0282  0.2642 -0.2875
 7166SOL    HW122397   2.622   2.602   0.924 -0.2855  0.9265  0.0807
 7166SOL    HW222398   2.681   2.633   1.073  0.6354  0.9693 -0.2908
 7167SOL     OW22399   5.216   5.403   6.945  0.1407 -0.0354  0.1582
 7167SOL    HW122400   5.295   5.423   7.004  1.0102 -2.2861 -0.1567
 7167SOL    HW222401   5.136   5.383   7.002  0.3110  0.2758  0.5161
 7168SOL     OW22402   3.488   0.635   5.728 -0.3852 -0.1682 -0.2636
 7168SOL    HW122403   3.503   0.549   5.680  0.0685  0.2962 -0.9620
 7168SOL    HW222404   3.401   0.631   5.778 -0.6681 -0.7993 -0.8017
 7169SOL     OW22405   5.837   3.334   4.434 -0.3299 -0.0628 -0.0889
 7169SOL    HW122406   5.774   3.336   4.356  0.5087 -1.0095 -0.8221
 7169SOL    HW222407   5.844   3.425   4.474  0.4390  0.8496 -2.1443
 7170SOL     OW22408   6.743   3.466   1.445 -0.2095  0.6086 -0.4502
 7170SOL    HW122409   6.676   3.435   1.513  0.2488  2.6917  1.0215
 7170SOL    HW222410   6.730   3.413   1.361 -1.0525 -1.8079  1.0693
 7171SOL     OW22411   4.670   5.282   6.507 -0.3769  0.6450 -0.4126
 7171SOL    HW122412   4.571   5.286   6.491  0.0246  1.9631 -3.1749
 7171SOL    HW222413   4.709   5.374   6.501  1.2413 -0.0413 -1.1567
 7172SOL     OW22414   1.865   1.001   4.677 -0.0416 -0.0175 -0.4051
 7172SOL    HW122415   1.878   0.971   4.582 -1.4340 -0.4348 -0.4790
 7172SOL    HW222416   1.859   1.101   4.680  5.6539  0.6626 -0.0427
 7173SOL     OW22417   1.657   0.127   6.135  0.1167 -0.1599  0.8617
 7173SOL    HW122418   1.610   0.164   6.055  1.4564 -2.7650 -1.2913
 7173SOL    HW222419   1.595   0.131   6.214 -1.3537  2.2657 -0.2923
 7174SOL     OW22420   0.180   2.359   5.542 -0.6377  0.8677 -0.2254
 7174SOL    HW122421   0.187   2.448   5.587  0.5116  0.9592 -0.5450
 7174SOL    HW222422   0.264   2.307   5.559 -0.4212  0.6792 -1.7792
 7175SOL     OW22423   3.367   2.578   5.695 -0.4961 -0.7259  0.2992
 7175SOL    HW122424   3.315   2.512   5.750  1.7542 -2.1535  0.8572
 7175SOL    HW222425   3.339   2.571   5.599 -2.4304 -0.2727  0.7853
 7176SOL     OW22426   5.528   3.996   5.132  0.4935 -0.1185  0.3519
 7176SOL    HW122427   5.563   4.084   5.164 -1.3346  0.1198  1.8839
 7176SOL    HW222428   5.532   3.992   5.032 -0.5252  2.2228  0.1629
 7177SOL     OW22429   6.341   6.967   0.656 -0.5295 -0.0753 -0.0967
 7177SOL    HW122430   6.400   6.902   0.704  0.0081  0.4957  0.0217
 7177SOL    HW222431   6.366   6.970   0.560 -1.3205 -0.8945 -0.3417
 7178SOL     OW22432   4.181   6.015   3.972 -0.1979 -0.2060 -0.4457
 7178SOL    HW122433   4.222   6.088   3.917  1.6271 -2.4497 -2.2345
 7178SOL    HW222434   4.190   6.039   4.069 -3.0206  3.6106 -0.8776
 7179SOL     OW22435   1.837   1.175   2.002 -0.1498  0.0418  0.7247
 7179SOL    HW122436   1.752   1.171   1.949  0.7411  0.9422 -0.8334
 7179SOL    HW222437   1.816   1.197   2.097 -1.5290  3.3910 -0.2128
 7180SOL     OW22438   3.668   1.205   6.837  0.1529  0.0558 -0.6343
 7180SOL    HW122439   3.737   1.180   6.904 -1.2933  0.5693  1.1352
 7180SOL    HW222440   3.671   1.303   6.819  1.2115 -0.2185 -2.1819
 7181SOL     OW22441   6.720   1.905   2.557 -0.0350  0.3488  0.1216
 7181SOL    HW122442   6.681   1.935   2.470  2.0415  0.2950 -0.8831
 7181SOL    HW222443   6.670   1.825   2.589 -0.6220  0.1480 -1.1996
 7182SOL     OW22444   4.472   2.877   5.703  0.5387 -0.0953 -0.5207
 7182SOL    HW122445   4.454   2.972   5.678  0.0733 -0.5525 -2.0097
 7182SOL    HW222446   4.570   2.866   5.723  0.2232  1.2233  2.2749
 7183SOL     OW22447   3.887   1.859   5.390  0.3988  0.0492  0.4696
 7183SOL    HW122448   3.972   1.814   5.363  0.6777  0.5607  0.4823
 7183SOL    HW222449   3.879   1.860   5.489  0.4649  0.1590  0.4741
 7184SOL     OW22450   1.422   4.553   3.094 -0.0669  0.0542  0.0237
 7184SOL    HW122451   1.396   4.466   3.052 -0.7808 -0.4079  1.3342
 7184SOL    HW222452   1.340   4.604   3.118  0.3497  1.4359 -1.3533
 7185SOL     OW22453   2.656   4.714   6.812  0.1260 -0.8092  0.2797
 7185SOL    HW122454   2.632   4.775   6.886 -1.6402 -0.6260 -0.3984
 7185SOL    HW222455   2.721   4.644   6.845  0.9129  0.4306  1.4471
 7186SOL     OW22456   1.524   6.178   6.991  0.3473  0.1857 -0.2811
 7186SOL    HW122457   1.591   6.252   6.979 -0.4148  0.8513 -0.6188
 7186SOL    HW222458   1.518   6.126   6.906  1.0423 -0.4110  0.0289
 7187SOL     OW22459   1.868   4.407   3.156  0.1217  0.5967 -0.0620
 7187SOL    HW122460   1.942   4.346   3.183 -1.6338 -0.8528  1.7435
 7187SOL    HW222461   1.821   4.368   3.077  2.2417  2.4103 -2.3969
 7188SOL     OW22462   4.641   3.780   5.311 -0.1845  0.2122  0.0949
 7188SOL    HW122463   4.601   3.711   5.371 -0.2038  1.1908  1.2453
 7188SOL    HW222464   4.676   3.736   5.228 -0.1189 -1.1871  0.8342
 7189SOL     OW22465   4.405   2.436   2.559 -0.8204  0.0276 -0.0712
 7189SOL    HW122466   4.458   2.509   2.517  0.0496 -0.7667 -0.3973
 7189SOL    HW222467   4.350   2.390   2.490  0.8052 -1.4443 -0.4595
 7190SOL     OW22468   5.604   5.261   5.893 -0.2617  0.0146 -1.1947
 7190SOL    HW122469   5.681   5.310   5.936 -1.7246  1.9624 -0.6646
 7190SOL    HW222470   5.625   5.247   5.796  0.9089  0.2118 -0.9940
 7191SOL     OW22471   0.976   2.034   5.790 -0.1424  0.0599 -0.0639
 7191SOL    HW122472   0.984   1.956   5.851 -0.9007  0.1684  0.1725
 7191SOL    HW222473   0.944   2.003   5.700  2.1519 -0.2869 -0.8311
 7192SOL     OW22474   1.892   1.240   3.377  0.0251  0.4056 -0.1105
 7192SOL    HW122475   1.863   1.310   3.312 -1.5568 -0.5303 -0.4685
 7192SOL    HW222476   1.879   1.149   3.337  2.0166 -0.1276  0.3484
 7193SOL     OW22477   3.268   4.868   4.006 -0.6711 -0.1233  0.1536
 7193SOL    HW122478   3.204   4.793   3.990 -2.6316  1.3132  0.8398
 7193SOL    HW222479   3.252   4.939   3.937 -0.1419  0.4719  0.6411
 7194SOL     OW22480   0.708   3.324   3.540  0.6301 -0.4610 -0.5560
 7194SOL    HW122481   0.767   3.243   3.546  0.5120 -0.5680 -0.8306
 7194SOL    HW222482   0.765   3.407   3.548  0.8646 -0.5597 -1.1854
 7195SOL     OW22483   0.678   0.451   4.924  0.5551 -0.2997  0.0598
 7195SOL    HW122484   0.676   0.468   5.022 -0.8406 -1.0354  0.1905
 7195SOL    HW222485   0.767   0.416   4.898  1.1527  0.5130  0.9457
 7196SOL     OW22486   4.298   0.407   3.720 -0.2209 -0.3986  0.0307
 7196SOL    HW122487   4.255   0.364   3.641 -1.4232 -0.2826  0.5948
 7196SOL    HW222488   4.379   0.355   3.747 -0.8894 -1.5406 -0.1165
 7197SOL     OW22489   5.465   0.019   6.975 -0.1516  0.2590  0.3091
 7197SOL    HW122490   5.547   0.074   6.990  0.6509 -0.5762 -0.8322
 7197SOL    HW222491   5.471  -0.026   6.886 -0.7403 -1.7136  1.2150
 7198SOL     OW22492   1.468   1.579   5.379 -0.0233  0.2484 -0.3142
 7198SOL    HW122493   1.506   1.487   5.381 -1.1423 -0.1993  0.5217
 7198SOL    HW222494   1.500   1.630   5.459 -0.7968  0.0143  0.1527
 7199SOL     OW22495   4.681   0.907   5.265  0.3213 -0.8306 -0.2456
 7199SOL    HW122496   4.591   0.919   5.307 -0.0031 -1.4249 -0.7545
 7199SOL    HW222497   4.749   0.890   5.337  0.1830  0.4246  0.2082
 7200SOL     OW22498   4.003   0.182   2.713 -0.4021  0.1799 -0.0294
 7200SOL    HW122499   3.918   0.131   2.696 -1.5094  0.8743  2.8681
 7200SOL    HW222500   4.077   0.117   2.731 -1.1907 -0.4840  0.9997
 7201SOL     OW22501   6.719   6.816   2.148  0.2296 -0.3115  0.1922
 7201SOL    HW122502   6.782   6.811   2.226 -0.3189  1.1442  0.7673
 7201SOL    HW222503   6.692   6.723   2.121  1.9758 -0.9244  0.4398
 7202SOL     OW22504   1.094   3.864   1.513  0.1091  0.2875 -0.0898
 7202SOL    HW122505   1.054   3.789   1.566  2.0012 -0.1551  0.8081
 7202SOL    HW222506   1.113   3.832   1.420  2.0638 -0.8556  0.6241
 7203SOL     OW22507   5.353   6.362   4.498 -0.4094  0.0869 -0.4533
 7203SOL    HW122508   5.322   6.276   4.458 -2.2546 -0.4944  2.0073
 7203SOL    HW222509   5.428   6.344   4.562 -0.2812  0.4318 -0.5014
 7204SOL     OW22510   5.562   6.656   3.764 -0.1376  0.0796  0.6153
 7204SOL    HW122511   5.565   6.609   3.852  2.5569 -0.0553  0.5328
 7204SOL    HW222512   5.550   6.588   3.691  2.6657 -0.5218  0.5824
 7205SOL     OW22513   3.328   6.819   3.966  0.2836  0.0982 -0.7822
 7205SOL    HW122514   3.287   6.795   3.878 -0.7358 -1.9940  0.1956
 7205SOL    HW222515   3.303   6.751   4.034  2.7954  0.4891  0.6599
 7206SOL     OW22516   6.624   6.050   4.821  0.2068 -0.2253 -0.9033
 7206SOL    HW122517   6.646   5.970   4.766 -0.2987 -1.0134  0.0090
 7206SOL    HW222518   6.703   6.112   4.823  0.9456 -1.1557 -0.8366
 7207SOL     OW22519   6.078   4.360   2.680 -0.0935  0.8592  0.1017
 7207SOL    HW122520   6.163   4.315   2.651 -0.4323  0.4783 -0.3186
 7207SOL    HW222521   6.098   4.426   2.752  0.4634  0.2676  0.5082
 7208SOL     OW22522   5.258   6.245   1.225 -0.2621  0.0616  0.1613
 7208SOL    HW122523   5.340   6.236   1.283  0.2425  1.0057 -0.3906
 7208SOL    HW222524   5.274   6.315   1.156 -0.6469 -1.4270 -1.4917
 7209SOL     OW22525   5.158   1.916   5.682  0.3574 -0.5536  0.4054
 7209SOL    HW122526   5.177   2.013   5.695 -0.3674 -0.4406  0.6771
 7209SOL    HW222527   5.127   1.877   5.769  0.5771 -1.0149  0.2779
 7210SOL     OW22528   6.437   5.129   2.010 -0.0063  0.3096 -0.2970
 7210SOL    HW122529   6.354   5.174   1.978 -0.9610 -0.0843  1.5445
 7210SOL    HW222530   6.473   5.177   2.089  0.4790 -0.6060  0.0555
 7211SOL     OW22531   0.549   6.293   1.137 -0.4544  0.2360 -0.2724
 7211SOL    HW122532   0.587   6.385   1.148  0.6880 -0.4618  2.4492
 7211SOL    HW222533   0.589   6.249   1.056  2.7659  0.4450  1.0771
 7212SOL     OW22534   3.198   3.669   4.774  0.0964 -0.1373 -0.1112
 7212SOL    HW122535   3.286   3.686   4.818  0.0749  0.4568 -0.2912
 7212SOL    HW222536   3.196   3.575   4.740  0.6768 -0.1448 -0.1408
 7213SOL     OW22537   6.825   1.147   5.082  0.2223  0.2466  1.0096
 7213SOL    HW122538   6.923   1.141   5.067  0.1715  1.3107  0.0586
 7213SOL    HW222539   6.786   1.055   5.088  1.0522 -0.2251 -0.2790
 7214SOL     OW22540   5.629   6.980   4.654  0.6503 -0.0246  0.2860
 7214SOL    HW122541   5.564   7.055   4.666  1.0100  0.3553 -0.1257
 7214SOL    HW222542   5.720   7.010   4.685  0.6795 -0.4838  0.6630
 7215SOL     OW22543   6.741   6.680   5.894  0.1276  0.2502  0.0990
 7215SOL    HW122544   6.683   6.717   5.822 -0.2321  0.4925  0.5018
 7215SOL    HW222545   6.837   6.691   5.870  0.0249  1.1599  0.0634
 7216SOL     OW22546   3.176   3.493   6.207  0.0890  0.6993  0.2584
 7216SOL    HW122547   3.244   3.563   6.187  0.2631  0.6878  0.8043
 7216SOL    HW222548   3.132   3.512   6.295  0.6667 -0.2810  0.7725
 7217SOL     OW22549   4.668   2.699   4.562 -0.1371  0.0116  0.5192
 7217SOL    HW122550   4.699   2.607   4.534 -2.6405 -0.4829 -0.8759
 7217SOL    HW222551   4.639   2.696   4.657  1.8292 -0.0402  1.1794
 7218SOL     OW22552   1.331   4.748   0.667 -0.0784 -0.5721  0.1985
 7218SOL    HW122553   1.356   4.711   0.578  1.4296  2.4651 -0.8076
 7218SOL    HW222554   1.290   4.839   0.654  0.4564  0.0802  2.6016
 7219SOL     OW22555   6.215   4.352   5.896  0.5488 -0.5384 -0.0200
 7219SOL    HW122556   6.178   4.350   5.803  0.7899 -1.8928 -0.1011
 7219SOL    HW222557   6.313   4.374   5.892  0.8104 -1.7092 -0.1809
 7220SOL     OW22558   2.949   3.526   5.473 -0.0301 -0.3352  0.6708
 7220SOL    HW122559   2.969   3.432   5.501 -0.0740  0.1074  2.2865
 7220SOL    HW222560   2.892   3.525   5.390  2.1538 -1.6803 -0.9407
 7221SOL     OW22561   2.136   3.952   1.174  0.3904 -0.0734  0.5102
 7221SOL    HW122562   2.061   3.905   1.220 -0.8207  0.6910 -0.6298
 7221SOL    HW222563   2.179   4.016   1.239  0.4973 -0.9705  1.3529
 7222SOL     OW22564   3.834   4.924   0.037  0.4735 -0.6497 -0.0085
 7222SOL    HW122565   3.835   5.024   0.038 -0.1856 -0.6272 -0.8284
 7222SOL    HW222566   3.850   4.891  -0.056 -2.0455 -1.2241 -0.3067
 7223SOL     OW22567   4.939   1.687   5.932 -0.1170  0.1199  0.4623
 7223SOL    HW122568   5.010   1.757   5.934 -1.0985  1.1865 -0.4084
 7223SOL    HW222569   4.976   1.603   5.893  0.7661  0.5162  0.4188
 7224SOL     OW22570   1.398   3.165   0.845  0.0446 -0.3602  0.6701
 7224SOL    HW122571   1.481   3.129   0.888 -0.6266 -1.8024  0.7995
 7224SOL    HW222572   1.424   3.222   0.767  1.2575  1.5648  2.3677
 7225SOL     OW22573   2.899   1.634   5.881 -0.0780  0.0246  0.1613
 7225SOL    HW122574   2.837   1.651   5.805  1.8944  2.0909 -1.1044
 7225SOL    HW222575   2.936   1.720   5.915  1.2732 -1.0353  1.5570
 7226SOL     OW22576   2.805   5.844   4.656 -0.0811 -0.3173 -0.5402
 7226SOL    HW122577   2.880   5.858   4.721 -0.3085  0.0596 -0.3530
 7226SOL    HW222578   2.794   5.746   4.638  0.0692 -0.4165 -0.1108
 7227SOL     OW22579   4.403   3.018   0.289 -0.1569 -0.5488 -0.4886
 7227SOL    HW122580   4.428   2.949   0.221 -1.6396 -2.1720  0.5327
 7227SOL    HW222581   4.304   3.034   0.286 -0.1366 -0.0694  0.7608
 7228SOL     OW22582   2.154   4.646   3.880 -0.1490 -0.0485  0.0613
 7228SOL    HW122583   2.250   4.632   3.907 -0.0374  0.6540  0.0463
 7228SOL    HW222584   2.105   4.692   3.954 -0.0899  0.9732 -0.5085
 7229SOL     OW22585   6.873   6.333   5.557  0.5227 -0.1310 -0.2373
 7229SOL    HW122586   6.798   6.271   5.536  2.1156 -2.6879  1.0998
 7229SOL    HW222587   6.868   6.359   5.653  1.7937 -1.0792  0.1133
 7230SOL     OW22588   5.354   4.435   5.138  0.2863 -0.4091  0.3330
 7230SOL    HW122589   5.405   4.404   5.058  0.9707  2.5315 -0.5056
 7230SOL    HW222590   5.414   4.486   5.199 -0.5288 -1.4867  2.1302
 7231SOL     OW22591   4.876   4.468   2.392 -0.0132  0.4118  0.5211
 7231SOL    HW122592   4.836   4.534   2.327  2.1493  0.8168 -0.4674
 7231SOL    HW222593   4.941   4.515   2.451  0.9703 -0.6802  0.3358
 7232SOL     OW22594   5.083   6.825   0.502 -0.6043  0.1823 -0.4811
 7232SOL    HW122595   5.016   6.751   0.508  1.0833 -1.3663  0.1746
 7232SOL    HW222596   5.106   6.842   0.407 -0.6871 -0.4463 -0.6156
 7233SOL     OW22597   3.223   0.245   4.649  0.2787 -0.0816 -0.2776
 7233SOL    HW122598   3.283   0.318   4.683  1.1173 -0.6521 -0.4885
 7233SOL    HW222599   3.178   0.276   4.565 -0.4870  0.7040  0.4048
 7234SOL     OW22600   2.365   1.103   5.449 -0.0472 -0.1370 -0.3315
 7234SOL    HW122601   2.285   1.154   5.417  0.8682  1.8544  0.3631
 7234SOL    HW222602   2.340   1.007   5.462 -1.7960  0.0196 -1.9393
 7235SOL     OW22603   4.991   3.710   2.341  0.7035  0.0527 -0.3845
 7235SOL    HW122604   4.957   3.652   2.268  0.5279 -1.1540  0.6274
 7235SOL    HW222605   4.952   3.680   2.428  1.6660  0.8387  0.3399
 7236SOL     OW22606   0.137   4.017   6.716 -0.4774  0.1556 -0.1743
 7236SOL    HW122607   0.226   4.042   6.755 -0.0767  1.9281 -2.0608
 7236SOL    HW222608   0.065   4.071   6.760 -0.7833 -1.6740  1.7483
 7237SOL     OW22609   0.295   6.926   5.499  0.2292 -0.1677  0.1228
 7237SOL    HW122610   0.250   6.898   5.415  1.0958  0.7570 -0.6670
 7237SOL    HW222611   0.394   6.931   5.485  0.5259 -1.2634  1.5644
 7238SOL     OW22612   4.479   6.429   1.133 -0.6345  0.3464  0.1941
 7238SOL    HW122613   4.449   6.522   1.156 -0.1770  0.5198  0.1034
 7238SOL    HW222614   4.517   6.386   1.214  2.1980  1.4288 -0.4468
 7239SOL     OW22615   0.492   0.282   1.982  0.1393 -0.3549  0.0296
 7239SOL    HW122616   0.495   0.379   2.005  1.3942 -0.6378  1.1269
 7239SOL    HW222617   0.410   0.241   2.021  0.4384 -0.0663  0.9946
 7240SOL     OW22618   2.246   1.499   6.978 -0.0484  0.1369 -0.4218
 7240SOL    HW122619   2.201   1.587   6.992 -0.4210  0.0397 -0.9718
 7240SOL    HW222620   2.339   1.503   7.013 -0.2876  0.5309  0.1818
 7241SOL     OW22621   6.114   6.141   0.183  0.3559 -0.1826 -0.1783
 7241SOL    HW122622   6.044   6.202   0.221 -0.2541 -0.1901 -1.2481
 7241SOL    HW222623   6.201   6.157   0.230  0.9345  3.4464 -2.1605
 7242SOL     OW22624   1.225   2.578   5.523 -0.0056 -0.9177  0.1505
 7242SOL    HW122625   1.322   2.597   5.513 -0.2759 -0.5482 -2.3958
 7242SOL    HW222626   1.208   2.481   5.504 -0.0179 -1.2891  1.8894
 7243SOL     OW22627   1.087   5.077   6.703  0.1115  0.6038  0.4142
 7243SOL    HW122628   1.070   5.018   6.624 -0.6534 -0.5913  1.4324
 7243SOL    HW222629   1.085   5.022   6.787  1.8548  1.6685  1.2106
 7244SOL     OW22630   5.625   0.915   2.770 -0.0091 -0.5707 -0.3885
 7244SOL    HW122631   5.701   0.966   2.730 -0.0253 -0.9565 -0.9340
 7244SOL    HW222632   5.543   0.930   2.714  0.0909 -1.5351 -0.8087
 7245SOL     OW22633   3.656   4.028   1.150 -0.6834  0.1249 -0.3824
 7245SOL    HW122634   3.733   3.984   1.197  0.9427  1.4891 -1.6641
 7245SOL    HW222635   3.604   3.959   1.101  0.3102 -0.7136 -0.3011
 7246SOL     OW22636   0.772   0.973   4.517  0.1597  0.4348 -0.1427
 7246SOL    HW122637   0.707   1.046   4.537 -1.3152 -1.1437  1.1337
 7246SOL    HW222638   0.799   0.979   4.421 -3.3532  0.1095 -1.3062
 7247SOL     OW22639   4.947   6.296   1.633  0.4949 -0.2323 -0.6853
 7247SOL    HW122640   4.873   6.358   1.660  0.2376 -1.2023  0.9445
 7247SOL    HW222641   4.989   6.330   1.549 -0.9159  1.0680 -0.9134
 7248SOL     OW22642   1.966   2.977   5.547  0.0118  0.0885 -0.2228
 7248SOL    HW122643   1.912   2.971   5.463 -0.1520  0.2748 -0.1302
 7248SOL    HW222644   2.062   2.994   5.524 -0.5332  3.7241 -0.3023
 7249SOL     OW22645   5.685   2.578   6.107  0.4412 -0.3739 -0.3191
 7249SOL    HW122646   5.708   2.676   6.106  0.0860 -0.2852 -0.2109
 7249SOL    HW222647   5.669   2.549   6.201  2.4267 -1.0049 -0.1325
 7250SOL     OW22648   0.591   2.773   4.633 -0.3549  0.2361 -0.6968
 7250SOL    HW122649   0.537   2.856   4.650 -2.2696 -1.2069  0.6987
 7250SOL    HW222650   0.565   2.703   4.699  3.1534 -0.6535 -0.0786
 7251SOL     OW22651   6.374   2.664   1.018  0.6045 -0.0045  0.2746
 7251SOL    HW122652   6.413   2.649   1.109 -1.3446  0.1312  1.1769
 7251SOL    HW222653   6.411   2.748   0.979  2.3927 -0.6972  0.3769
 7252SOL     OW22654   3.595   3.088   3.262 -0.7830  0.2009  0.2609
 7252SOL    HW122655   3.556   3.180   3.258  0.4158  0.7226  0.3725
 7252SOL    HW222656   3.595   3.047   3.171  0.8186  1.2364 -0.2433
 7253SOL     OW22657   0.183   5.313   0.509 -0.0217 -0.2147 -0.0305
 7253SOL    HW122658   0.123   5.243   0.549 -1.3931  0.3943 -0.9385
 7253SOL    HW222659   0.142   5.403   0.522  1.9146  0.5201  1.4697
 7254SOL     OW22660   3.663   4.567   1.588 -0.7537  0.2674 -0.1749
 7254SOL    HW122661   3.622   4.624   1.659 -0.1840 -0.4484  0.7444
 7254SOL    HW222662   3.664   4.471   1.618 -1.9708 -0.3119 -1.8104
 7255SOL     OW22663   5.417   1.873   3.023  0.4667 -0.3139  0.4159
 7255SOL    HW122664   5.341   1.812   3.044  0.7296  0.2389  3.3720
 7255SOL    HW222665   5.498   1.843   3.073  1.7306  0.1828 -1.2409
 7256SOL     OW22666   3.755   5.556   3.938 -0.1335  0.1871 -0.3209
 7256SOL    HW122667   3.740   5.648   3.902  2.4751 -0.2845 -2.9830
 7256SOL    HW222668   3.708   5.546   4.026 -2.3925  3.2465 -1.0491
 7257SOL     OW22669   4.933   4.060   1.614 -0.3564  0.5677  0.4039
 7257SOL    HW122670   4.975   4.080   1.526  0.3637  1.5627  0.9423
 7257SOL    HW222671   4.912   3.963   1.620 -2.3280  0.7900 -1.6538
 7258SOL     OW22672   2.218   1.457   5.877 -0.4727 -0.2390  0.2502
 7258SOL    HW122673   2.236   1.371   5.925 -1.0018 -1.0263 -0.9066
 7258SOL    HW222674   2.216   1.440   5.778 -0.1102  1.2037 -0.0257
 7259SOL     OW22675   4.643   1.096   5.490 -0.0308 -0.3274 -0.6803
 7259SOL    HW122676   4.699   1.135   5.417  0.2697 -0.8369 -0.7265
 7259SOL    HW222677   4.687   1.116   5.578 -0.0278 -0.3188 -0.6837
 7260SOL     OW22678   1.699   0.327   3.333  0.6318  0.3748  0.1783
 7260SOL    HW122679   1.722   0.233   3.360  0.9142 -0.3426 -2.3181
 7260SOL    HW222680   1.782   0.373   3.301  0.6361  1.7760  2.0597
 7261SOL     OW22681   3.834   1.450   5.828 -0.0427 -0.2310  0.6401
 7261SOL    HW122682   3.844   1.452   5.728  2.3849  0.6615  0.8128
 7261SOL    HW222683   3.804   1.360   5.857  0.5451 -0.9388 -0.8342
 7262SOL     OW22684   5.266   5.973   0.889 -0.0098 -0.0989 -0.4071
 7262SOL    HW122685   5.330   5.944   0.960 -0.2971 -0.9209 -0.4765
 7262SOL    HW222686   5.184   6.011   0.931 -0.7841 -1.8795 -0.2577
 7263SOL     OW22687   1.156   7.017   0.331  0.7850  0.1631  0.5975
 7263SOL    HW122688   1.165   7.067   0.244  1.6460  1.4432  1.3730
 7263SOL    HW222689   1.091   7.065   0.390  2.4176  1.0788  1.7650
 7264SOL     OW22690   6.125   4.879   0.366 -0.1727 -0.0019 -0.0242
 7264SOL    HW122691   6.206   4.839   0.409 -0.1871 -0.8726 -0.7848
 7264SOL    HW222692   6.126   4.978   0.380 -0.2716 -0.2495  2.1227
 7265SOL     OW22693   6.992   4.557   0.411 -0.3655  0.3438  0.1020
 7265SOL    HW122694   7.050   4.535   0.333  0.5900  0.0819  0.8685
 7265SOL    HW222695   7.030   4.636   0.460 -1.6334  1.2928 -0.3902
 7266SOL     OW22696   5.709   6.634   4.740  0.0403  0.4659 -0.6159
 7266SOL    HW122697   5.614   6.663   4.750  0.2128  0.8591 -0.1149
 7266SOL    HW222698   5.770   6.705   4.774  0.4191 -1.4810  3.3680
 7267SOL     OW22699   5.900   6.439   2.925  0.3488  0.3699 -0.1343
 7267SOL    HW122700   5.894   6.345   2.889 -0.3494 -0.5886  2.3089
 7267SOL    HW222701   5.849   6.445   3.011  2.4020  2.3566  1.0358
 7268SOL     OW22702   0.885   4.063   1.838  0.3515  0.1430  0.1540
 7268SOL    HW122703   0.976   4.045   1.877  0.8127 -3.2165 -2.0241
 7268SOL    HW222704   0.893   4.075   1.739 -1.4586  1.5216  0.1258
 7269SOL     OW22705   0.894   1.419   2.044  0.4253 -0.5298 -0.1652
 7269SOL    HW122706   0.824   1.432   1.974 -0.9192 -0.4968  1.1446
 7269SOL    HW222707   0.852   1.388   2.128  1.6229  1.8286  1.4289
 7270SOL     OW22708   3.520   6.423   4.034  0.1968  0.5814 -0.0747
 7270SOL    HW122709   3.503   6.458   4.126 -0.8588 -1.2172  0.4505
 7270SOL    HW222710   3.494   6.327   4.029  1.7400  0.1936 -1.8251
 7271SOL     OW22711   3.098   5.933   1.266  0.0935 -0.3881 -0.4392
 7271SOL    HW122712   3.132   5.876   1.191  0.3813  0.6439 -1.1177
 7271SOL    HW222713   3.004   5.962   1.245 -0.2208 -0.9778  0.1223
 7272SOL     OW22714   2.930   4.718   5.829  0.5577 -0.4664  0.5479
 7272SOL    HW122715   2.840   4.755   5.807  0.4269 -0.8667  0.3933
 7272SOL    HW222716   2.952   4.644   5.764  0.9304 -0.4689  0.6766
 7273SOL     OW22717   1.673   1.879   0.322  0.2188  0.2986 -0.3332
 7273SOL    HW122718   1.687   1.921   0.412 -2.9880  0.2401  0.2955
 7273SOL    HW222719   1.582   1.903   0.288 -0.1826 -2.8444 -1.7826
 7274SOL     OW22720   0.945   5.796   6.046 -0.0217  0.2558 -0.9502
 7274SOL    HW122721   0.893   5.790   6.131  0.1331  1.1211 -0.7883
 7274SOL    HW222722   0.891   5.845   5.977 -0.4599 -1.0964 -1.6095
 7275SOL     OW22723   4.018   1.554   6.793 -0.2991 -0.3051 -0.1144
 7275SOL    HW122724   4.038   1.468   6.839 -2.3920 -0.6494  0.2854
 7275SOL    HW222725   4.034   1.544   6.695 -1.2307 -1.4381 -0.1814
 7276SOL     OW22726   6.617   0.982   3.034  0.2165 -0.2955  0.4504
 7276SOL    HW122727   6.694   0.944   3.085  0.3988 -1.6264 -0.7454
 7276SOL    HW222728   6.588   1.068   3.076  1.3512 -0.5475  1.8318
 7277SOL     OW22729   3.504   4.496   6.926  0.2163  0.4999  0.5525
 7277SOL    HW122730   3.522   4.403   6.958  1.5460 -0.4241 -2.4900
 7277SOL    HW222731   3.408   4.518   6.939 -0.8619 -2.5368 -1.3283
 7278SOL     OW22732   2.850   6.833   5.731 -0.4968 -0.1455  0.1198
 7278SOL    HW122733   2.920   6.860   5.796 -1.1100  1.1477  0.2639
 7278SOL    HW222734   2.823   6.912   5.676 -1.5173 -0.7285 -0.2446
 7279SOL     OW22735   3.232   5.889   6.569 -0.4211  0.2766  0.3897
 7279SOL    HW122736   3.162   5.862   6.502  0.2326 -1.2825  0.2836
 7279SOL    HW222737   3.314   5.834   6.555 -0.5402 -0.6847  2.9675
 7280SOL     OW22738   1.384   2.613   6.151  0.1070 -0.0169 -0.1661
 7280SOL    HW122739   1.450   2.549   6.113 -1.0453 -0.7078 -1.0664
 7280SOL    HW222740   1.296   2.603   6.104 -0.3422  1.6432  0.2456
 7281SOL     OW22741   0.029   2.196   6.881 -0.0548  0.4036 -0.0308
 7281SOL    HW122742  -0.036   2.272   6.881  0.7569  1.1297  0.5189
 7281SOL    HW222743   0.102   2.215   6.947 -1.0631 -1.9674  1.8874
 7282SOL     OW22744   3.585   0.853   5.852  0.0427  0.2043  0.2996
 7282SOL    HW122745   3.545   0.772   5.810 -2.4088  1.2046  0.5236
 7282SOL    HW222746   3.515   0.925   5.859  1.5689  1.6289  1.9599
 7283SOL     OW22747   4.184   1.482   4.232  0.4770  0.6988 -0.3835
 7283SOL    HW122748   4.099   1.437   4.258  1.8551 -1.0267  1.4015
 7283SOL    HW222749   4.218   1.537   4.308  1.7327  0.1134 -0.4899
 7284SOL     OW22750   1.189   3.247   1.907  0.4289  0.0767 -0.1247
 7284SOL    HW122751   1.256   3.174   1.894 -0.0535 -0.2729 -0.6921
 7284SOL    HW222752   1.223   3.332   1.865  0.5180 -0.1009 -0.4142
 7285SOL     OW22753   3.693   0.955   4.542 -0.2254  0.7228  0.1378
 7285SOL    HW122754   3.742   0.885   4.492  0.3818  1.4554 -0.3175
 7285SOL    HW222755   3.732   0.964   4.634 -0.6669  0.0959  0.3958
 7286SOL     OW22756   0.632   6.085   5.913  0.3206 -0.0910 -0.5175
 7286SOL    HW122757   0.584   6.028   5.846  1.9017 -0.2344 -1.5769
 7286SOL    HW222758   0.567   6.149   5.954 -1.0672 -1.2585 -0.8066
 7287SOL     OW22759   2.417   1.597   1.134  0.0749 -0.5530 -0.1646
 7287SOL    HW122760   2.440   1.544   1.215 -0.0821 -0.7908 -0.2763
 7287SOL    HW222761   2.437   1.694   1.151 -2.3882 -0.1979  1.1145
 7288SOL     OW22762   6.633   3.133   0.858  0.0676 -0.0766 -0.4032
 7288SOL    HW122763   6.584   3.208   0.812 -1.1526 -0.3465  0.3994
 7288SOL    HW222764   6.712   3.171   0.907  0.2586  0.4819 -1.1192
 7289SOL     OW22765   4.842   3.071   1.757 -0.0556 -0.2103 -0.2284
 7289SOL    HW122766   4.788   3.014   1.818 -0.4712 -0.2555 -0.6346
 7289SOL    HW222767   4.848   3.027   1.667  0.3202 -0.0132 -0.3043
 7290SOL     OW22768   4.543   2.032   2.660  0.0402  0.1518 -0.1682
 7290SOL    HW122769   4.571   2.128   2.662  1.5686 -0.2649  0.6219
 7290SOL    HW222770   4.533   1.999   2.754  0.0704 -0.5957 -0.4186
 7291SOL     OW22771   0.478   5.297   5.695 -0.1812 -0.3540 -0.2941
 7291SOL    HW122772   0.480   5.210   5.647 -1.8154  0.9750 -2.9833
 7291SOL    HW222773   0.387   5.313   5.734  0.3227 -0.1512  0.8539
 7292SOL     OW22774   1.435   0.357   4.668 -0.1402 -0.0147 -0.3246
 7292SOL    HW122775   1.363   0.368   4.600  0.3690  1.3480 -0.6659
 7292SOL    HW222776   1.523   0.383   4.629  0.5048 -1.2602  0.2142
 7293SOL     OW22777   2.072   4.521   3.407  0.2345  0.1643  0.4330
 7293SOL    HW122778   2.134   4.562   3.474  1.0678 -0.9591  0.3794
 7293SOL    HW222779   2.089   4.563   3.318  1.4567 -0.6179  0.2676
 7294SOL     OW22780   0.726   0.174   2.145  0.1334 -0.5348 -0.0101
 7294SOL    HW122781   0.736   0.115   2.065  4.2507 -0.1875  0.0382
 7294SOL    HW222782   0.725   0.270   2.115 -1.1953 -0.4463  0.2455
 7295SOL     OW22783   3.973   2.299   0.211 -0.6783 -0.5446 -0.0628
 7295SOL    HW122784   4.071   2.293   0.228 -0.9115 -1.4045  1.0473
 7295SOL    HW222785   3.957   2.358   0.131  0.8700 -2.5141 -1.9618
 7296SOL     OW22786   6.018   3.575   0.200 -0.1953 -0.3998 -0.1932
 7296SOL    HW122787   5.996   3.671   0.218  0.4911 -0.0266 -1.2210
 7296SOL    HW222788   5.940   3.518   0.225  0.3018  0.1163  2.8784
 7297SOL     OW22789   0.544   4.189   3.122 -0.3212  1.1257  0.0012
 7297SOL    HW122790   0.565   4.186   3.220  1.0276  0.2827 -0.2760
 7297SOL    HW222791   0.520   4.282   3.095 -1.8541  1.1525  1.3394
 7298SOL     OW22792   0.659   6.931   6.169 -0.1007  0.0864  0.4531
 7298SOL    HW122793   0.727   6.858   6.170 -0.4102 -0.2044  1.7188
 7298SOL    HW222794   0.689   7.003   6.107  0.7506 -0.5961  0.0430
 7299SOL     OW22795   6.053   2.629   1.146 -0.3760 -0.5413  0.5405
 7299SOL    HW122796   6.110   2.609   1.066 -0.2271 -0.2301  0.5717
 7299SOL    HW222797   5.977   2.563   1.149 -1.2109  0.3084 -0.6737
 7300SOL     OW22798   4.058   0.222   2.286 -0.0856  0.5784  0.1984
 7300SOL    HW122799   4.036   0.289   2.215 -0.8864  1.4265  1.2087
 7300SOL    HW222800   4.127   0.159   2.252 -0.7100  0.7296 -1.4558
 7301SOL     OW22801   3.235   3.405   2.348 -0.4156  0.0462  0.2914
 7301SOL    HW122802   3.278   3.473   2.408  0.8131 -1.4224  1.1494
 7301SOL    HW222803   3.304   3.368   2.286 -0.6150 -1.6795  1.0471
 7302SOL     OW22804   1.798   1.426   2.872 -0.2847  0.0976 -0.4859
 7302SOL    HW122805   1.787   1.441   2.971  2.3342  0.5370 -0.1927
 7302SOL    HW222806   1.752   1.342   2.846  1.0730 -1.4226  1.6456
 7303SOL     OW22807   6.439   1.111   0.831 -0.2122  0.7666 -0.1845
 7303SOL    HW122808   6.504   1.097   0.905 -0.7259 -0.8590 -0.0060
 7303SOL    HW222809   6.452   1.040   0.761 -0.5319  1.5620 -1.0773
 7304SOL     OW22810   5.997   1.667   0.121 -0.0707  0.1417 -0.0740
 7304SOL    HW122811   5.972   1.759   0.150  1.2161  2.1451 -4.5116
 7304SOL    HW222812   5.919   1.605   0.135 -3.0432  3.1606 -1.8755
 7305SOL     OW22813   4.445   6.270   0.172 -0.1581  0.0775  0.7126
 7305SOL    HW122814   4.486   6.361   0.176 -0.4410  0.1668  2.2162
 7305SOL    HW222815   4.350   6.278   0.142 -0.0443  0.2183  0.3803
 7306SOL     OW22816   6.812   3.595   0.998  0.0500  0.1694  0.1239
 7306SOL    HW122817   6.863   3.646   1.068  1.2603  1.7750 -1.8440
 7306SOL    HW222818   6.859   3.509   0.979 -1.5243 -1.4523  2.8188
 7307SOL     OW22819   1.931   6.288   5.040 -0.1384  0.3324  0.0727
 7307SOL    HW122820   1.898   6.354   5.108 -1.4712  0.5781 -0.7811
 7307SOL    HW222821   1.933   6.332   4.950  1.1711 -0.1282 -0.1483
 7308SOL     OW22822   5.585   0.789   1.263  0.8014  0.0755 -0.1507
 7308SOL    HW122823   5.623   0.881   1.275  2.9313 -0.4430 -2.2127
 7308SOL    HW222824   5.655   0.721   1.281 -0.5428 -1.1790  0.6070
 7309SOL     OW22825   0.967   1.912   1.714  0.3083  0.4427 -0.1518
 7309SOL    HW122826   0.974   1.863   1.628 -3.0339 -0.2580 -0.1622
 7309SOL    HW222827   0.932   2.004   1.698  1.7339  1.1093  0.3354
 7310SOL     OW22828   1.796   6.807   1.802  0.9197  0.2178  0.1110
 7310SOL    HW122829   1.835   6.745   1.870  2.1101  0.2404 -0.5162
 7310SOL    HW222830   1.836   6.786   1.712 -2.2884 -1.3506 -1.0902
 7311SOL     OW22831   0.658   2.382   2.514  0.4767  0.0547 -0.4179
 7311SOL    HW122832   0.658   2.439   2.432  2.5109  0.0671 -0.4634
 7311SOL    HW222833   0.747   2.336   2.523  0.5917  0.6112  2.1429
 7312SOL     OW22834   0.350   4.719   3.932 -0.3453 -0.6092  0.2460
 7312SOL    HW122835   0.359   4.774   4.015 -0.6170  0.9952 -0.7258
 7312SOL    HW222836   0.373   4.624   3.952  1.5502  0.0825  1.7031
 7313SOL     OW22837   3.482   6.148   2.664  0.1269  0.0580  0.4686
 7313SOL    HW122838   3.485   6.246   2.643 -0.0429  0.2064  1.1075
 7313SOL    HW222839   3.492   6.096   2.579 -1.2168  0.6284 -0.0808
 7314SOL     OW22840   2.944   5.518   1.079  0.0048 -0.4710  0.0414
 7314SOL    HW122841   2.920   5.538   1.174  1.2210  2.0321 -0.1002
 7314SOL    HW222842   2.997   5.594   1.041  1.0037 -2.1376 -2.1447
 7315SOL     OW22843   0.192   1.114   2.582  0.2315  0.2192  0.4337
 7315SOL    HW122844   0.114   1.136   2.524 -1.1881  0.5384  2.3749
 7315SOL    HW222845   0.277   1.137   2.534 -0.8093 -0.4419 -1.8556
 7316SOL     OW22846   3.111   1.160   0.656  0.4863  0.2921  0.1668
 7316SOL    HW122847   3.174   1.083   0.667 -0.1622  0.1008  4.0727
 7316SOL    HW222848   3.162   1.246   0.663  0.7610  0.1920 -0.5527
 7317SOL     OW22849   2.242   2.297   2.100 -0.0229  0.5912 -0.0881
 7317SOL    HW122850   2.275   2.365   2.166  0.2857 -0.1900  0.5804
 7317SOL    HW222851   2.316   2.272   2.037 -0.2967  1.2822 -0.6977
 7318SOL     OW22852   5.371   4.533   1.958  0.0548 -0.2284 -0.1147
 7318SOL    HW122853   5.410   4.615   1.999 -0.5965  1.1250 -2.0116
 7318SOL    HW222854   5.407   4.452   2.003  2.1188  1.0452  0.6511
 7319SOL     OW22855   5.863   6.586   6.557  0.2565  0.0678 -0.3280
 7319SOL    HW122856   5.807   6.515   6.599  2.1789 -0.5025  1.4652
 7319SOL    HW222857   5.878   6.565   6.460  0.7697 -1.9901  0.1614
 7320SOL     OW22858   5.072   2.652   6.461 -0.0603  0.9227  0.0433
 7320SOL    HW122859   5.067   2.556   6.486 -1.1540  0.7057 -0.9473
 7320SOL    HW222860   5.009   2.705   6.517  0.1241  0.9822  0.1963
 7321SOL     OW22861   6.107   0.499   3.781 -0.0807 -0.8950 -0.2422
 7321SOL    HW122862   6.166   0.438   3.727 -0.4481  0.2719 -2.0603
 7321SOL    HW222863   6.131   0.594   3.760 -2.5009 -0.3829 -0.9637
 7322SOL     OW22864   6.219   4.626   6.854 -0.3580 -0.1345  0.0017
 7322SOL    HW122865   6.152   4.552   6.856 -0.5088  0.0262  1.7031
 7322SOL    HW222866   6.178   4.710   6.889  0.0192  0.6012 -1.2566
 7323SOL     OW22867   4.562   1.276   4.422 -0.0835 -0.1796 -0.2133
 7323SOL    HW122868   4.480   1.314   4.380 -0.7375  1.5717  2.4051
 7323SOL    HW222869   4.616   1.350   4.462  2.9111 -1.2647 -1.9225
 7324SOL     OW22870   1.818   5.088   0.222 -0.6543 -0.1480  0.1751
 7324SOL    HW122871   1.881   5.137   0.162  0.6642 -2.3791 -0.3989
 7324SOL    HW222872   1.768   5.020   0.168 -1.4930 -0.3118  1.1446
 7325SOL     OW22873   3.610   4.886   2.540 -0.0267  0.3509 -0.1943
 7325SOL    HW122874   3.629   4.790   2.563  0.8591  0.6686  0.4676
 7325SOL    HW222875   3.695   4.931   2.512 -0.5074  0.8493 -0.8759
 7326SOL     OW22876   5.834   6.344   6.348  0.2164  0.3323  0.3878
 7326SOL    HW122877   5.756   6.377   6.402 -0.8129 -0.0100 -0.8435
 7326SOL    HW222878   5.877   6.421   6.302 -0.4882  0.3212 -0.3082
 7327SOL     OW22879   3.785   6.382   3.131 -0.0464  0.0207  0.0153
 7327SOL    HW122880   3.817   6.348   3.220 -2.8008 -0.9435  0.7209
 7327SOL    HW222881   3.756   6.478   3.141 -1.3766 -0.4049  0.4923
 7328SOL     OW22882   3.734   6.081   6.006 -0.1590 -0.1301 -0.0628
 7328SOL    HW122883   3.703   6.002   6.058 -2.1098 -0.1150 -1.0976
 7328SOL    HW222884   3.761   6.053   5.914 -3.7140  0.5883 -1.5209
 7329SOL     OW22885   2.660   0.278   1.698  0.1190 -0.2999 -0.1676
 7329SOL    HW122886   2.670   0.366   1.745  2.5748 -0.8954  0.5666
 7329SOL    HW222887   2.620   0.211   1.761  0.1494 -0.2269 -0.0699
 7330SOL     OW22888   0.816   6.285   0.917  0.1631  0.3692  0.2990
 7330SOL    HW122889   0.811   6.375   0.874  0.5635 -0.8413 -2.5135
 7330SOL    HW222890   0.904   6.274   0.963 -0.5309  1.9350  2.1429
 7331SOL     OW22891   4.750   2.534   2.644 -0.0950 -0.4450  0.0276
 7331SOL    HW122892   4.705   2.564   2.728  0.8795 -1.5217  0.9495
 7331SOL    HW222893   4.693   2.560   2.566 -2.1171 -1.3356  1.1172
 7332SOL     OW22894   1.665   2.412   6.610 -0.4512 -0.2783  0.3579
 7332SOL    HW122895   1.656   2.461   6.697 -0.9850  1.2595 -0.5334
 7332SOL    HW222896   1.749   2.439   6.565 -1.2281  0.6338 -0.6049
 7333SOL     OW22897   1.131   3.776   5.185  0.1564 -0.2214 -0.6446
 7333SOL    HW122898   1.035   3.799   5.201  0.6221  1.8111 -0.5003
 7333SOL    HW222899   1.141   3.677   5.175 -1.7259 -0.5982  0.7845
 7334SOL     OW22900   1.004   2.526   5.695 -0.1642 -0.1499 -0.1129
 7334SOL    HW122901   0.920   2.474   5.680 -0.4381  0.2274  0.1057
 7334SOL    HW222902   1.039   2.560   5.608 -1.1439  1.1013 -0.0372
 7335SOL     OW22903   3.712   5.825   3.865  0.4711 -0.2214  0.8684
 7335SOL    HW122904   3.809   5.822   3.890  1.0671 -0.9109 -1.2522
 7335SOL    HW222905   3.689   5.917   3.832  0.0984  0.2385  2.3480
 7336SOL     OW22906   0.182   2.560   2.113 -0.4693  0.0489 -0.1298
 7336SOL    HW122907   0.137   2.472   2.096 -0.9285 -0.2089  2.0991
 7336SOL    HW222908   0.112   2.632   2.116 -0.4154  0.0803  0.5385
 7337SOL     OW22909   6.289   3.978   3.534 -0.3723  0.3440  0.4860
 7337SOL    HW122910   6.304   3.893   3.484 -0.9688 -1.1517  2.6840
 7337SOL    HW222911   6.358   4.045   3.507  1.1865 -1.3931 -0.1091
 7338SOL     OW22912   1.121   5.741   1.426  0.2840  0.1491  0.6944
 7338SOL    HW122913   1.027   5.759   1.455  0.3002 -0.0626  0.8842
 7338SOL    HW222914   1.180   5.738   1.507  0.1291 -1.6961  0.7911
 7339SOL     OW22915   6.332   2.125   1.402  0.0518 -0.3164 -0.9694
 7339SOL    HW122916   6.326   2.037   1.447  2.0444 -0.9912 -1.8938
 7339SOL    HW222917   6.286   2.195   1.457  1.1329 -1.3555  1.3747
 7340SOL     OW22918   4.219   6.474   5.580  0.9894 -0.3830 -0.1151
 7340SOL    HW122919   4.188   6.380   5.561  2.3898 -0.5955 -1.6470
 7340SOL    HW222920   4.279   6.473   5.660  0.2162 -0.6091  0.4789
 7341SOL     OW22921   0.843   0.312   5.529 -0.3278  0.0383 -0.0620
 7341SOL    HW122922   0.893   0.395   5.551  1.5422 -1.1661  0.5073
 7341SOL    HW222923   0.889   0.265   5.453 -1.7372 -0.1759 -0.8261
 7342SOL     OW22924   0.498   0.811   0.990  0.1950  0.3801  0.2171
 7342SOL    HW122925   0.421   0.753   1.014  0.9684 -1.2709 -1.1039
 7342SOL    HW222926   0.541   0.846   1.074  1.0381 -2.7617  1.2019
 7343SOL     OW22927   1.697   4.600   1.127  0.6100  0.2343  0.1331
 7343SOL    HW122928   1.778   4.608   1.070  1.2104  1.0000  1.0598
 7343SOL    HW222929   1.683   4.684   1.179 -1.8178  0.8169 -1.3004
 7344SOL     OW22930   3.173   0.275   1.240 -0.0171 -0.4713  0.0413
 7344SOL    HW122931   3.117   0.269   1.323  0.8456 -0.4043  0.6368
 7344SOL    HW222932   3.160   0.365   1.198  0.2000 -0.1834  0.5804
 7345SOL     OW22933   0.564   4.228   0.524  0.3603  0.2458  0.1006
 7345SOL    HW122934   0.550   4.281   0.441  0.5815  1.4824  0.8284
 7345SOL    HW222935   0.661   4.212   0.538  0.6589  2.9116  1.7870
 7346SOL     OW22936   1.743   0.271   0.499  0.2239 -0.5428 -0.4048
 7346SOL    HW122937   1.814   0.200   0.500  0.7493 -0.0394 -0.7592
 7346SOL    HW222938   1.716   0.293   0.592 -2.0013 -3.1830 -0.2877
 7347SOL     OW22939   5.687   0.612   2.808 -0.0614 -0.1171  0.1680
 7347SOL    HW122940   5.658   0.693   2.757  0.8556  0.4451  0.5158
 7347SOL    HW222941   5.782   0.591   2.784 -0.2566 -1.0164  0.1745
 7348SOL     OW22942   4.574   3.205   0.366  0.4453 -0.0782  0.1840
 7348SOL    HW122943   4.543   3.250   0.449  0.4307  0.4418 -0.0950
 7348SOL    HW222944   4.506   3.138   0.336 -0.6803  1.3873 -0.6939
 7349SOL     OW22945   5.598   6.285   1.034  0.1989  0.1627  0.0992
 7349SOL    HW122946   5.536   6.361   1.016  0.3889  0.3993  0.4336
 7349SOL    HW222947   5.660   6.309   1.109  0.7717 -0.0307 -0.3085
 7350SOL     OW22948   4.749   2.236   4.292  0.2316  0.3734 -0.0546
 7350SOL    HW122949   4.690   2.299   4.241  0.8293 -0.7893 -2.3098
 7350SOL    HW222950   4.843   2.269   4.290  0.1265  0.8009  1.1717
 7351SOL     OW22951   3.432   6.940   0.885  0.1495  0.0482 -0.5805
 7351SOL    HW122952   3.474   7.005   0.821 -0.8019 -0.1772 -1.4679
 7351SOL    HW222953   3.398   6.990   0.965 -1.0073  0.7596 -1.4771
 7352SOL     OW22954   6.931   2.853   6.664 -0.0860 -0.1105  0.0691
 7352SOL    HW122955   6.838   2.858   6.627  0.4825  0.8906 -1.2838
 7352SOL    HW222956   6.997   2.864   6.590  1.1092  0.5324  1.1971
 7353SOL     OW22957   4.099   3.301   1.713  0.0351 -0.1219 -0.2489
 7353SOL    HW122958   4.171   3.242   1.677  0.9149  0.2635  0.8239
 7353SOL    HW222959   4.034   3.247   1.765 -1.2759 -0.6950 -2.3509
 7354SOL     OW22960   6.584   5.812   2.238 -0.1271  0.3345  0.5786
 7354SOL    HW122961   6.556   5.875   2.310  0.2106  2.2244 -0.8530
 7354SOL    HW222962   6.565   5.854   2.149  0.3969 -1.4938 -0.4384
 7355SOL     OW22963   6.206   2.385   3.776 -0.3158 -0.4556 -0.5472
 7355SOL    HW122964   6.250   2.474   3.785 -0.3065 -0.3693 -1.4039
 7355SOL    HW222965   6.276   2.315   3.761 -0.2655 -0.7194  0.7937
 7356SOL     OW22966   1.757   4.572   0.589  0.2284 -0.2621 -0.2113
 7356SOL    HW122967   1.675   4.529   0.551  0.2381 -1.0640  0.6306
 7356SOL    HW222968   1.731   4.633   0.664  0.4699 -1.4005  0.8263
 7357SOL     OW22969   3.457   6.365   3.211  0.1181 -0.3664 -0.0107
 7357SOL    HW122970   3.438   6.389   3.306 -3.1067 -2.3485 -0.0181
 7357SOL    HW222971   3.538   6.307   3.206  1.4769  1.3165  1.2197
 7358SOL     OW22972   4.178   0.161   1.048 -0.2564  0.2168  0.2835
 7358SOL    HW122973   4.268   0.198   1.073 -0.3697  0.7009 -0.0180
 7358SOL    HW222974   4.190   0.076   0.997  0.0513  0.5023 -0.1333
 7359SOL     OW22975   4.881   0.138   1.369 -0.6098 -0.4498 -0.2189
 7359SOL    HW122976   4.892   0.217   1.308  0.2213  0.7540  1.4169
 7359SOL    HW222977   4.817   0.073   1.328 -2.9586  2.0064 -0.7314
 7360SOL     OW22978   1.980   1.333   4.257 -0.0858  0.2411  0.3742
 7360SOL    HW122979   2.004   1.406   4.192 -0.0641  0.1178  0.2437
 7360SOL    HW222980   1.948   1.253   4.207 -0.0002  0.1197  0.5133
 7361SOL     OW22981   6.154   6.232   4.452  0.4062  0.1489 -0.0753
 7361SOL    HW122982   6.218   6.307   4.437  1.0463  0.1525  2.2087
 7361SOL    HW222983   6.091   6.256   4.526 -0.4743 -0.9207 -0.4448
 7362SOL     OW22984   4.322   0.194   2.409 -0.1156 -0.2105 -0.1944
 7362SOL    HW122985   4.390   0.256   2.370  0.4482  0.4219  1.7064
 7362SOL    HW222986   4.230   0.229   2.392  0.1852  0.9975  0.6037
 7363SOL     OW22987   0.488   1.521   3.972 -0.2886 -0.2852 -0.0540
 7363SOL    HW122988   0.443   1.507   4.060  0.0368  0.6546  0.2787
 7363SOL    HW222989   0.565   1.459   3.964 -1.8997 -2.2753 -0.8452
 7364SOL     OW22990   1.143   5.721   0.769  0.6056  0.0529 -0.1671
 7364SOL    HW122991   1.241   5.724   0.788  0.4807 -0.3862  0.5914
 7364SOL    HW222992   1.121   5.639   0.717  0.8392  0.8835 -1.6323
 7365SOL     OW22993   0.595   6.776   0.109  0.1129  0.7850  0.3815
 7365SOL    HW122994   0.547   6.771   0.022  2.0440  0.0636 -0.7131
 7365SOL    HW222995   0.574   6.862   0.155 -1.7598  0.7092 -0.2784
 7366SOL     OW22996   0.178   3.559   0.798  0.2013 -0.2020  0.1257
 7366SOL    HW122997   0.202   3.537   0.893 -0.9489 -0.3008  0.4067
 7366SOL    HW222998   0.161   3.474   0.747  2.0364 -0.2155 -0.5269
 7367SOL     OW22999   4.551   2.600   3.157  0.5335  0.4874 -0.2189
 7367SOL    HW123000   4.600   2.647   3.231 -1.3156 -2.0999  2.9040
 7367SOL    HW223001   4.453   2.597   3.178  0.1188 -1.5722 -2.0704
 7368SOL     OW23002   2.572   4.760   4.968  0.5188  0.1459  0.0604
 7368SOL    HW123003   2.645   4.694   4.987  0.4610 -0.1640 -0.7448
 7368SOL    HW223004   2.612   4.851   4.957  1.1298 -0.3352 -2.5145
 7369SOL     OW23005   3.102   4.071   4.720  0.9910 -0.4700 -0.6592
 7369SOL    HW123006   3.155   4.070   4.804  2.7054  2.6276 -1.5303
 7369SOL    HW223007   3.017   4.122   4.734  1.7392  0.9208 -0.9502
 7370SOL     OW23008   4.253   3.140   1.264  0.4545 -0.1388 -0.2386
 7370SOL    HW123009   4.161   3.112   1.291 -0.9527  2.3588 -2.0692
 7370SOL    HW223010   4.280   3.220   1.317 -0.4179  1.9424 -2.7461
 7371SOL     OW23011   0.626   5.261   4.782  0.8265 -0.3264  0.4344
 7371SOL    HW123012   0.712   5.259   4.731  0.9782  2.2650  0.4557
 7371SOL    HW223013   0.646   5.266   4.880  0.5911 -1.1018  0.5337
 7372SOL     OW23014   2.801   2.284   4.428  0.1916 -0.1048 -0.7472
 7372SOL    HW123015   2.737   2.356   4.401 -0.3002 -0.3794 -0.3358
 7372SOL    HW223016   2.865   2.266   4.354  0.6692  1.1327 -0.6566
 7373SOL     OW23017   2.844   0.833   3.756  0.5907 -0.6016 -0.4068
 7373SOL    HW123018   2.856   0.745   3.802 -0.6035  1.0637  3.5673
 7373SOL    HW223019   2.761   0.831   3.701  1.0736 -2.1772 -1.1378
 7374SOL     OW23020   0.008   6.489   4.174  0.2074  0.5187  0.5662
 7374SOL    HW123021   0.088   6.539   4.207 -0.9295  3.0108 -0.2447
 7374SOL    HW223022  -0.043   6.453   4.252  1.4686 -0.1223  1.1330
 7375SOL     OW23023   2.723   2.154   1.325 -0.1505  0.3456 -0.1878
 7375SOL    HW123024   2.641   2.173   1.272 -1.4610  0.2196  1.6793
 7375SOL    HW223025   2.741   2.055   1.325 -0.9719  0.1828  0.7088
 7376SOL     OW23026   5.349   1.632   3.351 -0.1197  0.0668 -0.0281
 7376SOL    HW123027   5.338   1.664   3.257  0.5417  1.5069  0.3566
 7376SOL    HW223028   5.400   1.700   3.404  0.0218 -0.9770  1.2351
 7377SOL     OW23029   0.348   6.448   2.493 -0.4504  0.3202  0.0027
 7377SOL    HW123030   0.325   6.383   2.420 -0.5636 -0.3716  0.6398
 7377SOL    HW223031   0.292   6.429   2.573 -1.8487  2.4142 -0.4008
 7378SOL     OW23032   0.309   0.500   3.905  0.2067 -0.0702 -0.1991
 7378SOL    HW123033   0.276   0.550   3.985 -1.3799  0.1276 -0.9271
 7378SOL    HW223034   0.287   0.553   3.822  0.7133 -0.8276 -0.8309
 7379SOL     OW23035   6.996   0.893   2.879  0.3008  0.2105  0.1573
 7379SOL    HW123036   7.009   0.942   2.965 -2.1792  1.0986  0.1101
 7379SOL    HW223037   6.905   0.914   2.841  1.3787  0.0489 -2.8235
 7380SOL     OW23038   0.913   5.562   2.880  0.1179  0.1146 -0.2643
 7380SOL    HW123039   0.827   5.582   2.833 -1.1331 -1.4901  1.2191
 7380SOL    HW223040   0.972   5.507   2.820  0.0371  1.0134 -1.1985
 7381SOL     OW23041   2.457   2.600   3.536 -0.0187 -0.0116  0.5242
 7381SOL    HW123042   2.474   2.687   3.583  4.9403 -0.1722 -0.4077
 7381SOL    HW223043   2.396   2.544   3.592 -4.3106  4.1864  0.7316
 7382SOL     OW23044   1.803   1.160   1.258  0.0913  0.0241  0.1250
 7382SOL    HW123045   1.777   1.256   1.266 -0.0723 -0.0468  0.4546
 7382SOL    HW223046   1.723   1.102   1.273  0.5737 -0.2202  2.0707
 7383SOL     OW23047   4.716   1.236   0.621 -0.7135  0.2984  0.0253
 7383SOL    HW123048   4.781   1.302   0.583 -1.0942  1.7413  1.7526
 7383SOL    HW223049   4.764   1.173   0.682 -0.4127 -0.8495 -1.3422
 7384SOL     OW23050   3.292   1.019   2.711  0.5921 -0.1664  0.1261
 7384SOL    HW123051   3.343   0.958   2.772  3.8494  3.1031  1.0258
 7384SOL    HW223052   3.216   1.060   2.762  0.4790 -0.8575  0.5370
 7385SOL     OW23053   5.279   1.241   4.182  0.2479  0.1895 -0.3958
 7385SOL    HW123054   5.256   1.183   4.105 -0.5830  0.6575 -0.5122
 7385SOL    HW223055   5.362   1.207   4.226  0.2245 -0.6033 -0.9458
 7386SOL     OW23056   6.927   2.337   5.606 -0.1240 -0.3151 -0.0610
 7386SOL    HW123057   6.856   2.362   5.541  0.6663  0.4398 -0.6513
 7386SOL    HW223058   7.017   2.355   5.566  0.3783 -0.1916  1.0847
 7387SOL     OW23059   3.143   2.974   4.668 -0.4430 -0.0925  0.1487
 7387SOL    HW123060   3.112   3.058   4.712  0.4713  0.6975 -0.6840
 7387SOL    HW223061   3.065   2.911   4.658 -1.3708  1.0738 -0.1731
 7388SOL     OW23062   4.055   5.482   0.880 -0.9498  0.1514 -0.0769
 7388SOL    HW123063   3.981   5.428   0.840  1.2606 -1.7337 -1.9129
 7388SOL    HW223064   4.109   5.524   0.807 -0.5694  2.0651  1.2345
 7389SOL     OW23065   4.472   6.195   4.014  0.1569  0.2653  0.8162
 7389SOL    HW123066   4.488   6.096   4.014 -0.4116  0.1471 -0.8422
 7389SOL    HW223067   4.402   6.217   3.947 -1.8392  1.5076  3.1705
 7390SOL     OW23068   5.372   4.406   0.586 -0.1556  0.2698  0.2233
 7390SOL    HW123069   5.423   4.404   0.500  0.8404  0.5219  0.7813
 7390SOL    HW223070   5.419   4.349   0.653 -2.8695 -2.9943 -0.3791
 7391SOL     OW23071   4.027   3.237   4.662 -0.0723  0.6674 -0.0246
 7391SOL    HW123072   3.985   3.180   4.592 -0.5903 -0.2517  1.0067
 7391SOL    HW223073   3.988   3.215   4.751 -0.4160  2.7577  0.4007
 7392SOL     OW23074   0.293   4.320   1.590  0.2397 -0.2650  0.3915
 7392SOL    HW123075   0.392   4.320   1.600  0.5009 -1.1301 -1.6702
 7392SOL    HW223076   0.261   4.227   1.572 -0.5665  0.3779 -1.7690
 7393SOL     OW23077   6.338   3.841   5.981 -0.0699 -0.0534 -0.5470
 7393SOL    HW123078   6.249   3.883   5.994 -1.3545 -2.2268 -1.6332
 7393SOL    HW223079   6.371   3.860   5.889  0.7037  0.8984 -0.0871
 7394SOL     OW23080   2.246   1.419   5.597 -0.2603  0.0112  0.3896
 7394SOL    HW123081   2.304   1.388   5.522 -0.6438 -0.1003  0.1372
 7394SOL    HW223082   2.151   1.426   5.566 -0.6239 -1.1527  1.1663
 7395SOL     OW23083   1.913   3.830   6.163  0.1297  0.3122  0.0145
 7395SOL    HW123084   1.934   3.910   6.219 -0.5735 -0.4421  1.4056
 7395SOL    HW223085   1.842   3.775   6.208  1.0354 -1.4215 -0.5925
 7396SOL     OW23086   3.991   6.356   0.470 -0.6252 -0.0070  0.1083
 7396SOL    HW123087   3.908   6.333   0.420 -1.3578  0.7067  0.9794
 7396SOL    HW223088   3.968   6.406   0.553  0.5757 -1.1179  1.1576
 7397SOL     OW23089   0.398   6.417   6.370 -0.1056 -0.1374  0.5345
 7397SOL    HW123090   0.456   6.374   6.439  3.1410  0.7578 -1.4227
 7397SOL    HW223091   0.394   6.515   6.385  0.9941  0.1306 -0.6869
 7398SOL     OW23092   5.967   3.159   0.455 -0.3429 -0.0349 -0.3245
 7398SOL    HW123093   5.943   3.103   0.376 -0.7635  1.4973 -1.3250
 7398SOL    HW223094   5.947   3.109   0.539 -2.0699 -0.8244 -1.1666
 7399SOL     OW23095   3.542   3.831   1.437 -0.3749  0.0790  0.7691
 7399SOL    HW123096   3.520   3.741   1.475 -0.6024 -0.0935  0.2373
 7399SOL    HW223097   3.577   3.820   1.344 -1.8321  0.6280  0.1247
 7400SOL     OW23098   6.124   6.782   0.373 -0.1256 -0.1514 -0.3393
 7400SOL    HW123099   6.200   6.847   0.372 -0.9211  0.8282  0.2891
 7400SOL    HW223100   6.124   6.729   0.289  0.8866  0.2537 -0.6115
 7401SOL     OW23101   6.252   2.213   5.799  0.0602 -0.3680  0.8265
 7401SOL    HW123102   6.292   2.124   5.779 -1.3000 -0.6569 -0.8247
 7401SOL    HW223103   6.191   2.206   5.878  0.2984 -0.7861  0.9760
 7402SOL     OW23104   2.382   3.647   5.468  0.2381  0.2004  0.2020
 7402SOL    HW123105   2.439   3.573   5.433 -0.4460 -0.7262  0.9931
 7402SOL    HW223106   2.430   3.734   5.457  1.5899 -0.4972  0.3925
 7403SOL     OW23107   3.574   5.688   3.096  0.1367 -0.1706  0.0507
 7403SOL    HW123108   3.533   5.638   3.173 -1.0355  1.1173  0.3056
 7403SOL    HW223109   3.505   5.748   3.055  1.6184  1.6488  0.1102
 7404SOL     OW23110   0.751   1.904   3.078  0.4987  0.2918 -0.0128
 7404SOL    HW123111   0.775   1.999   3.096 -2.1880  1.2322 -1.0380
 7404SOL    HW223112   0.781   1.879   2.985  0.1340  0.5258 -0.1944
 7405SOL     OW23113   1.205   5.415   5.199  0.0315  0.8106  0.1204
 7405SOL    HW123114   1.206   5.315   5.190 -1.5489  0.7508  0.2472
 7405SOL    HW223115   1.235   5.440   5.291 -4.1565  0.0617  1.9461
 7406SOL     OW23116   6.061   1.222   3.483 -0.2143 -0.4775  0.5210
 7406SOL    HW123117   6.096   1.295   3.424  1.2968 -0.5032  1.3322
 7406SOL    HW223118   6.050   1.258   3.576 -0.0289 -1.1377  0.7980
 7407SOL     OW23119   0.906   1.898   6.023 -0.1578 -0.4464  0.1038
 7407SOL    HW123120   0.806   1.893   6.013 -0.0019 -1.0272 -1.4781
 7407SOL    HW223121   0.929   1.970   6.089 -1.6003 -0.0621  0.2340
 7408SOL     OW23122   1.594   6.791   1.297 -0.4426  0.3358  0.6587
 7408SOL    HW123123   1.637   6.702   1.284  1.3576  1.1356  0.9101
 7408SOL    HW223124   1.526   6.806   1.224 -0.0938 -0.8277  0.0681
 7409SOL     OW23125   5.457   4.450   4.610  0.0214 -0.0139 -0.0620
 7409SOL    HW123126   5.386   4.410   4.552  0.2239 -3.6547  1.9060
 7409SOL    HW223127   5.416   4.495   4.689 -0.1227  2.0686 -1.2385
 7410SOL     OW23128   1.594   0.761   0.432 -0.2675 -0.1257  0.1057
 7410SOL    HW123129   1.666   0.736   0.497  0.0137 -1.1762 -0.5996
 7410SOL    HW223130   1.532   0.684   0.419 -1.4350  0.7057  0.5600
 7411SOL     OW23131   0.372   3.252   1.345 -0.3831 -0.2992  0.2987
 7411SOL    HW123132   0.327   3.324   1.397 -1.3502 -0.6020 -0.0963
 7411SOL    HW223133   0.331   3.246   1.254  0.7651 -0.2913 -0.2412
 7412SOL     OW23134   2.038   6.366   6.215  0.1701 -0.2162 -0.0517
 7412SOL    HW123135   2.102   6.310   6.163  0.7300 -0.7764  1.1832
 7412SOL    HW223136   2.089   6.418   6.284 -0.8068 -1.9621  2.1197
 7413SOL     OW23137   6.260   3.194   2.089  0.1071  0.1105  0.2425
 7413SOL    HW123138   6.230   3.115   2.034 -0.3048  0.1431  0.4130
 7413SOL    HW223139   6.233   3.278   2.043 -1.2348  0.1327  1.0163
 7414SOL     OW23140   0.536   4.362   0.770  0.3684  0.1397 -0.3444
 7414SOL    HW123141   0.442   4.343   0.798 -0.0552  1.5057 -0.7454
 7414SOL    HW223142   0.555   4.317   0.683 -0.0302  0.1567 -0.4404
 7415SOL     OW23143   5.462   5.562   2.296 -0.7051  0.1008 -0.6646
 7415SOL    HW123144   5.441   5.538   2.201 -0.0522  0.7157 -0.9727
 7415SOL    HW223145   5.514   5.647   2.298 -1.5716  0.6256  0.3066
 7416SOL     OW23146   1.100   1.151   2.964 -0.1278 -0.3797  0.1696
 7416SOL    HW123147   1.105   1.244   3.000  0.7471 -0.4906  0.3669
 7416SOL    HW223148   1.186   1.103   2.984 -0.4059 -1.0910 -0.3025
 7417SOL     OW23149   0.920   0.364   4.827  0.7647 -0.0194 -0.2200
 7417SOL    HW123150   0.960   0.442   4.779  1.1422  0.4133  0.7712
 7417SOL    HW223151   0.952   0.363   4.922  0.0267 -0.8474  0.0345
 7418SOL     OW23152   4.710   3.185   5.894  0.6725 -0.4104 -0.1434
 7418SOL    HW123153   4.666   3.231   5.816 -0.8767 -0.1967  0.7937
 7418SOL    HW223154   4.722   3.251   5.968  2.7403 -0.4515 -0.4005
 7419SOL     OW23155   4.728   6.123   6.223 -0.1543 -0.0852 -0.6996
 7419SOL    HW123156   4.655   6.054   6.224 -0.4795  0.2294 -1.6174
 7419SOL    HW223157   4.777   6.121   6.310 -2.2008  0.6945  0.5515
 7420SOL     OW23158   4.785   5.118   0.138  0.4376 -0.0489  0.2068
 7420SOL    HW123159   4.779   5.133   0.236 -0.3643  1.0512  0.0056
 7420SOL    HW223160   4.736   5.035   0.114  1.2485 -0.7258  0.8077
 7421SOL     OW23161   5.287   3.487   2.267 -0.0480 -0.6137  0.4319
 7421SOL    HW123162   5.353   3.413   2.252  2.3399  1.4339  0.2023
 7421SOL    HW223163   5.281   3.506   2.364  1.3098  0.5234  0.3172
 7422SOL     OW23164   1.746   2.900   4.806  0.6103 -0.6000  0.0915
 7422SOL    HW123165   1.830   2.881   4.755  0.7762  1.1082 -0.3406
 7422SOL    HW223166   1.762   2.976   4.868 -1.0637  0.9686 -1.2988
 7423SOL     OW23167   1.716   4.364   4.426 -0.0580  0.1735 -0.7617
 7423SOL    HW123168   1.693   4.429   4.354 -0.1327  0.4222 -0.5123
 7423SOL    HW223169   1.673   4.392   4.512  0.6933  0.3162 -0.4296
 7424SOL     OW23170   5.123   4.383   5.569  0.0513 -0.6179 -0.0095
 7424SOL    HW123171   5.111   4.328   5.651 -2.1569 -1.7284 -0.9793
 7424SOL    HW223172   5.060   4.350   5.497  0.4291  1.5935 -1.4650
 7425SOL     OW23173   5.410   4.035   6.440  0.3082 -0.1303  0.1521
 7425SOL    HW123174   5.372   4.023   6.531  0.2146  1.4948  0.3541
 7425SOL    HW223175   5.436   4.131   6.426 -0.7509 -0.0700 -1.9339
 7426SOL     OW23176   3.427   4.159   3.558  0.1337  0.8322  0.0729
 7426SOL    HW123177   3.423   4.149   3.657  1.0543 -0.0756  0.0415
 7426SOL    HW223178   3.508   4.113   3.523 -1.2856 -0.8034 -1.3114
 7427SOL     OW23179   2.836   2.136   5.128 -0.0808 -0.8090 -0.4319
 7427SOL    HW123180   2.856   2.135   5.030  0.3296 -1.4964 -0.3507
 7427SOL    HW223181   2.756   2.194   5.146  0.6636  0.4400 -1.0033
 7428SOL     OW23182   6.772   1.856   1.318 -0.1539 -0.4510  0.7043
 7428SOL    HW123183   6.828   1.915   1.376  0.5543 -0.1234 -0.2889
 7428SOL    HW223184   6.690   1.827   1.368  0.8301 -0.8386  2.1331
 7429SOL     OW23185   4.969   3.593   6.695 -0.8718  0.3798 -0.1746
 7429SOL    HW123186   4.990   3.624   6.788  0.0385 -1.4841  0.2827
 7429SOL    HW223187   4.875   3.560   6.692 -0.5922 -0.4786  0.3486
 7430SOL     OW23188   2.217   5.474   5.122 -0.2360  0.4941 -0.0451
 7430SOL    HW123189   2.250   5.391   5.166  1.1296  1.2420  0.3938
 7430SOL    HW223190   2.164   5.449   5.040 -0.4403 -0.8070  0.4534
 7431SOL     OW23191   4.077   2.186   4.686 -0.2724 -0.4667  0.0608
 7431SOL    HW123192   4.034   2.158   4.771 -0.8765 -0.4558 -0.2351
 7431SOL    HW223193   4.151   2.251   4.705 -2.9128  2.7256  0.3903
 7432SOL     OW23194   0.190   1.222   6.616  0.4034 -0.1223  0.0535
 7432SOL    HW123195   0.193   1.266   6.526 -0.7346 -0.5317 -0.1926
 7432SOL    HW223196   0.281   1.188   6.639  0.7230  0.0522 -0.9060
 7433SOL     OW23197   6.005   6.051   2.356 -0.3864 -0.9733 -0.6846
 7433SOL    HW123198   5.912   6.068   2.389 -0.0261  0.1192 -0.1914
 7433SOL    HW223199   6.037   5.963   2.392 -1.3482 -1.5442 -1.1629
 7434SOL     OW23200   0.614   2.522   3.749  0.1018  0.1725  0.3047
 7434SOL    HW123201   0.637   2.453   3.680 -0.7476  1.1403 -0.9931
 7434SOL    HW223202   0.698   2.562   3.785  0.5516  0.3809 -0.9390
 7435SOL     OW23203   5.637   4.880   5.583  0.0232 -0.2092  0.4352
 7435SOL    HW123204   5.702   4.861   5.657 -2.6230 -0.1291  2.9480
 7435SOL    HW223205   5.572   4.804   5.576 -1.2928  0.9156 -0.0425
 7436SOL     OW23206   1.213   2.443   0.228 -0.3380  0.4057 -0.4782
 7436SOL    HW123207   1.194   2.489   0.141  0.9222 -0.0530 -1.0267
 7436SOL    HW223208   1.157   2.360   0.234 -0.7563  0.6713 -0.6494
 7437SOL     OW23209   4.983   6.160   6.017  0.3514 -0.1913 -0.7164
 7437SOL    HW123210   4.921   6.199   6.086 -0.1826 -0.1849 -1.1892
 7437SOL    HW223211   5.019   6.073   6.050  0.5887  0.1124 -0.1680
 7438SOL     OW23212   5.308   5.219   3.361  0.1088 -0.1187 -0.0922
 7438SOL    HW123213   5.401   5.219   3.323 -0.0600  0.0054 -0.4983
 7438SOL    HW223214   5.280   5.312   3.381 -0.0258 -0.1368 -0.1991
 7439SOL     OW23215   4.692   3.009   1.494 -0.1403 -0.0608  0.0368
 7439SOL    HW123216   4.623   3.029   1.564  0.2469  1.1628  0.0942
 7439SOL    HW223217   4.689   3.080   1.424  0.1476 -0.7432 -0.6877
 7440SOL     OW23218   6.653   1.845   6.046  0.6416  0.2877 -0.1912
 7440SOL    HW123219   6.641   1.875   5.951  0.8812  0.2517 -0.2315
 7440SOL    HW223220   6.620   1.916   6.108 -0.8460 -0.2556 -0.3185
 7441SOL     OW23221   1.803   1.884   6.697 -0.5163  0.1074  0.0459
 7441SOL    HW123222   1.724   1.943   6.710 -0.4618  0.1511  0.1823
 7441SOL    HW223223   1.881   1.939   6.667 -0.0315  0.3674  1.6691
 7442SOL     OW23224   4.742   6.705   1.361 -0.1496 -0.3432  0.1477
 7442SOL    HW123225   4.656   6.732   1.404 -0.0460  1.1392 -0.4995
 7442SOL    HW223226   4.813   6.701   1.432 -0.1212  1.4366  0.2827
 7443SOL     OW23227   1.521   6.323   2.794  0.0787  0.2539  0.0035
 7443SOL    HW123228   1.522   6.420   2.817 -2.2395 -0.0942  2.0142
 7443SOL    HW223229   1.591   6.276   2.848  2.6159  0.9399 -2.4257
 7444SOL     OW23230   2.030   0.470   4.485  0.5527  0.1294 -0.0608
 7444SOL    HW123231   1.972   0.541   4.444 -0.3706 -0.9925 -0.7319
 7444SOL    HW223232   2.013   0.466   4.584 -0.2632  0.0517 -0.1980
 7445SOL     OW23233   0.887   6.443   1.884 -0.3444 -0.3674  0.2184
 7445SOL    HW123234   0.912   6.534   1.851 -1.0309 -0.7776 -1.5063
 7445SOL    HW223235   0.969   6.396   1.916  0.2587  0.2637 -0.3770
 7446SOL     OW23236   2.712   5.182   3.412 -0.2268  0.3498  0.0597
 7446SOL    HW123237   2.701   5.271   3.456 -0.0492  1.4034 -1.9654
 7446SOL    HW223238   2.808   5.153   3.418 -0.1880  0.5158  0.2522
 7447SOL     OW23239   0.379   3.256   5.261  0.2654  0.2389 -0.5050
 7447SOL    HW123240   0.345   3.162   5.249 -0.1217  0.3728 -0.4814
 7447SOL    HW223241   0.344   3.293   5.347  2.2632 -0.3801  0.6278
 7448SOL     OW23242   4.134   0.233   6.503  0.2660  0.3563  0.1611
 7448SOL    HW123243   4.161   0.215   6.408  0.1714  0.5382  0.0982
 7448SOL    HW223244   4.035   0.219   6.512  0.3545 -0.1396  0.3478
 7449SOL     OW23245   5.336   2.279   0.109 -0.5655  0.0402  0.2995
 7449SOL    HW123246   5.381   2.334   0.179  0.6383 -0.6218  0.0835
 7449SOL    HW223247   5.327   2.332   0.025 -1.2510  0.5588  0.6949
 7450SOL     OW23248   6.773   6.164   6.775 -0.2911  0.0138 -0.3512
 7450SOL    HW123249   6.688   6.205   6.743  0.0378 -1.1589 -2.9858
 7450SOL    HW223250   6.752   6.091   6.841 -1.2997 -0.0806 -0.7595
 7451SOL     OW23251   0.602   0.639   3.717  0.6039  0.2278 -0.0396
 7451SOL    HW123252   0.580   0.687   3.801 -1.9079 -1.6152  0.4909
 7451SOL    HW223253   0.521   0.635   3.658  0.0460 -4.3722  0.6125
 7452SOL     OW23254   2.832   1.783   4.968  0.8053 -0.1527  0.4400
 7452SOL    HW123255   2.917   1.837   4.968  0.0135  1.3084  3.2966
 7452SOL    HW223256   2.834   1.718   5.043 -0.7256  0.1583  0.7883
 7453SOL     OW23257   4.903   5.051   2.134  0.3502  0.1159  0.5806
 7453SOL    HW123258   4.961   5.130   2.114  1.8445 -1.0600  0.0885
 7453SOL    HW223259   4.953   4.966   2.114 -1.5544 -0.9595  0.0977
 7454SOL     OW23260   4.465   1.058   2.546 -0.5992  0.2301  0.1870
 7454SOL    HW123261   4.538   1.123   2.524  0.1488 -0.4507  0.6157
 7454SOL    HW223262   4.485   1.013   2.633 -1.0025 -0.7304 -0.2012
 7455SOL     OW23263   1.319   5.400   6.573 -0.3469  0.0909 -0.2956
 7455SOL    HW123264   1.341   5.320   6.629 -2.8362 -0.2638  0.3030
 7455SOL    HW223265   1.345   5.483   6.622  1.4787 -0.2889 -0.5565
 7456SOL     OW23266   0.863   1.896   0.426  0.1235  0.1066 -0.4148
 7456SOL    HW123267   0.830   1.871   0.335 -0.5069 -0.0311 -0.1583
 7456SOL    HW223268   0.932   1.831   0.456  0.0876 -0.0446 -0.6590
 7457SOL     OW23269   1.250   2.456   2.209 -0.1871  0.1104  0.1703
 7457SOL    HW123270   1.347   2.441   2.229 -0.4385 -1.1116  0.5356
 7457SOL    HW223271   1.194   2.408   2.276 -1.0635 -2.0503 -1.9536
 7458SOL     OW23272   2.317   3.940   5.797  0.1717 -0.2067  0.3221
 7458SOL    HW123273   2.327   3.840   5.787 -0.6098 -0.2998  0.3954
 7458SOL    HW223274   2.405   3.980   5.819  0.4165 -0.9398  0.7174
 7459SOL     OW23275   2.163   1.458   0.262  0.1417  0.0326 -0.1699
 7459SOL    HW123276   2.186   1.374   0.213 -2.0421 -0.4501 -0.4554
 7459SOL    HW223277   2.147   1.436   0.358  2.3142  0.6409  0.4049
 7460SOL     OW23278   6.228   0.726   5.561 -0.0379 -0.1439  0.0007
 7460SOL    HW123279   6.147   0.758   5.512  0.0630 -0.8696 -0.6508
 7460SOL    HW223280   6.201   0.696   5.653 -0.7562 -1.6458 -0.6674
 7461SOL     OW23281   5.017   5.849   4.002  0.8356  0.4622  0.2098
 7461SOL    HW123282   5.025   5.946   3.977  0.2366  0.4435 -0.0641
 7461SOL    HW223283   5.109   5.811   4.016  1.1438  0.7160 -1.0340
 7462SOL     OW23284   4.222   5.242   0.969  0.2559 -0.2115 -0.5981
 7462SOL    HW123285   4.166   5.319   0.940  0.3881 -0.6233 -2.0193
 7462SOL    HW223286   4.224   5.173   0.897  3.0778  0.0549 -0.8770
 7463SOL     OW23287   3.580   1.753   5.167  0.3409 -0.1621  0.3442
 7463SOL    HW123288   3.516   1.758   5.091  0.7505 -1.8195 -0.1566
 7463SOL    HW223289   3.663   1.803   5.144  0.3678 -0.4564 -0.2061
 7464SOL     OW23290   5.821   3.292   3.218  0.1790  0.0307 -0.8607
 7464SOL    HW123291   5.877   3.357   3.167  0.6007  0.0008 -0.4376
 7464SOL    HW223292   5.775   3.231   3.153  1.5619 -0.7154 -1.1918
 7465SOL     OW23293   7.016   3.439   1.442  0.3919  0.2742  0.2564
 7465SOL    HW123294   7.042   3.476   1.352 -1.2765 -0.1408 -0.4353
 7465SOL    HW223295   6.922   3.465   1.462  0.0111 -1.4692  0.8929
 7466SOL     OW23296   4.037   2.603   6.478  0.1680 -0.3840 -0.3659
 7466SOL    HW123297   4.109   2.620   6.546 -0.2115 -1.1221  0.2315
 7466SOL    HW223298   3.988   2.688   6.459 -0.2623 -0.3280  0.9105
 7467SOL     OW23299   3.964   1.082   5.840  0.1310  0.3099 -0.3081
 7467SOL    HW123300   4.058   1.076   5.806  0.3045  0.7392  0.0870
 7467SOL    HW223301   3.902   1.046   5.771  0.7006 -1.4650  0.0318
 7468SOL     OW23302   3.940   2.115   4.163  0.2388 -0.1571  0.5011
 7468SOL    HW123303   3.970   2.126   4.257  2.2308  1.3704 -0.2354
 7468SOL    HW223304   3.845   2.085   4.161 -0.0534  0.4508  2.9750
 7469SOL     OW23305   0.196   6.719   5.668 -0.0144 -0.1335  0.0594
 7469SOL    HW123306   0.276   6.659   5.678  1.8504  1.8537 -1.8676
 7469SOL    HW223307   0.221   6.800   5.616 -3.3453  0.6181 -0.6284
 7470SOL     OW23308   1.973   0.146   1.101 -0.6091 -0.0768 -0.2586
 7470SOL    HW123309   1.971   0.240   1.135 -1.8593 -0.0958 -0.2417
 7470SOL    HW223310   1.901   0.093   1.145 -0.6341 -0.7563 -1.0912
 7471SOL     OW23311   1.582   4.980   1.467  0.3405 -0.0000  0.1269
 7471SOL    HW123312   1.532   5.045   1.411  0.3975 -0.3562 -0.3440
 7471SOL    HW223313   1.517   4.923   1.518  0.2070 -1.1370 -1.2483
 7472SOL     OW23314   2.749   5.003   2.905 -0.0273 -0.0334 -0.1747
 7472SOL    HW123315   2.650   5.000   2.889  0.1557 -1.0873 -1.2904
 7472SOL    HW223316   2.789   5.074   2.847  0.0432 -0.6260 -0.8649
 7473SOL     OW23317   6.799   6.335   3.819 -0.4286  0.1308  0.1613
 7473SOL    HW123318   6.712   6.306   3.861 -0.1285 -0.2184  0.5526
 7473SOL    HW223319   6.788   6.337   3.719 -0.8809  0.0697  0.2051
 7474SOL     OW23320   4.277   4.998   0.337 -0.0776 -0.4619 -0.6198
 7474SOL    HW123321   4.246   5.092   0.321 -1.1716 -0.8113 -0.6736
 7474SOL    HW223322   4.211   4.934   0.297  0.4019 -1.2661 -0.1581
 7475SOL     OW23323   3.402   3.730   0.293  0.0543  0.0593 -0.5210
 7475SOL    HW123324   3.444   3.672   0.223  1.0205  0.8219 -0.6088
 7475SOL    HW223325   3.472   3.756   0.359 -1.4127 -3.3487  2.7295
 7476SOL     OW23326   5.473   1.253   3.780  0.0531  0.6207 -0.7650
 7476SOL    HW123327   5.386   1.241   3.733  0.4220 -0.3477 -1.2169
 7476SOL    HW223328   5.467   1.333   3.840 -1.3185  0.2681 -0.3866
 7477SOL     OW23329   1.971   0.014   3.663  0.1086 -0.1014  0.4612
 7477SOL    HW123330   2.012   0.087   3.609  2.2808 -1.2736  0.4214
 7477SOL    HW223331   1.964  -0.069   3.607 -2.3096 -0.0042  0.4997
 7478SOL     OW23332   3.059   6.879   6.868 -0.5073  0.2204 -0.0581
 7478SOL    HW123333   3.085   6.858   6.962 -1.0868  0.6928  0.2119
 7478SOL    HW223334   3.088   6.805   6.808 -1.5314 -0.8399  0.7148
 7479SOL     OW23335   3.551   0.435   1.024  0.4070  0.4696 -0.3467
 7479SOL    HW123336   3.547   0.383   0.939  2.6381 -0.2344 -0.0809
 7479SOL    HW223337   3.543   0.372   1.102 -1.7487  1.1178  0.0176
 7480SOL     OW23338   5.371   3.109   6.555  0.2312  0.5998  0.0208
 7480SOL    HW123339   5.427   3.029   6.532  0.5813  1.0532 -0.7435
 7480SOL    HW223340   5.286   3.079   6.598  0.3934 -0.1832 -0.1887
 7481SOL     OW23341   4.814   6.976   6.685 -0.0445 -0.5098 -0.5812
 7481SOL    HW123342   4.745   7.024   6.630  0.1069 -0.6455 -0.8942
 7481SOL    HW223343   4.879   6.930   6.624  1.4722  1.1948 -0.3485
 7482SOL     OW23344   0.256   2.517   4.750 -0.5429 -0.8208  0.2892
 7482SOL    HW123345   0.270   2.612   4.777  0.5343 -0.8375 -0.1517
 7482SOL    HW223346   0.184   2.477   4.806 -0.7631  0.1517  0.7238
 7483SOL     OW23347   1.286   0.839   3.517 -0.0953 -0.2505 -0.1546
 7483SOL    HW123348   1.332   0.859   3.430 -3.3067  4.0125 -1.2240
 7483SOL    HW223349   1.204   0.786   3.500 -0.2889 -0.1294  0.3950
 7484SOL     OW23350   3.898   0.261   3.025 -0.2512 -0.2824  0.0920
 7484SOL    HW123351   3.990   0.235   3.054 -0.4620 -1.2958 -0.0849
 7484SOL    HW223352   3.903   0.324   2.948  0.3205 -1.5419 -0.9457
 7485SOL     OW23353   6.763   2.923   6.007 -0.3458  0.0331 -0.0171
 7485SOL    HW123354   6.794   2.931   6.102 -1.0089 -1.8247  0.3954
 7485SOL    HW223355   6.716   2.836   5.994  1.6209 -0.8002 -2.5737
 7486SOL     OW23356   2.562   0.292   6.797 -0.3607 -0.0672  0.1750
 7486SOL    HW123357   2.463   0.294   6.779 -0.5390 -1.3169  0.9533
 7486SOL    HW223358   2.587   0.375   6.847 -0.9886  0.3176 -0.1239
 7487SOL     OW23359   1.682   4.504   1.615  0.8854 -0.1667  0.4881
 7487SOL    HW123360   1.601   4.504   1.555  1.6228 -0.0814 -0.5470
 7487SOL    HW223361   1.681   4.584   1.673  0.8887  0.5544 -0.4755
 7488SOL     OW23362   3.698   1.943   4.847  0.1685  0.4003  0.4137
 7488SOL    HW123363   3.732   2.002   4.774 -0.2623 -0.1635 -0.2526
 7488SOL    HW223364   3.598   1.940   4.844  0.1223  0.6938  1.2898
 7489SOL     OW23365   4.779   0.802   4.188 -0.6815 -0.3858  0.0785
 7489SOL    HW123366   4.780   0.901   4.200 -1.5985 -0.4889  1.2108
 7489SOL    HW223367   4.873   0.768   4.178 -0.0999  0.2881  2.6697
 7490SOL     OW23368   6.528   1.850   4.500  0.1534 -0.1734 -0.1242
 7490SOL    HW123369   6.505   1.809   4.589  1.4322  0.1667  0.3882
 7490SOL    HW223370   6.531   1.778   4.430 -0.2802 -0.5367  0.2195
 7491SOL     OW23371   1.209   3.122   3.036  0.0061  0.1347  0.1637
 7491SOL    HW123372   1.236   3.139   2.942  1.3123  0.2318  0.5378
 7491SOL    HW223373   1.245   3.194   3.095 -0.4523 -0.1378  0.7960
 7492SOL     OW23374   2.226   2.882   2.085  0.6112 -0.2712 -0.1168
 7492SOL    HW123375   2.318   2.906   2.056  1.1123 -2.1002 -0.1818
 7492SOL    HW223376   2.160   2.911   2.016  1.0743  1.4535  0.1404
 7493SOL     OW23377   4.525   1.111   0.464  0.2296 -0.3226  0.3943
 7493SOL    HW123378   4.588   1.144   0.534  0.7450  1.7828 -0.9553
 7493SOL    HW223379   4.431   1.136   0.488  0.3520 -0.0383  0.5723
 7494SOL     OW23380   2.181   0.555   2.533  0.4607 -0.3752  0.0717
 7494SOL    HW123381   2.127   0.537   2.615  0.7532 -0.2806  0.2858
 7494SOL    HW223382   2.138   0.629   2.480  1.5543  1.2385  1.3605
 7495SOL     OW23383   1.951   6.928   1.522 -0.0080 -1.0183  0.6203
 7495SOL    HW123384   2.015   6.851   1.526  1.0985 -0.1015  1.1195
 7495SOL    HW223385   1.905   6.928   1.433  0.1833 -2.0813  0.5095
 7496SOL     OW23386   6.381   4.636   4.885  0.5693 -0.2944  0.0556
 7496SOL    HW123387   6.480   4.625   4.896  0.8006  1.5573  0.0704
 7496SOL    HW223388   6.363   4.711   4.822 -0.8229  0.3705  1.1962
 7497SOL     OW23389   6.675   3.065   0.603  0.2629  0.0545  0.1552
 7497SOL    HW123390   6.654   3.082   0.699  1.3220  2.4318  0.0267
 7497SOL    HW223391   6.592   3.075   0.548  0.0136  0.4834  0.6120
 7498SOL     OW23392   0.427   2.344   5.145 -0.5378 -0.7527 -0.0383
 7498SOL    HW123393   0.501   2.411   5.142 -0.0367 -1.3197 -1.2886
 7498SOL    HW223394   0.464   2.254   5.170 -0.4824 -1.3664 -2.1375
 7499SOL     OW23395   5.507   1.936   2.251 -0.0515 -0.4346  0.0053
 7499SOL    HW123396   5.506   2.000   2.175 -0.2567 -0.3433  0.0850
 7499SOL    HW223397   5.601   1.916   2.277  0.0146 -0.3187 -0.1465
 7500SOL     OW23398   1.863   2.529   5.067  0.1200 -0.0434  0.0664
 7500SOL    HW123399   1.864   2.570   5.158 -0.1059 -1.0333  0.5241
 7500SOL    HW223400   1.956   2.519   5.034  0.1897  0.5809  0.0672
 7501SOL     OW23401   6.732   6.269   3.540 -0.3542  0.6393 -0.4597
 7501SOL    HW123402   6.704   6.176   3.521 -0.0640  0.3937  0.2656
 7501SOL    HW223403   6.656   6.332   3.523 -0.6690  0.2286 -0.5721
 7502SOL     OW23404   6.805   2.665   7.002 -0.2039 -0.1106  0.5942
 7502SOL    HW123405   6.769   2.661   7.095 -1.5780 -1.4293  0.0433
 7502SOL    HW223406   6.739   2.709   6.942  0.1644 -0.3294  0.0163
 7503SOL     OW23407   4.668   2.692   4.083  0.4023  0.1565 -0.6510
 7503SOL    HW123408   4.685   2.746   4.165 -0.7626  0.4195 -0.5683
 7503SOL    HW223409   4.702   2.741   4.003  0.2021  0.5802 -0.4788
 7504SOL     OW23410   3.686   1.872   4.519  0.4859 -0.3939 -0.4858
 7504SOL    HW123411   3.714   1.956   4.565 -0.3908 -0.1927 -0.2886
 7504SOL    HW223412   3.616   1.894   4.451  0.5933 -0.9070 -0.7639
 7505SOL     OW23413   5.388   2.492   1.423 -0.4556  0.8749  0.7919
 7505SOL    HW123414   5.463   2.436   1.388 -0.8925  0.7740 -0.0045
 7505SOL    HW223415   5.424   2.579   1.456 -0.0921  1.2460 -0.5320
 7506SOL     OW23416   5.330   6.652   3.450  0.3547  0.7227 -0.0264
 7506SOL    HW123417   5.334   6.699   3.538  1.5214  0.0196  0.3253
 7506SOL    HW223418   5.325   6.719   3.376  0.9753  1.3745  0.5082
 7507SOL     OW23419   4.678   4.553   1.151 -0.1734  0.1462  0.1894
 7507SOL    HW123420   4.717   4.574   1.240 -0.0784 -1.9501  0.6919
 7507SOL    HW223421   4.678   4.454   1.137 -0.8717  0.3833 -1.8357
 7508SOL     OW23422   5.432   0.964   6.940 -0.8146 -0.1730  0.0507
 7508SOL    HW123423   5.333   0.952   6.955 -0.9428 -0.7412 -1.1547
 7508SOL    HW223424   5.463   1.045   6.990 -1.3303 -1.4958  2.7232
 7509SOL     OW23425   1.854   1.833   1.884 -0.7521 -0.1391  0.4969
 7509SOL    HW123426   1.865   1.923   1.843 -0.6133 -0.6168 -0.5375
 7509SOL    HW223427   1.827   1.843   1.980  0.7520  1.0183  0.8414
 7510SOL     OW23428   0.702   2.401   3.074 -0.1079 -0.1617  0.1726
 7510SOL    HW123429   0.667   2.406   2.980 -0.7775 -0.8135  0.3815
 7510SOL    HW223430   0.774   2.470   3.086 -0.5883  0.4894 -0.5742
 7511SOL     OW23431   6.786   3.214   0.174  0.6829 -0.4757  0.0869
 7511SOL    HW123432   6.799   3.257   0.264 -0.5447 -0.9095  0.4993
 7511SOL    HW223433   6.871   3.219   0.122  0.4603  3.0283 -0.1560
 7512SOL     OW23434   3.994   3.247   5.643  0.7499 -0.3101 -0.0336
 7512SOL    HW123435   3.948   3.246   5.554 -1.0393  0.6819  0.8347
 7512SOL    HW223436   3.951   3.179   5.703 -0.7079  1.6839  1.2835
 7513SOL     OW23437   0.718   0.027   2.505  0.0637 -1.2587  0.4078
 7513SOL    HW123438   0.742   0.013   2.409  1.4164  0.2706  0.4838
 7513SOL    HW223439   0.634   0.080   2.511  1.1842  0.6703 -0.0171
 7514SOL     OW23440   4.546   0.285   6.788 -0.5598  0.3801 -0.4204
 7514SOL    HW123441   4.629   0.254   6.742  0.1948  0.5809  0.7443
 7514SOL    HW223442   4.484   0.327   6.722  0.4314  0.5767 -1.2453
 7515SOL     OW23443   6.036   4.337   1.307  0.4281 -0.3540  0.5474
 7515SOL    HW123444   6.037   4.423   1.359  0.3736  0.3155 -0.5156
 7515SOL    HW223445   6.017   4.357   1.210 -2.2686 -1.7804  0.6724
 7516SOL     OW23446   4.450   0.757   0.698  0.3552 -0.8997  0.4534
 7516SOL    HW123447   4.443   0.717   0.607  0.9154 -0.6479  0.2927
 7516SOL    HW223448   4.545   0.783   0.716  0.1149 -0.2117  0.7887
 7517SOL     OW23449   0.364   2.978   5.098 -0.4923  0.5827 -0.1911
 7517SOL    HW123450   0.275   2.933   5.109 -1.2176  2.2929  1.6578
 7517SOL    HW223451   0.363   3.037   5.017 -0.7539 -0.0242 -0.6311
 7518SOL     OW23452   5.841   6.289   0.913  0.4448  0.1184  0.8885
 7518SOL    HW123453   5.751   6.273   0.953 -0.2865 -0.2440 -0.8008
 7518SOL    HW223454   5.888   6.362   0.963 -1.0447  0.7712  1.3920
 7519SOL     OW23455   2.346   6.319   5.236 -0.1410  0.4283 -0.6656
 7519SOL    HW123456   2.406   6.265   5.295 -0.1339  1.2319  0.0790
 7519SOL    HW223457   2.401   6.368   5.168 -0.0920 -0.0063 -0.9411
 7520SOL     OW23458   5.689   2.569   6.794  0.8930  0.1033 -0.0492
 7520SOL    HW123459   5.648   2.631   6.861 -0.7218 -1.8595  0.8705
 7520SOL    HW223460   5.646   2.583   6.705  0.0094 -0.1938  0.3257
 7521SOL     OW23461   1.375   2.838   2.355 -0.0189  0.4496 -0.0867
 7521SOL    HW123462   1.352   2.907   2.287  1.2612  0.6468 -0.3505
 7521SOL    HW223463   1.474   2.836   2.368 -0.2154  0.2056  1.5585
 7522SOL     OW23464   5.674   6.530   3.115  0.3243  0.2488 -0.2685
 7522SOL    HW123465   5.657   6.456   3.180  0.1899  0.7074  0.2286
 7522SOL    HW223466   5.750   6.586   3.147 -0.1271  0.8292 -0.1965
 7523SOL     OW23467   6.197   6.675   4.141 -0.3278 -0.4042 -0.1913
 7523SOL    HW123468   6.181   6.645   4.236 -0.7685 -3.5194 -1.1204
 7523SOL    HW223469   6.114   6.661   4.088  0.2880  0.1477 -1.3224
 7524SOL     OW23470   1.787   0.395   6.239 -0.1856  0.1371 -0.4123
 7524SOL    HW123471   1.712   0.379   6.304 -1.1579 -0.7139 -1.6901
 7524SOL    HW223472   1.790   0.320   6.173  0.6154  1.1020 -1.4974
 7525SOL     OW23473   0.330   0.038   6.101  0.1250  0.3565  0.0182
 7525SOL    HW123474   0.296   0.113   6.045  2.7812  0.5206 -1.5424
 7525SOL    HW223475   0.414   0.067   6.148  0.8487 -1.4127 -0.0953
 7526SOL     OW23476   3.546   2.551   5.379  0.6384  0.4213 -0.0738
 7526SOL    HW123477   3.539   2.645   5.347 -1.1862  0.4846  0.4007
 7526SOL    HW223478   3.497   2.490   5.317  2.6418 -0.3942 -0.9270
 7527SOL     OW23479   6.408   1.699   4.720 -0.7828  0.0264 -0.6210
 7527SOL    HW123480   6.390   1.607   4.756 -1.9242  0.9471  1.2887
 7527SOL    HW223481   6.331   1.759   4.741  0.5808  1.8067 -0.4878
 7528SOL     OW23482   3.492   4.956   5.929 -0.4590 -0.1709  0.1145
 7528SOL    HW123483   3.589   4.942   5.908 -0.4567  0.2023 -0.1251
 7528SOL    HW223484   3.459   4.879   5.984 -0.5512 -1.3559 -1.5199
 7529SOL     OW23485   2.178   2.921   5.243 -0.3023 -0.4995  0.0503
 7529SOL    HW123486   2.207   2.868   5.324 -0.8988  1.5441  1.6716
 7529SOL    HW223487   2.257   2.968   5.205 -0.5793  1.4388  1.7189
 7530SOL     OW23488   0.272   3.975   0.729 -0.1289 -0.1852 -0.4272
 7530SOL    HW123489   0.226   3.935   0.809  0.6852  1.1581  0.7552
 7530SOL    HW223490   0.218   4.052   0.696 -0.1481 -0.3616 -0.8102
 7531SOL     OW23491   1.690   1.605   0.201  0.1604  0.3004 -0.2621
 7531SOL    HW123492   1.762   1.538   0.220 -0.2252  0.4489  1.9511
 7531SOL    HW223493   1.724   1.697   0.221 -1.0287  0.2629  2.4342
 7532SOL     OW23494   4.288   0.593   2.354  0.0869  0.0482  0.1264
 7532SOL    HW123495   4.189   0.599   2.370 -0.3394  0.2767 -2.2892
 7532SOL    HW223496   4.336   0.636   2.431 -1.7338  0.9896  0.8116
 7533SOL     OW23497   5.156   1.532   0.162 -0.1361  0.4952 -0.3754
 7533SOL    HW123498   5.161   1.630   0.183  0.2690  0.2888  0.5620
 7533SOL    HW223499   5.064   1.510   0.130 -0.4086  1.0809 -0.0261
 7534SOL     OW23500   3.279   0.672   1.965  1.2736  0.7585  0.3210
 7534SOL    HW123501   3.373   0.679   2.000  1.0110  2.7435  0.7496
 7534SOL    HW223502   3.214   0.694   2.038  0.3946 -1.0141  0.1520
 7535SOL     OW23503   2.463   4.297   1.731 -0.4588 -0.1205  0.3446
 7535SOL    HW123504   2.435   4.301   1.827 -0.4278 -0.7135  0.3863
 7535SOL    HW223505   2.383   4.308   1.672 -0.6024 -0.5705  0.4504
 7536SOL     OW23506   1.637   0.973   5.665  0.4380  0.0639  0.2118
 7536SOL    HW123507   1.689   0.965   5.750  0.2882  1.8712  0.5109
 7536SOL    HW223508   1.540   0.979   5.687  0.4747  1.7135  0.0361
 7537SOL     OW23509   3.276   3.623   0.559 -0.3135  0.2435 -0.0136
 7537SOL    HW123510   3.181   3.650   0.550 -0.5013 -0.4291 -0.1354
 7537SOL    HW223511   3.319   3.621   0.468 -0.2817  0.2159  0.0018
 7538SOL     OW23512   4.358   4.748   2.071  0.1244 -0.2748 -0.4326
 7538SOL    HW123513   4.334   4.697   2.153  3.1010  2.8111  2.6529
 7538SOL    HW223514   4.299   4.828   2.063 -0.2013 -0.5986 -1.3953
 7539SOL     OW23515   1.128   6.617   4.911  0.4568  0.2186 -0.0483
 7539SOL    HW123516   1.224   6.601   4.892  0.7562  1.4183  0.3399
 7539SOL    HW223517   1.085   6.533   4.945  1.6885  0.0055  1.0490
 7540SOL     OW23518   3.393   2.440   6.926 -0.6690 -0.4843 -0.4215
 7540SOL    HW123519   3.304   2.447   6.972 -0.5239  0.1314 -0.2165
 7540SOL    HW223520   3.390   2.495   6.842 -1.1535 -2.1421 -1.5325
 7541SOL     OW23521   5.109   3.063   6.668  0.2323 -0.1854 -0.1895
 7541SOL    HW123522   5.011   3.070   6.649 -0.1822  0.8671  2.0165
 7541SOL    HW223523   5.128   3.100   6.759  2.6891 -0.4304 -0.5383
 7542SOL     OW23524   5.170   6.614   1.690  0.3896  0.1057 -0.0952
 7542SOL    HW123525   5.151   6.705   1.653  0.8583  0.7298  1.1143
 7542SOL    HW223526   5.269   6.599   1.693  0.3352 -0.2203  0.1901
 7543SOL     OW23527   5.061   6.712   3.659 -0.0397 -0.2926 -0.4487
 7543SOL    HW123528   5.065   6.612   3.661  0.2410 -0.3044  2.3411
 7543SOL    HW223529   5.151   6.749   3.680 -0.6486  0.4835  0.8858
 7544SOL     OW23530   6.630   6.927   4.983 -0.4466  0.7770 -0.4592
 7544SOL    HW123531   6.589   6.892   5.067  0.7044 -0.1801 -0.2761
 7544SOL    HW223532   6.710   6.983   5.005 -0.7749  1.4332 -0.8797
 7545SOL     OW23533   5.237   3.852   0.245 -0.1853 -0.1496  0.3197
 7545SOL    HW123534   5.279   3.941   0.230 -2.0055  0.3787 -2.3574
 7545SOL    HW223535   5.149   3.863   0.292 -0.0587 -0.6200  0.6774
 7546SOL     OW23536   2.713   1.597   1.336 -0.4932 -0.0980 -0.2512
 7546SOL    HW123537   2.771   1.526   1.296 -0.3634 -1.1652  1.6864
 7546SOL    HW223538   2.631   1.554   1.376 -1.2614  1.0616 -0.5331
 7547SOL     OW23539   1.456   0.942   1.929  0.0254  0.0482  0.0736
 7547SOL    HW123540   1.465   0.862   1.869 -0.0056  2.0538 -2.7849
 7547SOL    HW223541   1.359   0.960   1.946  0.0198 -0.2287  0.3542
 7548SOL     OW23542   2.908   0.977   0.648 -0.3418 -0.1621  0.7356
 7548SOL    HW123543   2.981   1.043   0.661  0.2899 -0.8029  0.5204
 7548SOL    HW223544   2.918   0.901   0.713 -1.7344  0.5030  1.7778
 7549SOL     OW23545   0.946   1.142   5.534  0.3758 -0.0101 -0.1464
 7549SOL    HW123546   0.879   1.083   5.578 -1.1647  0.8427 -1.2539
 7549SOL    HW223547   0.947   1.231   5.580 -0.5857  0.5770 -1.1975
 7550SOL     OW23548   5.670   6.411   4.935  1.2900 -0.1665  0.1061
 7550SOL    HW123549   5.706   6.458   4.855  1.1684 -0.6465 -0.2383
 7550SOL    HW223550   5.709   6.318   4.939  0.9349 -0.3066  0.3423
 7551SOL     OW23551   4.353   6.162   1.861 -0.4312 -0.1793  0.1977
 7551SOL    HW123552   4.267   6.124   1.898 -0.0766  0.0182  1.2773
 7551SOL    HW223553   4.382   6.239   1.918  0.6256 -0.4356  0.0266
 7552SOL     OW23554   6.113   5.761   3.881  0.4980  0.1874  0.1903
 7552SOL    HW123555   6.159   5.820   3.814 -1.0585 -0.5635 -1.6713
 7552SOL    HW223556   6.075   5.817   3.955 -0.8122  1.5873 -1.4453
 7553SOL     OW23557   4.297   0.052   2.137 -0.0217 -0.1677  0.1287
 7553SOL    HW123558   4.281  -0.025   2.075  1.0779  0.7825 -1.4234
 7553SOL    HW223559   4.349   0.021   2.216  0.4692 -1.0109 -0.5072
 7554SOL     OW23560   2.717   4.416   6.239 -0.6043 -0.0701 -0.6295
 7554SOL    HW123561   2.659   4.470   6.177 -0.9202  0.2822 -0.0299
 7554SOL    HW223562   2.671   4.405   6.327  0.7142  1.1938  0.2607
 7555SOL     OW23563   1.495   3.019   5.062  0.2003 -0.1755  0.2773
 7555SOL    HW123564   1.419   3.049   5.119  0.7824  0.2956  0.8211
 7555SOL    HW223565   1.518   2.925   5.086  0.9764  0.2813  1.4381
 7556SOL     OW23566   1.210   2.847   2.791  0.0077  0.5445  0.3612
 7556SOL    HW123567   1.151   2.783   2.840 -0.3428  0.9154  0.4303
 7556SOL    HW223568   1.155   2.925   2.758 -0.7668 -1.6474 -4.3530
 7557SOL     OW23569   4.690   6.971   5.701 -0.1923  0.1091  0.4053
 7557SOL    HW123570   4.623   7.031   5.658  0.3089  0.7453  0.5017
 7557SOL    HW223571   4.772   7.023   5.724  0.9850 -0.9712 -1.1660
 7558SOL     OW23572   6.022   2.360   0.222  0.2703 -0.1282  0.0894
 7558SOL    HW123573   6.014   2.456   0.197 -1.5905 -0.3705 -0.4258
 7558SOL    HW223574   6.052   2.307   0.142  0.9414 -0.0428  0.2757
 7559SOL     OW23575   3.637   4.303   1.168  0.4368  0.2497  0.0813
 7559SOL    HW123576   3.612   4.206   1.173 -1.5121  0.7482  3.6726
 7559SOL    HW223577   3.720   4.319   1.222 -1.1090  0.9559  2.3663
 7560SOL     OW23578   3.296   5.146   5.404  0.3652  0.4124 -0.0845
 7560SOL    HW123579   3.235   5.094   5.464 -1.2092  0.7163 -1.3410
 7560SOL    HW223580   3.300   5.241   5.434  0.0031  0.4484 -0.1456
 7561SOL     OW23581   2.991   5.250   5.466  0.1284 -0.8461  0.3348
 7561SOL    HW123582   2.978   5.268   5.369  0.3673 -0.2828  0.4005
 7561SOL    HW223583   3.053   5.172   5.478  1.3054  0.0069  0.0222
 7562SOL     OW23584   3.359   0.242   2.571 -0.0653  0.2557 -0.7817
 7562SOL    HW123585   3.314   0.167   2.618  0.5176  0.2397 -0.2399
 7562SOL    HW223586   3.453   0.215   2.547 -0.2255  0.3969 -1.6230
 7563SOL     OW23587   5.765   4.064   2.869  0.0565 -0.4343 -0.0020
 7563SOL    HW123588   5.859   4.093   2.847  0.1159 -1.1299 -0.7088
 7563SOL    HW223589   5.768   3.997   2.943 -0.0693  1.1835  1.5309
 7564SOL     OW23590   6.300   2.201   6.177 -0.7268 -0.1261 -0.4661
 7564SOL    HW123591   6.382   2.257   6.163  0.3501 -0.9716  1.9039
 7564SOL    HW223592   6.325   2.104   6.166 -1.4438 -0.3784  0.0831
 7565SOL     OW23593   6.609   6.575   2.041 -0.1042 -0.4609  0.1188
 7565SOL    HW123594   6.684   6.566   1.974 -0.1070 -1.7994  0.2739
 7565SOL    HW223595   6.523   6.591   1.993  0.1258  0.1728 -0.1028
 7566SOL     OW23596   3.416   6.630   3.118 -0.0584  0.7339  0.0622
 7566SOL    HW123597   3.420   6.536   3.152  0.3911  0.4440 -0.7539
 7566SOL    HW223598   3.323   6.665   3.127 -0.2336  0.2082  0.3684
 7567SOL     OW23599   5.011   3.964   0.378 -0.5511  0.0625  0.5077
 7567SOL    HW123600   5.063   4.033   0.427 -3.4056  1.9048  1.1916
 7567SOL    HW223601   4.947   3.919   0.441 -2.2875  0.4637 -0.8854
 7568SOL     OW23602   5.529   3.291   2.472 -0.4819 -0.0695  0.3367
 7568SOL    HW123603   5.518   3.285   2.373  0.3969 -0.2841  0.2350
 7568SOL    HW223604   5.524   3.199   2.512  0.2841 -0.1159  0.3450
 7569SOL     OW23605   4.578   4.435   4.905  0.8781  0.2571  0.4309
 7569SOL    HW123606   4.614   4.377   4.978  0.9335 -0.9462 -0.5099
 7569SOL    HW223607   4.486   4.467   4.930 -0.0272 -1.9202  0.1713
 7570SOL     OW23608   0.175   1.595   3.099  0.1147  0.3980  0.4652
 7570SOL    HW123609   0.165   1.517   3.161  1.3652 -1.4971 -1.5596
 7570SOL    HW223610   0.091   1.607   3.046  0.1127  0.0161  0.3766
 7571SOL     OW23611   0.045   5.039   1.687 -0.1629  0.1257 -0.0318
 7571SOL    HW123612  -0.026   5.033   1.617  0.1823 -1.5449 -0.2780
 7571SOL    HW223613   0.018   5.106   1.756 -1.5328  0.2083 -0.6205
 7572SOL     OW23614   0.919   3.614   1.244 -0.6681  0.4202 -0.3068
 7572SOL    HW123615   0.822   3.628   1.226 -0.9449 -1.2602 -0.2878
 7572SOL    HW223616   0.938   3.516   1.249  0.8821  0.7365  0.5455
 7573SOL     OW23617   1.800   1.293   5.143  0.0616  0.2596  0.7337
 7573SOL    HW123618   1.787   1.267   5.047  0.7093  0.6252  0.5471
 7573SOL    HW223619   1.768   1.386   5.157 -0.3003  0.1063  0.9409
 7574SOL     OW23620   5.967   6.921   1.946 -0.5247 -0.2722  0.1456
 7574SOL    HW123621   5.905   6.969   1.884  0.2443  0.2630 -0.2244
 7574SOL    HW223622   5.933   6.929   2.040 -2.4979 -2.3102 -0.2845
 7575SOL     OW23623   4.232   2.881   0.473  0.0728  0.6939 -0.5493
 7575SOL    HW123624   4.215   2.979   0.463 -0.6693  0.5408 -0.9270
 7575SOL    HW223625   4.224   2.837   0.384 -2.8289 -0.1585  0.0294
 7576SOL     OW23626   2.926   2.745   5.630 -0.0072  1.0857  0.0290
 7576SOL    HW123627   2.881   2.760   5.718  0.8491  1.2732  0.4557
 7576SOL    HW223628   2.994   2.818   5.615  0.0155  0.9263 -0.6770
 7577SOL     OW23629   2.151   0.576   1.169  0.0962  0.4836  0.5052
 7577SOL    HW123630   2.153   0.676   1.166 -0.8512  0.5686  1.8560
 7577SOL    HW223631   2.232   0.543   1.218  1.5865  0.4312 -1.8451
 7578SOL     OW23632   1.334   6.710   3.092  0.0328 -0.6011  0.3302
 7578SOL    HW123633   1.234   6.710   3.089 -0.3995  2.1004  4.7325
 7578SOL    HW223634   1.366   6.626   3.135 -0.1851 -1.6866 -1.5084
 7579SOL     OW23635   2.865   2.620   0.263  0.0898  0.2655 -0.3450
 7579SOL    HW123636   2.812   2.691   0.219 -0.4818 -0.4764 -0.8793
 7579SOL    HW223637   2.875   2.641   0.360  0.9222  1.6480 -0.7046
 7580SOL     OW23638   1.489   3.032   6.710  0.1507  0.5341  0.2407
 7580SOL    HW123639   1.563   3.092   6.680  0.3135  0.8212  1.1770
 7580SOL    HW223640   1.500   3.013   6.808 -1.0861  0.6858  0.4156
 7581SOL     OW23641   1.598   3.415   6.049  0.1657  0.4700  0.1051
 7581SOL    HW123642   1.696   3.430   6.063  0.1275 -0.6587  1.9390
 7581SOL    HW223643   1.575   3.321   6.073 -1.0537  0.0447 -2.3768
 7582SOL     OW23644   4.848   4.880   3.686  0.0221  0.0137 -0.0403
 7582SOL    HW123645   4.844   4.977   3.664  0.7598 -0.1164 -0.7734
 7582SOL    HW223646   4.870   4.828   3.604  2.9739 -0.4834  0.9667
 7583SOL     OW23647   6.088   3.085   5.146  0.5487 -0.5110 -0.2617
 7583SOL    HW123648   6.125   2.992   5.141 -0.9696 -1.1636 -0.0303
 7583SOL    HW223649   6.156   3.150   5.112  2.7072 -1.3787  2.0437
 7584SOL     OW23650   5.978   2.247   1.418 -0.3126 -0.0254  0.7525
 7584SOL    HW123651   5.908   2.248   1.490 -2.3734  1.6604 -1.1150
 7584SOL    HW223652   5.972   2.161   1.367  0.1797 -0.6175  1.6850
 7585SOL     OW23653   5.684   5.352   3.839 -0.5718 -0.3429  0.0946
 7585SOL    HW123654   5.742   5.400   3.904  0.0726 -1.0051  0.0202
 7585SOL    HW223655   5.639   5.276   3.886  1.1100 -1.7970 -0.5515
 7586SOL     OW23656   2.764   0.868   1.347  0.0245  0.4216 -0.4790
 7586SOL    HW123657   2.793   0.859   1.252  2.1269  1.3410  0.0207
 7586SOL    HW223658   2.716   0.784   1.375  2.5332 -1.4064 -1.3156
 7587SOL     OW23659   0.035   4.894   3.757 -0.7900 -0.2108  0.5101
 7587SOL    HW123660   0.084   4.827   3.702  0.3900 -0.2650  1.5876
 7587SOL    HW223661  -0.058   4.862   3.773  0.1080 -2.2905  2.0912
 7588SOL     OW23662   5.472   5.427   5.277 -0.2532 -0.4524  0.3957
 7588SOL    HW123663   5.462   5.491   5.353 -1.4006  0.6022 -0.6118
 7588SOL    HW223664   5.383   5.390   5.252  0.0882 -0.6686 -0.5535
 7589SOL     OW23665   3.334   6.803   1.232  0.1828 -0.1946  0.1663
 7589SOL    HW123666   3.356   6.733   1.164  0.0523 -1.6132  1.5320
 7589SOL    HW223667   3.339   6.894   1.189 -1.2009 -1.0838 -2.0673
 7590SOL     OW23668   2.659   0.277   5.253 -0.1124 -0.1096 -0.0444
 7590SOL    HW123669   2.705   0.188   5.253  0.3169  0.1111  0.3961
 7590SOL    HW223670   2.658   0.314   5.345  1.2332  1.1233 -0.4929
 7591SOL     OW23671   6.999   2.017   2.947 -0.8207 -0.2563 -0.5884
 7591SOL    HW123672   6.965   2.106   2.979 -1.7247 -0.7464 -0.1571
 7591SOL    HW223673   7.061   2.031   2.870 -0.9922  0.7501 -0.5584
 7592SOL     OW23674   1.196   1.985   3.102  0.3142 -0.2921  0.0806
 7592SOL    HW123675   1.116   1.986   3.162 -0.5424  1.1224 -1.0260
 7592SOL    HW223676   1.205   1.895   3.060 -1.1427 -0.2745 -0.3273
 7593SOL     OW23677   3.699   4.079   4.488  0.0258 -0.1395  0.1539
 7593SOL    HW123678   3.604   4.101   4.512  0.0372 -0.3932  0.4397
 7593SOL    HW223679   3.747   4.162   4.461 -0.5376 -0.1300 -0.9142
 7594SOL     OW23680   3.990   6.880   5.399 -0.4631  0.4639  0.0652
 7594SOL    HW123681   3.981   6.944   5.475  0.7555 -0.4509  1.0053
 7594SOL    HW223682   4.019   6.791   5.433  0.7451  0.2038 -1.5135
 7595SOL     OW23683   1.691   4.052   3.269  0.2237  0.0786 -0.3865
 7595SOL    HW123684   1.679   4.106   3.352  0.2470 -0.3516 -0.0993
 7595SOL    HW223685   1.781   4.070   3.229  0.8967 -0.9503  0.6000
 7596SOL     OW23686   2.477   5.520   6.212  0.6348  0.5076 -0.3244
 7596SOL    HW123687   2.474   5.542   6.114 -1.6850  0.9836 -0.1968
 7596SOL    HW223688   2.461   5.603   6.265  0.7279  0.0421  0.4501
 7597SOL     OW23689   1.183   2.414   2.917 -0.3301 -0.0103  0.2812
 7597SOL    HW123690   1.170   2.504   2.958 -2.3848 -0.3703  0.5331
 7597SOL    HW223691   1.175   2.344   2.987 -0.6632 -0.4767 -0.2134
 7598SOL     OW23692   1.097   1.238   2.105 -0.2137 -0.2564  0.1662
 7598SOL    HW123693   1.021   1.294   2.072 -1.2718 -1.3683  0.6588
 7598SOL    HW223694   1.072   1.194   2.191  1.3434  0.0798  0.8370
 7599SOL     OW23695   0.870   5.746   2.661  0.2099  0.5561  0.7559
 7599SOL    HW123696   0.920   5.669   2.620  0.4161 -0.0971  2.1672
 7599SOL    HW223697   0.934   5.804   2.712 -0.3267  0.1353  1.9498
 7600SOL     OW23698   5.686   6.999   0.914  0.7401  0.0070 -0.5296
 7600SOL    HW123699   5.658   7.027   0.822 -0.2467 -0.4560 -0.3812
 7600SOL    HW223700   5.676   7.075   0.977 -0.7163 -0.2802 -0.3787
 7601SOL     OW23701   1.477   3.516   0.760 -0.1029 -0.1749  0.2087
 7601SOL    HW123702   1.444   3.436   0.709  0.5983  0.0109 -0.5425
 7601SOL    HW223703   1.556   3.555   0.714  1.2602 -0.6679  2.0058
 7602SOL     OW23704   6.998   5.653   0.074  0.1652 -0.9677 -0.6641
 7602SOL    HW123705   6.955   5.628   0.160  0.5007  0.1200 -0.1596
 7602SOL    HW223706   6.930   5.700   0.016  0.7671  1.4712  0.4503
 7603SOL     OW23707   5.789   4.617   1.850  0.3814 -0.5052 -0.6077
 7603SOL    HW123708   5.876   4.575   1.876  0.7123 -0.3720 -1.4760
 7603SOL    HW223709   5.724   4.545   1.825  0.3218 -0.5925 -0.2027
 7604SOL     OW23710   6.391   2.432   6.729  0.3038  0.0673  0.1073
 7604SOL    HW123711   6.480   2.386   6.739 -0.0948 -0.4757  1.3604
 7604SOL    HW223712   6.322   2.364   6.702 -0.1983 -0.0277  1.5238
 7605SOL     OW23713   5.724   1.687   6.292  0.2245 -0.4126 -0.1725
 7605SOL    HW123714   5.814   1.679   6.335  0.1655  1.6914  0.4756
 7605SOL    HW223715   5.653   1.674   6.361  0.1158  1.7127  0.1736
 7606SOL     OW23716   4.016   4.842   5.084 -0.4231 -0.0555  0.5504
 7606SOL    HW123717   4.085   4.782   5.125  0.8542 -1.7692 -3.6290
 7606SOL    HW223718   3.929   4.831   5.133  0.4377 -3.3279  1.5848
 7607SOL     OW23719   0.173   0.341   1.731  0.4034 -0.1818 -0.0539
 7607SOL    HW123720   0.245   0.383   1.786  2.1925 -0.2713 -2.1600
 7607SOL    HW223721   0.087   0.343   1.781  1.6600  0.7364  2.2255
 7608SOL     OW23722   2.090   6.711   2.997 -0.0297 -0.2708 -0.0745
 7608SOL    HW123723   2.118   6.777   3.068  4.0383 -1.7484 -0.0251
 7608SOL    HW223724   2.085   6.758   2.909 -1.7398  0.9017  0.5850
 7609SOL     OW23725   5.056   6.185   6.986 -0.4219  0.1478  0.6055
 7609SOL    HW123726   5.006   6.102   7.011  0.7544 -0.2977  1.5319
 7609SOL    HW223727   5.007   6.265   7.021 -2.0385 -0.0412 -1.0493
 7610SOL     OW23728   0.634   4.111   2.849 -0.3012 -0.2046 -0.4529
 7610SOL    HW123729   0.645   4.176   2.925 -1.8622  1.1649 -1.3305
 7610SOL    HW223730   0.718   4.109   2.794 -0.4597  1.6895 -0.8385
 7611SOL     OW23731   3.804   4.568   0.527  0.0828  0.0190 -0.0567
 7611SOL    HW123732   3.810   4.666   0.509 -0.4820  0.0984  0.1643
 7611SOL    HW223733   3.747   4.552   0.607 -0.0588 -0.5080 -0.2561
 7612SOL     OW23734   2.886   4.504   6.040  0.2934  0.0333 -0.1131
 7612SOL    HW123735   2.819   4.491   6.113  0.8188  0.8777  0.5254
 7612SOL    HW223736   2.854   4.576   5.978  0.4508  0.2087  0.0081
 7613SOL     OW23737   4.663   2.252   2.356 -0.3094 -0.0182 -0.9467
 7613SOL    HW123738   4.738   2.185   2.363  0.0898  0.5400  0.2657
 7613SOL    HW223739   4.699   2.338   2.321 -0.3443  0.3080 -0.1850
 7614SOL     OW23740   4.948   5.067   1.004  0.7321  0.4258  0.1657
 7614SOL    HW123741   4.934   5.161   1.036 -1.9758  1.2208 -2.7881
 7614SOL    HW223742   4.912   5.003   1.071  0.0763  1.6577  1.0243
 7615SOL     OW23743   4.890   4.163   4.944  0.1502  0.1024 -0.4913
 7615SOL    HW123744   4.825   4.134   4.875  0.9433 -2.4745 -0.2663
 7615SOL    HW223745   4.975   4.193   4.900  0.4433 -0.9865 -0.7117
 7616SOL     OW23746   6.364   4.736   0.456 -0.3801  0.3153 -0.1109
 7616SOL    HW123747   6.441   4.695   0.506 -0.4961 -1.3309 -1.1994
 7616SOL    HW223748   6.385   4.736   0.358 -1.4534  0.5620 -0.3505
 7617SOL     OW23749   0.157   3.258   0.170  0.3516 -0.0756  0.2614
 7617SOL    HW123750   0.092   3.253   0.094  1.3951  2.6929 -0.9354
 7617SOL    HW223751   0.217   3.177   0.169 -2.3679 -2.2773  0.8996
 7618SOL     OW23752   4.114   6.383   3.983 -0.5596  0.4387  0.4122
 7618SOL    HW123753   4.064   6.297   3.992  1.4589 -0.7017  1.5217
 7618SOL    HW223754   4.077   6.451   4.047  0.9787 -1.2671  3.3112
 7619SOL     OW23755   0.854   4.661   0.683 -0.4406  0.4819 -0.4655
 7619SOL    HW123756   0.819   4.663   0.777  0.8641  1.8620  0.0415
 7619SOL    HW223757   0.920   4.587   0.674 -0.1773  0.6674 -0.1156
 7620SOL     OW23758   1.860   1.863   4.929 -0.2495 -0.0228  0.4554
 7620SOL    HW123759   1.945   1.829   4.889 -1.1738 -1.5300 -0.3204
 7620SOL    HW223760   1.792   1.789   4.931 -2.7306  1.9713 -2.2823
 7621SOL     OW23761   2.906   5.699   4.319 -0.3709 -0.4502  0.0225
 7621SOL    HW123762   2.840   5.664   4.386  0.0906  1.5183  1.5974
 7621SOL    HW223763   2.870   5.784   4.280 -0.3399 -1.2446 -1.8248
 7622SOL     OW23764   0.694   0.792   6.311  0.2796 -0.2858 -0.1183
 7622SOL    HW123765   0.764   0.730   6.274  2.4386  0.5185  2.3061
 7622SOL    HW223766   0.699   0.880   6.264  0.9288 -0.2378  0.0305
 7623SOL     OW23767   6.645   6.010   6.159 -0.1288 -0.4192  0.5384
 7623SOL    HW123768   6.652   6.105   6.130  2.3055  0.3082  3.0849
 7623SOL    HW223769   6.579   6.002   6.234 -0.0168 -0.6684  0.6143
 7624SOL     OW23770   4.576   5.547   5.442  0.2890  0.0757 -0.1935
 7624SOL    HW123771   4.562   5.474   5.509 -1.3459  1.9087  1.5935
 7624SOL    HW223772   4.662   5.594   5.462  1.0181 -0.8960 -0.9446
 7625SOL     OW23773   6.544   3.909   4.179  0.1374  0.9188 -0.4495
 7625SOL    HW123774   6.548   3.845   4.255 -2.1221 -0.3805 -1.3362
 7625SOL    HW223775   6.636   3.920   4.141  0.6279 -1.9286 -0.3223
 7626SOL     OW23776   6.963   1.224   0.581  0.3070 -0.3462 -0.0766
 7626SOL    HW123777   6.892   1.180   0.637  0.3210 -1.5649 -0.9650
 7626SOL    HW223778   7.025   1.153   0.546  0.9178  0.5150 -0.7608
 7627SOL     OW23779   5.352   2.703   6.450  0.2422 -0.2578  0.1727
 7627SOL    HW123780   5.391   2.620   6.410  0.0143  0.4223 -1.5301
 7627SOL    HW223781   5.253   2.692   6.461  0.4057 -0.7295  1.3318
 7628SOL     OW23782   4.415   6.872   6.458 -0.1530 -0.0345  0.0131
 7628SOL    HW123783   4.386   6.874   6.363 -2.3716  0.7949  0.6416
 7628SOL    HW223784   4.509   6.907   6.466 -0.4680  1.3000 -1.6821
 7629SOL     OW23785   5.992   2.410   4.625  0.1656  0.5531 -0.1258
 7629SOL    HW123786   5.916   2.470   4.650 -1.3805 -1.1770 -0.4583
 7629SOL    HW223787   5.995   2.399   4.526  0.0999 -0.3345 -0.0336
 7630SOL     OW23788   5.476   0.368   0.500 -0.4670  0.3398  0.4040
 7630SOL    HW123789   5.552   0.312   0.468 -0.8476 -0.2362  0.4886
 7630SOL    HW223790   5.397   0.309   0.520 -0.0988  0.5745  2.8780
 7631SOL     OW23791   1.009   2.943   3.096  0.0178 -0.4035  0.0028
 7631SOL    HW123792   0.939   3.008   3.123  0.3384 -0.9531  2.3759
 7631SOL    HW223793   1.091   2.993   3.066 -0.1105  0.2863  0.7701
 7632SOL     OW23794   2.825   1.716   5.293 -0.9206 -0.6681  0.0813
 7632SOL    HW123795   2.903   1.674   5.246 -1.0793  0.5673 -1.3696
 7632SOL    HW223796   2.741   1.668   5.266 -0.8101 -1.1749  0.6256
 7633SOL     OW23797   1.793   6.598   2.635 -0.8538  0.7496 -0.5635
 7633SOL    HW123798   1.880   6.551   2.622  0.1483  2.5320 -0.7344
 7633SOL    HW223799   1.734   6.543   2.694  0.4813 -0.4029 -0.2318
 7634SOL     OW23800   3.719   5.841   1.824  0.8025  0.0006  0.0048
 7634SOL    HW123801   3.691   5.865   1.731  0.5691 -0.9540 -0.1744
 7634SOL    HW223802   3.698   5.745   1.842  1.0186  0.1268  0.9819
 7635SOL     OW23803   3.952   3.581   0.115 -0.7675  0.3609 -0.4985
 7635SOL    HW123804   3.970   3.678   0.133 -0.2564  0.1193  0.3394
 7635SOL    HW223805   4.001   3.554   0.032  0.9353  0.2824  0.4957
 7636SOL     OW23806   5.048   1.522   1.994 -0.0676 -0.4441 -0.2927
 7636SOL    HW123807   5.073   1.449   1.930 -1.7934 -1.4137  0.0813
 7636SOL    HW223808   4.970   1.493   2.049  0.7148  0.7799  1.5531
 7637SOL     OW23809   1.145   4.639   2.757  0.5122  0.3019  0.3027
 7637SOL    HW123810   1.215   4.604   2.694  0.0789  0.6173 -0.3654
 7637SOL    HW223811   1.066   4.671   2.704 -0.4652 -0.7523  1.0767
 7638SOL     OW23812   2.552   5.335   6.736  0.1734  0.1711  0.2101
 7638SOL    HW123813   2.579   5.429   6.756 -2.3515  1.3647 -1.4649
 7638SOL    HW223814   2.618   5.294   6.672  2.0720  0.2009  2.0268
 7639SOL     OW23815   2.596   4.666   6.114 -0.6083  0.0774  0.1240
 7639SOL    HW123816   2.519   4.647   6.054  1.6225 -1.5272 -2.4359
 7639SOL    HW223817   2.631   4.758   6.096 -1.3334  0.4765  0.6799
 7640SOL     OW23818   1.468   4.142   1.640  0.6802 -0.1993 -0.0857
 7640SOL    HW123819   1.478   4.053   1.686  0.3283  0.0143  0.4154
 7640SOL    HW223820   1.412   4.130   1.557 -0.0299 -0.3200  0.3955
 7641SOL     OW23821   5.455   4.652   2.664  0.3971 -0.0734  0.2778
 7641SOL    HW123822   5.526   4.713   2.698  0.7454  0.1879 -0.8731
 7641SOL    HW223823   5.485   4.611   2.578 -1.7683  1.9648 -1.6076
 7642SOL     OW23824   6.886   1.520   4.026 -0.0050  0.8219  0.6194
 7642SOL    HW123825   6.983   1.496   4.032 -0.0101  0.8613  0.8465
 7642SOL    HW223826   6.842   1.507   4.114 -0.1043  1.2429  0.6370
 7643SOL     OW23827   5.655   1.107   3.471  0.4317 -0.0031 -0.3052
 7643SOL    HW123828   5.639   1.164   3.552 -3.1914 -0.0462 -0.8003
 7643SOL    HW223829   5.721   1.036   3.492 -0.0973  0.2331  2.4956
 7644SOL     OW23830   3.258   3.804   6.186 -0.1969  0.0767  0.5629
 7644SOL    HW123831   3.179   3.849   6.226 -1.1497 -0.7223 -0.3502
 7644SOL    HW223832   3.252   3.810   6.086  0.4828 -0.6724  0.4723
 7645SOL     OW23833   6.678   1.972   4.892 -0.0601 -0.3503  0.4469
 7645SOL    HW123834   6.695   1.888   4.841  2.5570 -0.0757  0.7376
 7645SOL    HW223835   6.719   1.965   4.983 -1.0224  0.7314  0.9982
 7646SOL     OW23836   1.563   1.081   3.718  0.0892  0.6419  0.2963
 7646SOL    HW123837   1.487   1.127   3.763  0.4529  0.9301  0.6200
 7646SOL    HW223838   1.564   1.104   3.620  0.2536  1.3063  0.4507
 7647SOL     OW23839   5.831   1.039   1.789 -0.1976 -0.2714  0.1711
 7647SOL    HW123840   5.843   1.138   1.781 -2.4887 -0.0240 -1.3836
 7647SOL    HW223841   5.755   1.020   1.852 -0.3968 -0.9686 -0.2653
 7648SOL     OW23842   1.420   2.742   2.617 -0.4813 -0.1038  0.9771
 7648SOL    HW123843   1.390   2.774   2.528 -1.6762  0.3478  1.5291
 7648SOL    HW223844   1.346   2.752   2.684  0.4395 -0.2800  2.0613
 7649SOL     OW23845   3.229   0.608   6.396 -0.2759 -0.4251  0.2760
 7649SOL    HW123846   3.328   0.623   6.401 -0.0058 -2.2433  1.2790
 7649SOL    HW223847   3.186   0.644   6.479 -0.0439 -2.0988  1.1708
 7650SOL     OW23848   0.911   1.916   5.542 -0.2593  0.2906 -0.5371
 7650SOL    HW123849   0.899   2.004   5.496  0.1894  0.7205  0.1538
 7650SOL    HW223850   0.826   1.865   5.538 -0.1342  0.1530 -2.1688
 7651SOL     OW23851   4.864   2.377   5.866 -0.3407 -0.5341 -0.1604
 7651SOL    HW123852   4.938   2.401   5.803  0.5381 -1.3238  0.5388
 7651SOL    HW223853   4.777   2.385   5.818  0.2980 -1.2127 -1.5161
 7652SOL     OW23854   6.824   1.576   4.972  0.3104 -0.2954  0.2884
 7652SOL    HW123855   6.903   1.525   4.936 -0.1995 -0.8519 -0.0654
 7652SOL    HW223856   6.783   1.630   4.899  0.6293  0.3545  0.5794
 7653SOL     OW23857   4.602   5.679   0.419 -0.1755  0.1615 -0.3750
 7653SOL    HW123858   4.534   5.729   0.366 -0.6124 -1.3089 -1.2472
 7653SOL    HW223859   4.640   5.739   0.490 -2.0280  1.1488 -0.1641
 7654SOL     OW23860   1.247   4.191   3.198  0.2445 -0.1306  0.0281
 7654SOL    HW123861   1.240   4.226   3.104  0.8855 -1.5445 -0.5850
 7654SOL    HW223862   1.339   4.152   3.212  0.1284 -0.0090  1.2186
 7655SOL     OW23863   4.888   3.785   6.072  0.4658  0.0373  0.1323
 7655SOL    HW123864   4.980   3.746   6.079  0.1767 -0.4502  1.4800
 7655SOL    HW223865   4.837   3.738   6.001  1.1500  0.1005 -0.4096
 7656SOL     OW23866   3.071   4.950   3.544 -0.5030 -0.5472 -0.0738
 7656SOL    HW123867   3.002   4.923   3.611 -0.2053  1.2126  0.9960
 7656SOL    HW223868   3.074   4.882   3.470 -2.0083 -1.6544  0.8279
 7657SOL     OW23869   0.020   2.872   4.230 -0.1263  0.0537  0.0285
 7657SOL    HW123870   0.071   2.891   4.146  0.3770 -1.4268 -0.0347
 7657SOL    HW223871  -0.043   2.948   4.249 -0.0729  0.5295 -1.5370
 7658SOL     OW23872   1.275   6.148   4.130 -0.5346 -0.2948 -0.0994
 7658SOL    HW123873   1.195   6.147   4.070 -1.5651 -0.1464  1.2138
 7658SOL    HW223874   1.358   6.132   4.077 -1.3645  0.2402 -1.5983
 7659SOL     OW23875   4.931   3.074   2.566 -0.1696  0.3539  0.0397
 7659SOL    HW123876   4.925   2.990   2.619 -0.7902  0.2278 -0.2201
 7659SOL    HW223877   4.902   3.057   2.472 -0.6929  0.9408  0.0867
 7660SOL     OW23878   2.727   3.298   1.542  0.4209  0.1249 -0.0620
 7660SOL    HW123879   2.740   3.230   1.614 -1.6586  0.0001  0.2604
 7660SOL    HW223880   2.637   3.341   1.553  0.5269  0.9148 -1.9305
 7661SOL     OW23881   2.693   1.363   4.138 -0.5097 -1.0335  0.3308
 7661SOL    HW123882   2.687   1.265   4.159 -0.3556 -1.5183 -1.6748
 7661SOL    HW223883   2.747   1.376   4.055 -0.5357  0.7743  0.5606
 7662SOL     OW23884   1.234   1.117   6.831  0.5930 -0.5109 -0.4429
 7662SOL    HW123885   1.190   1.069   6.756  0.7341 -0.9901 -0.2239
 7662SOL    HW223886   1.192   1.089   6.918 -0.1038  0.6217 -0.3912
 7663SOL     OW23887   0.757   3.946   2.059  0.3008 -0.4214  0.1796
 7663SOL    HW123888   0.801   3.970   1.973 -2.7666  1.1519 -1.1144
 7663SOL    HW223889   0.794   4.003   2.132 -0.4018  1.8272 -1.1170
 7664SOL     OW23890   1.842   6.297   5.904  0.0377 -0.6712 -0.0867
 7664SOL    HW123891   1.938   6.289   5.876 -0.1552  0.3005 -1.1236
 7664SOL    HW223892   1.821   6.394   5.919 -0.8102 -0.8739  0.0333
 7665SOL     OW23893   3.461   3.606   5.777  0.0108  0.0941 -0.0256
 7665SOL    HW123894   3.434   3.688   5.726  0.8385 -0.1709 -0.9211
 7665SOL    HW223895   3.410   3.527   5.742 -0.6134  0.1823  0.6753
 7666SOL     OW23896   0.255   3.395   1.041 -0.5335  0.4019  0.4798
 7666SOL    HW123897   0.340   3.443   1.020 -1.2392  1.8180  0.7139
 7666SOL    HW223898   0.272   3.297   1.047  1.0856  0.6739  0.6085
 7667SOL     OW23899   2.049   3.810   0.752 -0.4829  0.6134  0.0120
 7667SOL    HW123900   2.077   3.741   0.686  0.7460  1.3810 -0.2897
 7667SOL    HW223901   2.108   3.807   0.832 -1.6674  0.0075  0.9010
 7668SOL     OW23902   4.787   0.881   2.583  0.1801 -0.1562 -0.1191
 7668SOL    HW123903   4.763   0.859   2.489 -1.5972  1.3383 -0.0716
 7668SOL    HW223904   4.764   0.977   2.602  0.2920 -0.4750  1.9019
 7669SOL     OW23905   4.664   2.499   0.773 -0.0984 -0.2367  0.3945
 7669SOL    HW123906   4.744   2.469   0.825 -1.2432 -0.0013  2.4142
 7669SOL    HW223907   4.591   2.432   0.783 -0.8715  0.5941  0.4533
 7670SOL     OW23908   5.284   1.325   1.041 -0.4352  0.4045  0.2037
 7670SOL    HW123909   5.337   1.279   1.112 -1.7460  1.5719  2.0304
 7670SOL    HW223910   5.296   1.424   1.050 -3.7060  0.8206  1.4850
 7671SOL     OW23911   4.585   1.636   2.833 -0.1423 -0.4546 -0.1881
 7671SOL    HW123912   4.540   1.575   2.898 -1.9729 -0.1603 -1.0959
 7671SOL    HW223913   4.574   1.600   2.740  2.9920 -1.2108 -0.3577
 7672SOL     OW23914   1.223   4.669   0.892  1.0414  0.5896 -0.7156
 7672SOL    HW123915   1.253   4.704   0.804  0.0789 -0.4071 -1.4781
 7672SOL    HW223916   1.296   4.616   0.934  1.1182  0.0577 -1.4985
 7673SOL     OW23917   0.697   0.595   1.836 -0.3109  0.1657  0.0013
 7673SOL    HW123918   0.604   0.579   1.871 -0.1843  0.8015  0.6561
 7673SOL    HW223919   0.762   0.545   1.892 -0.0976  1.2664  0.7676
 7674SOL     OW23920   0.862   0.002   3.574  0.1463 -0.0197  1.0524
 7674SOL    HW123921   0.813  -0.056   3.508  0.3896 -0.5197  1.3061
 7674SOL    HW223922   0.930  -0.053   3.623  0.6134  0.5596  1.0639
 7675SOL     OW23923   5.447   4.877   6.581  0.1480  0.3448  0.5445
 7675SOL    HW123924   5.432   4.778   6.585  0.0734  0.3974  2.2278
 7675SOL    HW223925   5.394   4.916   6.505  0.0255 -0.8647 -0.0151
 7676SOL     OW23926   2.629   6.097   3.811 -0.1888  0.5490 -0.5583
 7676SOL    HW123927   2.726   6.085   3.794  0.2378  1.5222  0.9629
 7676SOL    HW223928   2.616   6.139   3.901 -2.0504 -0.2111 -0.4349
 7677SOL     OW23929   3.749   3.431   4.727  0.1832 -0.4451 -0.1088
 7677SOL    HW123930   3.780   3.345   4.769  0.9023  1.2231  3.1068
 7677SOL    HW223931   3.798   3.445   4.641  0.5967 -2.8653 -0.3388
 7678SOL     OW23932   0.240   6.733   5.037  0.7729  0.4241  0.1011
 7678SOL    HW123933   0.250   6.721   5.136  4.3806 -0.8649 -0.2537
 7678SOL    HW223934   0.204   6.649   4.997  1.1319  0.2351  0.1656
 7679SOL     OW23935   3.907   5.852   2.075 -0.1744 -0.3974  0.1543
 7679SOL    HW123936   3.990   5.892   2.036  0.4602  0.8835  2.5973
 7679SOL    HW223937   3.837   5.844   2.004  0.9461  1.5651 -1.2655
 7680SOL     OW23938   0.772   4.666   1.038  0.0296 -0.5368 -0.1997
 7680SOL    HW123939   0.743   4.739   1.099  1.7043 -0.2741  0.3163
 7680SOL    HW223940   0.715   4.668   0.955 -1.1376  0.1746  0.5811
 7681SOL     OW23941   6.569   6.289   3.938  0.4041 -0.1482  0.2423
 7681SOL    HW123942   6.550   6.386   3.920 -1.8171 -0.1140  2.2670
 7681SOL    HW223943   6.594   6.278   4.034  1.5896 -1.5088 -0.1918
 7682SOL     OW23944   3.891   4.551   0.039  0.0370 -0.4945 -0.1739
 7682SOL    HW123945   3.876   4.486  -0.035 -1.2586  1.0800 -1.3656
 7682SOL    HW223946   3.918   4.639   0.000 -1.0199  0.4659  1.2050
 7683SOL     OW23947   6.258   5.944   3.158  0.3027 -0.4891 -0.2230
 7683SOL    HW123948   6.352   5.942   3.125  0.3109 -0.8403 -0.1748
 7683SOL    HW223949   6.195   5.929   3.082  0.3313 -1.6124 -0.0410
 7684SOL     OW23950   5.726   6.132   5.021 -0.0712 -0.5977  0.1070
 7684SOL    HW123951   5.658   6.133   5.094 -0.1588  1.9791  0.0852
 7684SOL    HW223952   5.690   6.083   4.942 -0.3120 -2.6669  1.4468
 7685SOL     OW23953   4.449   1.585   5.659  0.8442  0.3773  0.0069
 7685SOL    HW123954   4.411   1.626   5.743  1.9667  0.1628  0.6372
 7685SOL    HW223955   4.547   1.573   5.670  0.6139 -2.1888 -0.2884
 7686SOL     OW23956   4.411   1.922   2.374  0.2665  0.8380 -0.7200
 7686SOL    HW123957   4.315   1.944   2.356  0.3277  1.4504 -0.3040
 7686SOL    HW223958   4.439   1.961   2.462  0.7874  0.3309 -0.6564
 7687SOL     OW23959   5.886   5.757   3.736 -0.1696 -0.5857  0.4658
 7687SOL    HW123960   5.799   5.722   3.770  1.0110 -2.5932  1.6016
 7687SOL    HW223961   5.955   5.751   3.807  1.4463 -1.2280 -1.0752
 7688SOL     OW23962   2.020   6.382   5.570  0.0141 -0.4339  0.0139
 7688SOL    HW123963   2.086   6.374   5.645  0.0709  1.2195  0.1713
 7688SOL    HW223964   2.039   6.311   5.502  1.5312 -0.4129  0.3736
 7689SOL     OW23965   6.069   3.513   6.867  0.2698  0.7498 -0.1610
 7689SOL    HW123966   6.143   3.517   6.935 -0.0128  0.8350  0.1436
 7689SOL    HW223967   6.107   3.531   6.776  0.2854  3.1076  0.2313
 7690SOL     OW23968   1.592   1.164   1.855 -0.4082  0.2915 -0.2996
 7690SOL    HW123969   1.556   1.073   1.875 -3.3459  1.3971  0.0434
 7690SOL    HW223970   1.588   1.181   1.756 -0.1124  0.1385 -0.3373
 7691SOL     OW23971   4.662   5.882   6.730  0.4963 -0.6408  0.0633
 7691SOL    HW123972   4.706   5.934   6.657  0.3710  0.4119  0.7112
 7691SOL    HW223973   4.564   5.901   6.730  0.1164 -2.4046 -0.9101
 7692SOL     OW23974   4.764   2.757   2.139 -0.2805  0.3739 -0.0971
 7692SOL    HW123975   4.764   2.855   2.120  1.1292  0.5072  0.4950
 7692SOL    HW223976   4.798   2.707   2.059 -4.7780 -0.0642 -2.0098
 7693SOL     OW23977   0.189   5.536   2.054 -0.1530  0.2346  0.6204
 7693SOL    HW123978   0.109   5.588   2.082 -1.2263 -1.8632  1.6394
 7693SOL    HW223979   0.229   5.578   1.972 -1.8531  1.7265  0.4993
 7694SOL     OW23980   1.486   1.275   1.285 -0.0574 -0.4027  0.4186
 7694SOL    HW123981   1.563   1.330   1.250  0.8335 -1.6637  0.3143
 7694SOL    HW223982   1.496   1.263   1.383 -1.3465  1.2577  0.7951
 7695SOL     OW23983   6.528   2.333   6.121 -0.1682  0.5121 -0.4368
 7695SOL    HW123984   6.559   2.246   6.081 -0.6473 -0.1079  0.5052
 7695SOL    HW223985   6.581   2.352   6.204 -0.4425  0.8471 -0.3378
 7696SOL     OW23986   5.804   6.824   3.770  0.4708  0.8506 -0.8351
 7696SOL    HW123987   5.831   6.863   3.682  0.0093  1.6622 -0.6258
 7696SOL    HW223988   5.723   6.767   3.757  0.7208  0.5365 -1.0252
 7697SOL     OW23989   2.260   1.426   6.720 -0.1092 -0.5727 -0.1972
 7697SOL    HW123990   2.191   1.475   6.666  0.0943 -0.9659 -0.8333
 7697SOL    HW223991   2.240   1.436   6.817  1.3609  2.9824 -0.1202
 7698SOL     OW23992   1.815   4.592   2.966  0.1711 -0.1233  0.1004
 7698SOL    HW123993   1.718   4.589   2.941  0.6049 -1.1111 -1.6670
 7698SOL    HW223994   1.833   4.527   3.040  0.0084 -2.4481 -1.7814
 7699SOL     OW23995   0.970   2.049   3.295  0.7277  0.2621 -0.2879
 7699SOL    HW123996   0.893   2.095   3.251  0.2680 -0.6700 -0.4745
 7699SOL    HW223997   0.940   2.008   3.381  1.2948  0.8771  0.2157
 7700SOL     OW23998   4.290   4.714   4.519  0.3241  0.2665  0.0240
 7700SOL    HW123999   4.196   4.733   4.489  0.8296  0.2283 -1.6821
 7700SOL    HW224000   4.291   4.704   4.618 -2.3208 -4.2340 -0.1237
 7701SOL     OW24001   0.344   6.687   6.367 -0.6671 -0.0412  1.0615
 7701SOL    HW124002   0.262   6.737   6.394 -1.0391 -0.1281  0.1217
 7701SOL    HW224003   0.418   6.752   6.350 -0.9325  0.1437  0.5879
 7702SOL     OW24004   0.076   1.180   2.095 -0.4953 -0.2099  0.5816
 7702SOL    HW124005   0.168   1.216   2.076 -0.7136 -0.7702 -1.8093
 7702SOL    HW224006   0.018   1.193   2.015 -1.3687 -3.4208  0.5523
 7703SOL     OW24007   1.296   3.203   2.802  0.0050 -0.3470 -0.7312
 7703SOL    HW124008   1.319   3.294   2.768 -0.9566  0.5290  0.8099
 7703SOL    HW224009   1.221   3.165   2.748  0.6315 -0.3691 -1.5904
 7704SOL     OW24010   5.650   2.255   2.249  0.1907 -0.4381  0.2663
 7704SOL    HW124011   5.615   2.209   2.167  0.6636 -1.2791  0.5177
 7704SOL    HW224012   5.617   2.207   2.330  1.0580 -0.6190  0.5273
 7705SOL     OW24013   3.445   0.310   1.272  0.0184  0.1566  0.2154
 7705SOL    HW124014   3.350   0.286   1.252 -0.1057  1.4974 -1.0401
 7705SOL    HW224015   3.447   0.380   1.344  0.0353  0.2289  0.1453
 7706SOL     OW24016   3.543   3.049   3.887  0.4542  0.2099 -0.3746
 7706SOL    HW124017   3.473   3.006   3.830 -1.4960  0.2332  1.8411
 7706SOL    HW224018   3.532   3.148   3.883 -1.3518  0.1780  1.8299
 7707SOL     OW24019   6.909   6.856   4.599 -0.1296 -0.3303  0.2826
 7707SOL    HW124020   6.922   6.839   4.697  1.1846 -0.4603  0.0956
 7707SOL    HW224021   6.970   6.798   4.546  0.6001  1.1371 -0.5445
 7708SOL     OW24022   3.032   0.218   4.919  0.2984  0.1748 -0.0363
 7708SOL    HW124023   2.988   0.135   4.887  2.3603 -0.8512 -0.3908
 7708SOL    HW224024   3.080   0.262   4.843  0.8746  0.6057  0.5644
 7709SOL     OW24025   2.491   6.916   0.132 -0.1315  0.3172  0.0462
 7709SOL    HW124026   2.568   6.871   0.177 -0.8163  0.0470  0.9986
 7709SOL    HW224027   2.442   6.972   0.199 -0.4654  0.8880 -0.6655
 7710SOL     OW24028   5.378   3.492   4.965  0.4742  0.4256  0.2298
 7710SOL    HW124029   5.310   3.551   4.922 -1.3807 -1.8713 -0.1836
 7710SOL    HW224030   5.334   3.432   5.031  2.1843 -0.7589  0.3701
 7711SOL     OW24031   3.609   3.924   5.192  0.2008  0.2506 -0.3365
 7711SOL    HW124032   3.578   3.889   5.104  1.6190  1.3290 -1.3184
 7711SOL    HW224033   3.669   4.002   5.177  2.0592 -0.7295  1.5034
 7712SOL     OW24034   2.902   5.845   0.733 -0.4415  0.3172  0.8226
 7712SOL    HW124035   2.840   5.785   0.783 -0.2781 -0.6798 -0.1439
 7712SOL    HW224036   2.848   5.901   0.669 -0.3854 -0.2636  0.2670
 7713SOL     OW24037   0.617   6.394   5.360  0.2328  0.1673 -0.2658
 7713SOL    HW124038   0.543   6.357   5.303 -1.2250  2.4555  0.0127
 7713SOL    HW224039   0.636   6.330   5.434 -0.9574 -0.8314 -0.7720
 7714SOL     OW24040   6.198   4.280   6.229  0.0958  0.2425  0.0404
 7714SOL    HW124041   6.201   4.209   6.159 -0.6932  0.5575 -0.3258
 7714SOL    HW224042   6.130   4.349   6.204  0.5881  0.9361  0.5757
 7715SOL     OW24043   1.130   4.036   1.983  0.0179 -0.7900  0.1603
 7715SOL    HW124044   1.214   3.997   1.944 -0.5797 -0.6102 -1.3643
 7715SOL    HW224045   1.154   4.090   2.063  1.6678  0.9747 -1.4186
 7716SOL     OW24046   4.187   4.853   5.722 -0.4212 -0.3200  0.2293
 7716SOL    HW124047   4.158   4.757   5.719 -1.2014 -0.0831 -1.2589
 7716SOL    HW224048   4.241   4.874   5.641  0.2648  0.3528  0.8476
 7717SOL     OW24049   2.426   6.557   2.989 -0.6113 -0.1492 -0.3939
 7717SOL    HW124050   2.419   6.468   2.943  2.9670 -0.4826 -0.6343
 7717SOL    HW224051   2.426   6.543   3.088  2.2694 -0.8930 -0.3861
 7718SOL     OW24052   0.793   4.976   2.700  0.4001  0.6004  0.7727
 7718SOL    HW124053   0.798   5.074   2.719 -0.2665  1.3058 -2.1628
 7718SOL    HW224054   0.709   4.956   2.650  1.0739 -1.2840  0.3025
 7719SOL     OW24055   5.241   3.462   6.156  0.3190  0.0673 -0.2238
 7719SOL    HW124056   5.209   3.437   6.065 -4.2030 -0.1426  1.1886
 7719SOL    HW224057   5.250   3.379   6.212  1.2928  0.3486  0.0574
 7720SOL     OW24058   6.793   0.921   1.990 -0.4712 -0.1907 -0.0051
 7720SOL    HW124059   6.838   0.888   2.073  0.6457 -2.4669 -1.4271
 7720SOL    HW224060   6.855   0.981   1.940 -0.7321  0.2696  0.2082
 7721SOL     OW24061   5.449   1.243   1.258 -0.6178 -0.1284  1.2451
 7721SOL    HW124062   5.368   1.189   1.281 -0.5053 -0.9364 -0.1028
 7721SOL    HW224063   5.530   1.183   1.258  0.1582  0.8090  3.3148
 7722SOL     OW24064   3.547   0.941   3.300 -0.0887 -0.0566 -0.0368
 7722SOL    HW124065   3.535   1.020   3.360 -0.3280  0.9050 -1.3112
 7722SOL    HW224066   3.641   0.907   3.307  0.0143  0.3346  0.5068
 7723SOL     OW24067   5.695   0.216   5.932 -0.1250  0.7838 -0.3715
 7723SOL    HW124068   5.716   0.130   5.886 -0.6564  1.2250 -1.4871
 7723SOL    HW224069   5.755   0.227   6.011 -0.4594 -0.8855  0.1591
 7724SOL     OW24070   2.592   1.030   5.621  0.6179 -0.4553  0.5890
 7724SOL    HW124071   2.547   1.060   5.537 -0.6319 -1.0907  1.0095
 7724SOL    HW224072   2.682   1.073   5.627 -1.5587  4.7075  1.9078
 7725SOL     OW24073   3.247   2.690   5.307 -0.2034  0.0696 -0.3145
 7725SOL    HW124074   3.239   2.599   5.349  1.1731 -2.3591 -4.6638
 7725SOL    HW224075   3.343   2.715   5.299 -0.4530  0.8439 -1.1486
 7726SOL     OW24076   4.638   0.785   1.156  0.3788 -0.0746  0.2954
 7726SOL    HW124077   4.557   0.837   1.130  1.4420  0.8944 -1.2935
 7726SOL    HW224078   4.695   0.840   1.217  0.5742 -0.1409  0.1728
 7727SOL     OW24079   3.304   6.364   5.147 -0.1963 -0.1087 -0.3103
 7727SOL    HW124080   3.311   6.392   5.051 -3.7622  0.0681 -0.6499
 7727SOL    HW224081   3.330   6.268   5.155  1.5210  0.2392 -1.1284
 7728SOL     OW24082   3.487   5.030   2.750  0.5636  0.0529  0.0866
 7728SOL    HW124083   3.553   5.105   2.760 -0.0318  0.3436  2.4212
 7728SOL    HW224084   3.522   4.963   2.685  1.9618  1.4425 -0.6545
 7729SOL     OW24085   1.922   6.270   4.186  0.4691  0.5531 -0.3858
 7729SOL    HW124086   1.999   6.210   4.207  1.7187  2.2335 -0.0054
 7729SOL    HW224087   1.850   6.256   4.255  0.9960 -0.0550  0.0518
 7730SOL     OW24088   3.805   4.018   2.203 -0.2713  0.7139 -0.2890
 7730SOL    HW124089   3.905   4.026   2.208 -0.2948  0.7790  0.1747
 7730SOL    HW224090   3.771   4.071   2.126  0.2997 -1.5143 -2.1794
 7731SOL     OW24091   0.595   0.738   2.467  0.0692 -0.1594 -0.4637
 7731SOL    HW124092   0.498   0.722   2.481 -0.1126  2.2345  1.7837
 7731SOL    HW224093   0.648   0.677   2.526 -0.2406  0.7221  0.7688
 7732SOL     OW24094   5.994   6.119   5.715  0.4281 -0.0114 -0.1908
 7732SOL    HW124095   6.081   6.076   5.690  0.2709 -0.3029 -0.2377
 7732SOL    HW224096   5.963   6.177   5.640 -0.4223 -1.4696 -1.0013
 7733SOL     OW24097   1.324   2.374   1.977 -0.5551  0.2471 -0.1457
 7733SOL    HW124098   1.289   2.442   1.913 -0.7813  0.9941  0.7562
 7733SOL    HW224099   1.292   2.394   2.069  1.0654  0.1302  0.4861
 7734SOL     OW24100   3.606   5.904   2.075  0.5039  0.3501  0.1357
 7734SOL    HW124101   3.539   5.969   2.111 -1.2119 -1.0535 -0.4153
 7734SOL    HW224102   3.607   5.910   1.975 -1.6320 -2.1955 -0.1471
 7735SOL     OW24103   5.786   3.454   4.916  0.3455  0.6417 -0.4553
 7735SOL    HW124104   5.886   3.450   4.915  0.3878  1.1917  0.5106
 7735SOL    HW224105   5.756   3.543   4.881  0.1198 -0.0892 -2.2357
 7736SOL     OW24106   6.066   1.165   2.568 -0.2838 -0.2859 -0.0096
 7736SOL    HW124107   6.024   1.127   2.485  0.5319 -0.5859 -0.2967
 7736SOL    HW224108   6.072   1.265   2.559  1.4513 -0.4402 -1.1416
 7737SOL     OW24109   5.781   1.311   6.251  0.4691 -0.2851  0.0031
 7737SOL    HW124110   5.845   1.360   6.191 -0.1108  0.3340 -0.1219
 7737SOL    HW224111   5.745   1.231   6.202  4.4397 -3.3361  1.5159
 7738SOL     OW24112   5.878   5.127   2.040 -0.7021 -0.2019  0.3801
 7738SOL    HW124113   5.780   5.131   2.019 -0.2625 -0.8109 -2.0929
 7738SOL    HW224114   5.913   5.036   2.018  0.6175  0.3341  0.1936
 7739SOL     OW24115   6.741   5.091   5.851  0.3073 -0.5357 -0.2005
 7739SOL    HW124116   6.708   5.124   5.940  1.8077 -0.2336  0.2804
 7739SOL    HW224117   6.781   5.000   5.862  1.2576 -0.1559 -0.3735
 7740SOL     OW24118   5.253   2.821   4.160  0.0904 -0.5105 -0.3026
 7740SOL    HW124119   5.167   2.809   4.111 -0.0275  2.3267 -0.9193
 7740SOL    HW224120   5.243   2.891   4.230  2.6480  2.5860 -2.7152
 7741SOL     OW24121   6.116   2.073   2.702  0.4387  0.3798 -0.6964
 7741SOL    HW124122   6.139   2.143   2.771  0.0396  0.3719 -0.5487
 7741SOL    HW224123   6.050   2.009   2.741  0.3410  0.2737 -1.0316
 7742SOL     OW24124   0.263   6.388   5.419  0.1457  0.4278  0.4030
 7742SOL    HW124125   0.328   6.403   5.493  1.4781  1.1754 -0.8501
 7742SOL    HW224126   0.313   6.380   5.332 -1.4595  2.1667 -0.7838
 7743SOL     OW24127   6.169   2.248   4.066 -0.0332  0.0227 -0.6140
 7743SOL    HW124128   6.160   2.347   4.061 -1.0430 -0.0694 -1.0847
 7743SOL    HW224129   6.247   2.218   4.011  2.0695  0.7547  1.8392
 7744SOL     OW24130   6.866   4.331   5.943  0.2863  0.3988 -0.2351
 7744SOL    HW124131   6.808   4.285   6.010 -1.5087  1.4024 -1.0268
 7744SOL    HW224132   6.927   4.394   5.991 -0.2242  0.3251  0.5361
 7745SOL     OW24133   6.509   6.380   3.193 -0.1205 -0.1642  0.3588
 7745SOL    HW124134   6.510   6.458   3.131 -0.4381 -0.8269 -0.4924
 7745SOL    HW224135   6.603   6.362   3.224  0.5264 -1.4800 -2.0781
 7746SOL     OW24136   4.100   5.635   5.209  0.3591  0.0091 -0.3839
 7746SOL    HW124137   4.177   5.593   5.257 -0.1114  2.1083  2.4468
 7746SOL    HW224138   4.021   5.638   5.270 -0.5708  2.0429 -1.5850
 7747SOL     OW24139   6.942   3.991   0.724 -1.0171 -0.0139 -0.6423
 7747SOL    HW124140   6.916   4.060   0.792 -0.4994 -1.3045  0.9185
 7747SOL    HW224141   7.007   4.030   0.660 -2.2506  1.5240 -1.0188
 7748SOL     OW24142   1.415   5.520   4.206  0.4043 -0.2901 -0.1152
 7748SOL    HW124143   1.383   5.505   4.113 -0.5506 -1.6890  0.4116
 7748SOL    HW224144   1.338   5.521   4.269  0.8574  2.3090  0.5209
 7749SOL     OW24145   6.978   4.009   1.159 -0.3378  0.4043 -0.0773
 7749SOL    HW124146   7.048   4.009   1.230  0.8285  2.5914 -1.1204
 7749SOL    HW224147   6.888   4.021   1.200 -0.0986 -1.7973  1.2407
 7750SOL     OW24148   1.164   1.122   3.454  0.3242  0.1682  0.0334
 7750SOL    HW124149   1.150   1.114   3.553  0.7141 -0.6118  0.0254
 7750SOL    HW224150   1.132   1.039   3.408 -0.1607  0.6580 -0.5363
 7751SOL     OW24151   3.918   3.041   5.794  0.1840  0.4036 -0.4094
 7751SOL    HW124152   3.835   3.018   5.846 -0.1146  0.5525 -0.8089
 7751SOL    HW224153   3.943   2.963   5.737  0.1119  0.4867 -0.5547
 7752SOL     OW24154   0.888   2.396   0.512  0.2321  0.1128 -0.0437
 7752SOL    HW124155   0.901   2.390   0.413  0.7259 -0.7002  0.0638
 7752SOL    HW224156   0.965   2.445   0.553  0.0315  0.4427 -0.0523
 7753SOL     OW24157   5.644   4.947   1.893  0.1189  0.2517 -0.3054
 7753SOL    HW124158   5.686   4.903   1.973 -0.4529 -1.6495 -0.9983
 7753SOL    HW224159   5.622   5.042   1.915  0.1186 -0.1720  1.7462
 7754SOL     OW24160   0.750   1.695   0.755 -0.0132 -0.4942  0.3236
 7754SOL    HW124161   0.670   1.754   0.744  1.0413  0.7267 -1.2367
 7754SOL    HW224162   0.738   1.612   0.702  1.0038  1.1013 -2.6210
 7755SOL     OW24163   6.981   6.771   1.214  0.1456 -0.0759  0.5932
 7755SOL    HW124164   6.977   6.852   1.157  3.8901  0.8049  1.3339
 7755SOL    HW224165   7.051   6.709   1.180 -0.8760 -1.8226  1.5162
 7756SOL     OW24166   1.202   1.039   1.926  0.1565  0.8072 -0.5372
 7756SOL    HW124167   1.183   1.113   1.990  0.8609  1.6486 -1.2768
 7756SOL    HW224168   1.123   0.977   1.921  0.3398  0.3332  1.6376
 7757SOL     OW24169   6.416   6.924   4.454  0.1659  0.3190  0.3108
 7757SOL    HW124170   6.491   6.860   4.439  1.4520  1.7805  0.1399
 7757SOL    HW224171   6.367   6.939   4.368  0.0130 -0.2378  0.2973
 7758SOL     OW24172   2.599   6.192   4.066  0.3116  0.0002  0.1357
 7758SOL    HW124173   2.664   6.267   4.052  0.3057  0.2208  1.2261
 7758SOL    HW224174   2.606   6.159   4.160  0.1997 -1.2655 -0.2793
 7759SOL     OW24175   1.242   4.757   1.911 -0.0068 -1.0797 -0.1493
 7759SOL    HW124176   1.312   4.688   1.889  0.2853 -0.2420 -2.1259
 7759SOL    HW224177   1.181   4.768   1.832 -0.1624  0.7659  0.1867
 7760SOL     OW24178   3.987   1.754   4.997 -0.1476  0.3409 -0.7185
 7760SOL    HW124179   3.974   1.661   5.030 -0.2246  0.3257 -0.7926
 7760SOL    HW224180   4.016   1.753   4.901  1.4750  0.3287 -0.2649
 7761SOL     OW24181   4.365   1.576   0.868 -0.1505 -0.3322  0.2808
 7761SOL    HW124182   4.419   1.658   0.851  1.8529 -1.8386 -1.1175
 7761SOL    HW224183   4.291   1.570   0.801 -2.0021  1.5553  1.9870
 7762SOL     OW24184   0.281   4.020   4.973 -0.3179 -0.2337  0.1997
 7762SOL    HW124185   0.322   3.929   4.986  0.0104  0.3222  4.3230
 7762SOL    HW224186   0.353   4.086   4.952 -0.3165 -0.6111 -1.0286
 7763SOL     OW24187   4.072   1.466   6.192  0.2036 -0.0617 -0.7406
 7763SOL    HW124188   4.044   1.537   6.127 -2.3746  0.4688  0.7822
 7763SOL    HW224189   4.010   1.387   6.184 -0.2422  0.0585  1.0624
 7764SOL     OW24190   0.923   1.593   5.983  0.3499  0.2540  0.7204
 7764SOL    HW124191   0.964   1.684   5.977  0.0728  0.5060  2.2524
 7764SOL    HW224192   0.982   1.532   6.036 -0.6728  0.2967  1.9453
 7765SOL     OW24193   5.803   4.757   4.798 -0.3527 -0.0402  0.7165
 7765SOL    HW124194   5.755   4.712   4.723 -0.2439 -0.3123  0.8087
 7765SOL    HW224195   5.889   4.796   4.765 -0.2683 -0.2275  0.7176
 7766SOL     OW24196   2.003   0.538   0.065  0.4118 -0.1231  0.1295
 7766SOL    HW124197   2.080   0.578   0.015 -0.7591  1.5909 -0.3901
 7766SOL    HW224198   1.944   0.611   0.099 -2.4539 -1.3325 -1.8198
 7767SOL     OW24199   5.526   3.030   0.367  0.5708 -0.4463  0.5577
 7767SOL    HW124200   5.477   3.097   0.424  2.0026  0.7706  0.4121
 7767SOL    HW224201   5.489   2.939   0.385 -2.4889  0.4853 -0.3419
 7768SOL     OW24202   3.973   5.388   5.027  0.4430  0.9436 -0.1557
 7768SOL    HW124203   3.999   5.292   5.037  1.4169  1.1856 -0.2329
 7768SOL    HW224204   4.014   5.441   5.101  1.2207  1.5360 -0.9975
 7769SOL     OW24205   6.110   3.987   6.028 -0.3874 -1.1188  0.0622
 7769SOL    HW124206   6.048   3.938   5.966 -1.5899  0.2914  0.0877
 7769SOL    HW224207   6.067   3.996   6.118 -0.2103 -0.0142  0.0466
 7770SOL     OW24208   1.422   6.996   0.620  0.2596 -0.2380  0.4806
 7770SOL    HW124209   1.442   6.985   0.717  1.1640  0.0111  0.3358
 7770SOL    HW224210   1.377   6.914   0.585  0.0037 -0.3587  1.0880
 7771SOL     OW24211   3.693   4.582   5.695  0.0195  0.0600 -0.2498
 7771SOL    HW124212   3.747   4.643   5.638  0.7062 -0.3243 -0.0178
 7771SOL    HW224213   3.734   4.491   5.695 -0.0032  0.0361  0.8039
 7772SOL     OW24214   0.970   0.984   4.731  0.1554 -0.6158 -0.3150
 7772SOL    HW124215   0.951   0.949   4.822  1.6265  1.2344  0.7773
 7772SOL    HW224216   0.890   0.970   4.672 -1.2209 -0.8949  1.5350
 7773SOL     OW24217   0.504   1.707   5.842  0.2581  0.2633 -0.1848
 7773SOL    HW124218   0.540   1.765   5.915  1.1367 -0.2699 -0.1831
 7773SOL    HW224219   0.406   1.724   5.832  0.3376  1.1382  0.3736
 7774SOL     OW24220   6.706   5.560   1.993 -0.3553  0.1793 -0.0627
 7774SOL    HW124221   6.645   5.626   2.038 -0.5858 -0.6710  0.9229
 7774SOL    HW224222   6.706   5.577   1.895 -1.9211  0.4436 -0.0566
 7775SOL     OW24223   6.129   3.558   5.522 -0.0824 -0.5203 -0.2293
 7775SOL    HW124224   6.100   3.477   5.574  1.4152 -1.0666 -0.1749
 7775SOL    HW224225   6.127   3.537   5.424 -0.5094 -0.3300 -0.2628
 7776SOL     OW24226   6.183   4.320   2.260  0.0771 -0.3462 -0.3563
 7776SOL    HW124227   6.133   4.363   2.185 -2.0912  1.0231  1.7529
 7776SOL    HW224228   6.268   4.371   2.277  0.0794 -0.0552 -1.1799
 7777SOL     OW24229   4.216   5.803   4.644 -1.3106  0.0362  0.2564
 7777SOL    HW124230   4.254   5.741   4.713 -2.1601  0.2540  0.9346
 7777SOL    HW224231   4.291   5.844   4.592 -0.6099  0.3004  1.4312
 7778SOL     OW24232   4.264   5.336   0.220 -0.2119  0.6621  0.0405
 7778SOL    HW124233   4.269   5.427   0.179 -0.9381  0.7976  0.2400
 7778SOL    HW224234   4.325   5.332   0.299  0.5032  0.6867 -0.5003
 7779SOL     OW24235   0.420   1.707   3.772 -0.2086  0.2284  0.0657
 7779SOL    HW124236   0.427   1.674   3.866 -0.8911  0.8101  0.3279
 7779SOL    HW224237   0.472   1.647   3.711  0.2235 -0.1588  0.8101
 7780SOL     OW24238   6.447   3.884   2.877 -0.3891  0.4523  0.1497
 7780SOL    HW124239   6.374   3.917   2.936  0.1145  1.7598  0.0588
 7780SOL    HW224240   6.410   3.864   2.786 -1.0737 -1.1342  0.7290
 7781SOL     OW24241   6.288   4.275   4.533  0.0504  0.3734 -0.5676
 7781SOL    HW124242   6.235   4.195   4.560  0.9959 -0.1455 -0.1946
 7781SOL    HW224243   6.257   4.355   4.585  0.6156 -0.2286  0.7328
 7782SOL     OW24244   0.569   1.382   6.583 -0.0660  0.0590 -0.0475
 7782SOL    HW124245   0.524   1.439   6.514 -0.2082  0.8077  0.6391
 7782SOL    HW224246   0.545   1.416   6.674 -0.1794 -1.1352  0.3828
 7783SOL     OW24247   4.673   4.293   0.302  0.5026 -0.1714 -0.0989
 7783SOL    HW124248   4.607   4.352   0.350  1.4251  0.3684  0.5519
 7783SOL    HW224249   4.717   4.345   0.229  1.1216 -0.1179  0.2994
 7784SOL     OW24250   6.719   0.658   0.197  0.5301  0.8175 -0.9784
 7784SOL    HW124251   6.697   0.687   0.104 -1.1732 -2.7201 -1.8094
 7784SOL    HW224252   6.813   0.623   0.200  0.2296 -0.0470 -1.6246
 7785SOL     OW24253   3.997   4.944   0.579  0.2094 -0.5508  0.6958
 7785SOL    HW124254   3.944   5.028   0.581  0.6067 -0.3142  1.4471
 7785SOL    HW224255   4.019   4.915   0.672  0.2128 -1.4015  0.4438
 7786SOL     OW24256   0.012   0.942   5.680  0.0987 -0.0182 -0.0692
 7786SOL    HW124257  -0.011   1.035   5.709  1.0182  0.3741 -0.5429
 7786SOL    HW224258  -0.046   0.876   5.728 -1.2508  0.8492 -0.4552
 7787SOL     OW24259   3.222   5.600   3.434 -0.0996  0.0809 -0.2698
 7787SOL    HW124260   3.160   5.536   3.389 -1.8392  0.7125  1.1235
 7787SOL    HW224261   3.182   5.692   3.434  1.0496  0.6054  0.2506
 7788SOL     OW24262   3.251   1.427   3.101 -0.3731  0.1464 -0.0579
 7788SOL    HW124263   3.184   1.373   3.152 -0.1265  0.1083  0.2313
 7788SOL    HW224264   3.276   1.508   3.154 -1.1949  0.8841 -0.7479
 7789SOL     OW24265   4.639   2.349   3.169  0.3972 -0.1086 -0.0723
 7789SOL    HW124266   4.595   2.436   3.148  0.5076  0.1980  0.8959
 7789SOL    HW224267   4.706   2.362   3.242  0.2715 -1.0358  0.2286
 7790SOL     OW24268   5.054   5.085   1.477 -0.4942  0.0580  0.1132
 7790SOL    HW124269   5.099   5.007   1.519 -1.0206  0.6003  1.7414
 7790SOL    HW224270   4.978   5.053   1.419 -1.9289 -0.6123  2.2505
 7791SOL     OW24271   2.927   1.496   2.357  0.1204  0.0222 -0.5126
 7791SOL    HW124272   2.978   1.547   2.427 -0.1935  1.3588 -1.2291
 7791SOL    HW224273   2.972   1.507   2.269 -1.4825  1.4238 -1.2095
 7792SOL     OW24274   6.849   2.875   3.899 -0.8916 -0.0333  0.4199
 7792SOL    HW124275   6.850   2.806   3.972  2.5750  0.8581  1.4138
 7792SOL    HW224276   6.876   2.964   3.937  0.3758  0.5937 -1.7886
 7793SOL     OW24277   1.453   5.368   3.810 -0.5415  0.1855 -0.3700
 7793SOL    HW124278   1.428   5.454   3.854 -0.8106 -0.4823  0.8369
 7793SOL    HW224279   1.406   5.361   3.722 -0.8955  1.0468 -0.2609
 7794SOL     OW24280   1.042   4.648   6.529  0.5294  0.1825  0.2798
 7794SOL    HW124281   0.954   4.617   6.493 -0.1164  0.2229  1.7364
 7794SOL    HW224282   1.077   4.581   6.594  1.4168  0.3324 -0.0309
 7795SOL     OW24283   1.386   5.971   2.976  0.7034 -0.1765  0.1890
 7795SOL    HW124284   1.413   5.883   3.016  2.1950  0.7906  1.4343
 7795SOL    HW224285   1.349   6.030   3.048  1.0603  0.7066 -0.3329
 7796SOL     OW24286   0.429   6.015   4.613  0.2706 -0.1529 -0.0543
 7796SOL    HW124287   0.435   5.923   4.575 -0.0401  0.1180 -0.7759
 7796SOL    HW224288   0.387   6.011   4.704  0.6375 -0.7587  0.0980
 7797SOL     OW24289   5.239   1.852   2.217  0.2777 -0.6529 -0.1497
 7797SOL    HW124290   5.229   1.859   2.118  0.9246  0.6774 -0.1558
 7797SOL    HW224291   5.333   1.877   2.243 -0.0935 -0.2225  0.8485
 7798SOL     OW24292   0.045   0.447   3.522 -0.6588 -0.2691  0.1117
 7798SOL    HW124293  -0.049   0.469   3.549 -0.8071 -0.8776  0.1151
 7798SOL    HW224294   0.055   0.348   3.514 -0.3160 -0.1543 -1.0088
 7799SOL     OW24295   0.083   0.269   6.815  0.0962  0.3800  0.0168
 7799SOL    HW124296   0.057   0.316   6.730 -2.2088 -1.8990 -0.6863
 7799SOL    HW224297   0.172   0.227   6.804 -0.5390 -0.6379 -1.6880
 7800SOL     OW24298   0.955   3.922   6.796 -0.6231 -0.0859 -0.0494
 7800SOL    HW124299   0.857   3.910   6.778 -1.1886  3.4147 -0.0558
 7800SOL    HW224300   1.006   3.910   6.711 -1.0808 -1.5204 -0.1387
 7801SOL     OW24301   1.423   5.545   1.867 -0.1631  0.5455 -0.6484
 7801SOL    HW124302   1.411   5.630   1.919 -0.6358  0.7913 -1.1543
 7801SOL    HW224303   1.335   5.516   1.830 -0.0467 -0.2972 -0.2877
 7802SOL     OW24304   0.451   5.176   4.579  0.3475  0.1828  0.2683
 7802SOL    HW124305   0.513   5.214   4.648 -0.0800 -1.1582  1.4404
 7802SOL    HW224306   0.357   5.202   4.602  0.2154 -0.1523  0.1034
 7803SOL     OW24307   2.644   4.436   0.419  0.1459 -0.1006  0.5131
 7803SOL    HW124308   2.635   4.440   0.320  0.4308 -1.0456  0.4429
 7803SOL    HW224309   2.690   4.351   0.445 -1.3386 -0.6319  1.5372
 7804SOL     OW24310   5.868   5.157   0.881 -0.1823  0.3956 -0.1236
 7804SOL    HW124311   5.833   5.200   0.798  0.4565  0.5678 -0.3004
 7804SOL    HW224312   5.887   5.227   0.950  0.7490  0.3958 -0.3722
 7805SOL     OW24313   1.314   2.383   4.222 -0.4651  0.1971  0.1548
 7805SOL    HW124314   1.310   2.325   4.141 -1.6804  0.2663  0.1492
 7805SOL    HW224315   1.318   2.479   4.195  1.9458  0.1622  0.1562
 7806SOL     OW24316   1.778   3.073   1.877 -0.1910 -0.0181 -0.0431
 7806SOL    HW124317   1.725   3.120   1.948  0.7312 -0.5798  1.0503
 7806SOL    HW224318   1.818   3.141   1.816  2.2658  0.8302  2.3145
 7807SOL     OW24319   0.999   1.848   0.704  1.0040  0.1428 -0.0155
 7807SOL    HW124320   0.922   1.786   0.717 -0.5203  2.1975  1.4034
 7807SOL    HW224321   1.075   1.798   0.663 -0.5308 -2.3301 -0.0699
 7808SOL     OW24322   5.121   0.064   4.018 -0.5239 -0.2903  0.4036
 7808SOL    HW124323   5.094   0.015   4.101  0.7349 -0.1623  0.9102
 7808SOL    HW224324   5.195   0.014   3.972  0.4492  0.8525  0.6729
 7809SOL     OW24325   3.156   0.054   2.665  0.2612  0.2266  0.1793
 7809SOL    HW124326   3.175   0.007   2.578 -0.2606  0.6955 -0.1939
 7809SOL    HW224327   3.072   0.107   2.656  1.0905  1.6302  0.4398
 7810SOL     OW24328   1.996   5.268   0.067 -0.2377 -0.1612 -0.3702
 7810SOL    HW124329   2.068   5.281   0.136 -0.8291 -0.7187  0.3609
 7810SOL    HW224330   2.034   5.219  -0.011  0.1140 -0.6843  0.1251
 7811SOL     OW24331   0.923   6.621   1.445  0.0798  0.6772 -0.0348
 7811SOL    HW124332   0.897   6.717   1.451 -0.1589  0.6650 -0.7831
 7811SOL    HW224333   1.022   6.614   1.435 -0.0009  0.9104 -1.1386
 7812SOL     OW24334   5.884   2.095   0.935  0.1822  0.7754  0.3337
 7812SOL    HW124335   5.976   2.117   0.967 -0.2249  0.3774  1.9012
 7812SOL    HW224336   5.819   2.109   1.010 -0.9107  0.1675 -0.4719
 7813SOL     OW24337   2.724   2.895   5.359 -0.3687  0.4354  0.0039
 7813SOL    HW124338   2.674   2.972   5.318 -0.6159 -0.1224 -0.7611
 7813SOL    HW224339   2.666   2.813   5.356  0.1525  0.0591  0.1862
 7814SOL     OW24340   4.872   4.969   5.368  0.0146 -0.4206  0.6639
 7814SOL    HW124341   4.926   5.017   5.299 -2.2130  1.8426  0.3243
 7814SOL    HW224342   4.910   4.878   5.384  2.1202 -0.0378 -1.6294
 7815SOL     OW24343   6.036   4.579   4.601  0.2387  0.2102  0.1321
 7815SOL    HW124344   6.036   4.679   4.610 -1.4276  0.2877 -0.4282
 7815SOL    HW224345   5.953   4.550   4.554 -0.2077 -1.5916  1.9074
 7816SOL     OW24346   6.413   6.595   5.465 -0.1576 -0.6819 -0.2680
 7816SOL    HW124347   6.467   6.511   5.473  0.3062 -0.4064 -0.4742
 7816SOL    HW224348   6.372   6.599   5.374 -3.1481 -2.4431  0.8489
 7817SOL     OW24349   0.770   3.365   4.002 -0.1198  0.1128 -0.3921
 7817SOL    HW124350   0.779   3.303   4.081 -0.0078  0.7594  0.1118
 7817SOL    HW224351   0.686   3.417   4.010  0.5049  1.0921 -0.0294
 7818SOL     OW24352   3.247   5.882   3.744 -0.3004  0.3077  0.0780
 7818SOL    HW124353   3.172   5.881   3.678  2.0241 -1.9628 -2.8197
 7818SOL    HW224354   3.304   5.963   3.727  0.9146 -0.8369 -1.6305
 7819SOL     OW24355   1.726   6.748   3.218  0.5552  0.2559 -0.1731
 7819SOL    HW124356   1.749   6.831   3.167 -0.4506  0.4245 -0.3642
 7819SOL    HW224357   1.643   6.763   3.271 -0.0624 -0.8581 -0.7902
 7820SOL     OW24358   5.531   2.844   4.569 -0.0875  0.0177 -0.0863
 7820SOL    HW124359   5.498   2.785   4.495  0.9301  0.7686 -1.1718
 7820SOL    HW224360   5.461   2.849   4.640 -0.7902 -1.3139 -0.6332
 7821SOL     OW24361   3.609   5.501   4.222  0.0836  0.2637 -0.1191
 7821SOL    HW124362   3.510   5.484   4.212 -0.0727  1.4185 -0.7096
 7821SOL    HW224363   3.623   5.574   4.288  0.5488  0.1791 -0.1260
 7822SOL     OW24364   0.144   0.494   3.268 -0.9274  0.0598  0.3501
 7822SOL    HW124365   0.101   0.489   3.359 -0.0801 -1.8639  0.6943
 7822SOL    HW224366   0.218   0.428   3.263  1.0987  2.2745 -0.7303
 7823SOL     OW24367   1.440   2.154   6.229 -0.2197  0.5153 -0.2109
 7823SOL    HW124368   1.352   2.167   6.183 -1.5905  1.2696  2.4028
 7823SOL    HW224369   1.439   2.068   6.279 -0.0753  1.1938  1.0008
 7824SOL     OW24370   1.044   1.617   0.365 -0.0438  0.6160  0.0472
 7824SOL    HW124371   1.024   1.575   0.454 -1.4458  0.9263 -0.1038
 7824SOL    HW224372   1.143   1.631   0.357  0.2593 -0.7799  0.9329
 7825SOL     OW24373   6.419   3.034   5.434 -0.4750 -0.1525 -0.4727
 7825SOL    HW124374   6.333   3.000   5.473  0.0048 -1.5073 -0.5473
 7825SOL    HW224375   6.399   3.107   5.368 -1.5411 -0.2027 -0.2249
 7826SOL     OW24376   6.099   0.090   1.509  0.5963  0.5262 -0.7890
 7826SOL    HW124377   6.021   0.051   1.459 -0.2467 -0.0193  0.8679
 7826SOL    HW224378   6.114   0.038   1.593  0.4564  2.8098  0.7358
 7827SOL     OW24379   0.862   0.545   6.107  0.0245 -0.6823  0.1131
 7827SOL    HW124380   0.794   0.498   6.163  1.0636 -2.1182  0.2494
 7827SOL    HW224381   0.871   0.497   6.019  0.2092  0.0421 -0.2714
 7828SOL     OW24382   2.721   1.688   4.725  0.3109 -0.5865  0.2184
 7828SOL    HW124383   2.767   1.600   4.715  2.7744  0.7983 -1.9938
 7828SOL    HW224384   2.775   1.747   4.785  0.2451  0.3369 -0.5968
 7829SOL     OW24385   4.111   4.043   6.160 -0.7066 -0.4310 -0.1555
 7829SOL    HW124386   4.017   4.074   6.172 -1.3082 -1.8249 -0.9248
 7829SOL    HW224387   4.169   4.083   6.231 -1.9376  0.1824  0.5450
 7830SOL     OW24388   1.908   6.282   3.490 -0.3145 -0.4554  0.4076
 7830SOL    HW124389   1.915   6.371   3.534 -1.1106  0.2035 -0.7351
 7830SOL    HW224390   1.812   6.257   3.479 -0.1341 -0.8156 -0.5083
 7831SOL     OW24391   0.615   3.061   3.024  0.1330  0.1177 -0.1056
 7831SOL    HW124392   0.678   2.994   2.984 -0.9033 -1.7273  1.1748
 7831SOL    HW224393   0.629   3.064   3.123 -1.2704  0.2015  0.1116
 7832SOL     OW24394   0.761   6.752   5.166  0.4847 -0.1569  0.3848
 7832SOL    HW124395   0.747   6.840   5.122  0.2743  0.4344  1.6042
 7832SOL    HW224396   0.857   6.725   5.158  0.5708  0.2350  0.1040
 7833SOL     OW24397   3.799   6.878   2.423  0.2818  0.1497 -0.2023
 7833SOL    HW124398   3.727   6.813   2.402  0.1720 -0.0245  0.6908
 7833SOL    HW224399   3.766   6.945   2.489 -0.1089  2.0718 -2.2111
 7834SOL     OW24400   4.731   4.527   3.531  0.3838  0.0342 -0.0282
 7834SOL    HW124401   4.814   4.519   3.587 -0.0767  0.6967  0.7869
 7834SOL    HW224402   4.691   4.436   3.517 -1.4514  0.0175  3.8356
 7835SOL     OW24403   5.135   3.217   1.538  0.5777  0.5616 -0.0706
 7835SOL    HW124404   5.120   3.159   1.618  1.0093  2.5079  1.5106
 7835SOL    HW224405   5.049   3.230   1.489  0.2548 -0.4483  0.2078
 7836SOL     OW24406   6.673   2.381   2.600  0.1281  0.0644  0.3615
 7836SOL    HW124407   6.657   2.443   2.524  0.5814 -1.3559 -0.9408
 7836SOL    HW224408   6.771   2.381   2.623 -0.2371  1.9733  2.3381
 7837SOL     OW24409   2.171   6.933   1.834  0.5218 -0.6655 -0.2503
 7837SOL    HW124410   2.084   6.916   1.880 -0.2612 -0.5936 -1.6283
 7837SOL    HW224411   2.175   7.028   1.803  2.3576  0.1905  2.2763
 7838SOL     OW24412   6.824   5.481   0.692 -0.2079  0.3236 -0.2347
 7838SOL    HW124413   6.882   5.534   0.630 -0.8343 -0.0450 -1.1488
 7838SOL    HW224414   6.731   5.478   0.657 -0.4896 -0.2328  0.5249
 7839SOL     OW24415   5.967   5.160   6.430 -0.4146 -0.1465 -0.0687
 7839SOL    HW124416   5.905   5.220   6.482  1.2159  0.9592  0.6715
 7839SOL    HW224417   6.038   5.125   6.491  1.0218  0.4492 -1.3345
 7840SOL     OW24418   4.045   0.009   4.673 -1.0497  0.0531 -0.7366
 7840SOL    HW124419   4.142   0.036   4.677 -0.5075 -1.9150  2.1076
 7840SOL    HW224420   3.992   0.068   4.735 -1.3792  0.0764 -1.0402
 7841SOL     OW24421   3.861   0.847   1.759 -0.2826  0.1765 -0.6652
 7841SOL    HW124422   3.817   0.768   1.716 -0.6000 -0.4028  0.6573
 7841SOL    HW224423   3.935   0.880   1.701  0.1544 -1.3847 -1.0560
 7842SOL     OW24424   1.357   3.684   0.023  0.0128 -0.4066 -0.5452
 7842SOL    HW124425   1.289   3.630   0.072  0.4837 -0.8869 -0.4144
 7842SOL    HW224426   1.311   3.751  -0.036 -0.5750 -1.2281 -1.0322
 7843SOL     OW24427   5.357   0.309   2.461  0.1228  0.1821 -0.1950
 7843SOL    HW124428   5.322   0.312   2.367  3.0346  1.5625 -1.3623
 7843SOL    HW224429   5.338   0.396   2.507  0.5086  0.3008 -0.2544
 7844SOL     OW24430   0.591   2.505   0.233  0.0188  0.0149 -0.6266
 7844SOL    HW124431   0.627   2.598   0.233  1.4150 -0.4797  1.0936
 7844SOL    HW224432   0.625   2.456   0.153  0.8615  0.4163 -0.5222
 7845SOL     OW24433   5.410   5.441   3.802 -0.0521 -0.2116  0.4739
 7845SOL    HW124434   5.499   5.486   3.799 -0.2006  0.0609 -1.2046
 7845SOL    HW224435   5.421   5.345   3.828  0.7407 -0.1786  0.2679
 7846SOL     OW24436   0.360   3.160   3.068 -0.3871 -0.7695 -0.5778
 7846SOL    HW124437   0.361   3.231   3.139 -0.6456 -1.7885  0.4820
 7846SOL    HW224438   0.453   3.139   3.041 -0.3321  0.3681 -1.3228
 7847SOL     OW24439   6.826   6.715   0.909 -0.2014 -0.0972  0.2666
 7847SOL    HW124440   6.843   6.814   0.914  1.4556 -0.2641 -0.9646
 7847SOL    HW224441   6.867   6.670   0.988  0.1183  0.1015  0.2187
 7848SOL     OW24442   2.031   2.656   3.782 -0.1929  0.4167 -0.0892
 7848SOL    HW124443   1.991   2.610   3.861  0.2756 -1.9452 -1.1483
 7848SOL    HW224444   2.033   2.754   3.799 -0.2296  0.0234  2.7743
 7849SOL     OW24445   2.294   0.244   0.676 -0.0499 -0.2982  0.2387
 7849SOL    HW124446   2.239   0.295   0.743  2.0223  2.9566 -0.3230
 7849SOL    HW224447   2.360   0.187   0.724  0.6739  1.1634  1.0671
 7850SOL     OW24448   2.955   1.121   3.601 -0.5325  0.0690  0.2262
 7850SOL    HW124449   2.898   1.145   3.523 -0.0992 -0.8982 -0.4128
 7850SOL    HW224450   2.996   1.031   3.585  2.5363  1.4124 -0.1347
 7851SOL     OW24451   1.960   4.066   6.287 -0.3192 -0.1724  0.1203
 7851SOL    HW124452   2.012   4.132   6.233  0.2182 -1.4789 -1.0282
 7851SOL    HW224453   1.970   4.087   6.384  2.5080 -0.4337 -0.0227
 7852SOL     OW24454   0.334   2.687   2.531 -0.0504  0.3793 -0.1263
 7852SOL    HW124455   0.391   2.668   2.451 -0.5000 -0.0100 -0.3553
 7852SOL    HW224456   0.385   2.746   2.595  0.7961 -0.3707 -0.0965
 7853SOL     OW24457   1.886   6.552   6.694  0.0057 -0.2728 -0.6291
 7853SOL    HW124458   1.894   6.488   6.770  0.8896  0.5531  0.0007
 7853SOL    HW224459   1.805   6.530   6.640  0.1686 -1.7674 -0.3023
 7854SOL     OW24460   6.519   3.025   3.620 -0.1409 -0.0073 -0.0995
 7854SOL    HW124461   6.436   3.071   3.587 -1.2006 -1.1317  0.8507
 7854SOL    HW224462   6.581   3.092   3.660 -1.7830  0.6176  1.5675
 7855SOL     OW24463   2.855   3.912   6.570  0.2594 -0.5670 -1.4087
 7855SOL    HW124464   2.774   3.893   6.516  1.2206 -1.9759 -2.4080
 7855SOL    HW224465   2.854   4.008   6.599 -0.2810  0.2688 -3.9560
 7856SOL     OW24466   5.130   2.867   3.291  0.0877 -0.2245 -0.2643
 7856SOL    HW124467   5.093   2.802   3.224  0.4049 -0.4551 -0.2223
 7856SOL    HW224468   5.064   2.879   3.365  0.4309 -1.2687  0.2294
 7857SOL     OW24469   0.996   3.020   6.785 -0.5176  0.3138 -0.2170
 7857SOL    HW124470   1.074   3.075   6.756  0.2952 -0.7631 -0.1007
 7857SOL    HW224471   0.945   2.988   6.705 -1.0605  1.3025 -0.2834
 7858SOL     OW24472   2.971   2.196   3.520 -0.2588  0.4281 -0.1893
 7858SOL    HW124473   3.059   2.147   3.514  0.1387  1.0397  0.5423
 7858SOL    HW224474   2.936   2.191   3.613 -1.2082 -0.1344 -0.5587
 7859SOL     OW24475   1.319   2.033   1.098  0.3151 -0.3786 -0.2788
 7859SOL    HW124476   1.373   2.046   1.015 -1.5650 -0.3916 -1.5714
 7859SOL    HW224477   1.379   2.029   1.178  2.0304  2.0148 -1.3423
 7860SOL     OW24478   4.141   1.010   6.888 -0.5078  0.3395 -0.4310
 7860SOL    HW124479   4.108   1.100   6.917  1.5608  0.7608  0.8103
 7860SOL    HW224480   4.239   1.015   6.867 -0.1856 -1.7630  0.3324
 7861SOL     OW24481   0.374   5.550   1.544 -0.0438 -0.4305 -0.1378
 7861SOL    HW124482   0.297   5.487   1.542  0.6956 -1.3593  0.2491
 7861SOL    HW224483   0.369   5.611   1.465 -1.4003 -0.1890  0.1056
 7862SOL     OW24484   1.516   4.998   4.768 -0.1244  0.1921  0.1236
 7862SOL    HW124485   1.500   5.001   4.867 -2.3699  0.0135 -0.1950
 7862SOL    HW224486   1.607   5.034   4.749 -0.0187  1.1723  2.1633
 7863SOL     OW24487   2.574   5.311   2.869  0.1082  0.0678 -0.3218
 7863SOL    HW124488   2.553   5.393   2.922  0.2756 -0.8044  1.1426
 7863SOL    HW224489   2.668   5.282   2.887  0.5054  0.2941 -1.8775
 7864SOL     OW24490   6.959   0.733   1.735 -0.0996  0.1673  0.2309
 7864SOL    HW124491   6.957   0.650   1.679  0.7716 -0.4658  1.1152
 7864SOL    HW224492   6.898   0.802   1.694 -0.1800 -0.5913 -0.9809
 7865SOL     OW24493   0.695   5.459   4.370  0.7710 -0.1867 -0.3577
 7865SOL    HW124494   0.646   5.423   4.449 -0.3254  0.3356 -0.7803
 7865SOL    HW224495   0.645   5.434   4.286  1.9388 -0.7848 -0.8994
 7866SOL     OW24496   6.292   4.904   2.416  0.4603 -0.3375 -0.6205
 7866SOL    HW124497   6.339   4.846   2.351  2.4109  0.3715  0.0781
 7866SOL    HW224498   6.343   4.990   2.428 -0.8791  0.3725  0.3828
 7867SOL     OW24499   3.133   1.213   4.650  0.0043 -0.0136  0.4170
 7867SOL    HW124500   3.041   1.180   4.629 -0.1632 -0.5951  1.9411
 7867SOL    HW224501   3.128   1.308   4.681 -0.0120  0.1328 -0.0299
 7868SOL     OW24502   6.701   4.436   2.297  0.1344 -0.2154 -0.6025
 7868SOL    HW124503   6.729   4.512   2.239  1.6216 -2.5317 -3.1829
 7868SOL    HW224504   6.748   4.442   2.385  3.1733  0.0052 -2.0874
 7869SOL     OW24505   5.831   5.860   2.543 -0.1135  0.4304 -0.3918
 7869SOL    HW124506   5.841   5.779   2.601  1.5646  0.8784  0.0041
 7869SOL    HW224507   5.735   5.888   2.542 -0.1620  0.6605  2.5625
 7870SOL     OW24508   5.957   1.308   4.177  0.0591  0.0947 -0.3869
 7870SOL    HW124509   6.041   1.262   4.150  0.9608  1.2779  0.2808
 7870SOL    HW224510   5.948   1.394   4.126 -0.5056  0.1966 -0.1275
 7871SOL     OW24511   3.846   6.372   6.748 -0.3317 -0.3733 -0.3109
 7871SOL    HW124512   3.865   6.434   6.672  0.6866 -0.2226  0.0422
 7871SOL    HW224513   3.914   6.299   6.748 -0.7564 -0.7703  0.0362
 7872SOL     OW24514   0.249   5.679   5.588 -0.1710  0.3232  0.1134
 7872SOL    HW124515   0.313   5.603   5.589 -1.1212 -0.4981  0.2873
 7872SOL    HW224516   0.281   5.749   5.523  2.3233  1.2491  2.1897
 7873SOL     OW24517   0.175   6.200   2.004 -0.5180 -0.1629 -0.3225
 7873SOL    HW124518   0.108   6.128   2.019 -0.6436  0.0367  0.0905
 7873SOL    HW224519   0.251   6.164   1.949 -0.8464 -0.4520 -0.5899
 7874SOL     OW24520   1.444   5.498   5.720 -0.3603 -0.2493  0.4722
 7874SOL    HW124521   1.446   5.596   5.737  1.5795  0.2639 -2.2189
 7874SOL    HW224522   1.527   5.456   5.755 -0.3394 -0.6204 -0.0156
 7875SOL     OW24523   0.844   4.149   6.117 -0.3488  0.1104  0.1888
 7875SOL    HW124524   0.880   4.240   6.135 -0.4070  0.8248 -2.7530
 7875SOL    HW224525   0.918   4.088   6.089 -0.6980  0.2074 -1.0232
 7876SOL     OW24526   2.003   0.159   3.901  0.5466 -0.1707 -0.3975
 7876SOL    HW124527   1.969   0.099   3.974  1.4641  0.5122  0.6375
 7876SOL    HW224528   1.991   0.114   3.812  1.1775 -1.8921  0.3293
 7877SOL     OW24529   6.533   5.237   5.445 -0.4375  0.4858 -0.0626
 7877SOL    HW124530   6.551   5.275   5.536 -1.0027  0.5115  0.0445
 7877SOL    HW224531   6.543   5.137   5.448  0.3761  0.5604 -0.1793
 7878SOL     OW24532   3.949   3.039   3.208 -0.0808  0.2047 -0.4784
 7878SOL    HW124533   4.017   3.037   3.135 -1.3788  0.9262 -1.7641
 7878SOL    HW224534   3.859   3.019   3.171 -0.7245  0.1689  1.0151
 7879SOL     OW24535   1.856   4.357   4.766 -0.6049  0.2901  0.4592
 7879SOL    HW124536   1.838   4.451   4.735 -0.7516  0.1205  0.0184
 7879SOL    HW224537   1.929   4.318   4.709  0.8393  0.8043  1.8954
 7880SOL     OW24538   0.657   6.258   2.572  0.4735 -0.2554  0.5520
 7880SOL    HW124539   0.678   6.321   2.497 -0.0197  0.0659  0.6738
 7880SOL    HW224540   0.669   6.305   2.659  1.6515 -0.8167  0.7042
 7881SOL     OW24541   1.627   3.250   2.047 -0.1694 -0.1987 -0.6207
 7881SOL    HW124542   1.547   3.283   1.997 -0.0108 -0.8472 -1.3109
 7881SOL    HW224543   1.692   3.326   2.058 -1.7546  0.9500  1.8511
 7882SOL     OW24544   1.393   6.801   5.683 -0.0422 -0.4298 -0.2478
 7882SOL    HW124545   1.345   6.737   5.743  1.5299 -1.6364 -0.2339
 7882SOL    HW224546   1.350   6.800   5.593 -0.3321 -1.1537 -0.1103
 7883SOL     OW24547   0.514   1.265   3.657 -0.3356 -0.6142  0.3539
 7883SOL    HW124548   0.419   1.282   3.633 -0.0851 -2.3175 -2.2157
 7883SOL    HW224549   0.519   1.187   3.720 -0.6004 -2.0015 -1.2649
 7884SOL     OW24550   1.998   0.889   5.472 -0.5678  0.2016  0.1381
 7884SOL    HW124551   2.031   0.902   5.565  0.0404 -1.0824  0.1249
 7884SOL    HW224552   2.040   0.807   5.433 -4.1175 -1.9475  0.3346
 7885SOL     OW24553   4.740   1.159   2.569  0.5929 -0.2577 -0.0912
 7885SOL    HW124554   4.781   1.199   2.486 -1.3517  1.8079 -0.1347
 7885SOL    HW224555   4.762   1.216   2.648  0.1424 -0.7011  0.3634
 7886SOL     OW24556   1.156   6.428   1.449 -0.4029  0.3024  0.1762
 7886SOL    HW124557   1.087   6.361   1.424  0.7290 -1.1176  0.7175
 7886SOL    HW224558   1.166   6.495   1.376 -1.4359 -0.2090 -0.4514
 7887SOL     OW24559   0.012   0.391   2.697 -0.1944 -0.1928 -0.4793
 7887SOL    HW124560  -0.008   0.478   2.652 -2.3441 -1.0255 -1.2619
 7887SOL    HW224561  -0.048   0.320   2.660 -1.2595 -1.1999  2.8467
 7888SOL     OW24562   3.450   2.084   3.409  0.6353 -0.4626 -0.2881
 7888SOL    HW124563   3.423   2.141   3.331  0.0118 -1.1563 -0.5870
 7888SOL    HW224564   3.503   2.005   3.377 -0.5891 -1.3668 -0.1482
 7889SOL     OW24565   0.568   0.205   6.836  0.2358  0.4009  0.3289
 7889SOL    HW124566   0.546   0.178   6.929  1.0805  0.1120  0.4486
 7889SOL    HW224567   0.640   0.146   6.800  0.0270  0.6083 -0.4567
 7890SOL     OW24568   3.643   1.674   5.935 -0.5205 -0.1101 -0.0270
 7890SOL    HW124569   3.582   1.596   5.944  0.8439 -1.3736 -1.1602
 7890SOL    HW224570   3.616   1.728   5.855 -0.8053 -0.0285  0.1212
 7891SOL     OW24571   6.835   1.243   3.024 -0.2876 -0.7373  0.6444
 7891SOL    HW124572   6.797   1.215   3.112  0.5405  1.1481  1.6612
 7891SOL    HW224573   6.931   1.216   3.018 -0.8095 -2.5545 -0.5412
 7892SOL     OW24574   3.837   5.890   0.344  0.2932  0.8374  0.2348
 7892SOL    HW124575   3.781   5.903   0.425  0.4974 -1.6862  0.8737
 7892SOL    HW224576   3.924   5.938   0.354  0.8703 -0.4972  2.1521
 7893SOL     OW24577   0.091   4.360   1.306  0.1002 -0.1039  0.3250
 7893SOL    HW124578   0.029   4.361   1.384 -0.3613  0.6130 -0.0372
 7893SOL    HW224579   0.132   4.269   1.296 -0.0064 -0.2557  1.2582
 7894SOL     OW24580   2.699   3.252   6.935 -0.1721 -0.0276  0.1497
 7894SOL    HW124581   2.770   3.293   6.876 -0.9661  0.1350 -0.7226
 7894SOL    HW224582   2.640   3.324   6.971  0.2128 -0.1462  1.0263
 7895SOL     OW24583   2.507   0.668   1.218  0.4826  0.3068 -0.1844
 7895SOL    HW124584   2.450   0.648   1.297  0.7029  0.8301  0.1119
 7895SOL    HW224585   2.452   0.707   1.145  0.0710 -1.1781 -0.7150
 7896SOL     OW24586   3.580   1.567   4.006 -0.0047  0.3286  0.0012
 7896SOL    HW124587   3.528   1.532   3.929  0.4648  2.6169 -1.4487
 7896SOL    HW224588   3.574   1.503   4.083 -0.1279 -2.2318 -2.0325
 7897SOL     OW24589   1.440   2.183   1.794 -0.0089  0.0441  0.0431
 7897SOL    HW124590   1.388   2.239   1.859 -0.1320 -0.4028  0.3367
 7897SOL    HW224591   1.426   2.086   1.815  0.0579 -0.1061 -0.5669
 7898SOL     OW24592   0.789   4.927   0.310 -0.1313 -0.2539  0.1937
 7898SOL    HW124593   0.853   4.940   0.386  0.1801 -1.4441  0.1635
 7898SOL    HW224594   0.695   4.931   0.345 -0.0587  1.2230  0.2845
 7899SOL     OW24595   3.857   3.293   6.783 -0.1605 -0.3737  0.6686
 7899SOL    HW124596   3.813   3.244   6.708  1.2008 -0.5258 -0.0509
 7899SOL    HW224597   3.953   3.308   6.762 -0.6379  3.4387  0.4110
 7900SOL     OW24598   4.888   3.816   1.373 -0.7423  0.2857 -0.2127
 7900SOL    HW124599   4.984   3.841   1.362 -0.4348 -1.0787 -0.9287
 7900SOL    HW224600   4.831   3.898   1.364  0.3219  1.0671 -0.0808
 7901SOL     OW24601   1.894   1.733   0.924 -0.0512  0.1559 -0.3022
 7901SOL    HW124602   1.910   1.650   0.871  1.2212  0.0170  0.2467
 7901SOL    HW224603   1.977   1.756   0.975 -0.9618  0.7619  0.9522
 7902SOL     OW24604   4.527   2.112   5.943 -0.2558 -0.0569 -0.2005
 7902SOL    HW124605   4.472   2.030   5.950  1.2168 -1.0552  0.2230
 7902SOL    HW224606   4.567   2.133   6.032 -0.1204  0.7645 -0.4443
 7903SOL     OW24607   5.636   2.379   0.841 -0.0269  0.2671  0.0156
 7903SOL    HW124608   5.614   2.356   0.935  0.5769 -0.6481 -0.0497
 7903SOL    HW224609   5.722   2.431   0.838 -0.5742  1.1928  0.0387
 7904SOL     OW24610   2.572   5.884   5.540  0.3370 -0.5089 -0.5982
 7904SOL    HW124611   2.643   5.914   5.603 -0.6719  0.0100  0.3162
 7904SOL    HW224612   2.607   5.888   5.446  1.0794  0.9903 -0.2773
 7905SOL     OW24613   1.024   6.142   6.706  0.1819 -0.5577 -0.0228
 7905SOL    HW124614   1.018   6.148   6.805 -0.6417  0.6249 -0.1141
 7905SOL    HW224615   1.031   6.047   6.678 -0.4791 -0.9610  1.1252
 7906SOL     OW24616   6.430   4.172   2.776 -0.3706 -0.2249 -0.2883
 7906SOL    HW124617   6.466   4.143   2.687 -0.1458 -1.0708  0.0661
 7906SOL    HW224618   6.506   4.198   2.835 -0.4257 -0.9367  0.0943
 7907SOL     OW24619   1.834   2.120   5.635 -0.2915  0.5820  0.5291
 7907SOL    HW124620   1.816   2.103   5.732  0.2106  0.5918  0.6320
 7907SOL    HW224621   1.754   2.096   5.581 -0.1218 -0.6770  0.8096
 7908SOL     OW24622   0.092   6.687   0.264 -0.0601 -0.1086  0.0719
 7908SOL    HW124623   0.012   6.666   0.208 -0.3219  1.0068  0.0109
 7908SOL    HW224624   0.113   6.784   0.257  1.1025 -0.3230  0.3561
 7909SOL     OW24625   0.878   0.584   1.240  1.2943 -0.4666 -0.0952
 7909SOL    HW124626   0.810   0.516   1.269  2.2999 -1.2498  0.4819
 7909SOL    HW224627   0.899   0.572   1.144 -0.7305  0.9875 -0.7950
 7910SOL     OW24628   2.363   2.949   1.406  0.2273 -0.2087 -0.1191
 7910SOL    HW124629   2.307   3.030   1.391  0.0617 -0.2432  0.3055
 7910SOL    HW224630   2.460   2.972   1.393  0.1804  0.0600  0.0028
 7911SOL     OW24631   6.678   4.445   6.256 -0.2172 -0.0004 -0.0302
 7911SOL    HW124632   6.757   4.453   6.317  0.4538  0.1571 -0.9133
 7911SOL    HW224633   6.612   4.380   6.296  0.0257  0.3842  1.0433
 7912SOL     OW24634   4.304   3.349   1.429  0.1592 -0.3471 -0.1939
 7912SOL    HW124635   4.222   3.387   1.471 -0.8989 -2.0253 -0.6450
 7912SOL    HW224636   4.376   3.342   1.498  0.5194  2.6392 -0.1582
 7913SOL     OW24637   1.695   6.569   5.907 -0.0970  0.5546 -0.4363
 7913SOL    HW124638   1.790   6.581   5.938 -0.2048 -0.5751  0.4084
 7913SOL    HW224639   1.680   6.622   5.824  1.9088 -0.8631 -1.7981
 7914SOL     OW24640   5.912   4.346   4.689 -0.2051 -0.0954 -0.3654
 7914SOL    HW124641   5.828   4.323   4.739 -1.6949  1.9433 -1.7844
 7914SOL    HW224642   5.984   4.370   4.755 -1.3249  0.0074  0.8615
 7915SOL     OW24643   5.051   5.055   4.852  0.3662 -0.3713 -0.2711
 7915SOL    HW124644   5.117   5.111   4.802  0.6231 -0.2310  0.2160
 7915SOL    HW224645   5.062   5.071   4.950  0.5487 -1.3762 -0.1155
 7916SOL     OW24646   0.096   3.025   3.817 -0.1826 -0.1148  0.0699
 7916SOL    HW124647   0.048   2.969   3.749 -0.2617  0.3106 -0.2290
 7916SOL    HW224648   0.029   3.067   3.879 -0.5240  2.7320 -2.0222
 7917SOL     OW24649   1.557   4.140   0.634 -0.0446  0.6109 -0.1569
 7917SOL    HW124650   1.540   4.093   0.548 -1.2450  0.1197  0.3386
 7917SOL    HW224651   1.652   4.171   0.637 -0.0319  0.7746 -1.7178
 7918SOL     OW24652   4.190   5.724   5.585  0.1628 -0.0981 -0.6028
 7918SOL    HW124653   4.220   5.764   5.498 -2.7550  0.9413 -1.2500
 7918SOL    HW224654   4.159   5.630   5.569 -1.4197  0.4577 -0.9824
 7919SOL     OW24655   3.306   1.058   1.172 -0.2855  0.7307  0.1770
 7919SOL    HW124656   3.371   1.134   1.174  0.5140  0.0422  1.0102
 7919SOL    HW224657   3.351   0.974   1.201 -1.5607  0.2490  0.8678
 7920SOL     OW24658   0.388   4.507   1.360 -0.6377  0.0008 -0.1041
 7920SOL    HW124659   0.433   4.456   1.287  0.4734 -0.0602  0.6090
 7920SOL    HW224660   0.345   4.442   1.423  1.4291 -0.1514  1.2281
 7921SOL     OW24661   1.611   1.534   5.714 -0.4380  0.5028 -0.1351
 7921SOL    HW124662   1.615   1.620   5.663 -0.2871 -0.4495 -1.8101
 7921SOL    HW224663   1.521   1.524   5.756 -0.3583  1.5971  0.3275
 7922SOL     OW24664   0.602   4.645   2.544  0.1883 -0.7043  0.4857
 7922SOL    HW124665   0.558   4.602   2.465  0.1628  0.9946 -0.4681
 7922SOL    HW224666   0.645   4.575   2.601  0.0311 -1.9921 -0.9318
 7923SOL     OW24667   5.611   6.056   3.868 -0.6271 -0.7603 -0.5548
 7923SOL    HW124668   5.550   6.135   3.871 -0.2958 -0.5296  0.4844
 7923SOL    HW224669   5.706   6.087   3.873 -0.4720 -1.1900 -0.8122
 7924SOL     OW24670   6.607   1.893   6.816 -0.6059 -0.3560 -0.0961
 7924SOL    HW124671   6.661   1.925   6.738  1.4116 -0.1883  1.2912
 7924SOL    HW224672   6.530   1.839   6.784  0.8777 -1.3446 -2.1682
 7925SOL     OW24673   6.019   0.957   1.320  0.3525 -0.3449  0.1600
 7925SOL    HW124674   6.040   1.025   1.391  0.7127 -0.1094 -0.1707
 7925SOL    HW224675   5.980   0.876   1.363  1.0235 -0.3993  0.6823
 7926SOL     OW24676   2.739   6.534   0.676  0.1342 -0.2116  0.0864
 7926SOL    HW124677   2.778   6.529   0.584  0.3936  0.3216  0.1641
 7926SOL    HW224678   2.642   6.556   0.669  0.2420  0.2401 -0.0521
 7927SOL     OW24679   0.460   2.194   2.358  0.2001  0.0117  0.1349
 7927SOL    HW124680   0.458   2.269   2.424 -0.2855  1.5953 -1.6051
 7927SOL    HW224681   0.543   2.139   2.372 -0.2811 -0.2037  2.5309
 7928SOL     OW24682   4.395   1.281   5.608  0.5815 -0.0578 -0.3001
 7928SOL    HW124683   4.426   1.351   5.672  2.0272 -0.0273 -0.9752
 7928SOL    HW224684   4.467   1.265   5.540 -0.0132 -1.6646 -0.5993
 7929SOL     OW24685   6.085   3.805   6.950 -0.0604 -0.1933 -0.5451
 7929SOL    HW124686   5.987   3.824   6.951  0.0654  0.4698  0.5694
 7929SOL    HW224687   6.103   3.720   7.000 -0.2621 -1.5439 -2.6224
 7930SOL     OW24688   1.217   3.028   5.704 -0.5750  0.5880  0.4794
 7930SOL    HW124689   1.296   2.991   5.752 -1.0003  0.6557  1.2639
 7930SOL    HW224690   1.190   2.966   5.631 -0.6947 -0.1909  1.1634
 7931SOL     OW24691   5.864   3.095   4.792 -0.1531 -0.3773  0.4238
 7931SOL    HW124692   5.923   3.162   4.837 -2.0505  0.1709  2.2404
 7931SOL    HW224693   5.845   3.020   4.856 -0.2217 -1.3263 -0.6722
 7932SOL     OW24694   3.000   5.284   1.909 -0.3921 -0.2367  0.0009
 7932SOL    HW124695   2.913   5.262   1.864  0.4546  0.9080 -2.3250
 7932SOL    HW224696   3.070   5.219   1.881  0.0512  0.2518 -0.0489
 7933SOL     OW24697   1.772   0.990   5.937 -0.0663 -0.1061 -0.1764
 7933SOL    HW124698   1.773   0.904   5.988 -2.3226  0.3137  0.6863
 7933SOL    HW224699   1.860   1.036   5.947  0.5036 -1.3859  0.9562
 7934SOL     OW24700   0.410   1.985   4.924  0.2938  0.1278  0.1986
 7934SOL    HW124701   0.496   2.035   4.909 -0.9719  2.3930  0.0988
 7934SOL    HW224702   0.334   2.038   4.888 -1.3668 -1.0168  1.8484
 7935SOL     OW24703   0.302   3.769   5.248  0.2888  0.5366  0.1325
 7935SOL    HW124704   0.263   3.751   5.158 -0.1351 -0.6184  0.5246
 7935SOL    HW224705   0.229   3.794   5.312  0.2734 -0.7758  0.6613
 7936SOL     OW24706   0.828   4.675   5.694 -0.1189  0.0644 -0.5992
 7936SOL    HW124707   0.749   4.615   5.706  0.8663 -1.1890 -0.2670
 7936SOL    HW224708   0.873   4.656   5.607  1.1867 -0.9134  0.2458
 7937SOL     OW24709   2.928   3.081   5.925 -0.3291  0.0421  0.3165
 7937SOL    HW124710   2.879   3.125   6.000 -0.4616  0.8044 -0.2105
 7937SOL    HW224711   2.971   3.151   5.867 -1.3578 -0.4479 -1.1003
 7938SOL     OW24712   1.882   5.195   3.964  0.1626  0.2508  0.1985
 7938SOL    HW124713   1.909   5.149   3.880 -0.7044 -0.3072  0.2125
 7938SOL    HW224714   1.814   5.265   3.942 -0.0090  0.1548  0.4254
 7939SOL     OW24715   0.026   0.200   3.698 -0.1059  0.2735  0.0056
 7939SOL    HW124716   0.108   0.241   3.737  0.1828  1.2732 -1.5735
 7939SOL    HW224717  -0.056   0.246   3.735  0.0612 -0.0869  0.8535
 7940SOL     OW24718   4.960   1.520   4.707  0.4296 -0.9806  0.9594
 7940SOL    HW124719   4.928   1.571   4.787 -1.1483 -0.2019 -0.1200
 7940SOL    HW224720   5.053   1.549   4.684  0.2622  0.0335  1.5026
 7941SOL     OW24721   4.022   5.484   3.252 -0.3843 -0.1326 -0.3210
 7941SOL    HW124722   4.015   5.501   3.154  1.2861  0.7816 -0.3220
 7941SOL    HW224723   3.936   5.446   3.286 -1.9150  1.9321 -1.6692
 7942SOL     OW24724   6.727   2.718   3.701 -0.3964 -0.7028 -0.3544
 7942SOL    HW124725   6.785   2.781   3.754  1.7668 -1.5450 -1.6027
 7942SOL    HW224726   6.767   2.626   3.703 -1.9646 -1.4277 -0.9039
 7943SOL     OW24727   6.868   5.694   4.036 -0.3519 -0.1692 -0.4063
 7943SOL    HW124728   6.794   5.759   4.022  0.2773  0.9097  0.9273
 7943SOL    HW224729   6.847   5.636   4.115 -0.3900 -0.8018 -0.8783
 7944SOL     OW24730   1.374   2.170   4.031 -0.5308 -0.2725  0.4800
 7944SOL    HW124731   1.474   2.172   4.032 -0.5372  0.1785  0.9449
 7944SOL    HW224732   1.342   2.176   3.936 -0.1192 -0.7881  0.3011
 7945SOL     OW24733   2.788   2.586   6.933 -0.6293 -0.4621 -0.3192
 7945SOL    HW124734   2.886   2.574   6.952 -0.4518  1.6780  0.4663
 7945SOL    HW224735   2.736   2.512   6.976  0.5811 -1.0853  0.1136
 7946SOL     OW24736   5.733   4.431   6.268 -0.2695 -0.6482 -0.5649
 7946SOL    HW124737   5.702   4.420   6.363  1.7577  0.2076  0.2665
 7946SOL    HW224738   5.752   4.341   6.229 -1.4174 -1.0291 -0.2748
 7947SOL     OW24739   4.500   3.581   0.110 -0.0865  1.0239 -0.0186
 7947SOL    HW124740   4.599   3.592   0.119  0.1837 -0.1753 -1.2375
 7947SOL    HW224741   4.463   3.661   0.062  0.4656  0.9385 -0.6006
 7948SOL     OW24742   5.174   6.098   3.690  0.0435 -0.0329  0.1088
 7948SOL    HW124743   5.151   6.063   3.781  1.3813 -0.7110  0.2002
 7948SOL    HW224744   5.176   6.022   3.625  0.1346  0.2942 -0.2711
 7949SOL     OW24745   3.983   5.127   5.138 -0.8029 -0.1629 -0.3953
 7949SOL    HW124746   4.036   5.051   5.099 -0.6570  0.9964 -2.6858
 7949SOL    HW224747   3.886   5.104   5.138 -0.6562 -0.8031  0.0860
 7950SOL     OW24748   6.416   6.201   4.705 -0.4869 -0.8356 -0.5970
 7950SOL    HW124749   6.470   6.123   4.735 -0.6204 -0.4175  0.7888
 7950SOL    HW224750   6.475   6.266   4.657  0.2119 -0.5244  0.6337
 7951SOL     OW24751   6.001   0.129   0.256 -0.4282 -0.2750 -0.1736
 7951SOL    HW124752   6.000   0.077   0.342 -0.7841  1.1720  0.7419
 7951SOL    HW224753   6.043   0.074   0.184  0.5621 -1.2527  1.1032
 7952SOL     OW24754   6.597   4.896   5.677  0.0145  0.1718 -0.2018
 7952SOL    HW124755   6.614   4.910   5.579  1.1315  1.4665  0.1444
 7952SOL    HW224756   6.613   4.982   5.726 -3.3179  0.3588  0.8023
 7953SOL     OW24757   1.124   4.990   2.621  0.0917 -0.1012  0.0201
 7953SOL    HW124758   1.203   4.932   2.601  0.3861  0.2406  0.1712
 7953SOL    HW224759   1.057   4.982   2.548  0.0673 -0.7387  0.1077
 7954SOL     OW24760   3.374   2.624   6.679 -0.0049 -0.3959  0.0980
 7954SOL    HW124761   3.447   2.559   6.658 -1.1066 -1.6033 -0.0569
 7954SOL    HW224762   3.373   2.696   6.609  0.7218 -0.6248 -0.1602
 7955SOL     OW24763   0.178   4.926   5.678  0.2872  0.5176 -0.7123
 7955SOL    HW124764   0.194   4.932   5.580 -1.7294  1.7724 -1.0124
 7955SOL    HW224765   0.256   4.966   5.727  1.5804 -0.6519 -1.7324
 7956SOL     OW24766   5.895   6.823   2.945  0.5006  0.0715  0.2948
 7956SOL    HW124767   5.935   6.903   2.989  1.0010  0.4951 -0.8975
 7956SOL    HW224768   5.863   6.759   3.015 -0.7215  1.6984  1.2793
 7957SOL     OW24769   6.571   1.745   0.283 -0.4610  0.1507 -0.1837
 7957SOL    HW124770   6.531   1.759   0.193 -1.2887  1.5091  0.3601
 7957SOL    HW224771   6.600   1.832   0.321  2.7093 -0.7106 -0.3505
 7958SOL     OW24772   0.751   2.849   4.938 -0.3143  0.2905  0.1246
 7958SOL    HW124773   0.712   2.885   5.022  0.2929 -0.2082  0.6378
 7958SOL    HW224774   0.835   2.798   4.959 -0.9641 -1.1530 -0.5920
 7959SOL     OW24775   5.849   0.862   1.610 -0.9534 -0.1147  0.3780
 7959SOL    HW124776   5.827   0.929   1.682 -0.7500  0.5743 -0.1871
 7959SOL    HW224777   5.945   0.835   1.618 -1.0311 -0.3328  0.5961
 7960SOL     OW24778   4.728   6.621   3.635  0.2115  0.1279 -0.2647
 7960SOL    HW124779   4.745   6.716   3.609 -0.1505 -0.0994 -1.4054
 7960SOL    HW224780   4.762   6.604   3.728 -0.9402  1.7361  0.5025
 7961SOL     OW24781   4.167   1.750   5.303  0.3048  0.1863 -0.5539
 7961SOL    HW124782   4.193   1.813   5.230 -0.3661  0.8883 -0.2107
 7961SOL    HW224783   4.097   1.687   5.269 -3.0088  2.9954  0.3977
 7962SOL     OW24784   1.356   2.004   4.254 -0.5973 -0.7059 -0.1445
 7962SOL    HW124785   1.370   2.085   4.198  0.7458 -0.1337  0.9699
 7962SOL    HW224786   1.386   1.923   4.203  3.4504  0.0778  0.6570
 7963SOL     OW24787   1.199   0.080   5.572  0.2100  0.0313  0.2618
 7963SOL    HW124788   1.261   0.159   5.572 -0.5889  0.6987  1.7501
 7963SOL    HW224789   1.201   0.036   5.482  2.8570 -0.0118  0.2880
 7964SOL     OW24790   5.066   5.621   1.503  0.5945 -0.1720  0.5944
 7964SOL    HW124791   5.006   5.700   1.495 -0.7249 -1.1280  0.6485
 7964SOL    HW224792   5.013   5.537   1.487  1.5415 -1.1583  2.3450
 7965SOL     OW24793   0.641   6.935   1.202 -0.0385  0.2993  0.3158
 7965SOL    HW124794   0.628   7.034   1.214 -0.3229  0.3851 -0.6377
 7965SOL    HW224795   0.727   6.919   1.154 -0.5402  0.1482 -0.5447
 7966SOL     OW24796   4.135   1.235   0.364  0.7660 -0.2979  0.0973
 7966SOL    HW124797   4.131   1.146   0.319  0.1216 -0.5481  0.6500
 7966SOL    HW224798   4.212   1.287   0.326  1.7048 -1.4217  0.3878
 7967SOL     OW24799   4.544   4.670   2.731  0.1659  0.0615  0.1120
 7967SOL    HW124800   4.445   4.669   2.716  0.1177 -0.4082  0.4144
 7967SOL    HW224801   4.583   4.583   2.701  0.6808  0.7242 -1.1929
 7968SOL     OW24802   0.566   3.846   5.238 -0.3613  0.1715 -0.1190
 7968SOL    HW124803   0.468   3.828   5.249 -0.1835 -0.2393  0.9022
 7968SOL    HW224804   0.591   3.836   5.142 -1.5234  1.3584 -0.5779
 7969SOL     OW24805   3.784   0.201   1.599  0.3327 -0.3539  0.2949
 7969SOL    HW124806   3.770   0.300   1.596 -1.7932 -0.6460 -1.3723
 7969SOL    HW224807   3.735   0.162   1.677  0.8610 -0.1748  0.7289
 7970SOL     OW24808   2.257   0.263   4.886 -0.4611  0.0863 -0.9935
 7970SOL    HW124809   2.282   0.314   4.968 -1.5485  0.8584 -1.1100
 7970SOL    HW224810   2.339   0.230   4.840  0.1924  0.3513 -0.0425
 7971SOL     OW24811   5.653   4.270   1.294 -0.4172 -0.0770  0.0694
 7971SOL    HW124812   5.664   4.221   1.208  0.6332 -1.3369  0.8792
 7971SOL    HW224813   5.588   4.221   1.352 -1.6725  1.1506 -0.2461
 7972SOL     OW24814   4.300   3.797   6.764 -0.7426  0.3492  0.2577
 7972SOL    HW124815   4.307   3.777   6.862  1.8795  0.7293  0.2240
 7972SOL    HW224816   4.363   3.738   6.714 -2.9217 -0.7038 -1.4042
 7973SOL     OW24817   3.817   4.351   5.671 -0.0646 -0.2368 -0.7419
 7973SOL    HW124818   3.895   4.335   5.612 -0.3634  1.3630 -1.6155
 7973SOL    HW224819   3.846   4.345   5.767  1.0151 -0.1563 -1.0512
 7974SOL     OW24820   5.701   1.416   1.454  0.2319 -0.3502 -0.1080
 7974SOL    HW124821   5.657   1.459   1.375 -1.6219 -1.5031  0.2440
 7974SOL    HW224822   5.650   1.335   1.481  0.7621  0.0628  2.3483
 7975SOL     OW24823   0.732   1.626   3.172  0.4166  0.0627  0.4035
 7975SOL    HW124824   0.678   1.595   3.250 -0.9388  1.2742 -0.0104
 7975SOL    HW224825   0.690   1.708   3.133  0.6835 -0.8656 -1.9849
 7976SOL     OW24826   5.456   2.495   2.808 -0.4759  0.5496 -0.2521
 7976SOL    HW124827   5.553   2.490   2.832  0.1728 -0.3424 -2.7001
 7976SOL    HW224828   5.410   2.561   2.867  1.0930 -0.6276  2.4811
 7977SOL     OW24829   3.053   4.773   6.408  0.8546 -0.6747 -0.6713
 7977SOL    HW124830   3.019   4.859   6.371 -1.1855 -0.7468  0.8278
 7977SOL    HW224831   3.068   4.708   6.334 -1.8633 -0.4261 -1.5498
 7978SOL     OW24832   6.734   0.718   4.729 -0.0706 -0.4994  0.3929
 7978SOL    HW124833   6.694   0.782   4.794  0.9592  0.6002 -0.0422
 7978SOL    HW224834   6.709   0.624   4.756 -1.3600  0.0362  1.1862
 7979SOL     OW24835   2.050   2.681   0.833  0.1494  0.8946  0.5286
 7979SOL    HW124836   2.013   2.720   0.749 -2.1337  1.5794  1.7689
 7979SOL    HW224837   2.006   2.594   0.853  0.5868  0.7891  1.0925
 7980SOL     OW24838   1.003   0.336   1.282  0.5586 -0.2120  0.5264
 7980SOL    HW124839   0.959   0.425   1.272 -0.9737 -0.9864  0.1663
 7980SOL    HW224840   1.056   0.335   1.367  1.3251  1.3189  0.1062
 7981SOL     OW24841   3.827   3.544   4.479  0.0195 -0.2541 -0.0010
 7981SOL    HW124842   3.731   3.520   4.460  0.4058 -1.0708 -1.0405
 7981SOL    HW224843   3.886   3.498   4.412  0.9589  2.4929 -1.1755
 7982SOL     OW24844   5.832   6.813   2.521  0.2772  0.2160  0.2674
 7982SOL    HW124845   5.759   6.814   2.589 -0.7961  1.4145 -0.8445
 7982SOL    HW224846   5.915   6.853   2.561 -0.3449  0.9417  0.8751
 7983SOL     OW24847   0.792   5.163   5.646  0.4986 -0.2499  0.0636
 7983SOL    HW124848   0.752   5.238   5.699  0.3058 -0.1300 -0.2496
 7983SOL    HW224849   0.747   5.157   5.557  1.3948  0.1106 -0.4351
 7984SOL     OW24850   3.536   3.183   0.740  0.0306 -0.3403 -0.5853
 7984SOL    HW124851   3.503   3.181   0.834  1.2072  1.4531 -0.0725
 7984SOL    HW224852   3.474   3.132   0.681  0.1224 -2.9304  1.3954
 7985SOL     OW24853   4.209   6.871   5.004  0.2235 -0.1037 -0.5650
 7985SOL    HW124854   4.241   6.832   4.918 -0.9521 -0.0751 -1.0414
 7985SOL    HW224855   4.122   6.919   4.989 -0.4665 -0.8523  0.7997
 7986SOL     OW24856   2.188   2.490   5.166  0.2309  0.1163 -0.1527
 7986SOL    HW124857   2.167   2.405   5.118 -0.6118  1.3148 -2.0313
 7986SOL    HW224858   2.285   2.491   5.192 -0.0365 -1.9687  1.2013
 7987SOL     OW24859   0.251   5.681   4.307 -0.2893  0.1126  0.0484
 7987SOL    HW124860   0.299   5.627   4.238 -1.7060 -0.8427 -0.2497
 7987SOL    HW224861   0.315   5.708   4.379  2.3127  4.7119 -3.4418
 7988SOL     OW24862   1.779   2.070   5.884  0.5546  0.1224  0.5801
 7988SOL    HW124863   1.848   1.998   5.878  0.8540  0.2879  1.7473
 7988SOL    HW224864   1.763   2.093   5.980 -1.4677 -0.2379  0.3937
 7989SOL     OW24865   1.959   0.066   6.026  0.2186 -0.4198  0.2151
 7989SOL    HW124866   2.004  -0.011   6.070  1.8278  0.7654  0.7551
 7989SOL    HW224867   2.014   0.149   6.040 -0.0693  0.3391 -2.5719
 7990SOL     OW24868   6.153   5.507   3.823  0.7425  0.0743  0.5420
 7990SOL    HW124869   6.120   5.598   3.845  1.7329  0.2606  1.3808
 7990SOL    HW224870   6.132   5.445   3.899 -0.1384 -0.4553 -0.1281
 7991SOL     OW24871   0.102   5.447   2.517 -0.0039  0.7264  0.3011
 7991SOL    HW124872   0.051   5.371   2.558  0.6021  0.5011  0.6444
 7991SOL    HW224873   0.158   5.491   2.587 -1.6837  2.6549  0.5395
 7992SOL     OW24874   1.047   1.147   2.360 -0.7581 -0.0814 -0.5334
 7992SOL    HW124875   1.021   1.220   2.423  0.1823 -3.2621  4.0636
 7992SOL    HW224876   1.001   1.062   2.387  1.5789 -2.1938 -2.7164
 7993SOL     OW24877   3.539   3.602   1.585  0.2124 -0.3698  0.5643
 7993SOL    HW124878   3.627   3.622   1.629 -1.3297  1.8498  2.8817
 7993SOL    HW224879   3.483   3.546   1.646 -1.0627  0.7196  0.4406
 7994SOL     OW24880   1.740   3.891   2.601 -0.2981  0.4304  0.1061
 7994SOL    HW124881   1.768   3.801   2.633  0.1086 -0.1151 -1.6471
 7994SOL    HW224882   1.811   3.958   2.621  0.2824 -0.0500 -0.3155
 7995SOL     OW24883   0.383   6.334   4.901 -0.6304 -0.6344  0.2265
 7995SOL    HW124884   0.372   6.237   4.880  0.8836 -0.6934 -0.4634
 7995SOL    HW224885   0.459   6.371   4.847 -0.1574  0.5516  1.6273
 7996SOL     OW24886   0.254   6.673   4.172 -0.0308  0.2013 -0.0736
 7996SOL    HW124887   0.300   6.587   4.150 -0.0170 -0.0175  0.7401
 7996SOL    HW224888   0.253   6.732   4.092  1.6177  0.1957 -0.1461
 7997SOL     OW24889   1.359   3.349   2.125  0.3354 -0.1152  0.3617
 7997SOL    HW124890   1.295   3.375   2.053  1.9956  0.9239 -0.8208
 7997SOL    HW224891   1.308   3.324   2.208 -1.7328 -3.2430 -1.6450
 7998SOL     OW24892   5.482   0.876   1.941 -0.3047  0.4587 -0.2487
 7998SOL    HW124893   5.490   0.912   2.034  0.4514  0.6740 -0.3962
 7998SOL    HW224894   5.428   0.940   1.885 -1.4272 -0.0390  0.2269
 7999SOL     OW24895   6.306   6.298   2.072 -0.0854  0.1653  0.1947
 7999SOL    HW124896   6.396   6.329   2.101 -0.0138 -0.7429  0.9819
 7999SOL    HW224897   6.247   6.286   2.152 -0.7959  0.3936 -0.2812
 8000SOL     OW24898   6.251   5.550   4.699 -0.5791 -0.7467  0.2302
 8000SOL    HW124899   6.243   5.455   4.668 -1.4522  0.3937 -3.5856
 8000SOL    HW224900   6.347   5.571   4.716 -0.0330 -1.6886 -1.4117
 8001SOL     OW24901   6.712   4.947   3.697 -0.5906 -0.1372 -0.4038
 8001SOL    HW124902   6.716   4.998   3.611  1.9442 -0.7643 -0.7418
 8001SOL    HW224903   6.704   4.849   3.677 -0.4367 -0.2524  0.0943
 8002SOL     OW24904   6.547   5.902   0.906 -0.5236 -0.1441 -0.4201
 8002SOL    HW124905   6.504   5.827   0.854 -0.7866  0.0828 -0.5312
 8002SOL    HW224906   6.477   5.967   0.934 -0.6400 -1.0824  1.6389
 8003SOL     OW24907   0.705   1.296   4.986  0.1882  0.1857 -0.2738
 8003SOL    HW124908   0.686   1.206   4.949 -0.3501  0.4267 -0.5952
 8003SOL    HW224909   0.708   1.292   5.086  0.6638 -0.2759 -0.3034
 8004SOL     OW24910   6.235   3.128   3.623  0.0516 -0.2541 -0.3435
 8004SOL    HW124911   6.274   3.139   3.715 -1.3130 -0.6274  0.3032
 8004SOL    HW224912   6.172   3.204   3.605  1.5099  0.7138 -1.6438
 8005SOL     OW24913   0.995   6.241   1.296  0.4388  0.0710 -0.6742
 8005SOL    HW124914   0.910   6.211   1.253 -0.0692 -1.1159  1.0514
 8005SOL    HW224915   1.057   6.276   1.226 -0.3986 -1.5832 -2.3431
 8006SOL     OW24916   1.851   3.851   5.764  0.2724  0.1368 -0.2805
 8006SOL    HW124917   1.832   3.947   5.783 -0.5146  0.1766 -1.2029
 8006SOL    HW224918   1.844   3.835   5.666 -2.6218 -1.4949  0.1041
 8007SOL     OW24919   5.521   4.968   0.794 -0.3592  0.2150 -0.2778
 8007SOL    HW124920   5.558   4.875   0.787  0.5856  0.6615 -1.3121
 8007SOL    HW224921   5.504   4.989   0.891 -1.8062 -1.4881 -0.1091
 8008SOL     OW24922   3.018   2.366   5.601  0.3952 -0.1841 -0.3175
 8008SOL    HW124923   2.991   2.459   5.624  0.0466 -0.4735  0.5193
 8008SOL    HW224924   3.043   2.360   5.505 -2.4396  0.1616 -1.1689
 8009SOL     OW24925   4.542   6.294   5.149  0.2009  0.2327  0.1645
 8009SOL    HW124926   4.449   6.287   5.185 -0.0891 -0.6444 -0.7114
 8009SOL    HW224927   4.579   6.384   5.169 -1.1432  0.8796 -0.1706
 8010SOL     OW24928   3.152   6.036   6.270 -0.1032  0.1406  0.1500
 8010SOL    HW124929   3.212   5.978   6.215  1.8859  1.2278  1.0362
 8010SOL    HW224930   3.098   5.978   6.332  0.2111 -0.8822 -0.5026
 8011SOL     OW24931   5.579   5.081   6.091 -0.0503  0.2299 -0.4110
 8011SOL    HW124932   5.646   5.112   6.159 -2.3109  1.7060  1.2945
 8011SOL    HW224933   5.592   5.131   6.006 -0.4429  2.3141  0.6892
 8012SOL     OW24934   6.083   1.283   0.104 -0.2651  0.6831 -0.3334
 8012SOL    HW124935   6.043   1.220   0.171 -0.3198  0.4930 -0.5449
 8012SOL    HW224936   6.115   1.365   0.151 -2.2928  1.5353 -0.3274
 8013SOL     OW24937   4.379   0.442   5.463  0.4196 -0.2618 -0.2851
 8013SOL    HW124938   4.435   0.396   5.394  0.3439 -0.6389 -0.0951
 8013SOL    HW224939   4.292   0.470   5.423  0.5294 -0.1483 -0.4422
 8014SOL     OW24940   4.393   2.315   0.026  0.3201  0.4365 -0.1537
 8014SOL    HW124941   4.383   2.242  -0.041 -0.2701  0.5856 -0.2388
 8014SOL    HW224942   4.355   2.285   0.114 -2.0621  1.4122 -0.7743
 8015SOL     OW24943   0.697   4.768   1.818  0.0953 -0.0413 -0.6277
 8015SOL    HW124944   0.614   4.823   1.832 -0.7005 -0.6898 -2.4819
 8015SOL    HW224945   0.739   4.792   1.731  0.9418 -0.8625 -0.4589
 8016SOL     OW24946   0.969   3.096   5.784 -0.3406 -0.1969 -0.4616
 8016SOL    HW124947   0.947   3.118   5.879  1.2235 -2.8572  0.6294
 8016SOL    HW224948   1.067   3.109   5.769 -0.1725 -1.9272 -1.0212
 8017SOL     OW24949   6.777   5.202   3.803 -0.5394  0.2209 -0.3300
 8017SOL    HW124950   6.696   5.261   3.800 -0.5712  0.2738  0.9044
 8017SOL    HW224951   6.748   5.106   3.809 -0.4966  0.1823 -0.7006
 8018SOL     OW24952   6.834   3.552   6.803 -0.3615 -0.3837  0.0444
 8018SOL    HW124953   6.931   3.540   6.825 -0.6095  0.0672  1.5061
 8018SOL    HW224954   6.782   3.475   6.838 -0.8524  0.6580  1.6933
 8019SOL     OW24955   1.960   1.850   2.385  0.1476  0.1092  0.1319
 8019SOL    HW124956   1.963   1.750   2.384 -1.8843 -0.1260  3.2679
 8019SOL    HW224957   2.014   1.886   2.309 -0.5045 -3.3472 -2.1816
 8020SOL     OW24958   2.198   6.783   1.555 -0.2254  0.5588 -0.4352
 8020SOL    HW124959   2.239   6.872   1.574 -0.0413  0.5785 -0.9405
 8020SOL    HW224960   2.223   6.718   1.628 -0.6502  1.0067  0.1262
 8021SOL     OW24961   3.376   6.967   3.692 -0.3275  0.1492  0.0350
 8021SOL    HW124962   3.339   7.058   3.674  0.9268  0.3607 -1.7258
 8021SOL    HW224963   3.423   6.966   3.780  1.0370  1.6950 -0.6304
 8022SOL     OW24964   4.604   1.468   0.926 -0.0100  0.1799  1.0521
 8022SOL    HW124965   4.511   1.501   0.909 -0.7155 -2.1958 -0.2759
 8022SOL    HW224966   4.666   1.505   0.857  0.2993  2.5436  2.5117
 8023SOL     OW24967   2.916   5.763   2.521  0.2221  0.0882  0.1135
 8023SOL    HW124968   2.860   5.843   2.500  0.2889  0.1180  0.0513
 8023SOL    HW224969   2.883   5.684   2.470  0.9419  0.3653 -0.7939
 8024SOL     OW24970   1.455   1.877   1.843 -0.0979 -0.4704  0.2222
 8024SOL    HW124971   1.356   1.872   1.858 -0.1008  1.4195  1.1371
 8024SOL    HW224972   1.503   1.862   1.929  0.3515 -0.0040  0.0603
 8025SOL     OW24973   3.169   5.853   4.018 -0.4738  0.0228  0.1076
 8025SOL    HW124974   3.262   5.817   4.006 -0.2244  1.0051 -1.1176
 8025SOL    HW224975   3.116   5.834   3.935 -0.9195  0.7466  0.2282
 8026SOL     OW24976   0.826   4.841   0.056  0.5652  0.0417  0.2375
 8026SOL    HW124977   0.807   4.856   0.153  1.9298 -1.0525  0.7186
 8026SOL    HW224978   0.778   4.909   0.001 -0.4965  0.4805  1.6511
 8027SOL     OW24979   2.520   2.475   0.723  0.2751 -0.0936 -0.3929
 8027SOL    HW124980   2.427   2.439   0.723  0.0111  0.5719  0.5631
 8027SOL    HW224981   2.579   2.415   0.668 -0.5805 -0.8517 -0.4958
 8028SOL     OW24982   6.316   0.610   6.109 -0.2419 -0.0574 -0.3680
 8028SOL    HW124983   6.388   0.654   6.056 -0.2976 -0.0655 -0.4506
 8028SOL    HW224984   6.251   0.678   6.141 -0.0853 -0.0245 -0.1187
 8029SOL     OW24985   5.407   1.224   2.776 -0.1632 -0.7186 -0.1838
 8029SOL    HW124986   5.312   1.198   2.758 -0.0899 -0.6034 -0.7612
 8029SOL    HW224987   5.459   1.143   2.804 -0.8189 -0.4793  1.8831
 8030SOL     OW24988   2.686   0.340   4.614 -0.1553  0.2626  0.4487
 8030SOL    HW124989   2.738   0.260   4.585  1.0656  0.4730  1.9103
 8030SOL    HW224990   2.629   0.316   4.693 -0.3299  0.6506  0.4418
 8031SOL     OW24991   6.017   0.627   3.112  0.6220 -0.3016 -0.0280
 8031SOL    HW124992   5.953   0.701   3.132 -2.5931 -3.3181  1.6885
 8031SOL    HW224993   6.019   0.612   3.013 -0.8072  0.3103 -0.1812
 8032SOL     OW24994   6.375   5.421   2.925  0.3641 -0.4808 -0.5368
 8032SOL    HW124995   6.420   5.366   2.995 -2.0118 -1.6607  0.1562
 8032SOL    HW224996   6.285   5.448   2.957  0.1146  0.9211 -2.2738
 8033SOL     OW24997   6.206   2.052   0.401  0.6447  0.2638 -0.2545
 8033SOL    HW124998   6.136   2.111   0.441  1.1780  0.9774 -0.3544
 8033SOL    HW224999   6.209   1.965   0.450 -1.1719 -0.2896 -1.0223
 8034SOL     OW25000   6.219   5.213   5.566  0.0593  0.1922  0.4047
 8034SOL    HW125001   6.229   5.116   5.546 -0.3747  0.3038 -0.4006
 8034SOL    HW225002   6.298   5.245   5.619  0.7789 -0.3376 -0.3342
 8035SOL     OW25003   6.419   5.372   1.284  0.8294 -0.0217 -0.1023
 8035SOL    HW125004   6.375   5.327   1.207  0.3440 -0.6579  0.5326
 8035SOL    HW225005   6.455   5.461   1.255 -0.3963  0.2811 -0.7645
 8036SOL     OW25006   1.252   6.105   1.708  0.0878  0.4187 -0.3715
 8036SOL    HW125007   1.174   6.066   1.659  0.8895  0.1356 -1.4405
 8036SOL    HW225008   1.337   6.082   1.661  0.8519  0.5805  0.8674
 8037SOL     OW25009   5.536   2.120   2.464 -0.2818 -0.5252 -0.4817
 8037SOL    HW125010   5.494   2.190   2.521  2.4805 -0.6220  1.8530
 8037SOL    HW225011   5.467   2.052   2.439 -1.9670  0.4233  1.3469
 8038SOL     OW25012   1.389   0.642   2.506 -0.2114  0.1070 -0.5279
 8038SOL    HW125013   1.326   0.590   2.448 -0.0603  1.5292 -2.0318
 8038SOL    HW225014   1.483   0.622   2.479 -0.1023  0.0020 -0.0730
 8039SOL     OW25015   2.749   3.629   0.869 -0.4846 -0.3450  0.0067
 8039SOL    HW125016   2.745   3.621   0.968 -0.0297  0.2464  0.0772
 8039SOL    HW225017   2.844   3.643   0.840 -0.4567 -1.6519 -0.6091
 8040SOL     OW25018   1.087   3.817   2.634  0.1121 -0.1714 -0.0482
 8040SOL    HW125019   1.003   3.829   2.687 -0.9015 -2.0376 -1.0845
 8040SOL    HW225020   1.127   3.728   2.656  1.0962  0.1408 -0.5392
 8041SOL     OW25021   4.795   1.959   3.072  0.2654  0.2659  0.0485
 8041SOL    HW125022   4.840   1.938   3.159 -1.2927  0.1437  0.8524
 8041SOL    HW225023   4.778   1.874   3.022  1.7087  0.3800 -0.6920
 8042SOL     OW25024   1.290   3.493   3.494  0.1584 -0.3190  0.1041
 8042SOL    HW125025   1.228   3.527   3.565  1.3995  1.8017  0.2616
 8042SOL    HW225026   1.383   3.491   3.530  0.3090 -3.0364 -0.2613
 8043SOL     OW25027   0.032   2.109   3.321 -0.2359  0.4716  0.3089
 8043SOL    HW125028   0.025   2.048   3.399 -0.8284  0.3602  0.1741
 8043SOL    HW225029   0.095   2.071   3.254 -0.9957 -0.2637 -0.0119
 8044SOL     OW25030   1.331   0.573   1.834  0.9457 -0.2643  0.1380
 8044SOL    HW125031   1.426   0.574   1.802  0.7268  2.6650 -0.7296
 8044SOL    HW225032   1.270   0.588   1.756 -0.0713  0.0187  0.9683
 8045SOL     OW25033   3.435   0.836   0.983  0.1924 -0.1718  0.5086
 8045SOL    HW125034   3.375   0.904   0.942 -0.1232 -0.8558 -0.2001
 8045SOL    HW225035   3.492   0.795   0.912  0.2637 -0.7588  0.8976
 8046SOL     OW25036   6.197   4.808   5.961 -0.7623 -0.1031 -0.1725
 8046SOL    HW125037   6.139   4.848   5.891 -0.2142  0.1556 -0.4862
 8046SOL    HW225038   6.175   4.848   6.050 -3.3121 -2.3225  0.3183
 8047SOL     OW25039   0.453   6.383   4.305 -0.1840 -0.1306  0.2085
 8047SOL    HW125040   0.409   6.443   4.238  0.7292  2.0727  1.4523
 8047SOL    HW225041   0.527   6.332   4.261  0.4430  1.3194 -0.5032
 8048SOL     OW25042   2.864   3.257   0.164 -0.1684 -0.1014 -0.0926
 8048SOL    HW125043   2.823   3.240   0.074  1.9739  2.2702 -1.6455
 8048SOL    HW225044   2.802   3.315   0.218 -1.3449 -1.3153 -0.0689
 8049SOL     OW25045   5.823   5.049   0.309 -0.2357 -0.7561  0.2334
 8049SOL    HW125046   5.752   5.095   0.256 -0.1741  0.6925  1.3641
 8049SOL    HW225047   5.792   5.034   0.403  1.3523  1.0644  1.1182
 8050SOL     OW25048   1.385   5.295   1.149 -0.0378 -0.4182 -1.2671
 8050SOL    HW125049   1.318   5.227   1.120  0.1928 -0.7609 -1.0152
 8050SOL    HW225050   1.345   5.386   1.144 -1.4326 -0.7819  1.3168
 8051SOL     OW25051   5.611   6.650   1.994  0.1746  0.1588 -0.8952
 8051SOL    HW125052   5.624   6.652   2.093  0.9118  1.8815 -0.9844
 8051SOL    HW225053   5.698   6.629   1.950 -0.2233 -0.9255 -1.1835
 8052SOL     OW25054   6.793   0.913   2.651  0.2097 -0.5730 -0.2337
 8052SOL    HW125055   6.694   0.927   2.661  0.1738 -0.5919 -0.5518
 8052SOL    HW225056   6.828   0.973   2.579  0.9274  1.5217  1.7516
 8053SOL     OW25057   3.843   0.670   0.557  0.1906 -0.2958 -0.3614
 8053SOL    HW125058   3.761   0.691   0.504  0.3200  0.8970 -0.1171
 8053SOL    HW225059   3.848   0.572   0.574 -0.1463 -0.6414 -2.0732
 8054SOL     OW25060   6.536   2.284   1.070 -0.2051  0.2501 -0.2630
 8054SOL    HW125061   6.444   2.270   1.106  0.0989  0.4282  0.6033
 8054SOL    HW225062   6.598   2.308   1.144  1.1837 -2.6499 -0.3432
 8055SOL     OW25063   3.236   4.896   1.442  0.4823 -0.3431 -0.3866
 8055SOL    HW125064   3.290   4.814   1.425  0.9512  0.2773 -2.1077
 8055SOL    HW225065   3.140   4.871   1.454  0.4194 -1.0838 -2.1437
 8056SOL     OW25066   4.066   5.350   0.528 -0.3081 -0.0962  0.2645
 8056SOL    HW125067   4.153   5.301   0.531 -0.1845  0.1428  1.8210
 8056SOL    HW225068   4.079   5.443   0.561 -0.2577  1.6022 -4.0238
 8057SOL     OW25069   5.763   0.043   3.148  0.5936  0.8779 -0.1703
 8057SOL    HW125070   5.828   0.117   3.129  1.0435  0.3826 -0.5859
 8057SOL    HW225071   5.744   0.039   3.246 -0.1969  2.1778 -0.2389
 8058SOL     OW25072   0.785   4.543   4.317 -0.0319  0.4624 -0.0482
 8058SOL    HW125073   0.832   4.534   4.405  0.7273 -0.3490 -0.5248
 8058SOL    HW225074   0.851   4.533   4.242 -0.9041 -0.4518 -0.7312
 8059SOL     OW25075   6.546   0.594   3.957 -0.4190  0.0816  0.1884
 8059SOL    HW125076   6.611   0.616   3.884 -0.4587  0.7564  0.3514
 8059SOL    HW225077   6.459   0.564   3.917 -1.3495  2.9286 -0.1344
 8060SOL     OW25078   0.751   5.917   2.964 -0.0618 -0.3343 -0.4348
 8060SOL    HW125079   0.792   5.866   2.889  1.8712  1.8682 -0.9832
 8060SOL    HW225080   0.698   5.994   2.928 -3.2796 -1.9719  0.3554
 8061SOL     OW25081   6.450   3.230   2.313 -0.7396 -0.0134 -0.3289
 8061SOL    HW125082   6.486   3.319   2.286 -2.5380  0.8364 -0.1025
 8061SOL    HW225083   6.390   3.195   2.241 -1.2074 -0.3278  0.2008
 8062SOL     OW25084   4.388   5.875   6.751 -0.2720 -0.3896  0.1655
 8062SOL    HW125085   4.401   5.804   6.819 -2.0329 -0.3680  0.5703
 8062SOL    HW225086   4.332   5.840   6.675  0.2675  0.0655 -0.4551
 8063SOL     OW25087   1.377   3.903   3.947 -0.1664 -0.0788  0.6437
 8063SOL    HW125088   1.352   3.821   3.897  1.2077 -1.8732  2.7153
 8063SOL    HW225089   1.472   3.897   3.977 -0.6552  1.2466  2.6993
 8064SOL     OW25090   5.779   0.878   3.006  0.1875 -0.1218 -0.1967
 8064SOL    HW125091   5.725   0.826   2.939 -0.2285  0.3140 -0.1988
 8064SOL    HW225092   5.813   0.962   2.963  1.4518 -0.7149 -0.4091
 8065SOL     OW25093   0.651   5.246   1.020  0.0252 -0.5069 -0.4384
 8065SOL    HW125094   0.686   5.237   1.113 -0.0744  1.8283 -0.1328
 8065SOL    HW225095   0.556   5.275   1.023  0.1622  0.0454 -1.2574
 8066SOL     OW25096   2.923   2.194   4.878 -0.2337  0.4016  0.0431
 8066SOL    HW125097   3.012   2.206   4.923 -0.9477  1.4622  1.2248
 8066SOL    HW225098   2.898   2.277   4.830 -1.1047  0.5207  0.6843
 8067SOL     OW25099   3.687   3.840   2.366  0.0197  0.1142 -0.1161
 8067SOL    HW125100   3.692   3.862   2.463 -0.7477  0.0591 -0.0538
 8067SOL    HW225101   3.717   3.918   2.312  1.5682 -0.2434  0.1679
 8068SOL     OW25102   0.110   5.166   6.171  0.3280 -0.0753 -0.6726
 8068SOL    HW125103   0.059   5.080   6.166  0.5266 -0.2145 -0.3494
 8068SOL    HW225104   0.050   5.241   6.145 -0.5945 -0.0234  1.4133
 8069SOL     OW25105   2.079   1.895   5.355  0.1582 -0.0425 -0.6986
 8069SOL    HW125106   2.151   1.875   5.289  0.6769 -1.7449  0.3181
 8069SOL    HW225107   2.090   1.989   5.388  2.3654 -0.4480 -0.0817
 8070SOL     OW25108   6.130   6.263   6.520  0.1504  0.1148  0.9351
 8070SOL    HW125109   6.205   6.264   6.454 -0.9647 -0.8381 -0.3934
 8070SOL    HW225110   6.051   6.312   6.483 -0.5981 -0.7083  1.4041
 8071SOL     OW25111   2.472   1.516   2.515  0.3438 -0.5273 -0.0048
 8071SOL    HW125112   2.535   1.582   2.475 -0.4047 -0.7066 -1.5736
 8071SOL    HW225113   2.523   1.441   2.555  1.1584  0.2110  0.3700
 8072SOL     OW25114   5.656   0.687   4.654 -0.6196  0.1729 -0.3860
 8072SOL    HW125115   5.650   0.587   4.656 -0.4143  0.1534 -0.7043
 8072SOL    HW225116   5.645   0.723   4.747  4.2897 -0.4542  0.7250
 8073SOL     OW25117   1.220   2.325   5.486 -0.7046  0.5585 -0.2237
 8073SOL    HW125118   1.277   2.334   5.405 -2.4342  0.2424 -1.5478
 8073SOL    HW225119   1.253   2.249   5.542 -1.8469 -2.0230 -2.7981
 8074SOL     OW25120   0.018   3.547   3.936 -0.0719 -0.5316 -0.1292
 8074SOL    HW125121   0.117   3.547   3.928 -0.1492  0.8627 -2.1285
 8074SOL    HW225122  -0.013   3.637   3.968 -0.7115 -0.5812 -0.5782
 8075SOL     OW25123   5.869   5.671   6.121  0.0488  0.3216 -0.4025
 8075SOL    HW125124   5.954   5.709   6.158 -0.0783  0.2059  0.0143
 8075SOL    HW225125   5.792   5.703   6.177 -0.2607  0.9950 -1.1893
 8076SOL     OW25126   4.711   1.221   1.008 -0.0618  0.1359  0.1525
 8076SOL    HW125127   4.656   1.212   1.091 -2.6368 -2.2214 -1.6226
 8076SOL    HW225128   4.699   1.313   0.970 -1.2384  0.2912  0.8480
 8077SOL     OW25129   0.855   2.642   4.580  0.2678 -0.4326  0.6076
 8077SOL    HW125130   0.929   2.682   4.526  0.9291 -2.3715 -0.0308
 8077SOL    HW225131   0.775   2.702   4.577  0.8553  0.3370 -1.1413
 8078SOL     OW25132   1.977   4.338   6.365  0.2082 -0.3026 -0.0837
 8078SOL    HW125133   1.915   4.385   6.301  0.3135  0.8555  0.6451
 8078SOL    HW225134   2.056   4.396   6.384  0.9501 -1.2906 -0.0956
 8079SOL     OW25135   5.827   0.294   0.758 -0.0044 -0.0391 -0.1648
 8079SOL    HW125136   5.876   0.337   0.833  0.2979  0.9850 -0.9286
 8079SOL    HW225137   5.875   0.311   0.672 -2.5600  2.6287 -1.2430
 8080SOL     OW25138   2.561   0.242   3.429 -0.1261  0.1343  0.2024
 8080SOL    HW125139   2.609   0.328   3.443 -0.7358  0.7195 -1.0595
 8080SOL    HW225140   2.603   0.170   3.484  3.0128  0.3102 -1.7218
 8081SOL     OW25141   0.450   6.034   3.010  0.2097 -0.0565 -0.0613
 8081SOL    HW125142   0.396   6.018   2.927  1.9224 -0.1593 -1.2036
 8081SOL    HW225143   0.531   6.088   2.987  2.0788 -2.2401  1.0019
 8082SOL     OW25144   5.053   4.254   4.272 -0.6604  0.6499 -0.4468
 8082SOL    HW125145   5.113   4.277   4.196 -0.4983 -0.0785 -0.5503
 8082SOL    HW225146   4.988   4.183   4.244 -0.7992  0.5923 -0.0001
 8083SOL     OW25147   4.601   0.466   6.372  0.1889 -0.1511  0.6149
 8083SOL    HW125148   4.547   0.523   6.311  2.4477  0.6737 -0.7598
 8083SOL    HW225149   4.632   0.520   6.450  0.9318  0.0585  0.1856
 8084SOL     OW25150   4.371   2.586   6.192  0.0575  0.3995  0.0475
 8084SOL    HW125151   4.458   2.595   6.143 -0.0921  0.5940 -0.1873
 8084SOL    HW225152   4.347   2.674   6.233  0.0038  0.3286  0.1688
 8085SOL     OW25153   2.732   0.887   4.655 -0.7186 -0.4741  0.2958
 8085SOL    HW125154   2.758   0.791   4.650  1.1432  0.0665 -1.8879
 8085SOL    HW225155   2.667   0.908   4.581 -0.3951  0.1437  0.1810
 8086SOL     OW25156   3.335   6.751   5.182 -0.7588  0.1523 -0.0118
 8086SOL    HW125157   3.379   6.670   5.219  0.7927  1.5213  1.2751
 8086SOL    HW225158   3.363   6.764   5.086  0.7337  0.3583  0.4348
 8087SOL     OW25159   0.545   4.786   4.411  0.2922 -0.0344  0.1698
 8087SOL    HW125160   0.469   4.797   4.347 -0.8905  0.5084  1.6089
 8087SOL    HW225161   0.557   4.689   4.431 -0.2702 -0.1045  0.2039
 8088SOL     OW25162   6.740   6.589   5.358  0.3215  0.4979  0.2679
 8088SOL    HW125163   6.813   6.636   5.407  0.9573 -0.2988  0.1165
 8088SOL    HW225164   6.746   6.491   5.376  0.5865  0.1752 -1.3964
 8089SOL     OW25165   4.361   5.145   4.973  0.5634  0.4428  0.3640
 8089SOL    HW125166   4.320   5.054   4.964  2.3022 -0.4157  0.5660
 8089SOL    HW225167   4.438   5.140   5.037  1.4657  1.7884 -0.5605
 8090SOL     OW25168   1.775   0.588   6.045  0.4054 -0.3947 -0.1042
 8090SOL    HW125169   1.862   0.636   6.033  0.9366 -0.8761  1.5703
 8090SOL    HW225170   1.789   0.510   6.106 -1.8631  1.5192  3.1058
 8091SOL     OW25171   6.193   4.137   3.744  0.9555 -0.0726 -0.0496
 8091SOL    HW125172   6.173   4.084   3.826 -1.5638 -0.7928 -1.0211
 8091SOL    HW225173   6.211   4.075   3.668  0.7534  0.5175 -0.5869
 8092SOL     OW25174   4.380   3.518   0.856 -0.7451  0.3746  0.1967
 8092SOL    HW125175   4.304   3.453   0.864 -0.3401  0.0310  1.6180
 8092SOL    HW225176   4.344   3.608   0.831 -1.4337 -0.1344 -0.7144
 8093SOL     OW25177   4.380   5.867   1.593 -0.4461 -0.5456  0.0010
 8093SOL    HW125178   4.442   5.807   1.542  1.6026 -0.0943  1.7934
 8093SOL    HW225179   4.395   5.962   1.565  0.0667 -0.3852  0.7789
 8094SOL     OW25180   6.192   2.298   0.743 -0.6849  0.3676 -0.5256
 8094SOL    HW125181   6.107   2.300   0.689 -0.3300  2.3791 -1.0876
 8094SOL    HW225182   6.270   2.291   0.682 -0.4047 -1.2759 -0.0171
 8095SOL     OW25183   0.813   2.138   3.522  0.1857 -0.0451 -0.2168
 8095SOL    HW125184   0.734   2.196   3.544  0.7040 -0.6246  3.9952
 8095SOL    HW225185   0.781   2.049   3.491 -0.7941  0.2551 -0.1165
 8096SOL     OW25186   3.068   5.506   3.848  0.4347  0.0370 -0.0721
 8096SOL    HW125187   3.042   5.602   3.844 -0.7683 -0.2726 -0.0462
 8096SOL    HW225188   2.987   5.449   3.862  1.1449 -0.9755  0.1190
 8097SOL     OW25189   5.776   2.597   4.306 -0.3723  0.2236 -0.5177
 8097SOL    HW125190   5.718   2.575   4.228  1.0201  0.1769 -1.5823
 8097SOL    HW225191   5.779   2.696   4.319 -2.1049  0.1539  0.6994
 8098SOL     OW25192   2.530   6.630   2.603  0.1634 -0.8429 -0.1275
 8098SOL    HW125193   2.598   6.562   2.628  1.0373  0.0840  0.0791
 8098SOL    HW225194   2.494   6.674   2.685 -0.7511 -1.3713 -0.2307
 8099SOL     OW25195   2.036   4.356   2.617  0.4525  0.4886  0.4258
 8099SOL    HW125196   2.110   4.316   2.671 -0.0059  0.1286  0.8001
 8099SOL    HW225197   1.994   4.430   2.669 -1.5218 -1.3526  1.6345
 8100SOL     OW25198   1.923   4.864   3.533 -0.6811 -0.1758  0.3159
 8100SOL    HW125199   2.013   4.824   3.551 -0.6879 -0.0514  0.6447
 8100SOL    HW225200   1.881   4.820   3.454 -0.5012 -0.5116  0.4075
 8101SOL     OW25201   3.956   4.415   0.310 -0.3092 -0.2498  0.4019
 8101SOL    HW125202   3.918   4.474   0.381 -0.2614  0.4396 -0.1380
 8101SOL    HW225203   3.944   4.458   0.221 -1.0745 -1.4550 -0.1041
 8102SOL     OW25204   3.072   5.411   3.275  0.0936 -0.1796  0.0987
 8102SOL    HW125205   3.080   5.398   3.176  1.3176  0.9875  0.0149
 8102SOL    HW225206   3.028   5.331   3.316 -0.5211 -0.6342 -1.3902
 8103SOL     OW25207   3.856   1.184   1.963  0.0343  0.1572 -0.0757
 8103SOL    HW125208   3.864   1.273   2.009 -0.9363  0.6664 -0.8403
 8103SOL    HW225209   3.947   1.150   1.941  0.4273  0.8997  0.3464
 8104SOL     OW25210   2.575   4.602   3.107 -0.5245  0.2016  0.3969
 8104SOL    HW125211   2.615   4.511   3.095 -1.3364 -0.0305 -0.7829
 8104SOL    HW225212   2.610   4.663   3.037 -1.6121  0.1927 -0.1844
 8105SOL     OW25213   5.271   2.625   2.410 -0.3473 -0.4672  0.7155
 8105SOL    HW125214   5.312   2.541   2.377 -1.1477 -0.1148 -1.3173
 8105SOL    HW225215   5.230   2.674   2.333 -1.5745  0.8385  2.1541
 8106SOL     OW25216   3.344   6.143   4.664 -0.0122 -0.0845  0.4234
 8106SOL    HW125217   3.410   6.164   4.736 -0.4831 -0.4000  0.9535
 8106SOL    HW225218   3.271   6.211   4.664  0.0973  0.0362  0.1000
 8107SOL     OW25219   1.284   3.899   1.742  0.2874  0.3945 -0.4194
 8107SOL    HW125220   1.359   3.834   1.727 -0.0883  0.0049 -0.6066
 8107SOL    HW225221   1.251   3.932   1.653  1.2237  1.7167 -0.3185
 8108SOL     OW25222   5.668   3.805   5.771  0.7339 -0.5720  0.0117
 8108SOL    HW125223   5.698   3.723   5.723  0.9808  0.6569 -2.0203
 8108SOL    HW225224   5.572   3.794   5.798  1.0560 -1.9162  0.7709
 8109SOL     OW25225   1.113   2.793   1.535  0.0535  0.1501 -0.2813
 8109SOL    HW125226   1.029   2.837   1.505 -0.2653 -0.2878 -0.0286
 8109SOL    HW225227   1.110   2.778   1.634  0.0991 -0.5617 -0.3803
 8110SOL     OW25228   5.853   1.937   2.071 -0.1735  0.2561  0.1663
 8110SOL    HW125229   5.889   2.024   2.104  0.8180 -0.9317  2.4561
 8110SOL    HW225230   5.839   1.942   1.972  2.2699  2.1984 -0.1738
 8111SOL     OW25231   6.994   0.804   3.531  0.7052  0.1596 -0.3034
 8111SOL    HW125232   7.023   0.802   3.436  1.2263 -0.1560 -0.1447
 8111SOL    HW225233   6.951   0.717   3.555 -0.2966  0.5858 -0.5071
 8112SOL     OW25234   2.830   0.684   3.047  0.2063  0.0171  0.4933
 8112SOL    HW125235   2.875   0.734   3.121 -0.2930  0.8490  0.2552
 8112SOL    HW225236   2.751   0.635   3.084 -0.9524  1.6477  0.3030
 8113SOL     OW25237   0.215   0.088   1.396 -0.1915  0.3440  0.4047
 8113SOL    HW125238   0.280   0.136   1.454 -0.4741  0.8089  0.3361
 8113SOL    HW225239   0.191   0.001   1.439  1.2782 -0.3303 -0.0695
 8114SOL     OW25240   6.066   2.902   4.710 -0.3473 -0.8742  0.3958
 8114SOL    HW125241   6.059   2.874   4.806  0.6790  0.0461  0.7711
 8114SOL    HW225242   5.988   2.959   4.686  0.6691  1.1367  1.5302
 8115SOL     OW25243   2.380   0.802   6.870  0.6000 -0.2047  0.3872
 8115SOL    HW125244   2.479   0.809   6.884  0.6995  1.3033 -0.8379
 8115SOL    HW225245   2.336   0.887   6.897 -0.3851 -0.8459  0.8775
 8116SOL     OW25246   2.143   1.124   6.453 -0.4488  0.0851  0.3126
 8116SOL    HW125247   2.229   1.169   6.429  0.4004 -1.3220  0.6255
 8116SOL    HW225248   2.142   1.031   6.416 -2.5111  0.5657 -1.0214
 8117SOL     OW25249   4.171   3.127   6.329  0.3418  0.0757 -0.4196
 8117SOL    HW125250   4.176   3.226   6.318  0.4750 -0.0524 -1.5916
 8117SOL    HW225251   4.107   3.089   6.263 -0.2316 -0.5601  0.4765
 8118SOL     OW25252   0.314   0.639   4.132 -0.5335  0.7920 -0.4221
 8118SOL    HW125253   0.294   0.735   4.149 -1.7841  0.4663  0.0753
 8118SOL    HW225254   0.300   0.586   4.216 -0.6320  0.0729 -0.8765
 8119SOL     OW25255   6.278   0.625   0.158  0.1235 -0.2860 -0.3159
 8119SOL    HW125256   6.335   0.671   0.090 -1.5716 -0.4435 -1.9071
 8119SOL    HW225257   6.223   0.693   0.206 -0.8731 -0.4272 -1.2288
 8120SOL     OW25258   4.104   6.382   1.904 -0.0504  0.4578  0.0478
 8120SOL    HW125259   4.056   6.315   1.960  1.7628  2.2099  4.1054
 8120SOL    HW225260   4.067   6.473   1.921 -0.4745  0.9781 -3.0182
 8121SOL     OW25261   6.982   3.657   5.288 -0.4281 -0.3205  0.5695
 8121SOL    HW125262   7.035   3.725   5.340 -0.1487 -0.1495  0.0745
 8121SOL    HW225263   6.966   3.577   5.345  1.0098 -0.6874  0.5041
 8122SOL     OW25264   5.517   3.307   2.204  0.1384 -0.8061 -0.0354
 8122SOL    HW125265   5.580   3.244   2.157  1.7383  0.8772 -0.2727
 8122SOL    HW225266   5.543   3.401   2.184 -1.9346 -0.0318  0.6487
 8123SOL     OW25267   3.547   6.003   2.428  0.5539  0.0672  0.2349
 8123SOL    HW125268   3.503   6.045   2.349 -0.8488 -0.9564  0.4429
 8123SOL    HW225269   3.571   5.908   2.407 -0.4173 -0.4148  1.2351
 8124SOL     OW25270   5.295   0.531   4.027  0.6137 -0.2762  0.0655
 8124SOL    HW125271   5.269   0.537   3.931 -0.4722 -1.0312  0.2956
 8124SOL    HW225272   5.226   0.479   4.077  0.9656  0.4387  1.3366
 8125SOL     OW25273   1.757   0.336   3.904 -0.3563  0.2958 -1.0856
 8125SOL    HW125274   1.820   0.260   3.917 -1.2638 -0.2711  0.1630
 8125SOL    HW225275   1.708   0.325   3.818  1.2223  0.7432 -2.0687
 8126SOL     OW25276   3.730   0.421   3.796 -0.2585 -0.1381  0.5642
 8126SOL    HW125277   3.714   0.434   3.698 -1.7386 -1.5501  0.5696
 8126SOL    HW225278   3.653   0.459   3.848 -1.0245 -2.0358  0.9471
 8127SOL     OW25279   3.753   5.877   2.788 -0.6939  0.1524 -0.4134
 8127SOL    HW125280   3.771   5.803   2.723 -0.2080  0.7706 -1.0078
 8127SOL    HW225281   3.818   5.951   2.771 -1.4641  0.9036 -0.1323
 8128SOL     OW25282   2.476   0.834   6.492 -0.3499  0.1143  0.4716
 8128SOL    HW125283   2.429   0.776   6.559 -0.4550 -0.5653 -0.1830
 8128SOL    HW225284   2.532   0.778   6.432  1.3264  0.9081  1.2191
 8129SOL     OW25285   4.965   4.521   4.019 -0.5292 -0.0346 -0.0246
 8129SOL    HW125286   4.927   4.579   3.947  1.4297 -0.7794 -1.7612
 8129SOL    HW225287   4.969   4.573   4.105  1.6587  2.7139 -1.6142
 8130SOL     OW25288   5.812   5.595   0.019  0.4632 -0.2630  0.3048
 8130SOL    HW125289   5.809   5.612  -0.079  0.1863  0.4568  0.4308
 8130SOL    HW225290   5.899   5.551   0.042  2.0476  2.5297  0.1529
 8131SOL     OW25291   1.676   0.975   3.187  0.1971  0.6183 -0.1673
 8131SOL    HW125292   1.741   0.955   3.260 -1.0341 -0.4595  0.6764
 8131SOL    HW225293   1.713   0.941   3.100  0.5186 -0.5088  0.3883
 8132SOL     OW25294   1.098   2.349   1.351  0.4720  0.4896 -0.0220
 8132SOL    HW125295   1.175   2.362   1.412  0.2902 -0.7342  0.4870
 8132SOL    HW225296   1.025   2.414   1.375  0.5922  0.3453  0.7360
 8133SOL     OW25297   1.234   1.606   6.278 -0.2021 -0.0696  0.4275
 8133SOL    HW125298   1.180   1.665   6.339  1.4937  1.5048  0.4887
 8133SOL    HW225299   1.329   1.635   6.280  0.3392 -1.6212 -1.0672
 8134SOL     OW25300   6.087   0.203   5.083  0.4670  0.2688 -0.4419
 8134SOL    HW125301   6.091   0.103   5.095 -0.8490  0.1708 -0.6596
 8134SOL    HW225302   6.179   0.238   5.069  0.9172 -0.9713 -0.7544
 8135SOL     OW25303   0.819   5.363   3.599  0.5658  0.3363  0.1021
 8135SOL    HW125304   0.842   5.362   3.502  2.6763 -0.5936  0.5497
 8135SOL    HW225305   0.741   5.302   3.615  0.8507 -0.3174 -0.8742
 8136SOL     OW25306   4.787   1.285   4.071  0.1318 -0.0113  0.0872
 8136SOL    HW125307   4.803   1.342   4.152 -1.5962 -0.0709  0.5130
 8136SOL    HW225308   4.693   1.297   4.040  0.7077 -0.1321 -1.8385
 8137SOL     OW25309   1.727   2.857   6.854  0.0802  0.0405 -0.3525
 8137SOL    HW125310   1.694   2.762   6.856 -0.5647  0.2557 -0.6757
 8137SOL    HW225311   1.784   2.871   6.773 -0.5945  0.1874 -0.7983
 8138SOL     OW25312   5.581   6.042   0.942 -0.1266 -0.2291 -0.2519
 8138SOL    HW125313   5.602   5.986   1.022 -0.0232  0.2536  0.0640
 8138SOL    HW225314   5.576   6.138   0.969  1.8257  0.1727 -1.1563
 8139SOL     OW25315   1.736   3.116   6.420  0.1285  0.6696 -0.4629
 8139SOL    HW125316   1.780   3.197   6.382 -1.1689  1.3292 -0.6037
 8139SOL    HW225317   1.652   3.096   6.368  0.5113 -0.8747 -0.5498
 8140SOL     OW25318   2.855   4.776   4.589  0.3071  0.2063  0.2181
 8140SOL    HW125319   2.780   4.711   4.601  0.4076  0.0966  0.2523
 8140SOL    HW225320   2.917   4.743   4.518 -0.0908  0.6798 -0.3559
 8141SOL     OW25321   3.810   0.485   6.273 -0.0025 -0.2231 -0.1698
 8141SOL    HW125322   3.749   0.406   6.279  0.6855 -0.6990  0.7213
 8141SOL    HW225323   3.871   0.486   6.352  0.2851  0.9697 -0.3908
 8142SOL     OW25324   1.137   2.603   3.984  0.4385  0.2493 -0.0856
 8142SOL    HW125325   1.153   2.517   3.935 -1.3903 -0.0643 -0.2147
 8142SOL    HW225326   1.185   2.677   3.936  1.0985 -0.5032 -0.6366
 8143SOL     OW25327   4.943   0.265   1.753  0.4864 -0.4148  0.6095
 8143SOL    HW125328   4.854   0.293   1.720  1.0042  0.4571 -0.0898
 8143SOL    HW225329   4.958   0.302   1.845  0.5659  0.3859  0.2814
 8144SOL     OW25330   2.440   0.014   1.101 -0.0838 -0.0367 -0.3340
 8144SOL    HW125331   2.377   0.072   1.048 -0.7820 -2.2600 -2.1022
 8144SOL    HW225332   2.388  -0.040   1.167  0.2229 -0.4589 -0.4329
 8145SOL     OW25333   1.988   5.012   2.987  0.0852 -0.3340  0.5500
 8145SOL    HW125334   2.012   5.109   2.981  0.4720 -0.3820  1.2556
 8145SOL    HW225335   1.972   4.976   2.895 -2.2181  0.9311  0.3780
 8146SOL     OW25336   0.931   4.132   3.099  0.0146 -0.6135  0.1550
 8146SOL    HW125337   0.932   4.231   3.091  0.1228 -0.5063  1.2568
 8146SOL    HW225338   0.851   4.104   3.152 -1.0405 -1.2772 -1.7109
 8147SOL     OW25339   6.853   4.288   6.626  0.0950  0.0716  0.5651
 8147SOL    HW125340   6.863   4.213   6.692 -0.2596 -1.0849 -0.6702
 8147SOL    HW225341   6.756   4.310   6.615  0.1027 -0.1876 -0.0523
 8148SOL     OW25342   4.757   1.833   2.598 -0.1176  0.2032 -0.2529
 8148SOL    HW125343   4.764   1.818   2.499  0.7598  0.7975 -0.2873
 8148SOL    HW225344   4.694   1.909   2.615  1.9657  2.0918 -0.5435
 8149SOL     OW25345   3.185   0.663   4.516  0.0543  0.6027  0.2805
 8149SOL    HW125346   3.215   0.659   4.611 -0.3743  0.4042  0.4067
 8149SOL    HW225347   3.257   0.626   4.457  0.0174  0.0187  0.5949
 8150SOL     OW25348   5.286   6.496   2.411 -0.2331  0.2356 -0.3174
 8150SOL    HW125349   5.257   6.429   2.343  0.7811 -0.2738 -0.2692
 8150SOL    HW225350   5.284   6.454   2.502  1.8625 -0.2584 -0.4499
 8151SOL     OW25351   0.659   2.821   3.448  0.0006  0.0882  0.1451
 8151SOL    HW125352   0.730   2.873   3.495 -0.7171 -0.0717  1.4517
 8151SOL    HW225353   0.598   2.778   3.515 -0.5278 -0.9068 -0.9253
 8152SOL     OW25354   6.343   3.746   3.405 -0.4255  0.1412  0.1894
 8152SOL    HW125355   6.380   3.760   3.313 -2.0533  1.2718 -0.3184
 8152SOL    HW225356   6.285   3.664   3.406  0.5296 -0.5562  0.5330
 8153SOL     OW25357   5.727   2.204   6.127 -0.0506  0.1679  0.4485
 8153SOL    HW125358   5.755   2.242   6.039  0.0383 -0.6650  0.1050
 8153SOL    HW225359   5.802   2.214   6.193  0.1780  0.0669  0.2032
 8154SOL     OW25360   3.172   6.543   6.256 -0.0761 -0.1190 -0.4217
 8154SOL    HW125361   3.231   6.569   6.332 -0.0672 -1.6979  0.1535
 8154SOL    HW225362   3.076   6.556   6.282 -0.0446  0.6450 -0.6619
 8155SOL     OW25363   2.594   5.201   5.009 -0.3892  0.9538 -0.6069
 8155SOL    HW125364   2.525   5.147   5.056  0.2285  0.8041  0.1406
 8155SOL    HW225365   2.604   5.290   5.055  0.5654  0.6158 -0.1345
 8156SOL     OW25366   5.977   6.429   2.275 -0.1521 -0.0337 -0.5015
 8156SOL    HW125367   5.958   6.447   2.371 -0.5473 -0.1535 -0.5556
 8156SOL    HW225368   6.052   6.363   2.268  0.5961  0.7852 -0.2967
 8157SOL     OW25369   3.866   1.521   1.728 -0.0239  0.8502 -0.3573
 8157SOL    HW125370   3.780   1.551   1.770  0.8742  1.5740  1.0739
 8157SOL    HW225371   3.936   1.591   1.744  1.2140 -0.3997 -0.1744
 8158SOL     OW25372   5.346   3.741   2.127 -0.0777  0.2754 -0.6353
 8158SOL    HW125373   5.353   3.658   2.183  1.0482 -0.0553 -1.2340
 8158SOL    HW225374   5.254   3.779   2.136  0.4034  1.0364  2.5227
 8159SOL     OW25375   4.525   0.442   2.238  0.1051  0.0236 -0.2470
 8159SOL    HW125376   4.442   0.486   2.271 -0.2935  0.9525 -2.3496
 8159SOL    HW225377   4.502   0.380   2.162  1.0905 -1.3407  0.5185
 8160SOL     OW25378   4.857   3.906   3.187  0.1574 -0.0141 -0.2743
 8160SOL    HW125379   4.931   3.961   3.148  0.5214 -1.2136 -1.3549
 8160SOL    HW225380   4.869   3.811   3.161 -1.8173 -0.2394 -0.5356
 8161SOL     OW25381   0.423   4.436   0.066 -0.2574 -0.1985 -0.5229
 8161SOL    HW125382   0.440   4.338   0.060 -2.3501 -0.6949  0.8297
 8161SOL    HW225383   0.381   4.468  -0.019 -1.9478 -1.0410 -0.0430
 8162SOL     OW25384   5.268   1.641   1.702  0.2503  0.5371  0.0123
 8162SOL    HW125385   5.179   1.658   1.659 -0.8083  1.0319  2.1977
 8162SOL    HW225386   5.286   1.543   1.706 -0.7653  0.3573  0.5200
 8163SOL     OW25387   4.645   0.769   3.100  0.4626  0.3327  0.4606
 8163SOL    HW125388   4.621   0.838   3.169 -1.2480  2.0474 -1.6744
 8163SOL    HW225389   4.574   0.699   3.096  0.9739 -0.2176  0.9909
 8164SOL     OW25390   1.374   6.197   1.451  0.0935 -0.6290  0.2820
 8164SOL    HW125391   1.327   6.281   1.478  0.1310 -0.2329 -0.8337
 8164SOL    HW225392   1.465   6.194   1.494  0.6907  0.6390 -0.8299
 8165SOL     OW25393   2.669   6.995   3.029  0.0151  0.3548 -0.5297
 8165SOL    HW125394   2.574   7.025   3.031 -0.0574  0.1247  1.1655
 8165SOL    HW225395   2.674   6.898   3.049  0.5786  0.2277 -1.2342
 8166SOL     OW25396   1.528   6.262   2.038  0.1411 -0.2289  0.5949
 8166SOL    HW125397   1.512   6.174   2.083  2.3539 -1.6441 -1.1081
 8166SOL    HW225398   1.603   6.310   2.084 -0.0020  0.0043  0.5839
 8167SOL     OW25399   1.408   5.897   5.107  0.6567  0.0828  1.2502
 8167SOL    HW125400   1.497   5.878   5.066  0.7303  0.5103  1.2005
 8167SOL    HW225401   1.370   5.814   5.146  1.4214  0.0525  1.9576
 8168SOL     OW25402   5.829   5.058   2.433  0.0604 -0.0854  0.4384
 8168SOL    HW125403   5.835   5.070   2.532 -2.8751 -3.2318  1.1972
 8168SOL    HW225404   5.841   5.146   2.388 -2.8581  2.3869  3.8864
 8169SOL     OW25405   3.462   4.576   5.820  0.8872 -0.5571 -0.0961
 8169SOL    HW125406   3.418   4.488   5.800 -0.2843  0.3523 -1.7823
 8169SOL    HW225407   3.544   4.585   5.764  1.4052 -0.8651  0.6069
 8170SOL     OW25408   6.594   5.215   0.082  0.1578  0.2556 -0.0205
 8170SOL    HW125409   6.587   5.191   0.178 -0.6540 -1.7142 -0.5226
 8170SOL    HW225410   6.680   5.182   0.045  1.4720  2.8710  0.4465
 8171SOL     OW25411   6.103   5.828   0.087 -0.4742  0.1252  0.6864
 8171SOL    HW125412   6.023   5.777   0.117 -0.2330 -0.0929  0.9738
 8171SOL    HW225413   6.075   5.904   0.029 -0.6702 -2.0860 -2.3350
 8172SOL     OW25414   3.470   6.901   2.287 -0.5230  0.3309 -0.6058
 8172SOL    HW125415   3.472   6.961   2.208 -1.7809 -0.1180 -0.9920
 8172SOL    HW225416   3.551   6.841   2.285  0.5020  1.6747 -0.4484
 8173SOL     OW25417   1.611   0.502   0.772 -0.0199  0.2432  0.1035
 8173SOL    HW125418   1.617   0.529   0.868  0.1378 -0.5331  0.3166
 8173SOL    HW225419   1.653   0.412   0.759 -1.8984 -0.6197 -0.3079
 8174SOL     OW25420   4.275   1.716   6.128 -0.0274  0.2019 -0.7619
 8174SOL    HW125421   4.184   1.758   6.120 -0.8440 -1.5457 -1.1669
 8174SOL    HW225422   4.276   1.654   6.207  1.4619  1.6543  0.4165
 8175SOL     OW25423   5.997   1.820   5.354 -0.0161 -0.0922  0.2463
 8175SOL    HW125424   5.990   1.834   5.255  1.1039  0.5614  0.2531
 8175SOL    HW225425   6.093   1.820   5.382 -0.3577  1.3954  1.5705
 8176SOL     OW25426   1.519   0.852   3.843 -0.4123 -0.0084  0.5254
 8176SOL    HW125427   1.566   0.932   3.804  1.6703 -1.1181  0.6641
 8176SOL    HW225428   1.512   0.863   3.942  1.9585 -0.9751  0.8492
 8177SOL     OW25429   2.157   3.532   3.137  0.2390  0.4105 -0.0312
 8177SOL    HW125430   2.077   3.473   3.132  0.1789  0.3875  0.9673
 8177SOL    HW225431   2.229   3.496   3.077 -1.4398  2.0364 -3.3111
 8178SOL     OW25432   2.323   6.869   5.624  0.1497 -0.5686  0.0977
 8178SOL    HW125433   2.274   6.880   5.711  0.5741  0.2765  0.2482
 8178SOL    HW225434   2.381   6.949   5.609  0.0696 -0.7028 -0.9838
 8179SOL     OW25435   6.048   4.124   6.876 -0.4598 -0.2536 -0.2760
 8179SOL    HW125436   5.974   4.067   6.912 -1.8163 -0.2277 -2.7593
 8179SOL    HW225437   6.080   4.084   6.790  1.3139  0.6400 -0.0576
 8180SOL     OW25438   6.426   4.390   1.922 -0.2356 -0.5214  0.3157
 8180SOL    HW125439   6.453   4.361   2.013  0.7602  0.7836  0.4692
 8180SOL    HW225440   6.331   4.421   1.923 -0.2670 -0.6332  0.8856
 8181SOL     OW25441   0.356   3.504   2.829  0.6282  0.2874 -0.4183
 8181SOL    HW125442   0.272   3.509   2.883 -0.2687  1.1497 -1.8152
 8181SOL    HW225443   0.415   3.432   2.865 -0.7601 -0.4165  0.5431
 8182SOL     OW25444   6.554   1.742   1.186  0.7219 -0.5064 -0.1018
 8182SOL    HW125445   6.627   1.810   1.192  0.3172  0.0516 -1.1773
 8182SOL    HW225446   6.465   1.788   1.187  0.4580 -0.8049 -2.5195
 8183SOL     OW25447   2.492   6.042   6.000 -0.9939  0.3693 -0.2774
 8183SOL    HW125448   2.486   5.969   5.932 -0.7029 -0.7625  0.8761
 8183SOL    HW225449   2.585   6.079   6.001 -0.6312 -0.5321  0.4104
 8184SOL     OW25450   0.733   4.930   2.163  0.0719  0.1377 -0.1953
 8184SOL    HW125451   0.724   4.928   2.063  0.4660  0.0951 -0.2346
 8184SOL    HW225452   0.645   4.953   2.205 -0.2235 -0.3631 -0.5302
 8185SOL     OW25453   3.677   2.929   5.879 -0.0214  0.0264 -0.3089
 8185SOL    HW125454   3.675   2.831   5.896 -0.0984  0.1439  0.3864
 8185SOL    HW225455   3.583   2.963   5.866 -0.2444  0.3958  1.8525
 8186SOL     OW25456   1.736   5.172   3.629 -0.0315 -0.7491  0.2732
 8186SOL    HW125457   1.821   5.156   3.679 -0.9779 -1.2154  1.8182
 8186SOL    HW225458   1.668   5.104   3.656 -1.7686  1.2336  1.2026
 8187SOL     OW25459   0.310   5.639   1.828 -0.0475 -0.3304  0.8891
 8187SOL    HW125460   0.345   5.601   1.742 -0.3172 -0.9394  1.0431
 8187SOL    HW225461   0.338   5.734   1.836 -0.2629 -0.1787 -0.0157
 8188SOL     OW25462   1.978   1.634   5.772 -0.1134  0.1263  0.0954
 8188SOL    HW125463   1.941   1.541   5.771 -1.0240  0.4082  2.2673
 8188SOL    HW225464   2.078   1.630   5.772 -0.1077 -0.9774  2.1093
 8189SOL     OW25465   5.898   3.885   2.032 -0.0654 -0.4179  0.0187
 8189SOL    HW125466   5.866   3.871   2.125  0.3660  2.8454  0.7757
 8189SOL    HW225467   5.996   3.908   2.033 -0.1863  0.2243 -1.1656
 8190SOL     OW25468   3.195   3.176   3.903 -0.1721  0.0352 -0.5557
 8190SOL    HW125469   3.108   3.212   3.870 -1.4166 -1.2055  1.1758
 8190SOL    HW225470   3.237   3.242   3.966 -0.7243 -0.0728 -0.0685
 8191SOL     OW25471   5.229   6.225   2.231 -0.0525  0.2723 -0.1824
 8191SOL    HW125472   5.167   6.284   2.180 -1.0719 -1.6959 -1.3668
 8191SOL    HW225473   5.323   6.239   2.201 -0.2034  1.5982 -0.0790
 8192SOL     OW25474   1.757   0.700   6.878  0.1945  0.4662  0.2099
 8192SOL    HW125475   1.703   0.650   6.811 -0.0804 -0.0991  0.8411
 8192SOL    HW225476   1.717   0.688   6.969  1.3904  0.0104  0.6947
 8193SOL     OW25477   5.672   5.923   5.351 -0.2176 -0.1419  0.3364
 8193SOL    HW125478   5.633   5.996   5.296  1.3582  0.6118  0.1844
 8193SOL    HW225479   5.602   5.853   5.368 -1.6557  1.2210  0.2115
 8194SOL     OW25480   5.892   6.647   1.613  0.2667 -0.0463  0.3492
 8194SOL    HW125481   5.831   6.588   1.560 -0.0714 -0.1740  0.8694
 8194SOL    HW225482   5.984   6.644   1.574 -0.1986  0.7035 -0.8886
 8195SOL     OW25483   4.625   1.356   5.748  0.2193  0.3579  0.3888
 8195SOL    HW125484   4.568   1.362   5.830  0.8636  1.1673  0.7970
 8195SOL    HW225485   4.634   1.260   5.720  1.4777 -0.1594  2.3452
 8196SOL     OW25486   2.690   0.462   1.890 -0.2538  0.0806  0.4090
 8196SOL    HW125487   2.678   0.395   1.963 -1.1866  1.3084  1.4132
 8196SOL    HW225488   2.621   0.533   1.898 -0.3776  0.2638 -1.6779
 8197SOL     OW25489   1.082   2.532   7.012 -0.0485  0.1290 -0.2032
 8197SOL    HW125490   1.047   2.572   7.097  0.8726  1.7749 -0.5634
 8197SOL    HW225491   1.027   2.563   6.935 -0.8518 -1.3232 -0.2362
 8198SOL     OW25492   4.743   0.090   0.764  0.3784  0.3666 -0.5881
 8198SOL    HW125493   4.833   0.056   0.790  1.4146  1.6370 -2.2906
 8198SOL    HW225494   4.706   0.034   0.690  0.8581  1.2003 -1.4920
 8199SOL     OW25495   5.319   0.363   1.016 -0.3307  0.4142  0.4595
 8199SOL    HW125496   5.283   0.450   0.983 -1.3112 -0.5164 -1.0665
 8199SOL    HW225497   5.246   0.313   1.062 -0.1314 -0.1321  0.1907
 8200SOL     OW25498   0.863   6.038   1.131 -0.0002 -0.3334  0.0370
 8200SOL    HW125499   0.934   6.019   1.199  0.4315 -1.3114 -0.6677
 8200SOL    HW225500   0.905   6.082   1.051 -0.7274  2.2688  0.9708
 8201SOL     OW25501   3.150   0.021   5.617  0.1525 -0.2244  0.1106
 8201SOL    HW125502   3.108   0.059   5.535  1.6219 -0.6971 -0.9014
 8201SOL    HW225503   3.143   0.086   5.692  1.4932  1.5660 -1.2391
 8202SOL     OW25504   5.965   7.007   4.081 -0.0628  0.0382 -0.1122
 8202SOL    HW125505   5.869   7.012   4.054 -0.9046  1.3776  2.7009
 8202SOL    HW225506   6.019   7.068   4.024 -1.0337  0.0217 -1.0915
 8203SOL     OW25507   1.383   2.694   5.025  0.3247 -0.5445 -0.1528
 8203SOL    HW125508   1.407   2.621   4.961  0.8302  0.3764 -1.0275
 8203SOL    HW225509   1.391   2.659   5.119  0.9666 -1.4863 -0.5434
 8204SOL     OW25510   6.009   1.612   1.096  0.1340 -0.0533 -0.1985
 8204SOL    HW125511   5.975   1.520   1.080  1.3452 -0.6713  0.6775
 8204SOL    HW225512   6.062   1.643   1.017  0.4016 -0.4311 -0.1683
 8205SOL     OW25513   1.375   2.818   1.974 -0.2477 -0.0941  0.3483
 8205SOL    HW125514   1.302   2.769   2.021  0.5252 -1.7945 -0.1749
 8205SOL    HW225515   1.462   2.798   2.017  0.3005 -0.6152 -0.9510
 8206SOL     OW25516   4.949   1.564   5.252  0.0148 -0.1900 -0.5180
 8206SOL    HW125517   5.041   1.587   5.286 -0.4337 -1.7186  2.0302
 8206SOL    HW225518   4.954   1.539   5.156  1.9513  1.4414 -0.9127
 8207SOL     OW25519   1.325   2.970   1.168 -0.0916  0.7900  0.1927
 8207SOL    HW125520   1.308   2.902   1.098 -2.5712  0.7847  0.7103
 8207SOL    HW225521   1.423   2.971   1.191  0.2207 -1.6554 -0.7316
 8208SOL     OW25522   1.223   4.731   3.646 -0.3550  0.1278  0.2040
 8208SOL    HW125523   1.313   4.766   3.671 -0.2325  0.0913 -0.1789
 8208SOL    HW225524   1.164   4.732   3.726 -0.4470  1.4915  0.1435
 8209SOL     OW25525   5.624   2.440   5.669 -0.2321  0.1220 -0.0714
 8209SOL    HW125526   5.628   2.461   5.572  1.4497 -1.4466 -0.4166
 8209SOL    HW225527   5.613   2.524   5.722 -0.1435  1.1032 -1.5622
 8210SOL     OW25528   0.412   5.227   6.578  0.0934  0.2298  0.2405
 8210SOL    HW125529   0.451   5.162   6.512  1.9326  2.2576 -0.8245
 8210SOL    HW225530   0.454   5.213   6.668  0.1043 -0.3698  0.1435
 8211SOL     OW25531   0.175   5.373   1.179  0.3444  0.4247  0.0904
 8211SOL    HW125532   0.157   5.338   1.271 -1.8205  0.0815 -0.4168
 8211SOL    HW225533   0.110   5.445   1.157 -1.0459 -1.3722 -2.1521
 8212SOL     OW25534   0.524   4.124   4.725  0.3940  0.1269 -0.0249
 8212SOL    HW125535   0.514   4.172   4.638  2.0427  0.0302 -0.2941
 8212SOL    HW225536   0.571   4.037   4.710  1.7651  0.6462  1.0969
 8213SOL     OW25537   2.883   3.127   5.289 -0.6918 -0.6796  0.3389
 8213SOL    HW125538   2.809   3.151   5.226  0.0651 -2.1099 -1.1960
 8213SOL    HW225539   2.865   3.036   5.327 -0.1987 -0.6397  0.6694
 8214SOL     OW25540   0.882   3.251   2.618  0.8970 -0.1236  0.1847
 8214SOL    HW125541   0.878   3.351   2.607  1.3467 -0.3806 -3.1518
 8214SOL    HW225542   0.959   3.215   2.566  0.9282 -2.2479  1.5709
 8215SOL     OW25543   4.620   3.005   6.750  0.1615  0.0341 -0.0699
 8215SOL    HW125544   4.565   3.061   6.812  1.0435  0.5291  0.2918
 8215SOL    HW225545   4.583   2.913   6.745 -0.5623  0.3019  0.3309
 8216SOL     OW25546   3.067   4.564   0.993 -0.4593  0.3780  0.1229
 8216SOL    HW125547   3.165   4.551   0.982 -0.6116  0.8824 -2.6032
 8216SOL    HW225548   3.019   4.477   0.982 -0.4049  0.3661 -0.0144
 8217SOL     OW25549   4.477   2.965   1.231  0.3148  0.4952 -0.1890
 8217SOL    HW125550   4.402   3.028   1.252 -0.3421 -0.5419  0.6295
 8217SOL    HW225551   4.460   2.922   1.142 -1.9410 -2.3236  1.4391
 8218SOL     OW25552   6.379   1.021   4.723  0.4037 -0.5537 -0.8144
 8218SOL    HW125553   6.427   0.960   4.661 -0.3847  0.0153 -2.0397
 8218SOL    HW225554   6.387   1.115   4.690  0.5327 -0.1513  0.3321
 8219SOL     OW25555   0.169   5.158   4.649  0.2762  0.5462  0.0717
 8219SOL    HW125556   0.093   5.220   4.628 -0.0678  0.5903  1.3618
 8219SOL    HW225557   0.156   5.072   4.600 -1.0182  0.2670  0.8636
 8220SOL     OW25558   6.409   4.120   5.398 -0.4056  0.4979  0.3332
 8220SOL    HW125559   6.444   4.167   5.318 -0.9765 -0.7575 -0.6936
 8220SOL    HW225560   6.481   4.062   5.436 -0.9371 -1.1710 -1.0714
 8221SOL     OW25561   4.332   2.091   5.217  0.4844 -0.3758 -0.3908
 8221SOL    HW125562   4.412   2.036   5.239  0.1082 -1.4590 -1.5959
 8221SOL    HW225563   4.328   2.170   5.278  0.9996 -1.6940  1.4361
 8222SOL     OW25564   0.801   2.241   1.038  0.0176  0.2025 -0.3770
 8222SOL    HW125565   0.784   2.160   1.095 -0.0846  0.2120 -0.3931
 8222SOL    HW225566   0.880   2.224   0.980 -0.0043  0.1119 -0.3815
 8223SOL     OW25567   5.076   6.340   2.770  0.0089  0.0102 -0.6385
 8223SOL    HW125568   5.021   6.418   2.798 -0.0745  0.4638 -2.0023
 8223SOL    HW225569   5.084   6.276   2.846  1.4069  2.0671  1.0570
 8224SOL     OW25570   2.356   4.078   0.320  0.2925 -0.5482 -0.4198
 8224SOL    HW125571   2.351   4.025   0.405 -1.4019  0.0917 -0.0813
 8224SOL    HW225572   2.386   4.171   0.341 -2.2752  0.2754 -0.1456
 8225SOL     OW25573   3.080   5.835   3.045  0.3792 -0.3417  0.3315
 8225SOL    HW125574   3.086   5.924   3.090 -0.7418 -0.0489 -0.0613
 8225SOL    HW225575   3.029   5.844   2.959 -1.4350 -1.6930  1.2145
 8226SOL     OW25576   1.143   0.006   0.999  0.4674  0.1342  0.0607
 8226SOL    HW125577   1.189   0.058   1.071 -1.6613  0.2439  1.4396
 8226SOL    HW225578   1.211  -0.027   0.934  2.4045  0.7381  1.6489
 8227SOL     OW25579   6.192   1.406   3.249 -0.1717  0.0062 -0.0594
 8227SOL    HW125580   6.235   1.481   3.200  0.8866 -1.1364 -0.9339
 8227SOL    HW225581   6.214   1.320   3.204 -1.2079 -0.8553  1.0274
 8228SOL     OW25582   3.293   5.215   4.349  0.3718  0.1542 -0.2234
 8228SOL    HW125583   3.365   5.223   4.417  0.1992  1.9681 -0.1953
 8228SOL    HW225584   3.281   5.119   4.323  1.9294 -0.3094  0.6717
 8229SOL     OW25585   1.465   6.467   3.190  0.3783 -0.2654 -0.5996
 8229SOL    HW125586   1.556   6.489   3.155  0.2740  0.7056 -0.3054
 8229SOL    HW225587   1.470   6.455   3.289  0.3930 -1.4172 -0.7318
 8230SOL     OW25588   6.463   5.164   0.444  0.3476 -0.1874 -0.3376
 8230SOL    HW125589   6.373   5.181   0.484  0.9310  2.1837  0.1147
 8230SOL    HW225590   6.534   5.186   0.512  1.2985  1.2949 -1.7513
 8231SOL     OW25591   5.801   5.716   4.227 -0.3545 -0.2705 -0.1044
 8231SOL    HW125592   5.892   5.691   4.196 -0.0367 -0.1298  0.6939
 8231SOL    HW225593   5.745   5.634   4.238  0.9266 -0.8501  3.2715
 8232SOL     OW25594   6.467   2.227   2.520 -0.0121 -0.3410 -0.2393
 8232SOL    HW125595   6.547   2.255   2.573  1.4399 -3.3913 -0.5693
 8232SOL    HW225596   6.461   2.283   2.437  1.7448  0.0673 -0.1438
 8233SOL     OW25597   6.317   6.415   0.129 -0.5098  0.3124 -0.1699
 8233SOL    HW125598   6.365   6.330   0.112 -1.6044 -0.1491 -1.1161
 8233SOL    HW225599   6.318   6.436   0.227  1.3777  0.2162 -0.1437
 8234SOL     OW25600   0.152   1.643   2.623 -0.2108  0.0262 -0.2329
 8234SOL    HW125601   0.120   1.669   2.714  0.1061 -0.8235  0.1341
 8234SOL    HW225602   0.207   1.717   2.585  1.4797 -0.4088  1.1905
 8235SOL     OW25603   2.465   0.062   5.429 -0.2568 -0.2093  0.1042
 8235SOL    HW125604   2.380   0.025   5.390  1.7697 -1.7783 -3.2641
 8235SOL    HW225605   2.463   0.162   5.424 -1.7435 -0.2265 -0.2654
 8236SOL     OW25606   4.323   2.308   4.802  0.1547 -0.5062  0.2004
 8236SOL    HW125607   4.367   2.367   4.735 -0.5367 -0.9716 -0.6888
 8236SOL    HW225608   4.267   2.363   4.864  0.5367 -0.1099  0.1974
 8237SOL     OW25609   4.667   6.361   1.850 -0.2064  0.5039 -0.3669
 8237SOL    HW125610   4.729   6.401   1.917  0.0214 -2.8881  1.6651
 8237SOL    HW225611   4.573   6.368   1.883 -0.2725  0.2865 -0.5048
 8238SOL     OW25612   5.368   0.573   4.699  0.4865  0.4400 -0.0962
 8238SOL    HW125613   5.343   0.589   4.795  0.7251  0.9520 -0.1198
 8238SOL    HW225614   5.379   0.660   4.652 -0.5054  0.1983 -0.8277
 8239SOL     OW25615   4.911   5.774   3.700 -0.2941 -0.5011  0.2597
 8239SOL    HW125616   4.974   5.697   3.687  0.4024  0.2534 -0.9755
 8239SOL    HW225617   4.904   5.795   3.798  1.9397 -0.1390  0.3906
 8240SOL     OW25618   1.453   0.161   2.723  0.2426  0.3685 -0.2106
 8240SOL    HW125619   1.552   0.164   2.732  0.2068 -0.8316  0.9573
 8240SOL    HW225620   1.428   0.161   2.626  1.3021  1.9496 -0.5166
 8241SOL     OW25621   2.929   0.536   4.447 -0.1706 -0.8951 -0.0298
 8241SOL    HW125622   2.860   0.561   4.515 -0.4675  1.1819 -1.0314
 8241SOL    HW225623   3.016   0.581   4.470 -0.1263 -0.6223 -0.7297
 8242SOL     OW25624   4.325   0.324   0.081 -0.0963  0.1120 -0.3590
 8242SOL    HW125625   4.344   0.321   0.179 -0.0088 -1.2374 -0.4010
 8242SOL    HW225626   4.359   0.241   0.037  0.6925  1.1007 -1.7011
 8243SOL     OW25627   1.223   0.874   0.364  0.0248 -0.8544  0.0438
 8243SOL    HW125628   1.299   0.939   0.372 -0.0191 -0.9789  1.6986
 8243SOL    HW225629   1.256   0.782   0.389  0.3707 -1.7721 -3.2485
 8244SOL     OW25630   1.050   2.060   0.910  0.6843 -0.5843 -0.2005
 8244SOL    HW125631   1.052   1.977   0.854  3.1210 -1.6187  1.2623
 8244SOL    HW225632   1.095   2.042   0.998 -1.4424  1.4541  1.4411
 8245SOL     OW25633   6.055   5.736   4.674  0.4835 -0.3162  0.0219
 8245SOL    HW125634   6.114   5.656   4.688  1.7946  0.4654 -0.8785
 8245SOL    HW225635   6.083   5.809   4.737  0.1721 -0.1096 -0.0785
 8246SOL     OW25636   4.905   1.260   2.041 -0.4893  0.2306 -0.4095
 8246SOL    HW125637   4.877   1.191   1.972  0.7486 -0.2021 -0.4938
 8246SOL    HW225638   4.997   1.291   2.021 -0.0698  0.0245  1.1290
 8247SOL     OW25639   6.280   0.990   2.594  0.2843 -0.1507  0.9288
 8247SOL    HW125640   6.256   0.904   2.548 -1.4550  0.2540  1.0142
 8247SOL    HW225641   6.219   1.062   2.564  3.1268  1.6927 -0.8538
 8248SOL     OW25642   2.188   5.194   4.519  0.1085  0.3747  0.0754
 8248SOL    HW125643   2.182   5.099   4.552 -2.0911 -0.1295 -1.5253
 8248SOL    HW225644   2.273   5.205   4.467  0.6840 -0.5286  0.7733
 8249SOL     OW25645   4.437   6.702   2.044 -0.3456 -0.1190 -0.3044
 8249SOL    HW125646   4.416   6.719   1.947 -0.9214  1.8310  0.1303
 8249SOL    HW225647   4.359   6.729   2.100 -0.5098 -2.3985  0.6739
 8250SOL     OW25648   3.176   0.443   0.250 -0.4482  0.0060  0.0695
 8250SOL    HW125649   3.200   0.369   0.187 -0.9164 -0.1410  0.0614
 8250SOL    HW225650   3.188   0.531   0.204 -0.6210 -0.0935 -0.1651
 8251SOL     OW25651   6.026   4.174   5.461 -0.0330  0.4658 -0.0186
 8251SOL    HW125652   6.097   4.111   5.431  0.3365  1.4119 -1.1924
 8251SOL    HW225653   5.999   4.151   5.555  1.5776 -0.1151  0.3409
 8252SOL     OW25654   2.425   6.158   6.700 -0.4366 -0.1296  0.3310
 8252SOL    HW125655   2.427   6.090   6.628 -2.3553 -1.6920  1.6679
 8252SOL    HW225656   2.353   6.225   6.681  1.4005  1.6243 -0.9481
 8253SOL     OW25657   5.682   1.543   2.258 -0.3687  0.4774  0.5309
 8253SOL    HW125658   5.675   1.643   2.261  0.7335  0.5380  1.6815
 8253SOL    HW225659   5.778   1.516   2.258 -0.5292 -0.5522 -2.5587
 8254SOL     OW25660   2.306   1.584   2.270  0.1010  0.2743  0.0859
 8254SOL    HW125661   2.323   1.681   2.253  0.4946  0.0298 -1.0103
 8254SOL    HW225662   2.338   1.560   2.361  0.5319  1.0534  0.1461
 8255SOL     OW25663   5.658   5.220   0.130 -0.6741  0.0713  0.2378
 8255SOL    HW125664   5.625   5.132   0.095  0.6247 -0.6257  0.7001
 8255SOL    HW225665   5.757   5.228   0.113 -1.1403  2.5670 -2.1183
 8256SOL     OW25666   1.233   6.106   3.171 -0.5627 -0.2747  0.0846
 8256SOL    HW125667   1.241   6.132   3.268 -0.6225 -0.0180  0.0206
 8256SOL    HW225668   1.141   6.071   3.153 -0.7896  0.3796 -0.0474
 8257SOL     OW25669   0.257   4.170   0.287  0.0743  0.0509  0.2713
 8257SOL    HW125670   0.187   4.239   0.304  2.3490  2.6622 -0.1388
 8257SOL    HW225671   0.306   4.152   0.373 -0.2245 -0.7699  0.2777
 8258SOL     OW25672   4.921   6.347   0.151 -0.4248 -0.3903 -0.0692
 8258SOL    HW125673   4.970   6.433   0.140  2.3325 -1.5970  1.4814
 8258SOL    HW225674   4.833   6.352   0.105 -0.3450  3.1687 -0.1082
 8259SOL     OW25675   6.788   6.598   6.140  0.1933  0.2208  0.0022
 8259SOL    HW125676   6.884   6.593   6.167  0.3887  0.4644 -0.6336
 8259SOL    HW225677   6.780   6.586   6.041 -0.4115  0.4339  0.0199
 8260SOL     OW25678   5.426   1.726   1.509 -0.3013 -0.3724  0.3134
 8260SOL    HW125679   5.489   1.802   1.526 -0.5527 -0.3418  1.1270
 8260SOL    HW225680   5.372   1.708   1.591 -2.2621  0.4435 -0.7316
 8261SOL     OW25681   3.146   1.511   6.001 -0.3405  0.2337  0.1051
 8261SOL    HW125682   3.070   1.509   5.936 -1.2445 -0.2694  1.1584
 8261SOL    HW225683   3.170   1.418   6.028  2.1519  0.1969 -1.8773
 8262SOL     OW25684   2.534   7.010   2.686 -0.0422  0.2589 -0.0955
 8262SOL    HW125685   2.572   7.090   2.734  2.3997 -0.4970 -0.6397
 8262SOL    HW225686   2.508   6.941   2.753  3.1155 -0.6952  0.3144
 8263SOL     OW25687   5.410   0.015   4.440  0.0464  0.5462 -0.6843
 8263SOL    HW125688   5.379  -0.079   4.457 -0.5139  0.9123  0.4454
 8263SOL    HW225689   5.504   0.013   4.407  0.1886 -0.3990 -0.2798
 8264SOL     OW25690   6.747   1.363   5.959 -0.9846  0.0311 -0.7161
 8264SOL    HW125691   6.704   1.445   5.995 -2.0982  0.3643 -2.6667
 8264SOL    HW225692   6.845   1.365   5.981 -1.4063  0.6658  1.3176
 8265SOL     OW25693   0.930   1.582   6.972  0.4892  0.4780  0.3731
 8265SOL    HW125694   1.017   1.547   7.007  0.5614  0.1403 -0.1236
 8265SOL    HW225695   0.937   1.680   6.956  0.8922  0.3935  0.0186
 8266SOL     OW25696   5.854   1.296   1.796  0.2329 -0.1388 -0.6534
 8266SOL    HW125697   5.934   1.325   1.744 -0.7858 -1.3395 -3.0665
 8266SOL    HW225698   5.804   1.377   1.828  0.6577  0.6902 -1.9809
 8267SOL     OW25699   4.354   3.812   0.882 -0.4052 -0.2917  0.2503
 8267SOL    HW125700   4.415   3.783   0.956 -0.8045  2.3346  1.7123
 8267SOL    HW225701   4.260   3.815   0.916 -0.6724  0.4510 -0.5201
 8268SOL     OW25702   2.300   2.900   0.648  0.3835 -0.7203  0.3780
 8268SOL    HW125703   2.291   2.962   0.726  1.4532 -1.0455  0.7634
 8268SOL    HW225704   2.383   2.845   0.657  1.3440  0.2653 -1.7067
 8269SOL     OW25705   5.730   4.782   1.570  0.8759 -0.1508 -0.5497
 8269SOL    HW125706   5.763   4.707   1.627 -1.8340  0.0137  1.4768
 8269SOL    HW225707   5.712   4.862   1.628 -1.6596  0.1523 -1.6232
 8270SOL     OW25708   1.776   2.973   3.472 -0.4218  0.4217 -0.5059
 8270SOL    HW125709   1.734   3.015   3.392  1.1585  0.2419 -1.4800
 8270SOL    HW225710   1.709   2.917   3.520 -1.0974 -0.4819 -2.4281
 8271SOL     OW25711   1.517   2.594   4.155  0.1542 -0.2443 -0.7142
 8271SOL    HW125712   1.503   2.563   4.060 -1.4406 -3.2805  0.3868
 8271SOL    HW225713   1.614   2.610   4.170  0.4263  0.5672 -2.8991
 8272SOL     OW25714   1.651   2.138   4.048 -0.8656 -0.3013 -0.3949
 8272SOL    HW125715   1.679   2.219   3.998 -1.2219 -1.0433 -1.8574
 8272SOL    HW225716   1.692   2.138   4.139 -2.3401  2.4494  0.3825
 8273SOL     OW25717   6.593   4.821   5.080  0.1821  0.5536  0.5858
 8273SOL    HW125718   6.597   4.743   5.142  1.4651  1.9120  2.3415
 8273SOL    HW225719   6.645   4.800   4.997  0.0998 -0.6116  0.8097
 8274SOL     OW25720   5.782   2.668   2.044 -0.3851 -0.1423  0.1373
 8274SOL    HW125721   5.754   2.738   2.110  0.6856  0.6275 -0.1778
 8274SOL    HW225722   5.724   2.673   1.963 -0.5592  0.1406  0.2783
 8275SOL     OW25723   0.907   0.315   6.925 -0.1966  0.4015 -1.0099
 8275SOL    HW125724   0.993   0.366   6.919  0.4143 -0.5517 -0.5933
 8275SOL    HW225725   0.839   0.370   6.974  1.0098  0.1188  1.1055
 8276SOL     OW25726   1.784   2.989   0.068 -0.0509 -0.2627 -0.4863
 8276SOL    HW125727   1.751   2.942  -0.014 -0.0037 -1.3502  0.0986
 8276SOL    HW225728   1.758   2.937   0.149  0.1433  0.6554  0.1817
 8277SOL     OW25729   6.578   1.084   6.748 -0.8612 -0.1735 -0.0015
 8277SOL    HW125730   6.641   1.021   6.794  0.2964  0.9066 -0.0684
 8277SOL    HW225731   6.630   1.150   6.694 -2.0914  0.3620 -0.5650
 8278SOL     OW25732   7.006   0.541   5.021  0.2482 -0.0519 -0.2692
 8278SOL    HW125733   6.923   0.581   5.060  0.7263 -0.2283  0.9672
 8278SOL    HW225734   7.029   0.590   4.937 -1.5569 -0.5428 -1.0993
 8279SOL     OW25735   3.764   6.698   5.181 -0.1194  0.2044 -0.3775
 8279SOL    HW125736   3.850   6.654   5.208  0.1503 -0.3391 -2.0213
 8279SOL    HW225737   3.688   6.637   5.202 -0.0167  0.2558  0.1534
 8280SOL     OW25738   3.087   1.771   3.412 -0.3037 -0.3639 -0.3661
 8280SOL    HW125739   3.006   1.758   3.470 -0.6155 -0.1186 -0.7437
 8280SOL    HW225740   3.136   1.684   3.404 -0.3785 -0.4492  0.0876
 8281SOL     OW25741   0.518   3.196   5.837 -0.5718 -0.2494  0.2650
 8281SOL    HW125742   0.580   3.194   5.759  1.4730  0.7343  1.7518
 8281SOL    HW225743   0.477   3.106   5.850  1.0275 -1.1303 -0.4581
 8282SOL     OW25744   1.527   3.590   6.854 -0.0924 -0.0486 -0.2562
 8282SOL    HW125745   1.465   3.611   6.930  0.3523  2.7221 -0.5732
 8282SOL    HW225746   1.577   3.672   6.828  2.6064 -1.8265 -1.0521
 8283SOL     OW25747   0.734   5.793   0.662 -0.1931  0.5281 -0.4464
 8283SOL    HW125748   0.713   5.738   0.581 -0.0237  0.2285 -0.2878
 8283SOL    HW225749   0.689   5.752   0.742  1.3981 -0.4209 -0.0024
 8284SOL     OW25750   2.811   2.180   5.446 -0.1168 -0.1330  0.2551
 8284SOL    HW125751   2.870   2.251   5.408 -0.0078  0.5041  1.5372
 8284SOL    HW225752   2.782   2.117   5.374 -0.0796  1.1159 -0.8813
 8285SOL     OW25753   3.566   2.153   1.676 -0.0116  0.0986  0.2210
 8285SOL    HW125754   3.595   2.221   1.743  2.0286 -1.3159  0.8653
 8285SOL    HW225755   3.539   2.200   1.591 -1.6287  1.8474  1.5834
 8286SOL     OW25756   5.338   4.564   4.822 -0.1073 -0.0121 -0.1463
 8286SOL    HW125757   5.380   4.562   4.913 -1.9723 -0.5294  0.7653
 8286SOL    HW225758   5.265   4.633   4.821 -1.4951 -1.4246 -0.5524
 8287SOL     OW25759   4.377   1.464   6.581 -0.6422 -1.1730  0.1777
 8287SOL    HW125760   4.428   1.550   6.575  0.3872 -1.7295  0.7481
 8287SOL    HW225761   4.346   1.437   6.490 -1.0844 -0.1396  0.0132
 8288SOL     OW25762   2.888   1.159   3.095 -0.3869 -0.3741  1.1028
 8288SOL    HW125763   2.871   1.180   3.192 -2.2352  0.3627  0.6611
 8288SOL    HW225764   2.835   1.079   3.069 -0.4957 -0.1167  0.5270
 8289SOL     OW25765   2.671   0.945   2.295 -0.1167  0.3028  0.4379
 8289SOL    HW125766   2.597   0.927   2.359 -0.5462  1.8404  0.3834
 8289SOL    HW225767   2.707   0.857   2.262 -0.5065 -0.5094  2.0361
 8290SOL     OW25768   4.276   3.184   6.596 -0.4426  0.7342  0.4323
 8290SOL    HW125769   4.221   3.130   6.533 -2.0014  1.4894  1.0826
 8290SOL    HW225770   4.368   3.197   6.559 -1.4774  1.6615 -1.9457
 8291SOL     OW25771   3.651   2.105   1.176 -0.2087  0.2004 -0.4607
 8291SOL    HW125772   3.658   2.051   1.260 -0.9141 -3.2047 -2.3691
 8291SOL    HW225773   3.742   2.135   1.148  0.6216 -2.1292 -0.4881
 8292SOL     OW25774   3.802   0.866   3.341 -0.0062  0.0213  0.7563
 8292SOL    HW125775   3.830   0.786   3.394  0.3122  0.3327  1.0672
 8292SOL    HW225776   3.880   0.929   3.332 -0.4073  0.5682  1.0197
 8293SOL     OW25777   3.703   1.576   6.518 -0.4899 -0.2721  0.1218
 8293SOL    HW125778   3.647   1.647   6.476  0.4437  1.4083  1.5649
 8293SOL    HW225779   3.800   1.595   6.499 -0.2658 -2.2465 -1.0217
 8294SOL     OW25780   5.262   1.541   5.106 -0.3570 -0.6500 -0.1729
 8294SOL    HW125781   5.218   1.625   5.073 -0.1244 -0.9461 -1.2892
 8294SOL    HW225782   5.331   1.564   5.175  1.3195  0.3428 -2.0619
 8295SOL     OW25783   0.499   0.245   2.646 -0.7628  0.1103 -0.1367
 8295SOL    HW125784   0.465   0.193   2.724  0.2300 -0.0030  0.2270
 8295SOL    HW225785   0.525   0.337   2.676  1.0512 -0.4141 -0.0068
 8296SOL     OW25786   1.598   1.216   3.490  0.3552 -0.4335  0.5437
 8296SOL    HW125787   1.678   1.254   3.537  0.2975  0.3692  0.0098
 8296SOL    HW225788   1.536   1.290   3.465 -0.4255 -1.0273  0.7006
 8297SOL     OW25789   5.593   6.460   5.658 -0.2456 -0.6160 -0.5285
 8297SOL    HW125790   5.674   6.473   5.600 -0.3019  1.5031 -0.2131
 8297SOL    HW225791   5.511   6.464   5.602 -0.3154  1.6967 -0.3783
 8298SOL     OW25792   2.490   0.199   4.733 -0.0838 -0.2288  0.2370
 8298SOL    HW125793   2.498   0.122   4.669 -1.0541 -1.5217  1.6014
 8298SOL    HW225794   2.521   0.170   4.824  0.1088  1.2040  0.6535
 8299SOL     OW25795   4.316   1.705   2.522  0.0383  0.5397  0.0923
 8299SOL    HW125796   4.359   1.780   2.471 -0.2638  0.9583  0.4366
 8299SOL    HW225797   4.384   1.637   2.547 -0.1074 -0.7726 -2.6911
 8300SOL     OW25798   1.557   0.545   3.946 -0.0434 -0.2203 -0.3407
 8300SOL    HW125799   1.630   0.613   3.948  0.2364 -0.5068 -0.7892
 8300SOL    HW225800   1.596   0.453   3.941 -0.4138 -0.4481  0.7368
 8301SOL     OW25801   2.137   3.032   6.521 -0.1258  0.0642 -0.2229
 8301SOL    HW125802   2.159   3.098   6.593  1.3343  0.0175 -0.5947
 8301SOL    HW225803   2.140   3.077   6.432 -2.3770  0.2311 -0.2755
 8302SOL     OW25804   1.983   6.696   6.317  0.1954  0.2498  0.3198
 8302SOL    HW125805   2.043   6.741   6.384 -0.8673  1.5873  0.4194
 8302SOL    HW225806   1.892   6.736   6.323 -0.2298 -0.4685 -1.1045
 8303SOL     OW25807   4.341   6.456   5.263  0.2315  0.7317 -0.0865
 8303SOL    HW125808   4.389   6.465   5.351  0.1332  1.5063 -0.1124
 8303SOL    HW225809   4.270   6.386   5.271  2.5053 -1.7939 -0.5419
 8304SOL     OW25810   2.805   2.077   5.705  0.3868  0.0610  0.6329
 8304SOL    HW125811   2.739   2.120   5.767  1.6096 -0.7676  2.5929
 8304SOL    HW225812   2.807   2.127   5.618 -2.4666  0.3603  0.6619
 8305SOL     OW25813   2.974   3.131   1.886  0.1117  0.5369  0.2726
 8305SOL    HW125814   2.981   3.170   1.978  1.1197  2.6785 -0.6310
 8305SOL    HW225815   3.058   3.151   1.836 -0.5264 -0.3720 -1.2082
 8306SOL     OW25816   3.736   2.398   7.004  0.3243 -0.3420  0.2767
 8306SOL    HW125817   3.698   2.308   6.985  0.9034 -0.5144 -0.0938
 8306SOL    HW225818   3.730   2.417   7.102  1.1793 -1.2442  0.5267
 8307SOL     OW25819   2.149   2.303   4.959  0.3507  0.5118  0.5454
 8307SOL    HW125820   2.077   2.349   4.907  0.4922  0.1958  0.0695
 8307SOL    HW225821   2.147   2.205   4.938  1.3507  0.5980  0.0202
 8308SOL     OW25822   0.779   0.807   3.571 -0.5357  0.1883  0.4751
 8308SOL    HW125823   0.697   0.765   3.610 -0.9596  0.1249 -0.4544
 8308SOL    HW225824   0.764   0.825   3.474  0.4993  0.3193  0.3296
 8309SOL     OW25825   6.700   1.212   4.160  0.1581 -0.1320  0.0406
 8309SOL    HW125826   6.716   1.310   4.142  0.0691 -0.0908  0.1883
 8309SOL    HW225827   6.689   1.197   4.258 -0.5706 -0.1773 -0.0414
 8310SOL     OW25828   5.694   4.834   2.329  0.0127 -0.0729 -0.5424
 8310SOL    HW125829   5.746   4.905   2.375 -1.3514  1.6509 -1.5073
 8310SOL    HW225830   5.738   4.811   2.242  1.0702 -1.2975  0.2759
 8311SOL     OW25831   2.171   5.382   1.698  0.4273  0.3789 -0.0807
 8311SOL    HW125832   2.144   5.444   1.771  0.4748 -0.0383  0.2917
 8311SOL    HW225833   2.108   5.304   1.696 -0.1102  0.8198 -1.0495
 8312SOL     OW25834   2.410   4.330   3.372  0.2376 -0.3276  0.2819
 8312SOL    HW125835   2.441   4.424   3.384 -1.7016  0.3707  0.2256
 8312SOL    HW225836   2.393   4.288   3.461 -0.5316 -0.0244  0.2840
 8313SOL     OW25837   0.596   4.579   6.369 -0.3213  0.3280 -0.4271
 8313SOL    HW125838   0.525   4.530   6.318 -2.4373  1.1821  1.5334
 8313SOL    HW225839   0.684   4.533   6.357 -1.2981 -1.1506 -2.4230
 8314SOL     OW25840   5.342   1.063   2.183 -0.2325  0.6530 -0.2183
 8314SOL    HW125841   5.394   0.978   2.192 -1.6445 -0.2747 -0.5512
 8314SOL    HW225842   5.315   1.096   2.273 -1.6473 -0.5358 -0.1708
 8315SOL     OW25843   0.420   1.271   2.502  0.4832  0.4406 -0.1537
 8315SOL    HW125844   0.458   1.317   2.583  1.5802  2.2183 -1.6117
 8315SOL    HW225845   0.481   1.195   2.476  0.1577 -0.1015  0.6285
 8316SOL     OW25846   0.336   6.216   6.643 -0.2497 -0.2761  0.4942
 8316SOL    HW125847   0.370   6.151   6.574  1.0159  0.4953  0.3582
 8316SOL    HW225848   0.238   6.231   6.629  0.2679  1.2646 -2.3831
 8317SOL     OW25849   1.259   3.335   6.178 -0.4382  0.1370 -0.0567
 8317SOL    HW125850   1.253   3.273   6.256  0.7617  0.1295  0.0443
 8317SOL    HW225851   1.243   3.285   6.093  1.8248 -0.6284 -0.0862
 8318SOL     OW25852   5.675   1.819   4.264  0.3815 -0.0162 -0.7515
 8318SOL    HW125853   5.763   1.774   4.280  0.0744 -0.1811  0.5759
 8318SOL    HW225854   5.602   1.751   4.264 -0.0467  0.4063  0.9118
 8319SOL     OW25855   2.618   3.330   5.593  0.0697  0.3806 -0.2821
 8319SOL    HW125856   2.617   3.424   5.627 -1.5724  0.6479 -0.9706
 8319SOL    HW225857   2.639   3.268   5.669 -0.9477  1.1591  0.6742
 8320SOL     OW25858   5.668   4.533   1.216  0.1135 -0.2241 -0.2032
 8320SOL    HW125859   5.644   4.603   1.284  0.4850 -0.2649 -0.0284
 8320SOL    HW225860   5.670   4.443   1.260 -1.4257 -0.5056 -0.6522
 8321SOL     OW25861   6.374   6.431   4.408 -0.2063  0.0056  0.2648
 8321SOL    HW125862   6.373   6.373   4.327 -0.0799  1.3636 -0.7288
 8321SOL    HW225863   6.452   6.406   4.466  0.9446  0.4007 -1.0663
 8322SOL     OW25864   5.336   4.918   3.000  0.5228  0.4439 -0.1502
 8322SOL    HW125865   5.292   4.900   2.911 -0.2313 -0.6160  0.4175
 8322SOL    HW225866   5.272   4.969   3.058 -0.1151 -1.3134  0.7676
 8323SOL     OW25867   4.090   3.880   6.391  0.5249 -0.3218  0.2490
 8323SOL    HW125868   4.034   3.844   6.316 -0.7584 -0.1196  1.0708
 8323SOL    HW225869   4.180   3.837   6.389 -0.3380 -2.2430  0.1013
 8324SOL     OW25870   0.625   2.151   3.938  0.1323 -0.5958  0.1944
 8324SOL    HW125871   0.695   2.120   4.002  0.6942  0.4550  0.1132
 8324SOL    HW225872   0.638   2.105   3.850  1.1682  0.0859 -0.0321
 8325SOL     OW25873   5.152   2.470   1.999  0.6143  0.4555 -0.4522
 8325SOL    HW125874   5.199   2.416   2.069  0.0992  0.6602  0.0654
 8325SOL    HW225875   5.078   2.417   1.959 -1.0758  1.3296  1.3411
 8326SOL     OW25876   5.256   3.107   5.274 -0.4473  0.3271 -0.2006
 8326SOL    HW125877   5.338   3.054   5.255 -0.8026 -0.1386 -0.4548
 8326SOL    HW225878   5.258   3.139   5.369 -1.0846 -1.6983  0.5518
 8327SOL     OW25879   2.470   6.128   3.378  0.1851 -0.4553  0.1665
 8327SOL    HW125880   2.447   6.217   3.340 -0.2322  0.3548  2.2118
 8327SOL    HW225881   2.539   6.084   3.320  0.7027  1.3465 -0.6583
 8328SOL     OW25882   2.178   3.153   0.148  0.4245  0.2319  0.3505
 8328SOL    HW125883   2.095   3.204   0.173 -0.2425 -0.6941  0.0981
 8328SOL    HW225884   2.152   3.069   0.101  1.5474  0.2122 -0.2608
 8329SOL     OW25885   5.082   1.791   5.459 -0.0396  0.5238  0.6455
 8329SOL    HW125886   5.102   1.855   5.533  0.2174  0.5789  0.5311
 8329SOL    HW225887   5.062   1.842   5.375  1.6292  0.4576  0.1761
 8330SOL     OW25888   3.632   2.929   6.877  0.0317 -0.1129  0.4564
 8330SOL    HW125889   3.674   3.017   6.899 -0.4224  0.1959  0.0959
 8330SOL    HW225890   3.608   2.882   6.961 -0.2029  0.3380  0.6445
 8331SOL     OW25891   3.955   5.854   4.673 -0.1475 -0.1389  0.7038
 8331SOL    HW125892   4.043   5.853   4.626 -1.2336 -3.8258 -1.6390
 8331SOL    HW225893   3.964   5.809   4.762  0.0738 -2.1859 -0.3040
 8332SOL     OW25894   2.624   0.283   4.310 -0.1047 -0.3024 -0.0823
 8332SOL    HW125895   2.665   0.211   4.255 -1.6599 -1.4330  0.1652
 8332SOL    HW225896   2.657   0.277   4.404  0.7317  0.1400 -0.3317
 8333SOL     OW25897   1.554   2.816   3.575  0.0815  0.5478  0.1550
 8333SOL    HW125898   1.471   2.793   3.627  0.3711 -0.7021  0.0937
 8333SOL    HW225899   1.534   2.809   3.477  0.2438  0.2469  0.1405
 8334SOL     OW25900   6.033   6.604   4.858  0.3938 -0.5571  0.2132
 8334SOL    HW125901   6.024   6.698   4.827  0.6897 -0.5878  0.0356
 8334SOL    HW225902   6.117   6.564   4.822  0.1185 -0.9862  0.0393
 8335SOL     OW25903   0.228   0.479   2.309 -0.7327 -0.2439 -0.3419
 8335SOL    HW125904   0.168   0.413   2.355 -0.9899  0.9164  1.0736
 8335SOL    HW225905   0.323   0.447   2.314 -0.9498 -0.9214 -0.4528
 8336SOL     OW25906   5.140   6.293   4.798  0.4061 -0.8955 -0.2949
 8336SOL    HW125907   5.240   6.302   4.800  0.2874  0.5070  0.2192
 8336SOL    HW225908   5.102   6.357   4.731 -0.3781  1.5595  2.3151
 8337SOL     OW25909   4.915   2.665   1.918  0.1381  0.6993 -0.3134
 8337SOL    HW125910   4.998   2.609   1.912  0.2931  0.9656 -0.6573
 8337SOL    HW225911   4.869   2.666   1.829  0.5032  1.6915 -0.4903
 8338SOL     OW25912   5.185   3.143   1.821  0.1785  0.3220 -0.1815
 8338SOL    HW125913   5.162   3.074   1.890  0.8959 -0.6983 -0.9326
 8338SOL    HW225914   5.177   3.234   1.862 -1.4315 -0.1495  0.6394
 8339SOL     OW25915   4.746   5.017   1.821 -0.5846 -0.4946 -0.6921
 8339SOL    HW125916   4.755   5.085   1.893  0.6118 -0.1241 -1.1601
 8339SOL    HW225917   4.652   4.982   1.819 -0.7110 -0.2815  0.8109
 8340SOL     OW25918   4.959   6.992   4.578  0.3978  0.1836 -0.0737
 8340SOL    HW125919   4.913   7.033   4.499  0.3430  0.0578 -0.1079
 8340SOL    HW225920   5.000   7.064   4.634  1.1544  0.2326 -0.6594
 8341SOL     OW25921   1.863   5.130   4.258 -0.1283 -0.0393 -0.0826
 8341SOL    HW125922   1.917   5.183   4.193  2.6427  1.2866  3.0221
 8341SOL    HW225923   1.918   5.054   4.292 -1.6823 -1.0023  0.3571
 8342SOL     OW25924   5.762   5.709   1.677  0.1669 -0.0392  0.1790
 8342SOL    HW125925   5.690   5.639   1.675  1.8037 -1.7694 -0.7982
 8342SOL    HW225926   5.722   5.796   1.707 -2.0216 -1.2531  1.0320
 8343SOL     OW25927   3.780   6.400   0.224  0.0594  0.0344  0.5811
 8343SOL    HW125928   3.718   6.436   0.294  0.8029  0.0302  1.2526
 8343SOL    HW225929   3.727   6.346   0.158 -0.6740  0.1573  1.0507
 8344SOL     OW25930   4.800   0.475   5.289  0.0346  0.3656 -0.5321
 8344SOL    HW125931   4.750   0.522   5.362 -0.9316  1.6704 -2.0020
 8344SOL    HW225932   4.802   0.377   5.309  1.3170  0.8386  2.1299
 8345SOL     OW25933   2.058   1.739   6.821  0.0958  0.5273 -0.1073
 8345SOL    HW125934   2.041   1.667   6.754 -0.5394  0.0723  0.5289
 8345SOL    HW225935   1.975   1.757   6.873  0.5331  0.9872  0.4530
 8346SOL     OW25936   2.900   2.515   5.868  0.2435 -0.3837 -0.0633
 8346SOL    HW125937   2.812   2.486   5.830  0.5355 -0.9098 -0.3626
 8346SOL    HW225938   2.891   2.605   5.911 -0.2099  0.0354 -0.9968
 8347SOL     OW25939   5.672   2.240   4.801 -0.2780  0.7364 -0.3721
 8347SOL    HW125940   5.699   2.225   4.707 -0.9213  1.1165 -0.6273
 8347SOL    HW225941   5.741   2.203   4.863 -0.8365 -1.4396 -0.9726
 8348SOL     OW25942   1.006   1.457   2.416 -0.1756  0.3005  0.0350
 8348SOL    HW125943   0.947   1.434   2.493  0.3846 -0.1351  0.3478
 8348SOL    HW225944   1.035   1.552   2.423 -1.8747  0.9300 -0.8313
 8349SOL     OW25945   0.553   5.278   2.121  0.2873  0.1989  0.7785
 8349SOL    HW125946   0.478   5.338   2.150  0.9233  1.3965  0.0341
 8349SOL    HW225947   0.618   5.267   2.197  1.4660  2.5607  0.1984
 8350SOL     OW25948   0.942   5.787   4.613  0.0043 -0.1600 -0.4659
 8350SOL    HW125949   0.926   5.690   4.595 -0.0791 -0.5060  1.3121
 8350SOL    HW225950   0.891   5.815   4.694  3.0468  0.3365  1.4717
 8351SOL     OW25951   1.266   3.289   4.556 -0.2566 -0.1363 -0.4688
 8351SOL    HW125952   1.310   3.312   4.643  1.4823 -2.4575 -0.6502
 8351SOL    HW225953   1.306   3.345   4.484  0.2709 -0.1355 -0.1837
 8352SOL     OW25954   5.427   2.236   6.055 -0.3743  0.3642  0.1598
 8352SOL    HW125955   5.414   2.234   5.956 -0.4346 -1.7694  0.1541
 8352SOL    HW225956   5.522   2.213   6.076 -0.2938  1.0784  0.6076
 8353SOL     OW25957   1.257   4.113   0.799  0.0524  0.4882 -0.5358
 8353SOL    HW125958   1.234   4.016   0.809 -1.3472  0.7076 -1.3394
 8353SOL    HW225959   1.344   4.122   0.750  0.6647 -0.3543  0.3521
 8354SOL     OW25960   1.894   3.819   4.499  0.1091 -0.1367  0.4932
 8354SOL    HW125961   1.884   3.855   4.592 -2.0295 -1.5215  0.8621
 8354SOL    HW225962   1.872   3.721   4.498 -0.9474  0.0652 -1.6351
 8355SOL     OW25963   4.557   1.356   1.542 -0.6116 -0.6659 -0.2490
 8355SOL    HW125964   4.546   1.425   1.614 -2.1815 -0.2613 -0.8473
 8355SOL    HW225965   4.518   1.390   1.457 -0.3642 -1.8499 -0.8588
 8356SOL     OW25966   4.706   3.181   5.262 -0.1194  0.2882 -0.4244
 8356SOL    HW125967   4.729   3.263   5.315  1.6950  1.1738 -2.4073
 8356SOL    HW225968   4.628   3.135   5.304 -0.4576  2.3699  1.4394
 8357SOL     OW25969   4.633   0.067   1.919 -0.2606 -0.3044 -0.4997
 8357SOL    HW125970   4.730   0.095   1.917 -1.0338  2.7309 -0.9480
 8357SOL    HW225971   4.626  -0.025   1.956  2.7407 -0.3513  0.2494
 8358SOL     OW25972   1.832   4.709   0.081 -0.3925 -0.0807 -0.1904
 8358SOL    HW125973   1.895   4.682   0.008  0.5488 -1.2653  1.0019
 8358SOL    HW225974   1.873   4.688   0.170 -1.7201  0.8448  0.6835
 8359SOL     OW25975   5.933   1.964   0.253 -0.2726  0.1470 -0.3646
 8359SOL    HW125976   5.923   2.021   0.334 -1.1208  1.9168 -1.6508
 8359SOL    HW225977   6.026   1.974   0.217  0.8604 -2.3842  1.5527
 8360SOL     OW25978   2.733   5.015   1.979  0.0702  0.0308  0.2623
 8360SOL    HW125979   2.721   4.944   1.909  1.6781 -0.3872  0.3857
 8360SOL    HW225980   2.708   5.104   1.941 -4.2642 -0.7207  0.7404
 8361SOL     OW25981   1.454   2.938   6.959  1.2073 -0.4448  0.5013
 8361SOL    HW125982   1.413   3.000   7.025  2.4047  2.5420 -1.3396
 8361SOL    HW225983   1.383   2.882   6.917 -0.3129  1.1329  0.8432
 8362SOL     OW25984   5.888   3.512   2.800 -1.0059  0.3448  0.4479
 8362SOL    HW125985   5.796   3.532   2.833 -1.1545  3.4894 -1.3926
 8362SOL    HW225986   5.882   3.476   2.707 -0.3903 -1.5847  1.1194
 8363SOL     OW25987   3.172   0.230   0.622  0.1887  0.4814 -0.4836
 8363SOL    HW125988   3.234   0.192   0.553 -1.2151 -2.2996 -0.3791
 8363SOL    HW225989   3.219   0.238   0.709  0.9374  0.3179 -0.8693
 8364SOL     OW25990   2.926   2.210   2.321  0.2004 -0.2468  0.0940
 8364SOL    HW125991   2.941   2.246   2.229  1.0967 -1.4124 -0.2451
 8364SOL    HW225992   2.964   2.273   2.388 -0.1043  0.4192 -0.3516
 8365SOL     OW25993   1.991   4.923   0.676 -0.7011 -0.5045 -0.3488
 8365SOL    HW125994   1.927   4.890   0.607 -2.2816  1.1812  0.2298
 8365SOL    HW225995   2.024   5.014   0.649  1.4851 -1.2937 -0.6122
 8366SOL     OW25996   2.100   0.712   6.602 -0.2910  0.2113 -0.4703
 8366SOL    HW125997   2.122   0.767   6.521 -0.6423 -0.2297 -0.8749
 8366SOL    HW225998   2.007   0.677   6.594  0.0596 -0.7838 -0.4279
 8367SOL     OW25999   1.426   0.648   5.706  0.0155  0.0038  0.7728
 8367SOL    HW126000   1.486   0.605   5.639  0.0744  2.7429 -1.0912
 8367SOL    HW226001   1.352   0.696   5.659  0.0028  1.9534  2.6304
 8368SOL     OW26002   0.946   2.105   6.899 -0.1778 -0.0765 -0.4901
 8368SOL    HW126003   0.980   2.190   6.858  0.1798  0.1816  0.3333
 8368SOL    HW226004   0.959   2.108   6.998 -1.2014 -0.6192 -0.3255
 8369SOL     OW26005   6.833   6.917   1.412  0.5863  0.0618  0.1038
 8369SOL    HW126006   6.871   6.857   1.341  1.5011  1.3746 -0.5539
 8369SOL    HW226007   6.763   6.975   1.372 -1.0134 -1.2028  0.9568
 8370SOL     OW26008   3.076   6.372   1.246  0.5718  0.0299 -0.1910
 8370SOL    HW126009   2.981   6.349   1.229  0.5477  1.3144 -2.0277
 8370SOL    HW226010   3.119   6.299   1.300 -1.3735 -0.6404  0.5110
 8371SOL     OW26011   5.192   2.163   1.232 -1.0081  0.2233  0.1629
 8371SOL    HW126012   5.228   2.133   1.320 -0.4512  0.9311  0.1851
 8371SOL    HW226013   5.119   2.231   1.247 -0.7794  0.4910  0.0846
 8372SOL     OW26014   4.910   3.258   2.145 -0.0493 -0.1333  0.4892
 8372SOL    HW126015   4.837   3.191   2.137 -2.8980  2.6125  1.4251
 8372SOL    HW226016   4.943   3.259   2.240 -0.0104 -0.1649  0.4765
 8373SOL     OW26017   0.488   6.200   1.995 -0.5075 -0.0663  0.7212
 8373SOL    HW126018   0.544   6.280   2.016 -0.3139 -0.7055  2.8122
 8373SOL    HW226019   0.547   6.119   1.990 -1.2623 -0.9643  4.2060
 8374SOL     OW26020   2.469   5.373   0.746 -0.2028  0.5058  0.4930
 8374SOL    HW126021   2.527   5.338   0.674  1.1859 -0.4826  2.0179
 8374SOL    HW226022   2.494   5.330   0.833 -2.8769  0.4025  1.3251
 8375SOL     OW26023   4.950   4.095   5.200  0.5842  0.1749 -0.6395
 8375SOL    HW126024   4.955   4.119   5.103  1.9903  0.9378 -0.4058
 8375SOL    HW226025   4.969   4.176   5.255 -2.8188  0.4380  0.3738
 8376SOL     OW26026   6.806   2.488   5.420  0.1394  0.2476  0.3583
 8376SOL    HW126027   6.768   2.485   5.328 -0.6756 -1.7072  0.7232
 8376SOL    HW226028   6.769   2.568   5.468  0.4991  1.2315 -0.9334
 8377SOL     OW26029   6.667   0.400   2.544 -0.8283 -0.3903 -0.5206
 8377SOL    HW126030   6.619   0.414   2.457 -0.6032  3.1230 -0.2404
 8377SOL    HW226031   6.604   0.416   2.620 -0.9103 -3.0093  0.0457
 8378SOL     OW26032   0.208   7.013   5.055  0.1408 -0.0957  0.2853
 8378SOL    HW126033   0.169   7.054   4.972  0.7201 -0.3097 -0.0956
 8378SOL    HW226034   0.210   6.914   5.046  3.1741 -0.0400 -0.8393
 8379SOL     OW26035   2.898   4.539   6.881  0.2790 -0.6248 -0.2492
 8379SOL    HW126036   2.969   4.518   6.814 -0.0547 -0.1545 -0.7581
 8379SOL    HW226037   2.925   4.619   6.935 -0.7265  0.8364 -1.8070
 8380SOL     OW26038   4.540   2.055   2.174 -0.3157  0.2847  0.1458
 8380SOL    HW126039   4.505   2.001   2.250  1.8168 -0.2177  0.8286
 8380SOL    HW226040   4.571   2.144   2.207  0.6309  0.0629 -0.0882
 8381SOL     OW26041   2.049   0.154   0.498 -0.5735 -0.9265 -0.6216
 8381SOL    HW126042   2.120   0.085   0.507 -1.1931 -1.3685  1.2779
 8381SOL    HW226043   2.067   0.209   0.416  1.9360 -1.0311 -0.2325
 8382SOL     OW26044   6.316   3.516   3.758  0.1874 -0.1670  0.2628
 8382SOL    HW126045   6.257   3.473   3.689  0.2193 -1.1817  0.8498
 8382SOL    HW226046   6.325   3.613   3.738 -0.8777 -0.1913 -0.4067
 8383SOL     OW26047   6.865   5.492   5.464 -0.4632  0.5706  0.2545
 8383SOL    HW126048   6.858   5.452   5.555 -1.4349  2.6600  1.1605
 8383SOL    HW226049   6.888   5.589   5.472  0.3206  0.5941 -1.7747
 8384SOL     OW26050   5.894   0.487   3.616  0.0286  0.1244 -0.0739
 8384SOL    HW126051   5.974   0.496   3.676 -0.1573 -1.8040  0.5432
 8384SOL    HW226052   5.883   0.571   3.562  2.5235  0.4098 -0.2626
 8385SOL     OW26053   6.130   6.950   0.832  0.1219  0.3872  0.6816
 8385SOL    HW126054   6.181   6.967   0.916 -0.7765  1.6827  0.9896
 8385SOL    HW226055   6.188   6.971   0.753  0.4968  0.5693  1.0036
 8386SOL     OW26056   2.932   5.584   2.850  0.2151 -0.3437 -0.0271
 8386SOL    HW126057   3.008   5.522   2.831 -0.1144 -0.6356 -0.4396
 8386SOL    HW226058   2.962   5.679   2.840  1.3500 -0.2961  2.8661
 8387SOL     OW26059   1.176   3.906   6.588 -0.1448 -0.5533  0.4732
 8387SOL    HW126060   1.264   3.950   6.600  0.0922 -0.7724 -0.3485
 8387SOL    HW226061   1.188   3.823   6.532 -0.8756 -0.5339  0.2780
 8388SOL     OW26062   4.997   1.276   5.492 -0.3928 -0.2638  0.3559
 8388SOL    HW126063   4.983   1.268   5.590 -2.4021 -1.0905  0.0562
 8388SOL    HW226064   5.032   1.367   5.470  0.4368 -0.2058  1.8511
 8389SOL     OW26065   5.092   0.554   1.193 -0.2470  0.4432  0.4195
 8389SOL    HW126066   5.015   0.506   1.151 -0.4778 -0.2200  1.5608
 8389SOL    HW226067   5.078   0.653   1.183  0.4214  0.3395 -2.2780
 8390SOL     OW26068   0.460   1.531   1.898 -0.3808  0.0460 -0.4004
 8390SOL    HW126069   0.432   1.611   1.951 -0.0039 -0.4024  0.5029
 8390SOL    HW226070   0.443   1.548   1.801  1.1624  1.8783 -0.4228
 8391SOL     OW26071   6.060   0.688   6.784 -0.0397 -0.0048  0.2128
 8391SOL    HW126072   6.020   0.682   6.693 -0.7165  0.2847  0.4910
 8391SOL    HW226073   6.049   0.600   6.831  1.9346 -0.7714 -0.6358
 8392SOL     OW26074   2.214   3.758   5.264 -0.1868  0.2416 -0.1729
 8392SOL    HW126075   2.221   3.701   5.347  0.8322  0.3702 -0.1511
 8392SOL    HW226076   2.300   3.808   5.252 -1.4974  2.8146  0.5419
 8393SOL     OW26077   5.029   6.630   2.324  1.0168 -0.5003 -0.5142
 8393SOL    HW126078   4.993   6.597   2.411  0.6089 -0.4223 -0.6506
 8393SOL    HW226079   5.101   6.697   2.341  0.9919 -0.5431 -0.2375
 8394SOL     OW26080   2.040   2.553   3.191  0.4539  0.7510  0.4998
 8394SOL    HW126081   2.115   2.568   3.256  1.4876  0.3806 -0.5810
 8394SOL    HW226082   2.028   2.635   3.135 -0.1913  0.9351  0.8980
 8395SOL     OW26083   5.027   4.816   4.205 -0.0879 -0.0234  0.5177
 8395SOL    HW126084   5.052   4.896   4.150 -1.6283  0.0477 -0.1109
 8395SOL    HW226085   4.963   4.843   4.277 -0.3456 -0.6291  0.5210
 8396SOL     OW26086   3.510   4.963   4.326  0.1637 -0.3576 -0.0681
 8396SOL    HW126087   3.415   4.934   4.318  0.2399 -0.5182 -0.4448
 8396SOL    HW226088   3.545   4.988   4.236  0.6303 -0.7989 -0.0180
 8397SOL     OW26089   2.215   5.590   4.557  0.3488 -0.2884 -0.2951
 8397SOL    HW126090   2.203   5.576   4.459  0.1251 -1.7209 -0.0857
 8397SOL    HW226091   2.128   5.571   4.604  0.4932  0.2454  0.1968
 8398SOL     OW26092   6.875   3.888   6.469 -0.3035 -0.4081  0.4212
 8398SOL    HW126093   6.914   3.973   6.434 -1.1577  0.1553  0.7746
 8398SOL    HW226094   6.780   3.880   6.438 -1.0275  0.0079  2.3421
 8399SOL     OW26095   2.548   5.623   0.180 -0.3900 -0.0096 -0.1219
 8399SOL    HW126096   2.549   5.579   0.270  1.1870  2.9368  1.4474
 8399SOL    HW226097   2.640   5.656   0.159 -0.8827 -0.0662 -2.5600
 8400SOL     OW26098   3.520   3.195   4.521  1.0749 -0.1006  0.1492
 8400SOL    HW126099   3.449   3.124   4.511  0.0731  0.9518 -0.4982
 8400SOL    HW226100   3.529   3.219   4.618  0.9083 -0.5992  0.2947
 8401SOL     OW26101   2.971   3.943   0.967 -0.6026  0.5498  0.0528
 8401SOL    HW126102   3.015   3.938   1.057 -0.1702  1.6057 -0.0859
 8401SOL    HW226103   2.972   3.852   0.925  1.7854  0.5860 -0.0955
 8402SOL     OW26104   2.203   0.864   6.349 -0.0161 -0.1488 -0.1432
 8402SOL    HW126105   2.229   0.769   6.335 -1.4589 -0.7161  0.7101
 8402SOL    HW226106   2.271   0.924   6.308  0.9513 -1.5396 -0.6566
 8403SOL     OW26107   5.438   2.731   5.311  0.3815 -0.2263  0.3248
 8403SOL    HW126108   5.491   2.746   5.227  0.3220  0.6378  0.4311
 8403SOL    HW226109   5.341   2.739   5.290  0.3368 -0.6909  0.3480
 8404SOL     OW26110   1.214   0.614   5.909 -0.4477  0.0586 -0.0557
 8404SOL    HW126111   1.196   0.518   5.932  3.5241 -0.3725  2.4171
 8404SOL    HW226112   1.283   0.618   5.837  0.1136  0.9729  0.5088
 8405SOL     OW26113   1.528   2.226   4.402 -0.0147 -0.2139  0.0925
 8405SOL    HW126114   1.495   2.304   4.349  0.1804  1.3129  2.0900
 8405SOL    HW226115   1.464   2.150   4.393 -2.6373  1.6536  1.5097
 8406SOL     OW26116   5.227   3.017   4.351 -0.3600 -0.1916  0.0027
 8406SOL    HW126117   5.221   3.046   4.446  2.8990  2.5075 -0.4093
 8406SOL    HW226118   5.193   3.090   4.292  0.0142 -0.7687 -0.9534
 8407SOL     OW26119   4.557   2.123   0.635 -0.5825  0.2329 -0.0999
 8407SOL    HW126120   4.461   2.099   0.625 -1.3924  3.2521 -0.3693
 8407SOL    HW226121   4.591   2.160   0.549  0.8533 -0.7026  0.0203
 8408SOL     OW26122   2.388   1.664   2.738 -0.0105  0.8573  0.0110
 8408SOL    HW126123   2.435   1.683   2.824  1.2394 -2.2146  0.1192
 8408SOL    HW226124   2.441   1.598   2.685 -2.2931  0.2806 -1.7095
 8409SOL     OW26125   6.098   6.878   5.780  0.8992  0.2844 -0.2147
 8409SOL    HW126126   6.115   6.972   5.752 -0.1028  0.9171  1.2193
 8409SOL    HW226127   6.102   6.871   5.879 -3.6873 -0.1172  0.1374
 8410SOL     OW26128   6.894   1.967   0.536  0.1380  0.0017 -0.3459
 8410SOL    HW126129   6.930   1.948   0.445 -0.2992 -3.1591  0.0231
 8410SOL    HW226130   6.824   1.899   0.559 -0.9243  1.6883  1.7400
 8411SOL     OW26131   1.304   2.780   6.776  0.5301  0.0696  0.4345
 8411SOL    HW126132   1.284   2.685   6.802 -1.0052  0.4970  0.9468
 8411SOL    HW226133   1.358   2.781   6.692  1.2064 -1.2594  0.8277
 8412SOL     OW26134   2.827   6.980   4.253  0.1570 -0.0180  0.4222
 8412SOL    HW126135   2.852   7.060   4.199 -1.5615 -0.2412 -0.8137
 8412SOL    HW226136   2.879   6.979   4.338  0.2345  2.4048  0.4831
 8413SOL     OW26137   1.084   3.795   3.347 -0.0255 -0.7076  0.5244
 8413SOL    HW126138   1.184   3.788   3.342  0.0377  0.6506 -3.0440
 8413SOL    HW226139   1.058   3.886   3.380 -0.0390 -0.4620 -0.1533
 8414SOL     OW26140   4.772   4.077   2.785 -0.3232  0.2013  0.4136
 8414SOL    HW126141   4.825   3.993   2.798 -0.7200  0.1781  2.1405
 8414SOL    HW226142   4.764   4.097   2.687 -0.6737 -2.0533 -0.0719
 8415SOL     OW26143   3.893   0.630   3.868 -0.0892 -0.4489 -0.1622
 8415SOL    HW126144   3.851   0.545   3.838  0.0972 -1.0046  1.0796
 8415SOL    HW226145   3.990   0.631   3.845  0.1231 -1.0099  0.6595
 8416SOL     OW26146   3.055   5.170   4.847 -0.4948  0.0076 -0.1772
 8416SOL    HW126147   2.977   5.179   4.908  0.4492  0.8129  0.9632
 8416SOL    HW226148   3.137   5.205   4.893  0.7750 -1.8889 -0.8606
 8417SOL     OW26149   5.865   4.139   3.488  0.2177  0.5597  0.3770
 8417SOL    HW126150   5.803   4.146   3.410 -1.6453  0.3017  1.7843
 8417SOL    HW226151   5.897   4.230   3.513 -0.6225  0.8464  0.4354
 8418SOL     OW26152   5.929   2.452   6.814 -0.0762 -0.4441 -0.0464
 8418SOL    HW126153   5.835   2.478   6.793  0.5707  1.4774 -0.8696
 8418SOL    HW226154   5.976   2.425   6.729  0.5028  0.1046  0.0835
 8419SOL     OW26155   6.740   0.065   0.193 -0.6940 -0.4607 -0.2995
 8419SOL    HW126156   6.727   0.140   0.258 -1.0104 -0.6833 -0.1018
 8419SOL    HW226157   6.836   0.041   0.189 -0.9843 -2.8163  2.7970
 8420SOL     OW26158   5.740   0.477   1.504  0.2942  0.1633  0.3647
 8420SOL    HW126159   5.687   0.417   1.445  0.8571  1.0226 -1.0924
 8420SOL    HW226160   5.694   0.565   1.512  1.5139  1.0073 -1.1158
 8421SOL     OW26161   0.849   6.789   2.537 -0.3445  0.3038  0.0589
 8421SOL    HW126162   0.861   6.717   2.469 -0.8834  0.2616  0.0052
 8421SOL    HW226163   0.820   6.874   2.492  1.9516  1.0735 -0.1030
 8422SOL     OW26164   4.108   1.277   6.942  0.0325  0.1742  0.4430
 8422SOL    HW126165   4.091   1.319   7.032  0.1080 -0.9950  1.0131
 8422SOL    HW226166   4.205   1.286   6.919 -0.2702  1.9746 -0.3190
 8423SOL     OW26167   4.748   1.100   3.842  0.3549 -0.5687  0.6735
 8423SOL    HW126168   4.785   1.190   3.818 -0.3016 -0.6142 -0.5511
 8423SOL    HW226169   4.756   1.038   3.764 -3.2703 -0.2758 -0.1168
 8424SOL     OW26170   3.638   0.926   5.407 -0.0836  0.4360  1.1322
 8424SOL    HW126171   3.554   0.898   5.359  0.2617  0.8801  0.2365
 8424SOL    HW226172   3.634   1.024   5.427  0.8937  0.8265 -0.3996
 8425SOL     OW26173   1.015   4.715   6.079 -0.2868 -1.1960  0.4489
 8425SOL    HW126174   1.078   4.666   6.140  1.3960  1.1548  0.7819
 8425SOL    HW226175   1.043   4.701   5.984  0.0653 -1.0919  0.5323
 8426SOL     OW26176   5.164   1.603   6.862 -0.6638  0.5366  0.1188
 8426SOL    HW126177   5.203   1.668   6.928 -1.0369  0.5113  0.3648
 8426SOL    HW226178   5.159   1.647   6.772  0.7938  0.2292 -0.1289
 8427SOL     OW26179   4.094   3.295   3.901  1.1744 -0.3484 -0.6011
 8427SOL    HW126180   4.042   3.357   3.842 -0.2041  0.0264  0.9260
 8427SOL    HW226181   4.152   3.349   3.963 -1.2820 -0.3238  1.9038
 8428SOL     OW26182   6.925   2.418   3.999 -0.3746  0.3966  0.4711
 8428SOL    HW126183   6.892   2.324   3.988 -0.3715  0.4528 -0.0313
 8428SOL    HW226184   7.025   2.417   3.997 -0.3665  0.3562  0.9150
 8429SOL     OW26185   0.338   0.778   0.678 -0.0654 -0.0217  0.3087
 8429SOL    HW126186   0.335   0.877   0.694  0.0151 -0.0348  0.4019
 8429SOL    HW226187   0.320   0.760   0.581 -0.1304  0.0814  0.3012
 8430SOL     OW26188   1.821   3.854   3.089  0.1880 -0.0400  0.0236
 8430SOL    HW126189   1.905   3.811   3.121  0.4725 -0.2940 -1.0059
 8430SOL    HW226190   1.759   3.867   3.165 -0.7842 -4.2074  0.1922
 8431SOL     OW26191   1.280   0.466   1.189  0.3627  0.2669  0.5702
 8431SOL    HW126192   1.182   0.451   1.176 -0.4633  2.0041  3.6525
 8431SOL    HW226193   1.304   0.557   1.155  1.3419 -0.7592 -1.6473
 8432SOL     OW26194   6.294   0.042   6.594  0.9540  0.2281  0.2352
 8432SOL    HW126195   6.228  -0.026   6.627  1.2209  0.3347  1.0217
 8432SOL    HW226196   6.358  -0.002   6.532  0.4276  0.0206 -0.1713
 8433SOL     OW26197   6.235   4.348   0.643 -0.8212 -0.1373  0.4189
 8433SOL    HW126198   6.165   4.404   0.598  1.4480  2.3118 -0.2749
 8433SOL    HW226199   6.303   4.319   0.576 -1.0512 -2.4581  1.0878
 8434SOL     OW26200   5.926   6.987   6.047 -0.0436 -0.4028  0.5376
 8434SOL    HW126201   6.020   6.954   6.057 -0.8978 -2.5408  2.2648
 8434SOL    HW226202   5.902   7.042   6.127 -0.3023  0.1041  0.1189
 8435SOL     OW26203   2.738   5.598   2.408 -0.0413  0.2550 -0.6100
 8435SOL    HW126204   2.676   5.628   2.481  1.0174  1.0253 -0.0035
 8435SOL    HW226205   2.688   5.597   2.321 -1.2895 -0.5474  0.0837
 8436SOL     OW26206   3.732   1.349   0.599 -0.1544 -0.8066 -0.0062
 8436SOL    HW126207   3.792   1.286   0.548  2.1446 -0.3082  1.9306
 8436SOL    HW226208   3.725   1.435   0.549  0.8583 -0.8359 -0.2261
 8437SOL     OW26209   4.630   0.238   4.496  0.0233 -0.6977  0.2780
 8437SOL    HW126210   4.672   0.195   4.576  0.8222  0.4923  0.5289
 8437SOL    HW226211   4.702   0.263   4.430 -0.5083 -0.5934 -0.2718
 8438SOL     OW26212   1.498   2.755   0.116 -0.3343  0.3481 -0.0291
 8438SOL    HW126213   1.505   2.815   0.037 -1.3899 -0.1715 -0.5387
 8438SOL    HW226214   1.564   2.783   0.186 -1.7673  3.0296  0.3698
 8439SOL     OW26215   5.078   6.432   6.579 -0.8412  0.3194  0.5136
 8439SOL    HW126216   5.129   6.347   6.568  1.9532  1.9475  0.0241
 8439SOL    HW226217   5.039   6.460   6.491 -2.2715 -0.6654  0.7893
 8440SOL     OW26218   5.403   4.205   2.417  0.3680  0.2183  0.3609
 8440SOL    HW126219   5.364   4.117   2.443  0.0837  0.6912  1.6599
 8440SOL    HW226220   5.467   4.193   2.342 -1.9701 -0.6379 -1.5983
 8441SOL     OW26221   5.048   3.399   3.144 -0.1343 -0.2782  0.1705
 8441SOL    HW126222   4.982   3.324   3.145  0.0628 -0.4466  0.5521
 8441SOL    HW226223   5.120   3.379   3.078 -0.4954 -0.0644 -0.2945
 8442SOL     OW26224   6.989   0.112   0.359 -0.1662 -0.2099  0.2297
 8442SOL    HW126225   6.988   0.026   0.309  0.2830 -0.5432  0.7834
 8442SOL    HW226226   7.010   0.095   0.455  0.6556  0.5872  0.2100
 8443SOL     OW26227   4.049   0.724   1.311 -0.3038 -0.3322  0.4408
 8443SOL    HW126228   4.146   0.717   1.287  0.0764  1.7905  1.1135
 8443SOL    HW226229   3.999   0.647   1.272  1.4765 -0.9333 -0.7777
 8444SOL     OW26230   2.124   0.795   0.207  0.5398 -0.0722 -0.2962
 8444SOL    HW126231   2.027   0.818   0.201  1.1561  2.6540 -1.5319
 8444SOL    HW226232   2.167   0.849   0.280  1.2814 -0.5747 -0.3479
 8445SOL     OW26233   5.655   4.016   1.663 -0.1801  0.3749  0.3238
 8445SOL    HW126234   5.752   4.042   1.667 -0.2604  0.6429  0.4954
 8445SOL    HW226235   5.617   4.015   1.756 -0.0359 -0.8838  0.3888
 8446SOL     OW26236   3.519   1.404   4.217  0.1345 -0.4181 -0.4705
 8446SOL    HW126237   3.496   1.309   4.199  2.1355 -1.1901  0.7652
 8446SOL    HW226238   3.486   1.431   4.307  0.8452 -0.4329 -0.1934
 8447SOL     OW26239   3.026   0.679   2.866 -0.4406 -0.3847 -0.6426
 8447SOL    HW126240   3.092   0.625   2.919  0.7842  1.2738 -0.4234
 8447SOL    HW226241   2.939   0.681   2.914 -0.3023 -1.5713 -0.3084
 8448SOL     OW26242   1.175   4.710   0.422  0.6659 -0.0610 -0.1946
 8448SOL    HW126243   1.122   4.728   0.339  0.4725 -1.1784 -0.3202
 8448SOL    HW226244   1.156   4.782   0.489 -0.0797  0.2111 -0.6829
 8449SOL     OW26245   0.128   3.773   6.576  0.1915  0.4044 -0.3294
 8449SOL    HW126246   0.035   3.740   6.597 -0.0569  0.3941 -1.4078
 8449SOL    HW226247   0.165   3.819   6.657 -1.3421  1.7344 -0.3037
 8450SOL     OW26248   1.753   1.475   0.784 -0.6614 -0.8404  0.1934
 8450SOL    HW126249   1.672   1.508   0.831  0.3102 -1.2290  2.2970
 8450SOL    HW226250   1.822   1.448   0.852  0.9972 -1.0992 -1.4952
 8451SOL     OW26251   2.130   1.691   2.594 -0.1529 -0.1549 -0.0574
 8451SOL    HW126252   2.122   1.782   2.553  0.5710 -0.5236 -1.0524
 8451SOL    HW226253   2.212   1.688   2.650  0.1293 -0.3577 -0.4770
 8452SOL     OW26254   0.846   4.290   3.458 -0.1756 -0.2773 -0.0367
 8452SOL    HW126255   0.776   4.280   3.387 -2.4786 -0.4724  2.1189
 8452SOL    HW226256   0.925   4.338   3.420 -1.9798  1.1424 -2.2916
 8453SOL     OW26257   4.001   2.455   5.799  0.6752  0.3182 -0.2632
 8453SOL    HW126258   4.014   2.412   5.710 -1.5184 -0.5115 -0.2432
 8453SOL    HW226259   4.029   2.391   5.871  0.8411  0.3229 -0.3238
 8454SOL     OW26260   0.183   2.470   6.338  0.1027  0.2005  0.2863
 8454SOL    HW126261   0.094   2.450   6.379 -0.1780  0.5144 -0.1468
 8454SOL    HW226262   0.173   2.548   6.275  0.1170 -1.3629 -1.7446
 8455SOL     OW26263   4.733   0.127   2.285 -0.0920 -0.0740  0.7328
 8455SOL    HW126264   4.714   0.104   2.381  0.5554  0.3300  0.9637
 8455SOL    HW226265   4.663   0.191   2.253 -0.0401  0.1612  1.0800
 8456SOL     OW26266   0.599   6.558   5.976  0.5114 -0.3825  0.2252
 8456SOL    HW126267   0.514   6.573   6.027  0.4754  1.0893 -0.2306
 8456SOL    HW226268   0.665   6.510   6.035 -0.6511 -1.6387  0.5432
 8457SOL     OW26269   1.101   2.740   5.803 -0.2648 -0.3555 -0.1288
 8457SOL    HW126270   1.078   2.649   5.768 -0.2060 -0.0219 -1.0533
 8457SOL    HW226271   1.093   2.807   5.730  0.5402  0.2556  0.3299
 8458SOL     OW26272   0.820   6.311   6.958 -0.3713 -0.9716 -0.1630
 8458SOL    HW126273   0.907   6.276   6.994  0.1601  1.5570  1.2579
 8458SOL    HW226274   0.746   6.286   7.021 -0.1591 -0.4636  0.2960
 8459SOL     OW26275   1.753   0.692   3.464 -0.2167  0.0956  0.1787
 8459SOL    HW126276   1.762   0.792   3.471 -0.6867  0.0975  0.8823
 8459SOL    HW226277   1.754   0.652   3.556  1.2166 -0.6716 -0.1447
 8460SOL     OW26278   5.312   3.455   1.150  0.3383  0.3765  0.5081
 8460SOL    HW126279   5.395   3.470   1.095 -1.0193  0.2378 -1.6906
 8460SOL    HW226280   5.323   3.373   1.205  2.2019  1.1592  1.3846
 8461SOL     OW26281   6.239   4.355   3.054 -0.5599  0.5150 -0.3061
 8461SOL    HW126282   6.182   4.381   3.132 -0.3061  0.5556 -0.1315
 8461SOL    HW226283   6.218   4.261   3.028 -1.5502  0.9182 -1.0059
 8462SOL     OW26284   0.342   2.373   6.995  0.3297  0.4142  0.1308
 8462SOL    HW126285   0.301   2.450   7.043 -1.0532 -0.7874  0.9620
 8462SOL    HW226286   0.335   2.386   6.897 -0.5620  1.0085  0.2658
 8463SOL     OW26287   3.563   0.896   6.973 -0.1797 -0.2376  1.0304
 8463SOL    HW126288   3.507   0.967   6.933 -1.7096 -0.7549  2.1777
 8463SOL    HW226289   3.602   0.839   6.900  0.5874  1.3555  0.1338
 8464SOL     OW26290   2.941   1.894   5.919  0.1996 -0.0386  0.3120
 8464SOL    HW126291   2.960   1.961   5.990  0.2641 -2.6962  2.9789
 8464SOL    HW226292   2.914   1.942   5.835  0.4665  3.2529  1.9340
 8465SOL     OW26293   1.039   5.841   3.901  0.1677  0.9696  0.4535
 8465SOL    HW126294   1.006   5.790   3.981  1.8995  0.7567  1.0624
 8465SOL    HW226295   0.993   5.929   3.897 -1.4166  0.1914  0.5152
 8466SOL     OW26296   4.046   0.467   1.608 -0.3917 -0.2651  0.7582
 8466SOL    HW126297   3.952   0.500   1.611  0.2195  1.5422  1.2712
 8466SOL    HW226298   4.100   0.511   1.680  1.0396 -0.6406 -0.0293
 8467SOL     OW26299   0.852   1.583   1.312  0.0185  0.0186 -0.2975
 8467SOL    HW126300   0.874   1.504   1.254  1.9257  1.6330 -1.9530
 8467SOL    HW226301   0.781   1.638   1.268  0.2669  0.3559 -0.2866
 8468SOL     OW26302   3.959   6.548   5.277  0.0920 -0.3312  0.1311
 8468SOL    HW126303   4.010   6.466   5.251 -0.1714 -0.9816  1.5555
 8468SOL    HW226304   3.985   6.574   5.370 -1.7693 -0.3622  0.6904
 8469SOL     OW26305   1.365   3.448   4.756  0.5891  0.1649  0.6012
 8469SOL    HW126306   1.391   3.441   4.853 -0.5904 -2.4681  0.8122
 8469SOL    HW226307   1.441   3.486   4.704  1.6014  0.7580  2.4111
 8470SOL     OW26308   1.663   1.718   3.862 -0.1211 -0.1686  0.6159
 8470SOL    HW126309   1.598   1.721   3.938  0.4948 -0.7940  1.1882
 8470SOL    HW226310   1.629   1.774   3.787 -0.9242  0.1669  1.2092
 8471SOL     OW26311   5.487   0.993   5.330 -0.1294  0.2893  0.3445
 8471SOL    HW126312   5.530   1.014   5.418 -0.2000  0.9045  0.2392
 8471SOL    HW226313   5.389   1.012   5.335 -0.2787 -0.4715  0.3828
 8472SOL     OW26314   1.511   5.177   6.727  0.5213 -0.3333 -0.3279
 8472SOL    HW126315   1.603   5.141   6.742  0.9279  0.8882  0.2297
 8472SOL    HW226316   1.462   5.181   6.814  0.7139  1.0207 -0.2615
 8473SOL     OW26317   3.067   4.399   6.546  0.1664 -0.4268  0.0662
 8473SOL    HW126318   3.136   4.427   6.480 -0.1646 -1.6608 -0.8562
 8473SOL    HW226319   3.000   4.472   6.558 -0.2657 -0.4937 -1.6720
 8474SOL     OW26320   1.730   0.758   1.903 -0.3856  0.2046  0.3189
 8474SOL    HW126321   1.735   0.688   1.975  1.0083  0.7777  0.7951
 8474SOL    HW226322   1.801   0.827   1.917 -1.4255  1.4768 -0.4230
 8475SOL     OW26323   3.875   6.642   3.374  0.3277 -0.2715 -0.1196
 8475SOL    HW126324   3.940   6.577   3.414 -1.0692 -0.9550  1.1376
 8475SOL    HW226325   3.786   6.631   3.418 -0.7545  0.4008 -2.0393
 8476SOL     OW26326   0.196   4.374   5.701  0.3413  0.4352  0.1929
 8476SOL    HW126327   0.199   4.463   5.747  1.8481  0.2451  0.5337
 8476SOL    HW226328   0.191   4.302   5.769 -1.9998  0.2510 -0.1118
 8477SOL     OW26329   1.531   3.528   3.603 -0.3824  0.0425  0.0681
 8477SOL    HW126330   1.608   3.554   3.545  0.5378  0.8401  1.5929
 8477SOL    HW226331   1.563   3.509   3.695 -1.8510 -0.9207  0.4148
 8478SOL     OW26332   0.347   4.603   1.928  0.0473  0.0348 -0.4051
 8478SOL    HW126333   0.330   4.683   1.870 -2.7082  0.7117  1.1803
 8478SOL    HW226334   0.287   4.606   2.008  1.0406 -2.8107  0.5692
 8479SOL     OW26335   4.348   0.071   3.600 -0.2686 -0.6571  0.1171
 8479SOL    HW126336   4.401  -0.013   3.590 -1.5289 -1.8640  2.7695
 8479SOL    HW226337   4.410   0.148   3.613  0.8699 -1.5918  0.3814
 8480SOL     OW26338   0.479   5.016   6.404 -0.3217  0.1092  0.4340
 8480SOL    HW126339   0.387   4.978   6.398 -0.0966 -0.2470 -1.8927
 8480SOL    HW226340   0.543   4.955   6.357  0.7605  1.2760  0.3434
 8481SOL     OW26341   3.039   5.100   4.101  0.0058 -0.2735 -0.2219
 8481SOL    HW126342   3.121   5.098   4.043 -0.6844 -1.1774 -1.1986
 8481SOL    HW226343   2.995   5.189   4.092  0.5934  0.0427 -0.0770
 8482SOL     OW26344   4.282   3.106   0.992  0.5661 -0.1328  0.4172
 8482SOL    HW126345   4.258   3.127   1.087 -0.7403  1.6497 -0.2432
 8482SOL    HW226346   4.276   3.190   0.937  0.1015 -1.3414 -1.4764
 8483SOL     OW26347   2.617   6.582   4.398  0.0746 -0.1741 -0.3473
 8483SOL    HW126348   2.576   6.511   4.456 -0.7612  0.0606 -0.6363
 8483SOL    HW226349   2.705   6.550   4.364 -0.6129 -1.3740 -1.0612
 8484SOL     OW26350   5.009   3.021   5.320  0.1972  0.2898  0.3814
 8484SOL    HW126351   4.953   3.022   5.237 -0.0096 -0.9231  0.4884
 8484SOL    HW226352   5.106   3.024   5.295  0.1887 -1.3857 -0.0018
 8485SOL     OW26353   5.693   2.264   1.919 -0.3980  0.5500  0.2837
 8485SOL    HW126354   5.791   2.283   1.912 -0.2615  0.2383  1.2032
 8485SOL    HW226355   5.641   2.336   1.872  0.2591  0.8389 -0.0077
 8486SOL     OW26356   0.831   0.652   5.776  0.2917  0.4211 -0.0428
 8486SOL    HW126357   0.794   0.740   5.808 -0.9885  0.1413 -0.6896
 8486SOL    HW226358   0.886   0.668   5.693  0.1771  0.6308 -0.0810
 8487SOL     OW26359   2.125   4.271   2.342 -0.2545 -0.8857 -0.2325
 8487SOL    HW126360   2.163   4.313   2.260 -0.6850 -1.1610 -0.5730
 8487SOL    HW226361   2.143   4.330   2.421 -2.5318  0.9374 -0.9866
 8488SOL     OW26362   5.516   4.447   3.122 -0.0366 -0.2838 -0.3463
 8488SOL    HW126363   5.571   4.530   3.124 -1.2995  0.5684  0.0731
 8488SOL    HW226364   5.564   4.377   3.070  2.5036 -0.3614  1.8868
 8489SOL     OW26365   5.778   4.883   6.006  0.0426 -0.0100  0.2046
 8489SOL    HW126366   5.691   4.927   6.030  0.8298  1.6481  0.1926
 8489SOL    HW226367   5.849   4.914   6.069  0.6593 -1.2891  0.1665
 8490SOL     OW26368   1.418   4.222   3.626 -0.6307 -0.0422  0.6512
 8490SOL    HW126369   1.360   4.303   3.616  1.4446  1.2685 -2.2007
 8490SOL    HW226370   1.452   4.216   3.720 -1.0688  2.2505  1.0008
 8491SOL     OW26371   2.951   6.600   6.741 -0.3230 -0.3121  0.4476
 8491SOL    HW126372   2.993   6.657   6.670 -0.0254  1.1897  1.7697
 8491SOL    HW226373   3.018   6.534   6.774 -0.6626 -1.4901 -1.0814
 8492SOL     OW26374   2.777   1.464   6.662  0.5043 -0.1742 -0.4528
 8492SOL    HW126375   2.783   1.365   6.669 -0.8518 -0.2307  0.2457
 8492SOL    HW226376   2.728   1.489   6.578 -0.0327 -0.1292 -0.1258
 8493SOL     OW26377   6.153   2.587   0.498 -0.3091  0.0591 -0.3280
 8493SOL    HW126378   6.252   2.596   0.507 -0.3035 -1.0427  0.9580
 8493SOL    HW226379   6.130   2.558   0.405  0.6104 -0.1915 -0.4826
 8494SOL     OW26380   3.059   3.815   6.737 -0.5240 -0.0588  0.2350
 8494SOL    HW126381   3.048   3.731   6.789  1.2836 -0.1794  0.4837
 8494SOL    HW226382   2.997   3.814   6.658 -0.3659 -1.7222  0.1079
 8495SOL     OW26383   3.008   6.595   2.931  0.0826  0.2713 -0.2558
 8495SOL    HW126384   2.987   6.601   2.833 -0.4433 -0.3392 -0.1894
 8495SOL    HW226385   2.924   6.604   2.984 -0.1519 -2.4524  0.0033
 8496SOL     OW26386   6.803   4.507   3.426  0.6865 -0.0870  0.8109
 8496SOL    HW126387   6.758   4.593   3.453 -1.1198 -1.1942  1.4967
 8496SOL    HW226388   6.902   4.522   3.423  0.4129  2.0981  0.5764
 8497SOL     OW26389   5.568   2.022   4.457  0.0855 -0.2525  0.0110
 8497SOL    HW126390   5.468   2.012   4.451  0.0403  0.4053 -0.3306
 8497SOL    HW226391   5.610   1.979   4.377  0.2302 -2.4734  1.1894
 8498SOL     OW26392   6.027   0.227   2.739  0.3776 -0.4609 -0.0022
 8498SOL    HW126393   5.936   0.268   2.731 -0.0603 -1.6686 -1.9505
 8498SOL    HW226394   6.087   0.266   2.670  0.3729 -1.9317 -0.8890
 8499SOL     OW26395   5.849   0.780   2.593  0.2390  0.4127  1.1198
 8499SOL    HW126396   5.834   0.867   2.640 -1.0282  0.4701  0.6501
 8499SOL    HW226397   5.779   0.768   2.522  1.6386 -0.0161 -0.2571
 8500SOL     OW26398   4.815   3.331   6.688  0.5909 -0.1197 -0.0822
 8500SOL    HW126399   4.750   3.381   6.631  0.3155 -1.2982 -0.8359
 8500SOL    HW226400   4.859   3.260   6.634  1.1385 -0.5469  0.9012
 8501SOL     OW26401   3.625   5.648   4.454  0.3488  0.5058 -0.3628
 8501SOL    HW126402   3.708   5.703   4.447  0.0773  1.1465  1.0877
 8501SOL    HW226403   3.630   5.590   4.536 -0.1230 -0.3451 -0.9199
 8502SOL     OW26404   6.200   6.822   1.423 -0.1726 -0.1052  0.1899
 8502SOL    HW126405   6.294   6.790   1.406 -0.4994 -1.0421  0.0741
 8502SOL    HW226406   6.192   6.852   1.518  0.7417  1.8198 -0.2965
 8503SOL     OW26407   2.328   5.222   4.193  0.3302  0.1495 -0.0486
 8503SOL    HW126408   2.370   5.269   4.271 -1.3023  0.9258  0.4250
 8503SOL    HW226409   2.269   5.286   4.144  1.4207 -0.2998 -2.0230
 8504SOL     OW26410   4.392   0.310   6.221 -0.0155 -0.1831  0.1219
 8504SOL    HW126411   4.478   0.282   6.266 -0.6163  0.1061  1.5007
 8504SOL    HW226412   4.326   0.236   6.226 -0.1192 -0.1139 -0.2093
 8505SOL     OW26413   4.311   2.345   5.327  0.2351 -0.0785  0.1932
 8505SOL    HW126414   4.234   2.393   5.286 -0.6602 -0.7790  1.0342
 8505SOL    HW226415   4.395   2.398   5.312 -0.5819  1.2721  0.2990
 8506SOL     OW26416   4.218   4.773   6.398 -0.2502  0.3679  0.1605
 8506SOL    HW126417   4.128   4.748   6.363 -1.4294 -0.2714  3.3749
 8506SOL    HW226418   4.208   4.828   6.481  2.3317 -0.0244  0.8286
 8507SOL     OW26419   5.614   1.088   4.824  0.3965  0.2891  0.1551
 8507SOL    HW126420   5.672   1.083   4.743  0.3736  0.6067  0.1192
 8507SOL    HW226421   5.587   0.996   4.851 -0.7888  0.2634 -1.0421
 8508SOL     OW26422   3.880   2.977   2.608  0.2668 -0.4293 -0.3813
 8508SOL    HW126423   3.844   2.916   2.538 -0.4197 -1.0971  0.5439
 8508SOL    HW226424   3.980   2.982   2.600  0.2646 -1.1332 -0.8910
 8509SOL     OW26425   1.059   0.552   3.024 -0.1314 -0.3842 -0.7440
 8509SOL    HW126426   1.102   0.483   3.084  1.3305  0.4783 -0.7461
 8509SOL    HW226427   0.998   0.609   3.078 -1.0945 -1.4409 -0.6724
 8510SOL     OW26428   1.623   2.503   0.811  0.3342  0.1311 -0.1251
 8510SOL    HW126429   1.690   2.482   0.882  0.1771 -0.3377 -0.1093
 8510SOL    HW226430   1.531   2.496   0.850  0.2681  0.5016 -0.2149
 8511SOL     OW26431   4.370   4.952   3.587  0.2234  0.3094 -0.8557
 8511SOL    HW126432   4.345   5.034   3.534  0.5670 -0.3244 -2.0199
 8511SOL    HW226433   4.340   4.870   3.539  0.6800 -0.2994 -0.1359
 8512SOL     OW26434   1.871   2.612   5.310 -0.2025  0.2133  0.5553
 8512SOL    HW126435   1.848   2.646   5.401  1.5832  0.4376  0.9643
 8512SOL    HW226436   1.946   2.546   5.316 -0.0811  0.1959 -0.7288
 8513SOL     OW26437   3.549   6.116   4.071 -0.3777 -0.3710  0.1708
 8513SOL    HW126438   3.590   6.173   4.142  0.1632 -1.0597  0.4225
 8513SOL    HW226439   3.517   6.030   4.112 -0.7038 -0.4752 -0.2966
 8514SOL     OW26440   4.285   6.747   2.281 -0.1520 -0.6682 -0.0896
 8514SOL    HW126441   4.196   6.742   2.326  0.3611 -1.2762  0.9013
 8514SOL    HW226442   4.329   6.834   2.303 -0.9190  0.0954 -1.4397
 8515SOL     OW26443   3.835   2.377   0.544  0.3489  0.0433 -0.3554
 8515SOL    HW126444   3.804   2.368   0.449  1.7193 -0.5002 -0.7793
 8515SOL    HW226445   3.798   2.302   0.599 -2.1438  1.4779  0.0649
 8516SOL     OW26446   5.274   4.384   1.717  0.1605 -0.7536  0.3943
 8516SOL    HW126447   5.316   4.426   1.798  1.0158 -0.7417 -0.0408
 8516SOL    HW226448   5.199   4.324   1.746 -2.0204  2.0371  0.9641
 8517SOL     OW26449   4.560   0.103   4.887 -0.1445  0.7041  1.0120
 8517SOL    HW126450   4.639   0.154   4.853 -0.5792  0.4369 -0.4690
 8517SOL    HW226451   4.574   0.005   4.873 -1.0678  0.7046 -0.0382
 8518SOL     OW26452   2.352   6.517   3.916  0.2523  0.5060 -0.1820
 8518SOL    HW126453   2.375   6.526   4.013  0.3983  0.2191 -0.1892
 8518SOL    HW226454   2.259   6.550   3.901 -0.3725 -0.9038  0.3392
 8519SOL     OW26455   4.003   3.750   1.538 -0.1768  0.1420  0.5065
 8519SOL    HW126456   4.042   3.808   1.611  0.5172  0.2242  0.0830
 8519SOL    HW226457   3.923   3.795   1.499 -0.4496  0.1808  1.0950
 8520SOL     OW26458   1.564   0.748   6.461 -0.1656  0.2225  0.2200
 8520SOL    HW126459   1.570   0.738   6.560  0.7207 -2.7008 -0.0164
 8520SOL    HW226460   1.655   0.745   6.421 -0.6093 -0.6297 -0.7844
 8521SOL     OW26461   6.630   0.687   2.300  0.0807 -0.2787  0.7066
 8521SOL    HW126462   6.580   0.771   2.319 -0.4366 -0.1838 -0.9567
 8521SOL    HW226463   6.717   0.710   2.256 -1.2189 -0.6352 -2.2638
 8522SOL     OW26464   2.497   5.025   3.489 -0.3073  0.4246  0.0330
 8522SOL    HW126465   2.566   5.095   3.477  0.0050  0.1667  0.2752
 8522SOL    HW226466   2.453   5.005   3.402 -0.5891  1.1125  0.0172
 8523SOL     OW26467   4.106   3.535   4.085  0.5206  0.0149  0.1872
 8523SOL    HW126468   4.011   3.531   4.053  0.1227 -1.7361  1.4232
 8523SOL    HW226469   4.112   3.492   4.175  2.2106  1.6140  0.9101
 8524SOL     OW26470   2.256   2.443   0.336  0.9278 -0.3160 -0.2164
 8524SOL    HW126471   2.345   2.483   0.359  0.2013  0.8158  0.7517
 8524SOL    HW226472   2.257   2.345   0.356  1.2745  0.0862  1.9792
 8525SOL     OW26473   4.752   4.590   1.434 -0.5336 -0.0241 -0.8572
 8525SOL    HW126474   4.818   4.662   1.452  0.5237 -0.4645 -2.7297
 8525SOL    HW226475   4.787   4.503   1.469 -1.4744  0.1921  0.7348
 8526SOL     OW26476   6.966   6.631   0.501  0.3005 -0.0903 -0.0920
 8526SOL    HW126477   6.956   6.531   0.503 -0.5080 -0.0836 -2.1126
 8526SOL    HW226478   7.026   6.657   0.426 -3.1795  1.1178 -2.7085
 8527SOL     OW26479   2.407   0.013   2.987 -0.4321 -0.0566  0.2733
 8527SOL    HW126480   2.374  -0.069   2.940  1.9313 -1.4776  0.9388
 8527SOL    HW226481   2.338   0.086   2.979 -1.5735 -1.2910 -2.4160
 8528SOL     OW26482   5.167   2.622   2.669 -0.6102 -0.0115 -0.0693
 8528SOL    HW126483   5.209   2.607   2.579  0.8614 -1.5917  0.8139
 8528SOL    HW226484   5.139   2.535   2.708 -0.3366  0.5355  1.4109
 8529SOL     OW26485   3.317   4.876   3.255  0.4720  0.4844  0.0489
 8529SOL    HW126486   3.352   4.926   3.334  1.6693 -1.2381  0.6802
 8529SOL    HW226487   3.393   4.859   3.192 -0.0872  0.1718 -0.5414
 8530SOL     OW26488   5.493   6.448   3.612  0.1109 -0.2431 -0.4946
 8530SOL    HW126489   5.454   6.475   3.524  1.3482  0.6124 -0.8180
 8530SOL    HW226490   5.500   6.349   3.617  1.1053 -0.2674 -1.8650
 8531SOL     OW26491   2.357   3.718   0.015  0.2936 -0.1771  0.2196
 8531SOL    HW126492   2.286   3.684   0.076 -2.2822  1.4932 -1.6334
 8531SOL    HW226493   2.372   3.815   0.031  1.5042 -0.2993 -0.0500
 8532SOL     OW26494   6.262   1.169   5.821  0.5262  0.3192  0.5946
 8532SOL    HW126495   6.191   1.154   5.889 -1.0839 -0.0332 -1.0978
 8532SOL    HW226496   6.322   1.243   5.852  0.2179 -0.2163  2.6322
 8533SOL     OW26497   6.500   2.491   5.012  0.3449 -0.9616  0.2243
 8533SOL    HW126498   6.506   2.568   5.076  0.6352 -1.3774  0.6970
 8533SOL    HW226499   6.452   2.521   4.929  2.2269  0.3059 -0.4645
 8534SOL     OW26500   3.494   6.863   1.458 -0.1048  0.1120  0.1693
 8534SOL    HW126501   3.580   6.813   1.447 -0.6415 -1.2848  1.8502
 8534SOL    HW226502   3.433   6.843   1.380  1.3382  1.7994 -1.4866
 8535SOL     OW26503   5.373   5.938   4.816  0.0753  0.1438  0.2527
 8535SOL    HW126504   5.287   5.981   4.840  0.9184  0.5373  3.0149
 8535SOL    HW226505   5.373   5.843   4.848  0.1971 -0.2772 -0.9455
 8536SOL     OW26506   5.788   6.775   6.749  0.0200 -0.2115 -0.2215
 8536SOL    HW126507   5.838   6.722   6.679  0.3408  0.7733 -0.7502
 8536SOL    HW226508   5.774   6.717   6.829 -0.1815 -1.3070 -1.0130
 8537SOL     OW26509   6.004   3.615   1.682 -0.7062  0.2601 -0.5077
 8537SOL    HW126510   6.088   3.669   1.692 -0.2139 -0.5830  0.0543
 8537SOL    HW226511   6.028   3.519   1.671 -1.5749  0.1239 -1.3367
 8538SOL     OW26512   6.982   4.618   4.485  0.2414 -0.0020  0.4184
 8538SOL    HW126513   6.966   4.543   4.549 -1.5508  0.8884  1.0949
 8538SOL    HW226514   7.080   4.637   4.480  0.4832 -0.3528  2.6208
 8539SOL     OW26515   4.267   4.086   7.006  0.1742  0.0967 -0.8253
 8539SOL    HW126516   4.272   4.078   7.105  1.9787  2.7869 -0.5970
 8539SOL    HW226517   4.224   4.172   6.981  0.1540 -0.3365 -2.3902
 8540SOL     OW26518   5.997   4.954   5.181  0.3738  0.2950 -0.1111
 8540SOL    HW126519   6.042   4.869   5.156  0.0169 -0.1033  0.5566
 8540SOL    HW226520   5.942   4.939   5.263  2.7796  1.9237  1.9463
 8541SOL     OW26521   1.048   3.583   2.342  0.1315 -0.0454  0.7823
 8541SOL    HW126522   1.136   3.622   2.311  1.2342 -1.1582  2.3842
 8541SOL    HW226523   0.974   3.641   2.310  1.5049  1.4479  0.1404
 8542SOL     OW26524   5.738   3.955   0.228  0.2703  0.3173 -0.2572
 8542SOL    HW126525   5.827   3.922   0.259  0.8882 -1.3611 -3.4335
 8542SOL    HW226526   5.671   3.881   0.234 -0.2245  0.7459 -0.4162
 8543SOL     OW26527   5.333   0.885   4.576  0.2356  0.0409  0.7731
 8543SOL    HW126528   5.283   0.889   4.490 -0.6212 -2.9964  1.0388
 8543SOL    HW226529   5.411   0.949   4.572  0.6938 -0.5445 -2.5314
 8544SOL     OW26530   5.206   1.363   0.719 -0.2574  0.2766 -0.7569
 8544SOL    HW126531   5.221   1.331   0.625  0.0320 -2.1432  0.0487
 8544SOL    HW226532   5.259   1.447   0.734 -0.0855  0.5507 -2.6499
 8545SOL     OW26533   5.350   2.730   0.145  0.0859  0.1115  0.0071
 8545SOL    HW126534   5.384   2.734   0.239 -0.5170 -1.6669  0.3242
 8545SOL    HW226535   5.289   2.808   0.128 -0.4622 -0.0073  1.3513
 8546SOL     OW26536   0.809   1.531   0.265 -0.4679 -0.3362 -0.3344
 8546SOL    HW126537   0.828   1.522   0.168 -2.2580 -0.7123 -0.6875
 8546SOL    HW226538   0.892   1.559   0.313  0.5459 -0.5587 -1.8940
 8547SOL     OW26539   6.948   0.777   4.389  0.4319  0.2371  0.2126
 8547SOL    HW126540   6.965   0.697   4.446  1.8299  0.1324 -0.3186
 8547SOL    HW226541   6.980   0.759   4.296 -0.7562  0.8233 -0.3284
 8548SOL     OW26542   0.163   4.498   1.760  0.0444 -0.7356 -0.4983
 8548SOL    HW126543   0.234   4.524   1.825 -1.3087 -1.1119  1.1832
 8548SOL    HW226544   0.201   4.432   1.694  1.3411 -0.6195  0.1036
 8549SOL     OW26545   1.072   3.508   5.653  0.6222 -0.2788 -0.0651
 8549SOL    HW126546   1.080   3.470   5.561 -0.9099  0.6270 -0.6092
 8549SOL    HW226547   0.988   3.475   5.696  1.2379 -0.5663  0.9641
 8550SOL     OW26548   7.003   6.974   5.965 -0.0540 -0.2713 -0.6087
 8550SOL    HW126549   6.959   6.951   6.052  1.8914  1.9766  1.1207
 8550SOL    HW226550   6.991   7.072   5.946  0.1420 -0.5835 -2.5462
 8551SOL     OW26551   6.710   0.068   2.259 -0.7458  0.3702  0.2077
 8551SOL    HW126552   6.786   0.010   2.230  1.1008  2.3846  0.6847
 8551SOL    HW226553   6.638   0.012   2.300  1.2721 -1.4930  1.4147
 8552SOL     OW26554   6.767   6.555   6.675 -0.0654 -0.1997  0.2210
 8552SOL    HW126555   6.700   6.481   6.674  1.4185 -1.5846 -0.1559
 8552SOL    HW226556   6.764   6.604   6.588 -1.0638  0.2120  0.4778
 8553SOL     OW26557   4.881   3.449   4.749  0.0798  0.4075  0.6039
 8553SOL    HW126558   4.867   3.351   4.759 -1.3964  0.4449 -0.7150
 8553SOL    HW226559   4.868   3.494   4.837  1.0269 -0.5861  1.2766
 8554SOL     OW26560   3.727   1.811   1.982 -0.2812  0.4241 -0.3733
 8554SOL    HW126561   3.809   1.858   2.015 -0.5644  1.1881 -0.7300
 8554SOL    HW226562   3.655   1.878   1.966 -1.3078 -0.3505  0.8598
 8555SOL     OW26563   6.892   3.305   6.019 -0.2246 -0.2585  0.3158
 8555SOL    HW126564   6.798   3.319   5.986  0.0493  1.2872  0.1138
 8555SOL    HW226565   6.896   3.330   6.116  0.3077  1.3169 -0.0820
 8556SOL     OW26566   6.498   5.202   4.227  0.0728  0.1802 -0.0861
 8556SOL    HW126567   6.579   5.201   4.285 -0.0034  1.6420  0.0899
 8556SOL    HW226568   6.421   5.162   4.276  0.4208 -0.2253  0.1386
 8557SOL     OW26569   3.565   1.007   3.026 -0.0307 -0.3998  0.1080
 8557SOL    HW126570   3.503   1.082   3.004 -0.2933 -0.6812 -0.1178
 8557SOL    HW226571   3.538   0.965   3.113  0.7768  0.4649  0.8031
 8558SOL     OW26572   6.048   4.850   4.686  0.1929  0.4185  0.0292
 8558SOL    HW126573   6.133   4.861   4.737 -1.0309  0.1924  2.2405
 8558SOL    HW226574   5.995   4.935   4.690 -2.0423 -0.9300  3.3840
 8559SOL     OW26575   4.782   3.280   6.945 -0.6463  0.0473  0.4615
 8559SOL    HW126576   4.793   3.181   6.947  1.3718  0.2443  1.0304
 8559SOL    HW226577   4.801   3.314   6.853  0.1514  0.0390  0.6184
 8560SOL     OW26578   6.859   3.159   3.478  0.5239 -0.1229  0.2646
 8560SOL    HW126579   6.764   3.142   3.454  0.4762  0.7969 -0.2460
 8560SOL    HW226580   6.883   3.254   3.456  1.6400 -0.4223  0.0957
 8561SOL     OW26581   6.325   6.430   3.372  0.5330 -0.6103 -0.1186
 8561SOL    HW126582   6.400   6.398   3.314  1.8351  1.4404  0.3427
 8561SOL    HW226583   6.273   6.500   3.324 -0.2255 -1.0110  0.1017
 8562SOL     OW26584   4.581   1.974   5.261 -0.3400  0.3680 -0.3763
 8562SOL    HW126585   4.635   2.051   5.226  0.5244 -0.0609  0.0120
 8562SOL    HW226586   4.641   1.903   5.295 -1.0930 -0.9960 -1.7501
 8563SOL     OW26587   6.649   2.090   6.197  0.1899 -0.0068  0.4932
 8563SOL    HW126588   6.737   2.120   6.235  0.6312 -0.0512 -0.4631
 8563SOL    HW226589   6.587   2.065   6.272  1.1553 -0.4509  1.1696
 8564SOL     OW26590   1.954   6.586   6.025  0.7697 -0.0791  0.6743
 8564SOL    HW126591   2.006   6.505   6.053 -1.9824 -1.8268  1.1508
 8564SOL    HW226592   1.955   6.654   6.098  3.6597  0.7496  0.0206
 8565SOL     OW26593   6.100   1.637   3.608  0.0580  0.0383 -1.1171
 8565SOL    HW126594   6.064   1.608   3.519  0.0846 -1.4311 -0.6819
 8565SOL    HW226595   6.055   1.584   3.681  0.6489  0.6099 -0.3155
 8566SOL     OW26596   3.103   4.578   1.666  0.2077  0.3497  0.2335
 8566SOL    HW126597   3.059   4.576   1.576 -0.1323  0.5396  0.3970
 8566SOL    HW226598   3.041   4.540   1.734  0.3382  0.5250  0.4491
 8567SOL     OW26599   0.773   1.867   0.156 -0.5187 -0.4933 -0.1440
 8567SOL    HW126600   0.673   1.865   0.164 -0.5705  0.1468 -0.5221
 8567SOL    HW226601   0.800   1.832   0.066 -0.6403  2.4031 -1.4337
 8568SOL     OW26602   4.734   6.710   1.070  0.6284 -0.5873  0.6943
 8568SOL    HW126603   4.803   6.763   1.021  0.2030  0.1035  0.8283
 8568SOL    HW226604   4.776   6.665   1.148  0.9301 -0.1791  0.7689
 8569SOL     OW26605   0.074   1.813   0.657 -0.6434  0.1056  0.0010
 8569SOL    HW126606   0.014   1.877   0.609  0.7650 -0.3084 -2.5051
 8569SOL    HW226607   0.164   1.854   0.668 -0.7536 -0.0635  1.8270
 8570SOL     OW26608   4.612   4.551   3.188 -0.3361  0.1562 -0.0227
 8570SOL    HW126609   4.575   4.506   3.106  2.2378 -0.5988 -0.8730
 8570SOL    HW226610   4.649   4.482   3.250 -0.4159  0.8610  0.8325
 8571SOL     OW26611   0.190   4.063   5.612  0.1177  0.1116  0.0715
 8571SOL    HW126612   0.205   4.146   5.557  0.8844 -0.4296 -0.5602
 8571SOL    HW226613   0.170   4.089   5.706 -1.3309  1.0769 -0.4632
 8572SOL     OW26614   4.313   3.019   0.032  0.0050 -0.3623 -0.4643
 8572SOL    HW126615   4.280   3.068   0.113 -0.4372 -0.6857 -0.4457
 8572SOL    HW226616   4.404   3.053   0.007 -0.2476  0.3777 -0.3779
 8573SOL     OW26617   3.860   3.565   5.851  0.1550 -0.3184  0.3164
 8573SOL    HW126618   3.844   3.467   5.866 -0.3780  0.0275  2.2702
 8573SOL    HW226619   3.816   3.618   5.923  0.6420  1.3748 -0.5617
 8574SOL     OW26620   3.832   6.204   1.190  0.0685 -0.3177  0.1616
 8574SOL    HW126621   3.918   6.256   1.193 -0.9469  1.5162 -0.9584
 8574SOL    HW226622   3.810   6.182   1.095  0.8652 -3.6551  0.6089
 8575SOL     OW26623   0.035   2.857   3.157  0.3679 -0.1877  0.2980
 8575SOL    HW126624   0.068   2.923   3.225 -1.8907  0.2199  1.0791
 8575SOL    HW226625  -0.058   2.828   3.181 -0.2824 -0.4789 -2.2948
 8576SOL     OW26626   6.421   0.320   6.590  0.2351 -0.0151 -0.4397
 8576SOL    HW126627   6.350   0.258   6.625 -1.6610  1.0026 -2.2299
 8576SOL    HW226628   6.400   0.344   6.495  1.9013  1.9355 -0.3836
 8577SOL     OW26629   5.246   0.478   0.635 -0.3425 -0.3408  0.5968
 8577SOL    HW126630   5.345   0.495   0.632 -0.2880 -0.7429 -1.9298
 8577SOL    HW226631   5.227   0.387   0.599 -1.6879  0.0186  0.3591
 8578SOL     OW26632   6.301   4.262   1.645 -0.2604  0.4828 -0.1061
 8578SOL    HW126633   6.247   4.227   1.721 -1.3293  0.0261 -1.0394
 8578SOL    HW226634   6.399   4.252   1.666 -0.5333 -0.7435  0.7045
 8579SOL     OW26635   4.850   2.035   4.617  0.2902  0.1400 -0.2725
 8579SOL    HW126636   4.783   1.978   4.570 -0.3666  0.2263  0.5510
 8579SOL    HW226637   4.935   2.035   4.564 -0.2880 -0.1047 -1.2428
 8580SOL     OW26638   5.768   4.898   0.952  0.1437  0.2081  0.0349
 8580SOL    HW126639   5.837   4.966   0.928  0.8481 -0.7306 -0.7112
 8580SOL    HW226640   5.689   4.943   0.992  1.1079  1.3352  0.7291
 8581SOL     OW26641   1.244   0.400   0.369 -0.1552  0.2534 -0.1324
 8581SOL    HW126642   1.322   0.348   0.404 -0.2451  1.3683  1.9159
 8581SOL    HW226643   1.159   0.358   0.402 -0.2582  1.0813  0.6977
 8582SOL     OW26644   0.269   0.266   5.980 -0.0680 -0.2003  0.1519
 8582SOL    HW126645   0.265   0.326   6.060 -0.2432 -0.2664  0.1938
 8582SOL    HW226646   0.290   0.320   5.898  3.9925 -0.5397  0.7319
 8583SOL     OW26647   3.778   3.550   4.982 -0.1690  0.5651 -0.1394
 8583SOL    HW126648   3.754   3.546   4.885  1.7116 -0.9371 -0.5971
 8583SOL    HW226649   3.858   3.609   4.995  0.5259 -0.4377  0.2559
 8584SOL     OW26650   3.708   2.660   0.428  0.6329  0.7495  0.1251
 8584SOL    HW126651   3.746   2.704   0.510 -0.6045  3.3331 -0.5578
 8584SOL    HW226652   3.623   2.613   0.453 -0.0762  2.0579  0.2708
 8585SOL     OW26653   0.023   0.637   1.990  0.0843  0.4390  0.0097
 8585SOL    HW126654   0.003   0.700   1.915 -2.4449  0.3309  0.5185
 8585SOL    HW226655   0.046   0.689   2.072  0.9005  0.5914 -0.3006
 8586SOL     OW26656   6.805   3.489   5.686  0.2425  0.3129  0.4234
 8586SOL    HW126657   6.713   3.453   5.700  0.0053  0.4243 -0.8017
 8586SOL    HW226658   6.853   3.492   5.774 -1.0475  0.6409  1.1312
 8587SOL     OW26659   3.790   1.647   0.863 -0.1335  0.3798 -0.1609
 8587SOL    HW126660   3.772   1.550   0.847 -0.2699  0.5232 -0.9087
 8587SOL    HW226661   3.784   1.666   0.961  0.6177 -0.5066  0.0728
 8588SOL     OW26662   2.485   0.059   1.849  0.7393  0.5022  0.4624
 8588SOL    HW126663   2.443   0.134   1.899 -1.9998 -0.8646  0.3975
 8588SOL    HW226664   2.439   0.049   1.760 -2.2463 -3.8604  2.1495
 8589SOL     OW26665   2.627   4.934   0.740 -0.1506 -0.0412 -0.3417
 8589SOL    HW126666   2.640   4.952   0.838 -0.1844  1.7745 -0.6255
 8589SOL    HW226667   2.532   4.953   0.715 -0.1541 -0.5388 -0.7202
 8590SOL     OW26668   0.660   0.935   1.440  0.4102 -0.0634 -0.2969
 8590SOL    HW126669   0.735   0.869   1.433  1.7413  1.1655  1.3750
 8590SOL    HW226670   0.609   0.937   1.354  0.7388 -2.7181 -0.6326
 8591SOL     OW26671   2.952   1.228   0.998 -0.3109  0.1246 -0.4279
 8591SOL    HW126672   3.039   1.232   0.948 -0.5257 -0.9789 -0.9230
 8591SOL    HW226673   2.962   1.274   1.086  1.4198 -1.7467  0.4349
 8592SOL     OW26674   4.855   0.811   5.443 -0.0900 -0.4498  0.3833
 8592SOL    HW126675   4.932   0.781   5.387  0.5938 -0.1018  1.1354
 8592SOL    HW226676   4.886   0.874   5.513 -1.0832 -0.1974  0.6153
 8593SOL     OW26677   6.719   1.642   0.982  0.5589  0.4640  0.3625
 8593SOL    HW126678   6.795   1.635   1.046  0.4328  1.7482  0.6907
 8593SOL    HW226679   6.649   1.703   1.020  0.0536  0.4946 -0.5878
 8594SOL     OW26680   5.098   3.534   1.276 -0.7939  0.1382  0.8372
 8594SOL    HW126681   5.190   3.499   1.255 -0.5858  1.5351 -0.8281
 8594SOL    HW226682   5.105   3.627   1.311 -1.5769  0.2022  0.8421
 8595SOL     OW26683   2.736   6.663   2.953  0.1707 -0.0546 -0.0478
 8595SOL    HW126684   2.724   6.631   2.859 -1.0818  3.7386 -1.3467
 8595SOL    HW226685   2.650   6.650   3.004  1.0048 -2.6106  0.8976
 8596SOL     OW26686   5.335   1.628   0.732  0.4253  0.1008 -0.1839
 8596SOL    HW126687   5.430   1.658   0.743 -0.2386  1.6421  2.1906
 8596SOL    HW226688   5.288   1.691   0.671  0.3167  0.9052  0.7067
 8597SOL     OW26689   0.717   2.794   3.124  1.0369 -0.0529  0.2823
 8597SOL    HW126690   0.625   2.763   3.101  0.9149 -0.2455  1.0122
 8597SOL    HW226691   0.733   2.782   3.222  1.7636  0.1773  0.1983
 8598SOL     OW26692   0.857   4.498   6.370  0.4108 -0.1063 -0.3956
 8598SOL    HW126693   0.870   4.490   6.271 -1.3446 -1.1852 -0.5866
 8598SOL    HW226694   0.856   4.407   6.411 -1.6023  0.1258  0.1808
 8599SOL     OW26695   5.365   3.819   2.808  0.0070 -0.4803 -0.1320
 8599SOL    HW126696   5.443   3.781   2.759  0.0848  0.6059 -0.8780
 8599SOL    HW226697   5.322   3.747   2.862  0.7963 -1.3687 -0.6509
 8600SOL     OW26698   2.348   5.773   0.502 -0.2813  0.0372  0.0326
 8600SOL    HW126699   2.321   5.781   0.598  0.6845  2.4996  0.1805
 8600SOL    HW226700   2.335   5.861   0.456 -1.9944 -1.4185 -2.5141
 8601SOL     OW26701   5.009   3.612   5.827 -0.2843 -0.2825 -0.2184
 8601SOL    HW126702   5.025   3.709   5.808 -1.3622 -0.1606 -0.5939
 8601SOL    HW226703   5.045   3.558   5.751  1.9787 -0.3397  0.8292
 8602SOL     OW26704   0.373   1.805   0.640 -0.4151  0.1335 -0.0028
 8602SOL    HW126705   0.377   1.713   0.602  0.3832  0.4292 -0.6370
 8602SOL    HW226706   0.401   1.872   0.571 -1.1153  0.8686  0.4099
 8603SOL     OW26707   2.945   4.483   5.663  0.2055  0.0105  0.1757
 8603SOL    HW126708   3.015   4.422   5.626  1.4286  2.0513 -1.0391
 8603SOL    HW226709   2.881   4.507   5.590  0.2793  0.9014  0.3956
 8604SOL     OW26710   6.685   3.735   5.640  0.0981  0.0452  0.5050
 8604SOL    HW126711   6.623   3.731   5.561  1.1103  1.5364 -0.4065
 8604SOL    HW226712   6.745   3.655   5.640  2.4431  1.6166 -2.3142
 8605SOL     OW26713   6.789   0.229   5.307  0.1922  0.2779 -0.1904
 8605SOL    HW126714   6.714   0.186   5.358 -0.0053  0.8187 -0.0162
 8605SOL    HW226715   6.868   0.239   5.368  1.3200 -2.5706 -1.0228
 8606SOL     OW26716   7.013   6.354   3.525 -0.6985  0.0952 -0.8252
 8606SOL    HW126717   6.925   6.311   3.544 -0.6025 -0.2942 -1.2465
 8606SOL    HW226718   7.011   6.396   3.434 -0.2199 -0.5415 -1.1389
 8607SOL     OW26719   5.461   0.695   0.018 -0.3091  0.8864 -0.6388
 8607SOL    HW126720   5.418   0.783  -0.003 -0.8009  0.7280 -0.2967
 8607SOL    HW226721   5.559   0.701  -0.002 -0.1828  1.7913  0.1918
 8608SOL     OW26722   1.994   5.723   5.966 -0.1373 -0.5702 -0.3902
 8608SOL    HW126723   2.014   5.801   5.908 -0.4244 -1.7729 -2.1887
 8608SOL    HW226724   2.078   5.675   5.989 -0.0456 -0.2130  0.0367
 8609SOL     OW26725   1.465   0.035   1.347 -0.1419 -0.2541  0.0906
 8609SOL    HW126726   1.456   0.091   1.430 -1.5184 -0.7948  0.3371
 8609SOL    HW226727   1.484  -0.060   1.373  0.7207 -0.1893 -0.2756
 8610SOL     OW26728   4.458   5.377   2.503 -0.0389  0.0658 -0.1569
 8610SOL    HW126729   4.418   5.302   2.450  0.8234 -0.6313  0.1374
 8610SOL    HW226730   4.547   5.401   2.463 -1.5327  2.9586 -2.0414
 8611SOL     OW26731   1.017   5.927   3.147  1.0399 -0.1537  0.0461
 8611SOL    HW126732   0.924   5.952   3.120  0.9034 -0.2647  0.4136
 8611SOL    HW226733   1.016   5.884   3.237  1.4311 -0.2846 -0.0080
 8612SOL     OW26734   1.524   5.620   4.547 -0.1190 -0.1998  0.2788
 8612SOL    HW126735   1.590   5.547   4.531  0.1800 -0.3481  2.0709
 8612SOL    HW226736   1.437   5.581   4.577 -0.3894  0.1110 -0.0912
 8613SOL     OW26737   2.779   2.821   5.872 -0.7137  0.2074  0.5175
 8613SOL    HW126738   2.735   2.808   5.961  0.8421 -1.6320  1.0799
 8613SOL    HW226739   2.786   2.919   5.852 -1.3397  0.6439  2.2940
 8614SOL     OW26740   0.104   4.568   3.881  0.5081 -0.0418  0.1134
 8614SOL    HW126741   0.055   4.559   3.794 -1.0761  0.5497  0.8981
 8614SOL    HW226742   0.186   4.623   3.867  1.8461 -2.2446 -1.5353
 8615SOL     OW26743   4.373   2.406   2.165  0.0161 -0.1479  0.6827
 8615SOL    HW126744   4.421   2.357   2.238  1.3377 -3.9403 -2.4253
 8615SOL    HW226745   4.435   2.474   2.125  0.1465  0.1930  1.4380
 8616SOL     OW26746   2.703   2.988   0.764 -0.3606  1.0406 -0.8677
 8616SOL    HW126747   2.741   3.081   0.757  1.5444  0.2253 -2.4534
 8616SOL    HW226748   2.769   2.928   0.809 -2.4200  0.7940  2.0790
 8617SOL     OW26749   5.591   0.804   3.949  0.1786  0.1863  0.4039
 8617SOL    HW126750   5.545   0.802   4.038 -1.6179  0.4088 -0.4818
 8617SOL    HW226751   5.614   0.711   3.920 -0.2479  0.0210  0.5961
 8618SOL     OW26752   2.674   4.387   6.952 -0.2082  0.8547 -0.0370
 8618SOL    HW126753   2.773   4.393   6.938 -0.3409  0.4318 -1.2281
 8618SOL    HW226754   2.627   4.410   6.867 -1.1422  0.9082  0.4805
 8619SOL     OW26755   3.662   5.274   3.716  0.8206  0.5727 -0.2746
 8619SOL    HW126756   3.704   5.317   3.796 -1.2089  1.3067  0.4777
 8619SOL    HW226757   3.659   5.338   3.640  4.3225 -0.6690 -1.6327
 8620SOL     OW26758   2.742   3.716   1.749 -0.1374 -0.5298  0.1659
 8620SOL    HW126759   2.656   3.711   1.699  0.2149  1.7013 -0.7891
 8620SOL    HW226760   2.790   3.628   1.743 -1.1012 -0.9708 -1.6031
 8621SOL     OW26761   3.388   2.904   5.748  0.3821  0.0339 -0.2759
 8621SOL    HW126762   3.396   2.946   5.838 -0.9172  0.6914 -0.4535
 8621SOL    HW226763   3.383   2.804   5.758  1.1783  0.0441  0.2975
 8622SOL     OW26764   2.987   0.979   6.371 -0.0757  0.1274 -0.2174
 8622SOL    HW126765   3.054   1.050   6.348  3.0274 -2.0834  1.1439
 8622SOL    HW226766   2.994   0.905   6.305  1.3471 -1.5755  1.6865
 8623SOL     OW26767   6.713   0.714   3.764  0.0666 -0.0140  0.5178
 8623SOL    HW126768   6.628   0.767   3.756  1.5516  2.3512 -0.6909
 8623SOL    HW226769   6.773   0.758   3.830  1.3169 -0.1980 -0.4596
 8624SOL     OW26770   0.595   6.292   6.540 -0.3368 -0.7855  0.0177
 8624SOL    HW126771   0.679   6.318   6.588 -0.9656  0.1433  0.6333
 8624SOL    HW226772   0.594   6.192   6.529  1.6488 -0.7198 -1.5435
 8625SOL     OW26773   6.019   4.662   5.445 -0.3751  0.5194 -0.5894
 8625SOL    HW126774   6.026   4.581   5.503  3.1772 -0.5641 -2.2367
 8625SOL    HW226775   5.989   4.634   5.354  0.8615  1.0073 -1.1627
 8626SOL     OW26776   6.052   5.882   6.759  0.1076 -0.4966  0.2442
 8626SOL    HW126777   6.047   5.917   6.666 -0.6367 -1.0916  0.0575
 8626SOL    HW226778   6.060   5.959   6.823 -2.3528  0.1185 -0.0858
 8627SOL     OW26779   4.907   6.420   6.777  0.0476  0.2635  0.1412
 8627SOL    HW126780   4.856   6.505   6.761 -0.4754  0.1991  1.3742
 8627SOL    HW226781   4.974   6.407   6.703 -0.1382  1.5348 -0.2777
 8628SOL     OW26782   5.323   5.565   0.921  0.3372 -0.2672 -0.7234
 8628SOL    HW126783   5.327   5.652   0.874 -1.2484 -0.6611 -1.6839
 8628SOL    HW226784   5.354   5.492   0.861  0.2164 -0.5419 -0.4603
 8629SOL     OW26785   5.997   1.655   5.636  0.2217 -0.4491 -0.3488
 8629SOL    HW126786   6.094   1.632   5.635  0.6253  1.1292 -0.3807
 8629SOL    HW226787   5.972   1.693   5.725  0.0122  0.5635 -0.8152
 8630SOL     OW26788   4.962   0.570   5.100 -0.8806 -0.1640 -0.1646
 8630SOL    HW126789   4.993   0.497   5.039 -1.9273  2.1035 -3.7263
 8630SOL    HW226790   4.918   0.530   5.180  1.1360 -3.3590 -0.4479
 8631SOL     OW26791   0.469   1.142   4.095 -0.5965 -0.1788  0.7141
 8631SOL    HW126792   0.481   1.178   4.187  1.4464  1.5300 -0.1382
 8631SOL    HW226793   0.512   1.052   4.088  0.2484  0.1822  1.1457
 8632SOL     OW26794   2.039   4.603   0.607 -0.2036  0.4443  0.2656
 8632SOL    HW126795   1.940   4.601   0.593 -0.0840 -0.5764 -0.5037
 8632SOL    HW226796   2.066   4.529   0.669  0.0523  0.8913  0.6974
 8633SOL     OW26797   1.211   5.892   2.554  0.0254 -0.3614 -0.3786
 8633SOL    HW126798   1.211   5.977   2.608  0.5700  0.9245 -2.2928
 8633SOL    HW226799   1.157   5.906   2.471  0.6008 -1.7149 -1.0073
 8634SOL     OW26800   4.049   5.668   6.409  0.0034 -0.5789  0.3678
 8634SOL    HW126801   4.126   5.686   6.348  0.1036 -1.2895  0.2676
 8634SOL    HW226802   4.042   5.569   6.424 -2.4272 -0.8206 -1.6708
 8635SOL     OW26803   5.414   2.871   0.949  0.2751  0.3986  0.0218
 8635SOL    HW126804   5.513   2.861   0.960  0.1242 -0.5489  0.7158
 8635SOL    HW226805   5.392   2.875   0.851  0.9508  0.0418 -0.1569
 8636SOL     OW26806   4.795   5.161   3.342 -0.4160  0.7207 -0.1512
 8636SOL    HW126807   4.726   5.209   3.288  0.3789  0.9853 -0.9460
 8636SOL    HW226808   4.792   5.064   3.321 -1.3628  0.5360  0.7336
 8637SOL     OW26809   5.052   1.441   1.409 -0.1096 -0.5211 -0.4952
 8637SOL    HW126810   5.113   1.379   1.360 -0.3440 -0.3848 -0.9727
 8637SOL    HW226811   5.004   1.391   1.481  2.0642 -0.1829  1.2635
 8638SOL     OW26812   6.368   1.332   3.461  0.3272  0.2684  0.0268
 8638SOL    HW126813   6.448   1.383   3.430  0.0448  0.9680  0.4301
 8638SOL    HW226814   6.290   1.352   3.401 -0.2132  1.6006  1.0974
 8639SOL     OW26815   4.952   4.753   3.486 -0.1531 -0.1903 -0.0839
 8639SOL    HW126816   4.908   4.667   3.460  0.5147 -0.8277  0.8303
 8639SOL    HW226817   4.990   4.797   3.405 -2.1795  0.2368 -0.8631
 8640SOL     OW26818   2.281   5.059   3.253  0.2374 -0.0475  1.0964
 8640SOL    HW126819   2.201   5.052   3.312 -2.5225  2.5326 -1.9281
 8640SOL    HW226820   2.311   4.968   3.226 -1.6241 -1.1130  2.4333
 8641SOL     OW26821   2.133   3.631   6.481 -0.1959 -0.2244 -0.0087
 8641SOL    HW126822   2.133   3.535   6.452  1.4747 -0.1952 -0.1541
 8641SOL    HW226823   2.187   3.686   6.417 -1.1996  0.8514  0.0292
 8642SOL     OW26824   3.957   1.702   3.926  0.0014  0.1290 -0.2061
 8642SOL    HW126825   3.884   1.719   3.859  0.7941  1.0211 -0.8682
 8642SOL    HW226826   4.002   1.788   3.949  0.1302 -0.2577  1.0482
 8643SOL     OW26827   3.860   6.312   5.904 -0.1323 -0.3670 -0.4047
 8643SOL    HW126828   3.820   6.229   5.944  2.0388 -1.6754 -0.7747
 8643SOL    HW226829   3.915   6.359   5.973 -4.2710  3.0028  0.9682
 8644SOL     OW26830   2.618   4.133   5.933 -0.1495  0.6073 -0.2240
 8644SOL    HW126831   2.678   4.171   6.004  0.0311 -0.5651  0.2724
 8644SOL    HW226832   2.674   4.108   5.853  0.1106 -0.8965  0.4090
 8645SOL     OW26833   3.339   4.610   0.536  0.1483  0.1909  0.1332
 8645SOL    HW126834   3.402   4.533   0.528  0.0528  0.1143  0.1183
 8645SOL    HW226835   3.312   4.621   0.632  0.1658  0.2081  0.1360
 8646SOL     OW26836   3.253   3.033   4.403 -0.0683  0.6784 -0.0141
 8646SOL    HW126837   3.202   2.991   4.478  0.5936  0.2522  0.2079
 8646SOL    HW226838   3.189   3.071   4.337 -0.7055 -0.5949 -0.1698
 8647SOL     OW26839   6.323   2.912   4.598 -0.0919  0.3260  0.1097
 8647SOL    HW126840   6.233   2.908   4.642  0.1704  1.6294  0.8080
 8647SOL    HW226841   6.388   2.857   4.650 -0.2192  0.3378  0.2809
 8648SOL     OW26842   6.348   4.734   3.376 -0.1220  0.3250  0.5843
 8648SOL    HW126843   6.263   4.770   3.336 -0.7120 -0.6651  0.9024
 8648SOL    HW226844   6.328   4.697   3.467  0.6766  0.1858  0.7033
 8649SOL     OW26845   5.306   4.264   5.369  0.1924  0.2148  0.2498
 8649SOL    HW126846   5.281   4.318   5.449  0.9008  0.7920  0.0934
 8649SOL    HW226847   5.319   4.324   5.290  2.2748  0.0249  0.3832
 8650SOL     OW26848   5.526   6.961   3.051  0.4759  0.5401 -0.5986
 8650SOL    HW126849   5.487   7.029   2.988  1.2101  2.4116  0.8727
 8650SOL    HW226850   5.619   6.988   3.076  0.8222 -1.0784 -0.0120
 8651SOL     OW26851   0.686   5.311   4.080 -0.3238 -0.1141 -0.4954
 8651SOL    HW126852   0.765   5.250   4.086 -1.2492 -1.1846  2.0225
 8651SOL    HW226853   0.716   5.403   4.055  1.8606 -0.2724  1.2925
 8652SOL     OW26854   0.222   4.711   3.645  0.3078  0.1332 -0.3256
 8652SOL    HW126855   0.312   4.755   3.643  0.9266 -0.8862  2.1810
 8652SOL    HW226856   0.215   4.646   3.570  0.9395  1.4950 -1.6161
 8653SOL     OW26857   5.274   3.916   4.067 -0.1887 -0.1771 -0.3998
 8653SOL    HW126858   5.186   3.919   4.116 -0.7850  0.1545 -1.4535
 8653SOL    HW226859   5.262   3.956   3.977  1.3601  1.0511 -0.0942
 8654SOL     OW26860   0.591   2.524   5.984  0.4238 -0.1169  0.3083
 8654SOL    HW126861   0.612   2.449   6.047  0.4267 -0.5222 -0.1645
 8654SOL    HW226862   0.669   2.538   5.923  0.0903 -0.2921 -0.1569
 8655SOL     OW26863   3.994   0.730   5.551 -0.2245  0.7738  0.2561
 8655SOL    HW126864   3.895   0.735   5.535 -0.2276  0.8753  0.3028
 8655SOL    HW226865   4.032   0.823   5.549  0.0163  0.6591 -0.6842
 8656SOL     OW26866   3.098   6.069   4.908 -0.3652 -0.5748 -0.0798
 8656SOL    HW126867   3.101   6.161   4.870  0.9182 -1.3995 -2.1573
 8656SOL    HW226868   3.181   6.050   4.959 -1.5520  0.0893  2.2556
 8657SOL     OW26869   1.925   0.053   0.171  0.3537 -0.8675 -0.0683
 8657SOL    HW126870   1.909   0.054   0.270  0.2797 -0.8929 -0.0801
 8657SOL    HW226871   1.937   0.147   0.138 -0.6602 -0.7732 -0.2063
 8658SOL     OW26872   3.098   0.922   0.064  0.3959 -0.1936  0.6592
 8658SOL    HW126873   3.139   1.010   0.085  1.0012 -0.4194  0.4311
 8658SOL    HW226874   3.016   0.935   0.008 -0.4242  0.3212  1.9284
 8659SOL     OW26875   5.719   3.403   0.985  0.2050  0.0098  0.3832
 8659SOL    HW126876   5.762   3.406   0.895  2.2592 -0.3318  1.2928
 8659SOL    HW226877   5.751   3.481   1.040  0.1760 -0.6126  1.3017
 8660SOL     OW26878   2.769   0.971   5.333  0.0800 -0.2538  0.2100
 8660SOL    HW126879   2.843   0.935   5.277 -0.9204  0.5090 -1.6926
 8660SOL    HW226880   2.759   0.915   5.415  0.4048 -2.6060 -1.2578
 8661SOL     OW26881   4.351   2.035   6.352 -0.5206 -0.0615 -0.4186
 8661SOL    HW126882   4.434   2.061   6.302  1.4006 -2.0964  1.4743
 8661SOL    HW226883   4.338   2.098   6.429  1.5074 -1.7622  1.4581
 8662SOL     OW26884   3.557   3.237   6.398 -0.1842  0.4192 -0.5568
 8662SOL    HW126885   3.517   3.310   6.452 -0.6854 -0.9217  0.9713
 8662SOL    HW226886   3.496   3.213   6.322 -1.8578 -0.8546  1.0930
 8663SOL     OW26887   4.874   2.985   6.838  0.2796 -0.0265  0.6867
 8663SOL    HW126888   4.789   2.990   6.786  0.8976 -0.0821 -0.3530
 8663SOL    HW226889   4.874   2.900   6.892 -0.7359  0.4439  1.4650
 8664SOL     OW26890   4.715   1.829   4.493 -0.0707  0.0668  0.6573
 8664SOL    HW126891   4.723   1.749   4.553  1.4438  0.6905  1.3394
 8664SOL    HW226892   4.752   1.806   4.402  0.9208  0.1414  1.0276
 8665SOL     OW26893   3.705   2.940   2.832 -0.6207  0.1569 -0.0536
 8665SOL    HW126894   3.770   2.948   2.757 -1.3923  0.2761 -0.7242
 8665SOL    HW226895   3.635   3.010   2.823 -1.1115 -0.2682  0.3915
 8666SOL     OW26896   6.694   4.815   4.839 -0.0344  0.2615 -0.1492
 8666SOL    HW126897   6.652   4.725   4.822 -0.5295  0.4791 -0.1150
 8666SOL    HW226898   6.767   4.831   4.773  0.9164 -0.6969  0.6238
 8667SOL     OW26899   0.215   2.110   0.904  0.2184 -0.3457  0.4946
 8667SOL    HW126900   0.265   2.146   0.983 -1.8802  0.6115  1.4648
 8667SOL    HW226901   0.159   2.032   0.933  0.0686 -0.5239 -0.2507
 8668SOL     OW26902   5.126   2.235   0.718 -0.2223  0.2272  0.1565
 8668SOL    HW126903   5.189   2.246   0.794 -0.7392  2.2296  0.3719
 8668SOL    HW226904   5.177   2.221   0.633  0.4340 -0.0526  0.5974
 8669SOL     OW26905   3.047   4.156   5.692  0.5255 -0.2801 -0.0538
 8669SOL    HW126906   3.106   4.201   5.625  2.3940 -3.3664 -0.6830
 8669SOL    HW226907   3.073   4.183   5.784  1.4712  0.0422 -0.4137
 8670SOL     OW26908   6.460   5.427   5.076  0.1004 -0.3693  0.6676
 8670SOL    HW126909   6.468   5.525   5.056  0.1811 -0.6109 -0.5468
 8670SOL    HW226910   6.381   5.412   5.135 -0.8550  0.2761 -0.3981
 8671SOL     OW26911   0.992   1.163   0.891  0.5003  0.0102 -0.5065
 8671SOL    HW126912   1.001   1.067   0.865  1.9870  0.3416 -1.3548
 8671SOL    HW226913   0.935   1.211   0.825 -2.0053 -0.6622  1.0407
 8672SOL     OW26914   3.835   1.750   1.455  0.2361  0.5177  0.2957
 8672SOL    HW126915   3.924   1.717   1.423 -0.4776 -0.4135 -0.8226
 8672SOL    HW226916   3.774   1.672   1.470 -0.6920  1.1852  0.1021
 8673SOL     OW26917   3.296   5.711   2.193 -0.1642 -0.3732 -0.3433
 8673SOL    HW126918   3.306   5.809   2.212  0.5912 -0.4569 -0.3196
 8673SOL    HW226919   3.308   5.660   2.278  1.1303 -0.6024 -0.6608
 8674SOL     OW26920   2.372   2.036   6.146 -0.5252 -0.4112  0.1230
 8674SOL    HW126921   2.309   1.959   6.150 -1.2394  0.1461 -0.2232
 8674SOL    HW226922   2.358   2.087   6.061  0.4320 -0.3120  0.0136
 8675SOL     OW26923   5.753   0.396   5.230 -0.1873  0.2911  0.7624
 8675SOL    HW126924   5.770   0.342   5.312  0.4408 -0.3642  0.2004
 8675SOL    HW226925   5.669   0.364   5.185  0.9150 -1.1733 -0.3304
 8676SOL     OW26926   5.370   0.435   3.511 -0.1055  0.3600  0.0893
 8676SOL    HW126927   5.375   0.510   3.445  0.6587  0.6353  0.4516
 8676SOL    HW226928   5.277   0.429   3.548 -0.7841 -0.3466 -1.6212
 8677SOL     OW26929   5.877   0.920   3.882 -0.7834  0.3305  0.0297
 8677SOL    HW126930   5.820   0.884   3.956 -4.0128  2.6210 -1.1065
 8677SOL    HW226931   5.859   0.870   3.798 -0.8193  0.8018 -0.2493
 8678SOL     OW26932   1.194   6.348   0.152 -0.0995  0.7527 -0.1240
 8678SOL    HW126933   1.190   6.283   0.229 -0.4888  0.3243 -0.4988
 8678SOL    HW226934   1.282   6.395   0.153 -0.1603  0.8749  0.6836
 8679SOL     OW26935   4.726   1.482   4.592  0.5114 -0.6057  0.6660
 8679SOL    HW126936   4.820   1.498   4.622  0.2922  0.0486  1.0325
 8679SOL    HW226937   4.667   1.554   4.628  0.1628  0.0164 -1.0577
 8680SOL     OW26938   5.337   4.094   0.245 -0.1137 -0.2519 -0.3184
 8680SOL    HW126939   5.427   4.134   0.232  1.4159 -1.9746  3.4689
 8680SOL    HW226940   5.312   4.099   0.342 -4.7713  1.3097 -1.3363
 8681SOL     OW26941   3.207   6.789   5.700  0.0446  0.2369  0.1505
 8681SOL    HW126942   3.175   6.875   5.659 -0.3881 -0.5955 -1.3603
 8681SOL    HW226943   3.201   6.796   5.799  0.0185  1.9427  0.0729
 8682SOL     OW26944   0.410   3.354   2.328 -0.3146  0.1928 -0.0090
 8682SOL    HW126945   0.430   3.438   2.278  0.6855  0.2855  0.5287
 8682SOL    HW226946   0.380   3.376   2.421  2.4875 -0.0428  1.0440
 8683SOL     OW26947   6.492   2.685   2.958  0.4850 -0.0491 -0.5422
 8683SOL    HW126948   6.569   2.655   2.902  1.3057 -0.2755  0.6721
 8683SOL    HW226949   6.473   2.617   3.029 -0.6991  0.1137 -0.6740
 8684SOL     OW26950   4.478   1.935   4.692  0.3565  1.1743 -0.0829
 8684SOL    HW126951   4.392   1.980   4.714  0.4398  1.0408  0.5202
 8684SOL    HW226952   4.516   1.974   4.608 -1.2833 -0.1132 -1.5053
 8685SOL     OW26953   2.032   4.540   6.932  0.0583 -0.1403  0.8551
 8685SOL    HW126954   2.098   4.555   7.005  1.6945 -0.3170 -0.5223
 8685SOL    HW226955   2.077   4.493   6.855 -1.8050 -0.7422  0.0654
 8686SOL     OW26956   6.875   5.250   1.305  0.1470  0.4573  0.7937
 8686SOL    HW126957   6.794   5.200   1.273  0.1057  0.7450  0.4427
 8686SOL    HW226958   6.881   5.244   1.404  0.2617 -0.4307  0.7431
 8687SOL     OW26959   2.746   1.568   3.115  0.1934  0.4875  0.1173
 8687SOL    HW126960   2.783   1.599   3.203  0.8867 -0.9735  0.3692
 8687SOL    HW226961   2.820   1.534   3.058 -0.5424 -0.9376 -0.0201
 8688SOL     OW26962   1.144   3.872   5.794  0.0690  0.2027 -0.6051
 8688SOL    HW126963   1.078   3.835   5.729 -0.9284 -0.9200  0.9587
 8688SOL    HW226964   1.227   3.815   5.793  0.7826  1.2009 -2.0647
 8689SOL     OW26965   0.047   6.668   1.775  0.4222  0.6107 -0.1318
 8689SOL    HW126966  -0.009   6.736   1.726  0.9686  0.8929 -0.3739
 8689SOL    HW226967   0.129   6.712   1.811  1.0173 -0.0164 -0.6939
 8690SOL     OW26968   1.406   1.866   4.525  0.1921 -0.0767 -0.6789
 8690SOL    HW126969   1.309   1.889   4.516 -0.0092 -1.2184 -1.7456
 8690SOL    HW226970   1.443   1.908   4.608 -1.2220  0.3386 -0.2329
 8691SOL     OW26971   2.645   2.054   2.176 -0.8310  0.1747 -0.4473
 8691SOL    HW126972   2.681   2.144   2.151 -1.5833  1.1751  1.8439
 8691SOL    HW226973   2.582   2.022   2.105  0.0460  1.0534 -1.6630
 8692SOL     OW26974   6.961   0.790   0.637 -0.2022  0.1004 -0.0041
 8692SOL    HW126975   7.037   0.773   0.574 -1.3258  0.5517 -1.5221
 8692SOL    HW226976   6.937   0.887   0.635 -0.4425  0.0712  0.9247
 8693SOL     OW26977   0.423   3.564   0.648  0.1242 -0.1501  0.0868
 8693SOL    HW126978   0.397   3.545   0.554 -0.2353 -1.0090  0.3439
 8693SOL    HW226979   0.341   3.579   0.703  0.3973  2.3700 -0.1125
 8694SOL     OW26980   4.224   6.388   1.651 -0.5321 -0.2217 -0.5273
 8694SOL    HW126981   4.211   6.471   1.597 -0.9109  0.2808  0.3204
 8694SOL    HW226982   4.173   6.395   1.737  1.2017 -0.3664  0.5664
 8695SOL     OW26983   1.628   3.258   6.677  0.1964 -0.0645  0.0000
 8695SOL    HW126984   1.717   3.292   6.650  0.3435 -1.7939 -2.0013
 8695SOL    HW226985   1.557   3.298   6.618 -0.2559  0.6753  1.0316
 8696SOL     OW26986   4.163   5.183   6.016  0.5627  0.3557  0.2513
 8696SOL    HW126987   4.137   5.237   6.096  0.3432  0.1052  0.3497
 8696SOL    HW226988   4.180   5.088   6.044 -0.4599  0.0390 -0.1529
 8697SOL     OW26989   1.680   4.005   6.648  0.1222 -0.0779 -0.7039
 8697SOL    HW126990   1.623   3.974   6.572 -0.3102 -0.7988 -0.1002
 8697SOL    HW226991   1.700   3.928   6.708 -0.4412  0.6848  0.4989
 8698SOL     OW26992   0.209   4.043   6.437 -0.2206  0.4256 -0.0518
 8698SOL    HW126993   0.168   4.048   6.528 -2.8334 -0.0996 -1.1059
 8698SOL    HW226994   0.160   3.974   6.383  1.6338  0.3238 -1.6953
 8699SOL     OW26995   2.182   6.719   0.412 -0.0445 -0.0824 -0.9465
 8699SOL    HW126996   2.240   6.660   0.355  0.9817  0.8568 -0.9100
 8699SOL    HW226997   2.147   6.667   0.489  2.1428 -0.2804 -0.0218
 8700SOL     OW26998   6.384   1.357   0.355  0.2151  0.2517  0.2471
 8700SOL    HW126999   6.460   1.368   0.419 -0.8934 -0.3470  1.7213
 8700SOL    HW227000   6.411   1.291   0.284 -0.4819 -4.0535  3.5634
 8701SOL     OW27001   6.318   3.463   6.309  1.0894  0.5591  0.0497
 8701SOL    HW127002   6.346   3.520   6.387  1.4723 -0.7656  0.9075
 8701SOL    HW227003   6.234   3.415   6.332  0.7429  0.7963 -0.6906
 8702SOL     OW27004   2.313   5.820   1.487  0.0645 -0.1696  0.1709
 8702SOL    HW127005   2.290   5.724   1.476  0.2501 -0.3905  1.5237
 8702SOL    HW227006   2.233   5.876   1.467  0.0056 -0.5771 -0.7951
 8703SOL     OW27007   1.515   0.996   2.506  0.0257 -0.6798  0.6582
 8703SOL    HW127008   1.498   0.942   2.588 -1.5313 -0.5054  0.4747
 8703SOL    HW227009   1.428   1.024   2.465  0.7776 -0.1921 -0.6799
 8704SOL     OW27010   5.660   1.416   5.605  0.2204  0.2935 -0.1626
 8704SOL    HW127011   5.731   1.445   5.540 -1.0118 -0.2319 -1.8138
 8704SOL    HW227012   5.702   1.397   5.693  2.2120 -0.3572 -1.1798
 8705SOL     OW27013   4.212   4.042   5.577 -0.1287  0.2354 -0.4334
 8705SOL    HW127014   4.278   4.025   5.504  2.4218  0.0772  1.7426
 8705SOL    HW227015   4.251   4.109   5.641 -2.7274  1.2049  0.2421
 8706SOL     OW27016   0.228   6.810   5.989  0.2171 -0.1829  0.1623
 8706SOL    HW127017   0.272   6.826   6.077  0.3516  1.2405 -0.1252
 8706SOL    HW227018   0.180   6.893   5.960 -0.5912 -0.9188 -0.6843
 8707SOL     OW27019   3.497   0.021   6.181  0.1270 -0.4191 -0.4907
 8707SOL    HW127020   3.399   0.035   6.169 -0.0413  0.0483  1.2654
 8707SOL    HW227021   3.535  -0.015   6.095 -1.2496  0.9914 -1.7601
 8708SOL     OW27022   1.451   5.295   1.423  0.1561  0.3745 -0.0690
 8708SOL    HW127023   1.432   5.293   1.324 -1.1955  1.0237  0.1490
 8708SOL    HW227024   1.543   5.330   1.439  1.2847 -1.9090 -1.1822
 8709SOL     OW27025   0.252   6.888   3.965 -0.6224  0.7815  0.3405
 8709SOL    HW127026   0.262   6.904   3.867 -4.0810 -1.1592 -0.5242
 8709SOL    HW227027   0.173   6.939   3.999 -0.3322  0.3218  1.7706
 8710SOL     OW27028   4.558   1.797   6.291  0.3132 -0.4745 -0.1760
 8710SOL    HW127029   4.518   1.763   6.206  0.8009 -0.3045 -0.4744
 8710SOL    HW227030   4.631   1.862   6.270  0.9138 -0.9572  0.3595
 8711SOL     OW27031   2.211   1.282   4.389 -0.0364 -0.3318  0.5679
 8711SOL    HW127032   2.122   1.304   4.350  0.0923  0.6884  0.8170
 8711SOL    HW227033   2.200   1.262   4.487 -0.0356 -0.5945  0.5166
 8712SOL     OW27034   2.705   4.672   5.302 -0.3369  0.0844 -0.0369
 8712SOL    HW127035   2.755   4.602   5.353 -3.6762 -2.2288  0.3896
 8712SOL    HW227036   2.725   4.663   5.204 -0.4149 -1.2667  0.0467
 8713SOL     OW27037   6.148   2.509   6.964 -0.6026 -0.2769 -0.0119
 8713SOL    HW127038   6.059   2.494   6.922 -0.6235 -1.1346  0.3042
 8713SOL    HW227039   6.199   2.422   6.965  1.2214  0.6390 -2.3663
 8714SOL     OW27040   1.552   1.627   1.746 -0.4320  0.0274  0.0410
 8714SOL    HW127041   1.503   1.574   1.815  0.5794  0.7780  1.3922
 8714SOL    HW227042   1.523   1.723   1.751  2.2569  0.8761  2.0789
 8715SOL     OW27043   6.519   3.362   0.747 -0.1252 -0.1887  0.9168
 8715SOL    HW127044   6.513   3.434   0.678  0.7260 -0.7399  0.2569
 8715SOL    HW227045   6.437   3.305   0.742 -0.6336  0.5064  1.1982
 8716SOL     OW27046   3.633   1.480   0.040  0.0015 -0.0220  0.4253
 8716SOL    HW127047   3.628   1.447  -0.054  0.2663  0.5772  0.1927
 8716SOL    HW227048   3.722   1.523   0.055  0.2992 -0.8755  1.2110
 8717SOL     OW27049   3.932   3.122   4.070  0.3830  0.1064  0.1400
 8717SOL    HW127050   3.891   3.057   4.006  0.1373 -0.3408  0.7557
 8717SOL    HW227051   4.003   3.174   4.022 -1.5025  1.5783 -1.2256
 8718SOL     OW27052   2.138   5.752   5.146  0.4661  0.2036  0.4565
 8718SOL    HW127053   2.164   5.655   5.143  1.0334  0.3728 -1.2435
 8718SOL    HW227054   2.108   5.781   5.056 -3.0598  0.7813  1.6596
 8719SOL     OW27055   6.254   5.167   0.072 -0.0366  0.3417 -0.5686
 8719SOL    HW127056   6.211   5.181   0.161  1.8438  0.5954  0.3375
 8719SOL    HW227057   6.295   5.252   0.041  0.9161 -0.1823 -0.7936
 8720SOL     OW27058   3.712   2.179   0.713  0.1307  0.3009  0.4300
 8720SOL    HW127059   3.615   2.194   0.734  0.5240  0.6917  2.1392
 8720SOL    HW227060   3.721   2.099   0.655 -1.1185 -0.6976  1.5480
 8721SOL     OW27061   2.849   2.255   6.365 -0.0109 -0.2548 -0.2985
 8721SOL    HW127062   2.769   2.227   6.312  0.4913  0.7127 -1.6230
 8721SOL    HW227063   2.897   2.328   6.317  3.0928 -2.4419 -0.8392
 8722SOL     OW27064   6.624   3.273   4.081 -0.5080  0.1732  0.0627
 8722SOL    HW127065   6.605   3.176   4.066  1.6786 -0.0543 -1.7527
 8722SOL    HW227066   6.723   3.287   4.090 -0.7362  2.2988 -0.1687
 8723SOL     OW27067   5.675   2.791   2.661  0.4114  0.3645  0.3963
 8723SOL    HW127068   5.638   2.747   2.579  0.2437  1.6879 -0.2700
 8723SOL    HW227069   5.766   2.755   2.679  1.3307  1.4959 -1.6131
 8724SOL     OW27070   2.942   3.799   0.119  0.0373  0.3486  0.5914
 8724SOL    HW127071   3.032   3.839   0.099 -0.0776 -0.2382 -1.3175
 8724SOL    HW227072   2.954   3.715   0.172  0.8699 -1.0415 -1.6524
 8725SOL     OW27073   0.517   0.144   6.339 -0.2013  0.3135  0.3879
 8725SOL    HW127074   0.456   0.109   6.410 -1.3332  0.1616 -0.6429
 8725SOL    HW227075   0.605   0.096   6.343 -1.1792 -1.5784 -0.0087
 8726SOL     OW27076   6.714   1.734   2.837  0.4784  0.3592 -0.3637
 8726SOL    HW127077   6.660   1.749   2.754 -0.1508 -1.0674 -0.2247
 8726SOL    HW227078   6.704   1.814   2.897 -0.1204  0.8350 -1.0715
 8727SOL     OW27079   6.296   6.360   6.306  0.2011  0.0113  0.3767
 8727SOL    HW127080   6.371   6.420   6.331  0.9667 -0.6169 -0.3460
 8727SOL    HW227081   6.272   6.374   6.209  0.7272 -1.1640  0.0558
 8728SOL     OW27082   0.937   3.163   6.040  0.3760 -0.3635  0.4182
 8728SOL    HW127083   0.874   3.216   6.097 -0.7133 -1.1104 -0.0559
 8728SOL    HW227084   1.030   3.195   6.055 -0.3162  2.3215 -0.5404
 8729SOL     OW27085   4.522   0.636   2.767 -0.1884 -0.1035  0.1068
 8729SOL    HW127086   4.486   0.563   2.825  0.5726 -0.1318  0.5487
 8729SOL    HW227087   4.621   0.628   2.761  0.1021  1.8409  1.4772
 8730SOL     OW27088   3.839   5.347   0.810  0.2383 -0.4971 -0.5563
 8730SOL    HW127089   3.848   5.271   0.747 -2.9771 -0.7211 -0.8934
 8730SOL    HW227090   3.752   5.340   0.860 -0.1060  2.8022 -0.4478
 8731SOL     OW27091   2.131   6.814   4.283  0.1909 -0.2891 -0.0293
 8731SOL    HW127092   2.098   6.722   4.261  0.7766 -0.4662 -0.1978
 8731SOL    HW227093   2.209   6.835   4.225  0.0988  0.2933  0.0574
 8732SOL     OW27094   6.429   3.081   4.361 -0.1507  0.2112  0.3113
 8732SOL    HW127095   6.444   3.008   4.428 -1.2015 -0.2914  0.0180
 8732SOL    HW227096   6.438   3.043   4.269  1.6790  0.9792  0.1207
 8733SOL     OW27097   4.133   4.473   6.274 -0.1697  0.2911 -0.5145
 8733SOL    HW127098   4.163   4.567   6.288  1.7479 -0.6049  2.3237
 8733SOL    HW227099   4.055   4.453   6.334  1.2025 -0.6226  1.0424
 8734SOL     OW27100   2.032   4.715   4.664 -0.2764  0.2982 -0.0746
 8734SOL    HW127101   2.061   4.650   4.594  0.5620 -0.9157  1.3312
 8734SOL    HW227102   1.933   4.712   4.673 -0.4240  0.6799 -1.3809
 8735SOL     OW27103   2.840   6.837   2.285 -0.3723 -0.0957 -0.1590
 8735SOL    HW127104   2.867   6.780   2.208  0.3564  0.3189 -0.2140
 8735SOL    HW227105   2.901   6.915   2.292  0.0316 -0.5169  1.2999
 8736SOL     OW27106   6.688   5.118   2.647  0.5030  0.0428  0.2598
 8736SOL    HW127107   6.725   5.066   2.571  1.4530  0.8578  0.1445
 8736SOL    HW227108   6.714   5.214   2.638 -2.3377  0.8641 -0.2706
 8737SOL     OW27109   6.486   0.629   0.552 -0.0343  0.3835  0.3221
 8737SOL    HW127110   6.403   0.671   0.588 -1.0104 -0.6764 -0.6150
 8737SOL    HW227111   6.515   0.679   0.470 -1.2309 -0.7242 -0.8297
 8738SOL     OW27112   4.382   1.995   1.951  0.3037 -0.2129  0.4154
 8738SOL    HW127113   4.452   2.017   2.019 -1.4739  1.0448  1.9403
 8738SOL    HW227114   4.295   1.978   1.997 -0.5173 -1.4179 -1.4450
 8739SOL     OW27115   6.872   0.264   2.996  0.1085 -0.5946 -0.1497
 8739SOL    HW127116   6.953   0.319   2.978  0.3125 -0.6260  0.6221
 8739SOL    HW227117   6.887   0.170   2.965  0.1375 -0.4637 -0.5437
 8740SOL     OW27118   6.935   6.919   1.918  0.3516  0.2390  0.6932
 8740SOL    HW127119   6.916   6.868   2.002  2.1315  0.4265  1.2559
 8740SOL    HW227120   6.854   6.919   1.860 -0.2453 -1.7255  1.4454
 8741SOL     OW27121   3.610   0.227   4.391  0.0867 -0.4280 -0.3310
 8741SOL    HW127122   3.661   0.280   4.323  0.0105 -1.6924 -1.4237
 8741SOL    HW227123   3.512   0.246   4.381  0.0867 -0.5109 -0.5107
 8742SOL     OW27124   4.012   4.456   0.883 -0.6307  0.2048  1.0507
 8742SOL    HW127125   4.077   4.494   0.817  0.2292 -1.0837  1.1255
 8742SOL    HW227126   4.047   4.470   0.976  1.0337 -2.9285  1.0247
 8743SOL     OW27127   2.851   6.454   4.257  0.6448 -0.7072  0.1519
 8743SOL    HW127128   2.907   6.536   4.266 -0.6772  0.1117  1.2023
 8743SOL    HW227129   2.829   6.439   4.161  0.4141  0.5032  0.0042
 8744SOL     OW27130   6.870   2.744   5.195  0.7067 -0.5063  0.5936
 8744SOL    HW127131   6.843   2.655   5.160  0.7333 -0.2811 -0.0143
 8744SOL    HW227132   6.789   2.797   5.220  0.5691  0.0731 -0.9925
 8745SOL     OW27133   0.885   2.389   2.183 -0.5298  0.0330 -0.0730
 8745SOL    HW127134   0.901   2.443   2.100 -1.3681  0.3501 -0.0376
 8745SOL    HW227135   0.787   2.389   2.204 -0.7782 -2.7380 -0.9081
 8746SOL     OW27136   6.762   2.392   1.174  0.2903  0.2236 -0.2743
 8746SOL    HW127137   6.814   2.307   1.179  0.3173  0.2997  1.5742
 8746SOL    HW227138   6.822   2.467   1.148  1.1247  0.2808  1.6610
 8747SOL     OW27139   3.633   0.086   4.152 -0.2892 -0.2302  0.0926
 8747SOL    HW127140   3.642   0.129   4.242 -1.7293  1.1214 -0.3698
 8747SOL    HW227141   3.537   0.068   4.133  0.1356 -2.1450 -0.4710
 8748SOL     OW27142   4.046   6.216   6.692  0.8884 -0.0290  0.7715
 8748SOL    HW127143   4.076   6.139   6.748  1.7928  0.4756  0.9934
 8748SOL    HW227144   4.124   6.274   6.670  0.3556  0.3898 -0.0773
 8749SOL     OW27145   6.310   4.894   4.748 -0.1195  0.2852  0.0792
 8749SOL    HW127146   6.347   4.941   4.829  1.5059 -3.5475  1.8268
 8749SOL    HW227147   6.369   4.913   4.669 -0.9311  2.9590 -0.0056
 8750SOL     OW27148   1.963   4.536   5.848 -0.1554 -0.0344 -0.0159
 8750SOL    HW127149   1.956   4.513   5.945 -1.4342  1.5106  0.3038
 8750SOL    HW227150   2.018   4.620   5.838  0.0183 -0.2184 -0.6374
 8751SOL     OW27151   6.400   2.979   0.575 -0.3634 -0.6403  0.2868
 8751SOL    HW127152   6.464   2.902   0.570  0.0025 -0.3448  0.4381
 8751SOL    HW227153   6.323   2.962   0.513  0.2156 -0.6604 -0.4430
 8752SOL     OW27154   1.560   4.967   3.461  0.0226 -0.5694  0.0455
 8752SOL    HW127155   1.561   5.048   3.402  0.3009 -1.1150 -0.7126
 8752SOL    HW227156   1.639   4.909   3.440  0.3949 -0.5448  1.2927
 8753SOL     OW27157   5.688   3.959   6.476  0.4126 -0.2462 -0.8419
 8753SOL    HW127158   5.739   4.041   6.501 -1.4073  0.6906 -0.0034
 8753SOL    HW227159   5.601   3.985   6.435 -1.0981 -1.6906  1.2571
 8754SOL     OW27160   4.471   2.553   5.038  0.1459  0.5748  0.2430
 8754SOL    HW127161   4.376   2.528   5.055  0.0368  0.9067  0.1260
 8754SOL    HW227162   4.520   2.557   5.126  0.1534  0.0166  0.2692
 8755SOL     OW27163   6.109   4.436   3.297  0.7792 -0.2261 -0.0487
 8755SOL    HW127164   6.014   4.447   3.267  0.2411 -0.6121  1.4382
 8755SOL    HW227165   6.124   4.489   3.380  1.0690 -2.2833  1.2873
 8756SOL     OW27166   6.331   6.343   2.654  0.3102  0.1049  0.0803
 8756SOL    HW127167   6.410   6.399   2.631  1.2309  0.4895  3.5913
 8756SOL    HW227168   6.254   6.403   2.676 -0.5796 -0.2430 -1.8780
 8757SOL     OW27169   0.703   3.129   0.188  0.3014 -0.3144  0.2797
 8757SOL    HW127170   0.699   3.045   0.133 -0.3798 -0.8533  1.1283
 8757SOL    HW227171   0.698   3.106   0.285 -2.3858  0.8106  0.4936
 8758SOL     OW27172   2.836   1.407   3.912  0.0811 -0.1893 -0.1238
 8758SOL    HW127173   2.810   1.335   3.848  1.8667 -0.1787 -0.9178
 8758SOL    HW227174   2.847   1.493   3.863  2.3720 -0.3711 -0.0489
 8759SOL     OW27175   3.487   0.751   0.202  0.6169  0.5763  0.5878
 8759SOL    HW127176   3.499   0.840   0.159  0.5531  0.2169 -0.1815
 8759SOL    HW227177   3.391   0.724   0.195  0.9683 -0.3710 -0.8048
 8760SOL     OW27178   2.487   2.164   1.162 -0.0757 -0.2077  0.4115
 8760SOL    HW127179   2.429   2.225   1.217  0.2535  0.6345 -0.1509
 8760SOL    HW227180   2.532   2.217   1.090  1.2214 -0.8833  0.6952
 8761SOL     OW27181   0.319   6.129   4.373 -0.7533 -0.3674 -0.3560
 8761SOL    HW127182   0.362   6.120   4.463  0.2975 -1.1165 -0.9109
 8761SOL    HW227183   0.338   6.220   4.336  1.1601 -0.9722 -0.9628
 8762SOL     OW27184   0.537   3.597   4.076 -0.0418  0.0091 -0.7887
 8762SOL    HW127185   0.529   3.610   4.175 -1.6323 -0.0570 -0.8749
 8762SOL    HW227186   0.620   3.641   4.043  1.0974 -0.8768  0.7165
 8763SOL     OW27187   1.095   5.286   4.794  0.9494 -0.0615 -0.1952
 8763SOL    HW127188   1.124   5.196   4.824  0.1769 -0.8541 -1.7226
 8763SOL    HW227189   1.020   5.277   4.729  0.3094  1.7289  0.2359
 8764SOL     OW27190   6.371   1.473   4.128 -0.4048 -0.1663 -0.1606
 8764SOL    HW127191   6.278   1.506   4.109 -0.8211 -1.7820 -1.0573
 8764SOL    HW227192   6.366   1.392   4.186  0.4896  0.0292  0.2010
 8765SOL     OW27193   4.112   5.827   1.650  0.0762  0.0936  0.6511
 8765SOL    HW127194   4.100   5.912   1.701  0.4977  2.2687 -2.5761
 8765SOL    HW227195   4.209   5.808   1.639  0.0458  0.6528 -0.7688
 8766SOL     OW27196   3.909   4.400   6.440 -0.5633 -0.8464  0.0122
 8766SOL    HW127197   3.822   4.448   6.450 -1.7637 -2.5562 -1.5737
 8766SOL    HW227198   3.897   4.320   6.380  1.8808 -1.7205  0.5595
 8767SOL     OW27199   1.926   3.679   1.313  0.3176  0.5116  0.6655
 8767SOL    HW127200   1.898   3.667   1.408  0.8894  0.0897  0.7869
 8767SOL    HW227201   1.846   3.702   1.258 -0.5289 -1.8403  0.7904
 8768SOL     OW27202   5.521   0.243   5.703  0.5396  0.2842 -0.4297
 8768SOL    HW127203   5.440   0.185   5.699  0.3716  0.4911 -0.1340
 8768SOL    HW227204   5.536   0.272   5.798 -0.4640  2.2255 -0.8068
 8769SOL     OW27205   3.759   4.840   4.204 -0.4435  0.1706  0.2672
 8769SOL    HW127206   3.673   4.795   4.226 -1.4585  1.1553 -1.4573
 8769SOL    HW227207   3.783   4.904   4.278  0.6679 -2.4903  2.4089
 8770SOL     OW27208   4.095   1.027   6.086  1.2769 -0.0781 -0.0623
 8770SOL    HW127209   4.066   1.082   6.164  0.3194  1.0196 -1.1531
 8770SOL    HW227210   4.045   1.056   6.004  1.3631 -2.0286 -0.8535
 8771SOL     OW27211   1.332   2.349   2.657 -0.2342  0.2625  0.2927
 8771SOL    HW127212   1.312   2.353   2.755  3.1274 -0.9173  1.1434
 8771SOL    HW227213   1.292   2.265   2.620 -0.5682  0.1369  0.9109
 8772SOL     OW27214   7.000   6.419   6.431 -0.1768  0.3881 -0.1526
 8772SOL    HW127215   7.024   6.489   6.363 -0.8051 -0.1326 -0.9205
 8772SOL    HW227216   7.054   6.435   6.514 -0.0217  1.5506 -0.4484
 8773SOL     OW27217   6.359   3.810   6.841 -0.0908 -0.3980 -0.6751
 8773SOL    HW127218   6.410   3.811   6.927 -0.3604 -0.6422 -0.5107
 8773SOL    HW227219   6.261   3.795   6.860 -1.1192  4.6808 -0.5193
 8774SOL     OW27220   5.358   5.464   5.861 -0.4496  0.3202  0.6267
 8774SOL    HW127221   5.424   5.520   5.810 -1.1643  0.8738  0.2815
 8774SOL    HW227222   5.394   5.372   5.873  0.3647  0.6008  0.4046
 8775SOL     OW27223   3.210   1.643   3.718  0.0826 -0.0988 -0.2184
 8775SOL    HW127224   3.238   1.739   3.722 -0.6020  0.0765  1.1725
 8775SOL    HW227225   3.111   1.638   3.703 -0.1054 -0.5191  1.0090
 8776SOL     OW27226   6.209   6.710   6.226 -0.2914 -0.1274  0.3820
 8776SOL    HW127227   6.202   6.765   6.309  0.8210  2.7586 -1.3216
 8776SOL    HW227228   6.298   6.665   6.224 -0.4747 -0.5331  0.8902
 8777SOL     OW27229   0.219   1.340   0.547 -0.0254 -0.3457  0.1970
 8777SOL    HW127230   0.235   1.308   0.453  0.0844 -3.6460  1.2077
 8777SOL    HW227231   0.130   1.307   0.578 -0.0735  0.7540  1.2666
 8778SOL     OW27232   3.205   0.498   1.761 -0.0463 -0.8115  0.0325
 8778SOL    HW127233   3.109   0.474   1.770 -0.2858 -0.0120 -0.2987
 8778SOL    HW227234   3.233   0.554   1.839 -0.6993  1.5775 -1.3400
 8779SOL     OW27235   4.443   1.482   3.028 -0.3863 -0.0420 -0.0999
 8779SOL    HW127236   4.503   1.409   3.063  0.4882  1.1043  0.8961
 8779SOL    HW227237   4.380   1.444   2.960  0.4608 -1.5917 -0.0667
 8780SOL     OW27238   3.882   2.125   2.467  0.5770  0.0255 -0.0246
 8780SOL    HW127239   3.900   2.087   2.558  0.2776  0.7826  0.3544
 8780SOL    HW227240   3.872   2.050   2.402  0.9904 -0.5199  0.5254
 8781SOL     OW27241   5.507   3.940   2.235  0.4098  0.0069 -0.5489
 8781SOL    HW127242   5.482   3.944   2.332  2.4547 -1.0813  0.0747
 8781SOL    HW227243   5.435   3.894   2.184 -0.7280  0.6409  0.4290
 8782SOL     OW27244   0.975   0.779   6.746 -0.3830  0.2165 -0.2470
 8782SOL    HW127245   0.934   0.839   6.677 -0.7934 -0.2830 -0.4459
 8782SOL    HW227246   0.905   0.747   6.809 -0.1492  0.0369 -0.0753
 8783SOL     OW27247   5.607   0.938   6.719 -0.1834 -0.6107  0.2038
 8783SOL    HW127248   5.542   0.966   6.790 -0.9201 -0.5236 -0.4830
 8783SOL    HW227249   5.559   0.932   6.632  0.0101 -3.5950  0.2037
 8784SOL     OW27250   6.557   5.878   2.660 -0.3858 -0.0698 -0.0846
 8784SOL    HW127251   6.491   5.933   2.711 -0.3726 -0.2173  0.0951
 8784SOL    HW227252   6.526   5.783   2.656  0.5430 -0.4662  1.3275
 8785SOL     OW27253   4.931   2.424   1.598  0.5394 -0.1684  0.1645
 8785SOL    HW127254   4.929   2.516   1.637  1.5096  0.3252 -0.9245
 8785SOL    HW227255   4.860   2.368   1.642 -0.0671  1.0880  0.8277
 8786SOL     OW27256   1.933   5.701   1.573 -0.4355  0.3038  0.0233
 8786SOL    HW127257   2.022   5.680   1.614 -0.8125 -2.9612 -0.5656
 8786SOL    HW227258   1.947   5.764   1.496  1.3505 -0.0231  0.0289
 8787SOL     OW27259   6.877   2.163   6.312 -0.4146  0.3131  0.3177
 8787SOL    HW127260   6.968   2.122   6.318 -1.0372 -1.5877 -1.9903
 8787SOL    HW227261   6.885   2.263   6.317  1.7716  0.1940  0.1283
 8788SOL     OW27262   1.706   6.834   4.539 -0.0104 -0.1832 -0.5207
 8788SOL    HW127263   1.784   6.782   4.503  0.4050  0.9074 -1.2654
 8788SOL    HW227264   1.738   6.922   4.574 -0.5901 -0.7099  1.4577
 8789SOL     OW27265   1.705   2.111   6.136 -0.9408 -0.2531 -0.1578
 8789SOL    HW127266   1.757   2.136   6.217 -0.8647  1.9575 -0.8245
 8789SOL    HW227267   1.608   2.130   6.152 -1.0782 -0.8901 -0.2019
 8790SOL     OW27268   0.846   0.572   4.056 -0.3316  0.2676  0.1000
 8790SOL    HW127269   0.767   0.615   4.012  1.2139  2.4231 -0.7333
 8790SOL    HW227270   0.837   0.579   4.155 -0.9314  1.0542  0.0019
 8791SOL     OW27271   0.331   3.361   3.278  0.1238  0.1295  0.3390
 8791SOL    HW127272   0.272   3.425   3.328 -0.6568 -0.0268 -0.3539
 8791SOL    HW227273   0.346   3.279   3.333 -1.0508 -0.2119  0.1953
 8792SOL     OW27274   3.254   0.943   4.780  0.3127 -0.0683 -0.6284
 8792SOL    HW127275   3.231   0.847   4.793  0.5290  0.2126  2.3330
 8792SOL    HW227276   3.178   0.990   4.735 -0.8244 -1.1437  0.1281
 8793SOL     OW27277   5.963   0.541   2.507  0.4041  0.1197 -0.3901
 8793SOL    HW127278   5.881   0.484   2.513  0.8171 -0.6820 -1.9237
 8793SOL    HW227279   5.942   0.633   2.541 -0.9030 -0.2954 -0.0261
 8794SOL     OW27280   1.343   6.037   0.162 -0.2384  0.1961 -0.0526
 8794SOL    HW127281   1.350   5.943   0.128 -0.4184  0.6367 -1.3624
 8794SOL    HW227282   1.418   6.091   0.124  0.7349  0.2660  1.8690
 8795SOL     OW27283   1.426   3.292   0.596 -0.0912 -0.1662  0.3206
 8795SOL    HW127284   1.509   3.309   0.543  1.3222  0.2865  2.5490
 8795SOL    HW227285   1.356   3.253   0.536  1.9465 -1.2751 -1.5006
 8796SOL     OW27286   4.519   3.071   1.721  0.6104 -0.5077 -0.1876
 8796SOL    HW127287   4.568   3.016   1.788 -0.2024  1.3698  2.0696
 8796SOL    HW227288   4.573   3.151   1.698 -0.2011  0.1721  0.2251
 8797SOL     OW27289   3.268   4.944   2.237  0.4821 -0.5120  0.1954
 8797SOL    HW127290   3.272   5.043   2.252  0.7148 -0.7073  1.6485
 8797SOL    HW227291   3.188   4.907   2.283  1.5077 -1.2414  1.4800
 8798SOL     OW27292   0.023   4.827   0.539  0.0370  0.1491 -0.3767
 8798SOL    HW127293   0.021   4.824   0.440 -1.0966  0.4786 -0.3782
 8798SOL    HW227294   0.044   4.920   0.570  0.5428  0.0139 -0.2994
 8799SOL     OW27295   5.164   2.361   4.681  0.0163 -0.2871 -0.1197
 8799SOL    HW127296   5.100   2.305   4.733 -0.9034  0.5977 -0.2640
 8799SOL    HW227297   5.122   2.449   4.660  0.7378 -0.2360 -1.4847
 8800SOL     OW27298   1.490   4.892   1.724  0.1772  0.0067  0.0220
 8800SOL    HW127299   1.493   4.989   1.751  0.9219  0.0170 -0.0951
 8800SOL    HW227300   1.408   4.876   1.668  0.3024  0.6699 -0.3635
 8801SOL     OW27301   4.977   2.719   0.583  0.1042 -0.0641 -0.0837
 8801SOL    HW127302   4.957   2.633   0.630  0.6162  0.1453  0.5249
 8801SOL    HW227303   4.992   2.792   0.651  0.6465  0.2868 -0.5737
 8802SOL     OW27304   5.644   5.514   1.166 -0.0700  0.4235  0.5162
 8802SOL    HW127305   5.605   5.582   1.228  0.3827  0.4278  0.7999
 8802SOL    HW227306   5.602   5.425   1.184 -2.1742  0.9622 -1.2137
 8803SOL     OW27307   1.467   2.223   0.452 -0.3274  0.4859 -0.2872
 8803SOL    HW127308   1.424   2.156   0.392 -0.1577  0.7856 -0.7503
 8803SOL    HW227309   1.481   2.308   0.401  1.5221  0.1594 -0.3730
 8804SOL     OW27310   5.854   1.224   3.875  0.0816  0.3120 -0.1015
 8804SOL    HW127311   5.943   1.200   3.835  1.0296  1.8673  0.9621
 8804SOL    HW227312   5.815   1.143   3.918  0.8739 -0.4499 -0.7549
 8805SOL     OW27313   5.131   2.081   4.201  0.4281 -0.3205  0.4622
 8805SOL    HW127314   5.145   2.180   4.203  1.4365 -0.4601  1.7768
 8805SOL    HW227315   5.092   2.051   4.288 -3.1945 -0.6879 -1.1367
 8806SOL     OW27316   0.614   5.250   6.259 -0.0000  0.1126 -0.1574
 8806SOL    HW127317   0.701   5.212   6.289 -0.7776 -0.5221  1.4006
 8806SOL    HW227318   0.547   5.177   6.250 -0.4179  0.6130 -1.2366
 8807SOL     OW27319   1.486   4.305   6.755 -0.4371 -0.3198 -0.4189
 8807SOL    HW127320   1.576   4.299   6.798 -1.1660 -1.3075  1.0235
 8807SOL    HW227321   1.427   4.365   6.810 -0.6064  0.5420 -1.4997
 8808SOL     OW27322   2.224   6.010   2.642  0.2900 -0.0941 -0.3803
 8808SOL    HW127323   2.184   5.973   2.726 -0.2514  2.6480  0.6961
 8808SOL    HW227324   2.177   5.971   2.563  0.2883 -2.1623  0.5900
 8809SOL     OW27325   5.603   4.021   4.047 -0.7309 -0.1940 -0.2468
 8809SOL    HW127326   5.523   4.024   3.987  0.0454 -0.0511 -1.2949
 8809SOL    HW227327   5.637   3.927   4.053  1.4535  0.2576 -3.1662
 8810SOL     OW27328   4.425   0.108   6.994 -0.7811  0.5185 -0.2468
 8810SOL    HW127329   4.462   0.164   6.919 -1.2920  1.6352  0.2990
 8810SOL    HW227330   4.440   0.011   6.974 -2.3888  0.6634 -2.6455
 8811SOL     OW27331   6.333   3.083   3.875  0.1562  0.1824 -0.2766
 8811SOL    HW127332   6.407   3.114   3.934 -0.3292  0.2872  0.2781
 8811SOL    HW227333   6.256   3.052   3.930 -1.0256  1.9731 -0.8127
 8812SOL     OW27334   0.947   0.832   3.781  0.9334  0.2756  0.3264
 8812SOL    HW127335   0.999   0.915   3.762  0.7561 -0.3308 -3.8027
 8812SOL    HW227336   0.867   0.829   3.720  1.1587 -3.0537  0.0426
 8813SOL     OW27337   5.286   2.849   3.827  0.2011 -0.0191  0.0151
 8813SOL    HW127338   5.321   2.924   3.772  0.6672  1.5686  2.3026
 8813SOL    HW227339   5.362   2.791   3.857  0.4719  1.1231  1.7082
 8814SOL     OW27340   4.200   6.854   4.148 -0.7761  0.3563 -0.3861
 8814SOL    HW127341   4.214   6.952   4.133 -0.0402 -0.0640 -2.8594
 8814SOL    HW227342   4.121   6.823   4.096  0.6561 -0.8368 -1.9447
 8815SOL     OW27343   6.752   1.040   0.351  0.0515 -0.4001 -0.1774
 8815SOL    HW127344   6.663   0.996   0.359 -0.8441  0.8607 -2.3620
 8815SOL    HW227345   6.824   0.970   0.351 -1.1169 -1.6444 -0.8280
 8816SOL     OW27346   3.623   0.997   1.716 -0.1094 -0.8010 -0.0407
 8816SOL    HW127347   3.706   0.948   1.738 -0.7040 -1.7643  0.1105
 8816SOL    HW227348   3.644   1.094   1.701  0.9427 -0.9296  0.5234
 8817SOL     OW27349   2.843   1.013   0.208 -0.4274  0.6604 -0.2749
 8817SOL    HW127350   2.912   1.074   0.247  1.0688 -0.1155 -1.5699
 8817SOL    HW227351   2.849   0.923   0.251 -0.1852  0.4038 -0.8409
 8818SOL     OW27352   0.373   6.273   6.085 -0.1666 -0.1004 -0.1301
 8818SOL    HW127353   0.378   6.302   6.181  2.2845  1.1789 -0.5664
 8818SOL    HW227354   0.333   6.346   6.030  1.0454  0.3277 -0.4632
 8819SOL     OW27355   5.942   5.793   1.074  0.7345 -0.2722 -0.4568
 8819SOL    HW127356   5.997   5.733   1.017  1.0234 -0.0925 -0.3686
 8819SOL    HW227357   5.946   5.886   1.038 -1.4046 -0.6313 -1.8612
 8820SOL     OW27358   5.597   5.077   3.670  0.1829  0.0295 -0.0063
 8820SOL    HW127359   5.573   5.171   3.692  0.7597 -0.1690  1.6109
 8820SOL    HW227360   5.527   5.038   3.610 -0.3106  1.3254 -0.3079
 8821SOL     OW27361   1.642   5.305   5.705 -0.2822  0.2293  0.1009
 8821SOL    HW127362   1.556   5.273   5.665 -0.2490 -0.2502  0.3965
 8821SOL    HW227363   1.706   5.329   5.633 -0.8273  1.0368 -0.1188
 8822SOL     OW27364   2.736   3.613   1.157  0.1160  0.0482 -0.1987
 8822SOL    HW127365   2.745   3.514   1.167  3.7652  0.2629  0.1017
 8822SOL    HW227366   2.772   3.658   1.239 -1.0447  1.6661 -0.5320
 8823SOL     OW27367   3.711   6.702   0.794  0.3369 -0.1202 -0.6086
 8823SOL    HW127368   3.747   6.794   0.779  0.9391  0.4218  3.1896
 8823SOL    HW227369   3.621   6.694   0.751  0.3673  2.1361 -1.2160
 8824SOL     OW27370   5.786   2.479   2.245  0.1012 -0.5569 -0.0172
 8824SOL    HW127371   5.781   2.535   2.162  1.0835 -1.0468 -0.4187
 8824SOL    HW227372   5.726   2.400   2.235 -0.3509 -0.2250  0.0484
 8825SOL     OW27373   4.542   4.740   1.350 -0.4514  0.0846 -0.1264
 8825SOL    HW127374   4.623   4.690   1.382  0.5637  2.1651  0.7783
 8825SOL    HW227375   4.540   4.741   1.250  1.2629  0.8869 -0.1803
 8826SOL     OW27376   4.780   5.698   2.030  0.4335 -0.2186 -0.3201
 8826SOL    HW127377   4.799   5.659   1.940 -1.3372  0.4783 -1.0234
 8826SOL    HW227378   4.720   5.777   2.021  2.7214  1.8270  1.2110
 8827SOL     OW27379   6.531   4.372   4.583  0.3038  0.3313  0.3226
 8827SOL    HW127380   6.565   4.334   4.669 -0.6501 -1.4743 -0.0438
 8827SOL    HW227381   6.455   4.316   4.549  1.0252  0.6242 -1.9915
 8828SOL     OW27382   0.540   6.687   3.384 -0.2941  0.2473  0.7211
 8828SOL    HW127383   0.628   6.674   3.430 -0.4406  0.0598  0.9575
 8828SOL    HW227384   0.481   6.608   3.403  0.0344 -0.3665 -0.7109
 8829SOL     OW27385   5.544   3.433   5.599 -0.3070  0.2896 -0.1269
 8829SOL    HW127386   5.509   3.488   5.523  1.5578  2.7632  0.6722
 8829SOL    HW227387   5.483   3.444   5.678 -0.4656  0.4033 -0.2619
 8830SOL     OW27388   5.826   3.669   1.849 -0.7316 -0.1502 -0.6157
 8830SOL    HW127389   5.834   3.753   1.903 -1.5278  0.3139 -1.1935
 8830SOL    HW227390   5.904   3.663   1.786  1.0255 -1.4561  1.5404
 8831SOL     OW27391   3.471   1.974   2.958  0.2332 -0.6994 -0.0253
 8831SOL    HW127392   3.429   1.948   3.044 -0.9377  1.0001 -0.0461
 8831SOL    HW227393   3.403   1.972   2.885  0.5617  0.4107 -0.3896
 8832SOL     OW27394   5.899   5.097   4.741 -0.6120  0.7186  0.3642
 8832SOL    HW127395   5.913   5.182   4.691  1.3061  0.8537  1.0368
 8832SOL    HW227396   5.916   5.112   4.838 -1.2560 -0.2092  0.6355
 8833SOL     OW27397   4.430   5.497   4.010  0.9748  0.1914  0.1039
 8833SOL    HW127398   4.463   5.440   3.935  0.4087  0.8704 -0.6853
 8833SOL    HW227399   4.500   5.506   4.080  1.9491  0.4849 -0.8882
 8834SOL     OW27400   3.426   6.077   6.614 -0.1814  0.1711  0.1237
 8834SOL    HW127401   3.375   6.002   6.574  0.2379 -0.2343  0.3403
 8834SOL    HW227402   3.395   6.164   6.574  0.2683 -0.2247 -1.1312
 8835SOL     OW27403   5.899   5.266   2.273  0.1627 -0.2164  0.1673
 8835SOL    HW127404   5.971   5.334   2.266  3.0048 -2.8290  1.3681
 8835SOL    HW227405   5.888   5.219   2.186 -0.2258  0.2696 -0.0517
 8836SOL     OW27406   3.915   1.837   6.823 -0.4519 -0.4032  0.1913
 8836SOL    HW127407   3.967   1.752   6.820  0.5949  0.2286 -0.4251
 8836SOL    HW227408   3.895   1.867   6.729  0.7787  0.9571  0.3379
 8837SOL     OW27409   6.800   6.573   1.842  0.1303  0.2242 -0.0164
 8837SOL    HW127410   6.849   6.659   1.825  0.5692 -0.1795 -0.8381
 8837SOL    HW227411   6.865   6.503   1.870  0.2674 -0.6514 -2.2946
 8838SOL     OW27412   3.812   3.909   6.938  0.2181  0.5154  0.0684
 8838SOL    HW127413   3.740   3.929   7.005  0.3828  0.9572  0.1133
 8838SOL    HW227414   3.891   3.871   6.986  0.0510  0.1119  0.0297
 8839SOL     OW27415   2.219   3.326   5.978 -0.2331  0.2113  0.6730
 8839SOL    HW127416   2.239   3.240   5.931  0.0419  0.6040  0.0566
 8839SOL    HW227417   2.155   3.380   5.923 -1.8739 -0.3773  1.9150
 8840SOL     OW27418   3.254   2.106   1.825  0.2805 -0.3778  0.1529
 8840SOL    HW127419   3.213   2.191   1.792  0.6263  0.6613  2.2346
 8840SOL    HW227420   3.354   2.113   1.820  0.3314 -0.3007  1.1331
 8841SOL     OW27421   6.883   3.116   2.021  0.4835  0.5880  0.9606
 8841SOL    HW127422   6.934   3.174   1.956  0.9728 -0.3897  0.4528
 8841SOL    HW227423   6.870   3.166   2.106  0.3131  1.6994  0.3073
 8842SOL     OW27424   1.987   5.014   5.827  0.2837 -0.0010  0.1078
 8842SOL    HW127425   1.943   5.008   5.917 -0.3537 -0.7179 -0.2434
 8842SOL    HW227426   1.995   5.110   5.801  2.4997  0.3805  1.9023
 8843SOL     OW27427   3.982   2.071   4.921  0.4901  0.7218  0.4875
 8843SOL    HW127428   3.900   2.014   4.919  0.9111  0.1129  0.0420
 8843SOL    HW227429   3.990   2.115   5.010 -0.3662  0.8633  0.5031
 8844SOL     OW27430   1.968   2.075   6.601 -0.6735 -0.3062 -0.2428
 8844SOL    HW127431   2.063   2.041   6.605 -0.1677  1.1460  2.4234
 8844SOL    HW227432   1.964   2.168   6.637 -3.3034 -0.7661  0.8758
 8845SOL     OW27433   6.281   3.347   4.415 -0.6187  0.1613  0.0433
 8845SOL    HW127434   6.207   3.290   4.449 -0.7404 -2.4078 -3.8265
 8845SOL    HW227435   6.358   3.289   4.389  0.8457  2.2377 -0.4863
 8846SOL     OW27436   7.003   5.257   0.156 -0.0487  0.2451  0.6686
 8846SOL    HW127437   6.948   5.196   0.098  0.4320  0.3710  0.0583
 8846SOL    HW227438   7.086   5.282   0.106 -0.4729  1.8106  0.7091
 8847SOL     OW27439   4.179   0.816   1.719  0.3388 -0.3277  0.3402
 8847SOL    HW127440   4.242   0.836   1.644 -1.0890 -1.0719 -1.1206
 8847SOL    HW227441   4.168   0.897   1.776  0.6049  0.6099 -0.9064
 8848SOL     OW27442   4.944   1.531   1.005  0.0405 -0.1939 -0.0980
 8848SOL    HW127443   4.914   1.507   1.098 -2.6478  0.3714 -0.7252
 8848SOL    HW227444   4.925   1.628   0.988  1.6984  0.0273 -0.8441
 8849SOL     OW27445   3.431   4.188   5.766  0.1455  0.1233 -0.2770
 8849SOL    HW127446   3.445   4.225   5.674 -2.1154  0.6420 -0.4662
 8849SOL    HW227447   3.361   4.242   5.814  2.4658  0.9646  2.4519
 8850SOL     OW27448   1.570   2.690   1.341  0.6594  0.1272 -0.1368
 8850SOL    HW127449   1.628   2.609   1.333  1.4960  0.7069  0.0390
 8850SOL    HW227450   1.474   2.661   1.350  1.0484 -0.8768  0.9851
 8851SOL     OW27451   3.619   6.973   4.800 -0.0631 -0.1848  0.4566
 8851SOL    HW127452   3.619   6.974   4.900 -0.3955 -0.1026  0.4557
 8851SOL    HW227453   3.542   7.027   4.766 -0.3916 -0.8354  0.1573
 8852SOL     OW27454   4.617   6.408   0.909  0.4986  0.0005  0.1731
 8852SOL    HW127455   4.590   6.482   0.847  2.0502  0.9462  0.5708
 8852SOL    HW227456   4.574   6.422   0.998 -0.6873 -0.6403 -0.2675
 8853SOL     OW27457   6.007   3.755   2.859  0.7568 -0.3235  0.6550
 8853SOL    HW127458   6.061   3.795   2.785 -1.1881  0.1034 -0.5953
 8853SOL    HW227459   5.973   3.665   2.831 -1.2076  0.4567  0.3762
 8854SOL     OW27460   0.079   1.784   4.879  0.2215  0.6688 -0.0678
 8854SOL    HW127461   0.114   1.699   4.918  0.3052 -0.4275 -2.3564
 8854SOL    HW227462   0.021   1.830   4.947 -0.3625 -1.5332  1.0348
 8855SOL     OW27463   6.984   4.916   5.274 -0.1472  0.3316  0.1804
 8855SOL    HW127464   6.962   5.005   5.233  0.6621  1.1457  1.4385
 8855SOL    HW227465   7.080   4.915   5.301 -0.5735 -0.2669  1.7632
 8856SOL     OW27466   1.784   5.157   3.135  0.0411  0.4948  0.3430
 8856SOL    HW127467   1.737   5.176   3.048 -2.0121 -1.4320  0.9229
 8856SOL    HW227468   1.823   5.065   3.132 -0.2175  0.3275  1.4878
 8857SOL     OW27469   3.839   5.173   0.568  0.4427 -0.5081 -0.6171
 8857SOL    HW127470   3.912   5.242   0.569  0.2307 -0.2818  0.3110
 8857SOL    HW227471   3.755   5.214   0.534 -0.4062  0.5033  2.4053
 8858SOL     OW27472   2.147   6.139   3.871  0.0603 -0.4193 -0.6552
 8858SOL    HW127473   2.154   6.057   3.927 -0.0641 -0.5393 -0.8158
 8858SOL    HW227474   2.238   6.176   3.853  0.2713 -1.5471 -2.1063
 8859SOL     OW27475   2.778   2.075   3.374 -0.2869 -0.2880  0.0379
 8859SOL    HW127476   2.834   2.126   3.440  0.3725 -0.1547 -0.6134
 8859SOL    HW227477   2.837   2.014   3.321 -0.9627 -1.1952  0.3003
 8860SOL     OW27478   6.631   3.818   6.366  0.6063  0.7997 -0.0836
 8860SOL    HW127479   6.600   3.768   6.285 -1.6288  2.0870 -0.0980
 8860SOL    HW227480   6.565   3.807   6.439  1.8207  0.9478  1.0781
 8861SOL     OW27481   4.692   6.523   5.180 -0.1445 -0.8965  0.7671
 8861SOL    HW127482   4.699   6.623   5.176 -1.2079 -0.8465 -0.4935
 8861SOL    HW227483   4.739   6.490   5.262 -1.3504  0.7812  2.2182
 8862SOL     OW27484   4.419   5.820   4.418  0.4966  0.1385  0.1181
 8862SOL    HW127485   4.484   5.758   4.374 -0.4289 -1.3025  0.6965
 8862SOL    HW227486   4.337   5.827   4.362  0.9229  1.5910 -0.3806
 8863SOL     OW27487   1.978   0.329   4.985  0.0960 -0.0080 -0.4347
 8863SOL    HW127488   2.043   0.309   5.058  0.8979  0.9678 -0.8621
 8863SOL    HW227489   1.935   0.244   4.955  1.9825 -0.8406 -0.8911
 8864SOL     OW27490   6.715   3.529   4.391  0.4851 -0.1570 -0.2990
 8864SOL    HW127491   6.785   3.600   4.394 -0.3741  0.6571  1.8413
 8864SOL    HW227492   6.758   3.439   4.396  1.4488  0.2644 -0.7638
 8865SOL     OW27493   2.795   3.006   0.216  0.0833  0.1722  0.0301
 8865SOL    HW127494   2.816   3.103   0.202  1.1269 -0.1858 -1.0531
 8865SOL    HW227495   2.735   2.996   0.295 -0.3219  1.7308 -0.0432
 8866SOL     OW27496   4.391   1.864   5.946  0.0976 -0.3575 -0.1028
 8866SOL    HW127497   4.467   1.815   5.903  1.5419  1.4270  0.2538
 8866SOL    HW227498   4.352   1.808   6.020  1.2451 -1.2187 -0.1206
 8867SOL     OW27499   6.485   5.254   3.096 -0.3024  0.1607  0.8657
 8867SOL    HW127500   6.546   5.200   3.038  0.6732  0.4789  1.5488
 8867SOL    HW227501   6.439   5.194   3.161 -1.3913 -0.1961 -0.1911
 8868SOL     OW27502   3.826   2.498   1.268  0.0590  0.1866 -0.2505
 8868SOL    HW127503   3.828   2.597   1.284 -0.8923  0.0674  0.6794
 8868SOL    HW227504   3.743   2.474   1.219  0.9391 -0.0052 -1.7290
 8869SOL     OW27505   3.629   3.359   6.141 -0.2532 -0.1261 -0.6047
 8869SOL    HW127506   3.571   3.293   6.188 -0.7047  0.5809 -0.1462
 8869SOL    HW227507   3.579   3.445   6.129  0.5495  0.3520 -0.6013
 8870SOL     OW27508   4.937   0.072   5.773 -0.2092 -0.8729 -0.4206
 8870SOL    HW127509   4.937   0.154   5.830  1.5143  0.0556 -1.6443
 8870SOL    HW227510   5.011   0.011   5.801 -0.0365 -0.9201 -0.9701
 8871SOL     OW27511   6.784   6.245   2.298  0.3315  0.2669  0.7191
 8871SOL    HW127512   6.836   6.159   2.305  0.9365  0.6503  1.0919
 8871SOL    HW227513   6.710   6.244   2.365 -0.0913 -0.2434  0.2566
 8872SOL     OW27514   1.542   2.209   0.014  1.1481 -0.0222  0.0995
 8872SOL    HW127515   1.634   2.191  -0.020  1.6027  0.4484  1.0358
 8872SOL    HW227516   1.540   2.296   0.062  0.8230 -1.1303  2.2220
 8873SOL     OW27517   1.483   1.720   4.100 -0.1584 -0.6793 -0.4195
 8873SOL    HW127518   1.391   1.704   4.136 -0.1980  0.2478 -0.0641
 8873SOL    HW227519   1.550   1.708   4.173 -0.1610  0.3348 -0.2295
 8874SOL     OW27520   5.344   1.853   6.700 -0.3766 -0.8502 -0.4695
 8874SOL    HW127521   5.420   1.874   6.638  1.0142  0.6054  1.6135
 8874SOL    HW227522   5.379   1.806   6.781 -1.5877  0.2756  0.7454
 8875SOL     OW27523   0.410   6.318   5.204 -0.5737  0.0290  0.1194
 8875SOL    HW127524   0.330   6.258   5.202 -2.1050  1.7778  2.5985
 8875SOL    HW227525   0.432   6.348   5.111 -1.0558 -2.6228 -0.9124
 8876SOL     OW27526   3.127   3.466   1.018  0.4508 -0.4095 -0.2243
 8876SOL    HW127527   3.199   3.498   0.956  1.4523 -0.2439  0.9789
 8876SOL    HW227528   3.168   3.412   1.091 -0.7226 -0.7257  0.2224
 8877SOL     OW27529   3.773   1.460   3.800  0.3458 -0.1074  0.4310
 8877SOL    HW127530   3.702   1.398   3.765  0.3785  0.1523 -0.1004
 8877SOL    HW227531   3.733   1.519   3.870  0.0430  0.0257  0.1475
 8878SOL     OW27532   5.793   0.323   4.478  0.2452  0.5675  0.1225
 8878SOL    HW127533   5.755   0.262   4.409  0.7667 -1.9099  1.9039
 8878SOL    HW227534   5.720   0.353   4.540  0.4898 -1.1966  1.3387
 8879SOL     OW27535   3.697   0.262   0.397 -0.2684 -0.1449 -0.5979
 8879SOL    HW127536   3.653   0.335   0.344 -0.4624  0.4579  0.3595
 8879SOL    HW227537   3.687   0.175   0.349  2.3243  0.8234 -3.1170
 8880SOL     OW27538   0.854   2.448   6.026  0.1077  0.2881  0.0096
 8880SOL    HW127539   0.856   2.392   5.942  2.0621 -0.2637  0.3773
 8880SOL    HW227540   0.798   2.402   6.095 -1.4958  0.7290 -0.9309
 8881SOL     OW27541   5.932   3.015   5.909  0.1916 -0.1160  0.3432
 8881SOL    HW127542   5.996   3.033   5.834  0.4128  0.1759  0.5985
 8881SOL    HW227543   5.842   3.051   5.884  0.4159  0.5463  0.4733
 8882SOL     OW27544   6.832   1.813   3.736  0.2857 -0.1590  0.3405
 8882SOL    HW127545   6.748   1.766   3.761  0.5564  0.5867  2.8810
 8882SOL    HW227546   6.890   1.824   3.816  1.1371  2.6776 -0.5248
 8883SOL     OW27547   4.120   5.450   4.783 -0.1320 -0.2946 -0.4891
 8883SOL    HW127548   4.046   5.452   4.716  0.8081 -1.0344 -1.6043
 8883SOL    HW227549   4.085   5.473   4.873 -1.3142  1.4744 -1.3427
 8884SOL     OW27550   0.006   0.050   0.618 -0.5413  0.6854  0.0611
 8884SOL    HW127551   0.002   0.134   0.672  1.5513 -0.0117  1.4289
 8884SOL    HW227552   0.096   0.007   0.630 -0.3823 -0.1196 -3.1338
 8885SOL     OW27553   6.948   5.844   1.382 -0.0099  0.4340 -0.3937
 8885SOL    HW127554   6.934   5.940   1.357  0.2977  0.1695 -1.6729
 8885SOL    HW227555   6.990   5.795   1.305  0.1576 -0.6530  0.3605
 8886SOL     OW27556   3.114   1.841   4.880  0.5996 -0.4099  0.7338
 8886SOL    HW127557   3.169   1.799   4.952  1.3933 -0.5701  0.0529
 8886SOL    HW227558   3.142   1.936   4.868  2.5984 -1.1746 -1.3549
 8887SOL     OW27559   5.043   1.536   5.565  0.4693  0.0559 -0.1920
 8887SOL    HW127560   5.057   1.628   5.527 -0.3500 -0.2490 -1.3040
 8887SOL    HW227561   5.096   1.526   5.649  1.5042  1.1395 -0.6829
 8888SOL     OW27562   5.206   1.025   1.058  0.3598 -0.0170  0.8275
 8888SOL    HW127563   5.253   0.962   0.997  0.5134 -1.1063  2.0284
 8888SOL    HW227564   5.166   0.975   1.135 -1.6332  1.0351  0.5645
 8889SOL     OW27565   5.020   5.153   2.694 -0.2645 -0.4178 -0.6555
 8889SOL    HW127566   4.960   5.225   2.660  0.4226  0.7395  0.4938
 8889SOL    HW227567   5.104   5.151   2.639  0.9758  1.6505  1.0075
 8890SOL     OW27568   2.496   4.565   4.327  0.6264 -0.1849  0.0579
 8890SOL    HW127569   2.516   4.661   4.304 -0.2925 -0.2486 -1.1072
 8890SOL    HW227570   2.398   4.553   4.339  0.8281 -0.7712  1.3497
 8891SOL     OW27571   5.077   1.820   2.922  0.1343 -0.5489  0.1974
 8891SOL    HW127572   4.985   1.793   2.951  0.3082  0.2010  1.5150
 8891SOL    HW227573   5.081   1.919   2.910  0.7121 -0.5983 -0.0824
 8892SOL     OW27574   2.556   1.725   5.958 -0.2739 -0.0348  0.0949
 8892SOL    HW127575   2.460   1.754   5.955 -0.1947  0.1894 -0.3210
 8892SOL    HW227576   2.561   1.626   5.949 -0.5479 -0.2067  1.5417
 8893SOL     OW27577   4.544   4.509   2.164 -0.5702  0.2844  0.3614
 8893SOL    HW127578   4.556   4.487   2.261  0.4421 -0.5434  0.0725
 8893SOL    HW227579   4.551   4.425   2.110  3.3236  1.1212 -0.7923
 8894SOL     OW27580   1.112   3.920   0.577  0.3326 -0.1059  0.0346
 8894SOL    HW127581   1.109   3.894   0.674 -2.6639 -1.2017 -0.2546
 8894SOL    HW227582   1.146   3.842   0.524 -0.8047 -0.5737 -0.0363
 8895SOL     OW27583   5.878   3.754   0.771 -0.4646  0.5638 -0.1954
 8895SOL    HW127584   5.902   3.718   0.681  0.8892  0.5709  0.1389
 8895SOL    HW227585   5.806   3.822   0.762  1.1825  2.2266 -1.5551
 8896SOL     OW27586   0.152   1.910   3.149  0.5688  0.0978  0.5357
 8896SOL    HW127587   0.124   1.817   3.171  0.0951 -0.2284 -1.2788
 8896SOL    HW227588   0.094   1.947   3.076  1.1272  1.5993  0.8008
 8897SOL     OW27589   1.022   6.710   4.399  0.0251  0.2977 -0.1589
 8897SOL    HW127590   1.007   6.809   4.398 -0.8436  0.1869  0.5318
 8897SOL    HW227591   1.095   6.687   4.464 -0.4714  0.4023  0.4391
 8898SOL     OW27592   4.498   6.763   1.490 -0.7317  0.4692 -0.1340
 8898SOL    HW127593   4.492   6.860   1.513  3.5577  0.8168  0.3089
 8898SOL    HW227594   4.509   6.709   1.573  0.2997  0.0592 -0.5086
 8899SOL     OW27595   3.571   2.806   1.134  0.4110 -0.2957 -0.2813
 8899SOL    HW127596   3.540   2.762   1.050 -1.3128 -1.2207  0.7863
 8899SOL    HW227597   3.524   2.894   1.145  2.2551  0.8972 -1.3220
 8900SOL     OW27598   6.445   6.191   5.714  0.1060 -0.1289 -0.0832
 8900SOL    HW127599   6.544   6.184   5.723  0.1103  0.5327  0.4468
 8900SOL    HW227600   6.401   6.168   5.801 -0.1404  0.7191  0.0249
 8901SOL     OW27601   0.362   5.309   2.463 -0.5665 -0.0067  0.5542
 8901SOL    HW127602   0.453   5.280   2.434 -1.2163 -0.0896 -1.5875
 8901SOL    HW227603   0.332   5.386   2.407 -0.6390  2.0939  3.2734
 8902SOL     OW27604   6.744   3.959   1.307  0.0128 -0.0526  0.3759
 8902SOL    HW127605   6.760   3.891   1.378 -1.9731 -0.3638  0.5740
 8902SOL    HW227606   6.650   3.953   1.276 -0.1956  2.5318  0.3141
 8903SOL     OW27607   3.009   2.877   6.639  0.2083 -0.3714 -0.5864
 8903SOL    HW127608   3.041   2.785   6.618  0.2307 -0.4114 -0.3816
 8903SOL    HW227609   2.921   2.872   6.688  0.1774 -0.2830 -0.6335
 8904SOL     OW27610   2.726   4.666   3.774  0.7387 -0.5784 -0.3642
 8904SOL    HW127611   2.686   4.705   3.857  0.2938  0.2140 -0.9322
 8904SOL    HW227612   2.705   4.569   3.770 -1.4887 -0.1309 -0.8078
 8905SOL     OW27613   2.077   5.641   3.152 -0.0319 -0.2657  0.3470
 8905SOL    HW127614   2.052   5.566   3.090 -1.3734  0.1766  0.3272
 8905SOL    HW227615   2.127   5.603   3.231  2.1316 -0.7814 -1.1706
 8906SOL     OW27616   3.109   6.405   0.204 -0.1938  0.0693 -0.1411
 8906SOL    HW127617   3.133   6.489   0.252 -0.1470  0.3905 -0.7101
 8906SOL    HW227618   3.182   6.382   0.139 -0.2252 -0.3859 -0.0171
 8907SOL     OW27619   2.477   3.400   1.592 -0.1725  0.1427  0.3416
 8907SOL    HW127620   2.487   3.496   1.567 -3.2964  0.4015 -0.2925
 8907SOL    HW227621   2.432   3.393   1.681 -0.3496 -0.7225  0.1952
 8908SOL     OW27622   0.255   4.488   6.463  0.0857  0.2125  0.4079
 8908SOL    HW127623   0.208   4.512   6.548 -1.1334  0.3609 -0.2892
 8908SOL    HW227624   0.225   4.549   6.390 -1.6024 -2.0852 -0.9508
 8909SOL     OW27625   2.770   3.959   5.399  0.1788 -0.9945  0.4211
 8909SOL    HW127626   2.842   3.923   5.339  1.1341 -0.6493  1.3419
 8909SOL    HW227627   2.805   3.969   5.492 -0.0211  2.2553  0.2602
 8910SOL     OW27628   5.270   1.431   2.544  0.1775 -0.2237  0.6289
 8910SOL    HW127629   5.341   1.483   2.498  0.0219  0.0596  0.7103
 8910SOL    HW227630   5.218   1.491   2.604 -0.3099 -0.3741  0.3597
 8911SOL     OW27631   1.006   6.423   5.054  0.9818  0.0620 -0.1032
 8911SOL    HW127632   0.983   6.341   5.001 -2.6644  0.3514  0.7632
 8911SOL    HW227633   1.015   6.399   5.151 -0.3949  0.6631  0.1984
 8912SOL     OW27634   5.913   1.269   2.103 -0.0838 -0.0033  0.0582
 8912SOL    HW127635   5.909   1.339   2.174  0.2554  1.0352 -0.9332
 8912SOL    HW227636   5.995   1.282   2.047 -0.3924 -0.7584 -0.5846
 8913SOL     OW27637   5.097   4.344   0.806  0.9322 -0.2129 -0.6383
 8913SOL    HW127638   5.134   4.254   0.827  2.2286  0.0919 -1.4943
 8913SOL    HW227639   5.162   4.395   0.749 -1.0276  0.1459 -2.7200
 8914SOL     OW27640   5.595   0.400   4.675  0.9219  0.0916 -0.5076
 8914SOL    HW127641   5.501   0.434   4.678  0.2535 -1.5363 -1.5267
 8914SOL    HW227642   5.600   0.311   4.720  2.0217  0.2427 -0.3039
 8915SOL     OW27643   2.146   2.505   2.913 -0.0176  0.1102  0.0267
 8915SOL    HW127644   2.084   2.565   2.862  0.8833 -0.2518 -1.5741
 8915SOL    HW227645   2.105   2.481   3.001 -3.2180 -1.8781 -1.8021
 8916SOL     OW27646   0.476   3.633   3.301 -0.7160  0.2055 -0.1172
 8916SOL    HW127647   0.427   3.551   3.330  0.2011  0.1820  1.4825
 8916SOL    HW227648   0.457   3.651   3.204 -0.2657 -2.3761 -0.7532
 8917SOL     OW27649   2.577   1.467   5.893 -0.0816 -0.0596  0.0019
 8917SOL    HW127650   2.661   1.457   5.946  0.3642 -0.7531 -0.7962
 8917SOL    HW227651   2.510   1.399   5.922 -0.5458  0.7664  0.9290
 8918SOL     OW27652   0.580   6.580   5.690 -0.2747 -0.4409  0.0659
 8918SOL    HW127653   0.584   6.563   5.788  1.4170 -3.0734 -0.3489
 8918SOL    HW227654   0.671   6.604   5.657 -0.4644 -1.2457 -1.0954
 8919SOL     OW27655   6.979   5.675   2.130  0.3816 -0.2148 -0.2179
 8919SOL    HW127656   6.953   5.741   2.060 -0.4081 -0.0800  0.1971
 8919SOL    HW227657   6.898   5.644   2.179  1.0267  0.5816  1.4337
 8920SOL     OW27658   2.513   5.621   3.305 -0.2182 -0.0174 -0.0077
 8920SOL    HW127659   2.579   5.559   3.264 -0.7052 -1.2768  1.0628
 8920SOL    HW227660   2.533   5.633   3.402 -1.8645 -0.8876  0.4752
 8921SOL     OW27661   5.515   5.293   1.290 -0.1342  0.2731  0.1411
 8921SOL    HW127662   5.575   5.272   1.367  0.0083 -0.6480 -0.2105
 8921SOL    HW227663   5.420   5.297   1.321  0.0716  1.6580  0.6853
 8922SOL     OW27664   5.508   0.309   6.982  0.5779 -0.5203  0.2037
 8922SOL    HW127665   5.584   0.285   7.042 -1.5996 -0.3005  3.2364
 8922SOL    HW227666   5.486   0.406   6.992 -2.5983 -1.3343  2.6708
 8923SOL     OW27667   2.162   4.974   0.281 -0.0704  0.0944  0.5286
 8923SOL    HW127668   2.104   5.051   0.311  0.1703 -0.0801  1.4758
 8923SOL    HW227669   2.134   4.891   0.328 -0.3968 -0.4388 -0.5741
 8924SOL     OW27670   5.833   5.823   4.949  0.8188  0.4989 -0.2387
 8924SOL    HW127671   5.865   5.854   5.038 -1.4496  1.8982  0.1640
 8924SOL    HW227672   5.816   5.725   4.952  3.5671 -0.0624 -0.0943
 8925SOL     OW27673   0.797   3.618   0.307 -0.5377 -0.2738 -0.4070
 8925SOL    HW127674   0.719   3.676   0.330 -0.1157 -0.0425  0.4518
 8925SOL    HW227675   0.819   3.630   0.210  0.3443  2.0078  0.0168
 8926SOL     OW27676   3.373   1.853   5.898  0.0537 -0.0650  0.2693
 8926SOL    HW127677   3.332   1.852   5.806 -0.5838  1.3821  0.5014
 8926SOL    HW227678   3.464   1.893   5.893  1.0882 -2.3040 -0.0803
 8927SOL     OW27679   0.064   1.052   3.096  0.0452  0.1623 -0.0687
 8927SOL    HW127680   0.096   1.106   3.173  2.3937  0.4372 -1.1417
 8927SOL    HW227681   0.109   1.084   3.012 -0.6345 -1.6558 -1.1827
 8928SOL     OW27682   4.746   2.834   0.988 -0.5065  0.3125  0.3881
 8928SOL    HW127683   4.718   2.766   1.056  0.6072  0.0325  0.5979
 8928SOL    HW227684   4.846   2.839   0.986 -0.5587  2.0989  0.5271
 8929SOL     OW27685   1.247   5.221   2.991  0.4170  0.5230  0.0434
 8929SOL    HW127686   1.150   5.238   2.975 -0.2743 -0.3558  2.6964
 8929SOL    HW227687   1.288   5.179   2.910 -1.7050 -0.1609 -0.7350
 8930SOL     OW27688   4.305   5.250   5.276 -0.0113 -0.7897 -0.3448
 8930SOL    HW127689   4.382   5.216   5.222 -0.6987  2.3685 -3.6941
 8930SOL    HW227690   4.327   5.341   5.312 -1.4263 -0.7561  0.5056
 8931SOL     OW27691   5.126   2.086   6.416  0.0877 -0.0420 -0.5524
 8931SOL    HW127692   5.208   2.045   6.376  0.1579 -0.2421 -0.1996
 8931SOL    HW227693   5.102   2.039   6.501  1.2099  1.7514  0.8193
 8932SOL     OW27694   6.213   0.232   3.212  0.3711  0.2772  0.3688
 8932SOL    HW127695   6.189   0.319   3.255 -1.0708  0.4387 -0.6816
 8932SOL    HW227696   6.233   0.246   3.115  0.5660 -0.4932  0.2874
 8933SOL     OW27697   2.006   3.239   4.077 -0.2433 -0.0667 -0.2391
 8933SOL    HW127698   1.992   3.336   4.061 -0.1708 -0.0631 -0.2829
 8933SOL    HW227699   2.098   3.213   4.048 -0.5241 -0.3011 -0.9557
 8934SOL     OW27700   2.653   5.482   1.931  0.2544  0.1515  0.1884
 8934SOL    HW127701   2.633   5.543   1.855 -0.4048  0.6827  0.7743
 8934SOL    HW227702   2.626   5.526   2.017 -1.2065 -1.3583  0.5547
 8935SOL     OW27703   0.487   6.939   4.107 -0.1199  0.7942  0.8028
 8935SOL    HW127704   0.395   6.923   4.070  0.2573 -0.2422  0.2617
 8935SOL    HW227705   0.554   6.894   4.048  0.6629  0.7253  1.7312
 8936SOL     OW27706   0.323   4.159   1.318 -0.1004  0.0412  0.0556
 8936SOL    HW127707   0.395   4.121   1.376  0.5866  0.8828 -0.2201
 8936SOL    HW227708   0.364   4.217   1.248 -1.1814  3.0475  1.7481
 8937SOL     OW27709   0.137   0.761   5.346  0.1533  0.4092 -0.6571
 8937SOL    HW127710   0.158   0.680   5.292 -1.6167 -0.5291 -0.0267
 8937SOL    HW227711   0.046   0.751   5.386  0.1459  2.4657 -0.0758
 8938SOL     OW27712   1.036   0.208   0.437  0.7497 -0.1197  0.1596
 8938SOL    HW127713   0.957   0.267   0.422 -0.1768 -1.5249 -0.6972
 8938SOL    HW227714   1.046   0.190   0.535 -0.2348 -0.2205  0.2530
 8939SOL     OW27715   4.057   6.039   1.431 -0.4226  0.2427 -0.0054
 8939SOL    HW127716   4.045   5.985   1.514 -0.8442  1.3103  0.6425
 8939SOL    HW227717   4.007   5.996   1.355  1.9242 -2.1197 -0.3956
 8940SOL     OW27718   6.755   6.955   6.778  0.5890  0.3161 -0.5475
 8940SOL    HW127719   6.721   7.036   6.731  0.9359  0.4373 -0.5937
 8940SOL    HW227720   6.682   6.887   6.786  0.1770  0.7959 -0.1479
 8941SOL     OW27721   2.457   2.303   3.703  0.7924  0.4243 -0.4729
 8941SOL    HW127722   2.382   2.361   3.670  0.7169  0.8624  0.4223
 8941SOL    HW227723   2.454   2.215   3.657 -1.4199 -0.2709  0.8055
 8942SOL     OW27724   0.700   5.616   1.265 -0.5333  0.0132 -0.1043
 8942SOL    HW127725   0.627   5.555   1.233  0.0953 -0.9438  0.2730
 8942SOL    HW227726   0.786   5.566   1.271  0.1439  1.0987 -0.4019
 8943SOL     OW27727   3.757   1.511   0.366 -0.3922 -0.0758  0.1818
 8943SOL    HW127728   3.779   1.428   0.316  0.8310  1.1099 -1.3785
 8943SOL    HW227729   3.759   1.589   0.303 -1.2931  1.1716  1.6253
 8944SOL     OW27730   6.891   2.078   1.851  0.4963 -0.3016 -0.3913
 8944SOL    HW127731   6.985   2.112   1.843  0.4374 -0.0058  0.1363
 8944SOL    HW227732   6.853   2.066   1.760  0.1759  2.0213 -0.6238
 8945SOL     OW27733   0.380   0.197   1.596  0.2391  0.2202 -0.2005
 8945SOL    HW127734   0.294   0.238   1.628 -0.0308  1.4769 -2.3677
 8945SOL    HW227735   0.457   0.251   1.631 -0.0090  1.0391 -0.8855
 8946SOL     OW27736   3.576   5.851   4.182  0.1691  0.1325 -0.0688
 8946SOL    HW127737   3.585   5.802   4.268  0.0657 -1.0881 -0.7309
 8946SOL    HW227738   3.528   5.794   4.116  0.6168  0.8788 -1.0725
 8947SOL     OW27739   3.808   2.735   5.375  0.2001  0.1339  0.4959
 8947SOL    HW127740   3.749   2.798   5.325 -0.4469  0.1581  1.2668
 8947SOL    HW227741   3.858   2.786   5.446 -2.0758 -0.5089  2.7084
 8948SOL     OW27742   6.766   4.005   3.412 -0.2660 -0.4181 -0.7413
 8948SOL    HW127743   6.745   4.103   3.411  1.2655 -0.0581 -0.9815
 8948SOL    HW227744   6.801   3.978   3.322  0.6916 -0.8478 -0.2544
 8949SOL     OW27745   0.567   0.548   2.086  0.6164 -0.3570  0.1186
 8949SOL    HW127746   0.502   0.623   2.097 -0.2036 -1.0251 -0.0980
 8949SOL    HW227747   0.614   0.532   2.173  0.1926 -0.1407  0.3907
 8950SOL     OW27748   4.798   6.278   4.548  0.5566 -1.1881 -0.5785
 8950SOL    HW127749   4.790   6.266   4.449  0.2640  1.5180 -0.9590
 8950SOL    HW227750   4.892   6.306   4.570 -0.1509  1.3852 -0.5623
 8951SOL     OW27751   6.395   0.642   2.172 -0.1752 -0.6706  0.2539
 8951SOL    HW127752   6.473   0.619   2.231 -1.2982 -1.0048  1.6563
 8951SOL    HW227753   6.397   0.583   2.091  0.0578 -1.9071  1.1321
 8952SOL     OW27754   1.850   6.954   5.807 -0.1321  0.2957 -0.4634
 8952SOL    HW127755   1.757   6.931   5.837  0.3771 -1.7419 -0.2545
 8952SOL    HW227756   1.902   6.990   5.885 -0.1380 -0.6394 -0.0145
 8953SOL     OW27757   3.820   5.806   3.029 -0.4735  0.2304 -0.1945
 8953SOL    HW127758   3.728   5.786   3.062 -1.0004  2.5337 -0.0938
 8953SOL    HW227759   3.815   5.833   2.932  0.5300 -2.5231 -1.0888
 8954SOL     OW27760   3.480   0.997   0.421 -0.3228 -0.4540  0.1526
 8954SOL    HW127761   3.519   1.024   0.332 -0.8627 -0.4152 -0.0785
 8954SOL    HW227762   3.480   1.076   0.482 -0.1168 -0.4345  0.1303
 8955SOL     OW27763   1.298   6.945   5.942  0.3773  0.4999 -0.4218
 8955SOL    HW127764   1.388   6.938   5.899  0.4134  1.8256 -0.5839
 8955SOL    HW227765   1.268   7.040   5.943  0.3371  0.5423  2.4436
 8956SOL     OW27766   3.980   0.315   6.121 -0.0078 -0.5333  0.2808
 8956SOL    HW127767   3.929   0.390   6.163  1.6077  1.6562 -1.4120
 8956SOL    HW227768   3.916   0.250   6.080 -1.5875  2.3143 -2.1495
 8957SOL     OW27769   1.757   4.825   1.292  0.0739 -0.1385 -0.5922
 8957SOL    HW127770   1.782   4.859   1.201  0.6371 -2.7553 -1.5201
 8957SOL    HW227771   1.701   4.893   1.339  1.1589  1.9927 -2.2062
 8958SOL     OW27772   5.980   1.240   5.555  0.3047  0.0521  0.2526
 8958SOL    HW127773   6.076   1.231   5.531 -0.3144 -1.7624 -1.9144
 8958SOL    HW227774   5.939   1.313   5.501 -0.0325 -0.7963 -0.6659
 8959SOL     OW27775   6.173   4.940   6.952 -0.1729  0.1236 -0.0749
 8959SOL    HW127776   6.183   5.032   6.991  0.1831 -0.4856  1.3380
 8959SOL    HW227777   6.252   4.920   6.894 -0.1096  0.5918 -0.1548
 8960SOL     OW27778   6.846   3.872   5.131  0.0528  0.4842  0.0224
 8960SOL    HW127779   6.877   3.816   5.208  1.0162  0.5873 -0.2837
 8960SOL    HW227780   6.749   3.855   5.115  0.3830 -1.2919 -0.2417
 8961SOL     OW27781   3.419   2.888   0.631  0.1117  0.0167 -0.1233
 8961SOL    HW127782   3.336   2.905   0.578  0.4795  0.6298 -0.5224
 8961SOL    HW227783   3.499   2.908   0.574  0.5102  0.9903  0.7444
 8962SOL     OW27784   3.423   2.825   2.335  0.1035  0.0149  0.1786
 8962SOL    HW127785   3.388   2.870   2.417  0.8186 -0.0950  0.5501
 8962SOL    HW227786   3.393   2.730   2.334 -1.4160  0.4580 -0.6099
 8963SOL     OW27787   0.647   1.217   6.095  0.0516  0.4017  0.3193
 8963SOL    HW127788   0.723   1.162   6.059 -0.8728 -0.5139 -0.2655
 8963SOL    HW227789   0.668   1.314   6.081  0.8415  0.1461 -0.3944
 8964SOL     OW27790   0.862   1.712   5.293  0.2369  0.1839  0.6510
 8964SOL    HW127791   0.925   1.681   5.222  0.4139  1.5951  0.1591
 8964SOL    HW227792   0.913   1.766   5.360 -0.2009  0.0859  1.0666
 8965SOL     OW27793   6.740   4.634   0.921  0.4048  0.1313 -0.3601
 8965SOL    HW127794   6.764   4.707   0.985  0.7149  0.9220 -1.3447
 8965SOL    HW227795   6.688   4.563   0.969 -1.0413  1.6078  0.3604
 8966SOL     OW27796   2.064   3.958   0.062  0.0261 -0.0215  0.3715
 8966SOL    HW127797   1.968   3.974   0.040 -0.0295 -0.0634  0.5808
 8966SOL    HW227798   2.115   3.943  -0.022 -0.3890 -1.3453  0.3188
 8967SOL     OW27799   7.009   1.453   2.478 -0.2726  0.0795 -0.2763
 8967SOL    HW127800   7.028   1.501   2.392 -1.1223  1.2834  0.1764
 8967SOL    HW227801   7.052   1.503   2.553 -0.5051 -0.3230  0.1261
 8968SOL     OW27802   4.810   5.666   5.548 -0.3319  0.7061  0.5474
 8968SOL    HW127803   4.783   5.760   5.569 -1.2523  0.9152 -1.3798
 8968SOL    HW227804   4.881   5.666   5.478  0.0357 -0.0403  0.9076
 8969SOL     OW27805   4.189   0.225   4.292  0.4596 -0.0007 -0.4411
 8969SOL    HW127806   4.240   0.202   4.210  0.6172 -1.8801  0.1395
 8969SOL    HW227807   4.121   0.154   4.311 -0.8721  1.3281  0.0467
 8970SOL     OW27808   4.901   1.912   4.918  0.1729  0.1645  0.6485
 8970SOL    HW127809   4.973   1.902   4.850 -0.7787  0.8499 -0.5151
 8970SOL    HW227810   4.822   1.956   4.875  0.1854  2.2933  2.6252
 8971SOL     OW27811   3.707   0.985   0.844  0.1661  0.7555 -0.1655
 8971SOL    HW127812   3.738   1.020   0.932  0.8701 -1.2680  0.4423
 8971SOL    HW227813   3.784   0.981   0.781  0.7248 -2.0492  0.5980
 8972SOL     OW27814   3.134   4.321   5.502 -0.4673  0.3857 -0.2236
 8972SOL    HW127815   3.158   4.418   5.503 -1.8056  0.7292 -0.5221
 8972SOL    HW227816   3.138   4.286   5.408  1.8988 -0.3680  0.0873
 8973SOL     OW27817   5.338   4.964   3.947 -0.9000  0.4108  0.5120
 8973SOL    HW127818   5.342   4.864   3.942 -2.0067  0.3188  1.2144
 8973SOL    HW227819   5.289   4.999   3.867  2.1466  0.6749 -1.4487
 8974SOL     OW27820   0.337   0.944   2.289 -0.5318  0.2441 -0.1255
 8974SOL    HW127821   0.412   1.008   2.304 -0.6087  0.2164  0.3838
 8974SOL    HW227822   0.330   0.881   2.366 -0.2984 -0.5499 -0.7377
 8975SOL     OW27823   5.521   2.355   1.108  0.4894  0.1197 -0.0046
 8975SOL    HW127824   5.541   2.365   1.205  0.1144 -0.1200  0.0968
 8975SOL    HW227825   5.480   2.439   1.073 -1.3648 -0.5126  0.5341
 8976SOL     OW27826   2.789   6.850   0.820  0.1367  0.2844 -0.2306
 8976SOL    HW127827   2.744   6.908   0.752 -1.6619 -0.0908  0.5621
 8976SOL    HW227828   2.843   6.780   0.774 -0.1077  0.7487 -1.2503
 8977SOL     OW27829   6.864   4.811   6.424  0.5449  0.1352  0.2006
 8977SOL    HW127830   6.905   4.877   6.361  1.5649  0.6311  1.3368
 8977SOL    HW227831   6.775   4.783   6.389  0.6759  1.0867 -0.9893
 8978SOL     OW27832   1.171   4.769   5.214  0.5147  0.1832  0.1688
 8978SOL    HW127833   1.155   4.816   5.300  0.9549 -0.4778  0.6280
 8978SOL    HW227834   1.087   4.767   5.160  0.7065  2.2392 -0.2579
 8979SOL     OW27835   0.282   6.286   1.174 -0.0859  0.4284 -0.1312
 8979SOL    HW127836   0.382   6.286   1.170 -0.0651  2.3169 -0.4466
 8979SOL    HW227837   0.245   6.286   1.081 -0.3736  0.3749 -0.0178
 8980SOL     OW27838   0.518   3.841   2.092  0.5715  0.3885  0.0006
 8980SOL    HW127839   0.618   3.854   2.091  0.4793  1.7957  2.2392
 8980SOL    HW227840   0.475   3.902   2.026  1.1384  0.2069 -0.5471
 8981SOL     OW27841   2.115   3.549   4.755 -0.3829  0.3242 -0.3688
 8981SOL    HW127842   2.094   3.483   4.828  0.7314  0.7525  0.3553
 8981SOL    HW227843   2.133   3.639   4.795  1.5981  0.2609 -1.0316
 8982SOL     OW27844   5.161   4.249   0.116  0.7957 -0.1309  0.1815
 8982SOL    HW127845   5.227   4.177   0.138  0.1232 -0.2031  2.0961
 8982SOL    HW227846   5.089   4.251   0.184 -1.1380  0.0847 -1.7558
 8983SOL     OW27847   2.221   1.504   5.157  0.7134 -0.0252 -0.5954
 8983SOL    HW127848   2.268   1.520   5.070  0.1441  3.3617 -0.4433
 8983SOL    HW227849   2.257   1.568   5.226 -1.6151  0.2300  0.4871
 8984SOL     OW27850   6.203   0.155   6.949 -0.1171  0.4028  0.3939
 8984SOL    HW127851   6.291   0.117   6.921 -0.9986 -1.9810  0.5833
 8984SOL    HW227852   6.139   0.150   6.872 -0.0269  2.5065  0.1279
 8985SOL     OW27853   3.135   1.246   6.026  0.2090  0.4708 -0.4810
 8985SOL    HW127854   3.046   1.200   6.023  0.8514 -0.7657 -2.2775
 8985SOL    HW227855   3.205   1.183   6.059  0.5635  1.2265  0.2544
 8986SOL     OW27856   0.935   2.170   5.433 -0.0854  0.4373  0.0921
 8986SOL    HW127857   1.022   2.193   5.477 -0.5721 -0.2133  1.4749
 8986SOL    HW227858   0.951   2.141   5.339  1.5710 -2.4482  1.1361
 8987SOL     OW27859   5.637   4.535   0.202 -0.1274  0.2617  0.1993
 8987SOL    HW127860   5.687   4.592   0.267  1.6652  0.3960 -1.2375
 8987SOL    HW227861   5.570   4.591   0.154  2.0809  1.4360 -1.6823
 8988SOL     OW27862   2.891   4.804   3.381  0.3825  0.1913  0.1262
 8988SOL    HW127863   2.885   4.839   3.288  2.2720  2.3398  0.7193
 8988SOL    HW227864   2.804   4.820   3.428  0.5261  2.4112 -0.2460
 8989SOL     OW27865   2.067   5.973   5.296  0.4070 -0.1865  0.2292
 8989SOL    HW127866   2.102   5.895   5.244  0.1480 -0.0394 -0.1679
 8989SOL    HW227867   1.969   5.984   5.277  0.7275  1.1147 -0.8551
 8990SOL     OW27868   0.066   1.473   6.839 -0.3023  0.3313  0.8148
 8990SOL    HW127869   0.023   1.560   6.861 -0.4743 -0.0383  1.9947
 8990SOL    HW227870   0.018   1.431   6.762 -1.7541  0.1722  1.7669
 8991SOL     OW27871   4.588   3.650   1.473  0.3614 -0.3822 -0.1018
 8991SOL    HW127872   4.675   3.639   1.425  0.8508  2.3960 -0.0123
 8991SOL    HW227873   4.517   3.676   1.408  0.3582  0.4984  0.2358
 8992SOL     OW27874   1.128   0.521   6.262  0.0260 -0.2560  0.3977
 8992SOL    HW127875   1.108   0.517   6.164  1.2720  1.1431  0.0434
 8992SOL    HW227876   1.180   0.605   6.282  0.5298 -0.9323  2.1154
 8993SOL     OW27877   1.711   6.294   1.831 -0.4691  0.3139  0.6522
 8993SOL    HW127878   1.786   6.342   1.876  1.2048 -2.4949  1.0873
 8993SOL    HW227879   1.648   6.259   1.900  1.0266 -2.2776  0.8186
 8994SOL     OW27880   4.835   3.223   3.250 -0.1244 -0.4288  0.1836
 8994SOL    HW127881   4.840   3.321   3.266  0.3978 -0.1746 -1.4172
 8994SOL    HW227882   4.836   3.175   3.338 -0.6427  0.9902  0.9949
 8995SOL     OW27883   4.693   4.202   6.701 -0.2262 -0.2082  0.2272
 8995SOL    HW127884   4.679   4.194   6.602 -1.1311  1.5835  0.1643
 8995SOL    HW227885   4.605   4.214   6.746  0.3475  2.4611  0.8307
 8996SOL     OW27886   5.977   6.640   3.973 -0.0127  0.4021  0.3908
 8996SOL    HW127887   5.931   6.609   3.890  1.0394 -0.5124  0.1294
 8996SOL    HW227888   5.908   6.656   4.045 -0.7774 -0.5004 -0.1200
 8997SOL     OW27889   0.002   0.324   4.342  0.1056 -0.2385 -0.5883
 8997SOL    HW127890   0.076   0.328   4.275  0.5725  0.8812 -0.0508
 8997SOL    HW227891  -0.074   0.383   4.312  0.0397 -0.2546 -0.4553
 8998SOL     OW27892   0.608   6.199   5.570 -0.2247  0.3557 -0.7188
 8998SOL    HW127893   0.654   6.228   5.654  1.1302 -0.0646 -1.2789
 8998SOL    HW227894   0.621   6.101   5.558 -1.0038  0.2911 -1.0713
 8999SOL     OW27895   4.311   4.151   5.823  0.0186  0.5717  0.1598
 8999SOL    HW127896   4.309   4.175   5.920 -1.3379 -0.5461  0.4458
 8999SOL    HW227897   4.402   4.120   5.798  0.6478  1.7902  0.8173
 9000SOL     OW27898   4.925   2.413   6.566  0.1685 -0.2896 -0.0665
 9000SOL    HW127899   5.002   2.363   6.604  1.3352  0.7396 -0.9681
 9000SOL    HW227900   4.887   2.475   6.635  1.0057  0.1527  0.0073
 9001SOL     OW27901   3.984   0.456   5.151 -0.5766  0.2480  0.5916
 9001SOL    HW127902   4.040   0.454   5.234  0.1856  0.4378  0.0964
 9001SOL    HW227903   3.948   0.548   5.138  0.5198  0.6026 -0.0621
 9002SOL     OW27904   2.222   5.735   2.055  0.6920 -0.9595  0.3280
 9002SOL    HW127905   2.149   5.787   2.098  0.1461 -0.7223 -0.8422
 9002SOL    HW227906   2.298   5.797   2.032 -0.0278 -0.6012 -1.2189
 9003SOL     OW27907   5.224   3.711   2.497  0.2566 -0.2441 -0.8929
 9003SOL    HW127908   5.263   3.620   2.509  2.0903  0.4757 -1.1249
 9003SOL    HW227909   5.157   3.709   2.423 -0.0252 -1.4774 -0.6255
 9004SOL     OW27910   3.317   0.290   3.245 -0.2729 -0.6915 -0.7720
 9004SOL    HW127911   3.336   0.274   3.148 -0.4049 -0.6758 -0.8011
 9004SOL    HW227912   3.333   0.206   3.296  0.2239 -0.5808 -0.7409
 9005SOL     OW27913   1.609   3.047   5.695  0.0467  0.3120  0.0157
 9005SOL    HW127914   1.657   3.011   5.615  0.4414  2.9016 -1.0204
 9005SOL    HW227915   1.553   2.975   5.735  2.0105 -1.8380 -0.8647
 9006SOL     OW27916   5.761   6.599   6.969  0.3997 -0.1397 -0.3931
 9006SOL    HW127917   5.687   6.616   7.034  1.9728 -0.1198  1.4892
 9006SOL    HW227918   5.793   6.505   6.977  1.4018  0.1947 -0.2625
 9007SOL     OW27919   0.546   6.550   0.896  0.4297  0.1059  0.6522
 9007SOL    HW127920   0.586   6.569   0.985  1.7431 -0.6632  0.2511
 9007SOL    HW227921   0.614   6.505   0.837 -0.4915  0.3307 -0.6383
 9008SOL     OW27922   5.214   4.145   0.487 -0.4454 -0.6509 -0.0458
 9008SOL    HW127923   5.200   4.180   0.579  0.0706 -1.0632  0.1927
 9008SOL    HW227924   5.216   4.222   0.422  0.8460 -0.2027  0.4963
 9009SOL     OW27925   5.507   6.245   1.814  0.4410 -0.4180  0.2831
 9009SOL    HW127926   5.443   6.168   1.803 -1.0228  0.9194 -1.2061
 9009SOL    HW227927   5.583   6.235   1.750 -0.2409 -0.1746 -0.5783
 9010SOL     OW27928   2.773   1.140   6.385  0.5818  0.0429 -0.0493
 9010SOL    HW127929   2.854   1.083   6.371 -1.5665 -2.8718 -1.7375
 9010SOL    HW227930   2.721   1.106   6.463 -0.1615  0.4018 -0.3727
 9011SOL     OW27931   4.895   2.420   5.078  0.0675 -0.0901 -0.0480
 9011SOL    HW127932   4.849   2.339   5.116 -0.6302  0.8884  1.2666
 9011SOL    HW227933   4.962   2.454   5.144 -0.2274  0.8822 -0.2362
 9012SOL     OW27934   5.154   3.437   2.756  0.3980  0.5335  0.6151
 9012SOL    HW127935   5.182   3.464   2.664 -0.3537  1.4745  0.6523
 9012SOL    HW227936   5.061   3.401   2.753  0.1601  1.0928  1.0844
 9013SOL     OW27937   4.995   6.828   6.254  0.1312 -0.4071 -0.0870
 9013SOL    HW127938   5.030   6.772   6.180 -1.4624  0.2035 -1.3665
 9013SOL    HW227939   5.054   6.908   6.267 -0.0734 -0.0305 -1.3542
 9014SOL     OW27940   5.281   1.083   0.351 -0.8559  0.1163 -0.2095
 9014SOL    HW127941   5.189   1.055   0.326 -0.8035  0.8531 -1.3289
 9014SOL    HW227942   5.323   1.014   0.409 -2.5739  0.3753  1.4261
 9015SOL     OW27943   3.592   3.878   0.060  0.1978 -0.1678 -0.3123
 9015SOL    HW127944   3.549   3.791   0.036 -2.0671  1.5321 -3.1379
 9015SOL    HW227945   3.538   3.922   0.132  0.4318 -0.3906  0.0039
 9016SOL     OW27946   1.674   1.550   1.492 -0.0266 -0.1292  0.2262
 9016SOL    HW127947   1.758   1.588   1.453  0.4637 -0.0017  1.3563
 9016SOL    HW227948   1.659   1.589   1.582 -1.4710  0.0584 -0.0837
 9017SOL     OW27949   5.575   1.797   3.483 -0.4844  0.0685  0.5008
 9017SOL    HW127950   5.597   1.810   3.580 -2.3307  1.1354  0.8256
 9017SOL    HW227951   5.659   1.801   3.429  0.6441 -1.0764  2.0898
 9018SOL     OW27952   3.167   4.034   2.453  0.2284 -0.1936 -0.1691
 9018SOL    HW127953   3.237   3.976   2.410  0.3455 -0.5166  0.4557
 9018SOL    HW227954   3.099   3.977   2.498  0.7074  0.1432  1.0281
 9019SOL     OW27955   4.489   1.011   1.408  0.3925  0.0785  0.0569
 9019SOL    HW127956   4.572   1.044   1.453  0.3123 -0.0234  0.2834
 9019SOL    HW227957   4.457   0.928   1.455  0.6542 -0.3857 -0.5676
 9020SOL     OW27958   5.797   5.071   1.690  0.4389  0.0941 -0.2688
 9020SOL    HW127959   5.765   5.051   1.783  1.1212  2.5025  0.5534
 9020SOL    HW227960   5.895   5.055   1.684  0.2750 -0.7659 -0.8150
 9021SOL     OW27961   1.598   6.493   5.597  0.4229 -0.1265 -0.5895
 9021SOL    HW127962   1.529   6.497   5.525  0.2700  1.2341 -0.3835
 9021SOL    HW227963   1.563   6.439   5.674 -0.7636  1.2618 -0.1299
 9022SOL     OW27964   6.133   4.617   0.227 -0.3305  0.2301 -0.3013
 9022SOL    HW127965   6.114   4.690   0.292 -1.5336  0.2361 -0.6412
 9022SOL    HW227966   6.229   4.622   0.198  0.2950  0.1042  1.5999
 9023SOL     OW27967   4.800   0.605   6.096  0.3402 -0.0546  0.2902
 9023SOL    HW127968   4.868   0.625   6.026  0.2979  2.3676  0.8526
 9023SOL    HW227969   4.791   0.506   6.107  2.0591 -0.4541 -1.4182
 9024SOL     OW27970   0.067   4.961   0.016  0.0677  0.0925 -0.0782
 9024SOL    HW127971   0.015   4.912  -0.053 -1.2077 -0.1740  1.0345
 9024SOL    HW227972   0.126   5.028  -0.029  0.5014 -1.1866 -1.5056
 9025SOL     OW27973   6.196   1.418   4.500 -0.2085 -0.0432 -0.3088
 9025SOL    HW127974   6.108   1.461   4.479  0.1655  0.1401 -1.5591
 9025SOL    HW227975   6.222   1.442   4.594 -0.4956  1.6464 -0.6202
 9026SOL     OW27976   5.850   4.572   3.009  0.4383 -0.4929 -0.3580
 9026SOL    HW127977   5.830   4.494   3.069  1.0061  0.1973  0.7690
 9026SOL    HW227978   5.922   4.546   2.945  0.0987 -1.1206 -0.5012
 9027SOL     OW27979   3.169   2.933   6.036  0.9098  0.5976  0.3811
 9027SOL    HW127980   3.086   2.965   5.989 -0.6243 -0.3217  2.3383
 9027SOL    HW227981   3.191   2.840   6.006 -0.0992 -0.0084  1.4301
 9028SOL     OW27982   6.673   4.486   3.177 -0.6551  0.7916 -0.0568
 9028SOL    HW127983   6.747   4.508   3.114 -0.2855  0.1933  0.1576
 9028SOL    HW227984   6.711   4.474   3.269 -0.9143 -0.1166 -0.0553
 9029SOL     OW27985   1.962   0.821   6.095  0.1955 -1.1178 -0.1823
 9029SOL    HW127986   2.008   0.822   6.006 -0.4595 -2.8716 -0.5755
 9029SOL    HW227987   2.027   0.852   6.165  0.7795  0.1145 -1.1986
 9030SOL     OW27988   3.239   0.669   4.826  0.4515  0.3256  0.4648
 9030SOL    HW127989   3.301   0.699   4.899  2.3914 -1.6363 -0.2716
 9030SOL    HW227990   3.265   0.577   4.796  0.4464  1.4545 -3.4725
 9031SOL     OW27991   3.048   1.772   0.874 -0.1093 -0.7071 -0.2200
 9031SOL    HW127992   3.028   1.705   0.946  0.4332  0.1268  0.7342
 9031SOL    HW227993   3.088   1.854   0.915  1.8065 -0.8498 -1.6437
 9032SOL     OW27994   1.776   5.425   0.069 -0.4583  0.1220  0.2508
 9032SOL    HW127995   1.716   5.392   0.141 -2.3984  0.2087 -1.2507
 9032SOL    HW227996   1.858   5.367   0.064 -0.7883 -0.5131  1.7903
 9033SOL     OW27997   3.941   5.653   1.522 -0.0532 -0.5895 -0.5227
 9033SOL    HW127998   4.003   5.719   1.563  0.2852 -0.5346 -1.1028
 9033SOL    HW227999   3.960   5.562   1.558 -0.2689 -0.4277  0.0005
 9034SOL     OW28000   6.577   5.645   0.105  0.0909 -0.3295 -0.2160
 9034SOL    HW128001   6.657   5.615   0.054  1.8148 -0.8299  2.5517
 9034SOL    HW228002   6.605   5.713   0.173 -1.5370 -1.4558  1.6904
 9035SOL     OW28003   6.581   0.499   5.440  0.0552  0.0667 -0.4384
 9035SOL    HW128004   6.569   0.590   5.481  1.0455 -0.3663  0.9056
 9035SOL    HW228005   6.625   0.439   5.507  1.1214 -0.8865 -1.9413
 9036SOL     OW28006   0.019   4.781   1.237 -0.6785  0.5261 -0.5099
 9036SOL    HW128007   0.065   4.803   1.323 -2.0282  1.9107 -0.0769
 9036SOL    HW228008   0.034   4.685   1.213 -1.8474 -0.4706  2.3130
 9037SOL     OW28009   5.712   1.601   6.569 -0.0799 -0.0377  0.1346
 9037SOL    HW128010   5.612   1.607   6.569 -0.1529 -0.6525 -1.3897
 9037SOL    HW228011   5.740   1.505   6.557  0.7683 -0.3198  3.4917
 9038SOL     OW28012   3.497   5.221   3.331  0.0220  0.7165  0.0643
 9038SOL    HW128013   3.549   5.171   3.262  0.1544  1.1232 -0.1327
 9038SOL    HW228014   3.428   5.161   3.372  2.3257 -0.6851  2.2105
 9039SOL     OW28015   3.616   5.179   6.692  0.2575 -0.4938  0.2809
 9039SOL    HW128016   3.677   5.206   6.766  0.4768  2.5105 -0.8437
 9039SOL    HW228017   3.524   5.215   6.709  0.7717  2.1433 -1.7070
 9040SOL     OW28018   0.652   0.685   4.766 -0.2429 -0.3025  0.4060
 9040SOL    HW128019   0.646   0.599   4.818  1.3416 -1.6298 -1.4651
 9040SOL    HW228020   0.586   0.682   4.691 -0.5768  0.3911  0.6655
 9041SOL     OW28021   2.264   6.611   6.971 -0.1453  0.1057 -0.4644
 9041SOL    HW128022   2.310   6.664   6.900 -1.7297  2.7385  0.3265
 9041SOL    HW228023   2.212   6.673   7.030 -1.5905 -2.3272  0.9783
 9042SOL     OW28024   0.875   3.095   3.599  0.0046 -0.5389 -0.3447
 9042SOL    HW128025   0.923   3.153   3.665 -1.5609  1.5018 -0.9047
 9042SOL    HW228026   0.931   3.086   3.516  0.7118 -0.7234  0.1404
 9043SOL     OW28027   5.662   6.139   6.580 -0.3836  0.4524 -0.1010
 9043SOL    HW128028   5.591   6.107   6.642 -0.7094 -0.0362 -0.7177
 9043SOL    HW228029   5.707   6.060   6.537 -0.6453  0.7928 -1.0187
 9044SOL     OW28030   1.726   4.218   3.004  0.6298  0.1742 -0.1019
 9044SOL    HW128031   1.675   4.157   2.944 -2.1998  0.2974  1.9769
 9044SOL    HW228032   1.776   4.165   3.072 -0.5617  0.0750  0.7290
 9045SOL     OW28033   5.870   4.138   4.916  0.3540 -0.0742  0.1652
 9045SOL    HW128034   5.950   4.172   4.964 -1.4211 -0.5972  3.8543
 9045SOL    HW228035   5.789   4.187   4.947 -1.2144 -2.0606 -0.5489
 9046SOL     OW28036   2.726   5.916   1.009  0.6250 -0.0999  0.0366
 9046SOL    HW128037   2.737   5.822   0.977 -0.2912 -0.6353  1.2106
 9046SOL    HW228038   2.630   5.943   1.000  0.9080  0.8015 -0.4455
 9047SOL     OW28039   5.069   3.893   3.828  0.9740  0.1033 -0.5319
 9047SOL    HW128040   4.973   3.868   3.829  0.4100  2.0308  0.9654
 9047SOL    HW228041   5.111   3.864   3.742 -0.5883 -1.9168 -0.6647
 9048SOL     OW28042   5.343   0.253   4.343 -0.1376  0.1881  0.1289
 9048SOL    HW128043   5.360   0.161   4.378  1.3145  0.7403  0.9803
 9048SOL    HW228044   5.423   0.284   4.292 -0.7441  0.8660 -0.4323
 9049SOL     OW28045   6.568   2.771   0.464  0.4924  0.0424  0.2704
 9049SOL    HW128046   6.541   2.791   0.370 -1.5637 -0.7880  0.6241
 9049SOL    HW228047   6.667   2.775   0.472  0.6525  1.2804 -1.6476
 9050SOL     OW28048   6.593   1.136   4.443  0.5674  0.4334 -1.0312
 9050SOL    HW128049   6.628   1.042   4.441  1.6240  0.8107 -0.7575
 9050SOL    HW228050   6.556   1.155   4.534 -1.8743 -0.4828 -1.7659
 9051SOL     OW28051   3.589   3.486   6.739 -0.0859 -0.2336  0.4585
 9051SOL    HW128052   3.575   3.450   6.831 -2.6639 -0.2038  0.1525
 9051SOL    HW228053   3.576   3.585   6.739  1.4958  0.0091  0.2937
 9052SOL     OW28054   4.530   5.967   5.482 -0.3487 -0.1063  0.1238
 9052SOL    HW128055   4.487   6.048   5.523  1.1561  0.3466  0.8572
 9052SOL    HW228056   4.460   5.913   5.435 -1.2880  1.9260 -0.9205
 9053SOL     OW28057   5.207   2.177   5.755 -0.2125 -0.1155 -0.3475
 9053SOL    HW128058   5.205   2.223   5.666  0.6535  0.9462  0.1609
 9053SOL    HW228059   5.157   2.231   5.822 -1.2594 -1.1434 -0.2705
 9054SOL     OW28060   3.716   5.417   3.347 -0.1656  0.1625 -0.3276
 9054SOL    HW128061   3.649   5.344   3.358 -0.0098  0.1200  0.3336
 9054SOL    HW228062   3.710   5.481   3.424 -0.1309  0.7169 -0.7729
 9055SOL     OW28063   4.048   2.332   5.565 -0.3024 -0.3941  0.0889
 9055SOL    HW128064   4.136   2.289   5.543  0.2121 -0.0439  1.3790
 9055SOL    HW228065   4.016   2.385   5.486  1.7073  1.2356  0.2821
 9056SOL     OW28066   5.527   3.553   6.189 -0.2476 -0.6817  0.4271
 9056SOL    HW128067   5.454   3.585   6.129 -0.4140  0.5143  1.2193
 9056SOL    HW228068   5.522   3.602   6.277  1.9350  0.0098  0.2358
 9057SOL     OW28069   4.537   1.871   1.759 -0.4034  0.6386  0.2431
 9057SOL    HW128070   4.475   1.912   1.826  0.1434  1.4714  0.2406
 9057SOL    HW228071   4.484   1.843   1.678 -0.8869  0.6744  0.5449
 9058SOL     OW28072   2.992   2.190   4.596 -0.2958  0.6848 -0.0076
 9058SOL    HW128073   2.927   2.231   4.532 -0.9972  0.1268  0.3278
 9058SOL    HW228074   2.986   2.237   4.684  0.3444  1.1552 -0.2016
 9059SOL     OW28075   4.845   1.222   0.267  0.3088  0.3171 -0.3365
 9059SOL    HW128076   4.911   1.223   0.191  0.8219 -0.3838  0.0827
 9059SOL    HW228077   4.894   1.236   0.353 -0.0838 -0.2415 -0.0188
 9060SOL     OW28078   1.893   0.666   1.701  0.2086  0.4864 -0.3944
 9060SOL    HW128079   1.863   0.719   1.780  0.1733  1.1255 -0.8260
 9060SOL    HW228080   1.947   0.725   1.641 -1.4980  0.5980 -1.8869
 9061SOL     OW28081   6.689   3.804   0.748 -0.5230 -0.0565 -0.0619
 9061SOL    HW128082   6.733   3.890   0.773  0.0527 -0.0110 -1.1614
 9061SOL    HW228083   6.687   3.743   0.827 -1.6870  1.2592  0.9660
 9062SOL     OW28084   0.008   0.630   6.514  0.0716  0.5385 -0.7017
 9062SOL    HW128085  -0.035   0.645   6.603  1.7806  1.9932 -0.0606
 9062SOL    HW228086  -0.062   0.633   6.442 -0.9561  2.6265  0.2965
 9063SOL     OW28087   1.787   0.639   0.600 -0.2380 -0.2779  0.4209
 9063SOL    HW128088   1.879   0.622   0.636 -0.1121 -2.7799 -0.8614
 9063SOL    HW228089   1.720   0.600   0.662 -0.1949 -1.6168 -0.3310
 9064SOL     OW28090   2.163   1.908   2.229 -0.1046  0.0826 -0.9433
 9064SOL    HW128091   2.235   1.862   2.281 -0.9085  0.2638  0.3927
 9064SOL    HW228092   2.203   1.959   2.153  0.9323 -1.6113 -1.5732
 9065SOL     OW28093   0.020   3.386   3.096  0.4253  0.4647  0.2380
 9065SOL    HW128094  -0.049   3.324   3.135  1.0229 -0.1767  0.3027
 9065SOL    HW228095   0.084   3.413   3.168  0.7346  0.3706  0.0016
 9066SOL     OW28096   0.755   6.674   4.369  0.0973  0.3373  0.1402
 9066SOL    HW128097   0.711   6.656   4.457  0.4101  1.0386  0.4483
 9066SOL    HW228098   0.851   6.700   4.384 -0.1165  1.4226 -0.3356
 9067SOL     OW28099   6.728   3.811   2.878 -0.1548 -0.2527 -0.1996
 9067SOL    HW128100   6.628   3.820   2.871 -0.1184  1.3056  0.8011
 9067SOL    HW228101   6.769   3.902   2.881  1.0717 -0.8143  2.1468
 9068SOL     OW28102   5.070   0.567   4.638 -0.2770  0.5740 -0.2098
 9068SOL    HW128103   5.072   0.666   4.656 -0.1283  0.3241  1.2571
 9068SOL    HW228104   5.163   0.532   4.636 -0.3482  0.3925 -0.3016
 9069SOL     OW28105   1.443   5.855   2.377 -0.5473  0.1094 -0.5672
 9069SOL    HW128106   1.528   5.814   2.410 -0.2576  0.4612 -0.8793
 9069SOL    HW228107   1.374   5.852   2.450 -0.3801 -0.4957 -0.4310
 9070SOL     OW28108   4.048   3.477   3.698  0.2545 -0.4086  0.3882
 9070SOL    HW128109   4.074   3.474   3.602  0.7107  0.0735  0.4905
 9070SOL    HW228110   4.065   3.569   3.735 -0.9057 -0.2771  0.6576
 9071SOL     OW28111   4.256   0.546   1.784 -0.2997 -0.4286 -0.2980
 9071SOL    HW128112   4.229   0.633   1.742  1.9895 -0.3334 -1.7538
 9071SOL    HW228113   4.310   0.564   1.866 -0.6084 -0.5009 -0.0789
 9072SOL     OW28114   5.456   1.484   1.943  0.1680 -0.2411 -0.1060
 9072SOL    HW128115   5.432   1.387   1.950 -0.7257 -0.0630 -0.5201
 9072SOL    HW228116   5.475   1.521   2.033 -2.0749 -0.1720  0.3784
 9073SOL     OW28117   1.410   1.599   4.447 -0.1119 -0.1262 -0.5748
 9073SOL    HW128118   1.320   1.578   4.409 -0.0290 -1.1337 -0.2404
 9073SOL    HW228119   1.411   1.693   4.481 -1.4534 -0.4802  0.5591
 9074SOL     OW28120   2.662   0.102   0.755  0.2146 -0.1008  0.3778
 9074SOL    HW128121   2.599   0.162   0.804  0.4108  1.4084 -1.0901
 9074SOL    HW228122   2.750   0.148   0.743 -0.2044  0.1857 -2.4013
 9075SOL     OW28123   5.487   4.134   5.556  0.1154  0.5496  0.0847
 9075SOL    HW128124   5.416   4.157   5.623 -0.2514  1.5272 -0.6188
 9075SOL    HW228125   5.466   4.178   5.469  1.2702  0.3396 -0.3142
 9076SOL     OW28126   2.154   3.747   4.933  0.1844  0.4326 -0.6424
 9076SOL    HW128127   2.065   3.773   4.971 -0.4900 -1.7275 -0.6253
 9076SOL    HW228128   2.221   3.817   4.955 -0.9293  0.8814  1.6160
 9077SOL     OW28129   0.301   3.874   4.290 -0.3343  0.6902  0.4937
 9077SOL    HW128130   0.279   3.808   4.362 -1.1953 -0.4396 -0.7582
 9077SOL    HW228131   0.398   3.898   4.295 -0.1743 -0.0932  1.4159
 9078SOL     OW28132   3.361   0.082   0.464  0.0077  0.5455 -0.1879
 9078SOL    HW128133   3.402   0.130   0.386  0.7347 -1.3090 -1.0176
 9078SOL    HW228134   3.422   0.009   0.494 -1.3141 -0.2744  0.6183
 9079SOL     OW28135   3.572   6.093   3.171  0.1237 -0.4159  0.3029
 9079SOL    HW128136   3.561   6.077   3.073 -0.8226  1.5156  0.0390
 9079SOL    HW228137   3.662   6.060   3.200  0.4457 -0.9619 -1.2150
 9080SOL     OW28138   1.809   4.486   3.968  0.0145 -0.5056 -0.2348
 9080SOL    HW128139   1.773   4.558   3.909 -0.9447 -0.3712  0.4931
 9080SOL    HW228140   1.909   4.484   3.961  0.2084  1.8526  0.7784
 9081SOL     OW28141   1.029   4.526   1.321  0.0481  0.0909  0.1696
 9081SOL    HW128142   1.064   4.545   1.230  0.7003 -0.0342  0.3916
 9081SOL    HW228143   0.948   4.467   1.314 -0.1805  0.4564 -0.3449
 9082SOL     OW28144   3.136   0.927   4.407  0.1861 -0.2399 -0.1403
 9082SOL    HW128145   3.191   1.002   4.444 -0.3359 -0.8821  2.1045
 9082SOL    HW228146   3.156   0.843   4.459 -0.7305 -1.1792 -1.2633
 9083SOL     OW28147   5.989   3.641   3.245  0.0396  0.5353  0.5477
 9083SOL    HW128148   5.983   3.571   3.174  0.0727 -0.9887  1.9817
 9083SOL    HW228149   5.897   3.664   3.278  0.0747  0.6182  0.5905
 9084SOL     OW28150   1.866   6.111   6.135  0.5594 -0.2272  0.2232
 9084SOL    HW128151   1.884   6.185   6.199 -2.1495  1.2344 -0.5606
 9084SOL    HW228152   1.865   6.147   6.042  2.7745 -2.0110 -0.5924
 9085SOL     OW28153   3.564   6.880   3.066  0.4517 -0.0518  0.9206
 9085SOL    HW128154   3.480   6.932   3.084  0.9383  0.5103  1.6293
 9085SOL    HW228155   3.556   6.789   3.106  0.0998 -0.0722  0.8090
 9086SOL     OW28156   6.440   4.574   6.717  0.1019 -0.0470  0.0461
 9086SOL    HW128157   6.349   4.606   6.741  0.6196  2.1089 -0.6194
 9086SOL    HW228158   6.504   4.600   6.790  0.5367  0.5333 -0.5206
 9087SOL     OW28159   1.010   5.413   2.210  0.2791 -0.5790 -0.9679
 9087SOL    HW128160   0.980   5.444   2.120  1.0771 -0.4536 -1.1947
 9087SOL    HW228161   1.110   5.415   2.215  0.2337 -0.3020  0.0193
 9088SOL     OW28162   1.064   5.791   3.405  0.0415  0.2086 -0.1065
 9088SOL    HW128163   1.115   5.705   3.399  0.3674  0.4433 -0.8897
 9088SOL    HW228164   1.080   5.835   3.493 -0.8314 -0.9639  0.6637
 9089SOL     OW28165   2.284   6.545   0.246  0.0205 -0.8979  0.2122
 9089SOL    HW128166   2.309   6.523   0.152 -1.2504 -1.8407  0.0666
 9089SOL    HW228167   2.354   6.510   0.308  1.3336  0.5398 -0.4085
 9090SOL     OW28168   4.575   0.416   0.232  0.0597  0.4243  0.0348
 9090SOL    HW128169   4.530   0.394   0.319 -1.9090  1.3726 -0.6805
 9090SOL    HW228170   4.626   0.501   0.241  1.8467 -0.6588  0.8522
 9091SOL     OW28171   0.812   3.829   2.449  0.2170  0.8915  0.6699
 9091SOL    HW128172   0.729   3.842   2.395 -0.0268  0.5926  0.9737
 9091SOL    HW228173   0.790   3.787   2.537  0.6709  0.9391  0.8135
 9092SOL     OW28174   1.794   3.792   4.239  0.6465 -0.6088 -0.0358
 9092SOL    HW128175   1.821   3.843   4.321  0.6563  0.2590 -0.5707
 9092SOL    HW228176   1.869   3.730   4.213  2.1595  1.6282 -1.3835
 9093SOL     OW28177   4.827   4.333   0.714 -0.2994  0.4734 -0.3096
 9093SOL    HW128178   4.747   4.376   0.756 -1.0285  0.2572 -1.4358
 9093SOL    HW228179   4.901   4.329   0.780 -1.5320 -0.1988  1.0964
 9094SOL     OW28180   6.052   2.862   6.974 -0.2568  0.1327 -0.1883
 9094SOL    HW128181   6.141   2.859   6.929  0.8263  2.1135  1.6053
 9094SOL    HW228182   5.980   2.878   6.906  1.0481  0.8573 -1.4449
 9095SOL     OW28183   0.034   5.730   6.378 -0.2706  0.2392 -0.1352
 9095SOL    HW128184   0.072   5.668   6.308 -4.3066  0.7450 -3.1397
 9095SOL    HW228185   0.074   5.821   6.366 -0.2827  0.1131 -1.2806
 9096SOL     OW28186   0.975   3.073   1.791  0.7382 -0.1521  0.1483
 9096SOL    HW128187   0.953   3.084   1.888 -0.9751  0.2543 -0.2470
 9096SOL    HW228188   1.050   3.134   1.766 -0.1012  1.2021  0.8216
 9097SOL     OW28189   4.614   4.072   0.160 -0.7579 -0.2854 -0.1121
 9097SOL    HW128190   4.644   4.158   0.201 -0.5468 -0.0894 -0.6745
 9097SOL    HW228191   4.555   4.024   0.225  0.6034 -0.5979  0.9377
 9098SOL     OW28192   0.736   2.773   5.236  0.3038 -0.1842  0.0755
 9098SOL    HW128193   0.825   2.800   5.274  0.1767  1.6249 -0.8149
 9098SOL    HW228194   0.665   2.836   5.267 -0.4299 -0.7880 -0.3223
 9099SOL     OW28195   0.162   3.288   3.719 -0.6540 -0.1163 -0.2543
 9099SOL    HW128196   0.152   3.189   3.732 -0.0646 -0.3122 -1.1615
 9099SOL    HW228197   0.223   3.324   3.789  2.8056 -1.2097 -2.4452
 9100SOL     OW28198   0.986   6.765   5.459  0.1648  0.3233 -0.0729
 9100SOL    HW128199   0.995   6.759   5.360 -0.6155  0.4275 -0.1594
 9100SOL    HW228200   0.933   6.847   5.482  0.2936  0.2672  0.4268
 9101SOL     OW28201   4.815   6.176   5.804 -0.3195 -0.5044 -0.3383
 9101SOL    HW128202   4.867   6.158   5.887 -0.6136 -0.3878 -0.1275
 9101SOL    HW228203   4.745   6.245   5.823 -0.4849 -0.5863 -0.6426
 9102SOL     OW28204   3.500   5.281   4.513  0.2449 -0.3364  0.8875
 9102SOL    HW128205   3.593   5.304   4.487 -0.1307  0.4423  0.1896
 9102SOL    HW228206   3.501   5.213   4.586  1.3527 -0.3137  0.8979
 9103SOL     OW28207   2.534   2.644   6.898  0.3094  0.2422 -1.0526
 9103SOL    HW128208   2.630   2.648   6.871  0.5961 -0.8449 -0.2372
 9103SOL    HW228209   2.512   2.723   6.955  0.9405  0.0624 -0.5604
 9104SOL     OW28210   6.392   1.316   4.349  0.0221  0.7659  0.3150
 9104SOL    HW128211   6.334   1.344   4.425 -0.4596 -0.6864  0.4935
 9104SOL    HW228212   6.468   1.261   4.383 -0.0166  0.3730 -0.2217
 9105SOL     OW28213   1.322   3.128   3.554  0.7266 -0.1729 -0.5409
 9105SOL    HW128214   1.336   3.219   3.515  0.7592 -0.4077 -1.0881
 9105SOL    HW228215   1.326   3.133   3.654 -0.3093  0.6043 -0.5180
 9106SOL     OW28216   0.553   3.801   0.296 -0.1732 -0.1206  0.3089
 9106SOL    HW128217   0.558   3.853   0.381  2.9251 -0.0145  0.1624
 9106SOL    HW228218   0.582   3.858   0.219 -2.6859 -0.2889 -0.8929
 9107SOL     OW28219   5.544   5.373   0.322 -0.4402  0.1239 -0.4038
 9107SOL    HW128220   5.584   5.324   0.245  1.5737  0.8646  0.1071
 9107SOL    HW228221   5.497   5.308   0.382 -1.4700 -0.5428 -1.8774
 9108SOL     OW28222   0.942   3.522   2.578  0.4333  0.2678 -0.3476
 9108SOL    HW128223   0.952   3.519   2.479 -0.2748  3.5152 -0.6221
 9108SOL    HW228224   1.032   3.511   2.621  0.8107 -0.6586 -1.3279
 9109SOL     OW28225   5.625   2.548   5.418 -0.2525  0.1289 -0.3878
 9109SOL    HW128226   5.672   2.520   5.334  1.1367  1.5133 -0.1114
 9109SOL    HW228227   5.545   2.603   5.395 -0.7665 -0.7635 -0.8140
 9110SOL     OW28228   4.457   5.007   3.267  0.3652  0.2053 -0.2243
 9110SOL    HW128229   4.421   4.972   3.354  2.7169 -1.7577  0.0682
 9110SOL    HW228230   4.433   5.104   3.258 -0.6257  0.2776  2.2259
 9111SOL     OW28231   1.842   1.582   1.791  0.2030 -0.4594 -0.0741
 9111SOL    HW128232   1.851   1.680   1.810 -1.7674 -0.1835 -0.3470
 9111SOL    HW228233   1.754   1.550   1.824  0.5302 -2.0039 -0.6279
 9112SOL     OW28234   6.565   5.056   2.289 -0.3214 -0.5763 -0.1016
 9112SOL    HW128235   6.501   5.114   2.340 -0.2499  0.5590 -1.2640
 9112SOL    HW228236   6.515   4.976   2.255 -1.1798  0.3533 -1.0933
 9113SOL     OW28237   0.972   5.551   1.624  0.1875  0.4900  0.7302
 9113SOL    HW128238   0.881   5.510   1.618 -0.1944  1.4607 -0.6433
 9113SOL    HW228239   0.975   5.618   1.697 -0.7144  1.6286 -0.2493
 9114SOL     OW28240   5.770   2.662   0.136  0.2958 -0.2108  0.1039
 9114SOL    HW128241   5.741   2.675   0.231 -0.5050  2.0986 -0.4118
 9114SOL    HW228242   5.870   2.666   0.131  0.3203  0.1508  0.7812
 9115SOL     OW28243   4.777   4.050   4.716 -0.7975  0.4290  0.0913
 9115SOL    HW128244   4.741   4.035   4.624  0.7083 -1.2207 -0.2690
 9115SOL    HW228245   4.818   3.966   4.751  1.2033  1.7703  1.1282
 9116SOL     OW28246   4.926   0.158   6.830 -0.3468  0.4192  0.1721
 9116SOL    HW128247   4.892   0.101   6.756  2.2481 -1.4805  0.2996
 9116SOL    HW228248   4.902   0.118   6.918  0.8828 -0.1703  0.2661
 9117SOL     OW28249   0.454   5.055   5.537  0.6290 -0.3230 -0.3979
 9117SOL    HW128250   0.414   5.115   5.468 -1.7179 -0.9107  0.3591
 9117SOL    HW228251   0.532   5.006   5.498 -0.2579 -0.2086 -2.4332
 9118SOL     OW28252   4.228   2.693   0.656  0.4269  0.4931  0.6237
 9118SOL    HW128253   4.255   2.782   0.619 -0.7944  0.6760  0.1304
 9118SOL    HW228254   4.182   2.640   0.585 -3.0683  1.3217  2.0923
 9119SOL     OW28255   0.015   5.135   5.826 -0.0660  0.1626  0.3335
 9119SOL    HW128256  -0.072   5.102   5.863 -1.1693  0.2446 -1.9913
 9119SOL    HW228257   0.061   5.061   5.778  0.8023  0.3164  0.9147
 9120SOL     OW28258   5.854   6.847   4.960 -0.2085 -0.1796  0.4380
 9120SOL    HW128259   5.865   6.939   4.921 -1.8439  0.2155  0.8289
 9120SOL    HW228260   5.816   6.854   5.052  0.9195 -1.2176  1.0084
 9121SOL     OW28261   4.519   6.477   4.435 -0.1646 -0.1931 -0.0191
 9121SOL    HW128262   4.475   6.406   4.380  0.8774 -0.7697 -0.1440
 9121SOL    HW228263   4.480   6.478   4.527 -0.1191 -0.9976  0.0140
 9122SOL     OW28264   0.111   1.786   6.117  0.2455 -0.2303  0.1819
 9122SOL    HW128265   0.184   1.723   6.142  0.3562  0.1249  0.7615
 9122SOL    HW228266   0.138   1.837   6.034  0.8406  0.1973  0.6254
 9123SOL     OW28267   5.848   0.241   4.954  0.1705 -0.4685  0.1958
 9123SOL    HW128268   5.776   0.222   5.021 -0.4874 -0.1027 -0.3906
 9123SOL    HW228269   5.928   0.277   5.001 -1.2922  2.6220  0.5749
 9124SOL     OW28270   5.767   5.297   0.609  0.7389  0.1086 -0.0042
 9124SOL    HW128271   5.762   5.349   0.524  0.1727 -0.8846 -0.6031
 9124SOL    HW228272   5.743   5.202   0.590  1.3046 -0.2755  1.1428
 9125SOL     OW28273   3.252   2.607   1.165 -0.0064 -0.4094 -0.0602
 9125SOL    HW128274   3.268   2.525   1.111  0.7089  0.3502 -1.0374
 9125SOL    HW228275   3.327   2.619   1.231 -0.6599 -1.1030  0.8344
 9126SOL     OW28276   2.103   5.468   5.842 -0.5174  0.5465  0.1395
 9126SOL    HW128277   2.152   5.539   5.791 -0.8437  0.4824 -0.2714
 9126SOL    HW228278   2.151   5.448   5.927 -1.1792  2.2677  0.9507
 9127SOL     OW28279   1.622   6.848   5.084  0.6964 -0.5641  0.3889
 9127SOL    HW128280   1.529   6.844   5.047  0.2609 -0.6988  1.4565
 9127SOL    HW228281   1.678   6.777   5.041  0.6110  0.2044 -1.0411
 9128SOL     OW28282   3.088   5.359   6.904  0.1974  0.7901 -0.5430
 9128SOL    HW128283   3.153   5.379   6.977  0.1200  1.4463 -0.6488
 9128SOL    HW228284   3.020   5.292   6.936  0.1836  1.0474 -0.0336
 9129SOL     OW28285   3.946   5.702   4.913  0.1762 -0.2061  0.0918
 9129SOL    HW128286   3.869   5.656   4.870 -0.5686 -0.5260  1.6705
 9129SOL    HW228287   3.946   5.681   5.011 -0.0079  2.8488  0.8639
 9130SOL     OW28288   4.798   0.824   0.939 -0.0395  0.4890 -0.0198
 9130SOL    HW128289   4.790   0.771   0.854  0.3379  0.1255  0.1665
 9130SOL    HW228290   4.736   0.786   1.007 -0.1771  0.6382 -0.0626
 9131SOL     OW28291   0.770   6.144   1.646  0.1290  0.0625  0.4798
 9131SOL    HW128292   0.778   6.243   1.633 -0.7170  0.3066  1.5822
 9131SOL    HW228293   0.856   6.100   1.622  1.5161  1.3901  2.6437
 9132SOL     OW28294   5.115   5.822   0.710  0.3358 -0.0829 -0.0622
 9132SOL    HW128295   5.033   5.793   0.759 -1.0816  1.4633 -1.3817
 9132SOL    HW228296   5.172   5.879   0.769  0.0279 -0.4616  0.6044
 9133SOL     OW28297   0.868   6.743   4.850 -0.3695  0.4001 -0.4394
 9133SOL    HW128298   0.877   6.811   4.777 -1.0539 -1.1191 -2.0184
 9133SOL    HW228299   0.955   6.695   4.861 -0.6831 -0.3904 -1.3331
 9134SOL     OW28300   6.179   4.203   4.319 -0.2466 -0.4339  0.3823
 9134SOL    HW128301   6.240   4.227   4.394 -0.9271 -3.3637  2.0640
 9134SOL    HW228302   6.212   4.119   4.275 -1.4769 -0.4189 -0.6226
 9135SOL     OW28303   4.868   3.355   4.254  0.7482  0.1779  0.3309
 9135SOL    HW128304   4.872   3.381   4.158  1.8087 -0.5380  0.1585
 9135SOL    HW228305   4.775   3.363   4.288 -0.2155 -2.0755 -1.4920
 9136SOL     OW28306   0.801   1.151   1.851  0.2879 -0.1212 -0.3220
 9136SOL    HW128307   0.785   1.226   1.916  2.2969  1.2977 -1.3730
 9136SOL    HW228308   0.748   1.168   1.767  1.4242  0.6349 -0.9068
 9137SOL     OW28309   6.020   4.436   6.878 -0.5710 -0.3324 -0.0640
 9137SOL    HW128310   5.981   4.346   6.894  0.0083 -0.5563  0.1155
 9137SOL    HW228311   5.991   4.498   6.951  0.1759 -0.7473  0.5968
 9138SOL     OW28312   2.259   2.815   6.640 -0.2589 -0.6926  0.9372
 9138SOL    HW128313   2.223   2.896   6.594  0.7179 -0.7237  0.0792
 9138SOL    HW228314   2.308   2.843   6.723  0.3159 -0.3736  0.4935
 9139SOL     OW28315   3.567   6.524   5.254 -0.1594 -0.2806 -0.3347
 9139SOL    HW128316   3.565   6.465   5.174  0.4212  1.1843 -1.4885
 9139SOL    HW228317   3.530   6.475   5.333  2.1062 -2.8643 -0.7243
 9140SOL     OW28318   3.756   0.878   3.800  0.2104 -0.0854  0.2868
 9140SOL    HW128319   3.808   0.793   3.796 -0.6052 -0.6268  0.7307
 9140SOL    HW228320   3.816   0.956   3.780  0.9300 -0.7744 -0.2884
 9141SOL     OW28321   4.709   2.819   4.333 -0.3931  0.0701  0.1363
 9141SOL    HW128322   4.764   2.900   4.353  0.4020 -0.4487  0.0869
 9141SOL    HW228323   4.709   2.759   4.413 -1.4077  0.3521  0.3590
 9142SOL     OW28324   6.973   1.077   4.260  0.0324 -0.1310 -0.0450
 9142SOL    HW128325   6.981   0.997   4.200 -2.0845  0.1438 -0.7828
 9142SOL    HW228326   6.898   1.062   4.325 -2.0895  2.0876 -1.7617
 9143SOL     OW28327   0.780   5.268   0.293 -0.0522  0.3981  0.4710
 9143SOL    HW128328   0.775   5.368   0.295  0.0885  0.4142  0.0405
 9143SOL    HW228329   0.783   5.234   0.387 -0.2996  0.7868  0.6250
 9144SOL     OW28330   6.140   0.794   2.447  0.4057 -0.4235 -0.0109
 9144SOL    HW128331   6.174   0.833   2.361  0.7462 -0.1518  0.2413
 9144SOL    HW228332   6.066   0.851   2.483  3.0597  1.9966  2.0592
 9145SOL     OW28333   1.136   3.849   3.747  0.1945  0.1388  0.1770
 9145SOL    HW128334   1.206   3.906   3.704  0.8141  0.5605  1.7039
 9145SOL    HW228335   1.054   3.903   3.762  0.0424  0.0408 -0.2711
 9146SOL     OW28336   6.864   0.809   2.220 -0.8494  0.4026 -0.3339
 9146SOL    HW128337   6.960   0.783   2.228 -1.7734 -3.0562  1.9504
 9146SOL    HW228338   6.845   0.887   2.279  0.0620 -0.7382  1.5429
 9147SOL     OW28339   3.749   6.587   1.027 -0.1681  0.4676 -0.0067
 9147SOL    HW128340   3.670   6.594   1.088 -0.3065 -0.7368 -0.0289
 9147SOL    HW228341   3.735   6.646   0.948 -0.7928  0.6983  0.2682
 9148SOL     OW28342   0.830   6.598   0.016 -0.1990  0.0810  0.3043
 9148SOL    HW128343   0.745   6.633   0.054  0.3454  1.0331  0.6728
 9148SOL    HW228344   0.835   6.499   0.030 -0.7510  0.1775  1.2425
 9149SOL     OW28345   2.937   0.968   1.917  0.3634  0.3676  0.6504
 9149SOL    HW128346   2.971   1.056   1.883 -1.6211  1.5836  1.6098
 9149SOL    HW228347   2.844   0.980   1.953  0.5845 -1.8387  2.1319
 9150SOL     OW28348   2.741   6.721   0.131 -0.5731 -0.2588  0.4931
 9150SOL    HW128349   2.731   6.709   0.033 -0.8335 -0.6558  0.5675
 9150SOL    HW228350   2.797   6.802   0.149  0.5010 -0.8705 -0.0002
 9151SOL     OW28351   4.542   2.638   4.808 -0.6731  0.4238 -0.1190
 9151SOL    HW128352   4.510   2.608   4.898  1.1929  2.4101  1.2989
 9151SOL    HW228353   4.497   2.584   4.738 -1.0693 -2.2965  2.0299
 9152SOL     OW28354   5.948   6.452   2.534  0.0976  0.4546 -0.1833
 9152SOL    HW128355   6.010   6.526   2.560 -0.0533  0.3239  0.5582
 9152SOL    HW228356   5.857   6.490   2.514  0.5307  0.7168 -1.8023
 9153SOL     OW28357   3.406   6.841   3.451  0.4750  0.0885 -1.0526
 9153SOL    HW128358   3.326   6.867   3.396 -0.0740  0.0507 -0.2957
 9153SOL    HW228359   3.407   6.895   3.535  0.9792 -0.2527 -0.8389
 9154SOL     OW28360   6.492   2.214   1.936 -0.0249 -0.3355  0.0825
 9154SOL    HW128361   6.392   2.207   1.935 -0.2039  1.4549  1.1369
 9154SOL    HW228362   6.522   2.239   2.028  1.2547  0.7362 -0.6059
 9155SOL     OW28363   6.001   4.930   3.566  0.1544  0.5650  0.8689
 9155SOL    HW128364   6.076   4.902   3.627  0.6320 -2.4407 -0.8563
 9155SOL    HW228365   5.930   4.860   3.567  0.8322 -0.4400 -2.8873
 9156SOL     OW28366   0.218   2.793   1.496  0.2108  0.0566  0.4837
 9156SOL    HW128367   0.248   2.888   1.506 -0.7419  0.6717 -1.8086
 9156SOL    HW228368   0.282   2.744   1.437 -0.7009  0.0604 -0.5465
 9157SOL     OW28369   4.058   0.428   6.752 -0.0473  0.6162 -0.4385
 9157SOL    HW128370   3.992   0.396   6.684  0.2387  0.1977 -0.5263
 9157SOL    HW228371   4.145   0.448   6.706 -0.0316  0.9071 -0.2840
 9158SOL     OW28372   1.830   3.051   5.019 -0.1032  0.3233  0.6142
 9158SOL    HW128373   1.855   3.014   5.109 -1.1313 -0.7023  0.5013
 9158SOL    HW228374   1.783   3.139   5.031  1.3006  1.0580  0.9561
 9159SOL     OW28375   3.758   3.362   2.118  0.0292 -0.3788  0.2877
 9159SOL    HW128376   3.764   3.457   2.150 -0.6892 -0.6782  1.3835
 9159SOL    HW228377   3.746   3.301   2.197  3.5505 -1.7425 -0.0698
 9160SOL     OW28378   1.251   0.466   4.820  0.1549 -0.4489  0.6109
 9160SOL    HW128379   1.316   0.461   4.744  0.7437  0.1322  1.0658
 9160SOL    HW228380   1.230   0.562   4.840  0.3186 -0.5711  1.4282
 9161SOL     OW28381   1.572   2.604   5.237  0.5972  0.8391  0.3382
 9161SOL    HW128382   1.671   2.593   5.232  0.3103 -2.5897 -0.5655
 9161SOL    HW228383   1.545   2.616   5.332  1.8009  0.3139  0.7707
 9162SOL     OW28384   6.949   5.122   6.498  0.2272  0.5509 -0.7503
 9162SOL    HW128385   6.940   5.153   6.403  0.6008  1.4921 -0.4949
 9162SOL    HW228386   6.982   5.198   6.554 -0.2462  0.0751  0.1864
 9163SOL     OW28387   3.080   0.708   0.427  0.1703  0.1120 -0.4640
 9163SOL    HW128388   2.983   0.729   0.421 -0.0378 -0.4756  0.6717
 9163SOL    HW228389   3.093   0.619   0.472  1.2582  0.7475  0.5392
 9164SOL     OW28390   2.295   5.180   1.241  0.3954 -0.2625 -0.4859
 9164SOL    HW128391   2.344   5.243   1.300  0.0435  0.3645 -0.8526
 9164SOL    HW228392   2.246   5.231   1.171 -1.2384 -0.8396  0.2038
 9165SOL     OW28393   3.823   6.389   4.375 -0.0099 -0.0336 -0.2493
 9165SOL    HW128394   3.852   6.482   4.355 -3.2332  1.2572  0.4350
 9165SOL    HW228395   3.823   6.374   4.474  0.1810 -0.6706 -0.3382
 9166SOL     OW28396   2.957   1.177   2.160 -0.1625 -0.0400  0.2603
 9166SOL    HW128397   2.902   1.093   2.159 -0.4650  0.1406 -1.4402
 9166SOL    HW228398   3.052   1.154   2.141  0.1085 -0.1754  1.6551
 9167SOL     OW28399   3.594   0.985   6.160 -0.1720 -0.1876  0.1241
 9167SOL    HW128400   3.618   0.888   6.155 -1.3734 -0.5320  0.5802
 9167SOL    HW228401   3.666   1.039   6.118  0.5214 -1.2769 -0.1467
 9168SOL     OW28402   3.798   6.078   2.201 -0.2552 -0.1875  0.0026
 9168SOL    HW128403   3.720   6.091   2.262 -0.8865 -1.2925 -0.5261
 9168SOL    HW228404   3.807   5.980   2.180  0.3217  0.1038 -1.1835
 9169SOL     OW28405   5.966   0.376   3.259  0.1036  0.2303  0.5914
 9169SOL    HW128406   6.008   0.467   3.265  2.2848 -0.7215  0.6402
 9169SOL    HW228407   5.982   0.337   3.168 -1.3853  0.1322  0.3513
 9170SOL     OW28408   6.603   2.753   4.579  0.2531  0.0713 -0.1262
 9170SOL    HW128409   6.646   2.696   4.509  1.8507 -0.2999  1.1070
 9170SOL    HW228410   6.634   2.725   4.669 -1.6413  0.6560  0.7649
 9171SOL     OW28411   0.590   1.180   4.599  0.0912  0.2158 -0.5158
 9171SOL    HW128412   0.549   1.202   4.688 -1.0069  0.5880 -1.0891
 9171SOL    HW228413   0.518   1.176   4.530  0.9336 -0.0611 -1.3975
 9172SOL     OW28414   5.426   3.883   2.488  0.0265  0.2192 -0.2604
 9172SOL    HW128415   5.358   3.814   2.513  0.2716 -0.0229 -0.2577
 9172SOL    HW228416   5.478   3.910   2.569  1.3239 -1.1074 -0.6011
 9173SOL     OW28417   3.655   1.804   6.162 -0.8406 -1.1433  0.0067
 9173SOL    HW128418   3.749   1.818   6.194 -0.9264 -1.3805  0.3654
 9173SOL    HW228419   3.657   1.756   6.075 -0.5977 -0.3317 -0.4514
 9174SOL     OW28420   0.018   2.448   4.848 -0.0323  0.3491 -0.1469
 9174SOL    HW128421  -0.001   2.398   4.763 -1.4972  0.7652 -0.1002
 9174SOL    HW228422  -0.029   2.536   4.845 -0.3462  0.2450  1.2128
 9175SOL     OW28423   2.443   5.287   4.442  0.3984 -0.7369  0.2589
 9175SOL    HW128424   2.539   5.288   4.413  0.5948 -0.7485  0.8985
 9175SOL    HW228425   2.438   5.290   4.542 -0.2752 -0.4546  0.2222
 9176SOL     OW28426   1.152   1.781   5.056 -0.0816 -0.5210  0.8005
 9176SOL    HW128427   1.166   1.738   5.145  1.1363 -2.6458 -0.3340
 9176SOL    HW228428   1.232   1.764   4.998 -0.4850  1.5328 -0.4525
 9177SOL     OW28429   5.433   1.046   3.365 -0.0612 -0.5126 -0.3700
 9177SOL    HW128430   5.516   1.070   3.416  0.6842 -1.7568 -0.9504
 9177SOL    HW228431   5.437   1.089   3.274 -0.1376 -0.4149 -0.3266
 9178SOL     OW28432   5.092   2.628   6.833 -0.7632  0.1550  0.0949
 9178SOL    HW128433   5.050   2.653   6.921 -0.1861 -1.6274  0.9168
 9178SOL    HW228434   5.077   2.531   6.815  0.8871  0.0313 -0.7954
 9179SOL     OW28435   5.336   1.161   2.461 -0.1676 -0.2528 -0.4442
 9179SOL    HW128436   5.416   1.109   2.492  0.4451  0.6160 -0.5136
 9179SOL    HW228437   5.322   1.239   2.521 -2.1833 -1.4542  0.7648
 9180SOL     OW28438   1.525   1.165   6.826  0.2800 -0.3479  0.0273
 9180SOL    HW128439   1.428   1.140   6.818 -0.0172  1.0011 -1.1700
 9180SOL    HW228440   1.574   1.093   6.874 -1.3981 -0.8635  1.0794
 9181SOL     OW28441   3.403   0.056   4.667 -0.3183 -0.2358 -0.0030
 9181SOL    HW128442   3.375  -0.035   4.637 -0.1628 -0.1864 -0.2940
 9181SOL    HW228443   3.337   0.123   4.634 -1.6526 -0.4629  2.0142
 9182SOL     OW28444   1.430   3.767   6.003 -0.1226  0.5903  0.1078
 9182SOL    HW128445   1.430   3.699   6.076 -1.1391  1.6223  1.1156
 9182SOL    HW228446   1.506   3.749   5.941  1.0639 -0.0544  1.6758
 9183SOL     OW28447   6.829   0.304   6.852  0.9768 -0.1202 -0.0418
 9183SOL    HW128448   6.920   0.263   6.858  0.7599 -0.8573 -1.4923
 9183SOL    HW228449   6.767   0.255   6.913  0.9581 -1.3558 -1.0138
 9184SOL     OW28450   6.334   0.931   0.206 -0.1579  0.4264  0.3792
 9184SOL    HW128451   6.353   1.022   0.169 -1.0710  0.7154  0.6094
 9184SOL    HW228452   6.347   0.863   0.134  0.2425  0.7627  0.1269
 9185SOL     OW28453   5.073   5.081   5.875 -0.2141 -0.0731  0.1687
 9185SOL    HW128454   5.054   4.984   5.884  0.2947 -0.0694  1.4786
 9185SOL    HW228455   5.172   5.095   5.860 -0.2395  0.2549  0.2840
 9186SOL     OW28456   6.580   3.091   2.769  0.2121 -0.4105  0.6939
 9186SOL    HW128457   6.665   3.052   2.805 -0.8683  0.2623  4.4647
 9186SOL    HW228458   6.507   3.024   2.778 -0.4911  0.4609  1.8087
 9187SOL     OW28459   1.778   5.978   1.161 -0.0310  0.2223  0.5374
 9187SOL    HW128460   1.856   5.954   1.103  0.5577 -0.0453  1.4169
 9187SOL    HW228461   1.703   5.914   1.143 -0.3560  0.9674 -0.8840
 9188SOL     OW28462   2.662   6.401   7.005  0.2504  0.0954 -0.1045
 9188SOL    HW128463   2.709   6.474   6.955  3.4983 -1.1617  0.8362
 9188SOL    HW228464   2.694   6.312   6.971 -0.4191 -0.8256  1.5480
 9189SOL     OW28465   5.037   0.415   3.482 -0.0603  0.0665  0.1257
 9189SOL    HW128466   5.028   0.503   3.529  0.1408  0.3416 -0.3451
 9189SOL    HW228467   4.990   0.344   3.535 -0.9262  0.6056  0.0933
 9190SOL     OW28468   6.021   2.885   1.020 -0.2763 -0.4699  0.2809
 9190SOL    HW128469   5.956   2.928   1.083  1.7302 -0.9836  2.9054
 9190SOL    HW228470   6.043   2.793   1.054  3.4950  0.5183  0.9504
 9191SOL     OW28471   3.466   4.611   6.258 -0.2744  0.1177  0.3052
 9191SOL    HW128472   3.544   4.629   6.317 -0.2202 -0.7897  0.5200
 9191SOL    HW228473   3.498   4.596   6.164 -0.2686  0.5318  0.2380
 9192SOL     OW28474   6.477   0.476   2.735  0.9156 -0.4773  0.2593
 9192SOL    HW128475   6.553   0.466   2.799  1.0573 -2.4779 -0.1591
 9192SOL    HW228476   6.490   0.559   2.680  2.2619 -0.2618  0.8721
 9193SOL     OW28477   6.521   1.920   6.403 -0.4666  0.3745  0.7173
 9193SOL    HW128478   6.543   1.832   6.445 -1.3967 -0.0079  0.4249
 9193SOL    HW228479   6.502   1.907   6.305  0.4135  1.0631  0.4336
 9194SOL     OW28480   3.942   1.234   6.211  0.2761  0.1484 -0.3209
 9194SOL    HW128481   3.932   1.203   6.305  0.8300  1.2462  0.1138
 9194SOL    HW228482   3.864   1.202   6.157 -0.9182  0.8872  0.8882
 9195SOL     OW28483   4.271   3.424   5.247 -0.4203 -0.6084 -0.0512
 9195SOL    HW128484   4.246   3.328   5.242 -3.2128 -0.0039  0.8542
 9195SOL    HW228485   4.230   3.465   5.329  0.4133  1.4438 -0.6034
 9196SOL     OW28486   4.854   6.668   3.109 -0.7841 -0.1158 -0.2527
 9196SOL    HW128487   4.874   6.704   3.200  0.2142  1.6479 -1.1272
 9196SOL    HW228488   4.919   6.705   3.043 -2.5395  0.0221 -1.9935
 9197SOL     OW28489   2.759   2.410   0.541 -0.1875  0.2660  0.2069
 9197SOL    HW128490   2.805   2.415   0.630 -0.8505 -0.6753  0.6237
 9197SOL    HW228491   2.826   2.400   0.468  0.7119  4.7945  0.1237
 9198SOL     OW28492   1.388   2.349   3.573  0.1579  0.2740  0.3053
 9198SOL    HW128493   1.479   2.375   3.604  0.1309 -0.2915  0.8715
 9198SOL    HW228494   1.347   2.285   3.638  0.5981 -1.9474 -1.4438
 9199SOL     OW28495   5.550   3.966   4.785  0.0195 -0.4425  0.1666
 9199SOL    HW128496   5.503   3.879   4.775  0.9250 -0.9285 -0.0034
 9199SOL    HW228497   5.620   3.974   4.714 -1.4779  1.3930 -1.2221
 9200SOL     OW28498   4.094   0.380   5.869  0.0280 -0.4896  0.0323
 9200SOL    HW128499   4.068   0.349   5.961 -1.6193 -1.4400 -0.7088
 9200SOL    HW228500   4.160   0.317   5.829 -0.8367 -1.2610 -0.2129
 9201SOL     OW28501   2.042   2.614   2.329 -0.8139  0.0131  0.4321
 9201SOL    HW128502   2.103   2.610   2.250 -0.7063  1.0617  0.4525
 9201SOL    HW228503   2.076   2.553   2.401  0.0151  0.3072  0.3000
 9202SOL     OW28504   5.257   4.810   1.544  0.7048  0.1056  0.1507
 9202SOL    HW128505   5.199   4.729   1.554  0.4085  0.1877 -0.8367
 9202SOL    HW228506   5.310   4.823   1.628 -1.2185  0.4519  1.3755
 9203SOL     OW28507   0.296   6.236   3.684 -0.3952 -0.5162 -0.0687
 9203SOL    HW128508   0.203   6.271   3.675 -1.1228 -1.4814  2.5651
 9203SOL    HW228509   0.298   6.167   3.757  2.5084 -0.1038  0.3566
 9204SOL     OW28510   5.130   4.571   1.572  0.0237  0.0254  0.2932
 9204SOL    HW128511   5.192   4.504   1.614  0.0837  0.4531  0.8943
 9204SOL    HW228512   5.037   4.534   1.572 -0.1476  0.3771  1.6673
 9205SOL     OW28513   5.561   1.739   1.900  0.5042 -0.0204  0.4820
 9205SOL    HW128514   5.503   1.660   1.878  0.6486  0.4776 -2.0414
 9205SOL    HW228515   5.506   1.809   1.945 -0.4885 -0.1952 -0.4196
 9206SOL     OW28516   5.518   5.891   3.683 -0.5649 -0.0713  0.2797
 9206SOL    HW128517   5.544   5.939   3.767 -0.8624 -0.3220  0.5184
 9206SOL    HW228518   5.556   5.938   3.604 -0.7834  0.5064  0.5185
 9207SOL     OW28519   2.098   3.210   6.729 -0.0853 -0.5609 -0.0946
 9207SOL    HW128520   2.040   3.182   6.805 -1.9374  1.6258 -0.5901
 9207SOL    HW228521   2.179   3.256   6.763 -0.6645 -0.0235  0.5732
 9208SOL     OW28522   6.575   5.959   3.567  0.2576  0.0338  0.1973
 9208SOL    HW128523   6.556   5.865   3.539  0.7062 -0.5777  1.8481
 9208SOL    HW228524   6.543   6.022   3.495 -1.7122 -1.2512 -0.1365
 9209SOL     OW28525   0.334   3.062   0.131 -0.0072  0.2344  0.6593
 9209SOL    HW128526   0.366   3.104   0.046  0.4789  0.1024  0.7722
 9209SOL    HW228527   0.270   2.988   0.110 -1.9544  1.8646  0.4875
 9210SOL     OW28528   4.495   5.248   6.144  0.5762  0.6248  0.0396
 9210SOL    HW128529   4.423   5.315   6.163 -0.8882 -1.0098  0.5040
 9210SOL    HW228530   4.575   5.295   6.106 -0.2171  2.6689  0.7604
 9211SOL     OW28531   0.872   1.816   4.058  0.2936 -0.4714  0.1761
 9211SOL    HW128532   0.853   1.906   4.098 -0.6209  0.0588 -1.3485
 9211SOL    HW228533   0.952   1.823   3.998  0.8971 -0.9536  0.9158
 9212SOL     OW28534   1.039   1.542   0.610  0.3446 -0.1988 -0.2275
 9212SOL    HW128535   0.992   1.469   0.659  1.0084  1.7811  3.8463
 9212SOL    HW228536   1.137   1.532   0.622  0.4481  1.1827  0.2946
 9213SOL     OW28537   1.970   0.207   4.539  0.2296  0.0890 -0.2159
 9213SOL    HW128538   2.000   0.303   4.538  0.5738 -0.0133 -0.0032
 9213SOL    HW228539   2.031   0.153   4.481  0.9319 -0.2556  0.8170
 9214SOL     OW28540   1.769   1.181   4.896 -0.2283 -0.0671 -0.0646
 9214SOL    HW128541   1.845   1.117   4.886 -0.4524 -0.2539 -0.5963
 9214SOL    HW228542   1.766   1.242   4.817 -1.0210 -0.4772 -0.3589
 9215SOL     OW28543   4.917   2.319   1.972 -0.3804  0.2323 -0.1485
 9215SOL    HW128544   4.830   2.352   1.935  0.1558  1.6546 -0.2200
 9215SOL    HW228545   4.900   2.242   2.034 -1.5322 -0.4648 -1.2846
 9216SOL     OW28546   1.757   5.527   0.868 -0.3001 -0.4936 -0.1375
 9216SOL    HW128547   1.793   5.438   0.842  0.7849 -0.1761  0.2192
 9216SOL    HW228548   1.660   5.519   0.890  0.0855 -1.8601  1.1817
 9217SOL     OW28549   3.455   0.990   5.186  0.0640  0.1502 -0.1314
 9217SOL    HW128550   3.390   1.000   5.261  1.2726 -0.2886  1.0032
 9217SOL    HW228551   3.420   1.039   5.106 -0.8322  1.3748  0.9590
 9218SOL     OW28552   0.748   3.189   6.433 -0.1325 -0.4473 -0.5194
 9218SOL    HW128553   0.848   3.186   6.433 -0.0731  0.7745 -1.2247
 9218SOL    HW228554   0.712   3.097   6.445  1.0858 -1.0506 -1.2694
 9219SOL     OW28555   1.952   0.901   1.941  1.1965  0.2627  0.0243
 9219SOL    HW128556   1.950   0.994   1.978  0.2788 -0.1328  1.0115
 9219SOL    HW228557   2.046   0.878   1.914  1.4404  1.4495 -0.1966
 9220SOL     OW28558   0.938   3.364   1.562  1.0520 -0.0729  0.4129
 9220SOL    HW128559   0.985   3.288   1.608 -1.5333 -1.5499  0.8377
 9220SOL    HW228560   0.952   3.356   1.463  1.0927 -0.9195  0.4752
 9221SOL     OW28561   6.677   6.013   1.476  0.9253 -0.3227 -0.6364
 9221SOL    HW128562   6.763   6.016   1.526 -0.2395  0.7114  1.4421
 9221SOL    HW228563   6.624   6.096   1.494 -0.8691 -1.2852 -1.1806
 9222SOL     OW28564   1.105   0.033   2.528 -0.4715 -0.3110 -0.4128
 9222SOL    HW128565   1.071   0.105   2.468  0.4934 -0.6726 -1.4340
 9222SOL    HW228566   1.107   0.066   2.622 -0.8732  0.6812 -0.7361
 9223SOL     OW28567   1.747   2.629   3.308 -0.0779 -0.6875 -0.0396
 9223SOL    HW128568   1.797   2.641   3.222 -1.3915  0.5875 -0.6622
 9223SOL    HW228569   1.665   2.686   3.307 -0.7482 -1.5659  1.5837
 9224SOL     OW28570   6.831   4.129   6.131  0.0584  0.1672 -0.0743
 9224SOL    HW128571   6.745   4.077   6.134  0.0295  0.2447  1.4850
 9224SOL    HW228572   6.907   4.066   6.112 -0.4495  0.3155 -2.9422
 9225SOL     OW28573   3.756   0.859   1.131  0.5678 -1.4302  0.0048
 9225SOL    HW128574   3.748   0.773   1.080  0.6705 -0.4512 -1.7352
 9225SOL    HW228575   3.834   0.911   1.095  0.5543 -0.6348  1.0913
 9226SOL     OW28576   2.142   1.319   2.178 -0.2708 -0.4269  0.1649
 9226SOL    HW128577   2.103   1.319   2.086  1.8352  0.3776 -0.7814
 9226SOL    HW228578   2.192   1.404   2.194  0.2284 -0.9594  1.6927
 9227SOL     OW28579   3.634   4.903   3.371 -0.2071 -0.0079 -0.1814
 9227SOL    HW128580   3.547   4.855   3.358 -0.1855  0.0125 -0.4059
 9227SOL    HW228581   3.630   4.955   3.457 -0.7444  0.6921 -0.6148
 9228SOL     OW28582   6.726   6.742   0.494  0.2231  0.1970 -0.1061
 9228SOL    HW128583   6.738   6.831   0.538  0.2137  0.0815  0.1328
 9228SOL    HW228584   6.812   6.691   0.498 -0.1117 -0.3249  0.9267
 9229SOL     OW28585   3.892   0.905   2.516  0.3318 -0.1222  0.3437
 9229SOL    HW128586   3.977   0.951   2.491  0.8055 -0.1151  1.8373
 9229SOL    HW228587   3.845   0.958   2.586 -0.7039 -0.3411 -0.1737
 9230SOL     OW28588   4.559   0.431   5.805  0.5071  0.3487 -0.0948
 9230SOL    HW128589   4.563   0.515   5.750  1.6544 -0.0829 -0.7201
 9230SOL    HW228590   4.549   0.352   5.745 -2.0245  0.0808  0.5687
 9231SOL     OW28591   1.582   5.849   5.925  0.5445 -0.5599  0.3739
 9231SOL    HW128592   1.659   5.842   5.861 -0.2659 -0.9171 -0.5719
 9231SOL    HW228593   1.618   5.867   6.017  1.7122  0.1734 -0.1960
 9232SOL     OW28594   3.045   3.941   1.229 -0.1048 -0.4424  0.0692
 9232SOL    HW128595   3.081   3.847   1.223  0.3848 -0.1834 -1.4219
 9232SOL    HW228596   3.066   3.978   1.319  0.3232 -1.5213  0.4379
 9233SOL     OW28597   2.440   0.998   3.145  0.9946  0.0076  0.0147
 9233SOL    HW128598   2.498   1.055   3.204 -1.2348  1.3043  1.0998
 9233SOL    HW228599   2.416   0.914   3.194 -1.2382  1.2923  1.2977
 9234SOL     OW28600   3.128   0.578   6.694 -0.2143  0.5806 -0.6113
 9234SOL    HW128601   3.040   0.548   6.732  0.4134 -0.0162  0.4135
 9234SOL    HW228602   3.156   0.663   6.739  0.7831 -0.4030  0.6897
 9235SOL     OW28603   0.394   5.514   4.082 -0.7273  0.3666  0.0972
 9235SOL    HW128604   0.491   5.512   4.056 -0.4788  0.4928  0.9683
 9235SOL    HW228605   0.379   5.451   4.158 -2.2483 -3.1083 -2.8542
 9236SOL     OW28606   6.061   5.733   5.897  0.2865 -0.0210  0.3687
 9236SOL    HW128607   6.052   5.746   5.798  1.6975 -1.5190 -0.0086
 9236SOL    HW228608   5.978   5.688   5.932 -0.2571  0.5949 -0.1057
 9237SOL     OW28609   1.551   4.427   0.502 -0.3511  0.1256 -0.4997
 9237SOL    HW128610   1.465   4.421   0.452  0.0993  0.7852 -1.3765
 9237SOL    HW228611   1.539   4.389   0.594 -1.1500 -1.2922 -1.1584
 9238SOL     OW28612   1.031   0.728   3.472  0.2987  0.2600 -0.7586
 9238SOL    HW128613   0.955   0.750   3.534 -0.7927  0.3636 -2.0973
 9238SOL    HW228614   1.011   0.642   3.424  1.6353 -0.3889 -0.1980
 9239SOL     OW28615   1.015   2.837   2.570  0.1507  0.4151  0.3516
 9239SOL    HW128616   1.075   2.765   2.603  0.9908  0.9436  0.0225
 9239SOL    HW228617   0.933   2.797   2.528  1.4024 -0.4284 -1.4060
 9240SOL     OW28618   5.334   6.187   5.073  0.3026 -0.0887  0.0122
 9240SOL    HW128619   5.346   6.250   4.996 -0.5810  0.4642  0.3108
 9240SOL    HW228620   5.292   6.236   5.149  1.4995 -0.5347  0.9952
 9241SOL     OW28621   2.948   4.698   1.198  0.2237 -0.0380  0.2655
 9241SOL    HW128622   2.997   4.673   1.114 -2.4488  0.3971 -1.5665
 9241SOL    HW228623   2.985   4.647   1.275  2.2315 -1.1155 -1.3146
 9242SOL     OW28624   6.360   1.919   3.682  0.1742  0.1752  0.0211
 9242SOL    HW128625   6.330   1.829   3.651 -0.9966  0.6882 -0.3877
 9242SOL    HW228626   6.439   1.948   3.628  0.3281 -0.4402 -0.0940
 9243SOL     OW28627   1.215   5.686   6.894 -0.3811  0.4553 -0.2627
 9243SOL    HW128628   1.190   5.590   6.903  2.6721 -0.3376  1.1193
 9243SOL    HW228629   1.173   5.739   6.968 -0.6834 -0.1661  0.0160
 9244SOL     OW28630   5.242   1.563   4.689  0.0279  0.2526 -0.6962
 9244SOL    HW128631   5.292   1.582   4.604  0.1373 -0.8912 -0.9086
 9244SOL    HW228632   5.303   1.577   4.767  0.7166 -1.1672 -0.9569
 9245SOL     OW28633   0.785   6.975   5.417  0.1022  0.3037 -0.5213
 9245SOL    HW128634   0.706   6.953   5.475  1.1455 -1.6620  0.2488
 9245SOL    HW228635   0.763   6.957   5.322 -0.6116  0.5216 -0.4041
 9246SOL     OW28636   5.025   2.884   4.640 -0.5151  0.2147 -0.3079
 9246SOL    HW128637   4.943   2.925   4.680  0.3280  0.7686  0.8882
 9246SOL    HW228638   5.036   2.791   4.675  0.2762  0.7322  0.9084
 9247SOL     OW28639   2.336   1.061   4.277  0.0909  0.5463  0.0002
 9247SOL    HW128640   2.286   1.136   4.320  0.8952  0.4339  1.1474
 9247SOL    HW228641   2.390   1.012   4.345  1.8962  0.7394 -1.2122
 9248SOL     OW28642   5.615   4.159   0.375  0.2294  0.2103  0.4619
 9248SOL    HW128643   5.569   4.211   0.302 -0.0922 -0.3079  0.2942
 9248SOL    HW228644   5.649   4.073   0.338 -0.5616 -0.3792  1.0914
 9249SOL     OW28645   4.144   5.190   4.474  0.1254 -0.1687 -0.5994
 9249SOL    HW128646   4.190   5.115   4.425 -0.0806  0.1683 -1.3228
 9249SOL    HW228647   4.114   5.157   4.564  0.3040 -0.8674 -0.7875
 9250SOL     OW28648   2.146   0.061   4.404 -0.4088  0.2622 -1.0149
 9250SOL    HW128649   2.226   0.119   4.386  0.4927 -0.8645 -0.7196
 9250SOL    HW228650   2.159  -0.028   4.362  0.1047 -1.1683  1.9231
 9251SOL     OW28651   1.230   0.688   6.641 -0.4508 -0.1569  0.3166
 9251SOL    HW128652   1.244   0.721   6.548  2.8808  0.6272  0.9663
 9251SOL    HW228653   1.135   0.705   6.668 -1.1444  0.8818 -2.4146
 9252SOL     OW28654   4.317   1.375   1.998 -0.3196 -0.5355 -0.7714
 9252SOL    HW128655   4.349   1.464   2.032 -2.3348  0.6101 -1.7046
 9252SOL    HW228656   4.304   1.380   1.899 -1.8135 -1.3793 -0.6500
 9253SOL     OW28657   1.822   4.582   4.986  0.3509 -0.6885 -0.2370
 9253SOL    HW128658   1.787   4.490   5.005 -0.9661  0.0496  1.2067
 9253SOL    HW228659   1.807   4.605   4.890 -0.8086 -1.3889 -0.2408
 9254SOL     OW28660   1.340   0.838   2.190 -0.1428 -0.4205  0.0466
 9254SOL    HW128661   1.439   0.822   2.196 -0.1791 -0.2232  1.8062
 9254SOL    HW228662   1.313   0.904   2.260 -1.7605 -1.7575  0.7518
 9255SOL     OW28663   5.351   3.679   0.449 -0.6814  0.0476  0.6147
 9255SOL    HW128664   5.276   3.694   0.384  1.3698  0.0053 -1.8965
 9255SOL    HW228665   5.423   3.746   0.433  1.2833 -1.9413  0.6437
 9256SOL     OW28666   1.874   3.179   6.916 -0.2049  0.3300  0.6167
 9256SOL    HW128667   1.839   3.100   6.967  1.0996 -1.9215 -1.7092
 9256SOL    HW228668   1.800   3.220   6.862 -0.3390 -1.4522 -0.6693
 9257SOL     OW28669   4.954   2.504   0.760  0.5025  0.1873  0.3409
 9257SOL    HW128670   5.025   2.535   0.823 -0.4893 -0.2934  1.7450
 9257SOL    HW228671   4.975   2.411   0.730  2.6821  1.4950 -2.6872
 9258SOL     OW28672   4.317   6.512   5.004  0.4949  0.3368  0.2102
 9258SOL    HW128673   4.371   6.466   5.074  0.7213 -1.6779 -1.1857
 9258SOL    HW228674   4.222   6.481   5.009  1.0200 -1.9305 -1.9345
 9259SOL     OW28675   5.782   3.130   6.434 -0.3730 -0.0848  0.0734
 9259SOL    HW128676   5.700   3.144   6.378  0.7167  2.6083 -1.0040
 9259SOL    HW228677   5.803   3.214   6.484  1.3020 -0.9888  0.9607
 9260SOL     OW28678   5.291   6.357   0.423 -0.5230  0.0413 -0.2951
 9260SOL    HW128679   5.376   6.389   0.464 -1.9306  0.4534  2.6431
 9260SOL    HW228680   5.249   6.289   0.483 -2.7060  0.5403 -1.1566
 9261SOL     OW28681   6.925   0.716   5.487  0.2072  0.5655  0.2382
 9261SOL    HW128682   6.909   0.706   5.585 -2.0606  3.5596  0.2879
 9261SOL    HW228683   6.877   0.797   5.452  2.2643  0.5770 -3.0614
 9262SOL     OW28684   5.575   6.353   2.586  0.2964  0.1931 -0.4560
 9262SOL    HW128685   5.620   6.436   2.555 -0.1381  0.2031 -1.0820
 9262SOL    HW228686   5.476   6.370   2.595  0.3903  0.1497  0.8054
 9263SOL     OW28687   3.572   4.909   0.139  1.0823 -0.4172  0.1407
 9263SOL    HW128688   3.656   4.866   0.105 -0.5758 -1.9225 -2.4048
 9263SOL    HW228689   3.511   4.928   0.062 -0.9537  0.5594  1.9019
 9264SOL     OW28690   1.156   1.225   4.470 -0.5679 -0.4808 -0.2083
 9264SOL    HW128691   1.069   1.254   4.431 -0.9808  0.3627  1.2636
 9264SOL    HW228692   1.146   1.214   4.569  1.1949  0.5009  0.1220
 9265SOL     OW28693   6.882   4.067   5.521  0.2457 -0.0510  0.2879
 9265SOL    HW128694   6.913   4.066   5.616 -0.2264  1.7969  0.4829
 9265SOL    HW228695   6.927   4.141   5.471  1.3002 -1.6320 -1.2629
 9266SOL     OW28696   2.063   6.605   3.962 -0.4055  0.5049 -0.2346
 9266SOL    HW128697   2.016   6.609   4.050 -0.2249  1.1067 -0.1605
 9266SOL    HW228698   2.080   6.698   3.929  1.8954  0.3371  0.3443
 9267SOL     OW28699   2.481   0.462   6.436 -0.6938  0.6051 -0.3040
 9267SOL    HW128700   2.396   0.457   6.383 -0.5853 -1.2813 -0.3801
 9267SOL    HW228701   2.460   0.493   6.529 -1.9999 -2.4681  0.5583
 9268SOL     OW28702   2.989   6.095   1.595 -0.1898  0.1697 -0.6166
 9268SOL    HW128703   3.088   6.103   1.590 -0.1094  0.2344  0.8940
 9268SOL    HW228704   2.962   5.999   1.591 -0.1109  0.1707 -1.4177
 9269SOL     OW28705   4.625   0.664   5.107  0.9327 -0.0227 -0.3150
 9269SOL    HW128706   4.683   0.608   5.165  1.1895  1.3795  0.8467
 9269SOL    HW228707   4.634   0.760   5.134 -0.8696  0.3848 -1.0043
 9270SOL     OW28708   5.002   6.810   6.533 -0.6848 -0.2058  0.7211
 9270SOL    HW128709   4.993   6.800   6.434 -2.0373 -1.3344  0.9300
 9270SOL    HW228710   5.099   6.816   6.557 -0.2608 -1.3943 -0.5456
 9271SOL     OW28711   4.867   1.331   1.582  0.6376  0.7725  0.0658
 9271SOL    HW128712   4.916   1.362   1.664 -1.1217  0.7148  1.1911
 9271SOL    HW228713   4.783   1.383   1.572 -0.6773 -1.2444  0.0273
 9272SOL     OW28714   0.235   5.038   2.035 -0.2726  0.3668 -0.2888
 9272SOL    HW128715   0.209   5.029   2.131  0.7979  2.6027  0.2528
 9272SOL    HW228716   0.199   5.123   1.998  0.7744  0.3587 -1.3904
 9273SOL     OW28717   4.029   4.054   0.601  0.4947 -0.6653 -0.0376
 9273SOL    HW128718   3.968   3.974   0.607 -0.0744 -0.1546  1.2144
 9273SOL    HW228719   3.994   4.127   0.659 -0.6406  1.6427 -3.3184
 9274SOL     OW28720   3.240   2.541   1.544 -0.5418  0.1518  0.5941
 9274SOL    HW128721   3.313   2.577   1.487 -1.1273 -1.2702 -1.1084
 9274SOL    HW228722   3.191   2.618   1.586  0.0854  1.2224 -0.5590
 9275SOL     OW28723   4.726   6.816   6.302  0.0815 -0.1545 -0.1453
 9275SOL    HW128724   4.678   6.740   6.258  0.1442  0.6816 -1.7376
 9275SOL    HW228725   4.824   6.806   6.289  0.1229 -0.0466  0.0711
 9276SOL     OW28726   4.139   3.815   6.006  0.3568 -0.3013  0.1210
 9276SOL    HW128727   4.128   3.837   5.909 -2.1869 -1.6003  0.0499
 9276SOL    HW228728   4.133   3.899   6.060  2.2886  0.5001 -0.8059
 9277SOL     OW28729   4.149   6.301   0.058 -0.0717 -0.4657 -0.1399
 9277SOL    HW128730   4.151   6.341  -0.033  1.1393 -1.4363 -0.5496
 9277SOL    HW228731   4.078   6.347   0.112 -0.9730 -0.0419 -1.6205
 9278SOL     OW28732   5.464   3.389   3.599 -0.1158  0.6706  0.0384
 9278SOL    HW128733   5.425   3.447   3.527 -2.2361 -1.6477 -0.8353
 9278SOL    HW228734   5.400   3.381   3.675  0.5248  0.2072  0.5520
 9279SOL     OW28735   5.962   3.987   6.242  0.4487 -0.1236  0.1527
 9279SOL    HW128736   5.919   4.049   6.308 -2.4621  0.9230 -2.4755
 9279SOL    HW228737   5.933   3.893   6.261 -1.9676  0.3800 -0.5859
 9280SOL     OW28738   6.336   5.983   2.229  0.4300 -0.3122 -0.1886
 9280SOL    HW128739   6.380   5.982   2.139 -1.3398  1.4099 -1.1557
 9280SOL    HW228740   6.237   5.977   2.217  0.1526 -0.0518  1.6620
 9281SOL     OW28741   4.282   1.385   6.334 -0.5222  0.0792 -0.7220
 9281SOL    HW128742   4.214   1.410   6.264 -1.6578 -3.4362 -1.0867
 9281SOL    HW228743   4.285   1.286   6.342  0.3694  0.2811  3.5316
 9282SOL     OW28744   2.164   0.598   5.552 -0.9702  0.0213 -0.0852
 9282SOL    HW128745   2.102   0.590   5.474  0.0337  1.2136 -1.0386
 9282SOL    HW228746   2.123   0.553   5.632 -2.6594  0.0456 -0.9026
 9283SOL     OW28747   2.411   1.847   6.605 -0.9897 -0.0760 -0.5470
 9283SOL    HW128748   2.424   1.751   6.628 -1.4339 -0.0734 -0.2942
 9283SOL    HW228749   2.434   1.861   6.508  0.1744 -0.2139 -0.3117
 9284SOL     OW28750   2.006   3.490   1.825 -0.1490  0.1188  0.2824
 9284SOL    HW128751   2.090   3.480   1.878 -0.0136  0.1512  0.0754
 9284SOL    HW228752   2.029   3.516   1.731 -0.4134  0.7962  0.3982
 9285SOL     OW28753   3.934   5.592   6.171  0.2824 -0.5836  0.1067
 9285SOL    HW128754   3.979   5.647   6.241  0.8519 -0.9636  0.0438
 9285SOL    HW228755   3.835   5.610   6.173  0.6433  2.2645 -1.4697
 9286SOL     OW28756   3.304   6.778   0.309 -0.4221 -0.2503  0.0966
 9286SOL    HW128757   3.282   6.867   0.347 -0.5587 -0.1674 -0.1682
 9286SOL    HW228758   3.402   6.772   0.291 -0.6676  0.6180 -1.7721
 9287SOL     OW28759   1.179   5.179   2.328  0.1909 -0.0982  0.4904
 9287SOL    HW128760   1.170   5.094   2.380  0.2587  0.5355  1.5772
 9287SOL    HW228761   1.228   5.246   2.383  2.3044 -0.1017 -1.2438
 9288SOL     OW28762   3.317   1.828   6.498  0.4141 -0.0669  0.4295
 9288SOL    HW128763   3.363   1.802   6.413  1.5603  1.1160  0.6505
 9288SOL    HW228764   3.383   1.823   6.573  0.0626  1.1790  0.8417
 9289SOL     OW28765   1.721   0.075   3.413  0.8360  0.3459 -0.5634
 9289SOL    HW128766   1.792   0.016   3.452 -0.1419  0.0122  0.7925
 9289SOL    HW228767   1.631   0.038   3.436  0.2089  1.4679 -1.1293
 9290SOL     OW28768   0.309   4.564   5.445  0.4234  0.3924  0.0001
 9290SOL    HW128769   0.248   4.491   5.476  2.0609 -0.5076  1.2191
 9290SOL    HW228770   0.362   4.598   5.522  1.2562  1.3671 -0.9754
 9291SOL     OW28771   5.075   0.742   5.300  0.6669 -0.1267  0.5171
 9291SOL    HW128772   5.041   0.680   5.230  1.3896 -1.0443  0.9597
 9291SOL    HW228773   5.130   0.814   5.256  0.0113  0.0842  0.0246
 9292SOL     OW28774   1.114   0.334   3.189 -0.1190 -0.8011 -0.1630
 9292SOL    HW128775   1.077   0.303   3.276  0.7369  0.5127  0.6942
 9292SOL    HW228776   1.176   0.265   3.152  0.5779 -0.7779  0.9445
 9293SOL     OW28777   3.791   0.770   6.369 -0.4959  0.2018 -0.3112
 9293SOL    HW128778   3.778   0.719   6.284  1.1414  1.4808 -1.3939
 9293SOL    HW228779   3.844   0.714   6.433 -2.4556 -1.0959  0.2538
 9294SOL     OW28780   1.373   6.255   0.963 -0.4571 -0.7083  0.3082
 9294SOL    HW128781   1.375   6.190   0.887 -0.0163 -0.1742 -0.1462
 9294SOL    HW228782   1.453   6.240   1.022  0.9025  0.8562 -1.0408
 9295SOL     OW28783   5.577   0.162   6.450  0.0579  0.6655 -0.0248
 9295SOL    HW128784   5.519   0.081   6.446  0.9895  0.0341 -1.3537
 9295SOL    HW228785   5.602   0.180   6.546 -1.5335  0.4173  0.4696
 9296SOL     OW28786   1.790   0.631   3.737 -0.8084 -0.0648  0.2197
 9296SOL    HW128787   1.708   0.668   3.780  1.8596  3.0496  3.2758
 9296SOL    HW228788   1.838   0.572   3.802  0.3741 -0.1784 -0.7205
 9297SOL     OW28789   1.266   6.802   0.518 -0.4237  0.1069 -0.4311
 9297SOL    HW128790   1.204   6.856   0.462  0.0166  1.6928  0.5510
 9297SOL    HW228791   1.223   6.782   0.606  0.0928  0.4434 -0.0923
 9298SOL     OW28792   0.735   6.444   5.094 -0.1123 -0.3719 -0.0808
 9298SOL    HW128793   0.828   6.479   5.100 -0.4660  0.7870 -0.8753
 9298SOL    HW228794   0.685   6.468   5.177 -0.0090 -0.0197 -0.1172
 9299SOL     OW28795   1.601   1.606   2.849  0.0304 -0.4277  0.1354
 9299SOL    HW128796   1.668   1.538   2.878  0.0808 -1.5077 -2.2676
 9299SOL    HW228797   1.648   1.684   2.808 -0.1176 -0.7319 -0.6357
 9300SOL     OW28798   3.866   1.126   3.733 -0.2028  0.3698  0.0448
 9300SOL    HW128799   3.780   1.177   3.735 -0.0116  0.8616  4.0604
 9300SOL    HW228800   3.939   1.182   3.770  0.9660 -1.3454  0.4668
 9301SOL     OW28801   5.797   0.544   6.125  0.1017 -0.2076 -0.1049
 9301SOL    HW128802   5.774   0.574   6.032 -0.3588 -0.8346 -0.2046
 9301SOL    HW228803   5.754   0.605   6.191 -0.8557 -0.6476 -0.3039
 9302SOL     OW28804   5.368   5.943   5.366 -0.2053  0.3521 -0.6966
 9302SOL    HW128805   5.333   5.944   5.460 -0.4935 -2.7079 -0.6530
 9302SOL    HW228806   5.411   6.030   5.345 -0.9727  1.4619  1.9354
 9303SOL     OW28807   6.162   6.587   3.115 -0.1400  0.2309  0.4408
 9303SOL    HW128808   6.206   6.600   3.027 -0.4157  0.2455  0.3048
 9303SOL    HW228809   6.174   6.670   3.170  0.4491  0.0424  0.6044
 9304SOL     OW28810   5.853   1.239   0.832  0.2081 -0.4033 -0.0395
 9304SOL    HW128811   5.924   1.308   0.817  0.5590 -0.1488  2.3837
 9304SOL    HW228812   5.870   1.160   0.774  1.1895  0.5593 -1.1126
 9305SOL     OW28813   5.533   5.407   0.778  0.4509  0.4133  0.1385
 9305SOL    HW128814   5.603   5.350   0.734  0.0485  1.0267 -1.3627
 9305SOL    HW228815   5.571   5.495   0.802 -0.0819  1.2855 -1.9679
 9306SOL     OW28816   3.624   5.067   3.152  0.0682 -0.2454 -0.0950
 9306SOL    HW128817   3.541   5.028   3.112 -0.1791  0.7474 -0.5820
 9306SOL    HW228818   3.649   5.015   3.233 -1.3685 -0.2203  0.3941
 9307SOL     OW28819   3.997   6.907   1.988 -0.4790 -0.4363 -0.3276
 9307SOL    HW128820   3.949   6.941   1.907 -3.4788 -0.1111  1.4499
 9307SOL    HW228821   3.960   6.951   2.069  1.3933 -1.8466  1.3767
 9308SOL     OW28822   4.075   3.119   0.585  0.2856  0.8801 -0.5092
 9308SOL    HW128823   4.006   3.113   0.513  0.0414 -1.1115 -0.1613
 9308SOL    HW228824   4.064   3.043   0.649  0.6780  2.4411  1.5121
 9309SOL     OW28825   4.095   3.377   6.679 -0.3002 -0.6741 -0.0983
 9309SOL    HW128826   4.104   3.474   6.659  2.2270 -0.3329  2.1946
 9309SOL    HW228827   4.182   3.331   6.665 -0.1579 -1.6535  3.1509
 9310SOL     OW28828   2.110   6.065   4.261 -0.2546  0.1839  0.0954
 9310SOL    HW128829   2.209   6.050   4.266 -0.3089 -0.8857 -1.3651
 9310SOL    HW228830   2.063   5.977   4.254 -1.1933  0.7355 -0.8164
 9311SOL     OW28831   1.931   5.446   2.451 -0.5300 -0.1000  0.0192
 9311SOL    HW128832   2.009   5.505   2.473  0.7808 -1.1056 -1.6546
 9311SOL    HW228833   1.890   5.476   2.365 -1.6267  0.0324  0.5716
 9312SOL     OW28834   1.753   0.430   1.609  0.2468  0.1673  0.1745
 9312SOL    HW128835   1.825   0.497   1.629 -0.5364  0.9162  0.5528
 9312SOL    HW228836   1.721   0.390   1.695 -0.4680  0.5684  0.1048
 9313SOL     OW28837   5.603   4.026   2.659  0.2196 -0.3660  0.2368
 9313SOL    HW128838   5.675   4.050   2.724  0.4712  1.7653 -0.7422
 9313SOL    HW228839   5.516   4.062   2.692 -0.1162 -1.4158  0.5504
 9314SOL     OW28840   1.580   6.079   2.516  0.0853 -0.2258  0.1204
 9314SOL    HW128841   1.572   6.034   2.427 -1.7703  2.4064 -1.1961
 9314SOL    HW228842   1.546   6.018   2.588 -1.0460 -1.4040 -1.3520
 9315SOL     OW28843   6.935   6.559   4.436  0.4193  0.6385  0.0277
 9315SOL    HW128844   6.850   6.572   4.487 -0.5555 -2.1899 -0.7058
 9315SOL    HW228845   6.987   6.483   4.476  1.1321  0.3681 -1.3550
 9316SOL     OW28846   6.395   6.134   0.918 -0.2246  0.0604 -0.0177
 9316SOL    HW128847   6.452   6.213   0.895  1.7605 -0.4864  2.5218
 9316SOL    HW228848   6.335   6.157   0.994 -2.3818  0.1323 -1.6399
 9317SOL     OW28849   4.711   2.399   1.809 -0.4820 -0.4346  0.1502
 9317SOL    HW128850   4.710   2.491   1.769  0.5225 -0.6615 -0.4396
 9317SOL    HW228851   4.620   2.359   1.804 -1.0274  0.6819  0.7862
 9318SOL     OW28852   1.527   3.127   1.476 -0.0695 -0.0937  0.1250
 9318SOL    HW128853   1.520   3.147   1.574  1.8062 -0.1850  0.3205
 9318SOL    HW228854   1.443   3.083   1.445 -1.2399  1.1724  1.3719
 9319SOL     OW28855   3.430   0.157   5.505 -0.3887 -0.0618 -0.4396
 9319SOL    HW128856   3.385   0.130   5.591  0.4544  0.1977  0.0956
 9319SOL    HW228857   3.455   0.075   5.454 -0.4817 -0.2343 -0.2134
 9320SOL     OW28858   4.943   5.966   2.473  0.4527  0.0327  0.2415
 9320SOL    HW128859   5.009   6.040   2.486  0.0338  0.8145 -1.7366
 9320SOL    HW228860   4.912   5.965   2.378 -0.1863 -2.1832  0.4162
 9321SOL     OW28861   3.866   1.148   6.996  0.2086  0.6042 -0.3810
 9321SOL    HW128862   3.883   1.052   6.977 -0.5912 -0.0772  2.0560
 9321SOL    HW228863   3.928   1.204   6.940  1.3209 -1.3169 -1.1782
 9322SOL     OW28864   4.152   1.698   2.765 -0.3606 -0.0083  0.8431
 9322SOL    HW128865   4.202   1.728   2.846 -0.3856  1.8498  0.2133
 9322SOL    HW228866   4.206   1.714   2.683 -1.8926  2.0509  0.1441
 9323SOL     OW28867   1.407   0.602   0.289 -0.4719  0.0874  0.4029
 9323SOL    HW128868   1.491   0.548   0.289 -0.0714  0.6469 -1.0882
 9323SOL    HW228869   1.328   0.541   0.300  0.0921 -0.4680  1.5654
 9324SOL     OW28870   5.213   5.084   1.150 -0.6878 -0.2327  0.1328
 9324SOL    HW128871   5.145   5.041   1.091 -1.5418 -0.9417  1.5859
 9324SOL    HW228872   5.280   5.134   1.094 -0.8008 -1.8143 -1.4766
 9325SOL     OW28873   3.766   3.681   0.901  0.0024 -0.0799 -0.4774
 9325SOL    HW128874   3.733   3.589   0.919 -0.7629 -0.0739 -1.7785
 9325SOL    HW228875   3.713   3.723   0.827  1.9511  0.4649 -1.6506
 9326SOL     OW28876   6.317   3.942   0.580 -0.2658  0.0531 -0.1542
 9326SOL    HW128877   6.316   3.842   0.591 -1.3706  0.0186 -0.4461
 9326SOL    HW228878   6.286   3.965   0.487  2.8466  0.5711 -1.1850
 9327SOL     OW28879   1.299   1.249   0.217 -0.0130 -0.0889 -0.1547
 9327SOL    HW128880   1.293   1.229   0.315  1.4487  0.6376  0.1075
 9327SOL    HW228881   1.393   1.274   0.193 -0.5409  0.6854 -1.5613
 9328SOL     OW28882   3.400   1.257   2.942 -0.5527 -0.2942 -0.2177
 9328SOL    HW128883   3.345   1.303   3.012 -1.0360 -0.3296 -0.5707
 9328SOL    HW228884   3.343   1.238   2.862  0.4018  1.3201 -1.3420
 9329SOL     OW28885   3.936   3.237   5.367 -0.0536 -0.1988  0.2044
 9329SOL    HW128886   3.947   3.321   5.314  0.0388  0.4516  1.2208
 9329SOL    HW228887   3.940   3.158   5.306 -0.0071  0.5264 -0.7508
 9330SOL     OW28888   4.999   0.975   3.870 -0.0971 -0.4250 -0.2276
 9330SOL    HW128889   4.993   0.993   3.771 -0.1975 -2.2828 -0.5953
 9330SOL    HW228890   4.910   0.992   3.912 -0.0186  0.5150 -0.4270
 9331SOL     OW28891   5.055   0.654   3.860 -0.2780 -0.0580 -0.2033
 9331SOL    HW128892   5.070   0.743   3.902  2.1226 -0.2042 -0.6244
 9331SOL    HW228893   4.988   0.603   3.914  0.5611  0.8462  1.7808
 9332SOL     OW28894   3.530   4.927   4.588  0.0055 -0.2107  0.0124
 9332SOL    HW128895   3.549   4.928   4.490  2.5724 -0.9426  0.4334
 9332SOL    HW228896   3.434   4.905   4.603 -0.2318 -1.0388 -2.3104
 9333SOL     OW28897   5.606   5.223   4.523 -0.2423 -0.0583  0.4884
 9333SOL    HW128898   5.563   5.308   4.554  0.0330  0.4162 -0.4023
 9333SOL    HW228899   5.615   5.161   4.601  0.2335  1.0068  1.3198
 9334SOL     OW28900   5.257   0.978   3.976 -0.0247  0.3067 -0.4180
 9334SOL    HW128901   5.288   0.907   3.913  0.7874  0.5673 -0.3149
 9334SOL    HW228902   5.164   1.006   3.951 -0.4141 -0.8882 -0.3709
 9335SOL     OW28903   1.346   3.217   5.183 -0.0544 -0.0330 -0.0730
 9335SOL    HW128904   1.381   3.286   5.119  1.9349 -0.6125  0.3164
 9335SOL    HW228905   1.337   3.258   5.274  1.6337 -0.3629  0.2773
 9336SOL     OW28906   0.088   3.286   1.926  0.0898 -0.6742  0.0683
 9336SOL    HW128907   0.123   3.235   1.847 -2.8077 -2.9775  0.1031
 9336SOL    HW228908   0.140   3.262   2.007  0.6440 -1.3111 -0.4653
 9337SOL     OW28909   2.946   1.410   2.987  0.2161 -0.0375  0.1948
 9337SOL    HW128910   2.915   1.323   3.023  0.5549  0.1623  0.9848
 9337SOL    HW228911   3.043   1.403   2.961  0.2368  0.0974  0.2355
 9338SOL     OW28912   0.459   5.550   2.644 -0.2798  0.1519  0.5296
 9338SOL    HW128913   0.431   5.481   2.577 -0.6680  0.7015  0.1200
 9338SOL    HW228914   0.378   5.596   2.680 -0.1128 -0.4613  1.7417
 9339SOL     OW28915   6.008   3.653   0.535 -0.1074 -0.1646 -0.2915
 9339SOL    HW128916   5.939   3.708   0.488  0.3441  0.4922 -0.2047
 9339SOL    HW228917   6.034   3.576   0.477 -0.8551 -0.3759 -0.3528
 9340SOL     OW28918   1.999   0.556   3.974  0.3278  0.2550  0.6784
 9340SOL    HW128919   2.029   0.461   3.964 -2.0863 -0.4760 -0.2090
 9340SOL    HW228920   1.908   0.559   4.015  0.8142  2.2839  1.7734
 9341SOL     OW28921   6.970   6.722   2.470  0.4405  0.2154 -0.3939
 9341SOL    HW128922   7.069   6.712   2.468  0.6823  2.1793 -0.7378
 9341SOL    HW228923   6.927   6.632   2.476  2.2204 -0.6963 -0.6804
 9342SOL     OW28924   0.933   5.051   1.720  0.1591 -0.0630 -0.5397
 9342SOL    HW128925   1.023   5.042   1.763  0.2769 -1.2513 -0.9932
 9342SOL    HW228926   0.867   5.086   1.786  0.7406 -0.0847  0.0612
 9343SOL     OW28927   6.525   3.748   4.390 -0.1780 -0.3921  0.2864
 9343SOL    HW128928   6.598   3.680   4.401  1.2801  1.4613  3.3981
 9343SOL    HW228929   6.441   3.714   4.431  0.2573 -0.7290  0.9133
 9344SOL     OW28930   0.676   6.112   5.048  0.2159 -0.5020 -0.5888
 9344SOL    HW128931   0.733   6.145   4.973 -2.9355  2.2410 -2.0274
 9344SOL    HW228932   0.677   6.179   5.122  0.9513 -1.7719  0.5950
 9345SOL     OW28933   4.355   4.893   6.054 -0.2473 -0.2054  0.2147
 9345SOL    HW128934   4.258   4.870   6.056 -0.2541 -0.7093 -2.2497
 9345SOL    HW228935   4.409   4.812   6.029  0.7755  0.1690  1.1153
 9346SOL     OW28936   1.886   6.950   4.071 -0.0738  0.0909  0.2404
 9346SOL    HW128937   1.858   6.870   4.124 -0.4769 -0.8589 -1.3221
 9346SOL    HW228938   1.848   7.033   4.113 -1.2878 -0.7236  0.8218
 9347SOL     OW28939   4.085   1.299   3.787  0.3418  0.5140 -0.3952
 9347SOL    HW128940   4.117   1.373   3.846 -1.3190 -0.3280  1.7002
 9347SOL    HW228941   4.036   1.337   3.709 -1.1463  1.6554  1.0393
 9348SOL     OW28942   5.442   4.635   6.965 -0.7807 -0.6091 -0.3559
 9348SOL    HW128943   5.380   4.581   7.022  0.0519 -2.0194 -0.7338
 9348SOL    HW228944   5.414   4.627   6.869 -1.0619  0.2392 -0.3607
 9349SOL     OW28945   2.711   5.964   2.482 -0.0941  0.2506 -0.5596
 9349SOL    HW128946   2.691   5.958   2.385  1.1194 -0.9452 -0.7631
 9349SOL    HW228947   2.626   5.969   2.534 -0.7568  0.5028 -1.6482
 9350SOL     OW28948   0.932   0.464   0.979 -0.0582 -0.1398 -0.3828
 9350SOL    HW128949   0.841   0.488   0.946  0.4039 -1.0335 -2.4498
 9350SOL    HW228950   0.940   0.365   0.987  0.6433 -0.0524  0.0834
 9351SOL     OW28951   5.044   4.294   3.335  0.5546  0.0425 -0.2885
 9351SOL    HW128952   4.988   4.376   3.345  2.6661  1.7008 -1.2305
 9351SOL    HW228953   5.141   4.319   3.332  1.2260 -2.3375 -1.9862
 9352SOL     OW28954   4.682   3.111   0.914 -0.1266 -1.2064 -0.7173
 9352SOL    HW128955   4.696   3.020   0.954 -0.5053 -1.0897 -0.3145
 9352SOL    HW228956   4.627   3.167   0.976 -1.2189 -1.2069 -1.6453
 9353SOL     OW28957   0.921   6.956   4.694 -0.1217 -0.3729 -0.5040
 9353SOL    HW128958   0.939   6.933   4.598  0.1466 -3.1718  0.1264
 9353SOL    HW228959   0.985   7.027   4.723  0.2113  0.0790 -2.2228
 9354SOL     OW28960   2.126   5.313   0.297  0.4791 -0.2916 -0.4652
 9354SOL    HW128961   2.197   5.369   0.337  0.3554  0.6660 -1.5422
 9354SOL    HW228962   2.040   5.328   0.345  0.4926  0.2987 -0.6241
 9355SOL     OW28963   6.868   1.024   0.754 -0.4054 -0.0110 -0.5055
 9355SOL    HW128964   6.954   1.043   0.801  0.3541  0.7504 -2.1572
 9355SOL    HW228965   6.797   1.005   0.823  0.6446  1.0713  0.9510
 9356SOL     OW28966   4.724   5.544   6.221  0.2297  0.2461  0.4005
 9356SOL    HW128967   4.807   5.545   6.277 -0.1013 -1.9906  0.9948
 9356SOL    HW228968   4.741   5.492   6.137  0.6011  3.2026 -1.5536
 9357SOL     OW28969   3.495   4.099   4.077  0.3386 -0.6019  0.0287
 9357SOL    HW128970   3.592   4.079   4.065  0.3392 -0.0811 -1.0222
 9357SOL    HW228971   3.476   4.117   4.173  1.3377 -0.4505  0.2120
 9358SOL     OW28972   6.199   2.531   5.213  0.5396  0.2108 -0.4351
 9358SOL    HW128973   6.200   2.555   5.115 -1.8316 -1.8776 -1.0778
 9358SOL    HW228974   6.213   2.433   5.223  0.7097  0.3936  1.3663
 9359SOL     OW28975   4.952   4.443   3.704 -0.3412  0.8788 -0.2916
 9359SOL    HW128976   4.931   4.386   3.784 -0.4145  1.4164  0.0727
 9359SOL    HW228977   5.050   4.439   3.685 -0.5498 -0.6888 -1.2807
 9360SOL     OW28978   6.187   1.163   2.150 -0.3576 -0.2478 -0.0695
 9360SOL    HW128979   6.207   1.067   2.168  0.5334 -0.0573 -0.0125
 9360SOL    HW228980   6.174   1.177   2.052  0.8154 -0.1988 -0.2285
 9361SOL     OW28981   2.266   0.703   1.822 -0.4222  0.5211  0.2118
 9361SOL    HW128982   2.246   0.756   1.904  1.9382  1.5845  0.2093
 9361SOL    HW228983   2.316   0.761   1.757  2.6927 -1.7330  0.3682
 9362SOL     OW28984   2.655   1.778   2.038 -0.1761 -0.1021  0.2438
 9362SOL    HW128985   2.693   1.686   2.032  0.2103  0.0134  0.8179
 9362SOL    HW228986   2.718   1.842   1.994 -0.2038 -0.0496  0.2806
 9363SOL     OW28987   1.846   2.191   4.599  0.2212  0.0165  0.3919
 9363SOL    HW128988   1.819   2.163   4.507  0.2820  1.9804 -0.2674
 9363SOL    HW228989   1.941   2.222   4.598  0.8055 -1.5663  1.5267
 9364SOL     OW28990   4.394   4.488   1.147  0.0615 -0.4496  0.3115
 9364SOL    HW128991   4.384   4.449   1.238  2.6263 -0.7956  0.5074
 9364SOL    HW228992   4.450   4.571   1.151 -0.2897 -0.1272 -0.8811
 9365SOL     OW28993   2.051   1.557   4.091  0.1256 -0.6237  0.1357
 9365SOL    HW128994   2.000   1.591   4.013  1.1361 -0.3345 -0.4149
 9365SOL    HW228995   2.086   1.634   4.145  2.3330 -0.7018 -1.0591
 9366SOL     OW28996   5.848   4.726   1.135 -0.1019  0.3744  0.0673
 9366SOL    HW128997   5.771   4.689   1.188 -0.7007 -0.0070 -1.0320
 9366SOL    HW228998   5.813   4.780   1.059  0.6471 -1.4146 -1.6133
 9367SOL     OW28999   3.702   0.969   5.053  0.1900 -0.0708  0.2400
 9367SOL    HW129000   3.757   1.029   5.109  0.2276 -2.3973  2.9070
 9367SOL    HW229001   3.608   0.968   5.087 -1.2529  2.3671 -3.0579
 9368SOL     OW29002   3.109   4.892   3.087  0.8700  0.6218 -0.0453
 9368SOL    HW129003   3.012   4.875   3.107  0.5925  2.1080 -0.0357
 9368SOL    HW229004   3.163   4.872   3.168  0.7384 -1.3152 -0.3836
 9369SOL     OW29005   0.268   3.432   2.592 -0.3203 -0.1716 -0.0948
 9369SOL    HW129006   0.272   3.531   2.584  1.6464 -0.0940  1.0429
 9369SOL    HW229007   0.288   3.406   2.687 -1.9349 -1.6232 -0.1156
 9370SOL     OW29008   1.415   4.693   5.669 -0.5897  0.0460 -0.3329
 9370SOL    HW129009   1.469   4.695   5.753 -1.0317  0.6193 -0.0597
 9370SOL    HW229010   1.436   4.773   5.614 -0.0612 -0.4924 -0.9297
 9371SOL     OW29011   6.296   0.105   1.286 -0.0404  0.2854  0.0357
 9371SOL    HW129012   6.269   0.040   1.358 -2.3486 -0.3818 -1.3222
 9371SOL    HW229013   6.258   0.195   1.306 -0.8132  0.0623 -0.4106
 9372SOL     OW29014   6.833   4.459   2.527 -0.2574 -0.2158  0.3395
 9372SOL    HW129015   6.842   4.549   2.569 -0.6336  0.4072 -0.8613
 9372SOL    HW229016   6.924   4.424   2.504 -0.1624  0.4347 -0.3264
 9373SOL     OW29017   4.055   4.774   3.893 -0.3073  0.0642  0.1736
 9373SOL    HW129018   3.961   4.754   3.918 -0.1968  1.0193  1.4887
 9373SOL    HW229019   4.057   4.830   3.810 -0.9327  0.4957  0.4462
 9374SOL     OW29020   1.418   5.823   7.014 -0.2181  0.1823 -0.0342
 9374SOL    HW129021   1.485   5.839   6.942 -0.6777  1.8348 -0.1385
 9374SOL    HW229022   1.343   5.768   6.979  0.8304 -1.2891 -0.0427
 9375SOL     OW29023   5.304   6.845   1.867 -0.5529  0.2161 -0.5867
 9375SOL    HW129024   5.265   6.820   1.955 -0.4033  0.1883 -0.5284
 9375SOL    HW229025   5.232   6.845   1.797 -0.5792 -0.2624 -0.5643
 9376SOL     OW29026   2.809   1.202   6.755  0.4289  0.1549  0.1368
 9376SOL    HW129027   2.760   1.146   6.688  1.7229 -1.2452  0.3038
 9376SOL    HW229028   2.832   1.146   6.835  1.1673  1.1213  0.6215
 9377SOL     OW29029   1.430   6.521   4.117  0.2426 -0.3715  0.6026
 9377SOL    HW129030   1.334   6.496   4.129 -0.2137  0.0791 -1.5686
 9377SOL    HW229031   1.444   6.554   4.024  2.4108  0.1102  1.0402
 9378SOL     OW29032   3.688   1.337   5.185  0.5246  0.1202 -0.3963
 9378SOL    HW129033   3.734   1.357   5.099  0.8274  2.2862  0.2193
 9378SOL    HW229034   3.740   1.375   5.262 -0.3148 -0.7799  0.6688
 9379SOL     OW29035   6.248   5.180   0.624  0.6412 -0.3315 -0.6724
 9379SOL    HW129036   6.260   5.111   0.696  1.9687  1.3260  0.7657
 9379SOL    HW229037   6.261   5.271   0.662  1.4131  0.6178 -3.0209
 9380SOL     OW29038   3.221   5.768   1.922  0.3312  0.2966  0.5940
 9380SOL    HW129039   3.271   5.731   1.844 -0.0101  0.8125  0.1226
 9380SOL    HW229040   3.239   5.712   2.003 -1.4677 -1.9329 -0.4440
 9381SOL     OW29041   3.786   0.024   2.657 -0.3030 -0.3302  0.3594
 9381SOL    HW129042   3.841  -0.048   2.700 -0.4564  0.7699  2.5334
 9381SOL    HW229043   3.691   0.016   2.687 -0.2854  0.8526  0.8092
 9382SOL     OW29044   1.086   1.422   6.137  0.3780 -0.3004  0.3857
 9382SOL    HW129045   1.129   1.332   6.129 -0.8021 -0.9591  1.1853
 9382SOL    HW229046   1.149   1.485   6.183  0.8133 -1.0216  0.8038
 9383SOL     OW29047   5.144   2.022   3.173  0.5658  0.3675  0.3820
 9383SOL    HW129048   5.231   2.006   3.219 -0.4425 -1.0275  1.9297
 9383SOL    HW229049   5.069   2.009   3.238 -0.8280  1.5131 -0.9091
 9384SOL     OW29050   5.031   6.124   3.984  0.1137  0.2289  0.1519
 9384SOL    HW129051   5.052   6.158   4.076 -0.8113  0.6441  0.2230
 9384SOL    HW229052   5.049   6.195   3.916  1.7983 -0.4231 -0.1169
 9385SOL     OW29053   1.214   6.715   6.046  0.5306  0.1605  0.1734
 9385SOL    HW129054   1.299   6.662   6.047  0.5580  0.0545  3.6873
 9385SOL    HW229055   1.236   6.812   6.039  0.6833  0.0393 -1.9219
 9386SOL     OW29056   1.035   3.990   6.019 -0.3104 -0.6421 -0.2024
 9386SOL    HW129057   1.039   3.914   6.083  3.3162 -0.2431  0.2542
 9386SOL    HW229058   1.078   3.964   5.932  0.1786  0.5787 -0.3528
 9387SOL     OW29059   1.544   5.414   2.940  0.8387  0.3364 -0.2973
 9387SOL    HW129060   1.468   5.430   2.877 -0.8408 -1.0672  1.2493
 9387SOL    HW229061   1.559   5.496   2.995  1.0667  0.9303 -1.2144
 9388SOL     OW29062   5.743   2.244   1.636 -0.0416 -0.2514  0.1233
 9388SOL    HW129063   5.795   2.235   1.720  1.2547  2.4148 -0.2815
 9388SOL    HW229064   5.663   2.301   1.652 -0.8314 -1.2874 -0.0659
 9389SOL     OW29065   2.833   1.236   3.363 -0.2492 -0.4878 -0.0521
 9389SOL    HW129066   2.899   1.309   3.348 -0.5976  0.1868  1.5496
 9389SOL    HW229067   2.745   1.275   3.390 -1.2231 -1.3957 -1.7128
 9390SOL     OW29068   1.352   0.356   0.713 -0.1389 -0.4671 -0.1432
 9390SOL    HW129069   1.423   0.424   0.730 -0.0235 -0.7605  0.6075
 9390SOL    HW229070   1.377   0.300   0.635  0.8692 -1.1053  0.6215
 9391SOL     OW29071   3.213   5.546   5.130  0.6011 -0.2302  0.1760
 9391SOL    HW129072   3.206   5.479   5.056 -1.1467 -0.1889  0.2617
 9391SOL    HW229073   3.153   5.624   5.111  1.7104  0.7859  0.6511
 9392SOL     OW29074   6.555   6.720   2.788  0.0661 -0.4294  0.2219
 9392SOL    HW129075   6.641   6.713   2.838 -0.0420  0.7274  0.5869
 9392SOL    HW229076   6.559   6.796   2.724 -1.2025  0.6147  1.3099
 9393SOL     OW29077   3.447   1.671   4.423 -0.1553  0.3475  0.5811
 9393SOL    HW129078   3.502   1.683   4.340 -0.3804  2.5265  0.6827
 9393SOL    HW229079   3.417   1.576   4.430  1.1977 -0.2454 -0.9708
 9394SOL     OW29080   0.886   2.883   6.571 -0.1477 -0.1480 -0.0108
 9394SOL    HW129081   0.808   2.824   6.593 -0.2161 -0.6040 -1.3780
 9394SOL    HW229082   0.888   2.900   6.473  2.2137 -1.2022 -0.2135
 9395SOL     OW29083   4.827   0.244   0.340 -0.5299  0.6777  0.0521
 9395SOL    HW129084   4.792   0.289   0.422  0.1040  0.1036  0.6424
 9395SOL    HW229085   4.800   0.148   0.340  0.5789  0.3487  0.2583
 9396SOL     OW29086   4.603   1.329   1.826 -0.1421 -0.2138 -0.3678
 9396SOL    HW129087   4.516   1.316   1.778  1.0017 -0.3330 -2.5320
 9396SOL    HW229088   4.653   1.405   1.783  1.2242 -0.7560  0.2128
 9397SOL     OW29089   5.036   1.690   1.565  0.2349 -0.1672  0.0044
 9397SOL    HW129090   5.044   1.608   1.508  0.8116  0.3766 -0.7291
 9397SOL    HW229091   5.043   1.771   1.507  0.5621  0.4035  0.8261
 9398SOL     OW29092   0.420   5.862   3.513 -0.2275 -0.3760  0.5842
 9398SOL    HW129093   0.412   5.868   3.413 -0.6652  0.6264  0.6635
 9398SOL    HW229094   0.329   5.847   3.552 -0.4546  1.7507  0.9619
 9399SOL     OW29095   2.953   3.739   3.430 -0.4285  0.0232 -0.2197
 9399SOL    HW129096   2.924   3.678   3.504 -1.0620 -0.2548 -0.6849
 9399SOL    HW229097   3.024   3.800   3.464  1.2625 -1.9020 -0.1106
 9400SOL     OW29098   2.902   3.489   1.464 -0.2604 -0.3956 -0.6534
 9400SOL    HW129099   2.834   3.420   1.488  0.6055 -0.1404  3.1505
 9400SOL    HW229100   2.858   3.578   1.455 -0.7702 -0.6761 -0.9310
 9401SOL     OW29101   7.004   5.359   6.043 -0.0142 -0.6379  0.1731
 9401SOL    HW129102   6.959   5.426   6.102 -1.6725 -0.0608 -1.6213
 9401SOL    HW229103   6.987   5.382   5.947  1.8992 -1.9846 -0.5532
 9402SOL     OW29104   5.648   4.678   4.580  0.1856 -0.2262  0.3065
 9402SOL    HW129105   5.600   4.766   4.581  1.7202  0.6837 -0.6886
 9402SOL    HW229106   5.583   4.604   4.567 -0.8579  1.1122 -3.5392
 9403SOL     OW29107   5.528   3.771   5.267 -0.4469 -0.1073  0.0738
 9403SOL    HW129108   5.550   3.699   5.202 -0.8989 -0.3868  0.2268
 9403SOL    HW229109   5.504   3.855   5.217  0.2623  0.0045 -0.1009
 9404SOL     OW29110   4.359   2.288   5.831  0.1464 -0.7734  0.2781
 9404SOL    HW129111   4.296   2.287   5.908  0.1128  1.0659  0.3184
 9404SOL    HW229112   4.416   2.206   5.833 -1.7791 -2.1649  0.5908
 9405SOL     OW29113   5.673   5.010   2.903 -0.4638  0.2194  0.0282
 9405SOL    HW129114   5.698   5.104   2.880 -3.0289  0.7134 -1.0666
 9405SOL    HW229115   5.582   5.009   2.944 -0.3602 -1.7833  0.3020
 9406SOL     OW29116   6.489   3.676   6.160 -0.1454 -0.4643 -0.2919
 9406SOL    HW129117   6.416   3.736   6.127  0.3646  0.4326  0.1555
 9406SOL    HW229118   6.449   3.590   6.191 -1.1830  0.4245  0.9779
 9407SOL     OW29119   5.750   1.794   2.272  0.5704 -0.0919  0.3055
 9407SOL    HW129120   5.804   1.801   2.355  1.4816 -0.5283 -0.2283
 9407SOL    HW229121   5.788   1.855   2.202  0.0719 -0.0348  0.0819
 9408SOL     OW29122   1.694   3.213   2.755 -0.0996 -0.2603 -0.1025
 9408SOL    HW129123   1.700   3.272   2.675 -1.0229  0.2471  0.1822
 9408SOL    HW229124   1.624   3.143   2.740  1.4766 -1.7661 -0.7185
 9409SOL     OW29125   3.141   3.397   1.579  0.4995 -0.5804  0.0248
 9409SOL    HW129126   3.056   3.443   1.554  0.7511  0.2241  0.6100
 9409SOL    HW229127   3.155   3.318   1.520 -0.8849 -0.9941  0.2133
 9410SOL     OW29128   2.285   0.643   0.045  0.0482  0.0315  0.1873
 9410SOL    HW129129   2.223   0.707   0.092  2.2514  1.9191  0.7048
 9410SOL    HW229130   2.327   0.689  -0.033  0.4280 -1.3911 -0.4675
 9411SOL     OW29131   5.964   2.864   0.430  0.1783  0.1947  0.2191
 9411SOL    HW129132   6.035   2.826   0.371  0.9543  0.3085  1.0608
 9411SOL    HW229133   5.973   2.826   0.523 -2.2096 -1.5001 -0.1383
 9412SOL     OW29134   3.406   6.425   5.473 -0.3109  0.2911  0.1132
 9412SOL    HW129135   3.350   6.507   5.477 -0.0501  0.6026 -1.8312
 9412SOL    HW229136   3.356   6.351   5.428  0.4997  0.2948 -0.8220
 9413SOL     OW29137   6.717   2.109   2.749  0.5156  0.5491 -0.0737
 9413SOL    HW129138   6.732   2.064   2.661 -0.4046 -0.1074  0.0898
 9413SOL    HW229139   6.619   2.124   2.763  0.7143  1.4497  0.4565
 9414SOL     OW29140   3.617   2.590   1.761  0.5513  0.2229  0.1116
 9414SOL    HW129141   3.525   2.619   1.787  0.1144 -0.6556 -0.3897
 9414SOL    HW229142   3.649   2.518   1.823  0.5741 -0.0343 -0.1970
 9415SOL     OW29143   1.082   0.110   0.093  0.0253 -0.0636 -0.3451
 9415SOL    HW129144   1.146   0.095   0.018 -0.3339  0.3698 -0.7431
 9415SOL    HW229145   1.070   0.209   0.108 -0.5031 -0.1412 -0.2318
 9416SOL     OW29146   4.561   5.223   4.736 -0.0535 -0.4443 -0.0632
 9416SOL    HW129147   4.472   5.182   4.756  0.3595 -1.1503  0.3673
 9416SOL    HW229148   4.632   5.175   4.788  0.7613 -0.8466 -1.4886
 9417SOL     OW29149   5.428   5.457   6.751  0.3612  0.2051 -0.3762
 9417SOL    HW129150   5.344   5.486   6.704 -0.0773 -2.6148 -1.5041
 9417SOL    HW229151   5.408   5.447   6.849 -0.3617  0.4351 -0.4896
 9418SOL     OW29152   3.298   5.719   5.783  0.3509 -0.1656  0.3791
 9418SOL    HW129153   3.202   5.720   5.809  0.5322 -0.4838  1.1014
 9418SOL    HW229154   3.345   5.645   5.832  1.2457  0.8625  1.1250
 9419SOL     OW29155   4.361   4.516   6.841  0.3340  0.3355  0.2223
 9419SOL    HW129156   4.316   4.576   6.775 -1.5367 -1.2631 -0.0458
 9419SOL    HW229157   4.447   4.483   6.803  1.1358  2.3471  0.1572
 9420SOL     OW29158   4.793   5.141   6.281  0.2141  0.1724 -0.7175
 9420SOL    HW129159   4.771   5.217   6.343 -0.2006 -0.3470 -0.2174
 9420SOL    HW229160   4.710   5.091   6.258  0.7101 -1.3633  0.5892
 9421SOL     OW29161   2.248   0.269   0.107 -0.5295  0.4775  0.1419
 9421SOL    HW129162   2.310   0.347   0.092 -1.4855  0.8625 -2.2400
 9421SOL    HW229163   2.250   0.209   0.027 -1.7414 -0.5615  0.8613
 9422SOL     OW29164   1.150   0.361   4.136 -0.2185 -0.6836  0.6509
 9422SOL    HW129165   1.082   0.335   4.067 -0.4567  0.1261  0.5642
 9422SOL    HW229166   1.222   0.416   4.094  1.2661 -2.6768  0.4647
 9423SOL     OW29167   5.210   3.166   6.143  0.0409  0.4487 -0.2360
 9423SOL    HW129168   5.180   3.083   6.096  2.4895 -0.5345 -0.2167
 9423SOL    HW229169   5.184   3.161   6.239  0.2847 -0.3777 -0.2039
 9424SOL     OW29170   5.007   2.208   3.439  0.0556  0.3967 -0.8434
 9424SOL    HW129171   5.074   2.260   3.386  1.1806 -1.4985 -1.3730
 9424SOL    HW229172   4.918   2.254   3.433  0.8954  2.0428 -1.5468
 9425SOL     OW29173   3.845   6.916   0.664  0.0201 -0.4632  0.5740
 9425SOL    HW129174   3.800   7.002   0.638  2.1148  1.0478  1.6677
 9425SOL    HW229175   3.878   6.870   0.582 -0.8973 -0.1098 -0.0147
 9426SOL     OW29176   5.885   0.806   0.605 -0.3439  0.4254  0.1856
 9426SOL    HW129177   5.872   0.750   0.523  0.5212  1.7842 -0.9171
 9426SOL    HW229178   5.922   0.749   0.679 -2.6817 -1.2001  0.2198
 9427SOL     OW29179   1.362   5.372   3.176  0.3876  0.2823  0.0249
 9427SOL    HW129180   1.434   5.309   3.204 -0.3011  0.1764  1.6938
 9427SOL    HW229181   1.318   5.337   3.093  0.7393 -0.8686  0.2949
 9428SOL     OW29182   0.500   1.891   0.212  0.6829  0.0056 -0.1307
 9428SOL    HW129183   0.465   1.827   0.143  0.8282  1.5149 -1.6836
 9428SOL    HW229184   0.436   1.896   0.288 -1.3419  0.9050 -1.7956
 9429SOL     OW29185   1.580   2.205   2.048 -0.0134  0.2764  0.0268
 9429SOL    HW129186   1.591   2.111   2.082 -1.1918 -0.1398 -0.6802
 9429SOL    HW229187   1.493   2.242   2.081 -1.2930 -0.1990 -2.5946
 9430SOL     OW29188   1.557   4.966   4.344  0.0808 -0.0938  0.3825
 9430SOL    HW129189   1.593   4.933   4.431  1.4017 -1.3011 -0.5740
 9430SOL    HW229190   1.526   4.889   4.289 -1.4848  0.7183  0.0777
 9431SOL     OW29191   1.244   3.348   1.141  0.2177 -0.5152  0.8163
 9431SOL    HW129192   1.324   3.389   1.185 -0.0434 -0.6962  1.4724
 9431SOL    HW229193   1.250   3.248   1.146  0.2002 -0.5396  0.4096
 9432SOL     OW29194   3.539   5.279   0.429  0.6996  0.4128 -0.0386
 9432SOL    HW129195   3.490   5.305   0.512  0.9793 -1.8235  0.8987
 9432SOL    HW229196   3.546   5.359   0.368 -0.3977  1.8465  1.6053
 9433SOL     OW29197   2.502   3.435   5.349  0.6721  0.2853  0.3350
 9433SOL    HW129198   2.535   3.383   5.428  1.3920 -0.9084 -0.7261
 9433SOL    HW229199   2.440   3.379   5.295  0.3491  1.0165 -0.0722
 9434SOL     OW29200   0.079   6.361   5.747  0.1840  0.5609 -0.4085
 9434SOL    HW129201   0.176   6.344   5.765 -0.2368 -0.4631  1.0670
 9434SOL    HW229202   0.061   6.351   5.649  0.8435 -3.4662 -0.2851
 9435SOL     OW29203   1.952   3.791   2.279  0.1582 -0.3218 -0.3041
 9435SOL    HW129204   1.967   3.759   2.372  0.3994 -0.9793 -0.5571
 9435SOL    HW229205   1.856   3.781   2.254  0.4450 -2.2831 -0.8617
 9436SOL     OW29206   4.487   4.577   1.867 -0.2946 -0.1173  0.1003
 9436SOL    HW129207   4.430   4.635   1.808 -1.3111 -1.3109 -0.1252
 9436SOL    HW229208   4.473   4.604   1.963 -1.8114 -0.8331  0.1160
 9437SOL     OW29209   3.534   1.513   2.717 -0.2971 -0.3712  0.7750
 9437SOL    HW129210   3.634   1.513   2.708 -0.3885 -1.6087 -0.6853
 9437SOL    HW229211   3.493   1.497   2.627 -1.8537  1.1326  1.1799
 9438SOL     OW29212   0.349   2.130   1.308  0.1687 -0.5688 -0.0255
 9438SOL    HW129213   0.363   2.200   1.379  2.4574 -1.1169  0.1435
 9438SOL    HW229214   0.378   2.166   1.220 -0.7893 -0.5689 -0.3492
 9439SOL     OW29215   5.743   2.173   1.158  0.0780  0.1403  0.1948
 9439SOL    HW129216   5.721   2.101   1.225 -0.8674  1.6373  1.5644
 9439SOL    HW229217   5.670   2.241   1.158  1.3007  1.4939 -0.5339
 9440SOL     OW29218   1.828   3.725   1.587 -0.0670  0.0352 -0.4556
 9440SOL    HW129219   1.775   3.797   1.542 -0.7912  1.1471  2.0240
 9440SOL    HW229220   1.766   3.667   1.640  0.6872 -1.6083 -1.2980
 9441SOL     OW29221   6.609   0.224   3.572 -0.2735  0.3367  0.6353
 9441SOL    HW129222   6.559   0.263   3.650  0.3724  0.7060  0.8720
 9441SOL    HW229223   6.700   0.196   3.602  0.1243  0.8571 -0.0737
 9442SOL     OW29224   5.139   6.176   3.195 -1.2929  1.1654  0.0754
 9442SOL    HW129225   5.131   6.268   3.234 -2.5781  1.4190 -0.7127
 9442SOL    HW229226   5.212   6.175   3.127 -0.3077  1.2086  1.1069
 9443SOL     OW29227   3.816   1.452   2.722 -0.4269  0.0482  0.0658
 9443SOL    HW129228   3.894   1.403   2.683  1.3754  1.2548  1.9420
 9443SOL    HW229229   3.766   1.392   2.784  0.4794 -0.0572  0.7049
 9444SOL     OW29230   1.551   4.315   5.457  0.1325 -1.1001  0.2937
 9444SOL    HW129231   1.473   4.304   5.395  1.0580 -0.9767 -0.9340
 9444SOL    HW229232   1.519   4.353   5.544 -0.8200  1.9860 -1.2434
 9445SOL     OW29233   0.029   0.458   4.621 -0.9565 -0.5135 -0.0493
 9445SOL    HW129234   0.035   0.429   4.525 -0.5619 -0.9712  0.1112
 9445SOL    HW229235  -0.055   0.421   4.661 -0.0270 -2.2598  0.4093
 9446SOL     OW29236   6.631   5.748   5.321 -0.6190 -0.0400 -0.4352
 9446SOL    HW129237   6.692   5.756   5.399 -0.9793 -0.2381 -0.1308
 9446SOL    HW229238   6.683   5.721   5.240 -0.2423  0.1896 -0.2715
 9447SOL     OW29239   6.633   4.314   0.718  0.1148 -0.3077  0.2027
 9447SOL    HW129240   6.657   4.335   0.813 -0.0290 -2.1079  0.6768
 9447SOL    HW229241   6.647   4.217   0.701 -2.3618 -0.5578 -0.8470
 9448SOL     OW29242   4.356   1.369   4.616  0.1524  0.2919  0.2411
 9448SOL    HW129243   4.434   1.322   4.657 -0.8547 -1.3800  0.3836
 9448SOL    HW229244   4.339   1.455   4.664  2.8856  1.5837 -0.8766
 9449SOL     OW29245   5.048   3.861   3.498 -0.0816  0.4802 -0.2505
 9449SOL    HW129246   4.977   3.932   3.501 -2.2301 -1.4450 -2.1610
 9449SOL    HW229247   5.008   3.773   3.525  2.6629 -0.0651  2.7463
 9450SOL     OW29248   0.059   2.715   3.527 -0.3586 -0.0306 -0.0189
 9450SOL    HW129249   0.066   2.650   3.603 -1.2520 -1.8272 -1.3905
 9450SOL    HW229250   0.007   2.673   3.452 -0.5648  2.1306 -1.1541
 9451SOL     OW29251   5.846   2.906   4.948  0.6568  0.5268 -0.6932
 9451SOL    HW129252   5.807   2.815   4.933  1.0826 -0.0299  1.2936
 9451SOL    HW229253   5.945   2.899   4.956  0.7891  1.3312 -1.4876
 9452SOL     OW29254   0.824   3.832   3.012 -0.0638  0.2299 -0.4141
 9452SOL    HW129255   0.920   3.859   3.017 -0.0524  0.3344 -1.1438
 9452SOL    HW229256   0.803   3.798   2.920 -0.4912 -0.6915  0.0126
 9453SOL     OW29257   3.204   3.042   1.109 -0.0792  0.3736 -0.2910
 9453SOL    HW129258   3.132   3.015   1.172 -0.2997  0.8809 -0.3200
 9453SOL    HW229259   3.196   2.989   1.024  1.0565 -1.3153  0.5977
 9454SOL     OW29260   4.535   5.697   1.438  0.5118  0.2091 -0.1844
 9454SOL    HW129261   4.453   5.650   1.406  0.7550 -0.8962  0.7411
 9454SOL    HW229262   4.614   5.665   1.386  1.2017 -2.9253  2.4403
 9455SOL     OW29263   0.965   3.696   4.246  0.8434 -0.1695 -0.3877
 9455SOL    HW129264   1.021   3.691   4.163 -0.7327 -1.6345 -1.4150
 9455SOL    HW229265   0.997   3.773   4.302  3.3502 -0.4400 -1.2782
 9456SOL     OW29266   1.063   5.249   0.522 -0.0774 -0.5771 -0.5706
 9456SOL    HW129267   1.080   5.227   0.618 -1.1489 -0.0005 -0.2338
 9456SOL    HW229268   0.965   5.245   0.503  0.0721 -0.1530 -1.5055
 9457SOL     OW29269   5.639   4.725   5.835 -0.6557  0.3247 -0.1656
 9457SOL    HW129270   5.700   4.789   5.881 -0.3912  0.5188 -0.7724
 9457SOL    HW229271   5.650   4.634   5.874  1.1607  0.0266 -1.2803
 9458SOL     OW29272   5.249   5.064   1.880  0.6488 -0.0535  0.1787
 9458SOL    HW129273   5.156   5.059   1.842  0.8780 -0.7947 -0.3101
 9458SOL    HW229274   5.254   5.139   1.946 -0.0678  0.5345 -0.4179
 9459SOL     OW29275   4.997   0.832   1.184 -0.3054 -0.3235  0.2577
 9459SOL    HW129276   4.947   0.829   1.097 -0.1666  0.3142  0.1469
 9459SOL    HW229277   4.939   0.874   1.254 -0.1736 -0.2052  0.2974
 9460SOL     OW29278   4.911   4.690   1.915  0.1741 -0.2164 -0.0884
 9460SOL    HW129279   4.961   4.645   1.989  0.7939  0.3576 -0.1530
 9460SOL    HW229280   4.931   4.788   1.915  0.7833 -0.3123 -1.4708
 9461SOL     OW29281   4.781   1.715   2.996  0.1867  0.3223  0.7080
 9461SOL    HW129282   4.708   1.692   2.931 -1.3278  0.3388  2.3485
 9461SOL    HW229283   4.802   1.635   3.052  0.2151  0.8135  1.4088
 9462SOL     OW29284   0.734   4.897   1.568 -0.5770  0.0182  0.1788
 9462SOL    HW129285   0.815   4.942   1.607 -0.7231  1.1433 -0.7638
 9462SOL    HW229286   0.684   4.962   1.510 -0.6782 -1.4133 -1.4198
 9463SOL     OW29287   1.035   6.674   5.199  0.0427  0.4892 -0.1957
 9463SOL    HW129288   1.059   6.676   5.102  0.7495  2.3145 -0.0225
 9463SOL    HW229289   1.066   6.587   5.239  1.4813  0.5171 -1.1842
 9464SOL     OW29290   5.973   5.497   3.344 -0.3754 -0.1436 -0.0859
 9464SOL    HW129291   5.944   5.494   3.439  1.1295  2.0448  0.5210
 9464SOL    HW229292   5.904   5.544   3.289 -0.0195  1.0940  0.4942
 9465SOL     OW29293   0.847   5.759   6.542 -0.2301 -0.1992 -0.3776
 9465SOL    HW129294   0.815   5.697   6.471 -1.7107  0.6049 -0.4481
 9465SOL    HW229295   0.825   5.720   6.632 -0.4419 -0.1557 -0.4091
 9466SOL     OW29296   2.920   6.290   5.854 -0.0638  0.0467  0.1310
 9466SOL    HW129297   2.966   6.359   5.799 -1.4644  1.4637  0.6628
 9466SOL    HW229298   2.827   6.276   5.820  1.1404 -4.1253 -2.1146
 9467SOL     OW29299   0.225   1.143   2.865  0.1463 -0.3328 -0.1119
 9467SOL    HW129300   0.224   1.241   2.885 -1.5348 -0.3021 -0.1662
 9467SOL    HW229301   0.221   1.129   2.766  1.6115 -0.4712 -0.1623
 9468SOL     OW29302   6.579   3.738   4.896  0.3336 -0.4522 -0.2637
 9468SOL    HW129303   6.508   3.688   4.846 -0.4444 -1.2859  1.6029
 9468SOL    HW229304   6.556   3.741   4.993  2.1567  0.4998  0.1817
 9469SOL     OW29305   2.680   4.731   2.120  0.5837 -0.3148  0.1702
 9469SOL    HW129306   2.706   4.656   2.059 -1.1497  1.1884 -2.6383
 9469SOL    HW229307   2.698   4.819   2.075 -0.0052  0.9142  2.2057
 9470SOL     OW29308   3.241   3.709   2.915  0.2201 -0.1919 -0.1657
 9470SOL    HW129309   3.272   3.791   2.866  0.1538 -0.1676 -0.1677
 9470SOL    HW229310   3.194   3.648   2.852  1.2313 -0.7472 -0.4069
 9471SOL     OW29311   2.863   6.118   6.834  0.4813 -0.8860  0.2542
 9471SOL    HW129312   2.891   6.159   6.921  0.8524 -0.4919 -0.0446
 9471SOL    HW229313   2.944   6.105   6.776  0.2287 -1.0917 -0.0562
 9472SOL     OW29314   0.986   6.616   5.698 -0.1533 -0.1175 -0.0413
 9472SOL    HW129315   0.999   6.520   5.672  1.4602 -0.3209  1.3572
 9472SOL    HW229316   0.957   6.668   5.618 -0.5340 -1.6591 -0.9549
 9473SOL     OW29317   1.928   5.844   2.083 -0.3356  0.0306  0.1338
 9473SOL    HW129318   1.890   5.857   1.991 -4.0877 -1.2220  1.3181
 9473SOL    HW229319   1.899   5.920   2.141  0.0445 -0.3599  0.8354
 9474SOL     OW29320   5.015   6.468   6.252 -0.6104  0.4856  0.3827
 9474SOL    HW129321   4.923   6.436   6.230  0.2320 -1.3783 -0.6750
 9474SOL    HW229322   5.081   6.427   6.189  0.9405  1.9754  0.9518
 9475SOL     OW29323   1.338   3.331   5.415 -0.0298 -0.3938  0.1680
 9475SOL    HW129324   1.365   3.426   5.425  1.2637 -0.8177  0.9432
 9475SOL    HW229325   1.395   3.274   5.474 -1.2197 -1.5820  0.2105
 9476SOL     OW29326   6.954   6.247   4.329 -0.0553  0.0662 -0.4876
 9476SOL    HW129327   7.023   6.270   4.398 -0.7004  0.2089  0.1265
 9476SOL    HW229328   6.936   6.148   4.333 -1.2724  0.3078  0.7022
 9477SOL     OW29329   5.819   2.218   6.922 -0.5040  0.4752 -0.1967
 9477SOL    HW129330   5.882   2.168   6.982 -0.5968 -1.9969 -2.0324
 9477SOL    HW229331   5.864   2.302   6.889  0.0181  1.2196  2.1747
 9478SOL     OW29332   1.909   0.893   3.961 -0.0520  0.0047 -0.2407
 9478SOL    HW129333   1.999   0.871   3.922  0.4894  0.1536  0.8805
 9478SOL    HW229334   1.873   0.813   4.009 -0.0769  0.2326  0.1233
 9479SOL     OW29335   4.733   1.593   0.714  0.4191  0.1647  0.0854
 9479SOL    HW129336   4.709   1.689   0.702  1.0531  0.1494 -1.4354
 9479SOL    HW229337   4.831   1.585   0.731  0.2266 -0.1656  1.1312
 9480SOL     OW29338   1.396   4.875   1.087 -0.8392  0.5676  0.6401
 9480SOL    HW129339   1.379   4.970   1.113 -2.0587  0.4899  0.1557
 9480SOL    HW229340   1.396   4.867   0.988  0.6282  0.2820  0.6331
 9481SOL     OW29341   3.903   0.521   1.178  0.6380  0.2399  0.0586
 9481SOL    HW129342   3.840   0.562   1.112 -0.0234  2.1291  1.7637
 9481SOL    HW229343   3.989   0.497   1.132  0.0197  1.0014 -1.5710
 9482SOL     OW29344   0.552   4.508   2.313  0.0076  0.1578 -0.1677
 9482SOL    HW129345   0.581   4.425   2.362  1.8127  0.6393 -0.3303
 9482SOL    HW229346   0.610   4.521   2.233 -1.5271  0.5489 -1.2642
 9483SOL     OW29347   5.891   5.322   6.673 -0.7389 -0.0310 -0.1865
 9483SOL    HW129348   5.915   5.240   6.725 -1.0611 -2.6520 -3.7939
 9483SOL    HW229349   5.974   5.371   6.647 -0.4153 -0.1898  0.5370
 9484SOL     OW29350   5.446   6.556   2.995 -0.0726  0.0855 -0.1584
 9484SOL    HW129351   5.534   6.526   3.033 -0.6179 -2.7420 -0.8896
 9484SOL    HW229352   5.461   6.633   2.933  2.2929 -1.7431 -2.0460
 9485SOL     OW29353   4.165   6.267   3.408 -0.1997 -0.1020 -0.1486
 9485SOL    HW129354   4.212   6.179   3.402 -2.0021 -1.0352 -1.3822
 9485SOL    HW229355   4.205   6.330   3.341 -0.3455 -0.7144 -0.8294
 9486SOL     OW29356   1.170   6.045   1.990 -0.6515 -0.1102  0.1897
 9486SOL    HW129357   1.081   6.003   1.973 -0.2365 -1.2074  0.6015
 9486SOL    HW229358   1.214   6.067   1.903 -1.1416  0.0198 -0.0220
 9487SOL     OW29359   2.933   4.200   6.631  0.4712  0.6616 -0.1218
 9487SOL    HW129360   2.836   4.210   6.608  0.7119  0.4189 -1.2876
 9487SOL    HW229361   2.988   4.256   6.569  1.1137  0.3866  0.1902
 9488SOL     OW29362   4.606   1.308   4.740 -0.3979 -0.0595 -0.3294
 9488SOL    HW129363   4.644   1.370   4.671 -2.5204  0.9205 -0.7203
 9488SOL    HW229364   4.617   1.348   4.831  0.4341 -0.3075 -0.3125
 9489SOL     OW29365   5.272   6.746   1.059 -0.1582  0.1707 -0.1562
 9489SOL    HW129366   5.267   6.825   1.121  0.6595  0.4981 -0.4899
 9489SOL    HW229367   5.354   6.754   1.002 -0.1950 -0.8080 -0.3592
 9490SOL     OW29368   3.910   6.087   2.750 -0.4579 -0.2048 -0.1958
 9490SOL    HW129369   3.991   6.030   2.766 -0.8019 -0.2809  1.4636
 9490SOL    HW229370   3.873   6.117   2.838 -1.0826  1.4729 -0.9943
 9491SOL     OW29371   4.757   1.362   2.772 -0.0682  0.3341 -0.4666
 9491SOL    HW129372   4.776   1.460   2.765  1.1943  0.0117 -1.9395
 9491SOL    HW229373   4.741   1.338   2.868 -1.5522  2.1627 -0.2024
 9492SOL     OW29374   3.749   4.783   1.254 -0.2491  0.4818 -0.5971
 9492SOL    HW129375   3.696   4.840   1.317  0.7627  0.5869  0.1939
 9492SOL    HW229376   3.709   4.691   1.251 -1.9012  1.1989 -1.9043
 9493SOL     OW29377   0.830   3.632   0.830  0.3190 -0.0270  0.4783
 9493SOL    HW129378   0.894   3.678   0.892  1.0722 -0.5109  0.0861
 9493SOL    HW229379   0.821   3.685   0.746 -0.2714  0.3499  0.7794
 9494SOL     OW29380   5.268   4.663   0.665  0.0254  0.4311 -0.0644
 9494SOL    HW129381   5.356   4.699   0.698 -0.0996  2.0920 -1.3689
 9494SOL    HW229382   5.280   4.570   0.632  1.1724  0.4375  0.2837
 9495SOL     OW29383   2.878   6.441   2.227 -0.3550 -0.0731 -0.5574
 9495SOL    HW129384   2.879   6.342   2.234 -1.4326  0.0007  1.3361
 9495SOL    HW229385   2.786   6.472   2.203 -0.2528  0.5023 -0.2206
 9496SOL     OW29386   6.077   6.954   0.083  0.5031 -0.1828 -0.5877
 9496SOL    HW129387   6.152   7.005   0.040  0.6809 -0.7052 -0.9083
 9496SOL    HW229388   6.055   6.873   0.027  1.2757 -1.3212  0.6978
 9497SOL     OW29389   0.665   5.058   3.692  0.2030  0.0578  0.5591
 9497SOL    HW129390   0.733   5.098   3.753 -0.1486  0.7181  0.5264
 9497SOL    HW229391   0.615   5.131   3.645  0.9049 -0.4171 -1.0152
 9498SOL     OW29392   6.019   6.246   1.306  0.1955  0.4748 -0.3097
 9498SOL    HW129393   5.996   6.339   1.334 -0.6929  0.2850 -0.3512
 9498SOL    HW229394   5.941   6.185   1.326  0.8458 -0.2965 -0.0803
 9499SOL     OW29395   1.509   3.385   6.451  0.2547  1.3150 -0.3311
 9499SOL    HW129396   1.454   3.306   6.425  0.2935  1.0053  0.5070
 9499SOL    HW229397   1.455   3.448   6.507  0.7829  0.9026  0.6805
 9500SOL     OW29398   1.535   0.031   5.580  0.3985 -0.3997 -0.0836
 9500SOL    HW129399   1.564  -0.057   5.544 -0.5377 -1.0293  0.6620
 9500SOL    HW229400   1.435   0.033   5.589  0.4653  0.4468  0.6400
 9501SOL     OW29401   2.241   2.399   4.467 -0.2079 -0.2862 -0.4680
 9501SOL    HW129402   2.269   2.350   4.385 -0.3796  0.2179 -0.8354
 9501SOL    HW229403   2.189   2.480   4.441  0.1043  0.1149  0.1268
 9502SOL     OW29404   0.091   1.991   6.316  0.5026  0.3423 -0.1184
 9502SOL    HW129405   0.099   1.927   6.239 -3.0910 -0.0085 -0.3759
 9502SOL    HW229406   0.151   1.962   6.390  0.9642 -1.7540 -1.2327
 9503SOL     OW29407   5.923   4.739   5.697  0.3840  0.1269  0.2960
 9503SOL    HW129408   6.009   4.747   5.647  1.2650 -2.7616  1.1776
 9503SOL    HW229409   5.938   4.691   5.784 -2.3298 -1.9792 -0.2563
 9504SOL     OW29410   1.695   3.443   0.190  0.1286  0.2224 -0.0451
 9504SOL    HW129411   1.650   3.382   0.125  0.3675 -1.6379  1.4209
 9504SOL    HW229412   1.638   3.522   0.208 -1.2223 -0.6405 -0.4084
 9505SOL     OW29413   3.395   2.042   4.326  0.1565  0.2088  0.0661
 9505SOL    HW129414   3.357   2.082   4.409 -1.7819 -0.3757 -0.5011
 9505SOL    HW229415   3.326   1.987   4.280  1.5843 -0.5604 -1.2622
 9506SOL     OW29416   5.723   0.181   6.717  0.3031  0.0116 -0.0861
 9506SOL    HW129417   5.696   0.253   6.781  0.3914 -0.1997  0.1912
 9506SOL    HW229418   5.823   0.170   6.719  0.2131 -0.7754  0.5892
 9507SOL     OW29419   2.190   2.984   4.486  0.3566  0.0144  0.0510
 9507SOL    HW129420   2.120   3.032   4.433 -0.5601  1.4117  2.3873
 9507SOL    HW229421   2.237   2.919   4.426 -1.1504  0.8714 -2.2369
 9508SOL     OW29422   1.671   0.425   5.291  0.2178  0.1166  0.4130
 9508SOL    HW129423   1.725   0.425   5.207  0.1694 -0.5523  0.3701
 9508SOL    HW229424   1.680   0.336   5.336 -2.4030 -0.7934 -0.6306
 9509SOL     OW29425   1.922   1.207   3.814 -0.5344 -0.5767 -0.0871
 9509SOL    HW129426   1.826   1.201   3.785 -0.4443  2.4622 -1.4537
 9509SOL    HW229427   1.926   1.237   3.909 -0.9243 -0.9392  0.0489
 9510SOL     OW29428   5.812   5.835   5.604  0.5261  0.2809  0.0317
 9510SOL    HW129429   5.743   5.863   5.537 -0.5372 -1.7853  0.1572
 9510SOL    HW229430   5.817   5.902   5.677 -0.3427  1.1748 -0.7050
 9511SOL     OW29431   6.869   2.121   6.003 -0.5707  0.0778 -0.2686
 9511SOL    HW129432   6.835   2.196   5.946 -1.0346 -1.1100 -1.6246
 9511SOL    HW229433   6.800   2.099   6.072 -1.0406  0.0157 -0.7435
 9512SOL     OW29434   0.539   1.492   6.224 -0.3169 -0.3454 -0.3957
 9512SOL    HW129435   0.576   1.489   6.131  0.2672  0.6459 -0.2091
 9512SOL    HW229436   0.467   1.561   6.229  0.7202  0.7285  0.2393
 9513SOL     OW29437   2.871   3.348   5.769  0.0357  0.4317 -0.1128
 9513SOL    HW129438   2.893   3.446   5.768 -3.3542  1.2943 -1.2009
 9513SOL    HW229439   2.888   3.310   5.678 -2.1493  0.9665 -0.7905
 9514SOL     OW29440   3.008   1.282   4.077 -0.1634 -0.0914  0.0681
 9514SOL    HW129441   2.949   1.332   4.013 -0.0272  2.0363  1.5006
 9514SOL    HW229442   3.090   1.252   4.030 -1.2870 -1.0349 -1.3870
 9515SOL     OW29443   3.944   0.782   5.866  0.0399 -0.0743  0.3213
 9515SOL    HW129444   3.864   0.839   5.850  1.0378  1.6325  1.1772
 9515SOL    HW229445   4.023   0.820   5.819  0.5334 -1.3180  0.0969
 9516SOL     OW29446   4.652   4.284   3.997 -0.2159 -0.2910 -0.3358
 9516SOL    HW129447   4.610   4.306   3.909  0.2790  0.6897 -0.3325
 9516SOL    HW229448   4.606   4.335   4.070  0.8247  0.6351 -0.3063
 9517SOL     OW29449   5.597   5.036   4.711  0.0977  0.1391 -0.0090
 9517SOL    HW129450   5.532   4.963   4.691  0.5771 -0.5004  0.7301
 9517SOL    HW229451   5.650   5.013   4.792  1.5322  0.4647 -0.8138
 9518SOL     OW29452   2.392   2.230   5.075  0.0998  0.7243  0.3379
 9518SOL    HW129453   2.481   2.276   5.068 -0.3411  1.3982 -1.5100
 9518SOL    HW229454   2.324   2.281   5.021 -1.2016 -0.2609  1.0007
 9519SOL     OW29455   2.116   5.531   6.860  0.3794  0.1531 -0.0265
 9519SOL    HW129456   2.212   5.556   6.847  0.0233  1.4101 -0.3349
 9519SOL    HW229457   2.099   5.441   6.819  1.7380 -0.7646  1.2991
 9520SOL     OW29458   0.044   6.553   0.970 -0.1100 -0.4612  0.1375
 9520SOL    HW129459   0.109   6.599   1.032 -0.1948 -1.2602  0.8429
 9520SOL    HW229460   0.087   6.471   0.933  0.2701  0.4805 -1.6127
 9521SOL     OW29461   5.424   0.731   6.125 -0.5329  0.4364  0.1814
 9521SOL    HW129462   5.427   0.708   6.028 -1.0301 -0.0831  0.2848
 9521SOL    HW229463   5.403   0.829   6.136  1.5402  0.9654 -0.2591
 9522SOL     OW29464   4.956   0.719   3.607 -0.2212  0.1675  0.3329
 9522SOL    HW129465   5.018   0.707   3.686  0.2062 -4.2887 -0.4109
 9522SOL    HW229466   4.872   0.668   3.623 -0.6251  0.1494 -1.6323
 9523SOL     OW29467   2.076   6.723   6.575 -0.0283 -0.3525  0.0055
 9523SOL    HW129468   2.170   6.705   6.543 -0.9486 -0.9410 -2.6207
 9523SOL    HW229469   2.027   6.636   6.584 -1.1794  0.0770 -1.6719
 9524SOL     OW29470   2.307   1.055   6.195 -0.0294 -0.0560  0.4925
 9524SOL    HW129471   2.263   1.135   6.153 -0.4386 -1.4422 -1.9125
 9524SOL    HW229472   2.406   1.069   6.198 -0.1095  0.5952  0.2250
 9525SOL     OW29473   3.905   1.085   5.229  0.0792 -0.0590  0.1763
 9525SOL    HW129474   3.973   1.013   5.244  0.4905  0.1206 -0.7214
 9525SOL    HW229475   3.868   1.115   5.316  2.5908  1.2096  0.9131
 9526SOL     OW29476   0.492   6.906   3.106  0.1913 -0.1138 -0.7662
 9526SOL    HW129477   0.463   6.951   3.191  1.7595 -0.7388  0.1483
 9526SOL    HW229478   0.459   6.958   3.028 -2.0135  0.0336  0.1822
 9527SOL     OW29479   2.325   5.317   3.168 -0.3381 -0.4194  0.1705
 9527SOL    HW129480   2.300   5.224   3.196  2.1138 -0.9251  0.9063
 9527SOL    HW229481   2.291   5.382   3.236 -2.5491 -0.6507 -0.6198
 9528SOL     OW29482   6.276   0.572   5.800 -0.0464  0.0517  0.1288
 9528SOL    HW129483   6.337   0.512   5.850 -1.2220 -0.3023  1.1754
 9528SOL    HW229484   6.232   0.636   5.863 -0.9590  0.1312 -0.5637
 9529SOL     OW29485   1.738   4.771   3.355 -0.3932 -0.1552  0.1060
 9529SOL    HW129486   1.686   4.686   3.347  1.2508 -1.1470 -0.9004
 9529SOL    HW229487   1.765   4.802   3.264  1.3752 -0.1179  0.6024
 9530SOL     OW29488   5.107   1.497   6.377  0.0501 -0.0656  0.4641
 9530SOL    HW129489   5.093   1.446   6.293  0.8248 -0.7919  0.7661
 9530SOL    HW229490   5.038   1.470   6.444  1.2151 -1.7149  1.0630
 9531SOL     OW29491   3.116   3.176   0.193 -0.0512 -0.1329 -0.0047
 9531SOL    HW129492   3.142   3.273   0.198  0.0886 -0.1962  0.4917
 9531SOL    HW229493   3.021   3.169   0.163 -0.0497  0.1553 -0.0836
 9532SOL     OW29494   3.796   0.124   6.790  0.4917  0.5078  0.3443
 9532SOL    HW129495   3.730   0.191   6.822  1.0484  1.5265 -0.5568
 9532SOL    HW229496   3.764   0.032   6.813 -1.8766  0.8736 -1.1170
 9533SOL     OW29497   5.675   3.109   0.992  0.7126  0.2404 -0.2978
 9533SOL    HW129498   5.664   3.069   0.901 -0.8943  0.2301 -0.1271
 9533SOL    HW229499   5.684   3.208   0.984 -1.5502  0.4934 -0.3996
 9534SOL     OW29500   6.610   4.719   6.889  0.4147  0.0262 -0.2379
 9534SOL    HW129501   6.692   4.693   6.939 -0.0467 -1.8000 -0.3588
 9534SOL    HW229502   6.574   4.805   6.925  1.7951  0.3265  0.4809
 9535SOL     OW29503   6.056   0.122   5.645 -0.1929 -0.4424 -0.4025
 9535SOL    HW129504   5.965   0.082   5.637 -0.6593  0.0411  1.7619
 9535SOL    HW229505   6.077   0.176   5.563 -1.8241 -0.5906 -0.9480
 9536SOL     OW29506   1.927   6.955   5.093  0.5530 -0.0501  0.6185
 9536SOL    HW129507   1.973   6.905   5.166  0.3834 -1.3243 -0.1298
 9536SOL    HW229508   1.829   6.935   5.094  0.8811 -2.2220 -1.5461
 9537SOL     OW29509   0.536   0.955   0.493 -0.1595 -0.1425  0.6989
 9537SOL    HW129510   0.519   1.052   0.515  0.4586  1.2331 -3.9222
 9537SOL    HW229511   0.460   0.919   0.440  1.7481 -0.4885 -1.9968
 9538SOL     OW29512   3.042   1.325   6.860  0.3383 -0.5723  0.0061
 9538SOL    HW129513   3.052   1.296   6.955 -0.1302  1.7556  0.8144
 9538SOL    HW229514   2.961   1.282   6.821 -0.2129 -0.5454  1.0787
 9539SOL     OW29515   1.576   5.108   4.044  0.3096  0.5822 -0.3443
 9539SOL    HW129516   1.614   5.188   3.998  0.6712  1.5568  1.5460
 9539SOL    HW229517   1.637   5.080   4.118  0.7215 -2.1357 -1.5895
 9540SOL     OW29518   0.868   2.890   6.293 -0.1369 -0.1854 -0.8754
 9540SOL    HW129519   0.958   2.899   6.249  0.5444  0.2422  0.5267
 9540SOL    HW229520   0.796   2.911   6.227  0.8268  0.1565 -1.8482
 9541SOL     OW29521   6.468   5.553   6.785 -0.4099  0.1519 -0.8374
 9541SOL    HW129522   6.452   5.576   6.689  3.5427  2.2670 -1.1909
 9541SOL    HW229523   6.439   5.629   6.843 -0.5028 -0.0784 -0.5774
 9542SOL     OW29524   0.391   6.033   4.901  0.0358  0.5299  0.3132
 9542SOL    HW129525   0.315   6.038   4.966  1.5049  1.6896  2.0595
 9542SOL    HW229526   0.464   5.976   4.940  1.5740  2.4785  0.4212
 9543SOL     OW29527   0.211   6.143   4.079 -0.5023 -0.4324  0.1285
 9543SOL    HW129528   0.193   6.099   4.167 -1.2139  0.0434  0.2343
 9543SOL    HW229529   0.124   6.165   4.035 -0.1819 -1.7076 -1.2402
 9544SOL     OW29530   6.830   4.093   2.947 -0.1521 -0.0219  0.4411
 9544SOL    HW129531   6.920   4.125   2.918 -0.0062 -0.3024  0.5778
 9544SOL    HW229532   6.760   4.157   2.916  0.0367 -0.1134 -0.2004
 9545SOL     OW29533   0.355   1.005   0.860 -0.5611 -0.4063 -0.1008
 9545SOL    HW129534   0.411   0.942   0.914 -0.5119  0.7204  1.1929
 9545SOL    HW229535   0.402   1.093   0.852 -1.7813  0.3052  0.3423
 9546SOL     OW29536   2.458   4.597   0.544 -0.1675 -0.8243  0.9361
 9546SOL    HW129537   2.502   4.525   0.490  0.2383 -1.2328  1.7849
 9546SOL    HW229538   2.478   4.582   0.641  1.2074  1.2580  1.0429
 9547SOL     OW29539   4.709   4.874   3.904 -0.2822 -0.6030  0.2030
 9547SOL    HW129540   4.615   4.854   3.876  0.0029 -1.9774  0.1356
 9547SOL    HW229541   4.768   4.875   3.823 -0.1250 -0.3972  0.3169
 9548SOL     OW29542   2.052   2.514   1.189 -0.1344  0.7775 -0.1244
 9548SOL    HW129543   2.058   2.597   1.245 -1.5196  0.6145  0.2952
 9548SOL    HW229544   2.070   2.434   1.246 -0.1837  0.6941 -0.2261
 9549SOL     OW29545   6.181   0.895   3.940  0.3213 -0.3946 -0.5271
 9549SOL    HW129546   6.082   0.909   3.940  0.2653 -0.6406  0.7153
 9549SOL    HW229547   6.214   0.892   4.035  1.4599 -0.7023 -0.9161
 9550SOL     OW29548   3.597   2.411   1.153 -0.2840 -0.0479  0.0398
 9550SOL    HW129549   3.647   2.388   1.069 -0.2824  0.1507 -0.0152
 9550SOL    HW229550   3.500   2.391   1.140 -0.0833 -1.3772  0.4957
 9551SOL     OW29551   1.985   1.397   1.361 -0.1106 -0.1780 -0.3321
 9551SOL    HW129552   2.010   1.432   1.451 -2.9701 -2.5159  1.5227
 9551SOL    HW229553   2.050   1.325   1.334  0.5356  0.2704 -0.0047
 9552SOL     OW29554   2.003   2.778   0.239  0.5010  0.0473  0.7276
 9552SOL    HW129555   1.989   2.791   0.141 -1.0779  0.8423  1.0289
 9552SOL    HW229556   1.980   2.862   0.288  0.2024 -0.6725  1.8788
 9553SOL     OW29557   3.736   0.622   0.977  0.2606  0.1657 -0.0527
 9553SOL    HW129558   3.674   0.546   0.997 -0.8437  0.8898 -0.6241
 9553SOL    HW229559   3.713   0.662   0.888  0.2128  1.7239  0.6149
 9554SOL     OW29560   6.065   2.833   3.965 -0.4081  0.3971  0.1526
 9554SOL    HW129561   6.092   2.835   3.869 -1.1056 -1.3833 -0.1288
 9554SOL    HW229562   5.970   2.863   3.973 -0.3370  0.5848  0.3001
 9555SOL     OW29563   6.085   5.646   5.311 -0.6053  0.5642 -0.1734
 9555SOL    HW129564   6.157   5.578   5.300  0.1557  1.3068  0.0823
 9555SOL    HW229565   5.997   5.600   5.327  0.1457 -0.3621  1.5652
 9556SOL     OW29566   0.616   1.691   2.830 -0.4280  0.3190 -0.2936
 9556SOL    HW129567   0.524   1.671   2.863  0.2908 -0.5272  1.2869
 9556SOL    HW229568   0.633   1.790   2.837 -1.2544  0.4983 -0.7256
 9557SOL     OW29569   1.150   2.804   4.644  0.3402  0.3884  0.0698
 9557SOL    HW129570   1.172   2.888   4.596 -2.5557  0.9139 -0.5094
 9557SOL    HW229571   1.195   2.727   4.598  0.0309  1.2015 -1.6741
 9558SOL     OW29572   6.312   0.214   0.355 -0.1553 -0.2648  0.0615
 9558SOL    HW129573   6.396   0.265   0.373  0.8470 -1.3441 -1.3727
 9558SOL    HW229574   6.273   0.242   0.267  0.1569 -1.5725 -0.5285
 9559SOL     OW29575   0.336   3.339   6.225  0.2174 -0.3108  0.4284
 9559SOL    HW129576   0.373   3.404   6.158 -0.3141 -1.0827 -0.6471
 9559SOL    HW229577   0.348   3.376   6.317  0.1562  1.1969 -0.1317
 9560SOL     OW29578   2.337   4.957   0.064  0.3747 -0.1897 -0.4649
 9560SOL    HW129579   2.295   5.027   0.006  1.3399  1.2642  0.5283
 9560SOL    HW229580   2.292   4.956   0.154  0.1781 -1.0659 -0.5587
 9561SOL     OW29581   4.047   2.996   1.370  0.3206  0.2147  0.0252
 9561SOL    HW129582   3.971   3.029   1.426 -0.0106 -1.7292  0.8036
 9561SOL    HW229583   4.012   2.951   1.288  0.7316  1.1682 -0.6919
 9562SOL     OW29584   3.895   4.245   0.754  0.1470 -0.2931 -0.4584
 9562SOL    HW129585   3.802   4.246   0.790 -0.1103 -2.2618 -1.0023
 9562SOL    HW229586   3.945   4.324   0.791 -1.0389 -0.4524  1.6689
 9563SOL     OW29587   1.541   6.858   1.612  0.1738 -0.2326  0.4970
 9563SOL    HW129588   1.601   6.831   1.688  0.7950  1.9695  0.8705
 9563SOL    HW229589   1.562   6.802   1.532  2.1965 -0.0937  0.8634
 9564SOL     OW29590   1.791   5.805   6.777 -0.2335  0.4706 -0.6993
 9564SOL    HW129591   1.865   5.782   6.713  0.2470  0.8464 -0.2860
 9564SOL    HW229592   1.807   5.897   6.814 -0.4289  0.2027  0.0679
 9565SOL     OW29593   3.566   0.747   0.771  0.1613 -0.4184 -0.3003
 9565SOL    HW129594   3.552   0.724   0.674 -1.0799 -1.0686  0.0146
 9565SOL    HW229595   3.585   0.845   0.779  0.4403 -0.3831 -1.2059
 9566SOL     OW29596   4.699   4.184   1.646  0.4328 -0.4647  0.0292
 9566SOL    HW129597   4.638   4.107   1.661 -0.1558 -0.3044 -1.3862
 9566SOL    HW229598   4.789   4.151   1.618 -0.3484 -0.6776 -2.4828
 9567SOL     OW29599   3.522   3.835   4.899  0.4044 -0.0343  0.0828
 9567SOL    HW129600   3.619   3.850   4.879  0.3354  0.4631  0.1004
 9567SOL    HW229601   3.467   3.863   4.821  0.1628  1.5006  0.7683
 9568SOL     OW29602   0.861   5.184   3.838 -0.1058  0.4683 -0.1365
 9568SOL    HW129603   0.934   5.238   3.797 -0.9128  0.5583 -1.5167
 9568SOL    HW229604   0.887   5.157   3.931  0.9059  1.9907  0.0443
 9569SOL     OW29605   2.933   4.846   3.774 -0.2778  0.0256 -0.2590
 9569SOL    HW129606   2.880   4.760   3.771 -1.9169  0.9872 -0.1719
 9569SOL    HW229607   2.971   4.858   3.865  0.7474 -1.0274 -0.5148
 9570SOL     OW29608   4.961   0.735   2.736 -0.3271  0.4065  0.0200
 9570SOL    HW129609   5.054   0.722   2.701 -0.5713 -1.0233 -0.1596
 9570SOL    HW229610   4.907   0.784   2.668  0.0894  0.5696 -0.1992
 9571SOL     OW29611   1.057   0.938   4.160 -0.3480 -0.6256 -0.0189
 9571SOL    HW129612   1.037   1.016   4.102  1.1259  0.1455  0.4710
 9571SOL    HW229613   1.110   0.871   4.109 -1.3469 -1.1981 -0.3432
 9572SOL     OW29614   2.834   6.365   4.000 -0.0403  0.6770 -0.1530
 9572SOL    HW129615   2.829   6.318   3.912  0.0562  0.0524  0.1769
 9572SOL    HW229616   2.922   6.411   4.008  0.3027  0.0015 -0.0104
 9573SOL     OW29617   0.288   1.801   4.725  0.1958  0.1600 -0.4758
 9573SOL    HW129618   0.194   1.770   4.719  0.3432 -0.4564  0.2708
 9573SOL    HW229619   0.310   1.825   4.819  0.5556  1.0610 -0.7741
 9574SOL     OW29620   6.480   6.932   2.343  0.4977  0.3392 -0.0721
 9574SOL    HW129621   6.389   6.974   2.339  0.1527 -0.0440  2.1669
 9574SOL    HW229622   6.478   6.843   2.297 -0.1867  0.4624 -0.2936
 9575SOL     OW29623   5.013   0.669   5.899 -0.4200  0.0648 -0.0790
 9575SOL    HW129624   5.037   0.700   5.807  0.2135  2.8197  0.9008
 9575SOL    HW229625   5.090   0.619   5.938  0.4432  1.3279 -0.0876
 9576SOL     OW29626   5.732   0.388   3.071  0.2170 -0.0561 -0.3186
 9576SOL    HW129627   5.720   0.433   2.982  1.2918 -0.1083 -0.5074
 9576SOL    HW229628   5.825   0.405   3.104 -0.0963 -0.2493  0.6833
 9577SOL     OW29629   0.143   6.035   3.114  0.0078  0.0901  0.4043
 9577SOL    HW129630   0.216   6.061   3.178  1.6410 -0.4778 -1.1451
 9577SOL    HW229631   0.141   5.935   3.105 -0.6351  0.1325  0.0669
 9578SOL     OW29632   6.444   5.777   1.782  0.1067 -0.5606 -0.0351
 9578SOL    HW129633   6.452   5.678   1.777 -1.1549 -0.7518  1.0642
 9578SOL    HW229634   6.431   5.815   1.691 -1.5842 -1.6535 -0.3001
 9579SOL     OW29635   1.778   6.180   1.342 -0.0642 -0.0777 -0.3875
 9579SOL    HW129636   1.836   6.233   1.280  1.0152 -0.0904  0.5749
 9579SOL    HW229637   1.757   6.092   1.301  1.3799 -0.4433 -0.4035
 9580SOL     OW29638   3.689   6.224   1.405 -0.2906 -0.0491  0.1063
 9580SOL    HW129639   3.664   6.128   1.420  0.7707 -0.6661 -1.7653
 9580SOL    HW229640   3.740   6.232   1.320 -2.1950  2.5204 -0.9134
 9581SOL     OW29641   1.553   0.582   2.810 -0.3871  0.1970  0.3836
 9581SOL    HW129642   1.604   0.506   2.849  1.6682  1.6085  0.6296
 9581SOL    HW229643   1.532   0.563   2.714  0.3787 -0.5515  0.3594
 9582SOL     OW29644   0.069   4.172   3.382 -0.0016  0.1468  0.1205
 9582SOL    HW129645   0.166   4.162   3.403 -0.2505  0.5325  1.5303
 9582SOL    HW229646   0.051   4.134   3.291  1.6631  1.0884 -0.6570
 9583SOL     OW29647   2.895   4.957   5.485  0.2493  0.2656 -0.2244
 9583SOL    HW129648   2.818   4.946   5.421  0.8320  0.0725 -0.9071
 9583SOL    HW229649   2.869   5.019   5.559 -0.9199 -0.6148  0.1313
 9584SOL     OW29650   3.624   0.099   1.323  0.6054  0.4348  0.5853
 9584SOL    HW129651   3.562   0.035   1.369  0.9948 -0.9203 -0.7060
 9584SOL    HW229652   3.574   0.181   1.296 -0.6779 -0.7039 -0.5794
 9585SOL     OW29653   4.889   3.379   3.727  0.1211 -0.2947  0.1704
 9585SOL    HW129654   4.822   3.370   3.654 -1.2261 -1.0733  1.4415
 9585SOL    HW229655   4.978   3.345   3.696  0.1989  1.5654 -1.8326
 9586SOL     OW29656   6.821   6.016   2.705  0.4656  0.6441  0.0031
 9586SOL    HW129657   6.733   5.976   2.683  0.2093  1.6094 -0.8177
 9586SOL    HW229658   6.849   5.987   2.797  0.7155 -2.0483 -0.8390
 9587SOL     OW29659   1.279   3.042   2.214  0.0315 -0.0065 -0.1789
 9587SOL    HW129660   1.225   3.081   2.138  0.4219 -0.8668 -0.9129
 9587SOL    HW229661   1.351   3.106   2.240 -0.7123  0.7179  0.1287
 9588SOL     OW29662   3.171   2.032   3.467 -0.2610 -0.0867  0.4787
 9588SOL    HW129663   3.126   1.954   3.422 -0.5068  0.6898 -0.6512
 9588SOL    HW229664   3.270   2.026   3.453 -0.3603  0.3212 -0.4749
 9589SOL     OW29665   3.131   5.987   0.687  0.2780  0.7155  0.8444
 9589SOL    HW129666   3.111   5.992   0.589  0.3208 -0.4100  0.7634
 9589SOL    HW229667   3.061   5.933   0.734 -0.0744  1.7581  1.5463
 9590SOL     OW29668   2.054   0.090   4.850 -0.0968  0.1620  0.5246
 9590SOL    HW129669   2.022   0.040   4.930 -1.1781 -0.3275 -0.1987
 9590SOL    HW229670   2.119   0.160   4.879 -0.2327 -0.2071  1.7897
 9591SOL     OW29671   6.011   3.443   3.041 -0.3852 -0.3750 -0.1990
 9591SOL    HW129672   5.964   3.482   2.961 -0.8980 -0.9033 -0.1646
 9591SOL    HW229673   6.035   3.347   3.021 -0.1201 -0.3752  0.1211
 9592SOL     OW29674   2.271   2.391   0.932 -0.2854 -0.0701 -0.7776
 9592SOL    HW129675   2.356   2.338   0.938 -0.2184  0.0333 -0.8155
 9592SOL    HW229676   2.277   2.471   0.992 -0.8951 -0.8034  0.2948
 9593SOL     OW29677   4.017   0.060   0.386 -0.1680 -0.4705  0.7759
 9593SOL    HW129678   4.017   0.108   0.298 -2.3486  0.5957  1.2898
 9593SOL    HW229679   4.073   0.109   0.452  0.1345 -0.3588  0.4330
 9594SOL     OW29680   5.460   0.482   0.195 -0.2169  0.0766  0.5159
 9594SOL    HW129681   5.373   0.440   0.221  0.3430 -0.6647  1.2339
 9594SOL    HW229682   5.442   0.569   0.149 -1.4253 -1.1809 -1.5157
 9595SOL     OW29683   3.575   5.280   2.237 -0.4533 -0.0361  0.1186
 9595SOL    HW129684   3.640   5.215   2.275 -1.1516  0.6316  2.6219
 9595SOL    HW229685   3.482   5.247   2.253 -0.8461 -0.4878 -2.5133
 9596SOL     OW29686   3.556   3.690   3.575 -0.1832 -0.1203 -0.4292
 9596SOL    HW129687   3.578   3.761   3.508  1.2788 -1.8537 -1.8967
 9596SOL    HW229688   3.604   3.710   3.661 -0.8340  1.3074 -0.3702
 9597SOL     OW29689   3.283   0.510   3.772  0.1283  0.6500 -0.0621
 9597SOL    HW129690   3.288   0.449   3.851 -1.0588  0.5889 -0.0092
 9597SOL    HW229691   3.356   0.487   3.708  1.2121  0.8137  1.0819
 9598SOL     OW29692   3.676   4.069   3.352  0.1166 -0.4211  0.1672
 9598SOL    HW129693   3.739   4.059   3.275  1.8636 -0.0948  1.4913
 9598SOL    HW229694   3.727   4.066   3.438 -1.7106 -0.2837  1.3200
 9599SOL     OW29695   2.400   1.769   1.479 -0.5537  0.8111 -0.3261
 9599SOL    HW129696   2.488   1.794   1.520 -0.0083  0.2559 -1.1401
 9599SOL    HW229697   2.395   1.805   1.386 -0.4050 -0.7481 -0.9634
 9600SOL     OW29698   0.477   4.498   4.485  0.3290  0.0663  0.1783
 9600SOL    HW129699   0.545   4.469   4.552  0.8691 -1.3639 -0.9179
 9600SOL    HW229700   0.483   4.438   4.405 -1.3915  0.7085 -0.4635
 9601SOL     OW29701   0.372   1.911   2.836  0.0320  0.3776 -0.2026
 9601SOL    HW129702   0.401   1.911   2.740 -0.2149  0.1077 -0.2792
 9601SOL    HW229703   0.331   1.823   2.858  1.1943  0.0031  0.4959
 9602SOL     OW29704   6.341   2.053   3.158 -0.4869 -0.3855 -0.3196
 9602SOL    HW129705   6.264   1.990   3.143  0.2500 -1.3539 -0.1351
 9602SOL    HW229706   6.357   2.106   3.075 -0.4844 -1.1624 -0.8254
 9603SOL     OW29707   6.356   2.611   3.639  0.3239  0.3090 -0.1176
 9603SOL    HW129708   6.291   2.637   3.568 -0.7235 -0.3641  0.5551
 9603SOL    HW229709   6.373   2.690   3.699 -1.1439  0.0932  0.6357
 9604SOL     OW29710   6.511   1.744   2.647  0.0757  0.8450  0.1748
 9604SOL    HW129711   6.458   1.659   2.648 -0.2980  1.0031  3.1031
 9604SOL    HW229712   6.454   1.819   2.613 -0.3187  0.3330 -0.3162
 9605SOL     OW29713   6.995   0.237   5.929 -0.1956 -0.2127 -0.1255
 9605SOL    HW129714   6.952   0.292   5.857  1.3969  0.3897 -0.6516
 9605SOL    HW229715   7.094   0.236   5.916  0.1540 -0.0437  2.1103
 9606SOL     OW29716   2.684   4.746   2.911 -0.4643 -0.1047  0.3007
 9606SOL    HW129717   2.664   4.748   2.813 -0.8919  0.9452  0.3919
 9606SOL    HW229718   2.726   4.833   2.938 -0.2009 -0.4469  1.0170
 9607SOL     OW29719   2.099   1.628   3.438 -0.0321 -0.6654  0.2672
 9607SOL    HW129720   2.076   1.548   3.494  1.8798 -0.9961  0.6635
 9607SOL    HW229721   2.165   1.601   3.368 -1.2025  0.0890 -1.1778
 9608SOL     OW29722   1.096   6.546   2.232 -0.1547  0.2452  0.2450
 9608SOL    HW129723   1.094   6.463   2.175 -0.2015  0.6587 -0.3699
 9608SOL    HW229724   1.145   6.527   2.317 -1.0430 -0.6944  0.5709
 9609SOL     OW29725   4.255   0.616   4.531  0.0462 -0.4046  0.9592
 9609SOL    HW129726   4.183   0.549   4.552  0.9381 -1.6940  0.1114
 9609SOL    HW229727   4.343   0.568   4.523  0.7531  0.9206  0.5171
 9610SOL     OW29728   6.260   0.474   1.664 -0.3549  0.1193 -0.3959
 9610SOL    HW129729   6.314   0.558   1.672  0.8588 -0.6298 -0.4435
 9610SOL    HW229730   6.167   0.496   1.635 -0.3077  1.5135  0.4208
 9611SOL     OW29731   3.406   5.387   1.786  0.4300  0.2545 -0.1258
 9611SOL    HW129732   3.319   5.359   1.746 -0.2915  0.2363  1.3660
 9611SOL    HW229733   3.481   5.340   1.741 -0.4394 -0.7521 -0.5551
 9612SOL     OW29734   6.651   6.388   2.851  0.4369 -0.3123  0.4227
 9612SOL    HW129735   6.618   6.480   2.869 -1.9379 -0.4743 -2.3295
 9612SOL    HW229736   6.738   6.393   2.801 -0.6813  0.6397 -1.5824
 9613SOL     OW29737   6.733   6.621   4.599 -0.9484  0.5595 -0.1207
 9613SOL    HW129738   6.714   6.704   4.546 -0.4100  1.8341  1.6191
 9613SOL    HW229739   6.730   6.642   4.696 -0.0360 -1.3111  0.3490
 9614SOL     OW29740   2.048   4.295   1.321  0.5553 -0.6016 -0.0288
 9614SOL    HW129741   1.979   4.289   1.249  0.8550  0.0252 -0.3748
 9614SOL    HW229742   2.005   4.323   1.407  0.5211  0.7859 -0.4802
 9615SOL     OW29743   5.875   5.351   1.111 -0.2770  0.1178  0.2768
 9615SOL    HW129744   5.796   5.411   1.124 -0.3577  0.2236 -0.6293
 9615SOL    HW229745   5.945   5.401   1.060  0.0014 -0.2846  0.2688
 9616SOL     OW29746   2.021   0.166   1.597  0.3324 -0.4038 -0.2033
 9616SOL    HW129747   2.045   0.085   1.543  4.1179  0.0271  0.5421
 9616SOL    HW229748   1.953   0.142   1.666  1.0393 -2.8906 -0.2882
 9617SOL     OW29749   6.704   6.280   4.179 -0.3226  0.1655 -0.5688
 9617SOL    HW129750   6.738   6.241   4.265  1.7719  0.0562 -1.4116
 9617SOL    HW229751   6.717   6.379   4.179  0.5948  0.0526 -1.1401
 9618SOL     OW29752   1.134   3.461   0.404  0.3584  0.1504  0.4682
 9618SOL    HW129753   1.037   3.441   0.417  0.7306 -0.4831  2.7788
 9618SOL    HW229754   1.170   3.507   0.485  1.9212  0.7117 -0.4980
 9619SOL     OW29755   4.031   0.384   0.955  0.2861 -0.1188 -0.4504
 9619SOL    HW129756   3.977   0.356   0.875  0.4494 -2.4612  0.1664
 9619SOL    HW229757   4.082   0.305   0.990 -0.7413  0.4573  2.7169
 9620SOL     OW29758   2.596   0.035   3.632  0.4718 -0.4833  0.1262
 9620SOL    HW129759   2.543   0.109   3.673 -2.8106 -1.9645 -1.0573
 9620SOL    HW229760   2.582  -0.050   3.684 -0.1749 -1.3846 -1.4200
 9621SOL     OW29761   4.775   5.637   6.759 -0.2457  0.2266  0.0001
 9621SOL    HW129762   4.724   5.723   6.762 -1.1857 -0.3394  1.0196
 9621SOL    HW229763   4.870   5.653   6.786 -0.6111  0.8154  0.9772
 9622SOL     OW29764   6.549   4.111   2.536 -0.2126 -0.5545  0.6885
 9622SOL    HW129765   6.601   4.070   2.461  0.3698 -0.6338  1.1293
 9622SOL    HW229766   6.604   4.183   2.580 -0.4732 -0.6361  1.1535
 9623SOL     OW29767   1.144   3.756   4.041  0.1917  0.4422  0.4912
 9623SOL    HW129768   1.220   3.803   4.086  0.3738  0.2919  0.3406
 9623SOL    HW229769   1.134   3.789   3.948  0.4455  0.0459  0.3190
 9624SOL     OW29770   4.674   3.951   6.883 -0.0631 -0.1954 -0.2423
 9624SOL    HW129771   4.712   4.036   6.920  0.8309 -0.1996 -1.1011
 9624SOL    HW229772   4.576   3.948   6.901 -0.0771  0.9337 -0.0274
 9625SOL     OW29773   2.031   2.552   4.345 -0.2234  0.2076  0.0476
 9625SOL    HW129774   1.936   2.563   4.313 -0.6399 -3.4992 -0.4659
 9625SOL    HW229775   2.092   2.555   4.266 -0.6310 -2.9006 -0.5417
 9626SOL     OW29776   6.382   1.111   3.950  0.5631  0.5138 -0.2532
 9626SOL    HW129777   6.339   1.031   3.908  0.6613  0.4594 -0.2499
 9626SOL    HW229778   6.467   1.084   3.994  0.7280  0.6628 -0.4744
 9627SOL     OW29779   5.241   2.545   1.739 -0.2636 -0.5498  0.1636
 9627SOL    HW129780   5.246   2.645   1.737  0.5250 -0.5937 -0.3800
 9627SOL    HW229781   5.242   2.514   1.834  0.0359 -0.0628  0.3258
 9628SOL     OW29782   3.899   6.283   1.582  0.3197 -0.3777  0.2420
 9628SOL    HW129783   3.811   6.261   1.539 -0.0769  1.5258 -0.0058
 9628SOL    HW229784   3.963   6.314   1.512  0.2383  1.0322  0.7663
 9629SOL     OW29785   1.973   6.564   2.275 -0.0093 -0.0923  0.7065
 9629SOL    HW129786   2.021   6.518   2.200  0.6171  0.5627  0.6997
 9629SOL    HW229787   2.016   6.652   2.293 -1.2306  0.5262  0.6863
 9630SOL     OW29788   5.336   1.725   4.463  0.0351 -0.1619  0.5481
 9630SOL    HW129789   5.289   1.767   4.386 -2.2981  0.6133  2.2967
 9630SOL    HW229790   5.361   1.795   4.529  0.5770 -0.9942  1.2530
 9631SOL     OW29791   0.196   4.808   2.924  0.5953  0.2114 -0.1500
 9631SOL    HW129792   0.284   4.829   2.966  0.4253  0.9078 -0.1275
 9631SOL    HW229793   0.123   4.845   2.981  0.3077  0.0785 -0.4278
 9632SOL     OW29794   2.412   5.351   1.414  0.2617  0.2652  0.5639
 9632SOL    HW129795   2.487   5.359   1.480  0.6741  1.4310 -0.0067
 9632SOL    HW229796   2.353   5.432   1.422  1.1983  1.2175 -1.5135
 9633SOL     OW29797   2.034   0.744   2.371  0.1898 -0.1263 -0.0057
 9633SOL    HW129798   2.033   0.833   2.417 -0.5369 -1.4679  2.7186
 9633SOL    HW229799   1.941   0.714   2.353  0.4200 -0.5418 -0.5459
 9634SOL     OW29800   1.278   2.626   3.734  0.4506  0.3997  0.2236
 9634SOL    HW129801   1.223   2.708   3.746 -0.0507  0.0288  0.4784
 9634SOL    HW229802   1.291   2.608   3.636 -1.9593 -0.8611  0.0721
 9635SOL     OW29803   1.264   3.203   4.075 -0.1842  0.1934  0.3167
 9635SOL    HW129804   1.256   3.106   4.096  0.6749 -0.0414 -0.3465
 9635SOL    HW229805   1.187   3.253   4.114 -0.4116 -0.6910  1.0276
 9636SOL     OW29806   6.710   2.597   2.849  0.5815 -0.0684 -0.2636
 9636SOL    HW129807   6.741   2.679   2.800 -2.3136  1.0134 -0.4820
 9636SOL    HW229808   6.711   2.519   2.786  1.3222  0.2582 -0.6761
 9637SOL     OW29809   4.008   6.644   2.095 -0.0219 -0.2516  0.6747
 9637SOL    HW129810   4.045   6.659   2.187 -0.1530  2.5192  0.3550
 9637SOL    HW229811   4.007   6.730   2.045 -4.1839 -0.6917 -0.3935
 9638SOL     OW29812   3.042   3.704   3.783 -0.2954 -0.0939 -0.2689
 9638SOL    HW129813   3.127   3.677   3.738  0.5295 -1.0902  1.7277
 9638SOL    HW229814   2.964   3.669   3.732  0.5149  0.0705 -1.6609
 9639SOL     OW29815   1.377   3.865   3.028 -0.2436 -0.6684  0.5648
 9639SOL    HW129816   1.386   3.913   3.115  0.8014 -0.7148  0.5007
 9639SOL    HW229817   1.449   3.895   2.966 -1.5825  0.1171 -0.6655
 9640SOL     OW29818   6.994   2.897   1.825 -0.4496 -0.4477  0.2028
 9640SOL    HW129819   6.962   2.932   1.913 -1.0248  0.5728 -0.3955
 9640SOL    HW229820   7.093   2.884   1.829 -0.2034  1.2709  0.4714
 9641SOL     OW29821   0.685   2.050   4.875  0.5414  0.3488 -0.1126
 9641SOL    HW129822   0.737   2.058   4.960 -0.5080  0.8242  0.5047
 9641SOL    HW229823   0.679   2.140   4.832  0.4600  0.2441 -0.3183
 9642SOL     OW29824   2.413   3.982   6.110 -0.1086  0.5129  0.2628
 9642SOL    HW129825   2.367   3.918   6.048 -0.3611  1.0980 -0.1641
 9642SOL    HW229826   2.478   4.037   6.058 -0.4448  1.1281  0.4860
 9643SOL     OW29827   4.579   1.322   6.911 -0.4362  0.1200  0.4352
 9643SOL    HW129828   4.611   1.412   6.883 -0.6639  0.4680  1.2552
 9643SOL    HW229829   4.559   1.323   7.009  1.2802 -1.3163  0.8627
 9644SOL     OW29830   0.621   2.306   4.750 -0.2350 -0.0316  0.3440
 9644SOL    HW129831   0.587   2.388   4.796  0.6726  1.8142 -2.0031
 9644SOL    HW229832   0.630   2.325   4.652 -1.7703 -3.6062 -0.6391
 9645SOL     OW29833   3.342   2.131   0.038 -0.2649 -0.9505 -0.1356
 9645SOL    HW129834   3.281   2.158  -0.036  0.0836 -0.3192 -0.2039
 9645SOL    HW229835   3.293   2.072   0.103 -0.6606 -1.2370 -0.6909
 9646SOL     OW29836   3.997   6.092   0.175 -0.1384  0.7884  0.3263
 9646SOL    HW129837   4.059   6.136   0.109 -0.9738 -0.0036 -1.0383
 9646SOL    HW229838   4.023   5.996   0.185 -0.4973  0.7157  0.5535
 9647SOL     OW29839   5.205   5.835   6.471  0.3690  0.1532  0.1733
 9647SOL    HW129840   5.200   5.912   6.407 -1.6806  0.9870  1.2549
 9647SOL    HW229841   5.269   5.857   6.544  0.1654  0.6221  0.2128
 9648SOL     OW29842   2.497   2.758   0.788 -0.3373 -0.0896  0.6284
 9648SOL    HW129843   2.580   2.814   0.794 -0.1540 -0.0036 -1.8129
 9648SOL    HW229844   2.514   2.681   0.727 -1.8992 -0.3837  0.5453
 9649SOL     OW29845   2.407   1.483   4.428  0.2475  0.7414  0.1001
 9649SOL    HW129846   2.349   1.403   4.415 -0.1561  1.2042 -1.1779
 9649SOL    HW229847   2.453   1.478   4.516 -1.6901  0.3233  1.1294
 9650SOL     OW29848   3.772   2.554   6.450 -0.1829  0.4361  0.9178
 9650SOL    HW129849   3.872   2.549   6.455  0.4654 -0.4298 -5.1910
 9650SOL    HW229850   3.734   2.462   6.441 -0.9347  0.8669 -0.8988
 9651SOL     OW29851   2.006   1.059   1.061 -0.2110  0.4399 -0.4808
 9651SOL    HW129852   1.942   1.087   1.132 -0.4278 -0.2201 -0.4096
 9651SOL    HW229853   2.050   1.140   1.021  0.0753  0.8051  0.5515
 9652SOL     OW29854   2.713   5.238   1.803  0.1380 -0.6416 -0.0401
 9652SOL    HW129855   2.632   5.228   1.745  0.5806 -0.6554 -0.6688
 9652SOL    HW229856   2.702   5.317   1.863  0.0673 -0.0674 -0.8029
 9653SOL     OW29857   4.026   6.131   3.033  0.5055  0.1364  0.0271
 9653SOL    HW129858   4.043   6.032   3.043 -0.3465 -0.1152 -0.8963
 9653SOL    HW229859   3.970   6.163   3.110 -0.2559 -0.3584 -0.3140
 9654SOL     OW29860   0.568   1.937   3.720  0.2118 -0.3117 -0.0465
 9654SOL    HW129861   0.488   1.969   3.670 -0.5891 -1.2596  0.5735
 9654SOL    HW229862   0.558   1.839   3.738  1.9409 -0.6469 -0.7271
 9655SOL     OW29863   1.639   6.399   4.890 -0.4832  0.0106 -0.4475
 9655SOL    HW129864   1.652   6.331   4.817  0.8036 -0.0806 -0.1452
 9655SOL    HW229865   1.591   6.356   4.966  0.2357 -0.5384 -0.2997
 9656SOL     OW29866   3.791   5.976   3.472 -0.3806 -0.2899 -0.2336
 9656SOL    HW129867   3.846   5.909   3.423  1.7687  2.2428 -1.4908
 9656SOL    HW229868   3.835   5.998   3.559 -0.8159 -0.1616 -0.0415
 9657SOL     OW29869   4.797   4.445   1.811  0.1721  0.4370  0.8014
 9657SOL    HW129870   4.843   4.530   1.835  0.9548  0.3610 -0.3584
 9657SOL    HW229871   4.863   4.381   1.771 -0.4844 -0.5662  1.2906
 9658SOL     OW29872   2.472   4.940   6.758  0.1499  0.1943  0.3159
 9658SOL    HW129873   2.468   4.883   6.840  1.3597  1.6998  1.4880
 9658SOL    HW229874   2.542   4.905   6.696 -1.4458 -1.5353 -0.6050
 9659SOL     OW29875   3.392   3.442   1.790  0.3679  0.0782 -0.5410
 9659SOL    HW129876   3.314   3.473   1.843 -0.5132 -0.8973 -1.2226
 9659SOL    HW229877   3.458   3.397   1.850 -0.3462 -0.5027 -0.1840
 9660SOL     OW29878   1.749   1.310   6.101  0.2657 -0.1319  0.1657
 9660SOL    HW129879   1.651   1.316   6.082  0.4834  1.3191 -0.5816
 9660SOL    HW229880   1.763   1.250   6.180 -1.0798 -1.7511 -0.7570
 9661SOL     OW29881   0.911   2.269   1.655 -0.0623  0.2810 -0.4640
 9661SOL    HW129882   0.816   2.296   1.671 -0.0201  0.0939  0.1167
 9661SOL    HW229883   0.923   2.244   1.559 -0.3184  1.4368 -0.8047
 9662SOL     OW29884   1.478   0.449   5.906 -0.1826  0.7183  0.2566
 9662SOL    HW129885   1.454   0.514   5.833 -0.5771  0.3019  0.0113
 9662SOL    HW229886   1.558   0.483   5.956  1.1193  0.2419 -1.3969
 9663SOL     OW29887   3.811   4.982   4.450 -0.0575  0.0407  0.5846
 9663SOL    HW129888   3.757   4.943   4.524 -1.9246 -2.4265 -1.8812
 9663SOL    HW229889   3.791   5.079   4.442 -1.2006 -0.0212  2.1425
 9664SOL     OW29890   0.028   5.508   3.643 -0.2822  0.1976 -0.7722
 9664SOL    HW129891   0.020   5.425   3.699 -1.1570  0.7084 -0.1154
 9664SOL    HW229892   0.039   5.587   3.702  0.1931  0.5982 -1.3860
 9665SOL     OW29893   6.228   2.603   2.779 -0.3328  0.4947 -0.3840
 9665SOL    HW129894   6.287   2.684   2.776 -1.4182  1.2901 -0.9004
 9665SOL    HW229895   6.284   2.521   2.765  1.0467  0.9852  1.7184
 9666SOL     OW29896   4.838   3.093   6.561  0.1127  0.2039  0.0426
 9666SOL    HW129897   4.826   3.082   6.462  0.4827 -0.3717  0.0591
 9666SOL    HW229898   4.759   3.055   6.609 -0.2318  0.7973 -0.0379
 9667SOL     OW29899   1.687   4.336   0.001  0.6666  0.8324 -0.0528
 9667SOL    HW129900   1.615   4.274   0.031 -0.1186  1.2240 -1.0492
 9667SOL    HW229901   1.755   4.346   0.073  0.3271 -0.4507  0.4709
 9668SOL     OW29902   4.615   2.403   5.756 -0.1703  0.6011 -0.0085
 9668SOL    HW129903   4.538   2.380   5.816  0.1601  0.3922  0.3315
 9668SOL    HW229904   4.582   2.406   5.661 -0.2019 -1.5216 -0.1266
 9669SOL     OW29905   0.525   0.584   0.646 -0.5658  0.3724 -0.1103
 9669SOL    HW129906   0.482   0.501   0.609  1.2863 -0.9196  0.5191
 9669SOL    HW229907   0.456   0.656   0.651 -2.1337 -0.9572 -1.1276
 9670SOL     OW29908   6.581   0.242   2.070  0.2543 -0.0310  0.0951
 9670SOL    HW129909   6.516   0.194   2.012 -0.7345 -0.1955  1.2985
 9670SOL    HW229910   6.632   0.176   2.125  2.5915 -0.0351 -1.9095
 9671SOL     OW29911   2.061   6.233   0.496 -0.5218 -0.3861 -0.2786
 9671SOL    HW129912   2.063   6.187   0.408 -0.1599  0.2847 -0.6283
 9671SOL    HW229913   2.150   6.274   0.515 -1.2918  1.6358 -0.7854
 9672SOL     OW29914   4.446   1.390   4.182 -0.7135  0.1475  0.4067
 9672SOL    HW129915   4.467   1.337   4.100 -0.3083  0.3332  0.3876
 9672SOL    HW229916   4.349   1.411   4.185 -0.5423  1.2317 -0.6873
 9673SOL     OW29917   0.050   4.744   5.964 -0.2686 -0.1701  0.2349
 9673SOL    HW129918   0.009   4.693   6.039 -1.2687 -0.9586 -0.8225
 9673SOL    HW229919   0.134   4.698   5.934  0.4850  0.4957  1.2585
 9674SOL     OW29920   0.496   5.621   5.921  0.1250  0.1509  1.0721
 9674SOL    HW129921   0.565   5.627   5.848 -1.0410 -0.0652 -0.0784
 9674SOL    HW229922   0.504   5.533   5.967 -0.1539 -0.3755  0.1367
 9675SOL     OW29923   5.264   3.315   3.872  0.0721 -0.2641  0.3766
 9675SOL    HW129924   5.317   3.367   3.939  1.4500 -0.6214 -0.3936
 9675SOL    HW229925   5.224   3.235   3.916  1.1143 -0.5934  0.7451
 9676SOL     OW29926   5.525   3.622   2.695  0.1699 -0.0034 -0.0317
 9676SOL    HW129927   5.595   3.615   2.624  0.7374 -0.1506  0.5276
 9676SOL    HW229928   5.565   3.596   2.783 -1.2372 -2.5574 -0.0717
 9677SOL     OW29929   5.608   5.521   4.273 -0.1610 -0.2574 -0.6914
 9677SOL    HW129930   5.523   5.517   4.222 -0.6678 -1.8077  0.2275
 9677SOL    HW229931   5.591   5.559   4.364  0.2265 -0.1321 -0.6676
 9678SOL     OW29932   4.949   4.331   5.379  0.5895 -0.3078  0.3380
 9678SOL    HW129933   4.976   4.398   5.310  0.6096  1.3331  1.8741
 9678SOL    HW229934   4.871   4.366   5.431  1.8050 -0.5795  2.4516
 9679SOL     OW29935   1.912   2.133   6.330 -0.0910  0.3066 -0.1143
 9679SOL    HW129936   1.889   2.222   6.289 -2.8399  0.0092  0.6118
 9679SOL    HW229937   1.883   2.132   6.426  1.3513 -0.8688  0.3500
 9680SOL     OW29938   3.003   1.743   0.395 -0.6534 -0.5164 -0.2443
 9680SOL    HW129939   2.943   1.813   0.433  0.9852  1.6409 -1.3956
 9680SOL    HW229940   3.018   1.760   0.298  2.0351 -0.7222  0.0363
 9681SOL     OW29941   1.244   4.158   4.958 -0.5551 -0.5451 -0.0148
 9681SOL    HW129942   1.159   4.108   4.942 -0.3160 -1.5661  1.6384
 9681SOL    HW229943   1.231   4.254   4.935 -1.8763 -0.8435 -0.6184
 9682SOL     OW29944   2.734   5.460   7.005  0.3450  0.2971 -1.1484
 9682SOL    HW129945   2.792   5.456   7.087  0.8385 -2.4158 -1.5523
 9682SOL    HW229946   2.640   5.437   7.029  0.4550 -0.3251 -1.3048
 9683SOL     OW29947   4.921   5.343   1.048  0.4433  0.3047  0.3068
 9683SOL    HW129948   5.002   5.386   1.087  0.4856  1.0170 -0.5403
 9683SOL    HW229949   4.915   5.364   0.951  0.8299 -2.1828 -0.3131
 9684SOL     OW29950   4.019   3.232   6.001 -0.4978 -0.5181  0.2728
 9684SOL    HW129951   4.050   3.173   5.927 -1.1083  1.5017 -1.6795
 9684SOL    HW229952   3.920   3.246   5.994 -0.5508 -0.1763  1.4216
 9685SOL     OW29953   5.374   0.001   5.107  0.1619 -0.3896  0.3249
 9685SOL    HW129954   5.418   0.090   5.119  0.2279 -0.0367 -2.0768
 9685SOL    HW229955   5.444  -0.070   5.099  0.2226 -0.2558 -0.4328
 9686SOL     OW29956   4.251   5.539   6.698  0.8751  0.6646  0.0586
 9686SOL    HW129957   4.349   5.545   6.674  1.3348 -0.1101  1.6395
 9686SOL    HW229958   4.213   5.454   6.661  1.1078  0.3865  0.4509
 9687SOL     OW29959   1.967   4.954   5.254 -0.1144  0.1945  0.3526
 9687SOL    HW129960   1.947   4.981   5.348  1.1595 -1.0169  1.0090
 9687SOL    HW229961   1.984   4.856   5.250  1.7828  0.5000 -0.7514
 9688SOL     OW29962   0.771   2.014   1.209 -0.8520 -0.2110 -0.4242
 9688SOL    HW129963   0.722   2.021   1.296 -0.9318 -1.3663 -0.3685
 9688SOL    HW229964   0.738   1.935   1.158  1.8090 -1.8232  0.1782
 9689SOL     OW29965   1.455   0.252   4.980  0.1231 -0.4852 -0.0878
 9689SOL    HW129966   1.453   0.186   4.905  0.5947  0.1477 -0.6634
 9689SOL    HW229967   1.362   0.272   5.009 -0.0742 -0.5740 -0.6487
 9690SOL     OW29968   3.803   5.262   0.171 -0.1790  0.5544  0.0404
 9690SOL    HW129969   3.763   5.194   0.232 -0.5960  0.4679 -0.3217
 9690SOL    HW229970   3.821   5.346   0.222  1.6855 -0.2699  0.8377
 9691SOL     OW29971   6.988   1.401   5.322 -0.2241  0.1753 -0.3126
 9691SOL    HW129972   6.898   1.387   5.279 -1.2390  0.1941  1.6828
 9691SOL    HW229973   6.975   1.429   5.417  1.9252  0.0243  0.0710
 9692SOL     OW29974   2.852   6.338   3.009 -0.0553 -0.2959  0.3480
 9692SOL    HW129975   2.833   6.412   2.945  2.9329  1.3008  1.1147
 9692SOL    HW229976   2.915   6.273   2.968  1.3453  0.3734  1.3641
 9693SOL     OW29977   3.409   1.684   4.953 -0.2707 -0.3107 -0.6198
 9693SOL    HW129978   3.427   1.586   4.944 -1.5341 -0.4008 -2.6734
 9693SOL    HW229979   3.404   1.726   4.862 -2.3721  1.1642  0.1043
 9694SOL     OW29980   5.538   6.614   0.097  0.3035 -0.0751  0.2420
 9694SOL    HW129981   5.511   6.700   0.142 -0.1676 -0.4719  0.7289
 9694SOL    HW229982   5.465   6.547   0.106  0.6847 -0.5462 -0.1034
 9695SOL     OW29983   6.478   3.872   5.766  0.0424  0.3925 -0.8173
 9695SOL    HW129984   6.524   3.959   5.744  0.1187  0.1395 -1.6913
 9695SOL    HW229985   6.530   3.796   5.727  0.5825 -0.1630  0.8701
 9696SOL     OW29986   5.957   0.629   6.539 -0.0259 -0.1136 -0.6956
 9696SOL    HW129987   5.924   0.687   6.464 -1.5043  0.9905  0.7531
 9696SOL    HW229988   5.912   0.540   6.534 -0.5974  0.1715 -0.7759
 9697SOL     OW29989   0.938   3.664   1.677 -0.3441 -0.0773 -0.2707
 9697SOL    HW129990   0.952   3.574   1.638 -2.1733 -0.8810  0.7987
 9697SOL    HW229991   0.991   3.673   1.762 -2.2789 -1.2766  1.1517
 9698SOL     OW29992   0.275   0.082   2.574 -0.3973 -0.0168 -0.2276
 9698SOL    HW129993   0.356   0.142   2.576  1.4018 -2.3109  1.3438
 9698SOL    HW229994   0.220   0.099   2.656 -2.4334  2.5274 -1.9535
 9699SOL     OW29995   4.555   3.934   6.618 -0.0065  0.1035 -0.1785
 9699SOL    HW129996   4.557   3.835   6.603  0.2725 -0.0176  0.6155
 9699SOL    HW229997   4.642   3.963   6.657  1.2721  1.2000 -3.5038
 9700SOL     OW29998   6.761   2.314   4.304  0.4878 -0.2596 -0.0537
 9700SOL    HW129999   6.857   2.288   4.311  0.6922  0.6514  0.7277
 9700SOL    HW230000   6.728   2.295   4.211  1.1347 -1.4944 -0.0539
 9701SOL     OW30001   0.245   3.510   4.219 -0.3073 -0.1278  0.0218
 9701SOL    HW130002   0.320   3.544   4.276  0.3303 -0.2926 -0.7016
 9701SOL    HW230003   0.246   3.557   4.131 -1.3404  0.1902  0.1586
 9702SOL     OW30004   1.376   6.643   2.142  0.3496  0.3642 -0.7426
 9702SOL    HW130005   1.381   6.601   2.052 -2.6900 -3.2715  0.5110
 9702SOL    HW230006   1.285   6.685   2.154  0.8888  1.2617  0.4626
 9703SOL     OW30007   1.805   2.404   3.421  0.7357  0.6423  0.7767
 9703SOL    HW130008   1.767   2.475   3.362  1.2237  1.6402  1.6301
 9703SOL    HW230009   1.904   2.400   3.410  0.5499 -1.4272 -0.8670
 9704SOL     OW30010   2.791   4.987   0.540 -0.0106  0.1245 -0.1307
 9704SOL    HW130011   2.887   4.960   0.547  0.8123  2.7139 -0.3969
 9704SOL    HW230012   2.745   4.968   0.627  1.4025  1.0948  0.8759
 9705SOL     OW30013   5.745   6.973   5.848 -1.1348  0.1536 -0.0132
 9705SOL    HW130014   5.711   6.879   5.843  1.0376 -0.7115  0.2325
 9705SOL    HW230015   5.807   6.981   5.927  0.0313  1.3228 -1.0133
 9706SOL     OW30016   2.191   4.451   5.687  0.4285 -0.1151  0.7851
 9706SOL    HW130017   2.116   4.480   5.747 -0.2918  0.5067 -0.3857
 9706SOL    HW230018   2.189   4.351   5.679 -0.6594 -0.0701  0.3046
 9707SOL     OW30019   0.358   3.306   4.501  0.5258 -0.2036  0.0499
 9707SOL    HW130020   0.307   3.233   4.454  0.3880 -0.5259  0.6913
 9707SOL    HW230021   0.295   3.380   4.525  0.7042  0.2320 -0.7909
 9708SOL     OW30022   5.334   5.132   6.697  0.1809 -0.2227  0.2758
 9708SOL    HW130023   5.401   5.170   6.760  1.5511 -1.0879 -0.6044
 9708SOL    HW230024   5.264   5.201   6.677  0.1305  0.2991  2.1210
 9709SOL     OW30025   0.918   5.618   5.031  0.3945  0.7297  0.1669
 9709SOL    HW130026   0.917   5.518   5.023 -0.2718  0.8343 -1.2013
 9709SOL    HW230027   0.854   5.646   5.103  2.2075  0.0853  2.1388
 9710SOL     OW30028   6.555   3.450   3.872 -0.6332  0.5230 -0.6085
 9710SOL    HW130029   6.553   3.389   3.951  0.4630  2.2913  0.8579
 9710SOL    HW230030   6.461   3.473   3.845 -1.0453  1.1286  1.2175
 9711SOL     OW30031   3.640   0.409   2.678 -0.1035  0.1413 -0.6216
 9711SOL    HW130032   3.706   0.402   2.754 -2.9994 -1.5787  1.9634
 9711SOL    HW230033   3.644   0.326   2.623 -0.4542 -0.2142 -0.1208
 9712SOL     OW30034   0.705   4.923   1.176  0.1466 -0.3752  0.3915
 9712SOL    HW130035   0.653   4.971   1.247 -0.0507  1.0523 -0.6722
 9712SOL    HW230036   0.653   4.921   1.091  1.7780  1.0889 -0.7116
 9713SOL     OW30037   3.251   4.903   0.576  0.2417  0.6893  0.1142
 9713SOL    HW130038   3.333   4.897   0.519  1.2684 -0.3865  1.6452
 9713SOL    HW230039   3.210   4.812   0.584 -0.5192  1.0338  0.2240
 9714SOL     OW30040   6.257   1.183   5.562  0.4195 -0.5370 -0.4046
 9714SOL    HW130041   6.260   1.176   5.662 -1.4407 -0.1083 -0.2844
 9714SOL    HW230042   6.310   1.263   5.533 -1.6954  1.3421  0.5702
 9715SOL     OW30043   4.004   6.606   6.587  0.5352  0.1120  0.2570
 9715SOL    HW130044   4.059   6.611   6.670  2.3668  1.0465 -0.9598
 9715SOL    HW230045   3.998   6.696   6.545  0.4478 -0.5133 -1.1371
 9716SOL     OW30046   6.715   1.369   1.546 -0.0897  0.0362  0.7325
 9716SOL    HW130047   6.665   1.360   1.631 -0.7684 -1.2169  0.2252
 9716SOL    HW230048   6.652   1.394   1.472 -0.2142 -2.3792 -0.0812
 9717SOL     OW30049   1.218   1.413   1.325 -0.4670 -0.6392  0.4947
 9717SOL    HW130050   1.259   1.344   1.265  0.7611  0.5622 -0.1056
 9717SOL    HW230051   1.133   1.448   1.283 -0.4074 -0.8678  0.1825
 9718SOL     OW30052   1.672   1.174   0.301  0.4146  0.1876  0.4540
 9718SOL    HW130053   1.646   1.235   0.225  0.2826  0.6913  0.9018
 9718SOL    HW230054   1.663   1.223   0.387  0.5079 -0.4081  0.8032
 9719SOL     OW30055   4.374   0.836   6.856  0.3714  0.8644  0.0179
 9719SOL    HW130056   4.443   0.893   6.901  0.9827  0.2484 -0.1333
 9719SOL    HW230057   4.410   0.801   6.770  0.5179 -0.8570  0.7437
 9720SOL     OW30058   0.176   1.199   1.644  0.7246  0.2357  0.0960
 9720SOL    HW130059   0.234   1.249   1.708  1.2233 -0.8214  0.4982
 9720SOL    HW230060   0.125   1.128   1.692 -0.5277  0.8045 -0.3465
 9721SOL     OW30061   3.732   2.190   5.485 -0.0150 -0.1362 -0.5221
 9721SOL    HW130062   3.767   2.232   5.401 -1.0195  3.0850  0.5378
 9721SOL    HW230063   3.801   2.127   5.521  1.7968  0.8479 -2.0469
 9722SOL     OW30064   4.906   5.052   6.576 -0.4072 -0.2632  0.3703
 9722SOL    HW130065   4.982   5.000   6.617 -0.5983 -1.5871 -0.9005
 9722SOL    HW230066   4.918   5.057   6.477 -0.9685  1.2342  0.3500
 9723SOL     OW30067   6.955   2.437   1.785 -0.3193 -0.3543  0.3593
 9723SOL    HW130068   6.858   2.421   1.806 -0.3356 -1.1678 -0.2931
 9723SOL    HW230069   6.965   2.526   1.739 -0.9946 -0.9965 -1.0938
 9724SOL     OW30070   4.508   4.500   4.109 -0.3240  0.5662  0.7315
 9724SOL    HW130071   4.425   4.553   4.125 -0.1791  1.8200 -1.9885
 9724SOL    HW230072   4.588   4.554   4.136 -0.3007 -0.1198  2.1230
 9725SOL     OW30073   5.760   4.410   1.525  0.0573 -0.0554  0.0095
 9725SOL    HW130074   5.729   4.350   1.452 -1.6604  3.0361 -2.0347
 9725SOL    HW230075   5.688   4.419   1.594  0.3992 -0.4836  0.4278
 9726SOL     OW30076   4.392   5.862   0.279  0.0868  0.4045  0.2079
 9726SOL    HW130077   4.432   5.931   0.218  0.3212 -0.4816 -0.6592
 9726SOL    HW230078   4.399   5.894   0.374  3.3170  0.0914  0.1640
 9727SOL     OW30079   2.436   3.556   1.293 -0.0631 -0.0534  0.1701
 9727SOL    HW130080   2.342   3.586   1.307  0.1803  0.7084  0.2259
 9727SOL    HW230081   2.472   3.596   1.209 -0.1435 -1.2446 -0.4584
 9728SOL     OW30082   0.879   0.965   2.522  0.5794 -0.2216  0.5644
 9728SOL    HW130083   0.896   0.896   2.592  0.0285  0.9194  1.8813
 9728SOL    HW230084   0.784   0.996   2.528  1.2607  1.9066  1.2328
 9729SOL     OW30085   5.688   0.490   2.283  0.2571  0.3107  0.8181
 9729SOL    HW130086   5.781   0.478   2.249 -0.0703  2.1874 -0.9623
 9729SOL    HW230087   5.640   0.402   2.281  1.2165 -0.2181 -0.7999
 9730SOL     OW30088   0.944   1.403   4.854 -0.0157  0.1446  0.6203
 9730SOL    HW130089   0.924   1.499   4.876 -1.7676 -0.0340  0.0272
 9730SOL    HW230090   0.889   1.344   4.912 -0.7754 -0.4196 -0.6168
 9731SOL     OW30091   1.675   3.805   2.259  0.5186 -0.0209  0.4390
 9731SOL    HW130092   1.643   3.829   2.350  2.5905 -1.3913  1.6059
 9731SOL    HW230093   1.628   3.722   2.228 -0.5206  0.7008  0.0210
 9732SOL     OW30094   5.289   5.029   0.178  0.2339 -1.1955  0.1027
 9732SOL    HW130095   5.228   5.060   0.106  1.1310 -1.0315 -0.6032
 9732SOL    HW230096   5.344   4.952   0.145 -0.5303 -2.2275  1.1710
 9733SOL     OW30097   5.242   0.566   1.633 -0.2467 -0.1805 -0.6553
 9733SOL    HW130098   5.251   0.597   1.539  1.1322 -2.1893 -1.2451
 9733SOL    HW230099   5.226   0.467   1.635  2.2636 -0.6516  1.2095
 9734SOL     OW30100   5.238   2.152   0.466  0.0064  0.1023  0.4913
 9734SOL    HW130101   5.165   2.146   0.398 -0.4965  2.6629  0.6871
 9734SOL    HW230102   5.327   2.148   0.421 -0.3241  1.0361 -0.2737
 9735SOL     OW30103   2.481   1.627   5.565 -0.3349  0.2054 -0.6260
 9735SOL    HW130104   2.432   1.586   5.643 -1.9104  0.2394 -1.5489
 9735SOL    HW230105   2.561   1.676   5.598 -2.3860  2.5015  1.3456
 9736SOL     OW30106   4.904   2.030   5.211 -0.0080 -0.5013 -0.0102
 9736SOL    HW130107   4.905   1.989   5.120  1.7191 -1.1621  0.2529
 9736SOL    HW230108   4.821   2.084   5.223  0.3235  0.7034 -2.4552
 9737SOL     OW30109   0.870   2.295   5.793 -0.5367  0.3571 -0.4956
 9737SOL    HW130110   0.929   2.218   5.767  0.7694  0.6813  1.3184
 9737SOL    HW230111   0.778   2.280   5.756  0.4468 -0.5212 -2.8095
 9738SOL     OW30112   0.161   5.088   0.915  0.6617 -0.6028 -0.2907
 9738SOL    HW130113   0.091   5.093   0.987 -0.4286  0.4579 -1.3855
 9738SOL    HW230114   0.212   5.002   0.924 -0.1902 -0.9967  1.0548
 9739SOL     OW30115   3.833   5.156   6.230 -0.0613  0.2887  0.2128
 9739SOL    HW130116   3.845   5.071   6.178 -0.1899  0.4999 -0.1710
 9739SOL    HW230117   3.735   5.177   6.238 -0.0316  0.3794  0.3410
 9740SOL     OW30118   5.151   6.998   5.912  1.0556  0.6118  0.0564
 9740SOL    HW130119   5.155   7.075   5.975  0.3189 -0.2112  1.1445
 9740SOL    HW230120   5.181   6.915   5.959 -0.1348 -0.1403 -0.4565
 9741SOL     OW30121   2.997   1.437   3.349 -0.4773 -0.7092 -0.0341
 9741SOL    HW130122   2.961   1.530   3.341  0.9273 -0.3059 -3.3761
 9741SOL    HW230123   3.094   1.440   3.372 -0.8754 -1.5047  1.9549
 9742SOL     OW30124   5.414   2.350   0.667  0.6870 -0.0273 -0.2301
 9742SOL    HW130125   5.410   2.251   0.659  0.0315 -0.2405  2.0544
 9742SOL    HW230126   5.474   2.375   0.743 -0.2069  1.2515  0.0919
 9743SOL     OW30127   1.013   1.125   0.536  0.0423 -0.4806  0.1377
 9743SOL    HW130128   1.022   1.171   0.624  1.5048 -2.9148  1.3820
 9743SOL    HW230129   0.918   1.127   0.506 -0.7091 -0.6061  2.3828
 9744SOL     OW30130   2.673   5.775   5.065  0.6107 -0.1640 -0.2692
 9744SOL    HW130131   2.592   5.719   5.050  0.4117 -0.3663  1.4229
 9744SOL    HW230132   2.668   5.819   5.155  0.7104  2.6871 -1.5372
 9745SOL     OW30133   5.985   0.391   0.135  0.3489  0.3997  0.1810
 9745SOL    HW130134   5.889   0.410   0.155 -0.4879 -1.3341 -1.9386
 9745SOL    HW230135   6.013   0.307   0.181  1.1855  1.3735  1.5450
 9746SOL     OW30136   5.403   3.210   0.544 -0.0007 -0.2138  0.6028
 9746SOL    HW130137   5.344   3.290   0.536  1.2913  0.9246  1.9947
 9746SOL    HW230138   5.492   3.237   0.580  1.0926 -2.0286 -0.5865
 9747SOL     OW30139   5.647   6.089   5.671  0.2968 -0.0265 -0.4455
 9747SOL    HW130140   5.555   6.056   5.693 -0.4600  2.2219  0.0497
 9747SOL    HW230141   5.709   6.067   5.746 -1.0237  2.7233  1.6348
 9748SOL     OW30142   4.939   1.357   0.516  0.2544 -0.2298 -0.2481
 9748SOL    HW130143   4.908   1.445   0.481 -0.2208 -0.3797 -0.2123
 9748SOL    HW230144   5.038   1.358   0.526  0.1733  0.5711  0.5103
 9749SOL     OW30145   5.093   2.278   5.513 -0.4783  0.4850 -0.0189
 9749SOL    HW130146   5.026   2.205   5.518  1.4182 -1.3181  0.2371
 9749SOL    HW230147   5.148   2.268   5.430 -0.3261  1.7679 -0.0967
 9750SOL     OW30148   2.006   0.456   2.077 -0.3589 -0.3013  0.4928
 9750SOL    HW130149   1.919   0.499   2.100  0.4649  0.4856  2.4175
 9750SOL    HW230150   2.013   0.443   1.978 -1.9596  1.0942  0.1638
 9751SOL     OW30151   5.659   0.223   0.371  0.1092 -0.6642  0.0692
 9751SOL    HW130152   5.647   0.127   0.397  0.1549 -0.5942  0.3559
 9751SOL    HW230153   5.686   0.229   0.275 -0.1593 -0.9243 -0.0221
 9752SOL     OW30154   0.193   5.542   5.967 -0.2207 -0.5293 -0.4352
 9752SOL    HW130155   0.107   5.591   5.955  0.8779  1.2998 -1.3898
 9752SOL    HW230156   0.269   5.606   5.954  1.3257 -1.3778  3.0804
 9753SOL     OW30157   0.491   4.356   1.157  0.4807  0.2307 -0.0121
 9753SOL    HW130158   0.425   4.343   1.083 -0.5721 -0.3154  0.9932
 9753SOL    HW230159   0.584   4.348   1.120 -0.0188 -1.5676 -1.0099
 9754SOL     OW30160   0.771   4.235   2.187 -0.2034 -0.2930  0.0709
 9754SOL    HW130161   0.837   4.169   2.222 -0.0978 -0.2477 -0.0387
 9754SOL    HW230162   0.820   4.311   2.143 -0.2590 -2.2132 -3.7668
 9755SOL     OW30163   4.664   0.555   1.424 -0.1470 -0.5787 -0.4726
 9755SOL    HW130164   4.710   0.613   1.491 -0.2741  1.9531 -2.3957
 9755SOL    HW230165   4.728   0.533   1.350 -0.7658 -0.8701 -0.9281
 9756SOL     OW30166   1.693   5.009   5.727  0.2186 -0.0680 -0.0323
 9756SOL    HW130167   1.713   5.107   5.732  1.0483 -0.2827  1.5676
 9756SOL    HW230168   1.741   4.961   5.801 -2.8267 -1.2484  1.3482
 9757SOL     OW30169   0.212   5.053   0.357 -0.1560 -0.6209 -0.4703
 9757SOL    HW130170   0.245   5.138   0.399  0.9740 -0.8743 -0.8020
 9757SOL    HW230171   0.120   5.067   0.320  0.8954  1.2214 -2.6576
 9758SOL     OW30172   1.212   2.891   4.890 -0.1221 -0.1506 -0.3076
 9758SOL    HW130173   1.187   2.849   4.803  0.1414 -1.4262  0.2035
 9758SOL    HW230174   1.274   2.830   4.939 -0.1083  0.6403  0.6877
 9759SOL     OW30175   0.685   2.060   4.458  0.2624  0.2294  0.1134
 9759SOL    HW130176   0.782   2.059   4.483 -0.3030  0.4973  2.5484
 9759SOL    HW230177   0.632   2.011   4.527 -1.4986  1.2102 -0.4732
 9760SOL     OW30178   3.239   3.346   4.623 -0.0312 -0.4586  0.1021
 9760SOL    HW130179   3.325   3.300   4.648  0.0559 -0.5734 -0.3969
 9760SOL    HW230180   3.166   3.316   4.684  0.4399  0.2081  1.0172
 9761SOL     OW30181   0.408   3.792   3.514 -0.0685  0.1430 -0.3214
 9761SOL    HW130182   0.323   3.832   3.479 -0.6663 -0.8334 -0.0293
 9761SOL    HW230183   0.443   3.725   3.448  0.2397  0.2364 -0.2510
 9762SOL     OW30184   0.998   2.364   3.906  0.4878 -0.4179 -0.0622
 9762SOL    HW130185   0.939   2.316   3.971  0.4765 -0.4488 -0.0950
 9762SOL    HW230186   0.943   2.430   3.854  0.7289  0.5307  0.8502
 9763SOL     OW30187   3.284   0.237   2.254 -0.3613 -0.4673 -0.4993
 9763SOL    HW130188   3.286   0.221   2.352  0.5872  1.6894 -0.1059
 9763SOL    HW230189   3.192   0.266   2.226  0.2591  3.0087  0.5914
 9764SOL     OW30190   2.729   4.393   1.396  0.2865 -0.2803  0.5634
 9764SOL    HW130191   2.694   4.300   1.408  1.4280 -0.6193  1.5421
 9764SOL    HW230192   2.731   4.439   1.485  1.5059 -0.0112  0.4210
 9765SOL     OW30193   5.628   3.813   4.395  0.1295 -0.0013  0.3841
 9765SOL    HW130194   5.656   3.905   4.421  0.3106 -0.1979  0.8893
 9765SOL    HW230195   5.559   3.780   4.459  1.9433 -1.2242  1.8032
 9766SOL     OW30196   2.687   4.831   6.554  0.0450 -0.1780 -0.2914
 9766SOL    HW130197   2.639   4.771   6.490 -2.3071  0.3400  0.8815
 9766SOL    HW230198   2.703   4.784   6.640  0.5326  0.0720 -0.2379
 9767SOL     OW30199   6.880   0.285   1.041  0.2498 -1.2250  0.1292
 9767SOL    HW130200   6.807   0.333   1.089 -0.6358 -0.5615 -1.7531
 9767SOL    HW230201   6.936   0.234   1.106  0.7364  1.6550  2.1481
 9768SOL     OW30202   2.366   4.709   6.969  0.0183  0.5618 -0.2476
 9768SOL    HW130203   2.352   4.627   7.024  3.2825  0.7659  1.1376
 9768SOL    HW230204   2.333   4.789   7.020  0.5541  0.4803  0.2349
 9769SOL     OW30205   6.901   1.128   3.982  0.2589  0.2130 -0.0390
 9769SOL    HW130206   6.828   1.102   4.045 -0.8026 -1.2726 -1.8062
 9769SOL    HW230207   6.978   1.064   3.992 -0.4105 -0.7938 -1.0411
 9770SOL     OW30208   0.767   6.344   5.757  0.4016 -0.1315 -0.0643
 9770SOL    HW130209   0.858   6.331   5.717  0.6985  0.0645  0.5344
 9770SOL    HW230210   0.769   6.421   5.820 -0.3456  0.2750 -0.5267
 9771SOL     OW30211   2.538   4.339   1.052 -0.0771  0.2613  0.2382
 9771SOL    HW130212   2.577   4.411   1.110  1.2146 -0.8296  0.7720
 9771SOL    HW230213   2.452   4.308   1.091  0.3332  0.1677  1.1063
 9772SOL     OW30214   6.874   2.064   5.601  0.3161  0.2900 -0.2585
 9772SOL    HW130215   6.954   2.008   5.622  0.3395  0.8285  1.2251
 9772SOL    HW230216   6.901   2.160   5.592 -0.0157  0.3412 -0.7720
 9773SOL     OW30217   0.248   0.154   2.028 -1.1290  0.0301 -0.2816
 9773SOL    HW130218   0.198   0.239   2.046 -3.5365 -1.3789  0.1309
 9773SOL    HW230219   0.234   0.091   2.104  2.4172 -0.0477  0.4471
 9774SOL     OW30220   2.108   6.524   1.423  0.0161  0.2381  0.5401
 9774SOL    HW130221   2.084   6.620   1.438 -0.0095  0.3497 -0.1935
 9774SOL    HW230222   2.207   6.512   1.428  0.1868  0.6518 -1.2049
 9775SOL     OW30223   3.306   2.292   6.595  0.2054 -0.3541  0.1441
 9775SOL    HW130224   3.208   2.283   6.576  0.6905 -1.4153 -2.4271
 9775SOL    HW230225   3.331   2.388   6.599 -0.5254  0.0161 -2.2943
 9776SOL     OW30226   6.215   5.364   3.325  0.0366  0.4522 -0.3328
 9776SOL    HW130227   6.214   5.265   3.339 -0.8108  0.1812 -2.0628
 9776SOL    HW230228   6.121   5.399   3.323  0.3490  1.4288  1.0312
 9777SOL     OW30229   4.611   4.791   3.437 -0.6678  0.3816 -0.4723
 9777SOL    HW130230   4.600   4.847   3.519 -0.2192  0.3898 -0.4197
 9777SOL    HW230231   4.652   4.703   3.462 -0.9449  0.2070 -0.6230
 9778SOL     OW30232   3.366   5.817   2.946 -0.1313  0.2640  0.0362
 9778SOL    HW130233   3.272   5.848   2.957 -0.0319  0.8204 -0.6080
 9778SOL    HW230234   3.425   5.896   2.927  0.1910 -0.2730 -1.2906
 9779SOL     OW30235   5.413   4.096   3.824  0.1729 -0.0123  0.2395
 9779SOL    HW130236   5.320   4.123   3.847  0.2130 -0.4006  0.8906
 9779SOL    HW230237   5.468   4.177   3.805 -0.3856  0.1974 -0.5241
 9780SOL     OW30238   3.876   4.261   5.955 -0.3639  0.5783 -0.0528
 9780SOL    HW130239   3.886   4.182   5.895 -0.0793  0.1233  0.5868
 9780SOL    HW230240   3.778   4.277   5.972 -0.5471  1.5948 -1.7682
 9781SOL     OW30241   4.714   4.436   5.496 -0.0781  0.3752 -0.4195
 9781SOL    HW130242   4.711   4.516   5.556 -0.3232 -1.6494  2.4551
 9781SOL    HW230243   4.643   4.446   5.426 -2.5797  1.1841  2.0029
 9782SOL     OW30244   4.680   6.112   4.947  0.0751 -0.2642  0.6321
 9782SOL    HW130245   4.646   6.149   4.861 -2.1107 -0.2702  1.4365
 9782SOL    HW230246   4.656   6.173   5.022 -1.4140 -2.0237  1.6766
 9783SOL     OW30247   2.850   0.299   2.395 -0.2796 -0.1776  0.0230
 9783SOL    HW130248   2.752   0.278   2.394  0.0704 -1.9711  0.2522
 9783SOL    HW230249   2.885   0.288   2.488  0.0058  1.2457  0.1037
 9784SOL     OW30250   3.727   6.712   1.390  0.2767 -0.0175  0.6255
 9784SOL    HW130251   3.823   6.685   1.386  0.3972  0.5779 -0.9923
 9784SOL    HW230252   3.671   6.640   1.348 -0.0329 -0.4548  1.7410
 9785SOL     OW30253   1.925   2.218   0.842  0.5941  0.4208  0.0692
 9785SOL    HW130254   1.939   2.258   0.752  0.3839 -0.0215 -0.1620
 9785SOL    HW230255   1.889   2.288   0.904  0.4921  0.6600 -0.2572
 9786SOL     OW30256   1.655   3.901   4.008  0.0805 -0.1249 -0.6236
 9786SOL    HW130257   1.665   3.961   4.087 -1.5379 -0.3975 -0.1724
 9786SOL    HW230258   1.680   3.808   4.034 -1.1714 -0.3612 -0.1752
 9787SOL     OW30259   3.683   3.477   0.441 -0.3071  0.1410  0.2245
 9787SOL    HW130260   3.772   3.458   0.483 -0.1311  0.7903  0.1523
 9787SOL    HW230261   3.682   3.441   0.348 -0.5653 -0.9657  0.6392
 9788SOL     OW30262   0.166   3.609   1.919  0.1112 -1.0319  0.2990
 9788SOL    HW130263   0.258   3.634   1.891  0.6658 -0.4100  2.4659
 9788SOL    HW230264   0.168   3.519   1.964 -0.3861 -1.1114  0.1726
 9789SOL     OW30265   2.100   2.271   4.644 -0.1087 -0.1243 -0.0476
 9789SOL    HW130266   2.147   2.192   4.683  0.0044  0.4661  1.0490
 9789SOL    HW230267   2.155   2.310   4.570  1.7835  1.2612  1.9654
 9790SOL     OW30268   4.305   5.227   0.531  0.0810  0.0617  0.6316
 9790SOL    HW130269   4.324   5.190   0.622 -0.0911  0.7910  0.9734
 9790SOL    HW230270   4.385   5.215   0.473 -0.1586 -1.3521  0.5456
 9791SOL     OW30271   2.494   4.556   1.916  0.6550  0.6132  0.3370
 9791SOL    HW130272   2.450   4.646   1.913  1.6398  1.0984  0.0533
 9791SOL    HW230273   2.593   4.567   1.914  0.8139 -0.4533  1.3960
 9792SOL     OW30274   4.292   0.986   3.058 -0.4104 -0.2594 -0.3394
 9792SOL    HW130275   4.353   0.947   2.990  0.0290 -0.6589  0.2774
 9792SOL    HW230276   4.197   0.974   3.028 -0.2001  0.2745 -1.2476
 9793SOL     OW30277   1.173   1.723   2.130  0.0843  0.1652 -0.1776
 9793SOL    HW130278   1.244   1.663   2.168  0.4406  0.1097 -0.9054
 9793SOL    HW230279   1.124   1.674   2.058 -0.1455  0.4854 -0.2397
 9794SOL     OW30280   1.424   3.572   6.188 -0.3934 -0.5959  0.7622
 9794SOL    HW130281   1.344   3.515   6.202 -0.3935 -0.6950  0.3700
 9794SOL    HW230282   1.493   3.522   6.136  0.4369 -0.9514  2.1401
 9795SOL     OW30283   1.339   3.024   6.001  0.1163  0.2324  0.3814
 9795SOL    HW130284   1.403   2.948   6.014 -0.7934 -0.7931 -0.9489
 9795SOL    HW230285   1.247   2.995   6.027 -0.4160  0.5396 -1.1055
 9796SOL     OW30286   6.783   5.129   0.650  0.6535 -0.4262 -0.5026
 9796SOL    HW130287   6.747   5.042   0.615  0.7479 -0.3034 -0.9138
 9796SOL    HW230288   6.707   5.189   0.675  0.5884 -0.9478  0.6101
 9797SOL     OW30289   3.170   5.326   3.619 -0.1834  0.1893  0.1857
 9797SOL    HW130290   3.180   5.417   3.579 -0.6001  0.0267 -0.3130
 9797SOL    HW230291   3.115   5.332   3.702 -2.2145  0.1269 -1.0805
 9798SOL     OW30292   5.482   1.762   1.112 -0.0381 -0.6817  0.1869
 9798SOL    HW130293   5.478   1.847   1.060 -1.0426  0.1246  1.5233
 9798SOL    HW230294   5.403   1.705   1.089 -0.1455 -0.6052  0.3669
 9799SOL     OW30295   4.888   1.186   3.517 -1.2727 -0.2752 -0.6218
 9799SOL    HW130296   4.811   1.158   3.459 -0.3067 -0.2624 -1.9596
 9799SOL    HW230297   4.960   1.117   3.512 -0.4276  0.5973 -0.9213
 9800SOL     OW30298   6.275   6.447   4.833  0.3123 -0.0319  0.1987
 9800SOL    HW130299   6.287   6.375   4.765  0.4625  0.3596 -0.1877
 9800SOL    HW230300   6.298   6.411   4.924  1.6920 -0.0934 -0.1647
 9801SOL     OW30301   5.781   0.047   6.278  0.1224 -0.4893  0.1876
 9801SOL    HW130302   5.762   0.094   6.364 -1.2956  0.9784 -0.8764
 9801SOL    HW230303   5.728  -0.038   6.274  0.5715 -0.8217  0.9288
 9802SOL     OW30304   0.270   1.751   4.448 -0.3236 -0.1488  0.1917
 9802SOL    HW130305   0.341   1.736   4.380 -0.5798  2.6871 -0.8524
 9802SOL    HW230306   0.312   1.769   4.537  0.3023  1.1175 -0.3355
 9803SOL     OW30307   3.549   6.444   5.788  0.2603 -0.5824 -0.1198
 9803SOL    HW130308   3.458   6.402   5.789 -0.3900  0.6983 -1.5802
 9803SOL    HW230309   3.587   6.439   5.695  0.9287  0.4296  0.0815
 9804SOL     OW30310   3.879   1.675   2.398  0.0038  0.3915 -0.1279
 9804SOL    HW130311   3.787   1.697   2.367 -0.0790 -0.2730 -0.3691
 9804SOL    HW230312   3.895   1.717   2.488  0.7866  3.6357 -1.6184
 9805SOL     OW30313   3.670   6.936   6.383 -0.5674  0.0533 -0.1282
 9805SOL    HW130314   3.614   6.974   6.310 -1.3317 -0.3624  0.2342
 9805SOL    HW230315   3.767   6.949   6.361 -0.8003  1.5072 -0.3806
 9806SOL     OW30316   2.846   1.948   1.921 -0.0625  0.5291  0.3050
 9806SOL    HW130317   2.909   1.976   1.993  2.8207  1.1605 -2.2524
 9806SOL    HW230318   2.821   2.027   1.865 -0.3125 -0.3137 -0.8105
 9807SOL     OW30319   0.379   2.215   5.650  0.4737  0.3501  0.0898
 9807SOL    HW130320   0.360   2.118   5.635  0.0356  0.5354 -0.6243
 9807SOL    HW230321   0.464   2.240   5.603  0.3576  0.4059 -0.0916
 9808SOL     OW30322   6.054   4.870   2.030  0.2707  0.2239  0.1369
 9808SOL    HW130323   6.070   4.892   2.126  0.5122  0.1520  0.1146
 9808SOL    HW230324   6.142   4.868   1.981  0.1410  0.3578 -0.1053
 9809SOL     OW30325   6.978   2.604   5.606  0.3651  0.0669 -0.4984
 9809SOL    HW130326   6.976   2.598   5.506  2.2963  0.2470 -0.5823
 9809SOL    HW230327   6.970   2.512   5.644  1.5813 -0.2123 -0.8915
 9810SOL     OW30328   5.727   1.974   0.086 -0.2043 -0.2511 -0.9012
 9810SOL    HW130329   5.750   1.939   0.176 -2.0343 -1.3657 -0.8025
 9810SOL    HW230330   5.796   1.946   0.020  1.3553  0.9060  0.1848
 9811SOL     OW30331   5.222   4.639   4.155  0.2553  0.2472  0.3214
 9811SOL    HW130332   5.268   4.652   4.067  0.0286 -0.2020  0.1351
 9811SOL    HW230333   5.154   4.711   4.167 -0.7880 -0.5574 -0.5714
 9812SOL     OW30334   2.388   5.927   5.228  0.4965  0.3282 -0.0232
 9812SOL    HW130335   2.394   5.995   5.155 -2.4275  2.5446  1.5759
 9812SOL    HW230336   2.309   5.868   5.212  1.2137 -0.7083  0.1914
 9813SOL     OW30337   5.486   6.869   0.174 -0.7452 -0.0835 -0.1377
 9813SOL    HW130338   5.513   6.914   0.259 -0.2149 -2.1108  0.8302
 9813SOL    HW230339   5.499   6.932   0.097 -0.0227  1.3710  1.1223
 9814SOL     OW30340   5.109   6.465   2.137 -0.0888  0.3436  0.0299
 9814SOL    HW130341   5.066   6.483   2.049 -2.4443 -1.1969  0.7608
 9814SOL    HW230342   5.076   6.531   2.204  1.9442  1.7151 -0.2268
 9815SOL     OW30343   4.703   5.372   6.002 -0.2515  0.7144  0.0101
 9815SOL    HW130344   4.789   5.323   6.019 -1.2383 -0.9599  0.4455
 9815SOL    HW230345   4.679   5.366   5.905 -0.1475  0.7003 -0.0144
 9816SOL     OW30346   6.639   3.459   1.899  0.0774  0.6844  0.4451
 9816SOL    HW130347   6.729   3.454   1.855 -0.6350 -0.6864 -0.9251
 9816SOL    HW230348   6.639   3.403   1.982  0.3781  0.3652  0.2320
 9817SOL     OW30349   3.346   1.864   1.370  0.0412 -0.2060 -0.4239
 9817SOL    HW130350   3.299   1.836   1.287 -2.7236 -0.8295  1.2183
 9817SOL    HW230351   3.318   1.957   1.395 -1.0749 -0.8839  1.0160
 9818SOL     OW30352   1.383   4.763   6.339 -0.1471  0.2864  0.0530
 9818SOL    HW130353   1.311   4.827   6.365 -1.3350  1.1399 -4.4951
 9818SOL    HW230354   1.343   4.674   6.318  0.3763  0.2500 -0.8232
 9819SOL     OW30355   5.947   5.114   6.839  0.4617  0.3620  0.0292
 9819SOL    HW130356   5.988   5.033   6.879  0.6919 -0.2163 -1.3301
 9819SOL    HW230357   5.912   5.174   6.911 -0.2684 -1.2334  1.0336
 9820SOL     OW30358   2.323   1.769   0.396 -0.2574 -0.8101  0.2682
 9820SOL    HW130359   2.328   1.677   0.358  0.5910  0.0208 -1.8199
 9820SOL    HW230360   2.242   1.816   0.361  0.4545 -0.0813 -0.4807
 9821SOL     OW30361   4.296   5.057   6.276 -0.0919  0.0379 -0.1210
 9821SOL    HW130362   4.333   5.076   6.185 -0.0671 -1.0268 -0.3370
 9821SOL    HW230363   4.248   4.970   6.276  0.0520 -0.0587  0.9309
 9822SOL     OW30364   0.433   3.610   6.153 -0.1800 -0.2261 -0.4249
 9822SOL    HW130365   0.362   3.635   6.088  0.5892  0.4395 -1.0246
 9822SOL    HW230366   0.504   3.681   6.154 -0.2619 -0.1306  1.2681
 9823SOL     OW30367   0.288   5.834   6.946 -0.6491  0.4244  0.0362
 9823SOL    HW130368   0.290   5.838   6.846 -2.8788 -0.7953 -0.1417
 9823SOL    HW230369   0.252   5.920   6.982  2.2623  1.7586  0.0165
 9824SOL     OW30370   0.622   0.342   4.510 -0.1658  0.4216 -0.2961
 9824SOL    HW130371   0.704   0.293   4.538  0.3275  1.0440 -0.6220
 9824SOL    HW230372   0.631   0.371   4.415 -0.1940  1.6257  0.0498
 9825SOL     OW30373   5.065   1.804   0.205 -0.0150 -0.6628 -0.0629
 9825SOL    HW130374   5.061   1.785   0.303  1.5476  1.4463  0.4673
 9825SOL    HW230375   4.982   1.853   0.177 -0.8711 -2.0220 -0.0391
 9826SOL     OW30376   1.594   0.555   5.499 -0.1433 -0.1596  0.4926
 9826SOL    HW130377   1.615   0.651   5.515  1.0236 -0.5110  1.1901
 9826SOL    HW230378   1.629   0.528   5.410 -1.0255  0.1981  0.0194
 9827SOL     OW30379   6.546   6.106   0.530 -0.5792  0.1689 -0.2917
 9827SOL    HW130380   6.588   6.022   0.496 -1.9665 -0.7192  0.1135
 9827SOL    HW230381   6.617   6.171   0.554  0.5284 -0.8864 -0.6171
 9828SOL     OW30382   3.428   0.718   5.021 -0.0524  0.3180  0.1198
 9828SOL    HW130383   3.433   0.633   5.073 -1.4924 -0.0228 -0.2731
 9828SOL    HW230384   3.422   0.795   5.084  1.8224  0.2079  0.4925
 9829SOL     OW30385   3.179   3.242   5.020 -0.7379 -0.1465 -0.2114
 9829SOL    HW130386   3.258   3.297   5.046 -1.4537  0.2352  1.2514
 9829SOL    HW230387   3.179   3.157   5.071 -1.8222  0.3234  0.6055
 9830SOL     OW30388   5.601   6.942   6.705 -0.2807 -0.1124 -0.1061
 9830SOL    HW130389   5.683   6.888   6.723 -0.3517 -0.3705 -0.5212
 9830SOL    HW230390   5.627   7.036   6.683 -0.1130 -0.1251  0.0403
 9831SOL     OW30391   0.138   2.032   1.191 -0.1013 -0.2925  0.4686
 9831SOL    HW130392   0.168   1.953   1.137  0.0509 -0.4997  0.8449
 9831SOL    HW230393   0.217   2.090   1.212 -0.2315  0.0218  0.0962
 9832SOL     OW30394   0.754   3.934   4.678 -0.1256  0.4203 -0.3644
 9832SOL    HW130395   0.740   3.836   4.694 -2.2080  1.1005  2.9954
 9832SOL    HW230396   0.841   3.962   4.719 -0.6595  0.3451  0.8651
 9833SOL     OW30397   2.207   5.386   0.656  0.3893  0.1064 -0.1999
 9833SOL    HW130398   2.294   5.367   0.702  0.5000  0.3683 -0.3015
 9833SOL    HW230399   2.223   5.442   0.575 -0.0220  1.5174  0.6436
 9834SOL     OW30400   1.312   2.616   3.150 -0.1818 -0.2079  0.0970
 9834SOL    HW130401   1.388   2.660   3.101 -0.1975  0.8233  0.9661
 9834SOL    HW230402   1.229   2.624   3.096 -0.2009  0.9243  0.2622
 9835SOL     OW30403   3.921   5.347   3.943  0.1662 -0.1715  0.1025
 9835SOL    HW130404   4.004   5.356   3.999  0.8875  1.4405 -1.1456
 9835SOL    HW230405   3.873   5.434   3.939  0.2966 -0.1397 -1.9720
 9836SOL     OW30406   2.931   3.609   6.141  0.4144  0.0023  0.2468
 9836SOL    HW130407   2.898   3.657   6.059  0.6949  2.1709  1.3462
 9836SOL    HW230408   3.003   3.545   6.114  0.7352  0.8991 -1.1733
 9837SOL     OW30409   6.794   4.977   4.321 -0.3583  0.0508  0.0181
 9837SOL    HW130410   6.789   5.053   4.256  2.6758 -0.0059 -0.4286
 9837SOL    HW230411   6.799   5.013   4.414  0.7147  0.4082 -0.1692
 9838SOL     OW30412   3.993   5.350   2.715 -0.7977  0.5508  0.0227
 9838SOL    HW130413   3.983   5.408   2.795 -2.2767  1.4197 -0.7480
 9838SOL    HW230414   4.061   5.389   2.653 -2.0279  1.7198 -0.6502
 9839SOL     OW30415   0.005   3.239   4.773 -0.0519  0.7270 -0.0830
 9839SOL    HW130416   0.009   3.329   4.729  1.2675  1.1765  0.8694
 9839SOL    HW230417  -0.030   3.171   4.709 -0.1160  1.7337 -1.1388
 9840SOL     OW30418   1.336   0.007   2.022  0.2759  0.2035 -0.1329
 9840SOL    HW130419   1.291   0.005   1.933 -0.1284  0.4158  0.0663
 9840SOL    HW230420   1.313  -0.076   2.073  1.0467 -0.2372 -0.4869
 9841SOL     OW30421   3.807   6.607   6.216  0.2612 -0.3366  0.0534
 9841SOL    HW130422   3.746   6.623   6.293  0.1784 -0.5948  0.0395
 9841SOL    HW230423   3.763   6.636   6.131 -1.3054 -3.7358 -0.4612
 9842SOL     OW30424   2.137   3.509   3.950  0.0630 -0.0337  0.0977
 9842SOL    HW130425   2.119   3.576   3.878  1.5605  0.1560 -0.1443
 9842SOL    HW230426   2.178   3.427   3.910  1.0309  0.1247  0.7330
 9843SOL     OW30427   6.371   5.995   4.111  0.4333 -0.2250  0.0417
 9843SOL    HW130428   6.362   5.994   4.210 -0.3607  0.8136 -0.0017
 9843SOL    HW230429   6.370   5.902   4.076  0.0869 -0.5691  0.9538
 9844SOL     OW30430   6.239   0.753   0.624  0.0240  0.3944 -0.1920
 9844SOL    HW130431   6.245   0.837   0.570 -0.3530  0.5121 -0.0521
 9844SOL    HW230432   6.202   0.773   0.714  1.7353  0.3856  0.5471
 9845SOL     OW30433   3.207   1.446   1.023  0.1855  0.2594 -0.1704
 9845SOL    HW130434   3.248   1.390   1.096 -0.7564  0.4440  0.5160
 9845SOL    HW230435   3.231   1.408   0.934 -0.9356 -1.6134  0.2824
 9846SOL     OW30436   0.314   0.701   6.775  0.3312  0.4152  0.3201
 9846SOL    HW130437   0.308   0.751   6.689  0.7145  0.7314  0.4726
 9846SOL    HW230438   0.387   0.634   6.770  0.7549  0.8432  0.5961
 9847SOL     OW30439   3.170   1.153   5.092  0.0577  0.4560  0.5052
 9847SOL    HW130440   3.179   1.229   5.156 -0.4105  1.8855 -1.0499
 9847SOL    HW230441   3.250   1.150   5.032 -0.0026 -0.1858  0.4437
 9848SOL     OW30442   1.510   0.933   0.756  0.1428  0.0081  0.3562
 9848SOL    HW130443   1.413   0.913   0.771  0.1112  0.3714  0.6688
 9848SOL    HW230444   1.519   1.011   0.694  0.2135  0.3784  0.8179
 9849SOL     OW30445   3.249   5.580   3.084  0.3785 -0.2262 -0.6833
 9849SOL    HW130446   3.315   5.572   3.159  0.4285 -0.5307 -0.7574
 9849SOL    HW230447   3.226   5.676   3.070 -0.1147 -0.2076  0.1487
 9850SOL     OW30448   4.496   5.722   1.832  0.0575  0.1449  0.2294
 9850SOL    HW130449   4.559   5.784   1.879  0.2405 -0.6832  1.1056
 9850SOL    HW230450   4.427   5.775   1.783  0.0057  1.0281  1.2363
 9851SOL     OW30451   4.829   3.490   6.021  0.2178  0.0355 -0.1690
 9851SOL    HW130452   4.876   3.447   6.098  1.5757  0.6079 -0.6459
 9851SOL    HW230453   4.896   3.516   5.951 -0.8029  1.0116 -0.8199
 9852SOL     OW30454   6.321   6.651   2.236  0.3759 -0.0869 -0.3881
 9852SOL    HW130455   6.389   6.578   2.236  2.0008  1.2121  2.7202
 9852SOL    HW230456   6.260   6.639   2.315  0.7684  1.8850  0.2748
 9853SOL     OW30457   2.710   0.663   0.175 -0.4137  0.0064 -0.1475
 9853SOL    HW130458   2.754   0.581   0.211  0.0891  0.2506 -0.1944
 9853SOL    HW230459   2.661   0.709   0.249 -1.2389 -0.6704 -0.2524
 9854SOL     OW30460   5.087   6.650   4.871  0.0107 -0.7398 -0.7746
 9854SOL    HW130461   5.115   6.744   4.894 -0.5674 -0.7750  0.1299
 9854SOL    HW230462   5.090   6.594   4.954 -0.6957 -1.2532 -1.0902
 9855SOL     OW30463   1.645   5.905   1.791 -0.3359  0.5155 -0.0474
 9855SOL    HW130464   1.693   5.821   1.817  0.4661  1.3750  1.4025
 9855SOL    HW230465   1.711   5.970   1.752 -0.5154  1.2369  0.8064
 9856SOL     OW30466   4.802   1.559   0.347 -0.1118 -0.0399 -0.1285
 9856SOL    HW130467   4.705   1.541   0.361 -0.7790  1.9642 -1.5491
 9856SOL    HW230468   4.832   1.514   0.263 -0.2167  0.5266 -0.4749
 9857SOL     OW30469   2.293   1.925   5.154  0.2485 -0.2809 -0.0633
 9857SOL    HW130470   2.332   1.922   5.246  0.8095  0.6307 -0.2611
 9857SOL    HW230471   2.324   2.007   5.107  0.1634 -0.8538 -1.1585
 9858SOL     OW30472   1.043   2.310   6.786 -0.1295 -0.1668 -0.3611
 9858SOL    HW130473   1.109   2.325   6.859 -1.4564  3.3350  0.2813
 9858SOL    HW230474   1.065   2.368   6.708 -0.9486 -0.9898 -1.2382
 9859SOL     OW30475   6.941   5.308   3.016 -0.7345  0.7070 -0.3573
 9859SOL    HW130476   7.023   5.252   3.006 -0.8492  0.6939 -1.4307
 9859SOL    HW230477   6.860   5.249   3.014 -0.7796  0.7005  0.8926
 9860SOL     OW30478   1.121   2.343   5.133 -0.0689 -0.0896  0.6554
 9860SOL    HW130479   1.171   2.279   5.075 -0.1067  0.3985  0.0764
 9860SOL    HW230480   1.028   2.355   5.097 -1.1186 -2.0244  2.4594
 9861SOL     OW30481   5.020   2.423   0.365 -0.1459 -0.6037  0.0858
 9861SOL    HW130482   5.109   2.468   0.363 -0.7751  0.6678 -0.0007
 9861SOL    HW230483   5.031   2.325   0.345  1.0390 -0.1559 -1.6071
 9862SOL     OW30484   0.238   4.683   4.473 -0.5521  0.0821 -0.2455
 9862SOL    HW130485   0.223   4.707   4.377  0.1953 -0.6589 -0.5640
 9862SOL    HW230486   0.322   4.629   4.481 -0.7916 -0.1625  0.7842
 9863SOL     OW30487   0.092   4.443   3.135 -0.2358 -0.5651  0.5153
 9863SOL    HW130488   0.189   4.466   3.124  0.3899 -2.2236  2.0347
 9863SOL    HW230489   0.047   4.516   3.186  0.5564 -0.3753  0.9799
 9864SOL     OW30490   1.900   5.407   3.217  0.5429  0.2913  0.4255
 9864SOL    HW130491   1.839   5.479   3.184 -0.8745 -0.1288  2.0036
 9864SOL    HW230492   1.853   5.319   3.212  1.3423 -0.1667  0.8390
 9865SOL     OW30493   1.132   1.220   4.761 -0.4082  0.3301  0.4473
 9865SOL    HW130494   1.098   1.126   4.766 -0.3761  0.3545  1.3594
 9865SOL    HW230495   1.071   1.280   4.813  0.2006  0.6224  0.8285
 9866SOL     OW30496   4.617   1.706   4.744  0.0713 -0.8153  0.3020
 9866SOL    HW130497   4.565   1.792   4.735  2.2563  0.5017 -0.5322
 9866SOL    HW230498   4.634   1.687   4.840 -1.8046 -1.2437  0.5979
 9867SOL     OW30499   3.569   6.193   5.447 -0.0534 -0.4167 -0.0587
 9867SOL    HW130500   3.629   6.239   5.514 -0.6380 -0.8569  0.7880
 9867SOL    HW230501   3.475   6.226   5.459 -0.2762 -0.9884 -0.2240
 9868SOL     OW30502   5.433   4.198   0.998  0.6308 -0.7995 -0.1245
 9868SOL    HW130503   5.374   4.234   1.070  0.1733  0.7605 -1.2356
 9868SOL    HW230504   5.510   4.148   1.039  1.9780  2.4561  1.6133
 9869SOL     OW30505   3.380   4.147   3.847  0.4954 -0.2894  0.3905
 9869SOL    HW130506   3.283   4.121   3.845  0.2690  0.5182 -0.8622
 9869SOL    HW230507   3.414   4.141   3.940 -0.9366  0.0243  0.9718
 9870SOL     OW30508   5.958   6.399   6.844 -0.3913  0.4449  0.0599
 9870SOL    HW130509   5.942   6.302   6.861 -1.0817  0.0865 -2.3210
 9870SOL    HW230510   5.918   6.425   6.756  0.8518  2.6053  0.0568
 9871SOL     OW30511   6.045   0.393   0.951 -0.3341  0.7464 -0.4044
 9871SOL    HW130512   6.116   0.387   0.881  0.4777 -1.5083  0.5077
 9871SOL    HW230513   6.029   0.302   0.990 -0.2032  1.9927  2.8771
 9872SOL     OW30514   2.074   3.762   3.796 -0.2342  0.5054  0.1493
 9872SOL    HW130515   2.023   3.823   3.857 -3.7097 -0.6687 -1.2974
 9872SOL    HW230516   2.090   3.808   3.708 -2.2496 -0.2713 -0.6978
 9873SOL     OW30517   3.937   1.133   2.253 -0.5653  0.0557  0.4010
 9873SOL    HW130518   4.034   1.146   2.231 -0.6064 -0.2388  0.0317
 9873SOL    HW230519   3.881   1.187   2.190 -0.6732 -0.5322 -0.0195
 9874SOL     OW30520   4.735   4.944   1.169  0.5032 -0.0741  0.5284
 9874SOL    HW130521   4.639   4.919   1.153  0.4651  0.5177 -0.2500
 9874SOL    HW230522   4.739   5.040   1.198  0.7616 -0.4938  1.9291
 9875SOL     OW30523   5.992   1.055   2.338 -0.3460  0.4513 -0.0063
 9875SOL    HW130524   5.926   0.985   2.309  0.5842 -0.1860 -0.6560
 9875SOL    HW230525   6.015   1.113   2.260  0.7784 -0.1153 -0.1215
 9876SOL     OW30526   5.042   6.526   0.460  0.2946 -0.1853  0.0234
 9876SOL    HW130527   4.980   6.491   0.531 -0.3051  1.9395  0.6307
 9876SOL    HW230528   5.123   6.468   0.454 -0.6342 -1.6320  0.9278
 9877SOL     OW30529   1.754   5.696   4.046  0.1254 -0.4454  0.2233
 9877SOL    HW130530   1.765   5.694   4.145  2.2790 -1.2796  0.0173
 9877SOL    HW230531   1.667   5.740   4.023 -0.7436 -0.8456  2.4766
 9878SOL     OW30532   5.473   4.190   1.508 -0.2563 -0.2807  0.6079
 9878SOL    HW130533   5.419   4.243   1.574  0.8422  1.6469  0.0567
 9878SOL    HW230534   5.526   4.120   1.556 -0.0827  0.5645  1.6880
 9879SOL     OW30535   5.958   6.593   6.276 -0.2887  0.2227  0.3314
 9879SOL    HW130536   5.883   6.647   6.238  0.6353  0.2364 -1.5777
 9879SOL    HW230537   6.043   6.644   6.267  0.1943 -0.4659  0.9499
 9880SOL     OW30538   6.471   2.805   3.774  0.3319 -0.4716  0.0456
 9880SOL    HW130539   6.560   2.766   3.750 -0.6370 -3.1246  0.4497
 9880SOL    HW230540   6.470   2.902   3.749  2.7795 -0.7030 -1.3451
 9881SOL     OW30541   5.235   6.784   6.093  0.3087  0.0204  0.5857
 9881SOL    HW130542   5.274   6.777   6.185 -2.2937  0.8210  1.8312
 9881SOL    HW230543   5.271   6.709   6.037  1.3650 -0.9681  2.4638
 9882SOL     OW30544   6.354   3.048   3.390 -0.3508  0.0827  0.0238
 9882SOL    HW130545   6.304   3.045   3.477  0.3037  0.8144  0.4381
 9882SOL    HW230546   6.298   3.093   3.321 -0.6655 -0.0167  0.2103
 9883SOL     OW30547   1.323   5.579   0.286  0.1175 -0.1290  0.2984
 9883SOL    HW130548   1.380   5.500   0.264  0.2365  0.4134 -1.5141
 9883SOL    HW230549   1.379   5.661   0.285 -0.4689  0.2741 -0.3886
 9884SOL     OW30550   2.048   0.428   6.022  0.2507  0.2110  0.2880
 9884SOL    HW130551   2.085   0.347   5.977  0.8721  0.6992 -0.0946
 9884SOL    HW230552   2.069   0.424   6.120  1.9754  0.8018 -0.0172
 9885SOL     OW30553   2.059   6.882   3.893  0.1811  0.1401 -0.4773
 9885SOL    HW130554   2.041   6.945   3.817 -2.5020  1.1400  0.8503
 9885SOL    HW230555   2.003   6.909   3.972  1.1430 -2.2331  1.1121
 9886SOL     OW30556   2.526   3.223   6.236 -0.6994  0.5813 -0.5971
 9886SOL    HW130557   2.617   3.183   6.238 -0.8174  0.3116  1.3703
 9886SOL    HW230558   2.458   3.153   6.213 -0.6747  0.1133  0.6776
 9887SOL     OW30559   1.743   5.459   1.518 -0.2866  0.1397  0.0377
 9887SOL    HW130560   1.722   5.444   1.614 -0.9121 -2.4220 -0.4108
 9887SOL    HW230561   1.831   5.506   1.510  1.7913 -3.0168  1.9348
 9888SOL     OW30562   5.247   0.136   5.703  0.5246  0.3226 -0.0378
 9888SOL    HW130563   5.191   0.218   5.693 -0.3489 -0.0293  1.5989
 9888SOL    HW230564   5.227   0.093   5.791  0.0342 -2.3311 -1.3510
 9889SOL     OW30565   5.976   1.072   6.407  0.6301  0.1948  0.5231
 9889SOL    HW130566   6.056   1.121   6.371  1.9162 -0.5277  2.2201
 9889SOL    HW230567   5.953   1.108   6.497 -1.2676  0.6657 -0.1176
 9890SOL     OW30568   1.816   5.054   2.208  0.1295 -0.1724 -0.2696
 9890SOL    HW130569   1.788   5.143   2.173 -0.3952  0.5925  1.9342
 9890SOL    HW230570   1.739   5.013   2.258  1.4439 -0.1983  1.8191
 9891SOL     OW30571   3.045   0.595   4.132 -0.5999 -0.0673 -0.4132
 9891SOL    HW130572   2.956   0.557   4.158  0.0121 -0.5140  1.1736
 9891SOL    HW230573   3.032   0.686   4.092 -1.8698 -0.7647 -1.6716
 9892SOL     OW30574   0.185   1.155   5.408 -0.6495 -0.1004  0.6335
 9892SOL    HW130575   0.103   1.110   5.444 -1.9539  1.5197 -0.1857
 9892SOL    HW230576   0.192   1.139   5.310  0.8891 -1.4680  0.9206
 9893SOL     OW30577   3.882   0.164   4.843 -0.3135 -0.7162  0.2186
 9893SOL    HW130578   3.787   0.135   4.832 -0.8454  0.3920  1.5625
 9893SOL    HW230579   3.891   0.260   4.818  0.2008 -0.5065  1.1441
 9894SOL     OW30580   3.268   2.042   0.416  0.4062  0.4987 -0.4785
 9894SOL    HW130581   3.344   2.090   0.372 -0.2892  1.5386 -0.5729
 9894SOL    HW230582   3.193   2.106   0.434 -0.1936 -0.3658  0.2250
 9895SOL     OW30583   5.707   6.549   2.476 -0.0647 -0.3583 -0.1996
 9895SOL    HW130584   5.647   6.551   2.395  0.0108 -1.1248 -0.2870
 9895SOL    HW230585   5.723   6.642   2.508 -2.2356 -0.1694  0.5128
 9896SOL     OW30586   6.636   2.837   3.477  0.0095 -0.1368 -0.1779
 9896SOL    HW130587   6.603   2.930   3.489  0.6868  0.1149 -0.2080
 9896SOL    HW230588   6.672   2.802   3.564  0.7832  0.0458 -0.4141
 9897SOL     OW30589   5.912   4.832   7.011  0.1225  0.0484 -0.0629
 9897SOL    HW130590   5.890   4.740   7.043  0.3169  0.1324  0.3156
 9897SOL    HW230591   6.010   4.849   7.022  0.3885 -0.2692 -1.6032
 9898SOL     OW30592   1.727   2.056   0.524  0.5591  0.5060  0.4438
 9898SOL    HW130593   1.749   2.109   0.443 -0.0995 -1.9341 -1.4540
 9898SOL    HW230594   1.660   2.106   0.579  1.2221  2.3366 -0.3451
 9899SOL     OW30595   3.388   2.877   6.480  0.1174 -0.4741  0.0927
 9899SOL    HW130596   3.337   2.933   6.415  0.2573 -0.3228  0.1132
 9899SOL    HW230597   3.451   2.935   6.531  1.1882 -0.8466 -0.7823
 9900SOL     OW30598   4.037   0.373   2.510  0.0682  0.0980 -0.3975
 9900SOL    HW130599   4.018   0.301   2.578 -0.3402 -0.2819 -0.8979
 9900SOL    HW230600   4.024   0.335   2.418  0.5431  0.6267 -0.6849
 9901SOL     OW30601   2.650   0.141   5.767  0.0661 -0.0664  0.4674
 9901SOL    HW130602   2.687   0.104   5.852 -0.4988 -1.8970 -0.0440
 9901SOL    HW230603   2.706   0.110   5.690  0.0403  0.8338  0.0681
 9902SOL     OW30604   6.230   2.115   1.983 -0.0220  0.1794 -0.3252
 9902SOL    HW130605   6.209   2.020   1.962  2.2333 -0.5468  0.4460
 9902SOL    HW230606   6.218   2.131   2.081  0.6511  0.3694 -0.2673
 9903SOL     OW30607   2.417   5.521   1.058  0.1466 -0.2666  0.1896
 9903SOL    HW130608   2.438   5.425   1.044 -0.4129 -0.7076  2.0317
 9903SOL    HW230609   2.443   5.574   0.977  0.5252 -1.9391 -0.8189
 9904SOL     OW30610   3.878   4.931   2.500 -0.6032  0.5341  0.8460
 9904SOL    HW130611   3.894   4.950   2.597 -0.3292  1.0376  0.7050
 9904SOL    HW230612   3.950   4.870   2.466  0.1495  1.5427  0.5990
 9905SOL     OW30613   5.041   0.221   4.710 -0.3720  0.3564  0.2376
 9905SOL    HW130614   5.100   0.288   4.665  0.6805  1.4490  3.0641
 9905SOL    HW230615   4.992   0.264   4.786 -0.8056 -1.7284  1.2187
 9906SOL     OW30616   3.413   5.645   2.719  0.5325  0.2673  0.4296
 9906SOL    HW130617   3.414   5.705   2.799  0.4761 -0.9499  1.3860
 9906SOL    HW230618   3.431   5.551   2.749 -1.9241 -0.6287 -0.6413
 9907SOL     OW30619   4.477   3.704   5.712 -0.0205 -0.1575  0.6260
 9907SOL    HW130620   4.421   3.766   5.766  1.3856  1.6321  0.1444
 9907SOL    HW230621   4.431   3.683   5.626 -0.4797  0.3052  0.7546
 9908SOL     OW30622   5.839   4.516   4.217  0.0389  0.0027 -0.6592
 9908SOL    HW130623   5.890   4.450   4.272 -2.8128 -1.9629 -0.1623
 9908SOL    HW230624   5.898   4.550   4.144  2.4077 -1.0993  0.6089
 9909SOL     OW30625   6.040   5.794   3.277 -0.3726 -0.5953 -0.1483
 9909SOL    HW130626   6.117   5.847   3.243  1.0457 -1.6881  1.2655
 9909SOL    HW230627   5.995   5.843   3.351  0.4192 -0.9889  0.5956
 9910SOL     OW30628   0.514   2.929   2.280  0.1974 -0.5577  0.3249
 9910SOL    HW130629   0.570   3.010   2.260  0.1778 -0.4930  0.5217
 9910SOL    HW230630   0.457   2.948   2.361 -1.0628 -0.1552 -0.6235
 9911SOL     OW30631   5.708   1.315   2.597  0.0022 -0.7117  0.5957
 9911SOL    HW130632   5.712   1.399   2.542 -3.8558 -0.1753  0.8622
 9911SOL    HW230633   5.695   1.339   2.693  1.3663 -1.6698  1.0459
 9912SOL     OW30634   2.364   0.129   6.480  0.8497 -0.3937 -0.5443
 9912SOL    HW130635   2.386   0.168   6.391  2.5406 -0.9035 -0.3872
 9912SOL    HW230636   2.273   0.087   6.477  0.6419  0.1043 -1.8416
 9913SOL     OW30637   5.838   4.860   5.389 -0.1139 -0.5729 -0.1935
 9913SOL    HW130638   5.773   4.864   5.466 -0.4551  0.8737 -0.5302
 9913SOL    HW230639   5.903   4.786   5.405 -1.2843 -1.4808  0.5970
 9914SOL     OW30640   2.531   4.754   0.246 -0.3013 -0.0177  0.3761
 9914SOL    HW130641   2.496   4.703   0.168 -1.2705  0.2558  0.6110
 9914SOL    HW230642   2.512   4.703   0.330  1.8840 -0.9287  0.3697
 9915SOL     OW30643   6.219   5.770   4.443 -0.0732  0.1570  0.6638
 9915SOL    HW130644   6.149   5.785   4.513 -0.6357 -0.0599  0.1639
 9915SOL    HW230645   6.224   5.672   4.422  0.3681  0.1742  0.6798
 9916SOL     OW30646   0.671   4.933   4.878 -0.2207 -0.7070  0.0676
 9916SOL    HW130647   0.601   4.906   4.812 -0.3329 -3.2918  1.1102
 9916SOL    HW230648   0.761   4.906   4.844  0.0035  0.2530 -0.1238
 9917SOL     OW30649   3.156   2.916   0.865 -0.1004 -0.0745 -0.2840
 9917SOL    HW130650   3.161   2.904   0.766 -2.1529  0.3273 -0.4748
 9917SOL    HW230651   3.064   2.895   0.897  0.4585  0.0505  1.5208
 9918SOL     OW30652   0.545   6.875   2.077  0.3580 -0.1181 -0.3507
 9918SOL    HW130653   0.519   6.779   2.064 -1.6820  0.1029  1.4908
 9918SOL    HW230654   0.564   6.917   1.989 -2.8398 -1.1822 -1.6947
 9919SOL     OW30655   5.071   1.693   4.337  0.3924 -0.4836 -0.1047
 9919SOL    HW130656   4.987   1.681   4.283 -0.5820  0.2211  1.1803
 9919SOL    HW230657   5.109   1.604   4.360 -0.5999 -0.8578  0.1624
 9920SOL     OW30658   4.389   6.393   1.988 -0.1412  0.1011 -0.1433
 9920SOL    HW130659   4.413   6.422   2.081  0.8288  1.3244 -0.7426
 9920SOL    HW230660   4.293   6.415   1.970 -0.3443 -0.1680  0.5640
 9921SOL     OW30661   5.151   2.700   2.181 -0.1267  0.2109 -0.2268
 9921SOL    HW130662   5.117   2.780   2.132 -0.2868  0.3140  0.0461
 9921SOL    HW230663   5.162   2.623   2.118  0.4902  0.5837 -0.5839
 9922SOL     OW30664   1.347   6.936   4.973 -0.1970 -0.5747 -0.0436
 9922SOL    HW130665   1.290   6.868   4.926  0.8672 -0.5451 -1.4156
 9922SOL    HW230666   1.369   7.011   4.911 -2.0401  1.5334  1.6779
 9923SOL     OW30667   6.189   6.264   2.331 -0.7732 -0.5340 -0.3389
 9923SOL    HW130668   6.256   6.287   2.401 -2.4748  0.3878  1.0916
 9923SOL    HW230669   6.135   6.185   2.362 -2.0624  0.3675 -0.1789
 9924SOL     OW30670   6.857   6.964   3.907 -0.4213 -0.2237  0.3835
 9924SOL    HW130671   6.915   6.989   3.985 -1.1607  0.7972  0.6258
 9924SOL    HW230672   6.909   6.976   3.822 -0.8943  2.9606  0.4103
 9925SOL     OW30673   0.504   2.823   2.701  0.2372 -0.7306  0.4017
 9925SOL    HW130674   0.572   2.896   2.701 -0.5726  0.0525 -0.0761
 9925SOL    HW230675   0.545   2.738   2.733  1.1471 -0.0086  1.2041
 9926SOL     OW30676   6.160   3.885   2.629 -0.0106  0.2108 -0.6500
 9926SOL    HW130677   6.102   3.848   2.556  0.7688 -3.2257  0.2930
 9926SOL    HW230678   6.256   3.871   2.605  0.2587 -0.8822  0.9434
 9927SOL     OW30679   0.050   6.998   3.150 -0.0070 -0.1098 -0.4717
 9927SOL    HW130680  -0.021   6.994   3.220 -0.5939  2.1665 -0.8395
 9927SOL    HW230681   0.007   6.996   3.060  0.5995 -1.0551 -0.7545
 9928SOL     OW30682   2.055   6.318   0.184  0.3375 -0.0304  0.7935
 9928SOL    HW130683   2.018   6.363   0.265 -0.5405 -0.2078  0.5035
 9928SOL    HW230684   2.155   6.319   0.188  0.3240  1.3575  1.1002
 9929SOL     OW30685   6.134   2.833   3.688  0.3907  0.0694  0.7395
 9929SOL    HW130686   6.137   2.933   3.679 -0.6068  0.1034  0.6969
 9929SOL    HW230687   6.143   2.791   3.598 -1.2648  0.1941  0.4781
 9930SOL     OW30688   2.106   2.741   5.068  0.1496 -0.2168 -0.0472
 9930SOL    HW130689   2.125   2.830   5.110  0.2059  0.0342 -0.6014
 9930SOL    HW230690   2.154   2.669   5.119  0.3032  0.0959  0.2524
 9931SOL     OW30691   3.607   3.285   3.482 -0.1935  0.9980 -0.0754
 9931SOL    HW130692   3.624   3.188   3.499  0.4482  1.2299  0.6967
 9931SOL    HW230693   3.668   3.340   3.539 -0.7580  1.8621 -0.2774
 9932SOL     OW30694   2.861   5.163   5.025  0.2458  0.7755 -0.1295
 9932SOL    HW130695   2.882   5.088   5.087 -0.8440  1.5421  1.2240
 9932SOL    HW230696   2.764   5.162   5.002  0.5218  0.8557 -1.3751
 9933SOL     OW30697   4.500   4.510   0.086  0.0735  0.2568  0.6779
 9933SOL    HW130698   4.440   4.494   0.008 -0.0853 -0.0275  0.8566
 9933SOL    HW230699   4.592   4.478   0.064  1.1466  3.9190 -0.9717
 9934SOL     OW30700   1.493   5.177   5.393  0.1188  0.2597  0.1710
 9934SOL    HW130701   1.428   5.167   5.468  1.4201  0.7984  1.4014
 9934SOL    HW230702   1.502   5.273   5.369  1.2093  0.3069  0.7138
 9935SOL     OW30703   0.582   5.460   6.954  0.5920 -0.1049  0.8108
 9935SOL    HW130704   0.498   5.513   6.951  0.3733 -0.4792 -0.0770
 9935SOL    HW230705   0.624   5.469   7.044  0.1694  0.9551  0.9211
 9936SOL     OW30706   0.821   6.205   0.649  0.2339  0.5538 -0.6956
 9936SOL    HW130707   0.848   6.248   0.735 -0.4601  0.0358 -0.2074
 9936SOL    HW230708   0.841   6.107   0.654 -0.3262  0.4237 -0.9025
 9937SOL     OW30709   6.702   5.452   0.958 -0.3285  0.4423 -0.1323
 9937SOL    HW130710   6.770   5.483   0.892 -0.3178  0.4203 -0.1316
 9937SOL    HW230711   6.695   5.353   0.954 -0.3243  0.4404 -0.0974
 9938SOL     OW30712   3.254   1.182   2.208 -0.2984  0.3371  0.0220
 9938SOL    HW130713   3.303   1.268   2.215 -0.6060  0.6187 -1.0876
 9938SOL    HW230714   3.284   1.133   2.126  0.6560 -1.1339  1.1957
 9939SOL     OW30715   1.732   2.680   3.780  0.2966 -0.1822 -0.0655
 9939SOL    HW130716   1.832   2.687   3.781  0.3956 -1.1702 -0.7438
 9939SOL    HW230717   1.693   2.760   3.735  0.7987  0.1471  0.0832
 9940SOL     OW30718   5.868   4.023   3.802 -0.0287 -0.1747 -0.3493
 9940SOL    HW130719   5.895   3.958   3.730  0.5001  0.6934 -0.9563
 9940SOL    HW230720   5.768   4.023   3.811 -0.0749 -0.5938 -0.8009
 9941SOL     OW30721   5.337   0.663   4.970  0.1430 -1.2039  0.3395
 9941SOL    HW130722   5.406   0.726   5.005  1.0928 -2.4824  0.8552
 9941SOL    HW230723   5.247   0.686   5.008  0.1776  0.6980 -0.6096
 9942SOL     OW30724   3.533   0.536   0.571  0.1116 -0.6701  0.1158
 9942SOL    HW130725   3.445   0.508   0.533 -0.9915  0.6675  1.5220
 9942SOL    HW230726   3.555   0.629   0.540 -0.0158 -0.1974  1.3717
 9943SOL     OW30727   6.058   1.941   5.969 -0.0152  0.8549 -0.3338
 9943SOL    HW130728   6.063   2.035   6.002 -1.7812  0.0349  2.6621
 9943SOL    HW230729   5.966   1.922   5.935 -0.2180 -0.2044  0.7191
 9944SOL     OW30730   2.664   6.340   5.360 -0.3924 -0.3658 -0.0417
 9944SOL    HW130731   2.753   6.359   5.401 -0.3676 -2.2896  0.9317
 9944SOL    HW230732   2.676   6.306   5.267 -0.3187  1.9152 -0.9273
 9945SOL     OW30733   2.366   4.591   6.703  0.3445  0.2412  0.4325
 9945SOL    HW130734   2.389   4.494   6.710  0.1152  0.1887  0.4464
 9945SOL    HW230735   2.384   4.636   6.791  1.8075  0.5071  0.0395
 9946SOL     OW30736   5.107   0.821   3.100 -0.0346 -0.3896 -0.1733
 9946SOL    HW130737   5.024   0.860   3.059  0.3211  0.0541 -0.4893
 9946SOL    HW230738   5.138   0.880   3.175  0.9149  0.3477 -1.1197
 9947SOL     OW30739   3.133   1.950   4.205 -0.2170  0.2707 -0.1791
 9947SOL    HW130740   3.081   1.873   4.167 -1.6330  0.8846  0.4308
 9947SOL    HW230741   3.113   1.958   4.303  1.3446  0.3120  0.1649
 9948SOL     OW30742   1.229   1.793   1.337 -0.6576  0.7554 -0.1753
 9948SOL    HW130743   1.237   1.712   1.395 -1.7652  1.3524  0.8567
 9948SOL    HW230744   1.286   1.782   1.256 -0.2246 -0.7361  0.3061
 9949SOL     OW30745   4.136   6.833   0.397 -0.4503  0.2278  0.0078
 9949SOL    HW130746   4.224   6.842   0.443  0.2532 -1.3348 -0.9541
 9949SOL    HW230747   4.093   6.923   0.389  2.0095  1.3901 -1.3275
 9950SOL     OW30748   4.864   3.644   3.509 -0.1946 -0.4124 -0.4780
 9950SOL    HW130749   4.844   3.678   3.417  0.8690 -0.2457 -0.6554
 9950SOL    HW230750   4.932   3.571   3.504 -0.5009 -0.7504  0.1387
 9951SOL     OW30751   4.565   2.102   3.556  0.4072  0.0383 -0.0936
 9951SOL    HW130752   4.511   2.078   3.636  0.8896 -0.0152  0.2205
 9951SOL    HW230753   4.518   2.173   3.503 -0.9094 -1.3783 -0.8979
 9952SOL     OW30754   5.750   3.811   2.251 -0.0461  0.2213 -0.2813
 9952SOL    HW130755   5.667   3.867   2.248  0.4223  1.0095  0.9657
 9952SOL    HW230756   5.751   3.756   2.334  1.1850  1.0169  0.2470
 9953SOL     OW30757   2.054   2.807   5.909 -0.0487 -0.2300  0.1290
 9953SOL    HW130758   2.065   2.801   6.009 -0.7312 -2.7470  0.1188
 9953SOL    HW230759   1.970   2.857   5.887  1.2077  2.3038  0.6844
 9954SOL     OW30760   2.624   4.914   0.009 -0.1070  0.1748  0.7692
 9954SOL    HW130761   2.526   4.898   0.013 -0.5148  2.1224 -0.0064
 9954SOL    HW230762   2.648   4.993   0.067  1.2533 -1.1277  2.0891
 9955SOL     OW30763   5.248   6.966   0.740 -0.5111  0.1951 -0.0442
 9955SOL    HW130764   5.186   6.907   0.689 -1.6169  0.4326  0.9738
 9955SOL    HW230765   5.314   6.910   0.791 -0.3625 -0.0837 -0.5343
 9956SOL     OW30766   1.042   4.255   0.951 -0.1670  0.5781  0.2372
 9956SOL    HW130767   1.004   4.333   0.900 -0.3031  0.5961  0.3659
 9956SOL    HW230768   1.110   4.209   0.895  0.9466  1.6305  0.6779
 9957SOL     OW30769   0.229   5.654   2.699 -0.2552 -0.2234 -0.0649
 9957SOL    HW130770   0.157   5.620   2.758 -0.2576  2.1785  1.4335
 9957SOL    HW230771   0.223   5.754   2.692 -0.3720 -0.3239 -4.3302
 9958SOL     OW30772   6.306   6.055   0.663  0.5961  0.5921  0.2284
 9958SOL    HW130773   6.390   6.087   0.618  0.2007  1.8884  0.3714
 9958SOL    HW230774   6.319   6.058   0.763  0.5937  0.1709  0.2429
 9959SOL     OW30775   2.352   6.759   6.188  0.3190 -0.5580 -0.2557
 9959SOL    HW130776   2.441   6.758   6.144  1.1454  2.1130  1.1453
 9959SOL    HW230777   2.363   6.767   6.287 -1.4795 -0.3368 -0.0369
 9960SOL     OW30778   3.664   6.672   6.439  0.0396 -0.3602  0.4825
 9960SOL    HW130779   3.646   6.767   6.413 -0.3126 -0.6191 -0.2352
 9960SOL    HW230780   3.728   6.671   6.516  0.0823  0.4566  0.4720
 9961SOL     OW30781   3.841   0.508   5.837 -0.4600  0.2636 -0.1567
 9961SOL    HW130782   3.920   0.446   5.844 -1.2136 -0.6639  0.3015
 9961SOL    HW230783   3.872   0.602   5.851  0.3144 -0.2408  1.9342
 9962SOL     OW30784   1.627   5.525   5.299 -0.6316 -0.3349 -1.1555
 9962SOL    HW130785   1.654   5.619   5.320  0.6833 -1.2067  1.5351
 9962SOL    HW230786   1.627   5.511   5.200  2.2941  1.6655 -1.5693
 9963SOL     OW30787   1.468   4.127   4.812 -0.1775 -0.6340 -0.0820
 9963SOL    HW130788   1.550   4.070   4.810 -0.1658 -0.6345 -2.1902
 9963SOL    HW230789   1.399   4.085   4.870  0.7512 -1.4266  0.4771
 9964SOL     OW30790   0.044   5.762   1.861  0.3626 -0.4190  0.3272
 9964SOL    HW130791  -0.030   5.742   1.795  2.1825  2.2841 -2.8583
 9964SOL    HW230792   0.132   5.758   1.814  1.8215  1.6324  2.6562
 9965SOL     OW30793   5.197   3.649   1.659 -0.3416 -0.4447 -0.0980
 9965SOL    HW130794   5.221   3.561   1.617 -1.8720 -0.5982 -0.7126
 9965SOL    HW230795   5.277   3.710   1.656  0.9997 -2.0486  1.0607
 9966SOL     OW30796   2.047   0.338   0.273 -0.4710 -0.0763  0.1205
 9966SOL    HW130797   2.135   0.317   0.231  0.2250  0.1527  1.4132
 9966SOL    HW230798   1.992   0.392   0.209  1.3022  1.9286  0.1815
 9967SOL     OW30799   2.409   2.058   3.591 -0.3442 -0.6191  0.6607
 9967SOL    HW130800   2.346   1.984   3.564  0.2607 -1.7005  2.0654
 9967SOL    HW230801   2.483   2.020   3.646  0.4466  0.9452  0.7331
 9968SOL     OW30802   0.607   0.167   3.261  0.2398 -0.4835  0.2911
 9968SOL    HW130803   0.571   0.255   3.231 -0.1327 -1.2971 -1.8206
 9968SOL    HW230804   0.705   0.163   3.245  0.4224 -0.1503  1.2423
 9969SOL     OW30805   0.566   5.277   3.552  0.4257 -0.1847  0.2633
 9969SOL    HW130806   0.502   5.338   3.599  0.4243  1.9520 -2.2533
 9969SOL    HW230807   0.521   5.238   3.471  1.5240 -0.7264 -0.1000
 9970SOL     OW30808   2.322   4.246   3.698 -0.1268  0.3141  0.0847
 9970SOL    HW130809   2.328   4.219   3.794 -0.1946 -1.1543 -0.2928
 9970SOL    HW230810   2.235   4.216   3.660  0.6843 -0.9295 -0.9134
 9971SOL     OW30811   4.761   5.796   1.244  0.2131  0.4130  0.0356
 9971SOL    HW130812   4.674   5.820   1.289  0.3343  3.2683 -1.0245
 9971SOL    HW230813   4.836   5.840   1.292  0.8002  0.0481 -0.5345
 9972SOL     OW30814   0.020   4.323   5.492 -0.6720  1.0119  0.5630
 9972SOL    HW130815  -0.040   4.404   5.496 -0.3765  1.1859  1.6825
 9972SOL    HW230816   0.095   4.334   5.557 -0.2411  0.1307  0.2253
 9973SOL     OW30817   1.611   2.314   4.671  0.1438 -0.2997 -0.2812
 9973SOL    HW130818   1.693   2.261   4.649  0.2639  0.3052 -1.3607
 9973SOL    HW230819   1.543   2.303   4.598  0.2624  1.1931 -0.6567
 9974SOL     OW30820   0.480   1.906   3.235 -0.0328  0.4554  0.1600
 9974SOL    HW130821   0.576   1.912   3.209  0.7893  0.8795  2.9749
 9974SOL    HW230822   0.425   1.966   3.177  1.4296  0.5060 -1.2224
 9975SOL     OW30823   1.446   2.820   5.780 -0.2490 -0.0828  0.0547
 9975SOL    HW130824   1.424   2.730   5.743 -0.9831  0.8728 -1.9291
 9975SOL    HW230825   1.524   2.811   5.843 -0.2501 -2.0698 -0.1527
 9976SOL     OW30826   5.911   6.317   0.293  0.4312  0.2483 -0.0219
 9976SOL    HW130827   5.960   6.369   0.363  0.6495 -0.0424  0.0410
 9976SOL    HW230828   5.830   6.276   0.334 -2.2703  4.0618 -0.9457
 9977SOL     OW30829   3.139   6.497   1.598 -0.4349  0.1638  0.4054
 9977SOL    HW130830   3.097   6.535   1.516 -1.1727 -0.0309  0.6863
 9977SOL    HW230831   3.203   6.425   1.572 -0.6023  0.1603 -0.0056
 9978SOL     OW30832   6.876   5.526   2.429 -0.1888 -0.0158  0.1665
 9978SOL    HW130833   6.970   5.494   2.441 -0.4693 -1.1157 -0.3976
 9978SOL    HW230834   6.869   5.622   2.456  1.7123  0.9317 -2.3411
 9979SOL     OW30835   2.267   6.547   1.154 -0.4756  0.0516  0.3762
 9979SOL    HW130836   2.358   6.578   1.178  0.6840 -2.6956 -0.1029
 9979SOL    HW230837   2.214   6.531   1.237 -0.0930  0.4657  0.7037
 9980SOL     OW30838   6.502   6.549   3.938  0.1254  0.2671  0.1469
 9980SOL    HW130839   6.572   6.619   3.925 -0.2975  0.8800  1.0604
 9980SOL    HW230840   6.440   6.549   3.859  0.8723  0.0361 -0.4482
 9981SOL     OW30841   6.046   2.981   3.154  0.2299  0.2398 -0.5447
 9981SOL    HW130842   5.995   2.962   3.238  1.9887  0.3397  0.5732
 9981SOL    HW230843   6.056   2.896   3.101  0.4087 -0.1374  0.0871
 9982SOL     OW30844   0.866   1.620   2.771  0.6663 -0.1894 -0.1049
 9982SOL    HW130845   0.779   1.657   2.805  1.1988 -0.7881  2.0895
 9982SOL    HW230846   0.939   1.686   2.786  1.0365 -0.7554  0.6522
 9983SOL     OW30847   2.324   0.176   3.327 -0.1279 -0.1300 -0.1609
 9983SOL    HW130848   2.257   0.247   3.346  1.4417  1.4689 -0.2708
 9983SOL    HW230849   2.408   0.195   3.379 -0.1166 -2.7131  0.9260
 9984SOL     OW30850   0.018   5.172   5.117  0.7241 -0.2752 -0.7261
 9984SOL    HW130851   0.097   5.195   5.061  1.0662 -0.0586 -0.1522
 9984SOL    HW230852  -0.057   5.235   5.096  0.7715 -0.3441 -1.1116
 9985SOL     OW30853   0.584   6.256   1.407 -0.4963  0.0136  0.3665
 9985SOL    HW130854   0.593   6.266   1.308  1.1184  0.1380  0.4916
 9985SOL    HW230855   0.650   6.188   1.439 -0.1696  0.8287  1.4927
 9986SOL     OW30856   6.192   0.576   1.097 -0.3176 -0.2593  0.1622
 9986SOL    HW130857   6.144   0.509   1.040  1.1435 -2.3795  1.2884
 9986SOL    HW230858   6.145   0.584   1.185 -0.7448  0.5716 -0.1340
 9987SOL     OW30859   1.133   3.918   4.728  0.0351 -0.6964 -0.2546
 9987SOL    HW130860   1.157   3.822   4.711 -0.2006 -0.9348  0.7401
 9987SOL    HW230861   1.112   3.931   4.824 -1.7896 -0.0337 -0.7012
 9988SOL     OW30862   1.379   0.870   4.602 -0.0128  0.0874  0.0746
 9988SOL    HW130863   1.324   0.845   4.681  1.2997  0.2549  1.0743
 9988SOL    HW230864   1.319   0.902   4.528 -1.4191 -2.1492  0.1725
 9989SOL     OW30865   3.161   6.318   4.172  0.3249 -0.3019 -0.1448
 9989SOL    HW130866   3.152   6.259   4.252 -0.0533 -0.0897 -0.0296
 9989SOL    HW230867   3.179   6.262   4.091  1.0837 -0.4926  0.1453
 9990SOL     OW30868   1.057   5.469   6.899 -0.3148  0.5780 -0.2956
 9990SOL    HW130869   0.997   5.409   6.953  1.5496 -0.1953  1.0000
 9990SOL    HW230870   1.045   5.448   6.801 -1.6400 -0.0146 -0.0374
 9991SOL     OW30871   6.373   4.331   0.415  0.0989 -0.4051  0.5284
 9991SOL    HW130872   6.366   4.345   0.316  0.0282 -1.1604  0.4168
 9991SOL    HW230873   6.464   4.359   0.446  0.0974 -0.1007  0.2602
 9992SOL     OW30874   6.699   0.314   1.450 -0.4255  0.5518  0.0066
 9992SOL    HW130875   6.669   0.256   1.525 -0.2248  0.7695  0.2577
 9992SOL    HW230876   6.674   0.272   1.363  1.5031 -0.9571  0.1050
 9993SOL     OW30877   5.607   6.861   6.326  0.4908  0.0241  0.6574
 9993SOL    HW130878   5.602   6.828   6.420  0.6299 -1.2274  0.2529
 9993SOL    HW230879   5.606   6.783   6.264 -1.0489  0.8903 -0.4567
 9994SOL     OW30880   3.169   6.722   0.075 -0.4511  0.7125  0.3164
 9994SOL    HW130881   3.202   6.747   0.166  0.5621 -1.3742  0.5851
 9994SOL    HW230882   3.111   6.641   0.081 -2.5743  2.0553 -0.6402
 9995SOL     OW30883   4.911   2.391   2.803  0.2393  0.2265  0.1228
 9995SOL    HW130884   4.856   2.319   2.845  1.5705 -0.5249  0.6371
 9995SOL    HW230885   4.866   2.424   2.721 -0.6416 -0.8477  0.1526
 9996SOL     OW30886   6.866   0.036   5.132  0.1344  0.1348 -0.1707
 9996SOL    HW130887   6.835   0.111   5.190  0.9704  1.1755 -1.0361
 9996SOL    HW230888   6.935  -0.017   5.181  0.4387  0.6757 -0.0085
 9997SOL     OW30889   3.459   4.011   1.667  0.3295  0.0212  0.2885
 9997SOL    HW130890   3.518   3.969   1.736  1.6162  1.7320  0.3045
 9997SOL    HW230891   3.463   3.959   1.582  1.1516 -0.3871  0.5732
 9998SOL     OW30892   3.797   5.160   2.933 -0.9608  0.2054 -0.4852
 9998SOL    HW130893   3.750   5.142   3.019  0.3587  1.5311  0.5751
 9998SOL    HW230894   3.782   5.255   2.906  1.1893  0.7638  0.0278
 9999SOL     OW30895   6.929   3.707   1.828  0.0504 -0.3450  0.8556
 9999SOL    HW130896   7.021   3.679   1.855  1.7615  0.1837 -3.5208
 9999SOL    HW230897   6.888   3.761   1.901  3.1287 -0.7471  3.0933
10000SOL     OW30898   0.807   3.657   6.815 -0.1385  0.0101  0.7234
10000SOL    HW130899   0.730   3.719   6.830  0.6962  1.1811  0.2612
10000SOL    HW230900   0.791   3.603   6.733 -0.0078  0.9837  0.0506
10001SOL     OW30901   5.414   2.761   0.411  0.4201  0.0054 -0.1256
10001SOL    HW130902   5.388   2.668   0.438  0.2073  0.2071  0.3609
10001SOL    HW230903   5.339   2.824   0.428  0.9118  0.4370  0.4628
10002SOL     OW30904   4.445   5.678   3.610 -0.4056 -0.0860  0.4494
10002SOL    HW130905   4.426   5.731   3.693  0.8997 -0.9165  1.3291
10002SOL    HW230906   4.394   5.591   3.614 -1.2580  0.3671 -0.2049
10003SOL     OW30907   0.727   4.411   2.636 -0.6304 -0.3324  0.3467
10003SOL    HW130908   0.744   4.420   2.734  0.4195  0.8830  0.0737
10003SOL    HW230909   0.778   4.333   2.601 -2.1808 -1.7083  0.9969
10004SOL     OW30910   3.308   3.727   6.502 -0.5142 -0.2298  0.2639
10004SOL    HW130911   3.373   3.669   6.454 -0.0333  0.0734  0.5436
10004SOL    HW230912   3.219   3.682   6.506 -0.8228  0.1130 -1.7055
10005SOL     OW30913   4.531   1.030   6.980 -0.4307 -0.6727  0.6561
10005SOL    HW130914   4.570   1.121   6.969  0.7404 -1.3509 -1.4426
10005SOL    HW230915   4.527   1.007   7.077  1.8536  0.5413  1.1099
10006SOL     OW30916   2.206   6.218   2.136  0.0342 -0.8405  1.2707
10006SOL    HW130917   2.126   6.156   2.134 -0.7707  0.1412  2.1622
10006SOL    HW230918   2.257   6.203   2.220 -0.3240 -0.1007  1.6231
10007SOL     OW30919   4.319   3.759   6.239 -0.0285 -0.4645 -0.6230
10007SOL    HW130920   4.260   3.774   6.160 -0.0307  4.0395 -0.0038
10007SOL    HW230921   4.414   3.775   6.213  0.1248 -0.3695 -0.0095
10008SOL     OW30922   3.093   3.989   1.953  0.5012 -0.2486 -0.6139
10008SOL    HW130923   3.018   4.047   1.924 -0.5310 -1.1774  0.1142
10008SOL    HW230924   3.095   3.906   1.896  1.1908 -0.0788 -0.8496
10009SOL     OW30925   5.512   0.093   5.430  0.3206  0.3539  0.2534
10009SOL    HW130926   5.525   0.161   5.501  0.6454 -0.9437  1.4929
10009SOL    HW230927   5.469   0.011   5.469  0.9921 -0.6052 -0.9213
10010SOL     OW30928   5.788   0.524   4.975  0.3949 -0.1412 -0.1795
10010SOL    HW130929   5.801   0.433   4.936  0.0798 -0.9460  1.4663
10010SOL    HW230930   5.802   0.520   5.074 -1.0683  1.2935  0.1362
10011SOL     OW30931   5.939   3.035   0.704 -0.0937  0.2040 -0.4100
10011SOL    HW130932   5.925   2.940   0.731  1.7315  0.0705  0.1865
10011SOL    HW230933   5.944   3.093   0.785 -2.3676  1.0553 -0.7868
10012SOL     OW30934   4.832   1.576   1.769 -0.8757 -0.0404 -0.1053
10012SOL    HW130935   4.906   1.634   1.734 -1.5565  0.9591  0.1041
10012SOL    HW230936   4.755   1.579   1.705 -1.4135  0.3258  0.5559
10013SOL     OW30937   3.147   4.636   0.185  0.5035  0.2714 -0.4743
10013SOL    HW130938   3.069   4.622   0.244 -0.3483  0.7682 -1.4458
10013SOL    HW230939   3.231   4.616   0.235 -0.2862 -1.8392  0.1295
10014SOL     OW30940   3.274   4.874   4.632  0.3351 -0.3539  0.4250
10014SOL    HW130941   3.224   4.798   4.674  0.5059  0.0257  1.3501
10014SOL    HW230942   3.210   4.949   4.613 -0.3103 -1.5635 -2.7194
10015SOL     OW30943   1.830   0.110   2.866 -0.0677 -0.6508  0.0221
10015SOL    HW130944   1.904   0.081   2.927  0.6693 -1.0985 -1.0683
10015SOL    HW230945   1.765   0.035   2.854  0.0966 -0.7590 -0.1986
10016SOL     OW30946   4.351   0.709   3.960  0.0459  0.5039 -0.2120
10016SOL    HW130947   4.273   0.670   4.008  1.1948 -1.0179  0.5053
10016SOL    HW230948   4.392   0.781   4.015 -0.1759  0.5366 -0.0872
10017SOL     OW30949   5.797   1.237   6.999  0.6385  0.2932 -0.0197
10017SOL    HW130950   5.802   1.212   7.096  0.0260 -1.1952 -0.3346
10017SOL    HW230951   5.889   1.241   6.961  0.8264 -0.7672  0.2706
10018SOL     OW30952   2.258   1.727   5.905 -0.6137  0.0007 -0.5169
10018SOL    HW130953   2.272   1.758   5.999  2.6800 -0.5835 -0.7121
10018SOL    HW230954   2.227   1.632   5.905 -3.5334  0.8657 -0.0612
10019SOL     OW30955   5.764   2.750   5.562  0.1853  0.2645  0.5423
10019SOL    HW130956   5.749   2.662   5.517 -0.7100  0.4133  0.5280
10019SOL    HW230957   5.696   2.815   5.530  1.1550  1.1196  0.1736
10020SOL     OW30958   4.805   0.576   3.374  0.9427 -0.7497 -0.6279
10020SOL    HW130959   4.842   0.496   3.327  2.0835 -0.1860 -0.7342
10020SOL    HW230960   4.863   0.655   3.355  0.3367 -0.0905  0.1884
10021SOL     OW30961   0.861   1.388   2.640  0.2241  0.0723 -0.3003
10021SOL    HW130962   0.917   1.309   2.663 -0.2378  0.0129  0.6789
10021SOL    HW230963   0.870   1.457   2.713  0.4203  0.8134 -1.0137
10022SOL     OW30964   5.154   1.598   2.763  0.5055 -0.0308 -0.2257
10022SOL    HW130965   5.109   1.662   2.825 -0.9267 -1.6828  0.5582
10022SOL    HW230966   5.238   1.564   2.805 -0.2379 -0.8223  0.6732
10023SOL     OW30967   0.251   5.922   5.401 -0.2073 -0.0657  0.5797
10023SOL    HW130968   0.238   6.019   5.421  0.3166  0.2011 -0.3202
10023SOL    HW230969   0.169   5.886   5.355  0.2289  0.3777 -0.5868
10024SOL     OW30970   3.083   4.774   0.796  0.6056 -0.3368  0.0737
10024SOL    HW130971   3.048   4.730   0.879  1.9832  1.8837  1.9530
10024SOL    HW230972   3.037   4.736   0.716 -2.1947 -1.2167  1.9687
10025SOL     OW30973   1.062   5.381   1.042  0.3756 -0.2947 -0.2963
10025SOL    HW130974   1.002   5.403   0.964  1.9586  0.0149 -1.4774
10025SOL    HW230975   1.096   5.466   1.082 -0.8993 -0.4316  1.1728
10026SOL     OW30976   2.149   5.382   3.733  0.3611  0.2808  0.1691
10026SOL    HW130977   2.218   5.443   3.694 -0.5024  0.9829 -0.3154
10026SOL    HW230978   2.063   5.392   3.682 -0.3800  0.1465  1.3503
10027SOL     OW30979   5.833   1.661   4.728 -0.0360 -0.0255  0.5584
10027SOL    HW130980   5.908   1.635   4.789 -1.5347  0.4188  2.7017
10027SOL    HW230981   5.796   1.578   4.685  1.3880 -0.2845 -0.2560
10028SOL     OW30982   5.712   3.938   1.315 -0.1138 -0.2145 -0.0308
10028SOL    HW130983   5.727   3.843   1.341  1.0193 -0.2495 -0.7531
10028SOL    HW230984   5.788   3.994   1.348 -0.6413  0.4056  0.1616
10029SOL     OW30985   0.443   5.241   3.308 -0.2138 -0.2530  0.0287
10029SOL    HW130986   0.538   5.259   3.282 -0.4727  0.4998 -0.4129
10029SOL    HW230987   0.393   5.327   3.317 -0.8215 -0.6347  0.4013
10030SOL     OW30988   0.791   0.372   6.676 -0.3762  0.0649 -0.4521
10030SOL    HW130989   0.860   0.327   6.732 -0.9694 -1.0881 -0.6221
10030SOL    HW230990   0.802   0.344   6.580  0.8550  2.2859 -1.0369
10031SOL     OW30991   0.499   0.387   1.041  0.0711 -0.5553  0.1493
10031SOL    HW130992   0.411   0.354   1.006  1.5009 -1.4674 -2.8905
10031SOL    HW230993   0.483   0.465   1.102 -2.8755 -1.4746  0.7374
10032SOL     OW30994   2.946   1.907   6.275 -0.5894  0.3134 -0.4867
10032SOL    HW130995   2.993   1.995   6.268 -0.1236 -0.0108 -1.7764
10032SOL    HW230996   3.008   1.834   6.248 -0.6408 -0.5573  1.6017
10033SOL     OW30997   5.011   3.096   1.131 -0.0446  0.1478 -0.5738
10033SOL    HW130998   4.968   3.016   1.174  1.2056 -0.1501  0.1443
10033SOL    HW230999   4.964   3.179   1.161  0.1039 -0.1438  0.4803
10034SOL     OW31000   1.571   3.055   2.251 -1.0205 -0.2451 -0.2176
10034SOL    HW131001   1.625   2.972   2.264 -0.1254  0.2916 -0.4070
10034SOL    HW231002   1.611   3.110   2.178  1.3396  2.6692  2.9306
10035SOL     OW31003   6.612   3.000   4.002  0.4832  0.1670  0.1930
10035SOL    HW131004   6.678   2.992   3.927  1.4440  0.6965  0.9476
10035SOL    HW231005   6.627   2.926   4.067  0.3543  0.3000  0.3753
10036SOL     OW31006   2.911   6.274   1.771  0.6882 -0.8546 -0.0015
10036SOL    HW131007   2.949   6.256   1.862  1.5254 -1.9630 -0.5443
10036SOL    HW231008   2.941   6.203   1.708 -0.3774 -0.4342 -1.0166
10037SOL     OW31009   5.211   4.294   1.161  0.4803 -0.1925  0.4374
10037SOL    HW131010   5.111   4.288   1.168  0.5566  0.1833  2.3457
10037SOL    HW231011   5.240   4.387   1.183  1.2741 -0.3620  0.1216
10038SOL     OW31012   1.833   3.602   5.273  0.4245 -0.0331 -0.5785
10038SOL    HW131013   1.812   3.645   5.185  1.7013  2.3949  0.2170
10038SOL    HW231014   1.931   3.582   5.278  0.0069 -2.2930 -0.5481
10039SOL     OW31015   1.410   4.693   2.308  0.0363 -0.0821  0.1139
10039SOL    HW131016   1.497   4.651   2.335 -0.7587 -1.0697  1.2059
10039SOL    HW231017   1.428   4.767   2.244  1.5458 -1.4673 -1.1360
10040SOL     OW31018   5.623   4.646   4.155  0.0663 -0.3614 -0.5423
10040SOL    HW131019   5.552   4.595   4.204  0.6422 -0.5151  0.1519
10040SOL    HW231020   5.711   4.602   4.170  0.1915 -0.7507 -2.2009
10041SOL     OW31021   1.027   1.355   6.633 -0.0489 -0.3292 -0.6151
10041SOL    HW131022   1.055   1.267   6.596 -2.3433 -1.8657  1.1005
10041SOL    HW231023   1.074   1.372   6.720 -0.4238 -0.3908 -0.3979
10042SOL     OW31024   2.256   0.425   3.561  0.6915 -0.4832 -0.1949
10042SOL    HW131025   2.314   0.482   3.503  0.2579  1.0161  0.7871
10042SOL    HW231026   2.223   0.479   3.639  0.2961 -2.0984  0.8126
10043SOL     OW31027   5.572   6.806   5.054  0.0523  0.6626 -0.3044
10043SOL    HW131028   5.533   6.795   4.963  3.3257 -1.5588 -1.6400
10043SOL    HW231029   5.547   6.728   5.111 -1.6396  1.8414  0.6574
10044SOL     OW31030   6.504   1.385   5.655 -0.1664 -0.3493  0.1033
10044SOL    HW131031   6.586   1.331   5.640 -0.2363 -0.2277 -0.7952
10044SOL    HW231032   6.471   1.372   5.749 -0.4528 -2.2361 -0.2286
10045SOL     OW31033   2.616   6.341   0.878 -0.5331 -0.5488  0.1259
10045SOL    HW131034   2.639   6.413   0.811 -1.5826  0.6807  1.0486
10045SOL    HW231035   2.691   6.274   0.881 -0.0743 -0.1798 -1.6450
10046SOL     OW31036   1.587   1.766   5.533  0.0795 -0.3804 -0.4834
10046SOL    HW131037   1.677   1.752   5.490  0.3005  0.6012 -0.3724
10046SOL    HW231038   1.579   1.861   5.561 -1.1017 -0.4117 -0.6974
10047SOL     OW31039   4.475   0.838   2.053  0.0417  0.3296 -0.0616
10047SOL    HW131040   4.398   0.777   2.036  0.5463 -0.1298 -0.7357
10047SOL    HW231041   4.450   0.902   2.126 -0.8653  0.0004 -0.0601
10048SOL     OW31042   2.615   2.621   1.557  0.4225 -0.6979  0.3405
10048SOL    HW131043   2.532   2.564   1.550  1.1148 -2.2477  2.9911
10048SOL    HW231044   2.682   2.574   1.615  3.0173  0.7293 -1.3182
10049SOL     OW31045   2.779   0.763   4.156  0.0779  0.1728  0.5966
10049SOL    HW131046   2.734   0.674   4.151  0.9988 -0.2736 -0.1063
10049SOL    HW231047   2.740   0.823   4.086  0.2005 -0.0328  0.3502
10050SOL     OW31048   5.389   1.698   5.631  0.0384  0.9874 -0.5546
10050SOL    HW131049   5.402   1.656   5.541  0.9816  3.2314 -1.5545
10050SOL    HW231050   5.319   1.769   5.625  0.1869  1.2297  0.4385
10051SOL     OW31051   2.624   4.726   4.025 -0.1346 -0.3452  0.4127
10051SOL    HW131052   2.610   4.757   4.119  1.0946 -0.2041  0.5630
10051SOL    HW231053   2.582   4.636   4.013  0.6032 -0.8440  1.4225
10052SOL     OW31054   1.069   5.812   4.901 -0.0150  0.3173 -0.2172
10052SOL    HW131055   1.038   5.719   4.918  2.1422 -0.4649 -0.2406
10052SOL    HW231056   1.060   5.867   4.984  0.3089 -0.4064  0.3003
10053SOL     OW31057   6.015   1.018   1.025  0.6791  0.6299  0.8815
10053SOL    HW131058   5.974   1.108   1.020 -1.1950 -0.2105  0.4544
10053SOL    HW231059   6.042   0.999   1.120 -0.7776  0.8656  1.3645
10054SOL     OW31060   4.473   0.488   4.475 -0.1490 -0.4534  0.3855
10054SOL    HW131061   4.557   0.527   4.437 -0.3971 -1.5447 -1.3844
10054SOL    HW231062   4.488   0.393   4.499 -0.3000 -0.0644  2.1419
10055SOL     OW31063   3.560   6.749   0.251  0.0001 -0.2701  0.0493
10055SOL    HW131064   3.543   6.703   0.164  0.7255 -0.5466  0.0438
10055SOL    HW231065   3.570   6.680   0.323  0.5041 -0.1039  0.1457
10056SOL     OW31066   2.820   5.891   2.142 -0.1273 -0.3736 -0.3083
10056SOL    HW131067   2.891   5.821   2.146  1.5699  1.2722  0.0233
10056SOL    HW231068   2.786   5.900   2.049 -0.6652 -1.8907 -0.2733
10057SOL     OW31069   1.389   6.889   4.219 -0.2418  0.2572 -0.2419
10057SOL    HW131070   1.423   6.902   4.312  1.0538 -0.2200 -0.6315
10057SOL    HW231071   1.463   6.855   4.161 -0.6332  1.9187 -1.7973
10058SOL     OW31072   5.002   3.069   4.188  0.0238 -0.7812 -0.5657
10058SOL    HW131073   4.962   3.048   4.277  1.1164 -2.5440 -0.4507
10058SOL    HW231074   4.941   3.130   4.138 -0.5208  0.4526  1.4536
10059SOL     OW31075   4.261   0.667   2.055 -0.3203  0.0015 -0.0472
10059SOL    HW131076   4.171   0.636   2.023  0.7313 -2.0378 -1.2357
10059SOL    HW231077   4.280   0.627   2.144 -0.1649 -0.4536 -0.2801
10060SOL     OW31078   6.443   1.472   2.274  0.4294  0.1393 -0.2577
10060SOL    HW131079   6.400   1.538   2.212  0.8145  1.1685  0.5269
10060SOL    HW231080   6.394   1.385   2.271 -0.7928  0.8134 -0.4804
10061SOL     OW31081   2.561   6.318   1.526 -0.7430  0.3554 -0.3077
10061SOL    HW131082   2.655   6.320   1.491 -0.6323 -0.1216 -0.0432
10061SOL    HW231083   2.561   6.285   1.620 -1.2830 -0.7965 -0.6919
10062SOL     OW31084   6.138   0.921   6.956 -0.1154  0.0164  0.2442
10062SOL    HW131085   6.203   0.990   6.923  0.8411 -0.4474  1.0829
10062SOL    HW231086   6.128   0.848   6.888  0.8767 -0.3136  0.4402
10063SOL     OW31087   6.118   1.679   0.854 -0.1351  0.2436  0.3204
10063SOL    HW131088   6.070   1.696   0.768 -0.3857  1.3697  0.6645
10063SOL    HW231089   6.180   1.755   0.873 -0.9578  0.5991  1.7058
10064SOL     OW31090   4.905   3.270   1.404 -0.0789  0.3296 -0.0337
10064SOL    HW131091   4.911   3.325   1.321 -2.6691 -0.1228 -0.6090
10064SOL    HW231092   4.831   3.203   1.394 -0.6224  0.3977  2.7037
10065SOL     OW31093   3.215   6.855   2.820  0.2206 -0.5538 -0.4737
10065SOL    HW131094   3.123   6.835   2.853 -0.1550  0.4273 -0.9056
10065SOL    HW231095   3.215   6.942   2.771  1.4587 -0.3353 -0.1229
10066SOL     OW31096   6.469   3.522   0.525 -0.6803 -0.3276 -0.2140
10066SOL    HW131097   6.506   3.611   0.495 -0.0439 -0.4055  0.3260
10066SOL    HW231098   6.451   3.465   0.444 -0.1349 -0.0832 -0.5160
10067SOL     OW31099   4.659   1.923   0.421  0.2276  0.4271  0.1435
10067SOL    HW131100   4.629   2.015   0.398 -0.6703  0.6426  1.9906
10067SOL    HW231101   4.579   1.862   0.424  0.9262 -0.7263 -2.1669
10068SOL     OW31102   4.039   3.594   5.404  0.2929  0.0174 -0.0260
10068SOL    HW131103   4.101   3.602   5.482  1.2908 -0.0771 -0.7992
10068SOL    HW231104   3.946   3.619   5.433  0.3679 -1.3483  1.5330
10069SOL     OW31105   1.786   4.296   0.337  0.1739 -0.8971  0.3560
10069SOL    HW131106   1.885   4.310   0.327 -0.1576  1.1748 -0.5312
10069SOL    HW231107   1.761   4.307   0.433  0.4016  2.1698  0.1696
10070SOL     OW31108   5.986   1.433   0.470  0.4443 -0.2162 -0.5783
10070SOL    HW131109   5.983   1.333   0.463  1.1847 -0.1513 -2.1443
10070SOL    HW231110   6.021   1.472   0.385  1.7838  1.2876  0.5912
10071SOL     OW31111   4.695   1.090   1.537 -0.3094 -0.4102  0.2874
10071SOL    HW131112   4.672   1.187   1.530  0.0704 -0.3254  0.1859
10071SOL    HW231113   4.748   1.074   1.621  1.2701 -0.1901 -0.6263
10072SOL     OW31114   3.365   0.067   1.148 -0.1763  0.1933  0.3326
10072SOL    HW131115   3.457   0.105   1.156 -0.1070  0.0834  0.0518
10072SOL    HW231116   3.297   0.139   1.165 -0.0672  0.7397 -1.4231
10073SOL     OW31117   0.754   3.067   1.291 -0.6795  0.5297  0.0923
10073SOL    HW131118   0.734   2.991   1.230 -0.2744  0.2092  0.3539
10073SOL    HW231119   0.756   3.152   1.239  0.5911  0.1515 -0.5152
10074SOL     OW31120   1.764   1.177   2.525 -0.2728 -0.1788 -0.0853
10074SOL    HW131121   1.746   1.210   2.617 -2.0377  1.8644 -1.0914
10074SOL    HW231122   1.693   1.111   2.499 -1.3956  1.3192 -0.9286
10075SOL     OW31123   6.288   6.379   5.122  0.5378 -0.4239  0.2735
10075SOL    HW131124   6.198   6.361   5.162 -0.4090  1.4662 -0.8945
10075SOL    HW231125   6.326   6.294   5.086 -0.9885 -1.1736  0.3694
10076SOL     OW31126   2.200   0.210   2.871  0.0863 -0.1156 -0.8866
10076SOL    HW131127   2.199   0.229   2.773  2.3977 -0.7281 -1.0833
10076SOL    HW231128   2.125   0.149   2.894  0.4538 -1.2778 -2.5891
10077SOL     OW31129   5.609   0.370   3.700  0.4586  0.3914  0.4515
10077SOL    HW131130   5.707   0.350   3.710 -0.0707 -1.4800  2.7923
10077SOL    HW231131   5.593   0.409   3.609  3.2517  0.0884 -0.2894
10078SOL     OW31132   0.070   0.339   1.474 -0.5162  0.0410  0.0634
10078SOL    HW131133   0.110   0.358   1.564 -2.3138 -1.0449  1.1585
10078SOL    HW231134   0.076   0.241   1.454  0.8012  0.4038 -1.5121
10079SOL     OW31135   4.619   6.551   2.174  0.1641  0.3710  0.5048
10079SOL    HW131136   4.534   6.596   2.147 -0.1363 -0.6947 -0.4118
10079SOL    HW231137   4.639   6.572   2.270 -1.1568  0.6127  0.7497
10080SOL     OW31138   6.011   0.197   6.742  0.4918  0.1727  0.0240
10080SOL    HW131139   5.994   0.286   6.783  1.8356  0.2120  0.5557
10080SOL    HW231140   6.014   0.206   6.642 -1.3870  0.3271 -0.0567
10081SOL     OW31141   1.271   5.690   2.709 -0.0198  1.1076 -0.2259
10081SOL    HW131142   1.250   5.760   2.641 -0.7584 -0.3144 -1.5437
10081SOL    HW231143   1.205   5.615   2.700  1.6054 -0.4313  0.1379
10082SOL     OW31144   6.982   0.652   0.857 -0.3261 -0.1302 -0.7085
10082SOL    HW131145   7.031   0.584   0.803  0.5024 -0.2915  0.2041
10082SOL    HW231146   6.942   0.721   0.797 -1.5366 -1.6413 -1.6770
10083SOL     OW31147   3.995   6.905   2.810 -0.1372 -0.3948  0.0717
10083SOL    HW131148   4.084   6.923   2.767 -0.1595 -1.4749 -0.4646
10083SOL    HW231149   4.007   6.900   2.909  0.5267 -1.1381 -0.0361
10084SOL     OW31150   1.022   6.951   6.300  0.6456  0.2575 -0.1113
10084SOL    HW131151   0.980   6.878   6.246  0.3413  0.5475 -0.2699
10084SOL    HW231152   1.107   6.918   6.341  0.5742 -0.1451 -0.2878
10085SOL     OW31153   4.145   6.779   3.446 -0.2593  0.3467  0.0414
10085SOL    HW131154   4.111   6.755   3.355 -2.1444 -1.5726  1.1577
10085SOL    HW231155   4.070   6.772   3.513  1.3339  0.4729  1.9401
10086SOL     OW31156   5.670   2.476   6.369  0.2379 -1.0394 -0.4968
10086SOL    HW131157   5.761   2.448   6.400 -0.4735 -3.5179 -0.4587
10086SOL    HW231158   5.617   2.395   6.344 -2.1102  0.3231 -0.1702
10087SOL     OW31159   5.414   3.754   5.903  0.0940 -0.3246  0.0827
10087SOL    HW131160   5.346   3.802   5.847  1.0908 -0.0838 -0.9404
10087SOL    HW231161   5.416   3.658   5.877  0.9921 -0.0917 -0.7477
10088SOL     OW31162   4.348   1.776   4.029 -0.3421 -0.3350  0.3956
10088SOL    HW131163   4.378   1.693   3.983  1.1709 -0.2989  1.2500
10088SOL    HW231164   4.271   1.816   3.979  1.7179  0.1727 -2.5997
10089SOL     OW31165   4.701   3.706   5.881  0.2713 -0.7434 -0.0306
10089SOL    HW131166   4.740   3.614   5.892  0.1228 -0.7505  0.4311
10089SOL    HW231167   4.614   3.700   5.832 -0.3162 -0.9745  1.0176
10090SOL     OW31168   4.746   0.233   0.092 -0.0729 -0.0575 -0.2581
10090SOL    HW131169   4.651   0.261   0.082 -0.4023 -1.4869 -1.5747
10090SOL    HW231170   4.776   0.249   0.186 -2.1089 -0.9754  0.6016
10091SOL     OW31171   5.758   1.175   0.524  0.5182  0.2846  0.2610
10091SOL    HW131172   5.681   1.112   0.531  0.1686  0.7443  0.6284
10091SOL    HW231173   5.836   1.139   0.577 -0.1397  0.8279  1.6569
10092SOL     OW31174   1.626   6.475   6.592  0.4340  0.1341  0.0001
10092SOL    HW131175   1.583   6.509   6.508  1.8942  0.5236 -0.6322
10092SOL    HW231176   1.557   6.464   6.663 -0.7759  0.1788 -1.1305
10093SOL     OW31177   1.041   0.035   5.061  0.6155  0.6135 -0.2213
10093SOL    HW131178   1.091   0.102   5.005  0.7920  1.0431  0.4429
10093SOL    HW231179   1.102  -0.002   5.131 -0.2927  2.1426  1.4778
10094SOL     OW31180   3.813   3.640   5.534  0.0950 -0.5369 -0.3601
10094SOL    HW131181   3.812   3.650   5.634 -0.7369 -0.3747 -0.3782
10094SOL    HW231182   3.730   3.680   5.496  1.4456  1.5253 -1.3320
10095SOL     OW31183   2.265   1.453   3.297 -0.3326  0.0415  0.7834
10095SOL    HW131184   2.355   1.410   3.289 -0.2185  0.2549  0.9058
10095SOL    HW231185   2.207   1.421   3.223  0.8860  2.4177 -1.3437
10096SOL     OW31186   4.707   2.361   5.474 -0.5402 -0.4146 -0.2737
10096SOL    HW131187   4.770   2.289   5.503 -0.4969 -0.4538 -0.4627
10096SOL    HW231188   4.735   2.448   5.514 -1.2280 -0.6970  0.8364
10097SOL     OW31189   2.638   5.367   3.628  0.3264 -0.1014  0.5127
10097SOL    HW131190   2.645   5.466   3.615 -0.6792  0.0089  0.7059
10097SOL    HW231191   2.606   5.347   3.721 -1.9783 -0.4822 -0.2996
10098SOL     OW31192   0.807   0.382   0.552 -0.2707 -0.0685  0.0023
10098SOL    HW131193   0.863   0.454   0.594  0.1690 -0.7880  0.6645
10098SOL    HW231194   0.718   0.421   0.525  0.4423  1.0316 -0.8588
10099SOL     OW31195   1.356   5.640   5.149  0.0363  0.3170  0.3764
10099SOL    HW131196   1.439   5.616   5.098  1.0895 -0.2320  2.2862
10099SOL    HW231197   1.309   5.556   5.178 -1.1132  0.6223 -0.5009
10100SOL     OW31198   1.589   5.102   2.608 -0.2589 -0.3075  0.4213
10100SOL    HW131199   1.547   5.049   2.535 -2.0340  2.9838 -1.1563
10100SOL    HW231200   1.682   5.127   2.582  1.3933 -4.0208  2.0545
10101SOL     OW31201   5.927   3.440   5.983  0.1779  0.3354  0.2801
10101SOL    HW131202   6.013   3.470   6.024  0.3110 -0.7839  0.8620
10101SOL    HW231203   5.946   3.384   5.903  0.0843 -1.1530  1.2457
10102SOL     OW31204   3.721   1.160   4.347 -0.0574  0.5716  0.0302
10102SOL    HW131205   3.724   1.098   4.426  0.5436 -0.0123 -0.4312
10102SOL    HW231206   3.632   1.151   4.301 -0.5089  1.1054  0.7754
10103SOL     OW31207   3.544   2.179   0.469  0.3868 -0.0781 -0.2992
10103SOL    HW131208   3.612   2.231   0.417  0.6942 -1.8847 -1.8061
10103SOL    HW231209   3.577   2.086   0.483 -1.6789 -0.9598 -0.9061
10104SOL     OW31210   1.629   1.034   5.177  0.1961  0.2994  0.2623
10104SOL    HW131211   1.689   0.957   5.197  0.2613 -0.0061 -1.0268
10104SOL    HW231212   1.678   1.120   5.190  0.8771  0.0577 -0.6221
10105SOL     OW31213   2.588   5.012   3.971 -0.0746  0.4085  0.1144
10105SOL    HW131214   2.621   5.042   3.881  2.0827  0.1057  0.7437
10105SOL    HW231215   2.620   4.919   3.988 -0.9673  0.2426  0.9809
10106SOL     OW31216   1.389   6.464   1.920  0.1141 -0.2017  0.6457
10106SOL    HW131217   1.433   6.387   1.965 -0.3233 -0.9825 -0.2213
10106SOL    HW231218   1.337   6.431   1.841 -0.5842  0.9098  0.6224
10107SOL     OW31219   5.146   3.052   3.039  0.2003 -0.2222 -0.4388
10107SOL    HW131220   5.124   3.011   3.128  0.4963  0.6851  0.0655
10107SOL    HW231221   5.207   2.990   2.989  0.2599 -0.6187  0.1066
10108SOL     OW31222   1.803   4.211   3.991  0.1534 -0.0951  0.0056
10108SOL    HW131223   1.780   4.304   3.963 -0.7350 -0.2620  0.1284
10108SOL    HW231224   1.840   4.160   3.914 -1.0130 -0.1494 -0.5448
10109SOL     OW31225   1.049   0.042   2.960  0.5876  0.1342  0.3852
10109SOL    HW131226   0.968   0.016   2.908 -0.1722 -0.4259  1.7982
10109SOL    HW231227   1.035   0.020   3.056  2.4105  0.0627  0.6652
10110SOL     OW31228   1.118   2.830   6.068  0.4016  0.0204  0.2866
10110SOL    HW131229   1.108   2.735   6.098 -1.4682  0.1910  0.3559
10110SOL    HW231230   1.103   2.835   5.969  0.5088  0.2412  0.2812
10111SOL     OW31231   0.216   3.836   3.797 -0.3131  0.4434  0.1359
10111SOL    HW131232   0.273   3.918   3.810  1.3687 -0.5177 -0.7510
10111SOL    HW231233   0.198   3.825   3.699 -3.2040  1.4260  0.4738
10112SOL     OW31234   0.142   0.487   0.706  0.4225  0.1324  0.2479
10112SOL    HW131235   0.126   0.518   0.612 -0.9845  2.0722  1.0728
10112SOL    HW231236   0.227   0.435   0.709  0.1768 -0.5855 -2.2152
10113SOL     OW31237   5.713   3.698   2.501  0.5977  0.0884  0.0433
10113SOL    HW131238   5.773   3.778   2.516  1.5773 -0.1961 -1.9963
10113SOL    HW231239   5.764   3.615   2.520 -0.3472 -0.1111  1.9127
10114SOL     OW31240   4.938   3.536   2.123  0.0775  0.4867  0.7217
10114SOL    HW131241   5.006   3.530   2.050 -0.8333 -0.8511 -0.0450
10114SOL    HW231242   4.892   3.448   2.135 -1.4364  1.3024  1.3028
10115SOL     OW31243   0.046   2.177   5.330  0.7419 -0.3607 -0.0663
10115SOL    HW131244  -0.019   2.227   5.273 -0.1604 -1.3830  0.0288
10115SOL    HW231245   0.105   2.241   5.378 -0.7590  0.6293  0.5125
10116SOL     OW31246   2.120   6.869   6.125  0.4866 -0.1153 -0.0754
10116SOL    HW131247   2.042   6.824   6.168  0.3466  0.8524  0.7187
10116SOL    HW231248   2.205   6.826   6.157  0.3377 -0.1906  0.2219
10117SOL     OW31249   4.291   4.617   3.861 -0.2620 -0.3788 -0.3570
10117SOL    HW131250   4.315   4.577   3.949  1.1177 -0.0680 -0.5682
10117SOL    HW231251   4.209   4.672   3.870 -0.8479 -1.3495  0.4554
10118SOL     OW31252   0.598   1.122   3.429  0.4136  0.5370 -0.1778
10118SOL    HW131253   0.625   1.193   3.364 -2.2936  1.2777 -0.6123
10118SOL    HW231254   0.564   1.165   3.513  0.5274 -0.3211  0.3268
10119SOL     OW31255   5.142   4.618   4.478 -0.4612 -0.0810  0.6639
10119SOL    HW131256   5.089   4.598   4.561  0.7891 -0.2077  1.4551
10119SOL    HW231257   5.080   4.619   4.399 -1.4843 -1.2816  1.3985
10120SOL     OW31258   5.645   6.187   0.461 -0.6916 -0.3265 -0.7239
10120SOL    HW131259   5.712   6.113   0.468 -1.3608 -0.8556  0.2883
10120SOL    HW231260   5.553   6.148   0.450 -0.7373  0.3987 -3.4047
10121SOL     OW31261   5.104   4.573   2.102  0.5670  1.1526  0.3974
10121SOL    HW131262   5.184   4.534   2.057  1.1977  1.4423  1.2593
10121SOL    HW231263   5.083   4.521   2.185 -1.1188  0.0720 -0.6217
10122SOL     OW31264   4.772   2.479   2.249  0.0981  0.6048  0.3125
10122SOL    HW131265   4.847   2.440   2.195 -1.8864 -1.6622 -1.0198
10122SOL    HW231266   4.701   2.513   2.187  0.8561  4.9108  1.4636
10123SOL     OW31267   4.797   2.155   6.566  0.5977 -0.3808 -0.4488
10123SOL    HW131268   4.737   2.225   6.604  0.1484 -0.8091 -0.3469
10123SOL    HW231269   4.884   2.195   6.540  0.7347  0.0155  0.5867
10124SOL     OW31270   5.740   2.250   5.811 -0.0082  0.0112  0.0244
10124SOL    HW131271   5.689   2.309   5.748 -0.0640 -1.1910 -1.0929
10124SOL    HW231272   5.834   2.242   5.780  0.2525  0.2723  0.7255
10125SOL     OW31273   6.190   1.196   6.291 -0.1572 -0.2078 -0.4064
10125SOL    HW131274   6.234   1.186   6.201  0.2484 -1.4183 -0.0859
10125SOL    HW231275   6.259   1.220   6.359 -0.5755  1.4600 -0.5162
10126SOL     OW31276   4.108   1.349   5.852 -0.1298  0.2317 -0.2548
10126SOL    HW131277   4.093   1.258   5.811  1.4947  0.0947 -0.6018
10126SOL    HW231278   4.024   1.403   5.844 -0.4529 -0.4609 -2.0663
10127SOL     OW31279   1.017   3.081   2.799  0.5638  0.6480 -0.1243
10127SOL    HW131280   0.938   3.064   2.740  0.2280 -0.8314  0.6730
10127SOL    HW231281   0.988   3.135   2.878  0.8976  2.1715 -1.0232
10128SOL     OW31282   6.227   4.917   5.379 -0.5524  0.3378  0.1286
10128SOL    HW131283   6.185   4.853   5.443 -1.3735  0.0415 -0.6884
10128SOL    HW231284   6.155   4.968   5.331  0.0476  0.4692 -0.6448
10129SOL     OW31285   4.489   4.839   6.400  0.0569 -0.3146  0.0668
10129SOL    HW131286   4.528   4.913   6.345 -0.2825  0.7679  1.2333
10129SOL    HW231287   4.394   4.825   6.374  0.2884 -0.7448 -0.5581
10130SOL     OW31288   2.233   2.477   3.639  0.7522  0.0688  0.2182
10130SOL    HW131289   2.169   2.427   3.580  0.3733  0.2310  0.4853
10130SOL    HW231290   2.186   2.556   3.678  0.6731 -0.6331  1.5935
10131SOL     OW31291   2.644   6.954   2.017  0.4058 -0.1646  0.0084
10131SOL    HW131292   2.579   6.983   1.947  0.2709 -0.2303  0.1049
10131SOL    HW231293   2.597   6.951   2.106  0.5525 -0.1695  0.0849
10132SOL     OW31294   1.028   5.991   5.095 -0.5674  0.4827  0.2703
10132SOL    HW131295   1.014   6.040   5.009 -2.8395 -3.5908 -2.0513
10132SOL    HW231296   0.942   5.988   5.146 -0.4225 -0.7106  0.4805
10133SOL     OW31297   4.031   5.135   4.220  0.2126 -0.3047  0.5059
10133SOL    HW131298   4.094   5.066   4.184  0.5656 -0.4032  1.2909
10133SOL    HW231299   4.019   5.121   4.319  1.7286  1.8593  1.0538
10134SOL     OW31300   0.046   5.717   1.174 -0.3168 -0.2497  0.2192
10134SOL    HW131301   0.067   5.716   1.076  1.2581  1.4261  0.4851
10134SOL    HW231302  -0.021   5.646   1.194 -1.6075  0.1439 -2.2620
10135SOL     OW31303   4.314   0.145   4.999  0.5141 -0.4075 -0.0876
10135SOL    HW131304   4.406   0.135   4.963  0.6523 -0.0381  0.1606
10135SOL    HW231305   4.288   0.061   5.047  0.9884 -0.2502  0.4525
10136SOL     OW31306   0.169   3.207   1.687 -0.6475  0.5199  0.3967
10136SOL    HW131307   0.188   3.290   1.635  2.7412 -0.6415 -0.5412
10136SOL    HW231308   0.233   3.135   1.658 -2.4118 -1.9525  2.2434
10137SOL     OW31309   0.904   2.959   1.504 -0.3184 -0.0333 -0.6545
10137SOL    HW131310   0.934   3.012   1.583  1.7602  0.3522 -1.6307
10137SOL    HW231311   0.840   3.013   1.449  0.9956  1.1398 -1.0990
10138SOL     OW31312   1.950   3.680   5.941  0.6465 -0.1990 -0.3020
10138SOL    HW131313   1.930   3.737   5.861  1.5687  1.1086  0.3625
10138SOL    HW231314   1.943   3.736   6.023  0.8582 -1.2476  0.4419
10139SOL     OW31315   3.741   4.900   1.768  0.0012 -0.0028 -0.6694
10139SOL    HW131316   3.754   4.935   1.675  0.2237  1.8968  0.0222
10139SOL    HW231317   3.808   4.828   1.786  0.1236 -0.2147 -1.8916
10140SOL     OW31318   6.967   1.457   6.254 -0.0894  0.3455  0.3042
10140SOL    HW131319   6.913   1.541   6.253  0.0525  0.4427 -1.4916
10140SOL    HW231320   7.027   1.457   6.334  0.1108  2.0802  0.1929
10141SOL     OW31321   0.383   5.673   4.926  0.1639 -0.1668 -0.5102
10141SOL    HW131322   0.350   5.715   4.841  0.9822 -1.8662 -1.7117
10141SOL    HW231323   0.445   5.736   4.973 -1.5423  1.4345 -0.3072
10142SOL     OW31324   6.978   2.346   5.095  0.1627 -0.4028 -0.6865
10142SOL    HW131325   6.981   2.359   4.996 -0.8687 -0.5422 -0.7458
10142SOL    HW231326   7.059   2.388   5.137  0.3285  0.1354 -1.5284
10143SOL     OW31327   3.383   5.998   0.737  0.1831 -0.0918 -0.3916
10143SOL    HW131328   3.417   5.910   0.701  0.5012 -0.1038 -0.0683
10143SOL    HW231329   3.284   6.000   0.729  0.1419 -0.6265 -0.0876
10144SOL     OW31330   1.100   1.876   6.268  0.0150  0.5597  0.0675
10144SOL    HW131331   1.133   1.908   6.179 -1.4387  0.6712 -0.4565
10144SOL    HW231332   1.019   1.820   6.255 -0.3157  0.7138  1.3455
10145SOL     OW31333   0.405   1.920   5.627  0.0104  0.5457  0.3649
10145SOL    HW131334   0.365   1.879   5.709 -0.0668  0.0194  0.0623
10145SOL    HW231335   0.409   1.853   5.553  1.8609  0.4351  0.5086
10146SOL     OW31336   3.797   1.702   3.340 -0.1462  0.0839  0.6934
10146SOL    HW131337   3.842   1.702   3.251 -1.3483 -0.3959  0.0605
10146SOL    HW231338   3.865   1.696   3.412  0.8300  0.1416 -0.2004
10147SOL     OW31339   5.609   4.178   6.055 -0.2725 -0.3527 -0.6373
10147SOL    HW131340   5.520   4.132   6.043 -0.2424 -0.4895 -0.3392
10147SOL    HW231341   5.664   4.127   6.121  0.1695 -0.4712 -1.0908
10148SOL     OW31342   2.833   5.314   3.019  0.1302 -0.1338  0.5371
10148SOL    HW131343   2.917   5.263   2.996 -0.4884 -0.5249 -0.9600
10148SOL    HW231344   2.839   5.406   2.982 -0.6300 -0.5830 -0.7751
10149SOL     OW31345   3.153   0.002   0.312 -0.4341 -0.2656 -0.1830
10149SOL    HW131346   3.219   0.042   0.376  0.3419 -2.3345  0.4008
10149SOL    HW231347   3.146   0.060   0.231  2.3890 -0.0834 -0.4121
10150SOL     OW31348   6.706   6.121   5.733  0.2920 -0.3559  0.0926
10150SOL    HW131349   6.771   6.153   5.802  0.1728 -1.1479  0.5828
10150SOL    HW231350   6.749   6.049   5.678  0.5217  0.5431 -0.9253
10151SOL     OW31351   4.911   3.869   6.636  0.0044  0.3910 -0.6163
10151SOL    HW131352   4.902   3.875   6.536 -2.3572  1.8408 -0.3826
10151SOL    HW231353   4.877   3.781   6.667 -1.4080  0.8002 -0.9343
10152SOL     OW31354   3.991   4.938   0.872  0.2227  0.2166 -0.1704
10152SOL    HW131355   4.054   4.903   0.940 -0.8331 -2.9129 -0.6553
10152SOL    HW231356   3.898   4.910   0.895 -0.4966  1.3130 -1.5666
10153SOL     OW31357   6.414   4.560   3.024 -0.4796 -0.4370  0.0145
10153SOL    HW131358   6.498   4.543   3.076 -0.0122 -1.4412 -1.0331
10153SOL    HW231359   6.352   4.482   3.035 -0.3239 -0.7181 -1.0067
10154SOL     OW31360   3.149   1.024   1.409 -1.1261 -0.1987  0.1312
10154SOL    HW131361   3.104   0.935   1.408  1.8932 -1.8507  0.0886
10154SOL    HW231362   3.197   1.038   1.322 -0.6687  0.9796  0.5606
10155SOL     OW31363   6.555   5.000   6.470  0.0486 -0.4765 -0.1604
10155SOL    HW131364   6.603   5.021   6.556 -2.0403 -0.9302  1.1936
10155SOL    HW231365   6.495   4.922   6.484 -1.8086  0.6414 -1.4597
10156SOL     OW31366   2.755   1.748   2.714 -0.2602  0.1097  0.4212
10156SOL    HW131367   2.671   1.745   2.768  0.0644 -2.1264  0.9118
10156SOL    HW231368   2.804   1.661   2.724  1.5361  0.9244 -0.7803
10157SOL     OW31369   2.289   0.698   5.104  0.3399  0.2275 -0.1922
10157SOL    HW131370   2.335   0.639   5.170  0.3785  1.6746  1.1205
10157SOL    HW231371   2.303   0.662   5.012  2.4118 -0.4900  0.3433
10158SOL     OW31372   1.316   1.366   6.438 -0.4302 -0.2328 -0.5462
10158SOL    HW131373   1.221   1.359   6.466 -0.6973  0.6102 -1.2156
10158SOL    HW231374   1.328   1.445   6.378  0.7234 -0.2253 -0.3342
10159SOL     OW31375   3.943   3.815   3.714 -0.5327  0.0226  0.1220
10159SOL    HW131376   4.010   3.775   3.776  0.0251  1.3524  0.4275
10159SOL    HW231377   3.851   3.793   3.745 -0.2474 -0.3402  0.7280
10160SOL     OW31378   1.851   5.613   2.228  0.5266  0.4869 -0.2937
10160SOL    HW131379   1.889   5.684   2.169  0.4599  0.6014 -0.2001
10160SOL    HW231380   1.836   5.530   2.175  1.2124  0.3353 -0.2611
10161SOL     OW31381   4.114   4.080   1.396  0.0210  0.0132 -0.0425
10161SOL    HW131382   4.149   4.086   1.490 -1.4423  2.0928  0.4372
10161SOL    HW231383   4.189   4.094   1.331  0.6101  1.2686  0.8721
10162SOL     OW31384   6.129   5.174   5.141  0.0879 -0.2224  0.4005
10162SOL    HW131385   6.076   5.226   5.074 -1.4310 -0.0663  1.6821
10162SOL    HW231386   6.076   5.095   5.171  0.5595 -0.0668  1.7130
10163SOL     OW31387   1.895   4.134   2.293 -0.1101 -0.5565  0.5866
10163SOL    HW131388   1.926   4.044   2.263 -1.7099 -0.4012 -1.8398
10163SOL    HW231389   1.973   4.197   2.296  0.5736 -1.2898 -0.7764
10164SOL     OW31390   0.970   6.104   3.896 -0.0445 -0.0568 -0.2643
10164SOL    HW131391   0.887   6.132   3.848  0.4560 -1.2829 -1.9649
10164SOL    HW231392   1.048   6.153   3.857  0.3194 -0.7485 -0.4146
10165SOL     OW31393   5.595   3.896   6.760  0.2345 -0.1644 -0.0334
10165SOL    HW131394   5.647   3.919   6.678 -1.4068  2.0245 -0.5529
10165SOL    HW231395   5.530   3.823   6.738 -0.2008  0.4113 -0.7225
10166SOL     OW31396   2.606   3.940   5.649 -0.0011  0.2180 -0.0895
10166SOL    HW131397   2.664   4.020   5.639 -0.8995  1.0446  1.1015
10166SOL    HW231398   2.529   3.946   5.585  0.4484 -0.2003 -0.6884
10167SOL     OW31399   2.150   0.488   4.754  0.4209  0.4852  0.0501
10167SOL    HW131400   2.219   0.559   4.764  1.2206 -0.3145  0.2525
10167SOL    HW231401   2.188   0.399   4.780 -0.9329  0.1584  1.0313
10168SOL     OW31402   5.529   6.966   1.348  0.1137 -0.5803 -0.1296
10168SOL    HW131403   5.572   6.877   1.337 -0.2097 -0.7493 -0.0499
10168SOL    HW231404   5.430   6.957   1.333 -0.0086 -0.3557  0.5084
10169SOL     OW31405   3.933   5.055   3.799  0.3129  0.8578  0.3610
10169SOL    HW131406   3.892   4.979   3.850  0.4462  0.5713  0.0498
10169SOL    HW231407   3.894   5.141   3.831  1.1149  0.7700  1.6306
10170SOL     OW31408   0.695   5.175   5.138  0.2470 -0.2188  0.2331
10170SOL    HW131409   0.648   5.094   5.104 -0.0061  0.1550 -0.3302
10170SOL    HW231410   0.631   5.253   5.139  0.7809  0.2355 -0.3078
10171SOL     OW31411   0.477   2.730   3.652 -0.0761 -0.0574 -0.1670
10171SOL    HW131412   0.524   2.644   3.671 -1.3329 -0.4803  1.2082
10171SOL    HW231413   0.488   2.792   3.730  0.5954  0.9569 -1.0342
10172SOL     OW31414   2.517   0.644   4.577 -0.2606  0.1838  0.5603
10172SOL    HW131415   2.608   0.611   4.601 -0.8336 -1.8040  0.1518
10172SOL    HW231416   2.506   0.641   4.477 -0.6212  0.8915  0.5692
10173SOL     OW31417   3.303   4.412   1.242 -0.1687 -0.3580 -0.1211
10173SOL    HW131418   3.377   4.400   1.309  0.6993  0.7366 -0.8443
10173SOL    HW231419   3.226   4.354   1.267  0.6229 -0.9244  1.1124
10174SOL     OW31420   2.583   4.825   4.283 -0.3960  0.2502  0.4402
10174SOL    HW131421   2.642   4.906   4.284 -0.1151  0.0435  0.9948
10174SOL    HW231422   2.489   4.853   4.303 -0.6520  0.6903 -1.2603
10175SOL     OW31423   3.798   6.769   6.751 -0.1615  0.1314 -0.1558
10175SOL    HW131424   3.722   6.708   6.771 -1.3756  1.6338  0.0461
10175SOL    HW231425   3.850   6.786   6.835 -1.7616  1.8452  0.5665
10176SOL     OW31426   3.368   3.282   3.346  0.4879 -0.3470  0.1327
10176SOL    HW131427   3.428   3.278   3.426 -0.6752 -1.3992  0.9799
10176SOL    HW231428   3.316   3.367   3.348  0.9499 -0.0589  0.1211
10177SOL     OW31429   3.955   5.777   6.941  0.1102  0.0950 -0.1852
10177SOL    HW131430   3.980   5.874   6.930  0.5020  0.0273  0.1204
10177SOL    HW231431   4.036   5.720   6.931 -0.1554 -0.2212 -0.5640
10178SOL     OW31432   2.557   1.934   0.508 -0.2907 -0.3871  0.0476
10178SOL    HW131433   2.517   2.010   0.559  1.1692  0.7486 -0.4335
10178SOL    HW231434   2.484   1.873   0.476 -1.5985  1.3455 -0.4082
10179SOL     OW31435   4.789   5.726   6.007 -0.1107  0.1379  0.5552
10179SOL    HW131436   4.742   5.690   6.088 -1.7428 -0.5394 -0.6210
10179SOL    HW231437   4.822   5.650   5.951 -2.9613  0.3086 -1.5977
10180SOL     OW31438   6.318   1.025   6.788 -0.3110  0.4828 -0.4731
10180SOL    HW131439   6.306   0.927   6.771 -1.8897  0.4977  0.3022
10180SOL    HW231440   6.411   1.052   6.766  0.2506 -1.2638 -0.3818
10181SOL     OW31441   2.142   3.090   4.950  0.2170  0.1288 -0.2186
10181SOL    HW131442   2.056   3.094   5.000  0.3188  3.3464 -0.0730
10181SOL    HW231443   2.212   3.049   5.007 -0.7479 -0.7190  0.3987
10182SOL     OW31444   6.078   4.153   0.440  0.3264  0.0593  0.0365
10182SOL    HW131445   6.080   4.157   0.340  0.4263 -1.6830 -0.0546
10182SOL    HW231446   6.167   4.182   0.476  0.4118  0.3331 -0.3855
10183SOL     OW31447   2.684   2.010   4.487  0.5899 -0.0146  0.2359
10183SOL    HW131448   2.770   1.959   4.476  0.2950 -0.6482  0.7763
10183SOL    HW231449   2.702   2.095   4.537  1.2177  0.8260 -1.3511
10184SOL     OW31450   2.387   6.251   3.891  0.2729 -0.1613  0.1041
10184SOL    HW131451   2.361   6.348   3.895  0.0921 -0.2221  0.4477
10184SOL    HW231452   2.435   6.227   3.976  0.1086 -0.4305  0.1212
10185SOL     OW31453   1.450   1.107   1.078 -0.2613  0.4606 -0.0326
10185SOL    HW131454   1.456   1.152   1.167 -1.2756  1.2582 -0.3381
10185SOL    HW231455   1.473   1.010   1.087  1.8144  0.9660  0.6802
10186SOL     OW31456   4.678   5.815   3.026  0.0077 -0.0861 -0.6219
10186SOL    HW131457   4.615   5.759   2.971  1.0663 -0.6705 -1.2683
10186SOL    HW231458   4.677   5.782   3.121 -0.0867 -0.5928 -0.7960
10187SOL     OW31459   5.829   5.793   0.764 -0.2735 -0.1855  0.8940
10187SOL    HW131460   5.730   5.804   0.757 -0.0513  1.0031 -0.8446
10187SOL    HW231461   5.859   5.722   0.701  0.2151  1.0057 -0.2438
10188SOL     OW31462   1.507   6.355   6.280  0.3359  0.1564  0.6900
10188SOL    HW131463   1.476   6.334   6.373 -1.1783 -1.7945 -0.1768
10188SOL    HW231464   1.604   6.331   6.271  0.0415 -1.3608  1.3022
10189SOL     OW31465   1.252   3.738   2.170 -0.7382 -0.5289 -0.2152
10189SOL    HW131466   1.255   3.803   2.246 -0.5476 -0.6818 -0.0915
10189SOL    HW231467   1.345   3.707   2.149 -0.9439 -1.7327  0.5632
10190SOL     OW31468   3.325   0.179   5.785  0.0276  0.0768 -0.6674
10190SOL    HW131469   3.394   0.248   5.767  1.6466 -1.3619 -0.2225
10190SOL    HW231470   3.273   0.203   5.867  0.8617  0.5353 -0.2655
10191SOL     OW31471   5.327   4.086   1.262 -0.0675  0.6973 -0.0297
10191SOL    HW131472   5.256   4.153   1.242 -2.7349 -1.4637  1.4402
10191SOL    HW231473   5.382   4.118   1.339 -0.9377  1.4560  0.2957
10192SOL     OW31474   5.072   0.159   5.212  0.2543 -0.0918 -0.3049
10192SOL    HW131475   4.984   0.148   5.259  0.1328 -0.0364 -0.5146
10192SOL    HW231476   5.070   0.107   5.126  0.9864 -1.3440  0.4219
10193SOL     OW31477   4.183   0.663   5.729 -0.4580 -0.3096 -0.0183
10193SOL    HW131478   4.163   0.572   5.767  0.3734 -1.6713 -2.5491
10193SOL    HW231479   4.114   0.685   5.660  0.6052 -0.0725 -1.0265
10194SOL     OW31480   6.305   6.640   5.221 -0.3190  0.0557 -0.1206
10194SOL    HW131481   6.282   6.697   5.142  2.6596  1.8963  0.1642
10194SOL    HW231482   6.297   6.544   5.196  0.7984  0.5685 -2.8046
10195SOL     OW31483   3.951   1.929   3.022 -0.2036  0.6120  0.0785
10195SOL    HW131484   3.967   1.840   3.064 -1.6220  0.3735  0.1557
10195SOL    HW231485   4.030   1.954   2.966  0.6672 -0.1871  0.9042
10196SOL     OW31486   1.831   1.413   6.637  0.0422 -1.0785 -0.1664
10196SOL    HW131487   1.898   1.348   6.673 -1.1512 -1.3069  1.7808
10196SOL    HW231488   1.754   1.364   6.597 -0.8150 -0.8985  1.2133
10197SOL     OW31489   6.803   2.773   3.241  0.1351  0.9701 -0.0766
10197SOL    HW131490   6.748   2.833   3.182 -1.7464 -0.3987  0.2072
10197SOL    HW231491   6.778   2.788   3.336  0.4395  0.5048  0.0766
10198SOL     OW31492   5.816   6.825   0.306  0.5369  0.3669  0.1585
10198SOL    HW131493   5.800   6.851   0.210  0.2823 -1.5660 -0.3644
10198SOL    HW231494   5.914   6.814   0.321  0.4843 -1.5307 -0.5593
10199SOL     OW31495   6.475   4.930   4.518  0.3343  0.0685  0.1179
10199SOL    HW131496   6.417   5.005   4.486 -1.5736 -0.8688  1.1747
10199SOL    HW231497   6.487   4.864   4.444  1.3701  0.9976 -0.5757
10200SOL     OW31498   1.898   5.289   2.808  0.1799  0.1091  0.0621
10200SOL    HW131499   1.889   5.384   2.838  0.5134  0.4852 -0.9893
10200SOL    HW231500   1.809   5.244   2.811  0.1944  0.1361  1.5553
10201SOL     OW31501   3.942   6.490   2.527  0.1475 -0.0309  0.0107
10201SOL    HW131502   3.949   6.550   2.606  2.0884  0.3224 -0.3742
10201SOL    HW231503   3.875   6.418   2.546 -2.3157  2.2255  0.4448
10202SOL     OW31504   4.617   2.447   0.119  0.0198 -0.0310  0.2131
10202SOL    HW131505   4.606   2.545   0.103 -0.9960  0.2891  2.4548
10202SOL    HW231506   4.534   2.399   0.090 -0.6649  0.1879  1.7050
10203SOL     OW31507   2.205   5.905   3.502 -0.7848  0.3477  0.1378
10203SOL    HW131508   2.250   5.820   3.528 -0.4213  0.3331 -0.5130
10203SOL    HW231509   2.259   5.983   3.535 -2.0735  0.3762  2.4017
10204SOL     OW31510   6.653   4.271   4.199 -0.7951 -0.1493 -0.6366
10204SOL    HW131511   6.697   4.310   4.279 -0.3661 -0.7458 -0.5706
10204SOL    HW231512   6.573   4.326   4.174 -0.1442  0.8196 -0.6259
10205SOL     OW31513   1.918   4.982   2.723 -0.5162  0.3231 -0.0234
10205SOL    HW131514   1.908   5.072   2.682  0.8834 -0.2498 -1.7392
10205SOL    HW231515   1.879   4.912   2.662 -0.4880 -0.3551  0.7122
10206SOL     OW31516   6.756   2.762   0.269 -1.1202 -0.6394  0.0905
10206SOL    HW131517   6.813   2.802   0.340  0.0035 -2.2326  0.1317
10206SOL    HW231518   6.719   2.835   0.211  0.5959  0.4823  0.3305
10207SOL     OW31519   6.754   4.919   2.138 -0.0091 -0.3677 -0.5088
10207SOL    HW131520   6.840   4.971   2.136  0.9677 -1.8161  1.0898
10207SOL    HW231521   6.698   4.952   2.214  1.0120 -2.1023  1.1033
10208SOL     OW31522   2.524   1.512   5.307 -0.0072 -0.0472 -0.3519
10208SOL    HW131523   2.503   1.415   5.319  0.9401 -0.2802 -0.4421
10208SOL    HW231524   2.522   1.558   5.396  1.8230 -0.6602  0.0585
10209SOL     OW31525   0.307   4.411   2.821 -0.0306  0.2575 -0.2893
10209SOL    HW131526   0.251   4.328   2.820  0.1072  0.0890  1.7893
10209SOL    HW231527   0.295   4.460   2.734 -2.5210 -0.3369 -0.3777
10210SOL     OW31528   1.962   1.682   6.359  0.2599  0.0012  0.0417
10210SOL    HW131529   1.874   1.699   6.404  0.2226 -1.9310  0.7873
10210SOL    HW231530   1.991   1.764   6.310 -1.2039  1.1691  1.0567
10211SOL     OW31531   4.407   0.379   5.078  0.4632 -0.5588  0.3467
10211SOL    HW131532   4.354   0.452   5.034  0.9510  1.6319  3.1466
10211SOL    HW231533   4.354   0.294   5.077 -1.4637  0.5935 -0.2763
10212SOL     OW31534   6.116   6.302   0.534 -0.9138  0.2118 -0.0048
10212SOL    HW131535   6.176   6.227   0.561  0.1369 -0.0703 -2.8542
10212SOL    HW231536   6.021   6.275   0.551 -0.5930 -2.0054 -1.4013
10213SOL     OW31537   5.830   4.426   3.245 -0.0948 -0.4513  0.2134
10213SOL    HW131538   5.841   4.438   3.343  1.6075 -0.1982  0.0212
10213SOL    HW231539   5.795   4.334   3.227 -0.0521 -0.6372  1.0361
10214SOL     OW31540   4.638   2.101   1.627 -0.1521  0.3730 -0.1996
10214SOL    HW131541   4.648   2.013   1.674 -1.6410  0.3756  0.1633
10214SOL    HW231542   4.601   2.169   1.691  1.1141  1.3259 -0.4330
10215SOL     OW31543   1.390   4.610   1.188  0.6381 -0.8901 -0.1908
10215SOL    HW131544   1.479   4.648   1.163  0.9104 -0.8824  0.7593
10215SOL    HW231545   1.327   4.685   1.211  0.4509 -0.9104 -0.6124
10216SOL     OW31546   0.586   3.050   4.314 -0.2195  1.0237  0.0911
10216SOL    HW131547   0.524   3.049   4.392 -1.5054  0.2411 -0.9046
10216SOL    HW231548   0.586   2.961   4.269  2.3050  0.7071  0.5250
10217SOL     OW31549   6.775   0.929   1.630 -0.0699 -0.0893  0.3120
10217SOL    HW131550   6.787   0.964   1.537  1.0978 -1.0770  0.0608
10217SOL    HW231551   6.684   0.890   1.641  0.3052 -1.3627 -0.9095
10218SOL     OW31552   2.922   4.573   0.323  0.1436 -0.6564  0.6922
10218SOL    HW131553   2.876   4.485   0.306 -0.8880 -0.0222  0.1152
10218SOL    HW231554   2.855   4.647   0.316  1.3988  0.3766 -0.9252
10219SOL     OW31555   0.492   2.277   1.499 -0.5636  0.5831  0.0472
10219SOL    HW131556   0.527   2.345   1.435  0.4264 -0.2183 -0.2830
10219SOL    HW231557   0.549   2.275   1.581 -0.5380  0.0988  0.0226
10220SOL     OW31558   3.348   1.443   2.185 -0.1114  1.3764 -0.9283
10220SOL    HW131559   3.304   1.492   2.110  1.3798  2.9414 -0.8435
10220SOL    HW231560   3.445   1.467   2.188  0.3622 -0.4523  0.0853
10221SOL     OW31561   5.269   0.155   0.548 -0.0494 -0.1654 -0.0057
10221SOL    HW131562   5.295   0.080   0.609 -1.4685 -0.5240  0.1890
10221SOL    HW231563   5.204   0.122   0.480 -0.6662  0.8666  0.0586
10222SOL     OW31564   1.385   3.131   4.829  0.4150 -0.4838 -0.0004
10222SOL    HW131565   1.316   3.062   4.806  0.5332  0.0140 -2.0400
10222SOL    HW231566   1.448   3.094   4.897  0.7247 -2.5727 -1.3468
10223SOL     OW31567   4.128   3.382   6.245 -0.3412  0.6606 -0.2217
10223SOL    HW131568   4.156   3.426   6.159  0.1801  0.1404 -0.3297
10223SOL    HW231569   4.029   3.388   6.255 -0.2926  1.7297 -0.2977
10224SOL     OW31570   4.037   3.448   1.503 -0.4097 -0.3440  0.5934
10224SOL    HW131571   4.034   3.388   1.582 -0.9355  1.0484  1.6608
10224SOL    HW231572   4.032   3.544   1.532 -1.2558  0.1952 -1.1454
10225SOL     OW31573   6.919   4.153   6.382 -0.4477  0.1376  0.1748
10225SOL    HW131574   6.865   4.173   6.300  1.0480  1.5215 -0.5112
10225SOL    HW231575   6.922   4.234   6.440  1.3948  0.3067 -0.1089
10226SOL     OW31576   2.622   2.370   5.057 -0.2392  0.5854  0.2902
10226SOL    HW131577   2.570   2.438   5.005  1.2065  0.2591 -1.6588
10226SOL    HW231578   2.710   2.353   5.013 -0.2937 -2.1437  1.0454
10227SOL     OW31579   5.165   1.165   5.934 -0.5874 -0.3584 -0.1650
10227SOL    HW131580   5.142   1.078   5.977  2.3639 -1.9799 -1.5281
10227SOL    HW231581   5.204   1.148   5.843  1.6963  2.2175  0.1741
10228SOL     OW31582   5.954   6.213   3.411  1.3867 -0.2341 -0.0387
10228SOL    HW131583   5.985   6.121   3.437  0.9223 -0.1449  0.8896
10228SOL    HW231584   5.976   6.230   3.315  1.2859 -1.4014 -0.2824
10229SOL     OW31585   1.313   2.973   1.440 -0.7260 -0.2960  0.1449
10229SOL    HW131586   1.267   2.905   1.497  0.6978 -1.7149 -0.3282
10229SOL    HW231587   1.322   2.938   1.347  0.1736  0.4609 -0.0708
10230SOL     OW31588   4.739   1.537   2.040  0.0139 -0.2918 -0.1173
10230SOL    HW131589   4.775   1.553   1.948 -0.2469  0.7177 -0.0554
10230SOL    HW231590   4.784   1.458   2.081  0.0414 -0.8291 -1.1605
10231SOL     OW31591   1.861   5.263   0.444 -0.2041 -0.2325 -0.1302
10231SOL    HW131592   1.770   5.304   0.458  0.6513  2.3352 -1.5165
10231SOL    HW231593   1.852   5.182   0.386 -1.6224 -0.0820 -0.1588
10232SOL     OW31594   5.815   1.790   3.330  0.5165 -1.1300 -0.3399
10232SOL    HW131595   5.894   1.730   3.336  1.9996  0.6513 -1.1198
10232SOL    HW231596   5.844   1.885   3.343 -1.5822 -0.4557 -0.1764
10233SOL     OW31597   0.720   0.937   2.900  0.2677 -0.3354  0.2778
10233SOL    HW131598   0.644   0.987   2.860 -0.6463 -1.7356  0.2138
10233SOL    HW231599   0.769   0.997   2.963 -1.8065  0.1801  1.5000
10234SOL     OW31600   5.158   3.129   0.904  0.7647 -0.2889 -0.1675
10234SOL    HW131601   5.223   3.063   0.865  0.7444 -1.0897  1.0906
10234SOL    HW231602   5.122   3.093   0.991 -0.1940  0.8356 -0.0754
10235SOL     OW31603   4.027   4.864   0.315 -0.6586 -0.0973  0.8824
10235SOL    HW131604   3.941   4.856   0.265 -0.0532  1.3510 -0.4864
10235SOL    HW231605   4.009   4.896   0.408 -1.5931  0.8336  0.4068
10236SOL     OW31606   6.803   5.425   6.517 -0.0977  0.5700  0.3664
10236SOL    HW131607   6.771   5.357   6.451  0.1457 -0.7280  1.5272
10236SOL    HW231608   6.777   5.516   6.487 -1.7890 -0.1541 -0.4709
10237SOL     OW31609   4.196   0.704   0.021  0.2154  0.7672 -0.4253
10237SOL    HW131610   4.115   0.663  -0.021  0.5577 -0.6913  0.2699
10237SOL    HW231611   4.239   0.767  -0.044 -0.1698 -0.1893 -1.6426
10238SOL     OW31612   1.443   3.777   4.820 -0.3598  0.0626 -0.2174
10238SOL    HW131613   1.491   3.725   4.748  0.3105  1.4352 -0.7988
10238SOL    HW231614   1.358   3.813   4.783  0.2810  1.2946 -0.5550
10239SOL     OW31615   0.456   2.684   5.769  0.6473 -0.0448 -0.0335
10239SOL    HW131616   0.511   2.674   5.853  0.7077  3.2394  0.4258
10239SOL    HW231617   0.368   2.638   5.782  0.9133 -0.1866  1.5832
10240SOL     OW31618   0.177   0.192   2.796  0.4848  0.1255  0.2640
10240SOL    HW131619   0.123   0.259   2.745 -0.5293 -0.1429  0.9591
10240SOL    HW231620   0.222   0.238   2.873 -0.7567 -0.0956  1.1429
10241SOL     OW31621   2.274   1.013   1.892  0.0879  0.0013 -0.2902
10241SOL    HW131622   2.374   1.021   1.881 -0.0204 -0.0198 -1.3697
10241SOL    HW231623   2.230   1.093   1.851 -0.3409  0.0774  0.3066
10242SOL     OW31624   0.932   1.142   5.993  0.4596  0.4975 -0.0875
10242SOL    HW131625   0.969   1.195   5.916  3.1586 -0.5071  0.4296
10242SOL    HW231626   0.980   1.167   6.077 -1.1119  0.1766  0.9541
10243SOL     OW31627   0.289   4.524   2.571  0.4698  0.1194 -0.1077
10243SOL    HW131628   0.236   4.584   2.630  0.8005  0.7858 -0.4744
10243SOL    HW231629   0.323   4.576   2.492  2.2598 -0.0924  0.4721
10244SOL     OW31630   3.154   5.299   1.599  0.2399 -0.0302 -0.0474
10244SOL    HW131631   3.064   5.341   1.604 -0.6033 -1.7502 -0.0854
10244SOL    HW231632   3.156   5.217   1.657  1.7996  0.0220  0.0131
10245SOL     OW31633   3.434   1.742   6.281 -0.0301  0.2904  0.2961
10245SOL    HW131634   3.519   1.769   6.236 -0.3901  0.5773 -0.2252
10245SOL    HW231635   3.357   1.759   6.219 -0.5588  0.9199  1.1046
10246SOL     OW31636   4.283   4.008   5.304 -0.1022  0.0706  0.3717
10246SOL    HW131637   4.246   4.101   5.314  0.6268  0.3958  0.1478
10246SOL    HW231638   4.208   3.943   5.291 -0.9413  0.1256  3.8660
10247SOL     OW31639   4.047   6.719   2.373  1.3675 -0.2748 -0.1125
10247SOL    HW131640   4.039   6.660   2.453  0.3346  0.2324  0.1755
10247SOL    HW231641   3.996   6.804   2.389  1.3912 -0.0438 -1.1907
10248SOL     OW31642   1.130   3.226   0.907  0.2040 -0.3507 -0.1098
10248SOL    HW131643   1.133   3.314   0.955 -2.7257 -0.2418  0.0293
10248SOL    HW231644   1.224   3.192   0.894  1.3122  1.8182  1.5572
10249SOL     OW31645   0.653   2.519   5.126 -0.2772  0.7428 -0.0141
10249SOL    HW131646   0.725   2.476   5.071 -2.2625 -1.1271 -1.3655
10249SOL    HW231647   0.685   2.606   5.162  2.3166  0.4124 -1.3019
10250SOL     OW31648   3.552   3.068   2.518  0.0175 -0.0528 -0.0831
10250SOL    HW131649   3.465   3.064   2.567 -0.2641 -0.5577 -0.6189
10250SOL    HW231650   3.585   2.976   2.499 -0.0428  0.1219 -1.1202
10251SOL     OW31651   4.177   2.015   2.874  0.6121  0.1998 -0.3003
10251SOL    HW131652   4.228   2.005   2.959  1.6997 -1.2166 -1.0774
10251SOL    HW231653   4.209   2.097   2.826  0.1902  0.8470  0.4878
10252SOL     OW31654   1.780   2.192   1.852  0.4158 -0.4977  0.4144
10252SOL    HW131655   1.690   2.189   1.896 -0.0395  0.3167 -0.4167
10252SOL    HW231656   1.850   2.206   1.922 -0.0024 -1.9152  1.1599
10253SOL     OW31657   6.358   0.192   1.665 -0.4696 -0.4764 -0.5992
10253SOL    HW131658   6.328   0.287   1.655  0.1847 -0.4449 -3.1261
10253SOL    HW231659   6.285   0.131   1.633  0.3054 -0.6182 -2.2023
10254SOL     OW31660   0.320   2.999   5.497 -0.0414 -0.1752  0.0916
10254SOL    HW131661   0.251   2.927   5.494 -0.9874  0.6648  0.9785
10254SOL    HW231662   0.281   3.082   5.537  0.9328  0.9447 -1.1546
10255SOL     OW31663   3.141   3.850   5.673  0.1910 -0.1056  0.2193
10255SOL    HW131664   3.108   3.942   5.691 -1.2529 -0.3707 -0.9454
10255SOL    HW231665   3.225   3.855   5.618  0.4176  0.5036  0.6077
10256SOL     OW31666   3.784   1.817   3.752  0.4553  0.3658  0.1553
10256SOL    HW131667   3.845   1.830   3.673 -0.4915 -0.9089 -0.8435
10256SOL    HW231668   3.690   1.829   3.723  0.0991  0.0537  1.1481
10257SOL     OW31669   1.587   3.932   1.820  0.4586  0.2275  0.4415
10257SOL    HW131670   1.644   3.950   1.900  2.4595  1.8491 -1.2067
10257SOL    HW231671   1.613   3.995   1.746  0.0500 -2.3921 -2.1279
10258SOL     OW31672   4.997   5.984   1.358 -0.5089 -0.8556  0.3212
10258SOL    HW131673   5.070   5.990   1.426 -0.5456 -2.0952  0.4814
10258SOL    HW231674   4.913   6.023   1.396  0.1867  1.1368 -0.0795
10259SOL     OW31675   1.299   2.245   6.899 -0.1147  0.3336  0.4403
10259SOL    HW131676   1.383   2.211   6.941 -0.9158 -0.1464  1.7129
10259SOL    HW231677   1.313   2.256   6.801  1.7054  1.1002  0.7421
10260SOL     OW31678   1.409   4.744   4.658 -0.3601  0.2431 -0.4480
10260SOL    HW131679   1.469   4.755   4.579 -0.9297 -0.7849 -1.0521
10260SOL    HW231680   1.435   4.808   4.729  1.8980 -0.6509 -0.4056
10261SOL     OW31681   5.005   3.368   6.471  0.2043 -0.4415 -0.8283
10261SOL    HW131682   5.090   3.319   6.452 -0.4664 -1.5151 -1.1353
10261SOL    HW231683   5.004   3.395   6.567  0.3621 -1.5204 -0.5017
10262SOL     OW31684   2.105   1.762   1.643 -0.3322 -0.2503 -0.4472
10262SOL    HW131685   2.184   1.772   1.583  0.1115  3.2116  0.5191
10262SOL    HW231686   2.062   1.851   1.659 -0.3347 -0.8141  4.4036
10263SOL     OW31687   3.821   3.880   0.318  0.4712 -0.0919 -0.2082
10263SOL    HW131688   3.801   3.808   0.251  2.2184 -0.5042 -0.3204
10263SOL    HW231689   3.810   3.969   0.275 -2.9439 -0.1575  0.2645
10264SOL     OW31690   6.932   6.099   1.286 -0.1749 -0.1578  0.2237
10264SOL    HW131691   6.969   6.191   1.274 -0.9911  0.5510  2.6817
10264SOL    HW231692   6.836   6.097   1.257 -0.2151 -0.1892  0.3590
10265SOL     OW31693   5.468   0.626   1.769 -0.4650  0.5711  0.6730
10265SOL    HW131694   5.435   0.704   1.823 -1.4816  1.1354 -0.6882
10265SOL    HW231695   5.392   0.588   1.717  0.2825 -0.5872  0.4010
10266SOL     OW31696   6.919   1.154   6.257  0.3236  0.2654  0.2010
10266SOL    HW131697   6.990   1.109   6.311  1.2591  0.5432 -0.7601
10266SOL    HW231698   6.938   1.252   6.252 -0.5224  0.4577  0.4991
10267SOL     OW31699   0.354   0.747   4.572  0.4899  0.4354  0.6053
10267SOL    HW131700   0.340   0.680   4.645  0.2263  0.1859  0.3257
10267SOL    HW231701   0.298   0.828   4.590 -1.2133 -0.4546 -0.3755
10268SOL     OW31702   6.133   5.287   0.841 -0.8416 -0.5695  0.1927
10268SOL    HW131703   6.125   5.188   0.833 -1.0574 -0.4634 -1.1938
10268SOL    HW231704   6.053   5.331   0.799 -0.7033  0.1931  0.7035
10269SOL     OW31705   5.212   3.853   5.015  0.1465  0.6784  0.1479
10269SOL    HW131706   5.239   3.894   5.102 -1.4311  2.2773 -0.0265
10269SOL    HW231707   5.198   3.755   5.026  0.8965  0.7046  1.4543
10270SOL     OW31708   1.829   3.077   1.481  0.0122 -0.6057  0.2787
10270SOL    HW131709   1.843   2.985   1.517  0.5459  0.3683  2.8515
10270SOL    HW231710   1.733   3.103   1.493  0.1605 -0.3347  0.9830
10271SOL     OW31711   4.464   0.388   2.911 -0.2007 -0.3895  0.4276
10271SOL    HW131712   4.456   0.412   3.008  1.5263 -0.6157  0.6575
10271SOL    HW231713   4.557   0.358   2.892 -0.3634  0.1683 -1.4343
10272SOL     OW31714   1.897   3.250   1.717  0.7507  0.0393 -0.1545
10272SOL    HW131715   1.946   3.221   1.635 -0.3381 -0.9892 -0.4653
10272SOL    HW231716   1.954   3.314   1.769  1.2088  1.2363 -2.0305
10273SOL     OW31717   2.289   6.573   0.762  0.4864  0.3677 -0.0094
10273SOL    HW131718   2.350   6.638   0.717  0.7280 -0.7738 -1.3715
10273SOL    HW231719   2.195   6.588   0.731  0.5195  0.1639 -0.2084
10274SOL     OW31720   5.802   3.462   6.349  0.5685  0.0839  0.2980
10274SOL    HW131721   5.843   3.538   6.299  0.7354  0.0191  0.3374
10274SOL    HW231722   5.718   3.433   6.303  0.1676  0.6996  0.6203
10275SOL     OW31723   1.502   6.158   5.612 -0.0567  0.0716  0.4757
10275SOL    HW131724   1.526   6.218   5.688  0.5783  0.8423 -0.3104
10275SOL    HW231725   1.582   6.144   5.554  0.1533 -2.5954  1.3213
10276SOL     OW31726   6.837   0.951   6.870 -0.2844 -0.5473  0.2907
10276SOL    HW131727   6.825   1.017   6.945  0.4700  0.1804 -0.2111
10276SOL    HW231728   6.931   0.955   6.837 -0.5608 -0.9964 -0.5779
10277SOL     OW31729   3.606   1.523   3.113  0.0556  0.0840  0.4442
10277SOL    HW131730   3.507   1.530   3.122  0.0826 -0.7057  1.5656
10277SOL    HW231731   3.650   1.591   3.171  0.1734  0.0503  0.3962
10278SOL     OW31732   6.319   2.732   3.993  0.2949 -0.3018 -0.0780
10278SOL    HW131733   6.235   2.787   3.995  1.3021  1.2733  1.3308
10278SOL    HW231734   6.379   2.765   3.921 -0.6115 -2.0257 -1.7073
10279SOL     OW31735   3.631   6.086   5.217  0.3744  0.1675  0.1054
10279SOL    HW131736   3.604   6.125   5.305  1.2883 -0.1060  0.5224
10279SOL    HW231737   3.591   5.995   5.207 -1.4388  1.0230 -0.6944
10280SOL     OW31738   3.681   6.404   3.474  0.4223 -0.2099 -0.1800
10280SOL    HW131739   3.602   6.465   3.472 -0.3154 -1.1002  0.5320
10280SOL    HW231740   3.718   6.400   3.567  1.3380  0.2244 -0.5176
10281SOL     OW31741   0.867   2.414   4.977 -0.0356 -0.3249 -0.2560
10281SOL    HW131742   0.845   2.355   4.900  1.3758 -1.1786 -0.0388
10281SOL    HW231743   0.905   2.501   4.943 -0.0212 -0.4383 -0.5335
10282SOL     OW31744   3.041   3.901   6.350  0.4840  0.1946 -0.1578
10282SOL    HW131745   2.983   3.899   6.432 -0.6837  2.8671 -0.8094
10282SOL    HW231746   2.985   3.921   6.270  1.8388 -0.7806 -1.4006
10283SOL     OW31747   5.933   1.761   4.289 -0.5997  0.2573 -0.5141
10283SOL    HW131748   5.963   1.819   4.213 -1.5223  0.5187 -0.6925
10283SOL    HW231749   5.973   1.795   4.374 -0.1341  0.3952 -0.7842
10284SOL     OW31750   3.033   3.697   0.513 -0.3525  0.3346  0.1918
10284SOL    HW131751   2.952   3.693   0.570 -0.6663 -0.4690 -0.2961
10284SOL    HW231752   3.010   3.670   0.420  0.9810 -2.7954  0.6360
10285SOL     OW31753   3.444   1.094   6.361 -0.5597  0.5244 -0.2587
10285SOL    HW131754   3.508   1.050   6.298 -0.5015 -0.6644  0.6027
10285SOL    HW231755   3.441   1.043   6.447 -1.8064  1.2209  0.1374
10286SOL     OW31756   5.095   6.456   3.655 -0.9725  0.2196  0.1932
10286SOL    HW131757   5.002   6.421   3.651 -1.5620  1.6869  0.4563
10286SOL    HW231758   5.147   6.421   3.576 -1.9319 -0.0897 -0.3157
10287SOL     OW31759   1.351   0.723   6.134  0.2474  0.0402 -0.0802
10287SOL    HW131760   1.443   0.741   6.101  0.4834  0.8840  0.9921
10287SOL    HW231761   1.295   0.687   6.059  1.3342 -0.1174 -0.8339
10288SOL     OW31762   0.967   6.205   4.901  0.6659  0.1171  0.4308
10288SOL    HW131763   0.912   6.133   4.860  0.0809  0.1206  1.1892
10288SOL    HW231764   1.029   6.243   4.832 -1.3814  1.2030 -0.9360
10289SOL     OW31765   0.019   1.652   0.894  0.2469  0.3063 -0.7780
10289SOL    HW131766  -0.009   1.684   0.804  0.9180  2.7918 -0.1684
10289SOL    HW231767   0.016   1.552   0.896  1.5570  0.0874 -4.0028
10290SOL     OW31768   3.474   4.160   4.697  0.1434 -0.4974  0.2332
10290SOL    HW131769   3.430   4.075   4.667 -0.0804 -0.0438 -0.7478
10290SOL    HW231770   3.418   4.202   4.769 -1.2717  0.2512 -1.2445
10291SOL     OW31771   6.543   4.876   3.234 -0.7151  0.2477  0.0395
10291SOL    HW131772   6.507   4.968   3.246 -0.8171  0.0076  1.7629
10291SOL    HW231773   6.479   4.809   3.270 -0.3715 -0.4825 -0.6464
10292SOL     OW31774   3.239   6.458   4.476 -0.2238 -0.0399  0.5437
10292SOL    HW131775   3.317   6.463   4.539  1.6576  0.4622 -1.7155
10292SOL    HW231776   3.241   6.370   4.427 -1.4403 -0.2608  0.8431
10293SOL     OW31777   5.035   4.995   5.140  0.2589 -0.7049 -0.4112
10293SOL    HW131778   5.119   4.974   5.090  0.2285 -1.9028  0.0100
10293SOL    HW231779   4.961   4.936   5.109  0.4808 -2.2080  1.7010
10294SOL     OW31780   5.187   1.902   3.736  0.1914  0.0394 -0.1272
10294SOL    HW131781   5.167   1.949   3.650 -2.5923 -0.6257  0.0493
10294SOL    HW231782   5.162   1.961   3.813  2.5540  0.5830  0.2835
10295SOL     OW31783   4.134   2.500   6.226 -0.0013 -0.0417  0.1089
10295SOL    HW131784   4.231   2.523   6.215  0.8859 -2.7124  1.4232
10295SOL    HW231785   4.098   2.545   6.308 -0.4838  2.4552 -1.3801
10296SOL     OW31786   5.189   1.899   0.781  0.3803 -0.8724  0.5205
10296SOL    HW131787   5.206   1.928   0.875 -2.2173 -2.6031  1.6395
10296SOL    HW231788   5.104   1.940   0.748 -0.3029 -2.5292  0.0718
10297SOL     OW31789   3.599   5.805   5.020 -0.3806  0.3776 -0.1900
10297SOL    HW131790   3.570   5.750   4.942  0.4750  0.3211 -0.4765
10297SOL    HW231791   3.655   5.882   4.989  0.2245  0.1818  0.3864
10298SOL     OW31792   1.942   6.962   0.910  0.2447 -0.9432  0.0541
10298SOL    HW131793   2.020   6.900   0.922  1.0021  0.0315  0.3790
10298SOL    HW231794   1.957   7.044   0.966 -1.2440 -0.9363  0.4723
10299SOL     OW31795   3.185   5.107   6.492  0.0304  0.0317 -0.0398
10299SOL    HW131796   3.101   5.085   6.541 -0.7937 -0.0801 -1.4425
10299SOL    HW231797   3.214   5.200   6.515  0.4609 -0.5103  1.7087
10300SOL     OW31798   6.663   1.584   0.711 -0.1891  0.4243 -0.1184
10300SOL    HW131799   6.734   1.521   0.680  0.2191  0.7146  0.2207
10300SOL    HW231800   6.686   1.618   0.802 -0.8798  0.3426  0.0941
10301SOL     OW31801   3.878   1.838   6.296 -0.3648 -0.1320 -0.3572
10301SOL    HW131802   3.878   1.938   6.307  0.1181 -0.2187  0.5298
10301SOL    HW231803   3.911   1.796   6.380 -1.8148 -1.1013 -0.2484
10302SOL     OW31804   2.079   3.786   1.673 -0.1162 -0.2446 -0.2893
10302SOL    HW131805   1.982   3.785   1.647  0.2682  1.3583 -2.0241
10302SOL    HW231806   2.111   3.881   1.679  2.1504 -0.6407 -3.3332
10303SOL     OW31807   0.035   0.500   4.029  0.2147 -0.6086  0.0545
10303SOL    HW131808   0.021   0.599   4.035  0.2330 -0.6714  1.4963
10303SOL    HW231809  -0.053   0.453   4.041  0.2408 -0.7757 -0.3904
10304SOL     OW31810   5.457   6.531   1.793  0.1437  0.0284  0.2960
10304SOL    HW131811   5.474   6.435   1.817  2.0748  0.2355 -0.1120
10304SOL    HW231812   5.499   6.591   1.860  0.5417  0.5936 -0.4416
10305SOL     OW31813   3.069   5.651   6.084  0.2417 -0.0321  0.3063
10305SOL    HW131814   3.029   5.579   6.028  0.3088 -1.1894  1.6865
10305SOL    HW231815   3.052   5.631   6.181  0.4773  1.6864  0.7405
10306SOL     OW31816   1.732   0.488   1.341 -0.0154 -0.5591  0.1939
10306SOL    HW131817   1.826   0.483   1.307  0.2347 -2.5771  0.9917
10306SOL    HW231818   1.732   0.468   1.439 -1.0293  2.1025  0.8085
10307SOL     OW31819   0.105   0.562   6.888  0.2940  0.1285  0.3366
10307SOL    HW131820   0.133   0.468   6.869 -2.4367 -0.0584 -4.1176
10307SOL    HW231821   0.168   0.625   6.841  0.0625  0.3365  0.3047
10308SOL     OW31822   2.489   5.745   3.572  0.2719 -0.3860  0.0289
10308SOL    HW131823   2.462   5.833   3.611  0.4463 -0.8496  1.2249
10308SOL    HW231824   2.581   5.721   3.603  1.5793  0.4553 -2.7930
10309SOL     OW31825   0.678   3.957   4.174 -0.2735  0.0603 -0.3125
10309SOL    HW131826   0.667   3.955   4.274  1.8206  1.4001  0.0142
10309SOL    HW231827   0.618   4.026   4.135 -1.7079 -1.0216 -0.1354
10310SOL     OW31828   5.698   3.264   5.134  0.0554 -0.0271  0.2178
10310SOL    HW131829   5.719   3.271   5.037 -0.5771  1.0808  0.1362
10310SOL    HW231830   5.734   3.344   5.182 -0.7667  0.0965  0.6591
10311SOL     OW31831   2.789   6.520   1.737  0.5565  0.1096  0.1896
10311SOL    HW131832   2.869   6.572   1.768  1.8982 -0.7859 -1.6223
10311SOL    HW231833   2.806   6.423   1.751 -1.4882 -0.0308  2.5278
10312SOL     OW31834   2.295   1.339   2.621 -0.2569 -0.8688  0.1543
10312SOL    HW131835   2.208   1.371   2.659 -0.5723 -0.6588 -0.7123
10312SOL    HW231836   2.339   1.414   2.573 -0.7488 -1.5617 -1.4493
10313SOL     OW31837   2.037   2.139   2.009 -0.2667 -0.1939 -0.3609
10313SOL    HW131838   2.098   2.216   2.023  0.2066 -0.8473  1.3647
10313SOL    HW231839   2.010   2.100   2.097 -1.1648 -1.4841 -1.1574
10314SOL     OW31840   1.331   0.266   6.364 -0.0317  0.3198  0.9636
10314SOL    HW131841   1.261   0.298   6.428  2.0901 -0.2079  3.7801
10314SOL    HW231842   1.390   0.343   6.338  0.1712  0.2061  1.0870
10315SOL     OW31843   6.406   1.115   3.638 -0.3376  0.1185  0.0067
10315SOL    HW131844   6.430   1.137   3.732 -1.0157 -1.3852  0.5568
10315SOL    HW231845   6.385   1.200   3.588 -1.7327  0.8357  1.7006
10316SOL     OW31846   3.230   2.683   5.960 -0.3754  0.5646 -0.1758
10316SOL    HW131847   3.186   2.616   5.900 -2.9795  1.1368  0.9768
10316SOL    HW231848   3.304   2.638   6.011 -1.0637 -1.0508 -0.5445
10317SOL     OW31849   5.276   4.512   1.356  0.2796 -0.7116  0.1285
10317SOL    HW131850   5.208   4.525   1.429 -0.0456  0.3132 -0.3402
10317SOL    HW231851   5.366   4.502   1.397  0.1725  0.3901  0.6746
10318SOL     OW31852   5.013   4.711   0.615  0.6158 -0.1124 -0.1912
10318SOL    HW131853   4.980   4.799   0.649  0.4606 -0.9928  2.1194
10318SOL    HW231854   5.113   4.712   0.610  0.8168 -0.5825  2.4145
10319SOL     OW31855   3.983   6.120   5.039 -0.6554 -0.4474  0.4182
10319SOL    HW131856   4.034   6.081   4.962 -2.1373 -1.5088 -0.0675
10319SOL    HW231857   3.963   6.049   5.106 -0.3397  0.2398  1.2575
10320SOL     OW31858   2.358   6.773   3.349 -0.0772 -0.4287 -0.1743
10320SOL    HW131859   2.405   6.685   3.363  0.9045 -0.2912 -2.1972
10320SOL    HW231860   2.426   6.844   3.332 -0.9259  0.4030 -0.1601
10321SOL     OW31861   1.634   0.924   1.159 -0.1361 -0.1480 -0.4208
10321SOL    HW131862   1.673   0.894   1.072 -0.5743 -1.9043 -0.0495
10321SOL    HW231863   1.619   0.845   1.218  2.0850  1.1590  2.1145
10322SOL     OW31864   4.927   3.286   2.733  0.1018 -0.8940  0.8382
10322SOL    HW131865   4.918   3.243   2.823  2.1035 -1.8263  0.6596
10322SOL    HW231866   4.923   3.215   2.662  2.4481 -0.7560  0.4787
10323SOL     OW31867   1.212   3.264   5.923 -0.3273  0.6040  0.5932
10323SOL    HW131868   1.255   3.346   5.886 -0.3850  0.8480  1.0612
10323SOL    HW231869   1.261   3.183   5.890  1.2153  0.9140  2.0087
10324SOL     OW31870   2.394   6.965   4.950  0.6018  0.4322 -0.1248
10324SOL    HW131871   2.372   6.947   4.854  0.2250 -2.7367  0.4503
10324SOL    HW231872   2.312   6.949   5.006  0.8790  2.0105  0.7840
10325SOL     OW31873   3.325   6.934   4.367 -0.0794  0.5163  0.3727
10325SOL    HW131874   3.380   6.860   4.328 -1.2097 -0.7013  0.9857
10325SOL    HW231875   3.331   7.015   4.308  0.7527 -0.2376 -0.6216
10326SOL     OW31876   0.776   1.310   2.274  0.3212  0.3429  0.0679
10326SOL    HW131877   0.698   1.372   2.275  2.0916  2.7234  0.9245
10326SOL    HW231878   0.853   1.353   2.322  2.8618 -0.9330 -2.5787
10327SOL     OW31879   0.922   0.321   3.985  0.0514  0.3481  0.2376
10327SOL    HW131880   0.925   0.421   3.973  0.7286  0.2539 -0.3919
10327SOL    HW231881   0.968   0.277   3.909 -2.6843 -0.5789 -0.9984
10328SOL     OW31882   0.243   1.909   0.370  0.0402 -0.3744  0.7291
10328SOL    HW131883   0.158   1.957   0.351  0.3155 -0.3560 -0.6048
10328SOL    HW231884   0.307   1.971   0.416 -0.2182 -0.0003  0.5901
10329SOL     OW31885   4.415   2.852   0.976  0.0715 -0.3849  0.3764
10329SOL    HW131886   4.473   2.799   0.913  0.1483  0.4112 -0.2341
10329SOL    HW231887   4.385   2.935   0.931 -0.3070 -0.0526  1.2277
10330SOL     OW31888   6.025   3.896   3.508  0.0606 -0.5287  0.1062
10330SOL    HW131889   5.980   3.982   3.483 -1.4906 -1.9269 -2.3153
10330SOL    HW231890   6.120   3.913   3.531 -0.1038  1.7884 -0.6821
10331SOL     OW31891   1.985   2.730   3.007  0.3185 -0.7689 -0.3142
10331SOL    HW131892   2.046   2.808   2.994 -1.1332  0.8374  1.7225
10331SOL    HW231893   1.933   2.714   2.923  0.3685  0.7412 -0.6662
10332SOL     OW31894   4.342   5.070   6.804  0.0385  0.2290 -0.4606
10332SOL    HW131895   4.369   5.058   6.899 -0.5861 -1.1785 -0.4432
10332SOL    HW231896   4.392   5.147   6.765  2.0352 -0.6073  0.3217
10333SOL     OW31897   3.228   6.290   6.990 -0.2781 -0.3733  0.0415
10333SOL    HW131898   3.142   6.240   7.006  0.2034 -0.9139  1.0749
10333SOL    HW231899   3.302   6.224   6.977  0.7144 -0.0824  3.2290
10334SOL     OW31900   0.702   0.982   5.678 -0.3259 -0.2581  0.0728
10334SOL    HW131901   0.753   0.948   5.757 -0.1822  0.0398  0.1056
10334SOL    HW231902   0.635   1.049   5.709  0.8978  1.1542 -0.2667
10335SOL     OW31903   1.393   0.194   5.924  0.3351  0.0514 -0.1621
10335SOL    HW131904   1.409   0.293   5.914  1.2955  0.0334  1.0258
10335SOL    HW231905   1.336   0.178   6.004  0.2020 -0.3752 -0.3391
10336SOL     OW31906   4.951   1.431   6.818  0.2883  0.1582 -0.5800
10336SOL    HW131907   4.893   1.466   6.744  0.4393 -1.7857 -1.6910
10336SOL    HW231908   5.033   1.488   6.827 -0.3178  1.1324 -1.0596
10337SOL     OW31909   6.415   3.100   1.536 -0.4598  0.3061  0.3428
10337SOL    HW131910   6.336   3.040   1.545 -0.0411 -0.4950 -1.0293
10337SOL    HW231911   6.464   3.078   1.451  0.2693  1.9278  0.3104
10338SOL     OW31912   4.744   7.000   0.345 -0.0091  0.3197  0.2483
10338SOL    HW131913   4.791   6.931   0.290  1.3134  1.4187 -0.0245
10338SOL    HW231914   4.646   6.996   0.325  0.2901 -0.1110 -1.2946
10339SOL     OW31915   0.378   0.525   1.846 -0.5643  0.0615  0.1017
10339SOL    HW131916   0.332   0.492   1.929 -1.4701 -0.6120 -0.6416
10339SOL    HW231917   0.358   0.623   1.834  0.8498  0.5571  1.4822
10340SOL     OW31918   4.959   3.342   5.007  0.2274 -0.0866 -0.0139
10340SOL    HW131919   4.928   3.278   4.937  0.9796 -1.0425  0.5141
10340SOL    HW231920   4.909   3.428   4.997  0.6260 -0.0346 -2.0057
10341SOL     OW31921   0.151   6.912   4.335  0.0409  0.1889 -0.6547
10341SOL    HW131922   0.204   6.939   4.415  0.4581  0.5621 -1.0525
10341SOL    HW231923   0.199   6.839   4.285  0.4689  0.9182 -1.3287
10342SOL     OW31924   4.702   4.585   5.818 -0.0606  0.5586 -0.3606
10342SOL    HW131925   4.723   4.631   5.731  0.6633 -1.2799 -1.2132
10342SOL    HW231926   4.766   4.509   5.831 -0.7381  0.2512  1.3637
10343SOL     OW31927   3.790   6.075   4.621 -0.0717 -0.2738 -0.1033
10343SOL    HW131928   3.843   5.990   4.627  0.0026 -0.2000  0.3787
10343SOL    HW231929   3.703   6.057   4.577  0.4560 -0.3450 -1.1521
10344SOL     OW31930   5.758   3.402   2.578 -1.4382 -0.4880 -0.2713
10344SOL    HW131931   5.690   3.340   2.539 -1.1091 -0.1764 -1.3723
10344SOL    HW231932   5.822   3.430   2.507 -0.8663  0.1680  0.4848
10345SOL     OW31933   4.701   5.830   5.042  0.4344 -0.4244 -0.4617
10345SOL    HW131934   4.729   5.777   4.961  4.1227 -0.6598  0.7847
10345SOL    HW231935   4.718   5.927   5.025  0.9644 -0.4480 -0.0825
10346SOL     OW31936   6.624   0.043   4.731 -0.3911 -0.4668  0.1962
10346SOL    HW131937   6.561  -0.014   4.678 -1.2245 -0.3063  0.9876
10346SOL    HW231938   6.600   0.038   4.828  2.8312 -3.0133  1.0393
10347SOL     OW31939   6.931   4.338   0.601 -0.4003 -0.3958  0.0403
10347SOL    HW131940   6.839   4.312   0.573 -0.6213  0.0716  0.3166
10347SOL    HW231941   6.961   4.416   0.546 -0.8797  0.5978  1.1442
10348SOL     OW31942   0.314   1.291   2.039  0.4062  0.0451  0.2951
10348SOL    HW131943   0.355   1.381   2.053 -0.4900  0.4407  0.4504
10348SOL    HW231944   0.338   1.257   1.948  1.4843  0.0343  0.5635
10349SOL     OW31945   3.352   4.043   2.023 -0.2005  0.8066  0.0595
10349SOL    HW131946   3.257   4.021   2.000 -0.5738  0.9108  1.4294
10349SOL    HW231947   3.392   4.099   1.950 -0.5023 -0.9904 -1.5630
10350SOL     OW31948   0.730   0.706   0.488  0.2331  0.1059 -0.1916
10350SOL    HW131949   0.675   0.640   0.539 -0.8177  1.1349  0.0536
10350SOL    HW231950   0.674   0.787   0.468  1.5704  1.0550 -0.2134
10351SOL     OW31951   0.240   5.741   4.713  0.0945  0.0551 -0.5164
10351SOL    HW131952   0.149   5.700   4.716  0.9525 -1.8709  0.4643
10351SOL    HW231953   0.280   5.727   4.622  0.3695 -1.3337 -0.2021
10352SOL     OW31954   0.107   5.288   5.367 -0.6047  0.0174 -0.2798
10352SOL    HW131955   0.065   5.229   5.298 -0.3227 -1.3446  0.6831
10352SOL    HW231956   0.036   5.326   5.426 -0.6223 -1.4174  0.6702
10353SOL     OW31957   2.043   0.486   6.320 -0.7102  0.0500  0.2801
10353SOL    HW131958   2.039   0.506   6.418  0.8847 -1.7310  0.7769
10353SOL    HW231959   1.954   0.453   6.289 -1.2878  0.8159  1.0626
10354SOL     OW31960   2.144   6.718   4.725 -0.4159 -0.1716  0.1180
10354SOL    HW131961   2.182   6.678   4.641  0.7488  0.7436  0.1748
10354SOL    HW231962   2.172   6.814   4.731 -2.2977  0.3938  0.4734
10355SOL     OW31963   5.034   5.546   4.721  0.3789  0.8510  0.3508
10355SOL    HW131964   4.943   5.588   4.718 -0.2806 -0.4771  1.0753
10355SOL    HW231965   5.082   5.577   4.803 -0.5334 -0.5815  1.4778
10356SOL     OW31966   6.994   2.668   1.655  0.3677 -0.3816  0.2411
10356SOL    HW131967   6.971   2.742   1.718 -1.4700 -0.0229 -0.7794
10356SOL    HW231968   7.063   2.699   1.590 -0.4863  0.5012 -0.2590
10357SOL     OW31969   3.436   0.257   2.023  0.0087  0.2891 -0.2642
10357SOL    HW131970   3.390   0.254   2.112  1.7864  0.4536  0.7176
10357SOL    HW231971   3.454   0.353   1.999  1.4805  0.1786  0.2995
10358SOL     OW31972   4.748   1.124   6.073 -0.3853  0.1520 -0.1587
10358SOL    HW131973   4.650   1.116   6.091 -0.0856 -1.6115  0.9157
10358SOL    HW231974   4.790   1.183   6.142 -0.4376 -0.4770  0.4214
10359SOL     OW31975   4.032   3.854   0.074 -0.0188 -0.1860  0.0106
10359SOL    HW131976   4.115   3.828   0.026  0.2792  1.4246 -0.4188
10359SOL    HW231977   4.055   3.917   0.149 -0.7672 -0.4004  0.4354
10360SOL     OW31978   1.153   5.419   1.451  0.2721 -0.3011 -0.2856
10360SOL    HW131979   1.218   5.475   1.399 -0.4265 -0.9733 -1.9626
10360SOL    HW231980   1.088   5.478   1.499  0.9816  0.3408 -0.1078
10361SOL     OW31981   2.097   4.649   3.162 -0.4273 -0.1552  0.3600
10361SOL    HW131982   2.007   4.690   3.146  0.1605  0.2862 -2.2334
10361SOL    HW231983   2.162   4.720   3.189 -0.2823 -0.0110 -0.3502
10362SOL     OW31984   1.331   1.222   5.658 -0.0731 -0.2096  0.2364
10362SOL    HW131985   1.338   1.189   5.564  1.1137  0.4669  0.0708
10362SOL    HW231986   1.388   1.165   5.718  1.7740  1.2713 -0.0070
10363SOL     OW31987   4.447   0.621   5.645  0.1783  0.4893 -0.0880
10363SOL    HW131988   4.429   0.557   5.570  0.5470  0.6915 -0.3566
10363SOL    HW231989   4.362   0.661   5.676 -0.0447 -0.0386 -0.0000
10364SOL     OW31990   6.440   4.446   2.299  0.2914  0.3750  0.3563
10364SOL    HW131991   6.539   4.450   2.285  0.3378  0.4190  0.7083
10364SOL    HW231992   6.415   4.498   2.380 -0.1993  1.7083 -0.6011
10365SOL     OW31993   2.215   3.148   5.567 -0.2912 -0.2481  0.4143
10365SOL    HW131994   2.178   3.240   5.584  0.4972  0.3894 -1.1754
10365SOL    HW231995   2.301   3.155   5.518 -0.5886 -1.8648 -0.3958
10366SOL     OW31996   1.639   4.531   3.276 -0.3297  0.3738  0.3255
10366SOL    HW131997   1.704   4.462   3.244  0.9640  1.5249  0.3848
10366SOL    HW231998   1.556   4.527   3.220  0.2648 -0.3358 -0.5318
10367SOL     OW31999   6.104   1.458   2.591 -0.2546  0.2147  0.0595
10367SOL    HW132000   6.186   1.505   2.560 -1.1853  0.1692 -2.7001
10367SOL    HW232001   6.075   1.497   2.679 -0.1107  3.8143 -1.3139
10368SOL     OW32002   2.704   1.192   0.685 -0.5177 -0.0858  0.0531
10368SOL    HW132003   2.701   1.216   0.782  2.6167 -1.4319  0.6190
10368SOL    HW232004   2.728   1.096   0.675  0.4598  0.3067 -2.0328
10369SOL     OW32005   0.960   0.570   4.654 -0.4686  0.0547 -0.3484
10369SOL    HW132006   1.013   0.636   4.601 -1.2147  0.4949 -0.5600
10369SOL    HW232007   0.864   0.597   4.654 -0.5829 -0.2896  0.6957
10370SOL     OW32008   6.831   3.727   1.420 -0.3456  0.3846  0.0981
10370SOL    HW132009   6.777   3.644   1.428  0.0043  0.1320 -0.1424
10370SOL    HW232010   6.885   3.724   1.336 -0.7430  1.0997 -0.2008
10371SOL     OW32011   3.139   4.370   6.807 -0.1430  0.0622 -0.5552
10371SOL    HW132012   3.198   4.292   6.831 -0.3197  0.2783  0.6409
10371SOL    HW232013   3.105   4.358   6.714  0.7217 -0.7360 -0.7887
10372SOL     OW32014   0.757   2.524   1.218  0.2827 -0.0546  0.4693
10372SOL    HW132015   0.829   2.526   1.288 -0.4946  1.1553  1.2806
10372SOL    HW232016   0.794   2.487   1.133  1.0642 -2.2927  1.7103
10373SOL     OW32017   1.145   4.956   0.570 -0.5819 -0.8846  0.4763
10373SOL    HW132018   1.147   4.989   0.476 -0.0761 -0.8849  0.4806
10373SOL    HW232019   1.052   4.961   0.606 -0.7902 -0.9664 -0.0508
10374SOL     OW32020   1.545   2.191   1.371 -0.1686 -0.6245 -0.1690
10374SOL    HW132021   1.598   2.190   1.456  0.9838  0.7856 -0.8243
10374SOL    HW232022   1.451   2.161   1.389  0.0155 -0.2141  1.6142
10375SOL     OW32023   2.111   6.221   5.354 -1.0712  0.2796 -0.2289
10375SOL    HW132024   2.204   6.246   5.327 -0.8044  0.3720  0.7413
10375SOL    HW232025   2.090   6.130   5.317 -0.4174  0.0506 -0.0668
10376SOL     OW32026   1.672   1.627   4.951  0.3465 -0.5582  0.6455
10376SOL    HW132027   1.644   1.708   5.003 -1.1083 -1.0571  0.6824
10376SOL    HW232028   1.655   1.545   5.006  1.7964 -0.9198  0.6085
10377SOL     OW32029   0.338   6.974   4.524 -0.1132  0.3694 -0.2873
10377SOL    HW132030   0.400   6.928   4.461 -2.5368 -3.1518 -0.3817
10377SOL    HW232031   0.376   6.970   4.617 -0.0358 -1.6039 -0.3594
10378SOL     OW32032   2.674   4.808   5.815  0.6834 -0.0113 -0.3182
10378SOL    HW132033   2.601   4.741   5.832  1.2509 -0.5321  0.0863
10378SOL    HW232034   2.635   4.888   5.769 -0.2138 -0.1224  0.2265
10379SOL     OW32035   5.214   0.268   1.642 -0.1621  0.1514  0.0004
10379SOL    HW132036   5.259   0.196   1.695 -1.6206 -1.8313 -1.2797
10379SOL    HW232037   5.115   0.257   1.649 -0.4519 -0.4365 -3.2811
10380SOL     OW32038   3.717   2.879   2.371  0.0584  0.2664 -0.1379
10380SOL    HW132039   3.632   2.839   2.336  0.2223 -0.5732  0.3806
10380SOL    HW232040   3.781   2.893   2.296 -0.4130  0.5905 -0.4848
10381SOL     OW32041   4.144   1.910   3.907  0.2543 -0.4449  0.5749
10381SOL    HW132042   4.096   1.997   3.920 -0.3904 -0.6748 -0.1895
10381SOL    HW232043   4.149   1.889   3.809  2.1045 -0.3370  0.6199
10382SOL     OW32044   2.549   6.512   1.897 -0.4614 -0.9046 -0.1787
10382SOL    HW132045   2.491   6.592   1.879 -0.1536 -0.9395 -1.3919
10382SOL    HW232046   2.639   6.526   1.857  0.2210 -1.0835  1.2404
10383SOL     OW32047   0.275   4.750   2.368  0.5432 -0.6528 -0.3273
10383SOL    HW132048   0.215   4.692   2.313 -0.6788 -0.0734  0.3440
10383SOL    HW232049   0.350   4.784   2.312 -0.0813 -0.9221 -1.3455
10384SOL     OW32050   1.708   0.179   5.409  0.7473 -0.2072 -0.5672
10384SOL    HW132051   1.681   0.161   5.315  0.0670  1.4114 -0.7116
10384SOL    HW232052   1.634   0.153   5.471 -0.3773  2.1926 -0.8008
10385SOL     OW32053   3.013   3.871   2.881  0.0023 -0.1658  0.3318
10385SOL    HW132054   2.986   3.832   2.969 -0.3317  0.6432  0.5970
10385SOL    HW232055   3.083   3.942   2.896  0.0393 -0.1170 -0.0613
10386SOL     OW32056   6.290   2.309   1.211  0.8481 -0.0693 -0.5319
10386SOL    HW132057   6.325   2.256   1.288  0.5238 -1.1856 -1.1308
10386SOL    HW232058   6.229   2.380   1.245  0.0291 -1.0870  0.2118
10387SOL     OW32059   2.828   4.232   0.430  0.0328 -0.1309  0.1731
10387SOL    HW132060   2.921   4.261   0.410  0.2588 -0.2272  1.0825
10387SOL    HW232061   2.812   4.142   0.388 -0.6385  1.1362 -2.5640
10388SOL     OW32062   3.628   4.915   5.572 -0.0013  0.0686  0.2454
10388SOL    HW132063   3.683   4.993   5.543 -2.6568  1.3890 -1.6510
10388SOL    HW232064   3.619   4.850   5.496 -1.0537 -0.0951  0.4912
10389SOL     OW32065   6.243   6.038   5.604  0.3443  0.3144 -0.1026
10389SOL    HW132066   6.286   6.124   5.632  3.9703 -0.8028 -1.5714
10389SOL    HW232067   6.292   5.961   5.646 -1.2001 -1.1032 -0.7763
10390SOL     OW32068   2.465   4.460   3.703 -0.7953 -0.5094  0.3177
10390SOL    HW132069   2.418   4.372   3.694  1.0994 -1.5959  0.4788
10390SOL    HW232070   2.506   4.486   3.616  1.9843 -1.8358  1.1152
10391SOL     OW32071   4.999   4.505   6.605  0.3111 -0.8012 -0.0281
10391SOL    HW132072   5.023   4.582   6.545 -1.1618  1.0456  1.6015
10391SOL    HW232073   4.906   4.518   6.640  0.5033 -2.6862  1.3102
10392SOL     OW32074   1.053   6.194   6.973 -0.5542  0.0011 -0.2856
10392SOL    HW132075   1.092   6.240   7.052 -1.3708  0.3673 -0.0792
10392SOL    HW232076   1.084   6.099   6.970  1.4160  0.6140 -0.8977
10393SOL     OW32077   1.569   0.743   4.901 -0.6031 -0.3289  0.3653
10393SOL    HW132078   1.596   0.777   4.991  0.8054  0.3920 -0.3057
10393SOL    HW232079   1.522   0.656   4.911  0.7687 -0.9538  1.7111
10394SOL     OW32080   1.658   3.039   4.327  0.1828  0.1785 -0.6653
10394SOL    HW132081   1.614   3.026   4.416  1.3897 -0.2565 -0.1128
10394SOL    HW232082   1.744   2.989   4.325  0.4167  0.6025 -1.9069
10395SOL     OW32083   3.270   5.368   6.631  0.3145 -0.1503  0.2755
10395SOL    HW132084   3.175   5.394   6.648  0.0964 -0.6543 -0.1637
10395SOL    HW232085   3.306   5.319   6.711  0.6127  1.1342  0.9597
10396SOL     OW32086   0.978   3.140   2.096  0.0429 -0.3348 -0.4588
10396SOL    HW132087   1.045   3.186   2.037  1.2461 -1.0931  0.2635
10396SOL    HW232088   0.949   3.203   2.168 -0.1954  0.0740 -0.9069
10397SOL     OW32089   1.154   4.102   0.003  0.9205 -0.1111 -0.5347
10397SOL    HW132090   1.227   4.164  -0.026  0.3945  0.6874 -0.1952
10397SOL    HW232091   1.175   4.009  -0.028  2.2645  0.0314 -0.1112
10398SOL     OW32092   4.717   4.731   4.171 -0.0196 -0.2002 -0.2227
10398SOL    HW132093   4.806   4.727   4.217  0.0651  3.5947  0.2303
10398SOL    HW232094   4.724   4.787   4.088 -1.9929  0.4036 -0.0461
10399SOL     OW32095   1.880   1.512   6.896  0.5216 -0.0042  0.2345
10399SOL    HW132096   1.943   1.450   6.942  1.5270  0.7352 -0.1000
10399SOL    HW232097   1.860   1.478   6.804 -0.1871 -0.6259  0.6014
10400SOL     OW32098   2.109   3.283   3.800  0.2757  0.0148 -0.7295
10400SOL    HW132099   2.035   3.344   3.772  0.3333 -0.3824 -1.8313
10400SOL    HW232100   2.137   3.228   3.721  0.9140 -0.7064 -0.0140
10401SOL     OW32101   4.423   1.765   1.249  0.1722  0.1361  0.0561
10401SOL    HW132102   4.508   1.772   1.196 -0.2578 -3.1506 -1.2829
10401SOL    HW232103   4.344   1.774   1.188 -0.4157  0.4925  0.8509
10402SOL     OW32104   5.276   4.502   0.118  0.2667  0.4411 -0.0924
10402SOL    HW132105   5.244   4.572   0.181 -0.9061  1.0939 -1.3575
10402SOL    HW232106   5.231   4.415   0.138  1.9191 -0.0998  1.6501
10403SOL     OW32107   5.399   2.276   2.638  0.4296  0.0363 -0.7851
10403SOL    HW132108   5.331   2.213   2.674  1.6166 -0.7285  0.1908
10403SOL    HW232109   5.428   2.339   2.710  0.9274  0.1939 -1.1126
10404SOL     OW32110   3.265   6.955   6.459  0.8089 -0.5908 -0.0104
10404SOL    HW132111   3.252   6.996   6.369  0.6484  0.1668  0.3532
10404SOL    HW232112   3.315   7.019   6.518  0.5734 -0.9272  0.5619
10405SOL     OW32113   4.405   0.249   0.394 -0.2474 -0.5905 -0.2608
10405SOL    HW132114   4.315   0.241   0.438  1.5206 -0.9542  3.7507
10405SOL    HW232115   4.434   0.159   0.362  0.1729 -1.3113  1.9554
10406SOL     OW32116   2.438   1.994   0.211  0.4403 -0.3342  0.7030
10406SOL    HW132117   2.533   1.974   0.235 -0.1725 -2.5918  1.4639
10406SOL    HW232118   2.412   1.941   0.130  0.2995  1.6805 -0.6767
10407SOL     OW32119   0.732   5.399   6.658 -0.3358 -0.2509  0.0388
10407SOL    HW132120   0.680   5.343   6.722 -1.3147  0.0272 -0.4838
10407SOL    HW232121   0.830   5.384   6.671 -0.2249  2.3838  4.0637
10408SOL     OW32122   4.412   3.122   5.647 -0.7410  0.0394 -0.4656
10408SOL    HW132123   4.489   3.184   5.663  0.1095 -1.6912  3.0213
10408SOL    HW232124   4.327   3.170   5.665 -0.0610  0.1316  3.3435
10409SOL     OW32125   6.396   1.280   6.465  0.3658 -0.6129  0.3185
10409SOL    HW132126   6.347   1.270   6.551  0.1581  0.3520  0.3152
10409SOL    HW232127   6.492   1.302   6.484  0.6243 -1.6865  0.3128
10410SOL     OW32128   2.320   2.794   1.631  0.1862  0.1592  0.0943
10410SOL    HW132129   2.390   2.785   1.703  0.8580  1.2144 -0.4005
10410SOL    HW232130   2.356   2.851   1.557 -0.9908  0.2113 -0.4537
10411SOL     OW32131   5.659   2.732   1.793 -0.2560  0.2198 -0.4282
10411SOL    HW132132   5.742   2.718   1.738  0.3675  0.4092  0.4500
10411SOL    HW232133   5.637   2.829   1.796  0.2754  0.3160  0.4621
10412SOL     OW32134   0.080   3.973   4.128 -0.7105 -0.2279 -0.3070
10412SOL    HW132135   0.079   3.924   4.041  1.1333 -0.3760 -0.2842
10412SOL    HW232136   0.170   3.962   4.172 -0.9898  1.3485  0.7514
10413SOL     OW32137   0.744   6.288   3.741  0.3644 -0.5533  0.5875
10413SOL    HW132138   0.804   6.314   3.665 -0.5860 -1.8430 -0.6514
10413SOL    HW232139   0.670   6.355   3.750  1.2137  0.3265  1.2764
10414SOL     OW32140   6.169   2.084   3.591 -0.5263 -0.3981  0.6291
10414SOL    HW132141   6.254   2.048   3.630 -0.5065 -0.3671  0.6149
10414SOL    HW232142   6.190   2.136   3.508 -0.3404  1.2790  1.6783
10415SOL     OW32143   0.451   3.979   5.533  0.7027  0.0257 -0.3036
10415SOL    HW132144   0.368   4.013   5.579  0.0448 -0.7235 -0.9142
10415SOL    HW232145   0.449   3.879   5.530  1.9230 -0.0339  0.1850
10416SOL     OW32146   6.120   3.368   0.528 -0.1968 -0.0853 -0.1432
10416SOL    HW132147   6.075   3.298   0.473 -1.4600 -0.8793  1.7952
10416SOL    HW232148   6.175   3.325   0.600 -0.5436  0.8893  0.7305
10417SOL     OW32149   1.315   4.478   3.587 -0.5366 -0.0517  0.1296
10417SOL    HW132150   1.412   4.481   3.562  0.4373 -0.9811  3.4310
10417SOL    HW232151   1.276   4.570   3.577 -0.2910 -0.1904 -4.1551
10418SOL     OW32152   4.657   4.310   4.433 -0.3953 -0.1073  0.0693
10418SOL    HW132153   4.717   4.305   4.513 -0.9809  0.1390  0.5308
10418SOL    HW232154   4.601   4.392   4.439  0.3669  0.5322 -1.1864
10419SOL     OW32155   0.562   1.716   2.329  0.0574 -0.3022  0.0467
10419SOL    HW132156   0.651   1.730   2.373  0.4207 -1.3591 -0.3124
10419SOL    HW232157   0.563   1.630   2.279 -1.1560 -0.2944 -0.0252
10420SOL     OW32158   3.039   1.946   5.190 -0.3803 -0.1849 -0.0990
10420SOL    HW132159   2.955   1.999   5.174  0.6155  2.0907  1.7675
10420SOL    HW232160   3.027   1.890   5.272 -0.1543 -0.0509  0.0241
10421SOL     OW32161   2.703   2.984   0.495  0.0920 -0.2945 -0.0007
10421SOL    HW132162   2.629   2.925   0.463  0.0182 -0.8071  1.0512
10421SOL    HW232163   2.706   2.981   0.595  0.0115  1.6000  0.0898
10422SOL     OW32164   3.388   3.797   5.574  0.0318  1.2054  0.0092
10422SOL    HW132165   3.485   3.820   5.560  0.5419  0.4080  1.9389
10422SOL    HW232166   3.355   3.746   5.494  1.4677  0.6879 -0.2934
10423SOL     OW32167   6.695   6.290   2.036  0.4011 -0.1603 -0.0467
10423SOL    HW132168   6.741   6.249   2.115  3.4415 -0.9801 -2.0793
10423SOL    HW232169   6.684   6.388   2.052  2.7445  0.0443  0.6560
10424SOL     OW32170   0.957   0.898   0.828  0.5596 -0.3008 -0.0160
10424SOL    HW132171   0.858   0.889   0.841  0.5627 -1.1167 -0.4688
10424SOL    HW232172   1.005   0.838   0.891  0.6980 -1.1677 -0.9152
10425SOL     OW32173   0.485   4.314   2.515 -0.0287 -1.1152  0.5605
10425SOL    HW132174   0.576   4.329   2.555  0.0431  0.4894 -0.1298
10425SOL    HW232175   0.422   4.384   2.550 -0.5765 -1.2113 -0.2218
10426SOL     OW32176   5.805   6.177   6.893  0.2379 -0.0393  0.1785
10426SOL    HW132177   5.756   6.231   6.962  0.0813  0.0251  0.0160
10426SOL    HW232178   5.761   6.188   6.804  0.7159  0.2438 -0.0251
10427SOL     OW32179   5.437   5.871   5.107 -0.2149  0.2805  0.3007
10427SOL    HW132180   5.417   5.875   5.205 -0.2338 -0.1529  0.3160
10427SOL    HW232181   5.395   5.949   5.062 -0.0896  0.5588  0.6585
10428SOL     OW32182   3.501   5.007   5.278 -0.1850 -0.2190 -0.3580
10428SOL    HW132183   3.477   4.912   5.260 -0.1598 -0.7504  2.0786
10428SOL    HW232184   3.434   5.048   5.341  0.6778  0.8539 -0.0929
10429SOL     OW32185   5.204   2.087   6.919  0.3447 -0.4531 -0.1638
10429SOL    HW132186   5.252   2.145   6.985 -0.5341  0.8594 -0.6289
10429SOL    HW232187   5.271   2.042   6.860  1.0709 -0.2362  0.4753
10430SOL     OW32188   7.008   6.411   1.947 -0.4264 -0.1754  0.6660
10430SOL    HW132189   7.076   6.338   1.944 -0.2132 -0.2119  3.4951
10430SOL    HW232190   7.049   6.497   1.918  0.0186 -0.7154 -0.3238
10431SOL     OW32191   3.861   6.997   3.078 -0.0325 -0.2949  0.1998
10431SOL    HW132192   3.857   7.097   3.065  1.1276 -0.3271 -0.6101
10431SOL    HW232193   3.778   6.956   3.042  0.3659  0.2282 -1.4304
10432SOL     OW32194   3.395   0.432   2.800  0.5085  0.4711 -0.0490
10432SOL    HW132195   3.490   0.426   2.769  0.0967 -0.1205 -1.2569
10432SOL    HW232196   3.334   0.413   2.723 -0.5857  0.3022  0.8444
10433SOL     OW32197   1.423   6.303   2.543  0.1185  0.7494 -0.1935
10433SOL    HW132198   1.482   6.231   2.506 -2.4300 -2.0027  0.7688
10433SOL    HW232199   1.430   6.305   2.642 -1.3533  0.3507 -0.0560
10434SOL     OW32200   3.146   2.145   3.772  0.0200  0.1072 -0.5558
10434SOL    HW132201   3.053   2.181   3.763  0.5479  1.7131  0.0497
10434SOL    HW232202   3.210   2.221   3.784  1.4286 -0.9672 -0.9871
10435SOL     OW32203   4.758   4.399   0.070 -0.0072 -0.0650 -0.0833
10435SOL    HW132204   4.799   4.331   0.009  0.2600 -0.4575  0.5284
10435SOL    HW232205   4.829   4.463   0.100 -0.0023 -0.2710  0.3452
10436SOL     OW32206   2.201   4.523   1.582  0.1526 -0.4224  0.2092
10436SOL    HW132207   2.116   4.481   1.550  0.5051 -1.3008  0.4058
10436SOL    HW232208   2.203   4.524   1.682  0.1298  0.1164  0.2093
10437SOL     OW32209   6.820   1.017   4.786 -0.0174 -0.9387  0.5609
10437SOL    HW132210   6.731   1.045   4.823  0.4932  1.7506 -0.0157
10437SOL    HW232211   6.884   1.004   4.862  0.0613  0.8833  0.8418
10438SOL     OW32212   5.952   6.154   4.070 -0.2131  0.1146  0.3763
10438SOL    HW132213   5.949   6.068   4.020 -1.1833  0.0615  0.5137
10438SOL    HW232214   5.999   6.140   4.158  1.0820  0.1101 -0.2935
10439SOL     OW32215   5.074   4.097   5.712  0.2799  0.0281 -0.9767
10439SOL    HW132216   5.002   4.088   5.781 -0.9072  2.5708 -1.7669
10439SOL    HW232217   5.039   4.066   5.623  1.0881 -1.1938 -0.8997
10440SOL     OW32218   6.716   5.262   4.375 -0.4664  0.1143  0.0352
10440SOL    HW132219   6.753   5.258   4.468  0.9406  0.2417 -0.5034
10440SOL    HW232220   6.790   5.253   4.309 -1.3213  1.0850 -1.0931
10441SOL     OW32221   1.383   1.587   3.459  0.6260  0.1750  0.4633
10441SOL    HW132222   1.309   1.654   3.461  1.6048  1.3064 -0.1900
10441SOL    HW232223   1.383   1.540   3.371  2.8318  2.7568 -1.0780
10442SOL     OW32224   5.782   6.975   6.953  0.4991 -0.5353  0.3384
10442SOL    HW132225   5.729   6.904   6.907  0.4415 -0.0341 -0.3966
10442SOL    HW232226   5.878   6.970   6.924  0.2246  0.5593 -0.8152
10443SOL     OW32227   1.661   4.324   5.034 -0.1153 -0.2978  0.2203
10443SOL    HW132228   1.661   4.276   4.946 -1.2676  0.3774 -0.1628
10443SOL    HW232229   1.586   4.389   5.037  0.6664  0.6015  1.2300
10444SOL     OW32230   4.562   5.950   0.102 -0.4227  0.3889  0.6341
10444SOL    HW132231   4.622   5.872   0.087  0.3395  1.4433 -2.8829
10444SOL    HW232232   4.611   6.021   0.153  0.2963  0.0856  0.3793
10445SOL     OW32233   6.083   3.874   3.102  0.4639  0.0609  0.0439
10445SOL    HW132234   6.021   3.865   3.024 -1.1252  1.5349  1.0727
10445SOL    HW232235   6.060   3.806   3.172  1.4721 -0.8299 -0.4501
10446SOL     OW32236   4.895   3.155   2.967 -0.4155  0.2950  0.5748
10446SOL    HW132237   4.865   3.185   3.058  0.0635 -0.3652  0.9626
10446SOL    HW232238   4.980   3.102   2.976 -0.6790 -0.2730 -0.1883
10447SOL     OW32239   6.899   4.088   4.396 -0.5758 -0.1343 -0.1604
10447SOL    HW132240   6.804   4.059   4.390 -0.8630  0.0285  2.6619
10447SOL    HW232241   6.932   4.114   4.304 -3.2996  0.0790 -1.1492
10448SOL     OW32242   5.011   0.844   4.705 -0.1251  0.3299  0.1317
10448SOL    HW132243   4.993   0.824   4.801 -1.4068 -0.5226 -0.2444
10448SOL    HW232244   4.977   0.935   4.682  0.4809  0.6636  0.5562
10449SOL     OW32245   2.056   6.086   3.198 -0.0146  0.2675 -0.4131
10449SOL    HW132246   2.026   6.119   3.108 -0.6061 -1.7904 -1.0105
10449SOL    HW232247   2.035   5.989   3.206 -2.2553  0.8708  2.9016
10450SOL     OW32248   2.884   5.328   3.906 -0.1356  0.3807 -0.4175
10450SOL    HW132249   2.798   5.328   3.956 -0.8551  0.8364 -1.6101
10450SOL    HW232250   2.885   5.251   3.842  0.9334 -0.4264  0.5184
10451SOL     OW32251   4.448   2.474   4.598 -0.1503  0.6462  0.2623
10451SOL    HW132252   4.535   2.429   4.578 -0.5299 -0.4588  1.0155
10451SOL    HW232253   4.391   2.476   4.515  0.9397  2.2510 -0.4987
10452SOL     OW32254   5.968   2.031   3.378  0.8386  0.5291  0.1562
10452SOL    HW132255   6.018   2.010   3.462 -0.0594 -0.0394  0.5598
10452SOL    HW232256   5.928   2.123   3.386 -1.1187 -0.3596  1.3086
10453SOL     OW32257   1.919   2.636   2.753  0.0740  0.3421  0.4712
10453SOL    HW132258   1.841   2.580   2.781  0.1177  0.5791  1.0868
10453SOL    HW232259   1.907   2.666   2.658 -0.6494  0.4954  0.6071
10454SOL     OW32260   0.031   5.822   2.891  0.6450 -0.7306  0.3453
10454SOL    HW132261   0.066   5.777   2.973 -0.4477 -0.3211  1.0698
10454SOL    HW232262  -0.012   5.754   2.831 -1.4695 -0.6766  1.6818
10455SOL     OW32263   6.414   2.113   6.594  0.5260  0.3532 -0.0637
10455SOL    HW132264   6.483   2.164   6.645 -0.1440 -1.2290  2.6283
10455SOL    HW232265   6.457   2.032   6.553  0.3655 -0.6766  1.6798
10456SOL     OW32266   4.528   2.741   6.675 -0.6834 -0.3821 -0.0120
10456SOL    HW132267   4.510   2.809   6.603  0.6152  0.0669  0.0508
10456SOL    HW232268   4.460   2.668   6.669 -0.1175 -0.8150 -2.2628
10457SOL     OW32269   0.952   4.885   4.805  0.1432 -0.0002  0.4754
10457SOL    HW132270   0.932   4.909   4.710 -0.5334 -1.4932  0.2259
10457SOL    HW232271   1.031   4.939   4.837  0.0083  0.9461 -0.7270
10458SOL     OW32272   0.869   1.169   1.272  0.2954 -0.0812 -0.6420
10458SOL    HW132273   0.910   1.094   1.324 -1.0300 -0.3770  0.0107
10458SOL    HW232274   0.892   1.256   1.315  0.0768 -0.2532 -0.1801
10459SOL     OW32275   4.116   5.272   5.773 -0.2286  0.1582 -0.2473
10459SOL    HW132276   4.115   5.220   5.858  0.8726 -0.3263 -0.5210
10459SOL    HW232277   4.105   5.209   5.696  1.9908  0.1943 -0.6353
10460SOL     OW32278   4.370   3.807   0.040 -0.0844  0.2374 -0.1010
10460SOL    HW132279   4.341   3.888  -0.010  1.5641  0.3216 -1.0104
10460SOL    HW232280   4.378   3.828   0.137  1.9458  1.7071 -0.5279
10461SOL     OW32281   5.664   6.259   5.435  0.1947  0.3831 -0.0274
10461SOL    HW132282   5.652   6.218   5.526  1.7906 -1.0746 -0.4382
10461SOL    HW232283   5.757   6.244   5.403 -0.9320 -1.2158 -2.9078
10462SOL     OW32284   6.250   5.795   5.049  0.3023 -0.2112  0.0017
10462SOL    HW132285   6.342   5.768   5.020  0.1106 -1.5542  0.5770
10462SOL    HW232286   6.241   5.783   5.147 -1.5432 -3.6402 -0.4219
10463SOL     OW32287   6.221   6.127   3.919 -0.1437 -0.8599 -0.0456
10463SOL    HW132288   6.196   6.218   3.952  0.2434 -0.8214  0.1529
10463SOL    HW232289   6.287   6.086   3.982  1.1165 -0.5279 -1.0901
10464SOL     OW32290   1.819   2.076   2.275  0.0270 -0.6940  0.1412
10464SOL    HW132291   1.818   2.158   2.332 -2.2154 -0.2472 -0.4402
10464SOL    HW232292   1.873   2.005   2.320  1.0131  0.6975  1.2398
10465SOL     OW32293   3.597   3.640   6.393  0.1007 -0.8039 -0.2872
10465SOL    HW132294   3.567   3.690   6.475 -1.4719 -0.5661 -0.9789
10465SOL    HW232295   3.692   3.612   6.405 -0.4645 -2.0068  2.2307
10466SOL     OW32296   1.546   0.674   4.500  0.3244  0.2965  0.4346
10466SOL    HW132297   1.498   0.752   4.540  2.3962  1.1368  1.4328
10466SOL    HW232298   1.480   0.612   4.457 -1.3706  2.6882 -0.6073
10467SOL     OW32299   4.125   5.899   2.763 -0.2275  0.0377 -0.1432
10467SOL    HW132300   4.171   5.897   2.674  0.0455 -2.0157 -0.0105
10467SOL    HW232301   4.193   5.886   2.835 -0.5761  0.6848  0.3101
10468SOL     OW32302   0.039   5.504   3.361  0.4544 -0.3540  0.6150
10468SOL    HW132303  -0.048   5.493   3.314  0.3195  0.4729  0.6595
10468SOL    HW232304   0.023   5.516   3.459  0.5034  1.3024  0.4428
10469SOL     OW32305   4.879   2.685   6.107  0.2051  0.5219  0.3424
10469SOL    HW132306   4.795   2.659   6.059  0.1461  2.2218 -0.5543
10469SOL    HW232307   4.955   2.631   6.074 -0.3418 -0.3189  0.4230
10470SOL     OW32308   3.602   1.910   5.519  0.5585  0.2072  0.1254
10470SOL    HW132309   3.617   1.980   5.449 -0.3048  0.7472  0.4713
10470SOL    HW232310   3.624   1.948   5.609  1.1295 -0.3122  0.2105
10471SOL     OW32311   0.795   1.381   4.583  0.4330 -0.5061  0.4437
10471SOL    HW132312   0.727   1.314   4.613  1.1887 -0.8277  1.4999
10471SOL    HW232313   0.853   1.407   4.660  0.7229  0.7002 -0.1558
10472SOL     OW32314   6.169   0.308   2.501 -0.0968  0.2029  0.4018
10472SOL    HW132315   6.266   0.290   2.486 -0.0943  0.8204 -0.3834
10472SOL    HW232316   6.147   0.400   2.470 -1.4993 -0.8759 -2.1353
10473SOL     OW32317   3.221   6.624   4.147  0.0851 -0.1825 -0.3943
10473SOL    HW132318   3.171   6.540   4.126 -1.9873  0.6992  0.7100
10473SOL    HW232319   3.295   6.604   4.211  0.2314 -1.3007 -0.8896
10474SOL     OW32320   0.874   1.346   5.680 -0.7391  0.2477  0.5081
10474SOL    HW132321   0.787   1.319   5.721 -0.5598 -1.2018 -0.0195
10474SOL    HW232322   0.863   1.434   5.633 -2.9958 -1.5579 -2.7465
10475SOL     OW32323   3.172   3.813   2.200 -0.0213  0.2650  0.0862
10475SOL    HW132324   3.272   3.822   2.203  0.1465 -1.3828  0.2552
10475SOL    HW232325   3.140   3.829   2.107  0.5136 -0.1600 -0.1754
10476SOL     OW32326   1.067   4.272   1.639  0.1900  0.0595  0.3337
10476SOL    HW132327   1.017   4.357   1.625  1.0082  0.2696 -1.6465
10476SOL    HW232328   1.009   4.195   1.614  0.0435  0.1448  0.4097
10477SOL     OW32329   6.494   0.511   3.150  0.1301  0.5793  0.0113
10477SOL    HW132330   6.533   0.484   3.061  0.2387  0.1086  0.1999
10477SOL    HW232331   6.457   0.603   3.143 -0.8035  0.1637 -0.8234
10478SOL     OW32332   3.530   5.212   5.936  0.2383 -0.1956  0.3353
10478SOL    HW132333   3.492   5.120   5.928 -0.0608 -0.0500  0.0783
10478SOL    HW232334   3.630   5.207   5.939  0.3470 -0.3872 -1.9189
10479SOL     OW32335   3.368   0.771   2.826  0.1851  0.8417 -0.3941
10479SOL    HW132336   3.385   0.759   2.924 -1.8744  2.4077  0.2125
10479SOL    HW232337   3.318   0.692   2.791 -1.2738  1.3696  0.4251
10480SOL     OW32338   6.624   0.133   1.644  0.0288  0.2332  0.1509
10480SOL    HW132339   6.535   0.178   1.642  0.1076  0.3694 -0.5027
10480SOL    HW232340   6.632   0.077   1.727 -0.8668 -0.2010 -0.0472
10481SOL     OW32341   1.948   6.014   6.634 -0.3637  0.2059 -0.2468
10481SOL    HW132342   1.878   6.051   6.573  0.5150 -1.5092 -2.4570
10481SOL    HW232343   1.979   5.926   6.599  0.5700 -0.6657  2.4901
10482SOL     OW32344   4.882   1.518   0.081 -0.5915  0.1043 -0.7210
10482SOL    HW132345   4.806   1.582   0.084 -1.5674 -0.9898 -1.3223
10482SOL    HW232346   4.876   1.462  -0.002 -1.1186 -2.3653  0.8828
10483SOL     OW32347   0.256   5.822   6.677  0.0709  0.3903  0.2322
10483SOL    HW132348   0.302   5.774   6.603 -0.1888  0.3449  0.0981
10483SOL    HW232349   0.199   5.896   6.639 -0.0084  0.4107  0.3901
10484SOL     OW32350   6.072   0.274   5.407 -0.2519  0.1087 -0.4762
10484SOL    HW132351   6.151   0.332   5.430  0.2816 -0.4383 -0.9248
10484SOL    HW232352   6.065   0.264   5.308 -1.0226  0.3307 -0.4525
10485SOL     OW32353   3.921   1.567   5.181 -0.3079 -0.1151 -0.5452
10485SOL    HW132354   3.951   1.472   5.171 -0.2677 -0.2267  0.4963
10485SOL    HW232355   3.841   1.570   5.241 -0.5153  0.4726 -0.8500
10486SOL     OW32356   0.266   6.804   1.880  0.2286 -0.0883  0.1488
10486SOL    HW132357   0.351   6.754   1.899 -0.1301 -0.4765  0.7835
10486SOL    HW232358   0.285   6.883   1.822  0.9808 -0.3234  0.0724
10487SOL     OW32359   1.673   4.803   2.359 -0.2822 -0.0346 -0.2062
10487SOL    HW132360   1.731   4.760   2.290  0.5355  0.3037  0.2555
10487SOL    HW232361   1.724   4.814   2.444 -1.6325 -1.5203  0.8463
10488SOL     OW32362   4.352   5.631   5.768 -0.0486  0.4757 -0.4711
10488SOL    HW132363   4.291   5.660   5.694 -0.1115 -1.4505 -1.2306
10488SOL    HW232364   4.408   5.555   5.736 -1.3389 -1.6533  1.9687
10489SOL     OW32365   1.548   6.589   2.851 -0.2352  0.1878  0.1583
10489SOL    HW132366   1.529   6.687   2.851 -0.5455  0.1654 -1.5017
10489SOL    HW232367   1.626   6.570   2.910  0.3075  1.5474 -0.0737
10490SOL     OW32368   2.709   1.354   4.927  0.0588 -0.3080  0.9379
10490SOL    HW132369   2.670   1.437   4.967  0.8188  0.9460 -0.8062
10490SOL    HW232370   2.665   1.274   4.967 -2.0692  0.9655  1.2881
10491SOL     OW32371   3.172   2.763   0.315  0.0020  0.3910  0.0310
10491SOL    HW132372   3.078   2.729   0.319 -0.1678  0.7322 -0.9279
10491SOL    HW232373   3.182   2.825   0.237  1.0217  0.3771  0.1409
10492SOL     OW32374   6.379   4.396   3.462 -0.1988 -0.3807 -0.2216
10492SOL    HW132375   6.323   4.429   3.387  0.9539 -0.6671 -1.2361
10492SOL    HW232376   6.400   4.299   3.448  1.1082 -0.1162 -0.2314
10493SOL     OW32377   3.621   1.752   1.686 -0.0579 -0.1168 -0.7941
10493SOL    HW132378   3.685   1.829   1.688 -0.5900  0.3140  0.0486
10493SOL    HW232379   3.612   1.714   1.777 -1.0359 -0.1470 -0.8961
10494SOL     OW32380   4.760   2.847   5.692 -0.0840  0.0528 -0.3438
10494SOL    HW132381   4.839   2.817   5.745 -1.0452 -0.7429  0.6888
10494SOL    HW232382   4.789   2.910   5.620  1.4186  0.0999  0.2864
10495SOL     OW32383   2.529   2.879   1.123 -0.3702  0.0736 -0.0301
10495SOL    HW132384   2.497   2.907   1.032 -0.6605  0.4742  0.1892
10495SOL    HW232385   2.464   2.815   1.163  0.5949 -1.4387 -0.7777
10496SOL     OW32386   4.904   2.819   2.643  0.3019 -0.3186  0.2614
10496SOL    HW132387   4.958   2.751   2.692 -0.9367 -1.4184  0.1551
10496SOL    HW232388   4.914   2.805   2.544 -0.1628 -0.5230  0.2404
10497SOL     OW32389   5.060   0.887   0.486 -0.1494  0.4393  0.0465
10497SOL    HW132390   5.079   0.828   0.407 -0.9103  0.1768  0.0549
10497SOL    HW232391   4.973   0.934   0.472  0.9157  2.3813 -0.4479
10498SOL     OW32392   2.906   6.491   0.915  0.4906  0.4780 -0.1415
10498SOL    HW132393   2.997   6.462   0.886  0.3791 -0.8817  0.7299
10498SOL    HW232394   2.854   6.523   0.836  0.9703 -0.9051 -1.0615
10499SOL     OW32395   4.216   4.743   3.497  0.5002 -0.0801  0.4751
10499SOL    HW132396   4.218   4.648   3.528  1.8678 -0.1760  0.1756
10499SOL    HW232397   4.133   4.788   3.531  0.0725 -1.2406  1.0122
10500SOL     OW32398   0.631   3.299   4.506 -0.4351  0.3145 -0.0447
10500SOL    HW132399   0.666   3.315   4.414 -1.3252  0.7932 -0.3177
10500SOL    HW232400   0.531   3.301   4.503 -0.4656  0.5691  0.9766
10501SOL     OW32401   5.781   1.959   5.895 -0.4652  0.0659  0.6283
10501SOL    HW132402   5.732   1.932   5.812 -3.0508  1.4400  1.5788
10501SOL    HW232403   5.776   2.059   5.905  2.3107  0.2480  1.0194
10502SOL     OW32404   1.390   0.087   3.888  0.2293  0.2755 -0.1982
10502SOL    HW132405   1.322   0.087   3.962 -0.1845 -2.5472 -0.4813
10502SOL    HW232406   1.477   0.054   3.924  1.3955  3.2641  0.0056
10503SOL     OW32407   5.922   5.007   4.369 -0.6521 -0.5893  0.6402
10503SOL    HW132408   5.847   5.052   4.418 -1.7419 -0.3777 -1.1556
10503SOL    HW232409   5.925   4.910   4.397 -2.1410 -0.8054  0.1547
10504SOL     OW32410   2.757   2.018   4.217 -0.1023  0.0534  0.0837
10504SOL    HW132411   2.786   1.923   4.207 -0.1816  0.0084  0.2789
10504SOL    HW232412   2.722   2.033   4.310 -1.1087 -0.0118 -0.2652
10505SOL     OW32413   3.937   3.717   4.702  0.3623  0.8386 -0.6641
10505SOL    HW132414   3.971   3.634   4.656 -1.3871  1.0005 -2.3523
10505SOL    HW232415   3.953   3.796   4.644  1.3329  1.6307  0.6192
10506SOL     OW32416   5.962   6.298   5.518 -0.2659 -0.0778 -0.7270
10506SOL    HW132417   5.973   6.385   5.567  0.9246 -0.5929 -0.0260
10506SOL    HW232418   5.997   6.307   5.425 -0.7304  0.3629 -0.8624
10507SOL     OW32419   1.586   4.822   3.915 -0.1826  0.5587 -0.1895
10507SOL    HW132420   1.560   4.915   3.942 -3.9559 -0.5635  0.5766
10507SOL    HW232421   1.543   4.799   3.828 -0.6672 -0.9948  0.4342
10508SOL     OW32422   2.800   2.292   2.819  0.2841  0.1327 -0.4194
10508SOL    HW132423   2.822   2.306   2.916 -2.4209 -2.2301  0.7104
10508SOL    HW232424   2.875   2.244   2.775 -0.1962 -3.1295  1.9026
10509SOL     OW32425   2.609   6.304   3.166  0.5168 -0.2519  0.1282
10509SOL    HW132426   2.693   6.299   3.113  1.4279 -0.2470  1.5075
10509SOL    HW232427   2.540   6.242   3.128  1.7592 -1.6186  0.0289
10510SOL     OW32428   3.282   1.438   1.628  0.1563  0.6200  0.1700
10510SOL    HW132429   3.238   1.349   1.633 -0.2520  0.7620 -0.7429
10510SOL    HW232430   3.214   1.509   1.612  0.7532  0.7328 -2.2624
10511SOL     OW32431   5.311   2.629   5.670  0.3410 -0.0963 -0.0617
10511SOL    HW132432   5.305   2.718   5.624  1.0226 -0.5582 -1.0985
10511SOL    HW232433   5.388   2.629   5.734 -0.4671  0.4787  0.9128
10512SOL     OW32434   5.563   4.305   3.768 -0.4989 -0.1647 -0.0941
10512SOL    HW132435   5.624   4.340   3.697  0.5234 -2.7346 -0.5946
10512SOL    HW232436   5.569   4.362   3.849  0.4911  1.1801 -1.0766
10513SOL     OW32437   4.802   2.597   5.540  0.9196  0.1442 -0.4074
10513SOL    HW132438   4.771   2.658   5.613  0.8477 -0.9254  0.4840
10513SOL    HW232439   4.811   2.649   5.455  0.2556  1.2558  0.1731
10514SOL     OW32440   4.229   5.701   6.923 -0.3813 -0.4945  0.2249
10514SOL    HW132441   4.223   5.639   6.845 -2.3694 -0.9053  0.6487
10514SOL    HW232442   4.275   5.654   6.999 -0.2696 -0.8217 -0.0443
10515SOL     OW32443   4.979   6.177   2.979  0.0859 -0.3623 -0.4235
10515SOL    HW132444   5.034   6.178   3.063 -0.3207 -0.7182 -0.1441
10515SOL    HW232445   4.915   6.254   2.980 -0.6578 -0.9601  0.1134
10516SOL     OW32446   4.440   4.467   0.877  0.3579  0.1636 -0.4729
10516SOL    HW132447   4.407   4.492   0.968 -1.2995  0.4677 -1.1352
10516SOL    HW232448   4.525   4.517   0.858 -0.9302  2.5134 -0.3087
10517SOL     OW32449   1.729   2.463   0.325  0.1133  0.2356  0.7655
10517SOL    HW132450   1.683   2.504   0.404  1.9875  3.7471  0.2381
10517SOL    HW232451   1.824   2.495   0.322 -0.1304  1.1020 -3.3807
10518SOL     OW32452   0.156   3.230   2.891  0.4925 -1.1306 -0.2025
10518SOL    HW132453   0.093   3.298   2.929  0.1529 -1.3562 -0.3545
10518SOL    HW232454   0.225   3.207   2.959 -0.2588 -1.7220  0.3747
10519SOL     OW32455   2.819   0.694   5.869 -0.5527 -0.0434 -0.4718
10519SOL    HW132456   2.737   0.734   5.829 -1.1842 -0.3401  0.4997
10519SOL    HW232457   2.894   0.760   5.865 -1.0538  0.5218 -0.6198
10520SOL     OW32458   3.056   4.155   0.027  0.3496 -0.8839  0.3966
10520SOL    HW132459   3.097   4.179  -0.061  0.6452  0.2904  0.8414
10520SOL    HW232460   2.978   4.094   0.012 -0.4894  0.4415 -0.7873
10521SOL     OW32461   1.776   5.047   4.688  0.2814 -0.6392 -0.0668
10521SOL    HW132462   1.835   5.122   4.658 -0.5513  0.3167  0.6364
10521SOL    HW232463   1.798   5.025   4.784 -1.1220  0.3808  0.5229
10522SOL     OW32464   1.516   2.976   0.560 -0.5805  0.2946  0.8445
10522SOL    HW132465   1.600   2.939   0.600 -1.8281 -2.2740  1.2755
10522SOL    HW232466   1.452   3.000   0.633 -0.2610  2.3519  0.5239
10523SOL     OW32467   4.191   6.308   5.907  0.3441  0.0402 -1.0262
10523SOL    HW132468   4.170   6.211   5.922  0.1394  0.2011 -0.2112
10523SOL    HW232469   4.119   6.364   5.949  0.7880  0.5528 -0.9357
10524SOL     OW32470   5.685   0.094   4.359 -0.6584  0.7777  0.1537
10524SOL    HW132471   5.639   0.081   4.271  1.3459 -0.6469 -0.7664
10524SOL    HW232472   5.784   0.080   4.347 -0.4821 -1.1586  2.9423
10525SOL     OW32473   2.494   6.810   3.716  0.7435  0.0504 -1.3383
10525SOL    HW132474   2.407   6.802   3.764  0.2563  0.3101 -2.1530
10525SOL    HW232475   2.561   6.749   3.758  0.4665  0.5796 -0.0656
10526SOL     OW32476   6.327   4.756   5.645  0.6195  0.1922 -0.2233
10526SOL    HW132477   6.370   4.724   5.729  0.4822 -1.5027 -0.7627
10526SOL    HW232478   6.396   4.799   5.587  1.1241 -0.3897 -0.0699
10527SOL     OW32479   5.712   4.604   5.000 -0.2470  0.3955 -0.2409
10527SOL    HW132480   5.632   4.660   5.022 -0.2002  0.3644  0.0183
10527SOL    HW232481   5.764   4.647   4.926 -1.2657 -0.3092 -1.3966
10528SOL     OW32482   3.774   0.940   5.697  0.2947  0.2233  0.1393
10528SOL    HW132483   3.707   0.931   5.771 -0.1556  2.0047 -0.0087
10528SOL    HW232484   3.726   0.943   5.609  0.6104  0.8882 -0.0129
10529SOL     OW32485   2.276   4.333   2.735  0.3600  0.2142 -0.2283
10529SOL    HW132486   2.347   4.346   2.665 -0.4123 -0.6041 -1.1951
10529SOL    HW232487   2.283   4.406   2.803  1.3553  0.8378 -0.9637
10530SOL     OW32488   4.111   2.060   1.958  0.2175 -0.0125  0.3465
10530SOL    HW132489   4.012   2.045   1.949  0.3961 -0.3567 -1.2004
10530SOL    HW232490   4.153   2.062   1.868  1.5956  0.4468  0.9767
10531SOL     OW32491   5.829   5.650   2.152  0.4619  0.8737  0.9512
10531SOL    HW132492   5.891   5.624   2.227  2.0195  0.5341 -0.4064
10531SOL    HW232493   5.875   5.714   2.091 -0.4507  0.4640 -0.2049
10532SOL     OW32494   5.170   6.372   6.042 -0.9814 -0.0461  0.1103
10532SOL    HW132495   5.135   6.303   5.979 -1.3791  0.5259 -0.3058
10532SOL    HW232496   5.200   6.452   5.990 -0.1141 -0.0739  0.5514
10533SOL     OW32497   2.125   3.909   4.185  0.3391 -0.0296 -0.0817
10533SOL    HW132498   2.142   3.899   4.283  0.1032 -1.0630 -0.1340
10533SOL    HW232499   2.074   3.830   4.152  0.7030  0.1523 -1.1096
10534SOL     OW32500   2.986   1.627   1.088  0.0149  0.7765  0.4317
10534SOL    HW132501   2.905   1.582   1.125 -1.0421  2.2022 -0.0410
10534SOL    HW232502   3.039   1.562   1.034 -1.1186 -0.0465  0.2717
10535SOL     OW32503   4.492   2.823   0.048  0.2896 -0.6107 -0.3121
10535SOL    HW132504   4.401   2.865   0.042  0.6306  0.2036  0.0311
10535SOL    HW232505   4.561   2.895   0.053  0.9838 -1.2222 -0.8973
10536SOL     OW32506   4.110   1.484   1.045 -0.0058 -0.9387 -0.0066
10536SOL    HW132507   4.158   1.566   1.016  0.0193 -0.7686  0.5071
10536SOL    HW232508   4.174   1.421   1.090 -0.2886 -0.6139  0.8826
10537SOL     OW32509   4.181   1.982   0.322 -0.4525 -0.7779 -0.1413
10537SOL    HW132510   4.081   1.992   0.321 -0.4724 -0.7566  1.1547
10537SOL    HW232511   4.206   1.904   0.380  0.4050  1.1087  2.1541
10538SOL     OW32512   3.794   2.640   5.699 -0.2194 -0.0384 -0.0572
10538SOL    HW132513   3.744   2.619   5.615 -0.1172  0.0469 -0.1381
10538SOL    HW232514   3.847   2.560   5.727 -0.6848 -0.2544  0.2276
10539SOL     OW32515   5.370   4.072   6.018 -0.0082  0.2543 -0.3216
10539SOL    HW132516   5.382   3.973   6.025 -0.0711  0.2962  0.5572
10539SOL    HW232517   5.275   4.096   6.036  0.2370  0.5550  0.6612
10540SOL     OW32518   4.162   2.748   5.364 -0.7284  0.0666  0.1511
10540SOL    HW132519   4.140   2.673   5.301  1.7409 -0.3000 -0.4016
10540SOL    HW232520   4.232   2.717   5.429 -0.3652  1.6152  0.5376
10541SOL     OW32521   3.988   3.448   5.180  0.3555 -0.6363  0.1537
10541SOL    HW132522   4.042   3.499   5.247  2.2990 -3.0914  0.5957
10541SOL    HW232523   4.038   3.444   5.093 -1.4755  1.2593 -1.0967
10542SOL     OW32524   5.052   1.166   0.071  0.4962 -0.0282  1.2604
10542SOL    HW132525   5.107   1.085   0.092  1.8928  0.6621  0.3996
10542SOL    HW232526   5.109   1.235   0.028 -0.8016  1.2127  1.4519
10543SOL     OW32527   3.102   5.720   0.239  0.3974 -0.0336  0.1303
10543SOL    HW132528   3.071   5.709   0.144  3.2329  1.2161 -1.0709
10543SOL    HW232529   3.025   5.707   0.301 -1.1671 -3.0353 -2.1672
10544SOL     OW32530   1.395   2.275   3.315  0.1781  0.2605  0.3445
10544SOL    HW132531   1.365   2.259   3.409 -0.4904 -0.3916  0.0359
10544SOL    HW232532   1.317   2.301   3.259  0.2667 -0.9287 -0.3620
10545SOL     OW32533   4.069   5.621   2.728 -0.0650  0.2170 -0.7068
10545SOL    HW132534   3.987   5.610   2.671 -0.1843  1.3254 -0.7801
10545SOL    HW232535   4.083   5.718   2.748  0.0084 -0.1284  1.1236
10546SOL     OW32536   1.678   5.373   4.575 -0.7094  0.4113  0.0814
10546SOL    HW132537   1.631   5.322   4.647 -0.6669  1.5000  0.9092
10546SOL    HW232538   1.663   5.329   4.487  1.4861 -2.5404  1.0469
10547SOL     OW32539   2.220   2.494   4.123  0.4216  0.6331 -0.3115
10547SOL    HW132540   2.306   2.545   4.124 -0.9102  3.1313  2.6535
10547SOL    HW232541   2.239   2.398   4.101  4.0756  0.9203  0.9059
10548SOL     OW32542   0.058   5.079   0.640  0.0581 -0.6262 -0.1023
10548SOL    HW132543   0.095   5.060   0.731  0.7087 -1.0150 -0.4378
10548SOL    HW232544  -0.039   5.100   0.647  0.3887  0.6699  0.8280
10549SOL     OW32545   0.794   6.021   4.795 -0.4434  0.1471  0.0270
10549SOL    HW132546   0.768   6.045   4.702  0.2143  1.2006  0.1000
10549SOL    HW232547   0.780   5.923   4.809 -2.4920  0.3074 -0.5194
10550SOL     OW32548   5.620   0.535   3.918  0.7684 -0.7283  0.2414
10550SOL    HW132549   5.525   0.533   3.949  0.8550 -0.0426  0.5826
10550SOL    HW232550   5.631   0.476   3.838 -0.0209 -0.5272 -0.0200
10551SOL     OW32551   2.165   3.385   4.528 -0.0700  0.3053 -0.1959
10551SOL    HW132552   2.223   3.315   4.569 -0.1263  0.0508 -0.5394
10551SOL    HW232553   2.127   3.444   4.599 -1.0890 -0.8300  0.2459
10552SOL     OW32554   3.245   5.047   5.844 -0.3629  0.5662 -0.3369
10552SOL    HW132555   3.195   4.978   5.896  0.4968 -0.4038 -0.7533
10552SOL    HW232556   3.343   5.038   5.863 -0.2109  1.4506 -0.6651
10553SOL     OW32557   4.235   1.450   2.803 -0.0407 -0.2869 -0.2264
10553SOL    HW132558   4.171   1.526   2.797 -0.7098 -0.7411  0.8767
10553SOL    HW232559   4.201   1.383   2.869  0.9976 -1.1022 -0.4922
10554SOL     OW32560   6.088   6.298   3.172  0.3274 -0.2630 -0.0172
10554SOL    HW132561   6.150   6.376   3.162  1.6402 -1.5693 -3.4996
10554SOL    HW232562   6.054   6.271   3.083 -0.7555 -3.1717  1.1565
10555SOL     OW32563   5.106   2.036   1.502  0.4185  0.5135 -0.4798
10555SOL    HW132564   5.130   2.068   1.593  1.2025 -1.6951  0.1468
10555SOL    HW232565   5.007   2.045   1.488  0.3087  0.9503  0.5360
10556SOL     OW32566   2.801   6.323   6.271 -0.4331 -0.1670  0.2800
10556SOL    HW132567   2.884   6.308   6.219 -0.8327 -0.0940 -0.3906
10556SOL    HW232568   2.786   6.246   6.333  0.5702  0.2153  1.0144
10557SOL     OW32569   4.356   1.898   6.715 -0.9874 -0.7462  0.1202
10557SOL    HW132570   4.384   1.809   6.680 -0.7558 -0.5918 -0.0869
10557SOL    HW232571   4.375   1.969   6.647 -1.1564 -0.5347  0.2897
10558SOL     OW32572   1.645   5.841   4.646  0.1175  0.2936 -0.4062
10558SOL    HW132573   1.743   5.825   4.638  0.0903 -0.8829  1.0365
10558SOL    HW232574   1.595   5.761   4.611 -0.2918  0.4251 -0.1326
10559SOL     OW32575   5.146   5.300   6.607 -0.0503 -0.0904  0.4929
10559SOL    HW132576   5.066   5.280   6.663 -0.2955  1.3867  0.7025
10559SOL    HW232577   5.131   5.384   6.555  1.0969 -0.1609  0.0066
10560SOL     OW32578   5.660   4.246   2.286  0.7158 -0.6700  0.1460
10560SOL    HW132579   5.685   4.194   2.204  1.5763 -1.7109  1.0393
10560SOL    HW232580   5.744   4.273   2.334  0.2092 -0.5393  0.9703
10561SOL     OW32581   4.053   2.136   4.414 -0.1687  0.5957 -0.3551
10561SOL    HW132582   4.140   2.182   4.400  0.2644 -0.1847 -0.2721
10561SOL    HW232583   4.040   2.119   4.512  0.4055 -0.8234 -0.5004
10562SOL     OW32584   1.445   1.661   0.841 -0.0409 -0.2860 -0.6976
10562SOL    HW132585   1.510   1.644   0.916 -1.3848 -0.9614  0.3634
10562SOL    HW232586   1.370   1.595   0.847 -0.7620  0.3827 -1.9776
10563SOL     OW32587   6.835   1.991   2.290 -0.0446 -0.5703 -0.2046
10563SOL    HW132588   6.834   2.021   2.385  0.3455 -1.9541  0.2617
10563SOL    HW232589   6.882   2.059   2.234  0.7285 -0.2666  0.7812
10564SOL     OW32590   4.192   0.933   2.469  0.3910  0.1491 -0.0567
10564SOL    HW132591   4.282   0.974   2.483  0.9798 -1.6461  1.8081
10564SOL    HW232592   4.201   0.834   2.458 -1.2532  0.0946 -1.4615
10565SOL     OW32593   5.676   5.307   2.911 -0.3207 -0.3080  0.0141
10565SOL    HW132594   5.770   5.342   2.906  0.0354 -1.2440  0.0480
10565SOL    HW232595   5.633   5.340   2.996  0.2410 -0.5033  0.3795
10566SOL     OW32596   5.432   1.657   5.325 -0.1257  0.3605  0.1645
10566SOL    HW132597   5.525   1.672   5.293 -0.8479  0.3532 -2.1004
10566SOL    HW232598   5.419   1.560   5.347  0.1794  0.2147 -0.2869
10567SOL     OW32599   5.351   5.495   4.187 -0.7364  0.2978 -0.4509
10567SOL    HW132600   5.267   5.514   4.136 -1.3946  0.5690  0.7126
10567SOL    HW232601   5.336   5.418   4.248 -0.0926  0.2668 -0.3273
10568SOL     OW32602   4.452   2.068   3.817  0.1471  0.1929  0.0334
10568SOL    HW132603   4.357   2.040   3.829  0.1545  0.2899  0.3269
10568SOL    HW232604   4.511   2.008   3.871  0.3218 -0.3558 -0.7607
10569SOL     OW32605   0.393   1.211   4.420 -0.4769  0.7339 -0.0596
10569SOL    HW132606   0.369   1.307   4.412 -2.8080  0.3225  1.2409
10569SOL    HW232607   0.318   1.160   4.462  0.9485 -1.5545 -0.0618
10570SOL     OW32608   4.383   4.955   0.049  0.0946 -0.4556 -0.6066
10570SOL    HW132609   4.419   4.879   0.103  1.1110 -0.8033 -1.7346
10570SOL    HW232610   4.288   4.937   0.025  0.3246 -1.3879 -0.8587
10571SOL     OW32611   1.559   5.809   1.098  0.2079  0.3443  0.1814
10571SOL    HW132612   1.494   5.825   1.024 -0.9702  0.2870  1.1754
10571SOL    HW232613   1.514   5.825   1.186  1.6506  0.6703  0.8882
10572SOL     OW32614   5.455   3.851   0.826 -0.4134 -0.1955 -0.0046
10572SOL    HW132615   5.377   3.860   0.763 -0.2822  0.2171 -0.1113
10572SOL    HW232616   5.456   3.759   0.865 -0.2763 -0.5875 -0.9048
10573SOL     OW32617   5.652   4.962   0.024  0.1901  0.4916 -0.7564
10573SOL    HW132618   5.632   4.960  -0.074 -0.5337 -1.8245 -0.6246
10573SOL    HW232619   5.742   4.921   0.040 -1.6980 -4.1345 -0.2216
10574SOL     OW32620   7.002   5.958   1.005  0.0615 -0.2475 -0.2041
10574SOL    HW132621   6.903   5.966   1.021 -0.1873 -1.1287 -1.1919
10574SOL    HW232622   7.050   5.961   1.092 -0.7788  0.7833  0.2553
10575SOL     OW32623   1.218   2.976   6.282  0.3645  0.3100 -0.2390
10575SOL    HW132624   1.159   2.937   6.211 -0.7274  2.6200 -0.7170
10575SOL    HW232625   1.191   2.940   6.371 -1.6565  1.0788 -0.4772
10576SOL     OW32626   4.174   1.814   6.471  0.3259 -0.3294  0.4464
10576SOL    HW132627   4.084   1.851   6.495 -0.5034 -1.2511 -1.0517
10576SOL    HW232628   4.221   1.878   6.410 -0.8386 -1.3234 -1.6221
10577SOL     OW32629   2.860   0.954   1.086  0.2326 -0.2885 -0.3795
10577SOL    HW132630   2.873   1.037   1.140 -1.1987 -1.0480  1.2227
10577SOL    HW232631   2.944   0.933   1.035  1.7406  0.3493  1.7225
10578SOL     OW32632   3.246   6.109   1.078 -0.0666 -0.0958 -0.0988
10578SOL    HW132633   3.170   6.067   1.127 -0.2002  0.9536  0.6207
10578SOL    HW232634   3.211   6.165   1.003  0.1027 -1.0848 -0.9418
10579SOL     OW32635   1.514   5.126   6.469  0.7021  1.0297 -0.0967
10579SOL    HW132636   1.515   5.137   6.568 -0.6983  0.2378  0.0319
10579SOL    HW232637   1.422   5.100   6.439  1.4317 -0.1453 -1.4358
10580SOL     OW32638   4.671   5.118   2.931  0.2303 -0.5044 -0.0587
10580SOL    HW132639   4.746   5.075   2.880 -2.4727 -3.1295 -2.1035
10580SOL    HW232640   4.622   5.181   2.871 -1.8032 -2.1369 -0.2118
10581SOL     OW32641   4.100   4.520   1.118 -0.1481  0.3451 -0.4220
10581SOL    HW132642   4.196   4.498   1.137  0.0118  0.9868 -0.4509
10581SOL    HW232643   4.071   4.593   1.180 -0.4342  0.5745 -0.8280
10582SOL     OW32644   2.847   1.945   0.794  0.1305 -0.3715  0.0874
10582SOL    HW132645   2.919   1.881   0.823 -0.7642 -0.2960  2.7543
10582SOL    HW232646   2.758   1.912   0.826 -0.6178  1.1571 -0.3125
10583SOL     OW32647   2.435   2.732   5.091  0.1960 -0.3633 -0.2514
10583SOL    HW132648   2.410   2.826   5.071  0.3583 -0.3451 -0.3718
10583SOL    HW232649   2.495   2.697   5.019  0.5459 -0.3918  0.0513
10584SOL     OW32650   5.915   6.016   2.767  0.9358  0.0415  0.5831
10584SOL    HW132651   5.883   6.108   2.741 -1.8041 -0.9756 -0.0388
10584SOL    HW232652   5.895   5.952   2.694  0.1483 -1.5451  2.1056
10585SOL     OW32653   4.715   6.831   5.119 -0.2801  0.0642  0.1584
10585SOL    HW132654   4.804   6.864   5.151  0.0287 -0.0829 -0.5279
10585SOL    HW232655   4.723   6.800   5.024 -0.7139 -1.3217  0.5380
10586SOL     OW32656   0.552   2.833   6.574 -0.1790  0.4239  0.0748
10586SOL    HW132657   0.454   2.815   6.580 -0.6327  1.9865 -1.7284
10586SOL    HW232658   0.579   2.842   6.479  1.5257  1.0320  0.5786
10587SOL     OW32659   2.473   6.479   5.703  0.1066 -0.2457  0.5231
10587SOL    HW132660   2.404   6.532   5.655 -0.1667 -0.6050  0.5188
10587SOL    HW232661   2.554   6.536   5.720 -0.7848  0.6659  1.9228
10588SOL     OW32662   5.800   2.862   4.483 -0.0022 -0.1509 -0.8100
10588SOL    HW132663   5.706   2.872   4.517  0.2528 -0.0474 -0.1184
10588SOL    HW232664   5.852   2.944   4.506  0.8025 -1.0339  0.6192
10589SOL     OW32665   2.970   1.276   1.772 -0.1605 -0.2118  0.4156
10589SOL    HW132666   3.035   1.243   1.703  0.5050  0.4668  0.6982
10589SOL    HW232667   3.020   1.299   1.856 -0.2161  3.3718 -0.3679
10590SOL     OW32668   0.126   1.719   1.391  0.2245  0.6241 -0.6360
10590SOL    HW132669   0.042   1.671   1.363  0.8114 -0.7097 -0.2117
10590SOL    HW232670   0.105   1.814   1.411 -1.0661  0.4752 -1.1680
10591SOL     OW32671   4.531   2.502   5.313 -0.0406 -0.3664 -0.1365
10591SOL    HW132672   4.513   2.587   5.363 -1.0310 -0.4802 -0.2794
10591SOL    HW232673   4.606   2.453   5.358 -0.1090  0.1152  0.5266
10592SOL     OW32674   6.185   6.659   2.507 -0.1048  0.2433  0.2981
10592SOL    HW132675   6.124   6.737   2.493  0.4982  0.6805  0.0473
10592SOL    HW232676   6.172   6.622   2.599  0.1412  1.1239  0.7012
10593SOL     OW32677   1.627   6.187   1.063 -0.5046 -0.4106  0.0668
10593SOL    HW132678   1.665   6.178   0.971 -0.5799  1.6699 -0.1977
10593SOL    HW232679   1.662   6.112   1.120  0.2269 -1.2380 -1.4105
10594SOL     OW32680   6.743   5.682   6.384 -0.7293  0.2438  0.3466
10594SOL    HW132681   6.769   5.761   6.440  0.3089 -0.0822  0.3647
10594SOL    HW232682   6.812   5.669   6.312 -0.8785 -0.6423  0.3543
10595SOL     OW32683   6.229   4.047   0.794  0.3122 -0.9439 -0.4184
10595SOL    HW132684   6.267   4.010   0.709  0.4821 -0.2881 -0.6320
10595SOL    HW232685   6.131   4.066   0.780  0.6046  0.3206 -0.8712
10596SOL     OW32686   4.541   6.846   4.019  0.5247 -0.3979 -1.1565
10596SOL    HW132687   4.468   6.832   3.953  1.1759 -0.0638 -1.9717
10596SOL    HW232688   4.503   6.847   4.111 -0.4853 -0.2486 -1.5598
10597SOL     OW32689   3.680   5.577   3.590  0.5400  0.3018 -0.2285
10597SOL    HW132690   3.751   5.637   3.627  0.4136 -0.0358  0.5954
10597SOL    HW232691   3.590   5.616   3.609  0.4756  0.1352 -0.1844
10598SOL     OW32692   3.787   6.016   5.723 -0.0428 -0.1886  0.0364
10598SOL    HW132693   3.874   5.995   5.767  0.6457 -1.1490 -1.7092
10598SOL    HW232694   3.802   6.045   5.629 -1.6311 -4.1665 -1.7159
10599SOL     OW32695   0.851   0.932   5.299  0.2024 -0.0543 -0.0391
10599SOL    HW132696   0.918   0.957   5.369  0.6108  0.0317 -0.4558
10599SOL    HW232697   0.862   0.991   5.219 -0.3539 -0.0587 -0.1226
10600SOL     OW32698   4.773   0.879   1.393  0.2253 -0.5512 -0.0253
10600SOL    HW132699   4.754   0.970   1.429  2.3545  0.0410 -0.2885
10600SOL    HW232700   4.766   0.812   1.468 -1.8572 -0.2892  0.0612
10601SOL     OW32701   3.693   2.007   4.170  0.2515 -0.1501  0.1900
10601SOL    HW132702   3.611   2.052   4.207 -0.7009 -0.7711 -1.0649
10601SOL    HW232703   3.682   1.908   4.176  0.3373 -0.2621 -1.1024
10602SOL     OW32704   1.168   0.992   3.701 -0.3876  0.1166  0.2858
10602SOL    HW132705   1.214   0.928   3.639 -3.2311  0.2623 -2.2067
10602SOL    HW232706   1.229   1.014   3.777  2.3898 -2.0042 -1.1305
10603SOL     OW32707   2.814   6.343   1.454 -0.7709  0.1798 -0.1753
10603SOL    HW132708   2.889   6.296   1.501 -1.6413 -0.8096  0.2526
10603SOL    HW232709   2.834   6.347   1.356 -1.2380 -2.2852 -0.4455
10604SOL     OW32710   1.525   1.061   6.089  0.4205 -0.4361 -0.3211
10604SOL    HW132711   1.616   1.022   6.077  0.3794 -1.0636  1.2081
10604SOL    HW232712   1.484   1.026   6.173  0.1127  2.3799  0.8307
10605SOL     OW32713   2.917   6.433   5.478  0.0164 -0.0014 -0.7673
10605SOL    HW132714   2.874   6.522   5.463  1.3884  0.6024 -1.3292
10605SOL    HW232715   2.949   6.396   5.390 -0.6483 -1.1171 -0.5565
10606SOL     OW32716   1.792   4.271   0.617 -0.3028  0.0752 -0.2482
10606SOL    HW132717   1.803   4.370   0.623  2.1099 -0.1761  0.2975
10606SOL    HW232718   1.833   4.227   0.697 -1.8251 -1.3743 -0.1969
10607SOL     OW32719   4.838   6.949   3.025 -0.1325  0.0662 -0.1507
10607SOL    HW132720   4.862   6.932   2.929 -0.6988  0.2580 -0.3311
10607SOL    HW232721   4.742   6.977   3.031 -0.1876 -0.2321  0.5042
10608SOL     OW32722   6.381   1.181   0.103  0.5913  0.3500 -0.2536
10608SOL    HW132723   6.284   1.199   0.090  0.7505  1.0374 -0.5334
10608SOL    HW232724   6.433   1.225   0.030  1.1433  0.2907  0.0971
10609SOL     OW32725   1.053   2.924   0.420 -0.5128  0.4387  0.7659
10609SOL    HW132726   1.031   3.001   0.481  0.5449  1.7187 -0.3840
10609SOL    HW232727   1.152   2.912   0.418 -0.6075 -0.2561  0.0908
10610SOL     OW32728   6.264   2.239   3.356  0.4999  0.1851  0.4123
10610SOL    HW132729   6.269   2.163   3.291  2.5298  0.7417 -0.1458
10610SOL    HW232730   6.355   2.259   3.391  0.0413  2.4258  0.4926
10611SOL     OW32731   2.925   6.902   6.316 -0.1691  0.4817 -0.2287
10611SOL    HW132732   2.945   6.993   6.281  0.6049  0.2441 -0.4207
10611SOL    HW232733   2.928   6.836   6.240  0.9812  0.0432  0.1830
10612SOL     OW32734   2.432   1.825   2.229 -0.4915 -0.6690 -0.3237
10612SOL    HW132735   2.483   1.767   2.166  0.3259  0.9179 -1.2033
10612SOL    HW232736   2.495   1.889   2.274 -1.4311 -0.0187  0.1068
10613SOL     OW32737   0.956   1.665   6.670 -0.6260  0.3939 -0.2078
10613SOL    HW132738   0.963   1.566   6.667  0.0004  0.3735  1.0450
10613SOL    HW232739   1.029   1.705   6.614 -0.9088  0.1524 -0.7517
10614SOL     OW32740   3.369   5.304   0.796 -0.7086 -0.2033  0.2330
10614SOL    HW132741   3.366   5.205   0.787 -0.6343 -0.3957  1.9196
10614SOL    HW232742   3.294   5.345   0.745 -0.8060 -1.1337 -0.3848
10615SOL     OW32743   3.091   2.127   6.218 -1.1041  0.0986 -0.0309
10615SOL    HW132744   3.148   2.194   6.265 -0.3082  0.2526 -1.1787
10615SOL    HW232745   3.051   2.169   6.136 -2.3562 -0.2058  0.3978
10616SOL     OW32746   3.224   0.134   5.181 -0.4511  0.4360 -0.1130
10616SOL    HW132747   3.143   0.186   5.209 -1.0745  0.0899 -1.2175
10616SOL    HW232748   3.287   0.127   5.258 -0.5580  2.4095  0.2067
10617SOL     OW32749   3.584   0.568   0.023  0.2942 -0.2727 -0.3319
10617SOL    HW132750   3.670   0.553   0.072  0.0215 -0.5315  0.0776
10617SOL    HW232751   3.530   0.637   0.071  0.4274  0.1559 -0.7904
10618SOL     OW32752   3.002   0.103   5.418 -0.3024 -0.2928 -0.0969
10618SOL    HW132753   2.966   0.162   5.346 -0.5106 -1.2435 -0.7800
10618SOL    HW232754   3.036   0.018   5.378  3.1524  0.6912  0.4194
10619SOL     OW32755   2.960   5.775   3.859 -0.3496  0.3904  0.4174
10619SOL    HW132756   2.947   5.869   3.829  0.7573  0.8641  1.3346
10619SOL    HW232757   2.888   5.749   3.922 -0.4696  0.7432  0.4269
10620SOL     OW32758   6.328   4.504   0.866 -0.1628 -0.2432 -0.0099
10620SOL    HW132759   6.305   4.447   0.787 -3.6255  1.3952 -0.3911
10620SOL    HW232760   6.323   4.449   0.949 -1.3610 -0.9969 -0.5472
10621SOL     OW32761   1.176   1.764   6.518 -0.0832 -0.2969  0.3088
10621SOL    HW132762   1.253   1.800   6.572  0.7825 -0.2816 -0.9065
10621SOL    HW232763   1.146   1.832   6.452 -0.5854 -0.6276  0.1891
10622SOL     OW32764   5.726   2.626   3.339  0.3981 -0.0665  0.6087
10622SOL    HW132765   5.753   2.607   3.433  1.2964  0.9951  0.5893
10622SOL    HW232766   5.681   2.546   3.300  1.2226 -0.9863  1.4965
10623SOL     OW32767   4.305   2.493   5.660 -0.7384 -0.3134 -0.1546
10623SOL    HW132768   4.335   2.422   5.724 -2.5088 -1.3370 -0.4058
10623SOL    HW232769   4.210   2.476   5.632 -0.9752  1.7493 -0.8042
10624SOL     OW32770   1.684   2.466   2.032  0.0367 -0.5743 -0.2813
10624SOL    HW132771   1.659   2.371   2.050  1.8492 -1.0798 -0.2726
10624SOL    HW232772   1.662   2.489   1.937  0.7371 -1.4072 -0.6533
10625SOL     OW32773   4.149   0.573   5.372 -0.3112  0.4155  0.1806
10625SOL    HW132774   4.104   0.614   5.451  2.0023 -1.4925  2.6821
10625SOL    HW232775   4.229   0.628   5.348 -0.6697  0.6612 -0.4735
10626SOL     OW32776   4.456   6.967   0.289  0.1662 -0.1953  0.3821
10626SOL    HW132777   4.424   6.948   0.382  0.1971 -1.6143  0.1317
10626SOL    HW232778   4.428   6.892   0.228 -1.0276  1.3334 -1.0504
10627SOL     OW32779   3.906   3.018   0.159 -0.0570  0.2523  0.4030
10627SOL    HW132780   3.821   3.045   0.115  2.0298  2.2661 -2.7994
10627SOL    HW232781   3.953   2.949   0.103  1.5094  0.9644  0.7849
10628SOL     OW32782   4.183   1.730   4.394  0.5807  0.8031 -0.2547
10628SOL    HW132783   4.122   1.780   4.332  1.2184 -0.6277 -2.1168
10628SOL    HW232784   4.159   1.752   4.489 -2.1141  1.1343 -0.9224
10629SOL     OW32785   4.546   4.829   2.964 -0.4071 -0.5048 -0.2643
10629SOL    HW132786   4.564   4.924   2.939  1.8561 -0.7407  0.2879
10629SOL    HW232787   4.551   4.771   2.883 -0.6900 -0.3055 -0.4260
10630SOL     OW32788   4.632   4.901   4.799  0.3729  0.3923 -0.0363
10630SOL    HW132789   4.681   4.986   4.821  1.2621  0.5863 -2.4046
10630SOL    HW232790   4.539   4.923   4.769  0.3801  0.4797  0.0067
10631SOL     OW32791   5.737   1.182   3.199  0.6496 -0.6096 -0.0189
10631SOL    HW132792   5.722   1.145   3.291  1.1230 -0.6849  0.0283
10631SOL    HW232793   5.661   1.154   3.140 -0.4107  0.6429  0.7008
10632SOL     OW32794   2.366   4.381   4.493 -0.8121 -0.3549 -0.7318
10632SOL    HW132795   2.310   4.298   4.487 -0.1894 -0.9804  1.2736
10632SOL    HW232796   2.444   4.373   4.430  0.4907 -2.3688  0.9980
10633SOL     OW32797   2.959   0.549   2.615  0.4811 -0.0071 -0.1660
10633SOL    HW132798   2.987   0.572   2.708 -1.7344 -0.7592  0.7683
10633SOL    HW232799   3.039   0.547   2.555  2.1048 -0.4330  1.9066
10634SOL     OW32800   1.264   6.768   5.428 -0.1657 -0.7193  0.4367
10634SOL    HW132801   1.168   6.751   5.448 -0.1571 -3.8483 -1.5186
10634SOL    HW232802   1.271   6.830   5.350 -0.4878  0.7246  1.5104
10635SOL     OW32803   2.957   1.940   3.849 -0.0860  0.1962 -0.0538
10635SOL    HW132804   2.871   1.980   3.882  0.0555 -0.0420  0.6112
10635SOL    HW232805   3.027   2.012   3.845 -0.5003  0.5662 -1.3412
10636SOL     OW32806   2.366   1.013   1.007  0.4297  0.1983 -0.3742
10636SOL    HW132807   2.413   1.057   1.083  1.7983 -0.3604 -0.8770
10636SOL    HW232808   2.353   0.916   1.026  2.5375 -0.3891 -1.6073
10637SOL     OW32809   0.983   4.904   2.343 -0.6759 -0.4121  0.2909
10637SOL    HW132810   0.912   4.898   2.272  0.2426 -1.4821 -0.5690
10637SOL    HW232811   1.066   4.859   2.311  0.4693  0.9629  1.2165
10638SOL     OW32812   5.844   6.789   5.239 -0.6808 -0.4135  0.2487
10638SOL    HW132813   5.941   6.794   5.266 -0.1352 -0.2458 -1.5926
10638SOL    HW232814   5.831   6.711   5.178 -1.4017  0.3812 -0.6409
10639SOL     OW32815   5.504   5.280   6.446  0.3531 -0.2735  0.2931
10639SOL    HW132816   5.503   5.244   6.539 -0.6666  1.6600  1.0867
10639SOL    HW232817   5.593   5.260   6.403  1.9231  1.1241  2.6574
10640SOL     OW32818   0.712   3.035   4.686 -0.6559 -0.0262 -0.3833
10640SOL    HW132819   0.712   3.133   4.705 -0.5316 -0.4511  2.1586
10640SOL    HW232820   0.695   2.985   4.771  1.5933 -2.2844 -1.1575
10641SOL     OW32821   3.222   6.630   5.435 -0.0678  0.1300  0.4107
10641SOL    HW132822   3.127   6.624   5.404 -0.2369  0.2353  0.9005
10641SOL    HW232823   3.229   6.701   5.505  0.3676  0.0998  0.3975
10642SOL     OW32824   1.928   4.190   1.680 -0.4225 -0.5171 -0.1190
10642SOL    HW132825   1.845   4.195   1.737 -0.7552  0.3976 -0.6640
10642SOL    HW232826   2.007   4.169   1.738 -0.5665  1.4978  0.9047
10643SOL     OW32827   1.364   1.474   5.872  0.3212 -0.0588  0.0336
10643SOL    HW132828   1.380   1.441   5.966  0.1282  0.3013  0.1967
10643SOL    HW232829   1.307   1.409   5.823  1.4712 -0.8855 -0.2438
10644SOL     OW32830   3.470   5.075   4.037  0.4939 -0.1769  0.6074
10644SOL    HW132831   3.431   5.131   3.964  0.6451  0.9281  1.3317
10644SOL    HW232832   3.568   5.097   4.048  0.5961 -0.7040  0.7953
10645SOL     OW32833   1.805   6.582   4.430  0.1992  0.0791  0.4710
10645SOL    HW132834   1.717   6.546   4.401  0.7660 -0.5039 -0.5863
10645SOL    HW232835   1.818   6.562   4.527  0.0203 -1.6401  0.1733
10646SOL     OW32836   3.023   5.660   6.973 -0.5262 -0.5096  0.3218
10646SOL    HW132837   2.991   5.572   6.938 -0.8382 -0.7510  1.1951
10646SOL    HW232838   3.079   5.706   6.903 -1.6219 -0.7078 -0.7200
10647SOL     OW32839   0.892   6.001   5.883 -0.0896  0.0103 -0.7279
10647SOL    HW132840   0.951   6.068   5.928  0.0530 -0.1503 -0.6785
10647SOL    HW232841   0.796   6.025   5.899 -0.0405  0.2860 -0.8314
10648SOL     OW32842   5.952   0.308   6.058  0.3712  0.0695 -0.4691
10648SOL    HW132843   5.964   0.333   5.962 -0.5279  0.1806 -0.5690
10648SOL    HW232844   5.911   0.384   6.108 -3.3699 -1.3512 -0.9930
10649SOL     OW32845   6.897   6.274   2.730 -0.4092  0.4931 -0.3077
10649SOL    HW132846   6.872   6.179   2.709 -0.6347  0.9708 -2.4166
10649SOL    HW232847   6.965   6.274   2.804 -1.1900 -1.2308  0.4774
10650SOL     OW32848   0.768   1.932   2.805 -0.4517  0.1870 -0.6293
10650SOL    HW132849   0.852   1.939   2.751 -0.1307  1.7317  0.0348
10650SOL    HW232850   0.727   2.023   2.815 -2.0856 -0.4989 -0.7303
10651SOL     OW32851   4.132   6.224   5.613  0.1897 -0.3513  0.3395
10651SOL    HW132852   4.041   6.202   5.579  0.3767 -0.7112  0.0709
10651SOL    HW232853   4.135   6.209   5.712 -0.7921  2.1249  0.8078
10652SOL     OW32854   0.987   3.328   1.297  0.2548 -0.3615 -0.3387
10652SOL    HW132855   1.079   3.296   1.273 -0.3857 -2.0015 -0.7502
10652SOL    HW232856   0.920   3.288   1.234 -0.9491 -0.8102  1.1629
10653SOL     OW32857   4.352   6.030   0.502  0.5236  0.3107  1.2857
10653SOL    HW132858   4.430   6.093   0.510  0.7574  0.0282  1.2555
10653SOL    HW232859   4.277   6.076   0.454  1.6824 -0.3328 -1.2665
10654SOL     OW32860   3.791   3.229   6.533 -0.5238 -0.1684 -0.3516
10654SOL    HW132861   3.861   3.279   6.482  1.5663 -2.2572  0.3232
10654SOL    HW232862   3.704   3.232   6.483  0.0542  2.2696 -1.3495
10655SOL     OW32863   5.211   4.304   6.564  0.6830 -0.9369 -0.7720
10655SOL    HW132864   5.207   4.236   6.638 -0.3484 -1.5451 -1.3594
10655SOL    HW232865   5.129   4.362   6.568  0.5478 -1.0682 -1.5258
10656SOL     OW32866   3.083   6.218   0.845  0.1091  0.1499  0.7075
10656SOL    HW132867   3.123   6.308   0.827  2.7380 -0.8871  0.8523
10656SOL    HW232868   3.135   6.148   0.796 -2.0419 -1.3222  0.3695
10657SOL     OW32869   5.121   1.050   3.617  0.3259  0.6135 -0.3098
10657SOL    HW132870   5.150   1.139   3.654  1.2851 -0.4022  1.5638
10657SOL    HW232871   5.171   0.977   3.664 -1.6875 -1.0240 -0.5641
10658SOL     OW32872   1.480   4.377   2.162  0.0281 -0.4340  0.3013
10658SOL    HW132873   1.560   4.354   2.107  0.4186  0.5384  0.4432
10658SOL    HW232874   1.509   4.425   2.245 -0.8114  2.1291 -0.7895
10659SOL     OW32875   4.971   2.317   1.352  0.2359 -0.2992  0.1679
10659SOL    HW132876   4.882   2.284   1.321  1.1490 -2.9826  0.0643
10659SOL    HW232877   4.961   2.364   1.439 -1.3203 -0.2280 -0.0192
10660SOL     OW32878   0.240   6.720   1.419  0.0494 -0.0545 -0.3119
10660SOL    HW132879   0.175   6.780   1.465  0.4446 -0.8897  1.4193
10660SOL    HW232880   0.230   6.627   1.454  2.3365 -0.1602  0.2569
10661SOL     OW32881   3.639   6.110   0.567  0.1390 -0.3006  0.2875
10661SOL    HW132882   3.587   6.109   0.481 -1.4932  1.5838  1.1708
10661SOL    HW232883   3.585   6.067   0.639  0.3018  0.5796  0.9551
10662SOL     OW32884   5.335   6.796   3.675  0.3582  0.4052  0.3170
10662SOL    HW132885   5.334   6.889   3.711 -0.8791  0.6226 -0.2443
10662SOL    HW232886   5.423   6.752   3.698  1.1916  1.8951  0.0880
10663SOL     OW32887   5.619   4.687   3.861  0.0122 -0.0678 -0.0311
10663SOL    HW132888   5.681   4.762   3.839  0.6200 -0.4765  0.2780
10663SOL    HW232889   5.640   4.652   3.952  1.3907 -2.2424 -1.1139
10664SOL     OW32890   2.210   1.803   4.559 -0.0695  0.2833  0.6849
10664SOL    HW132891   2.310   1.793   4.564  0.2539  2.2503 -0.3867
10664SOL    HW232892   2.178   1.769   4.471 -0.1716  0.5809  0.6036
10665SOL     OW32893   5.851   3.701   1.379 -0.1524 -0.0032 -0.6742
10665SOL    HW132894   5.851   3.632   1.451 -1.4774  1.1605  0.4894
10665SOL    HW232895   5.939   3.749   1.379 -0.1053 -0.0671  0.1498
10666SOL     OW32896   2.144   0.559   0.398  0.4211  0.2584 -0.0732
10666SOL    HW132897   2.110   0.479   0.349  2.0608 -0.1546 -0.6335
10666SOL    HW232898   2.153   0.635   0.334 -1.0687  0.8829  0.4440
10667SOL     OW32899   7.015   1.676   4.441  0.1647  0.1252  0.1158
10667SOL    HW132900   6.980   1.722   4.359  0.9167  1.0751  0.3031
10667SOL    HW232901   7.111   1.701   4.454  0.9573 -2.3804 -0.3873
10668SOL     OW32902   1.090   4.078   3.395  0.7136 -0.1377  0.3369
10668SOL    HW132903   1.161   4.087   3.326  0.8888  0.1465  0.5501
10668SOL    HW232904   1.010   4.130   3.367  0.8440  0.1110  0.4228
10669SOL     OW32905   4.517   2.522   0.423  0.1609  0.0067 -0.3521
10669SOL    HW132906   4.606   2.487   0.455  0.5338  2.1852  1.2932
10669SOL    HW232907   4.519   2.622   0.424 -2.1481  0.1086 -0.8323
10670SOL     OW32908   5.951   6.585   1.013 -0.3803  0.6537  0.1332
10670SOL    HW132909   5.980   6.549   0.924 -0.1614 -0.3864  0.6153
10670SOL    HW232910   5.944   6.685   1.008  1.2299  0.7563 -0.5820
10671SOL     OW32911   4.489   5.534   0.891 -0.8085  0.0276  0.0860
10671SOL    HW132912   4.521   5.611   0.945  1.7065  0.7299 -2.2222
10671SOL    HW232913   4.462   5.460   0.953  0.1475  1.4200  2.3124
10672SOL     OW32914   3.033   0.965   6.648  0.0876  0.1593  0.5269
10672SOL    HW132915   3.024   0.983   6.551  1.6891 -0.0522  0.3017
10672SOL    HW232916   2.949   0.923   6.683  0.3609 -2.1731 -1.3446
10673SOL     OW32917   4.944   4.340   1.144  0.6140 -0.0543 -0.3908
10673SOL    HW132918   4.966   4.284   1.064 -1.2170  1.3372 -1.9647
10673SOL    HW232919   4.847   4.331   1.165  1.1067 -0.5995  1.9045
10674SOL     OW32920   1.703   2.442   3.658 -0.4230 -0.1940  0.4621
10674SOL    HW132921   1.718   2.536   3.689  0.1917 -0.1678  0.0946
10674SOL    HW232922   1.733   2.433   3.563  2.2919 -1.4769  1.3547
10675SOL     OW32923   1.851   6.001   6.965  0.6897 -0.3370  0.5164
10675SOL    HW132924   1.948   6.007   6.942  0.6193 -0.2250  0.2514
10675SOL    HW232925   1.820   6.089   7.000 -0.1036  0.6875 -2.4583
10676SOL     OW32926   5.801   6.430   1.194 -0.1321 -0.1107 -0.1804
10676SOL    HW132927   5.826   6.499   1.126  2.6520 -0.9563 -0.1242
10676SOL    HW232928   5.846   6.451   1.281  0.0775 -1.5335  0.0746
10677SOL     OW32929   5.946   3.507   2.414 -0.3764  0.1708  0.3890
10677SOL    HW132930   5.970   3.601   2.391  2.2677 -0.2423  1.1200
10677SOL    HW232931   6.020   3.446   2.387 -2.0347 -1.7427 -0.0716
10678SOL     OW32932   6.486   0.575   3.620 -0.6284  0.7859  0.0039
10678SOL    HW132933   6.443   0.528   3.542 -2.0427  0.6407  0.8482
10678SOL    HW232934   6.461   0.672   3.618  0.0195  0.9510 -0.1844
10679SOL     OW32935   3.899   3.013   4.446  0.7378  0.4267  0.5653
10679SOL    HW132936   3.952   2.998   4.363  0.3025  1.2064  0.1402
10679SOL    HW232937   3.823   3.075   4.427 -0.2573 -0.5520  1.1959
10680SOL     OW32938   6.833   6.915   3.273  0.1526  0.0399 -0.6244
10680SOL    HW132939   6.804   6.826   3.306  0.3305  0.3499  0.4185
10680SOL    HW232940   6.762   6.955   3.215 -0.0795 -0.6185 -0.7939
10681SOL     OW32941   1.659   2.236   1.608 -0.0602 -0.2019  0.3100
10681SOL    HW132942   1.568   2.221   1.645 -0.2833 -1.1027 -0.5757
10681SOL    HW232943   1.728   2.199   1.670 -0.4335 -1.7917 -0.1950
10682SOL     OW32944   6.116   3.562   6.592  0.3321  0.1608 -0.2298
10682SOL    HW132945   6.201   3.598   6.553  1.4131 -1.0722  0.8791
10682SOL    HW232946   6.042   3.627   6.576  0.9274  0.2459 -3.2882
10683SOL     OW32947   6.063   2.114   4.948 -0.2854  0.1957  0.4594
10683SOL    HW132948   6.155   2.150   4.930 -0.2453 -0.5542 -0.9636
10683SOL    HW232949   6.021   2.087   4.862 -0.1755 -3.4910  1.3879
10684SOL     OW32950   3.906   1.154   0.519  0.4191 -0.2969 -0.5021
10684SOL    HW132951   3.973   1.137   0.447  0.1555 -0.7454 -0.6498
10684SOL    HW232952   3.909   1.078   0.585  0.9847  0.3346  0.2160
10685SOL     OW32953   4.658   1.784   3.278  0.2199  0.6256  0.5631
10685SOL    HW132954   4.566   1.757   3.249 -0.2356  0.2435  2.2298
10685SOL    HW232955   4.671   1.882   3.262 -0.4805  0.6817  0.3136
10686SOL     OW32956   5.739   6.645   4.128  0.4844  0.3777  0.1620
10686SOL    HW132957   5.697   6.573   4.072  0.4289  0.3437  0.2477
10686SOL    HW232958   5.714   6.632   4.224  1.0882  0.0748  0.2802
10687SOL     OW32959   4.420   0.964   5.355 -0.1186  0.0735  0.2193
10687SOL    HW132960   4.372   1.048   5.331  2.4413  0.9104 -2.5306
10687SOL    HW232961   4.485   0.983   5.428  0.4559  0.5161 -0.3972
10688SOL     OW32962   1.254   5.052   6.381 -0.1994 -0.3435 -0.1545
10688SOL    HW132963   1.188   4.990   6.423 -0.4343  1.4121  2.2697
10688SOL    HW232964   1.206   5.121   6.327 -0.0790 -0.9566 -1.0717
10689SOL     OW32965   1.587   1.918   6.880  0.0755  0.3409  0.1191
10689SOL    HW132966   1.561   2.005   6.921  0.6531 -0.3284  1.9857
10689SOL    HW232967   1.537   1.844   6.924  0.4994 -0.3956 -0.6063
10690SOL     OW32968   2.270   4.327   4.754 -0.3504  0.6851 -0.1361
10690SOL    HW132969   2.343   4.361   4.813  0.4643  0.7695 -1.1654
10690SOL    HW232970   2.294   4.342   4.658 -1.4493  0.1614 -0.5182
10691SOL     OW32971   2.366   4.866   2.121 -0.1665  0.1369 -0.8146
10691SOL    HW132972   2.296   4.853   2.051  0.9696  0.1720 -2.0022
10691SOL    HW232973   2.361   4.792   2.187 -0.4932 -0.5718 -1.6119
10692SOL     OW32974   6.835   5.479   3.190  0.1620  0.5452  0.4307
10692SOL    HW132975   6.882   5.405   3.142  1.0455  0.2668  1.6879
10692SOL    HW232976   6.737   5.475   3.169  0.0372 -1.5371  1.1775
10693SOL     OW32977   6.400   5.242   5.754  0.2096 -0.2645 -0.4035
10693SOL    HW132978   6.457   5.323   5.741 -1.1619  0.4069 -2.9700
10693SOL    HW232979   6.374   5.235   5.851 -0.7570  3.1985 -0.2700
10694SOL     OW32980   3.536   6.013   2.895 -0.1074 -0.2928  0.7047
10694SOL    HW132981   3.603   5.951   2.854  0.7126  0.7013  0.4893
10694SOL    HW232982   3.498   6.073   2.825 -2.3305 -1.7772  0.5563
10695SOL     OW32983   1.474   0.025   6.377 -0.5157 -0.4059 -0.1655
10695SOL    HW132984   1.411   0.101   6.360 -1.2804 -1.0437 -0.1926
10695SOL    HW232985   1.479  -0.033   6.297 -1.6260 -1.6085  0.6077
10696SOL     OW32986   5.926   2.758   0.691  0.1536  0.0948 -0.1969
10696SOL    HW132987   5.844   2.702   0.675  1.0016 -0.6634 -2.1410
10696SOL    HW232988   6.003   2.699   0.712  0.6428  0.6807 -0.3243
10697SOL     OW32989   6.912   3.377   6.304  0.2617 -0.5570 -0.1978
10697SOL    HW132990   6.942   3.300   6.359 -1.1673 -2.0367 -1.3702
10697SOL    HW232991   6.868   3.445   6.362  0.5372 -1.1416  0.7150
10698SOL     OW32992   4.858   1.489   6.124 -0.0955 -0.0867 -0.8163
10698SOL    HW132993   4.834   1.510   6.218  1.6483  0.3704 -0.4308
10698SOL    HW232994   4.861   1.573   6.070 -0.4501 -0.2667 -1.1218
10699SOL     OW32995   3.062   6.361   2.002  0.0383 -0.0491 -0.3165
10699SOL    HW132996   2.972   6.353   2.046 -1.8302  0.8509 -3.6385
10699SOL    HW232997   3.068   6.447   1.952  2.0306 -0.9235 -1.7305
10700SOL     OW32998   3.094   1.576   2.649  0.0157 -0.1370 -0.7948
10700SOL    HW132999   3.142   1.580   2.736  0.0738  1.5779 -0.8636
10700SOL    HW233000   2.998   1.551   2.665 -0.2889  1.3521 -0.0559
10701SOL     OW33001   3.558   1.803   0.326 -0.1967 -0.2054  0.3436
10701SOL    HW133002   3.522   1.716   0.291 -0.2096 -0.1568  0.2374
10701SOL    HW233003   3.517   1.879   0.275  1.8123 -0.2039 -1.4026
10702SOL     OW33004   3.953   0.900   0.683 -0.4140 -0.4653 -0.4475
10702SOL    HW133005   3.917   0.822   0.632 -0.1111  0.5149 -2.2877
10702SOL    HW233006   4.052   0.893   0.690 -0.3442 -0.0970 -0.9481
10703SOL     OW33007   6.584   6.337   6.675  0.7613  0.2715 -0.3098
10703SOL    HW133008   6.596   6.339   6.576 -0.6020  1.3312 -0.4786
10703SOL    HW233009   6.487   6.325   6.697  0.3417  4.1598  0.7868
10704SOL     OW33010   1.145   2.235   2.389  0.0659 -0.0921 -0.4607
10704SOL    HW133011   1.138   2.178   2.307  2.4680  0.1320 -0.9061
10704SOL    HW233012   1.173   2.179   2.466 -0.7972 -0.0518 -0.1085
10705SOL     OW33013   4.495   4.191   6.499  0.3105  0.1502  0.2875
10705SOL    HW133014   4.509   4.113   6.558 -2.2255  0.3513  1.2965
10705SOL    HW233015   4.416   4.174   6.439  1.1142  1.0493 -1.0809
10706SOL     OW33016   3.567   2.452   6.622 -0.6811 -0.3207  0.5919
10706SOL    HW133017   3.660   2.471   6.654 -1.1197  0.8870  1.2064
10706SOL    HW233018   3.570   2.390   6.544  0.6687  0.1051  0.2886
10707SOL     OW33019   5.969   0.989   5.706 -0.2957 -0.8512 -0.1886
10707SOL    HW133020   5.990   1.075   5.659  0.2279 -1.3600 -0.8916
10707SOL    HW233021   5.884   0.951   5.670 -0.7828 -0.3996  0.4545
10708SOL     OW33022   1.246   4.404   1.461  0.4124  0.1605  0.3403
10708SOL    HW133023   1.168   4.460   1.433 -0.1469 -0.3293  0.8756
10708SOL    HW233024   1.214   4.329   1.519  1.0360 -1.1293 -0.9008
10709SOL     OW33025   5.402   3.313   6.398  0.3191  0.0150 -0.0854
10709SOL    HW133026   5.389   3.233   6.456  1.1355 -0.3810 -0.4237
10709SOL    HW233027   5.460   3.288   6.320  1.2327  1.1185  0.2165
10710SOL     OW33028   2.855   6.060   1.188  0.1258 -0.1412  0.1517
10710SOL    HW133029   2.853   6.157   1.163  1.6576 -0.0033  0.4383
10710SOL    HW233030   2.822   6.005   1.111  3.0937  0.3833 -1.6748
10711SOL     OW33031   5.874   2.276   5.090  0.5937  0.6389 -0.5769
10711SOL    HW133032   5.796   2.213   5.091  1.8572 -0.9763  0.2802
10711SOL    HW233033   5.952   2.232   5.046  2.2495  0.5952  2.1598
10712SOL     OW33034   5.307   2.527   6.985  0.3601  0.2453 -0.1747
10712SOL    HW133035   5.332   2.592   7.057  0.5818 -0.1249  0.0835
10712SOL    HW233036   5.253   2.574   6.915  1.3907  0.9548 -0.5157
10713SOL     OW33037   5.169   0.416   0.268 -0.4610 -0.6374  0.4415
10713SOL    HW133038   5.113   0.417   0.185 -0.2817 -0.4884  0.3203
10713SOL    HW233039   5.186   0.322   0.296 -0.5255 -0.6887  0.3094
10714SOL     OW33040   2.069   2.281   1.350 -0.2026  0.3328  0.0731
10714SOL    HW133041   2.141   2.235   1.403  0.6660  1.1079 -0.4011
10714SOL    HW233042   1.991   2.220   1.341 -0.0496 -0.1174  1.5445
10715SOL     OW33043   5.404   4.222   4.804 -0.7211 -0.3542  0.3551
10715SOL    HW133044   5.468   4.288   4.843 -1.3725  0.9494 -0.6935
10715SOL    HW233045   5.439   4.129   4.818  1.4521  0.3110 -0.3183
10716SOL     OW33046   6.727   2.179   5.138  0.6822 -0.1884  0.7944
10716SOL    HW133047   6.630   2.203   5.133  0.4369 -1.2040  0.4536
10716SOL    HW233048   6.777   2.229   5.067  0.5572  0.9233  1.4552
10717SOL     OW33049   3.202   0.521   5.744 -0.3691 -0.6152  0.6845
10717SOL    HW133050   3.173   0.446   5.803  1.3217 -2.3792 -0.5780
10717SOL    HW233051   3.201   0.491   5.648  2.2352  0.2680  0.2977
10718SOL     OW33052   1.410   1.283   2.547 -0.2365 -0.6570 -0.1394
10718SOL    HW133053   1.441   1.192   2.573  2.9162  0.7894  1.6867
10718SOL    HW233054   1.445   1.306   2.456  2.5467  0.1143  1.0146
10719SOL     OW33055   5.354   3.481   2.545 -0.0710 -0.3971 -0.1485
10719SOL    HW133056   5.415   3.408   2.513  0.1551  0.4394 -1.7270
10719SOL    HW233057   5.402   3.537   2.613  1.1805  0.5667 -1.7521
10720SOL     OW33058   1.960   6.339   4.723  0.5906 -0.0352 -0.1179
10720SOL    HW133059   1.936   6.429   4.686 -0.9964 -0.5176 -0.3097
10720SOL    HW233060   1.990   6.279   4.649 -1.4585 -0.6368 -0.5135
10721SOL     OW33061   6.189   1.083   3.288  0.5424  0.4000 -0.0798
10721SOL    HW133062   6.153   1.135   3.365  0.2223  1.4575 -0.9031
10721SOL    HW233063   6.268   1.029   3.316 -2.5812 -3.4797  2.3187
10722SOL     OW33064   2.729   6.654   6.877  0.6046  0.5101  0.0548
10722SOL    HW133065   2.637   6.680   6.847  0.3288  0.3331  0.7294
10722SOL    HW233066   2.792   6.657   6.799  0.4079  2.3272 -0.0577
10723SOL     OW33067   1.432   0.852   2.720 -0.2891 -0.4484  0.3350
10723SOL    HW133068   1.518   0.827   2.765 -0.8921 -0.9142  1.2622
10723SOL    HW233069   1.414   0.787   2.646  0.0896 -0.4227  0.2165
10724SOL     OW33070   0.621   0.722   4.467 -0.0355 -0.3616  0.1427
10724SOL    HW133071   0.522   0.739   4.473 -0.0150  0.6208 -1.7672
10724SOL    HW233072   0.668   0.782   4.532 -0.5646  0.7239 -0.4502
10725SOL     OW33073   0.005   6.257   6.802  0.0863 -0.1671 -0.4732
10725SOL    HW133074   0.030   6.340   6.752  0.1594  0.4176  0.5087
10725SOL    HW233075  -0.087   6.228   6.775  1.3504 -1.8690 -3.5086
10726SOL     OW33076   1.454   3.119   2.520  0.4285 -0.1715  0.0948
10726SOL    HW133077   1.536   3.144   2.470 -0.0371  0.5072 -0.3434
10726SOL    HW233078   1.420   3.031   2.487  0.9410 -0.4223  0.2337
10727SOL     OW33079   6.593   3.497   3.363 -0.2985  0.4361  0.3994
10727SOL    HW133080   6.507   3.468   3.320 -0.8584  0.9511  1.1458
10727SOL    HW233081   6.574   3.534   3.454  0.7908 -0.0522  0.8476
10728SOL     OW33082   0.155   6.215   5.143 -0.4221 -0.0247  0.1926
10728SOL    HW133083   0.113   6.174   5.062  1.6538 -0.7106 -0.5956
10728SOL    HW233084   0.100   6.193   5.224 -0.7288 -2.2794 -0.5574
10729SOL     OW33085   0.891   4.685   2.172 -0.0379 -0.5195  0.5726
10729SOL    HW133086   0.828   4.759   2.149 -0.8119 -1.1917  0.4734
10729SOL    HW233087   0.977   4.723   2.205 -0.0652  0.4300 -0.4015
10730SOL     OW33088   2.927   5.641   3.205  0.4568  0.0431 -0.5359
10730SOL    HW133089   2.987   5.695   3.145 -0.5182  0.2860 -1.3071
10730SOL    HW233090   2.967   5.551   3.219 -0.1397 -0.6761 -3.0296
10731SOL     OW33091   1.758   6.777   6.532 -0.1448  0.1794  0.3516
10731SOL    HW133092   1.661   6.764   6.514  0.0554 -2.0695  0.5370
10731SOL    HW233093   1.784   6.726   6.614  1.4054 -0.3032 -0.3949
10732SOL     OW33094   0.313   2.639   6.516  0.3078  0.0315 -0.3685
10732SOL    HW133095   0.262   2.718   6.550 -1.2277 -0.8725 -0.4611
10732SOL    HW233096   0.262   2.597   6.441  2.1991  0.2530 -1.8781
10733SOL     OW33097   7.000   5.650   4.587  0.3725  0.2553 -1.1999
10733SOL    HW133098   6.975   5.706   4.509  0.1471 -0.1927 -1.4532
10733SOL    HW233099   6.962   5.690   4.671  0.4465  0.6272 -1.3430
10734SOL     OW33100   1.165   0.179   2.759  0.1966 -0.1186  0.4210
10734SOL    HW133101   1.263   0.177   2.780  0.3354  2.0556  0.1144
10734SOL    HW233102   1.115   0.129   2.831  1.4516 -0.6377  0.9561
10735SOL     OW33103   7.013   5.545   5.242 -0.0078 -0.9361  0.1062
10735SOL    HW133104   7.090   5.493   5.207  0.0664  0.5834 -2.1951
10735SOL    HW233105   6.957   5.486   5.301  1.5649 -2.7416 -0.1148
10736SOL     OW33106   6.389   2.617   5.419 -0.0693  0.3114 -0.4506
10736SOL    HW133107   6.392   2.612   5.320 -0.1301  1.8882 -0.5718
10736SOL    HW233108   6.311   2.566   5.454 -1.3636  1.5634 -1.4104
10737SOL     OW33109   2.751   2.864   6.763  0.2099 -0.4234  0.3518
10737SOL    HW133110   2.695   2.883   6.683 -1.0702 -0.5712  1.1774
10737SOL    HW233111   2.711   2.908   6.844  1.9847  0.5173  0.7830
10738SOL     OW33112   2.259   5.478   2.190 -0.0262 -0.3106 -0.1047
10738SOL    HW133113   2.249   5.554   2.125  1.2813  0.2359  0.2969
10738SOL    HW233114   2.220   5.504   2.278  1.4833  0.3776  0.3804
10739SOL     OW33115   1.227   2.208   5.735  1.0634 -0.3884 -0.2700
10739SOL    HW133116   1.204   2.302   5.759  0.1498 -0.8212  0.6690
10739SOL    HW233117   1.179   2.146   5.797  1.6743 -1.4715 -0.8566
10740SOL     OW33118   2.118   2.994   1.626  0.1444 -0.6987  0.0804
10740SOL    HW133119   2.144   3.080   1.672 -1.5075  0.2407 -0.6668
10740SOL    HW233120   2.191   2.927   1.639  1.7951  1.0041  0.1527
10741SOL     OW33121   0.268   0.387   5.422 -0.1653  0.0956  0.1873
10741SOL    HW133122   0.241   0.443   5.343 -1.4588  0.3028  0.7579
10741SOL    HW233123   0.362   0.357   5.410 -0.3934 -0.0385 -1.5398
10742SOL     OW33124   0.623   6.223   0.086 -0.0356 -0.6031  0.6262
10742SOL    HW133125   0.553   6.243   0.155 -1.7634  1.4125 -1.5172
10742SOL    HW233126   0.581   6.175   0.009  0.7920  0.9469 -0.8700
10743SOL     OW33127   5.672   2.746   5.176  0.0358 -0.3257 -0.4911
10743SOL    HW133128   5.739   2.793   5.233 -0.2049 -0.3257 -0.2067
10743SOL    HW233129   5.713   2.663   5.137  0.2615 -0.2193 -0.4805
10744SOL     OW33130   4.201   2.370   6.524  0.0840  0.1986 -0.0585
10744SOL    HW133131   4.131   2.362   6.595  1.5106  1.1494  1.5535
10744SOL    HW233132   4.160   2.355   6.434 -2.3373  1.4997  0.7378
10745SOL     OW33133   6.606   3.118   2.495  0.1163  0.3879  0.0033
10745SOL    HW133134   6.579   3.120   2.591 -0.1927  1.2641 -0.0915
10745SOL    HW233135   6.537   3.165   2.440  0.8313  0.8596 -0.5091
10746SOL     OW33136   5.913   2.203   2.138 -0.3541 -0.4859 -0.2908
10746SOL    HW133137   5.899   2.238   2.045 -0.6282 -1.0246 -0.4571
10746SOL    HW233138   5.849   2.249   2.200  1.5964  1.8413  0.1488
10747SOL     OW33139   6.524   2.306   4.025  0.1169 -0.4861  0.4427
10747SOL    HW133140   6.565   2.398   4.021  0.6571 -0.6830  1.2421
10747SOL    HW233141   6.549   2.255   3.943  0.1729 -0.0637  0.1947
10748SOL     OW33142   1.535   1.375   0.131  0.0832  0.1435  0.0284
10748SOL    HW133143   1.584   1.456   0.160  0.8261 -0.1065 -0.5008
10748SOL    HW233144   1.533   1.371   0.031  0.3961 -0.6846  0.0466
10749SOL     OW33145   1.994   5.589   3.968  0.4574  0.2978  0.2114
10749SOL    HW133146   1.902   5.624   3.982  0.6950  1.0669 -0.1159
10749SOL    HW233147   2.009   5.572   3.871  0.0050 -1.6957  0.4447
10750SOL     OW33148   5.990   6.730   6.968  0.1552 -0.2766 -0.3118
10750SOL    HW133149   5.906   6.677   6.979  0.3019 -0.6445 -0.8691
10750SOL    HW233150   6.056   6.702   7.038 -0.1081 -0.1527 -0.0166
10751SOL     OW33151   0.519   6.765   4.903 -0.4249 -0.4873 -0.2386
10751SOL    HW133152   0.466   6.759   4.988  0.6752 -0.8200  0.4521
10751SOL    HW233153   0.601   6.709   4.911  0.0197 -0.0186 -1.2883
10752SOL     OW33154   0.779   1.227   3.848 -0.2439 -0.3243  0.4876
10752SOL    HW133155   0.750   1.179   3.766  2.1887  2.3036 -2.1607
10752SOL    HW233156   0.877   1.212   3.863  0.2999  2.4343  0.3555
10753SOL     OW33157   5.626   4.313   4.405 -0.1999  0.7199  0.5883
10753SOL    HW133158   5.704   4.366   4.373  0.5224  0.3912  1.7301
10753SOL    HW233159   5.597   4.348   4.495 -0.8441  0.3003  0.5519
10754SOL     OW33160   4.740   1.886   2.101 -0.1857 -0.2838  0.2938
10754SOL    HW133161   4.715   1.825   2.026 -0.2325 -0.6215  0.5750
10754SOL    HW233162   4.668   1.954   2.115 -0.1576 -0.1979  0.0076
10755SOL     OW33163   4.905   6.034   0.501 -0.1841  0.0069  0.1408
10755SOL    HW133164   4.900   5.938   0.528 -2.6978  0.4313  1.5364
10755SOL    HW233165   4.915   6.091   0.583  0.0428  0.9885 -0.5540
10756SOL     OW33166   2.455   5.366   6.466 -0.2103  0.2023 -0.6404
10756SOL    HW133167   2.441   5.417   6.381  0.0088 -0.5733 -1.1522
10756SOL    HW233168   2.454   5.268   6.447  0.3179  0.0235  0.1765
10757SOL     OW33169   1.807   3.257   5.456 -0.3668  0.3772  0.5709
10757SOL    HW133170   1.769   3.215   5.374 -0.2110  1.2713  0.0239
10757SOL    HW233171   1.888   3.310   5.432 -0.5614  0.9983  1.2260
10758SOL     OW33172   4.589   6.592   0.328  0.4476  0.3286  0.0646
10758SOL    HW133173   4.668   6.643   0.295 -1.2257  3.5062  0.5526
10758SOL    HW233174   4.505   6.633   0.292 -1.1283 -0.8373  2.1564
10759SOL     OW33175   1.886   2.926   5.262 -0.3681  0.0145 -0.4542
10759SOL    HW133176   1.986   2.917   5.266 -0.5753 -2.3653  1.0819
10759SOL    HW233177   1.846   2.841   5.231 -1.9608  0.9388 -1.0378
10760SOL     OW33178   0.332   6.110   0.795 -0.3784  0.7712 -0.1089
10760SOL    HW133179   0.420   6.120   0.842 -0.0084  2.5109 -1.0899
10760SOL    HW233180   0.322   6.016   0.763  1.2987  0.6286 -0.3062
10761SOL     OW33181   0.278   1.836   6.789  0.5174 -0.4112  0.3535
10761SOL    HW133182   0.369   1.870   6.768  0.2735 -0.7178 -1.3768
10761SOL    HW233183   0.266   1.829   6.888  2.2380 -0.0667  0.6063
10762SOL     OW33184   4.879   0.266   6.046 -0.2499  0.0049  0.0998
10762SOL    HW133185   4.886   0.256   6.146 -0.8575 -0.8220  0.0744
10762SOL    HW233186   4.783   0.277   6.021 -0.1629 -0.4312 -0.4374
10763SOL     OW33187   4.503   4.501   1.556  0.0677 -0.2439 -0.1611
10763SOL    HW133188   4.432   4.562   1.591  0.0286 -0.6044  0.3885
10763SOL    HW233189   4.585   4.555   1.536 -0.3028  0.1545 -0.6789
10764SOL     OW33190   5.913   1.202   4.836 -0.2180  0.1748 -0.2792
10764SOL    HW133191   5.859   1.192   4.752 -0.4245 -0.3561 -0.0885
10764SOL    HW233192   5.852   1.228   4.912 -0.2170 -0.4508 -0.0575
10765SOL     OW33193   3.360   6.568   2.090 -0.7735 -0.8136  0.6302
10765SOL    HW133194   3.431   6.499   2.103 -0.4513 -0.8886 -1.2626
10765SOL    HW233195   3.388   6.633   2.019 -2.6321 -0.9176 -0.2714
10766SOL     OW33196   4.518   3.037   0.705 -0.2599 -0.1682 -0.1429
10766SOL    HW133197   4.572   2.958   0.677 -0.4070  0.3311 -1.9256
10766SOL    HW233198   4.569   3.090   0.772  0.7280 -0.6200 -0.5236
10767SOL     OW33199   6.068   3.619   4.815 -0.0426 -0.3303 -0.1376
10767SOL    HW133200   6.042   3.608   4.719 -0.8266 -2.9957  0.3052
10767SOL    HW233201   5.989   3.651   4.868  0.4288  1.2789 -0.3709
10768SOL     OW33202   0.774   0.101   3.825  0.1312  0.3528 -0.0722
10768SOL    HW133203   0.810   0.091   3.733  0.4891  0.2174  0.0836
10768SOL    HW233204   0.817   0.179   3.871  0.3353  0.1043  0.1636
10769SOL     OW33205   5.137   6.109   6.664  0.2656 -0.6472 -0.3793
10769SOL    HW133206   5.079   6.129   6.744 -0.3524 -2.3087 -0.3762
10769SOL    HW233207   5.226   6.074   6.696  0.5624  0.0656 -0.4119
10770SOL     OW33208   6.353   4.956   1.086 -0.7844  0.3091  0.3707
10770SOL    HW133209   6.411   4.874   1.088 -0.5740  0.4567  0.2600
10770SOL    HW233210   6.294   4.957   1.167  0.3274  0.8705  1.2001
10771SOL     OW33211   2.407   2.266   4.225 -0.2102  0.0553 -0.3674
10771SOL    HW133212   2.373   2.184   4.271 -0.7109  1.1001  1.2316
10771SOL    HW233213   2.379   2.265   4.129 -1.6538 -0.8656  0.0279
10772SOL     OW33214   1.811   3.131   3.912  0.1788 -1.1726  0.2540
10772SOL    HW133215   1.761   3.199   3.858 -0.8804 -1.5029  0.7983
10772SOL    HW233216   1.881   3.177   3.967  0.6416 -0.7316 -0.6795
10773SOL     OW33217   5.547   1.190   5.113 -0.6523  0.0433  0.1223
10773SOL    HW133218   5.548   1.107   5.169 -0.0483  0.1922  0.3339
10773SOL    HW233219   5.452   1.212   5.088 -0.6944 -2.1508 -2.0910
10774SOL     OW33220   5.280   5.691   5.426 -0.0941 -0.3607  0.5766
10774SOL    HW133221   5.343   5.635   5.480 -0.5936 -2.7468 -1.1440
10774SOL    HW233222   5.328   5.772   5.393  1.5089 -1.1230  0.9110
10775SOL     OW33223   2.909   3.571   2.941  0.9643  0.3549 -0.3746
10775SOL    HW133224   2.964   3.598   2.863  0.5867 -0.5332 -0.9692
10775SOL    HW233225   2.916   3.639   3.013  0.7446  1.5646 -1.4669
10776SOL     OW33226   2.917   1.789   3.640 -0.3024 -0.4185 -0.0107
10776SOL    HW133227   2.831   1.821   3.601  1.1873  1.5845 -1.8290
10776SOL    HW233228   2.941   1.846   3.719  1.7278  2.4750 -2.5048
10777SOL     OW33229   3.063   2.435   0.473 -0.8199  0.1181  0.5546
10777SOL    HW133230   3.140   2.396   0.422 -1.8364  0.0712 -1.0222
10777SOL    HW233231   3.095   2.511   0.530  0.2972  0.5092 -0.5593
10778SOL     OW33232   1.163   5.242   6.179  0.0934 -0.0643  0.3626
10778SOL    HW133233   1.128   5.235   6.086  0.7801 -2.9955  0.2365
10778SOL    HW233234   1.196   5.335   6.196  1.7230  0.0912 -2.9676
10779SOL     OW33235   0.743   0.458   0.076 -0.7444 -0.1427 -0.2209
10779SOL    HW133236   0.803   0.520   0.126 -0.4481 -0.8569  0.3367
10779SOL    HW233237   0.650   0.465   0.112 -0.3337 -1.4152  1.2134
10780SOL     OW33238   6.044   6.960   2.610  0.5805  0.0297  0.4333
10780SOL    HW133239   6.061   7.054   2.638  0.5456 -0.2100  1.2908
10780SOL    HW233240   6.072   6.898   2.683  0.9663 -0.6518 -0.2761
10781SOL     OW33241   1.346   3.521   6.654  0.0664  0.0839 -0.4249
10781SOL    HW133242   1.264   3.496   6.706 -1.1361 -0.4329 -2.4470
10781SOL    HW233243   1.414   3.560   6.716 -2.1692  1.7354  1.1920
10782SOL     OW33244   6.301   3.209   0.711  0.0190  0.7040 -0.3208
10782SOL    HW133245   6.243   3.194   0.791  0.7634  2.4209  0.5868
10782SOL    HW233246   6.314   3.122   0.663 -0.2303 -0.4351  1.5652
10783SOL     OW33247   1.080   2.211   2.090 -0.3525 -0.4394 -0.2038
10783SOL    HW133248   1.086   2.238   1.994  0.3543  0.9697  0.2072
10783SOL    HW233249   1.006   2.262   2.135 -0.3660 -0.7303  0.1138
10784SOL     OW33250   4.045   5.734   0.978 -0.2493 -0.1559  0.0403
10784SOL    HW133251   4.050   5.643   0.937 -0.4769 -0.0424 -0.2358
10784SOL    HW233252   4.032   5.725   1.077 -0.1114 -0.4222  0.0348
10785SOL     OW33253   1.074   3.613   3.632  0.0935 -0.3738  0.0117
10785SOL    HW133254   1.001   3.598   3.699 -1.3035  0.1763 -1.3423
10785SOL    HW233255   1.117   3.701   3.648 -0.0934 -0.3365  0.3101
10786SOL     OW33256   6.859   4.936   1.538 -0.2845 -0.3235  0.3341
10786SOL    HW133257   6.773   4.938   1.488  0.8090 -0.4840 -1.6451
10786SOL    HW233258   6.858   4.858   1.602 -0.5095 -2.1765 -1.8079
10787SOL     OW33259   0.675   1.892   2.140 -0.3294  0.4209 -0.2843
10787SOL    HW133260   0.724   1.853   2.062  0.3151  1.5791 -0.4697
10787SOL    HW233261   0.634   1.818   2.193 -0.8888 -0.3793 -1.7783
10788SOL     OW33262   0.103   1.036   0.480  0.8084  0.3419 -0.3094
10788SOL    HW133263   0.059   0.964   0.427 -2.7810  2.4035 -0.4063
10788SOL    HW233264   0.179   1.074   0.427  1.4434 -1.9121 -1.1100
10789SOL     OW33265   1.567   0.712   1.331 -0.1157 -0.0277  0.3208
10789SOL    HW133266   1.612   0.623   1.340 -0.6716 -0.4377 -0.7509
10789SOL    HW233267   1.497   0.707   1.260  1.7681  2.0153 -1.8648
10790SOL     OW33268   3.943   0.304   0.250  0.6151 -0.0189 -0.1630
10790SOL    HW133269   4.026   0.347   0.287  0.1153 -1.2115  2.5389
10790SOL    HW233270   3.875   0.294   0.323 -0.3602 -2.7746 -1.3317
10791SOL     OW33271   1.199   3.662   4.705 -0.5794  0.4126 -0.3139
10791SOL    HW133272   1.260   3.588   4.732  0.4206  1.0211 -0.8694
10791SOL    HW233273   1.226   3.698   4.616 -0.2699  2.2499  0.4733
10792SOL     OW33274   2.531   2.782   0.442 -0.4645  0.2529 -0.4130
10792SOL    HW133275   2.547   2.684   0.437 -0.4264  0.2842 -0.9730
10792SOL    HW233276   2.433   2.800   0.435 -0.5330  0.2180  0.3741
10793SOL     OW33277   0.744   1.978   5.184 -0.0346 -0.2806 -0.4376
10793SOL    HW133278   0.779   1.896   5.139  0.4289  0.2954 -1.1598
10793SOL    HW233279   0.820   2.037   5.212 -0.3594  0.8276 -1.7321
10794SOL     OW33280   2.929   3.354   3.409  0.7046 -0.1192  0.2963
10794SOL    HW133281   2.953   3.264   3.447 -1.3632 -1.7118 -1.8747
10794SOL    HW233282   2.904   3.344   3.312  1.5280  3.0312 -0.3641
10795SOL     OW33283   1.788   0.686   4.380 -0.2187  0.4765  0.2161
10795SOL    HW133284   1.848   0.741   4.438 -0.4564  1.2355 -0.2416
10795SOL    HW233285   1.696   0.683   4.421  0.0665 -0.5163  0.8128
10796SOL     OW33286   5.187   1.861   5.969 -0.2584 -0.4063 -0.5041
10796SOL    HW133287   5.274   1.905   5.948 -0.7697  1.6920  1.3648
10796SOL    HW233288   5.187   1.830   6.063 -1.6793  0.0622 -0.3235
10797SOL     OW33289   2.571   1.066   0.289 -0.4231  0.1532  0.1156
10797SOL    HW133290   2.669   1.044   0.286 -0.9852 -3.0109  1.1108
10797SOL    HW233291   2.545   1.085   0.384 -0.9550 -0.1512  0.0346
10798SOL     OW33292   2.893   4.014   6.871  0.5934 -0.1561 -0.1696
10798SOL    HW133293   2.901   4.082   6.798 -0.6054 -0.3022 -0.4681
10798SOL    HW233294   2.927   3.926   6.838 -0.8676 -0.4657 -0.9342
10799SOL     OW33295   1.607   5.368   5.970  0.1618 -0.2186  0.0933
10799SOL    HW133296   1.622   5.358   5.872 -3.2002  2.2888 -0.8555
10799SOL    HW233297   1.617   5.464   5.997  1.7419 -0.9415  2.4381
10800SOL     OW33298   2.896   0.132   3.010 -0.3186  0.3720  0.5418
10800SOL    HW133299   2.844   0.047   3.014  1.2674 -0.6323  0.7674
10800SOL    HW233300   2.949   0.134   2.925 -0.3124  1.1299  0.5568
10801SOL     OW33301   4.538   6.889   3.561  0.8319 -0.4112  0.9725
10801SOL    HW133302   4.500   6.813   3.615  2.2216 -0.9973  1.1881
10801SOL    HW233303   4.636   6.898   3.582  0.5969  1.8218  1.3747
10802SOL     OW33304   6.393   5.474   2.428 -0.1473 -0.0529 -0.3982
10802SOL    HW133305   6.489   5.491   2.408  0.1932  3.5102  3.0776
10802SOL    HW233306   6.338   5.551   2.395 -1.5419 -1.0137 -0.4290
10803SOL     OW33307   0.294   1.408   3.761  0.3968  0.2512 -0.4202
10803SOL    HW133308   0.361   1.436   3.831 -1.4433 -1.4498  2.2390
10803SOL    HW233309   0.239   1.486   3.735  1.0144  0.9099  0.1808
10804SOL     OW33310   6.295   3.461   0.300 -0.6944 -0.6899 -0.3459
10804SOL    HW133311   6.242   3.448   0.384  0.0935 -2.0796 -0.0401
10804SOL    HW233312   6.313   3.373   0.258 -0.6006 -0.0467 -1.6990
10805SOL     OW33313   0.586   0.858   5.285  0.3771  0.1987  0.2872
10805SOL    HW133314   0.595   0.767   5.244 -0.0365  1.5734 -3.2064
10805SOL    HW233315   0.676   0.901   5.292  0.3947  0.1605  0.2927
10806SOL     OW33316   4.847   5.154   1.309  0.2574 -0.1582 -0.3393
10806SOL    HW133317   4.766   5.167   1.366 -0.2195  1.0926 -1.2581
10806SOL    HW233318   4.888   5.242   1.287  1.3618 -0.7158 -0.6221
10807SOL     OW33319   6.428   0.407   1.105 -0.0303  0.0023  0.3398
10807SOL    HW133320   6.397   0.432   1.014  0.5347 -0.0674  0.1262
10807SOL    HW233321   6.363   0.441   1.173  1.4200  3.4117  0.1965
10808SOL     OW33322   2.178   5.315   6.093 -0.0663  0.0064  0.1858
10808SOL    HW133323   2.131   5.268   6.168 -1.3797  2.5136  1.0610
10808SOL    HW233324   2.274   5.287   6.091 -0.1955 -0.7578  2.2820
10809SOL     OW33325   6.188   3.771   1.809 -0.2681 -0.0113 -0.4511
10809SOL    HW133326   6.183   3.851   1.869  0.4565  0.1149 -0.5465
10809SOL    HW233327   6.258   3.709   1.844 -0.3319 -0.2669 -0.7778
10810SOL     OW33328   3.614   5.795   5.855  0.2838 -0.2459  0.3597
10810SOL    HW133329   3.680   5.830   5.789 -0.0366 -1.2700 -0.5228
10810SOL    HW233330   3.555   5.870   5.885  0.9012  0.3784  0.0480
10811SOL     OW33331   6.866   2.127   3.959  0.3124 -0.1864  0.2154
10811SOL    HW133332   6.791   2.074   3.999  0.7346 -3.2489 -2.6145
10811SOL    HW233333   6.889   2.089   3.870  3.4046  2.4324 -0.2608
10812SOL     OW33334   2.595   3.537   5.775 -0.7618  0.2939 -0.2388
10812SOL    HW133335   2.604   3.489   5.863 -0.5388  0.1458 -0.3412
10812SOL    HW233336   2.583   3.635   5.792  1.4905  0.5938 -0.0700
10813SOL     OW33337   4.997   0.490   6.554  0.4088  0.5530 -0.3059
10813SOL    HW133338   5.060   0.421   6.520  1.2707  0.6310  1.0667
10813SOL    HW233339   4.958   0.540   6.476  0.8029 -0.5521 -1.2493
10814SOL     OW33340   0.142   3.305   0.701  0.1129 -0.1716 -0.0234
10814SOL    HW133341   0.204   3.241   0.746 -1.6524 -1.4683  0.6835
10814SOL    HW233342   0.111   3.267   0.614 -0.1982  0.1532 -0.0600
10815SOL     OW33343   2.921   6.081   5.123  1.0575  0.0704  0.0816
10815SOL    HW133344   2.959   6.000   5.167 -0.7969 -1.1057 -0.3375
10815SOL    HW233345   2.936   6.076   5.025  0.0067 -0.3422 -0.0738
10816SOL     OW33346   6.668   2.158   6.957  0.3968  0.2309 -0.1892
10816SOL    HW133347   6.631   2.068   6.980  0.3292  0.4076  0.4323
10816SOL    HW233348   6.681   2.165   6.858  1.4268 -0.8600 -0.1587
10817SOL     OW33349   4.293   4.561   6.576 -0.1086 -0.4085  0.9029
10817SOL    HW133350   4.271   4.638   6.516 -1.1407  0.7960  2.6988
10817SOL    HW233351   4.382   4.524   6.552 -0.6965 -0.3644 -1.6816
10818SOL     OW33352   5.120   1.605   3.533 -0.1916  0.1069 -0.1516
10818SOL    HW133353   5.191   1.618   3.464 -0.0119  0.3800  0.0796
10818SOL    HW233354   5.157   1.629   3.623 -1.2338  2.5593 -0.2920
10819SOL     OW33355   2.918   2.839   0.062 -0.4025 -0.3542  0.4590
10819SOL    HW133356   2.863   2.798  -0.010  0.8576 -0.4587 -0.4744
10819SOL    HW233357   2.860   2.895   0.121 -1.6219 -1.0811 -0.0326
10820SOL     OW33358   4.794   1.810   5.368 -0.8213 -0.1151  0.6378
10820SOL    HW133359   4.774   1.757   5.450 -1.5226  0.0189  0.5575
10820SOL    HW233360   4.853   1.757   5.306  0.5283  0.1445  1.6472
10821SOL     OW33361   1.009   1.673   3.056  0.4113  0.2288 -0.1499
10821SOL    HW133362   1.041   1.578   3.060  1.1122  0.2109 -3.5894
10821SOL    HW233363   0.911   1.676   3.075  0.6550 -0.9381  1.4639
10822SOL     OW33364   3.722   5.292   6.928  0.0875  0.9209 -0.4105
10822SOL    HW133365   3.712   5.389   6.908 -2.4603  0.7652 -0.1299
10822SOL    HW233366   3.759   5.280   7.020 -1.2487  1.6405  0.2308
10823SOL     OW33367   2.023   2.058   3.874  0.0426  0.4068  0.1064
10823SOL    HW133368   1.933   2.049   3.831  0.2529  0.2203 -0.2997
10823SOL    HW233369   2.074   1.973   3.862 -0.0937  0.1454  1.1994
10824SOL     OW33370   3.058   5.853   5.902  0.6420 -0.9497  0.1500
10824SOL    HW133371   3.043   5.789   5.977  0.5620 -0.4643  0.5499
10824SOL    HW233372   2.974   5.860   5.847  0.4683 -0.7650  0.4354
10825SOL     OW33373   0.200   2.851   0.478  0.2388  0.3930 -0.3487
10825SOL    HW133374   0.177   2.945   0.504 -0.5417 -0.0115  0.4872
10825SOL    HW233375   0.171   2.834   0.384  0.6924  1.0860 -0.6219
10826SOL     OW33376   2.971   1.393   4.978  0.2597  0.1809  0.2298
10826SOL    HW133377   2.998   1.297   4.966 -0.5464  0.0879 -0.9690
10826SOL    HW233378   2.874   1.403   4.956  0.9081  1.7144 -2.3971
10827SOL     OW33379   5.840   5.616   2.698 -0.1398 -0.2020  0.3218
10827SOL    HW133380   5.935   5.609   2.726  0.1215  1.4582 -0.0578
10827SOL    HW233381   5.784   5.645   2.777 -0.1489 -0.1192  0.2857
10828SOL     OW33382   1.703   1.452   1.222 -0.1782 -0.6344  0.1897
10828SOL    HW133383   1.739   1.494   1.305  0.8347 -1.9502  0.4522
10828SOL    HW233384   1.681   1.524   1.155  2.0441  0.3148  0.3775
10829SOL     OW33385   0.395   6.201   6.901 -0.2572 -0.6166  0.2970
10829SOL    HW133386   0.385   6.211   6.802  1.5037  1.9502  0.2954
10829SOL    HW233387   0.321   6.249   6.948  0.6948  1.0127  0.1940
10830SOL     OW33388   2.540   4.661   6.382  0.5570 -0.1722  0.5230
10830SOL    HW133389   2.445   4.670   6.413  0.6521 -1.5442  1.2978
10830SOL    HW233390   2.541   4.649   6.283 -0.1597 -1.0632  0.6100
10831SOL     OW33391   2.426   5.243   6.128 -0.1961 -0.0826  0.5851
10831SOL    HW133392   2.485   5.188   6.070 -0.5760  0.5426 -0.4246
10831SOL    HW233393   2.480   5.315   6.173  0.3118 -1.2796  1.9625
10832SOL     OW33394   1.275   4.565   4.808 -0.4542  0.1287  0.3997
10832SOL    HW133395   1.193   4.523   4.769  0.4075 -0.4286 -0.8645
10832SOL    HW233396   1.298   4.648   4.756 -1.2725  1.3716  1.9361
10833SOL     OW33397   0.118   3.992   1.364 -0.5492  0.1479 -0.2961
10833SOL    HW133398   0.075   3.982   1.454 -0.4234 -0.5001 -0.3029
10833SOL    HW233399   0.195   4.055   1.371 -0.4314 -0.0335  0.0894
10834SOL     OW33400   0.913   6.747   6.578 -0.1991 -0.0522  0.1749
10834SOL    HW133401   0.903   6.841   6.543  0.1280  0.7070  1.9812
10834SOL    HW233402   1.001   6.740   6.627 -0.6493 -1.0104  0.8697
10835SOL     OW33403   0.356   1.075   6.885 -0.3966  0.2904 -0.2368
10835SOL    HW133404   0.410   1.045   6.807 -0.0145 -0.4514  0.2904
10835SOL    HW233405   0.392   1.032   6.968  0.2232  2.2851  0.5982
10836SOL     OW33406   5.438   4.825   0.160 -0.2197  0.4733 -0.9761
10836SOL    HW133407   5.523   4.873   0.142 -0.1400  0.6593 -0.1557
10836SOL    HW233408   5.437   4.739   0.109  2.8113 -2.1407  2.7504
10837SOL     OW33409   4.130   0.634   4.099  0.3091  0.0188  0.4754
10837SOL    HW133410   4.161   0.558   4.155  1.7536 -1.8995 -2.6965
10837SOL    HW233411   4.051   0.606   4.045  0.4604  0.9661 -0.2717
10838SOL     OW33412   4.861   3.981   4.427  0.2803 -0.5697  0.0748
10838SOL    HW133413   4.841   4.078   4.414  1.6702 -0.2812 -0.1213
10838SOL    HW233414   4.940   3.972   4.488  0.9430 -1.5351 -0.9046
10839SOL     OW33415   1.724   6.602   1.003  0.2706 -0.2375 -0.2684
10839SOL    HW133416   1.630   6.572   0.992 -0.5743  2.0867  0.0158
10839SOL    HW233417   1.786   6.534   0.964 -1.5058 -1.7835 -0.5120
10840SOL     OW33418   1.911   4.759   2.126  0.0409 -0.3417 -0.1586
10840SOL    HW133419   1.887   4.750   2.030  0.2020 -1.4921 -0.1078
10840SOL    HW233420   1.957   4.846   2.141  1.5055 -0.8448 -1.4621
10841SOL     OW33421   4.288   6.808   6.905  0.0029  0.4254 -0.6780
10841SOL    HW133422   4.336   6.773   6.824 -1.1987  0.6882 -1.5325
10841SOL    HW233423   4.211   6.747   6.927  0.2033  0.4646  0.1582
10842SOL     OW33424   4.555   4.364   3.008  0.1368 -0.8357  0.3115
10842SOL    HW133425   4.643   4.320   3.025  0.5511 -0.0723  0.1604
10842SOL    HW233426   4.484   4.294   2.999  0.5552 -1.4160  1.4140
10843SOL     OW33427   5.577   3.050   2.691  0.6572  0.1474 -0.4923
10843SOL    HW133428   5.669   3.084   2.710  0.4902  0.3136  0.0278
10843SOL    HW233429   5.579   2.951   2.683  1.0144  0.2093 -1.2417
10844SOL     OW33430   2.151   2.403   2.471  0.3274  0.2315 -0.9843
10844SOL    HW133431   2.091   2.364   2.540 -0.6239 -1.4887 -2.6834
10844SOL    HW233432   2.246   2.384   2.496  0.4445  4.0074  2.3470
10845SOL     OW33433   5.309   6.775   6.361 -0.0410  0.0972  0.4014
10845SOL    HW133434   5.305   6.679   6.390  1.2879 -0.3118 -0.6559
10845SOL    HW233435   5.338   6.832   6.438 -2.0458 -0.1290  1.3960
10846SOL     OW33436   6.368   5.178   2.434  0.2533 -0.0497  0.0250
10846SOL    HW133437   6.362   5.255   2.371 -1.4483 -0.2445 -0.1210
10846SOL    HW233438   6.319   5.201   2.519  1.3057 -0.3081  0.7187
10847SOL     OW33439   4.346   5.220   3.463 -0.2612  0.0216 -0.2551
10847SOL    HW133440   4.259   5.184   3.429 -0.4838  0.2209  0.1027
10847SOL    HW233441   4.330   5.303   3.517  0.1475  0.0402 -0.1526
10848SOL     OW33442   0.221   5.313   6.366 -0.8321 -0.3635  0.4606
10848SOL    HW133443   0.169   5.269   6.294 -0.8053  0.4349 -0.0642
10848SOL    HW233444   0.313   5.273   6.371 -0.8649 -0.4770  0.1110
10849SOL     OW33445   5.516   2.652   5.883  0.0084 -0.0223  0.1965
10849SOL    HW133446   5.560   2.618   5.967  0.2820  0.7863  0.3898
10849SOL    HW233447   5.526   2.751   5.878  2.1377 -0.2444 -1.9700
10850SOL     OW33448   6.385   1.195   2.382  0.1039 -0.4929 -0.1503
10850SOL    HW133449   6.313   1.148   2.330 -0.7095  0.5204  0.0285
10850SOL    HW233450   6.381   1.166   2.478 -0.5163  0.0520 -0.0017
10851SOL     OW33451   2.508   1.380   0.155 -0.2582  0.2385 -0.4250
10851SOL    HW133452   2.558   1.391   0.241  1.6361 -4.6238 -0.5744
10851SOL    HW233453   2.571   1.395   0.078 -0.7724  0.3936 -0.8190
10852SOL     OW33454   0.818   0.008   6.525  0.2239 -0.2145  0.5368
10852SOL    HW133455   0.805   0.053   6.613 -1.0904  0.3818  0.0682
10852SOL    HW233456   0.883   0.061   6.470  0.1237  0.0796  0.6977
10853SOL     OW33457   1.581   4.128   0.174  0.3102 -0.8370 -0.1951
10853SOL    HW133458   1.587   4.028   0.180 -1.2124 -1.0544 -1.5370
10853SOL    HW233459   1.652   4.169   0.231  0.6385 -2.6690  0.7966
10854SOL     OW33460   6.077   5.181   0.296  0.2861  0.5449 -0.4969
10854SOL    HW133461   5.994   5.126   0.310  0.8155 -0.2395 -0.3756
10854SOL    HW233462   6.070   5.265   0.349 -1.6066  1.8057 -2.5597
10855SOL     OW33463   6.937   6.020   2.299  0.5106  0.3858  0.4512
10855SOL    HW133464   6.963   6.003   2.204 -1.2764  2.3240 -0.4858
10855SOL    HW233465   7.018   6.041   2.353  1.5212 -0.3698 -0.7129
10856SOL     OW33466   2.002   4.261   4.539 -0.1302  0.3647 -0.1513
10856SOL    HW133467   2.093   4.227   4.514 -0.1223 -0.1707  0.5819
10856SOL    HW233468   1.933   4.192   4.514 -0.2755  0.5009 -0.1272
10857SOL     OW33469   5.643   5.822   5.883  0.3623  0.0750 -0.6124
10857SOL    HW133470   5.724   5.877   5.902  2.3499 -3.0286  0.6455
10857SOL    HW233471   5.594   5.803   5.968 -0.9647  0.8017 -1.1828
10858SOL     OW33472   2.003   0.297   6.948  0.3445  0.0627  0.9506
10858SOL    HW133473   2.090   0.250   6.936 -0.0848 -0.2090 -1.6361
10858SOL    HW233474   2.019   0.387   6.989  1.8993  0.1527  0.2138
10859SOL     OW33475   6.551   4.562   0.615 -0.5008  0.0713 -0.2425
10859SOL    HW133476   6.588   4.469   0.617 -0.1843  0.1727 -0.9620
10859SOL    HW233477   6.550   4.599   0.708  1.6813  0.2399 -0.2348
10860SOL     OW33478   2.045   3.406   5.370  0.1336  0.3778  0.1654
10860SOL    HW133479   2.101   3.400   5.453  0.7262  1.9183 -0.0860
10860SOL    HW233480   2.103   3.390   5.290  0.0561  1.1830 -0.0560
10861SOL     OW33481   5.840   0.350   4.177  0.1949  0.2121  0.3425
10861SOL    HW133482   5.916   0.367   4.113  0.4717  1.0508  0.8787
10861SOL    HW233483   5.792   0.267   4.150 -0.8609  1.4868 -2.0964
10862SOL     OW33484   1.905   5.769   0.456 -0.4131  0.4238 -0.0213
10862SOL    HW133485   1.866   5.704   0.392  0.9628 -0.1551 -0.3170
10862SOL    HW233486   1.920   5.857   0.410  0.9142 -0.0991 -0.6391
10863SOL     OW33487   3.509   6.068   0.973 -0.2027  0.0532  0.3317
10863SOL    HW133488   3.463   6.021   0.897 -1.5289  0.3186  0.9320
10863SOL    HW233489   3.465   6.043   1.059  1.0765  0.0106  0.9961
10864SOL     OW33490   2.235   4.035   2.731  0.0340 -0.1118 -0.4186
10864SOL    HW133491   2.252   4.133   2.736  2.6991 -0.5465  0.9715
10864SOL    HW233492   2.230   4.006   2.635 -0.2486  1.2697 -0.8423
10865SOL     OW33493   2.162   4.473   1.864 -0.0570 -0.3121 -0.3658
10865SOL    HW133494   2.068   4.437   1.871  0.3550 -1.3778 -0.0309
10865SOL    HW233495   2.222   4.417   1.921  0.3159  2.1002  1.7793
10866SOL     OW33496   2.063   1.052   6.913 -0.3565  0.2677 -0.3635
10866SOL    HW133497   2.161   1.073   6.903 -0.2103  0.6187  1.5926
10866SOL    HW233498   2.050   0.952   6.913 -0.1345  0.2227 -1.6016
10867SOL     OW33499   5.156   6.906   5.243 -0.0084  0.3972 -0.8325
10867SOL    HW133500   5.231   6.961   5.209 -0.3917  0.9615 -0.7829
10867SOL    HW233501   5.135   6.933   5.337  0.4291 -0.4981 -0.4654
10868SOL     OW33502   2.329   1.076   6.935  0.4137  0.2921 -0.3150
10868SOL    HW133503   2.384   1.131   6.871  0.7366 -0.4765 -0.7170
10868SOL    HW233504   2.321   1.125   7.022 -1.6957  2.2888 -1.5118
10869NA      NA33505   2.306   4.559   5.501 -0.0209 -0.1362  0.1899
10870NA      NA33506   5.018   3.898   5.312 -0.1380  0.2792 -0.0817
10871NA      NA33507   3.519   4.949   1.851  0.3172  0.2172 -0.6707
10872NA      NA33508   4.562   4.813   3.191 -0.0237  0.0447 -0.2604
10873NA      NA33509   4.456   0.904   4.759  0.5209  0.2968  0.6481
10874NA      NA33510   5.434   4.317   4.242 -0.0187 -0.3429  0.3437
10875NA      NA33511   0.760   3.785   5.418  0.5331 -0.0772 -0.2051
10876NA      NA33512   4.574   4.366   1.768 -0.1406 -0.0298  0.0944
10877NA      NA33513   3.207   2.124   5.208 -0.1914  0.0752 -0.3775
10878NA      NA33514   5.210   1.183   0.883  0.3976  0.0239  0.4796
10879NA      NA33515   3.846   0.124   1.373 -0.0304  0.4988 -0.1372
10880NA      NA33516   6.857   0.089   4.627  0.2210  0.9607 -0.0005
10881NA      NA33517   2.801   2.008   2.373 -0.2644 -0.0189 -0.4810
10882NA      NA33518   4.710   5.133   6.669  0.3272 -0.4334  0.1847
   7.01776   7.01776   7.01776
